Protein in INSANE! Membrane UpperLeaflet>POPC=1.0 LowerLeaflet>POPC=1.0
248712
    1AU     AUC    1  28.008  27.079   7.536
    1AU     AUC    2  28.272  27.073   7.378
    1AU     AUC    3  28.245  27.085   7.714
    1AU     AUC    4  27.742  27.065   7.370
    1AU     AUC    5  27.751  27.122   7.695
    1AU     AUC    6  27.848  27.337   7.491
    1AU     AUC    7  28.185  27.343   7.510
    1AU     AUC    8  27.834  26.820   7.559
    1AU     AUC    9  28.168  26.809   7.569
    1AU     AUC   10  27.994  26.940   7.817
    1AU     AUC   11  28.007  27.283   7.775
    1AU     AUC   12  28.018  26.888   7.293
    1AU     AUC   13  28.030  27.199   7.259
    1AU     AUC   14  28.592  27.056   7.228
    1AU     AUC   15  28.570  27.060   7.575
    1AU     AUC   16  28.521  27.076   7.924
    1AU     AUC   17  27.445  27.023   7.218
    1AU     AUC   18  27.434  27.107   7.543
    1AU     AUC   19  27.451  27.175   7.862
    1AU     AUC   20  27.683  27.636   7.419
    1AU     AUC   21  28.032  27.632   7.425
    1AU     AUC   22  28.373  27.621   7.480
    1AU     AUC   23  27.645  26.535   7.578
    1AU     AUC   24  27.993  26.516   7.573
    1AU     AUC   25  28.346  26.513   7.597
    1AU     AUC   26  27.957  26.789   8.123
    1AU     AUC   27  27.978  27.144   8.098
    1AU     AUC   28  28.031  27.501   8.048
    1AU     AUC   29  28.060  26.691   7.023
    1AU     AUC   30  28.020  27.017   6.965
    1AU     AUC   31  28.024  27.338   6.947
    1AU     AUC   32  28.228  26.912   8.037
    1AU     AUC   33  28.286  27.277   7.995
    1AU     AUC   34  28.335  26.900   7.088
    1AU     AUC   35  28.307  27.212   7.073
    1AU     AUC   36  27.698  27.006   8.007
    1AU     AUC   37  27.736  27.357   7.950
    1AU     AUC   38  27.741  26.841   7.113
    1AU     AUC   39  27.703  27.152   7.060
    1AU     AUC   40  28.492  27.329   7.351
    1AU     AUC   41  28.452  27.354   7.700
    1AU     AUC   42  27.546  27.340   7.344
    1AU     AUC   43  27.579  27.434   7.667
    1AU     AUC   44  28.481  26.794   7.434
    1AU     AUC   45  28.415  26.774   7.773
    1AU     AUC   46  27.546  26.761   7.401
    1AU     AUC   47  27.559  26.851   7.735
    1AU     AUC   48  27.886  27.589   7.745
    1AU     AUC   49  28.218  27.563   7.775
    1AU     AUC   50  27.808  26.661   7.850
    1AU     AUC   51  28.118  26.611   7.849
    1AU     AUC   52  27.832  27.479   7.182
    1AU     AUC   53  28.191  27.502   7.187
    1AU     AUC   54  27.859  26.595   7.287
    1AU     AUC   55  28.231  26.639   7.305
    1AU    AUSL   56  28.474  27.024   8.329
    1AU    AUSL   57  28.233  26.634   8.254
    1AU     AUL   58  28.527  26.669   8.453
    1AU    AUSL   59  28.061  26.971   8.446
    1AU    AUSL   60  27.822  27.356   8.414
    1AU     AUL   61  28.048  27.289   8.706
    1AU    AUSL   62  28.174  27.322   8.196
    1AU    AUSL   63  28.626  27.360   8.120
    1AU     AUL   64  28.446  27.345   8.458
    1AU    AUSL   65  28.495  27.072   6.843
    1AU    AUSL   66  28.428  27.498   6.851
    1AU     AUL   67  28.748  27.312   6.686
    1AU    AUSL   68  28.280  26.766   6.641
    1AU    AUSL   69  28.777  26.831   7.037
    1AU     AUL   70  28.643  26.835   6.667
    1AU    AUSL   71  28.111  27.218   6.743
    1AU    AUSL   72  27.918  26.831   6.835
    1AU     AUL   73  28.048  26.889   6.501
    1AU    AUSL   74  27.445  27.303   8.197
    1AU    AUSL   75  27.773  27.613   8.083
    1AU     AUL   76  27.593  27.601   8.405
    1AU    AUSL   77  27.737  26.997   8.186
    1AU    AUSL   78  27.323  26.878   8.131
    1AU     AUL   79  27.263  27.102   8.281
    1AU    AUSL   80  27.494  26.829   6.809
    1AU    AUSL   81  27.720  26.499   6.997
    1AU     AUL   82  27.791  26.526   6.672
    1AU    AUSL   83  27.698  27.170   6.647
    1AU    AUSL   84  27.369  27.193   7.003
    1AU     AUL   85  27.277  27.035   6.735
    1AU    AUSL   86  28.798  27.554   7.473
    1AU    AUSL   87  28.680  27.294   7.146
    1AU     AUL   88  29.019  27.402   7.066
    1AU    AUSL   89  28.968  27.149   7.426
    1AU    AUSL   90  28.893  26.881   7.820
    1AU     AUL   91  29.191  26.983   7.692
    1AU    AUSL   92  28.674  27.222   7.729
    1AU    AUSL   93  28.532  27.630   7.791
    1AU     AUL   94  28.874  27.417   7.865
    1AU    AUSL   95  27.427  27.699   7.450
    1AU    AUSL   96  27.451  27.494   7.825
    1AU     AUL   97  27.137  27.721   7.636
    1AU    AUSL   98  27.260  27.302   7.392
    1AU    AUSL   99  27.408  27.617   7.043
    1AU     AUL  100  27.146  27.531   7.185
    1AU    AUSL  101  27.093  27.292   7.803
    1AU    AUSL  102  27.088  26.921   7.376
    1AU     AUL  103  26.908  27.259   7.493
    1AU    AUSL  104  28.685  26.526   7.675
    1AU    AUSL  105  28.505  26.814   7.969
    1AU     AUL  106  28.807  26.725   8.070
    1AU    AUSL  107  28.661  26.873   7.435
    1AU    AUSL  108  28.663  26.464   7.252
    1AU     AUL  109  28.923  26.690   7.340
    1AU    AUSL  110  27.265  26.565   7.588
    1AU    AUSL  111  27.435  26.754   7.213
    1AU     AUL  112  27.066  26.634   7.259
    1AU    AUSL  113  27.335  26.966   7.723
    1AU    AUSL  114  27.556  26.611   7.893
    1AU     AUL  115  27.237  26.595   7.926
    1AU    AUSL  116  28.056  27.879   7.915
    1AU    AUSL  117  27.614  27.890   7.784
    1AU     AUL  118  27.799  27.958   8.156
    1AU    AUSL  119  27.915  27.773   7.525
    1AU    AUSL  120  28.161  27.934   7.195
    1AU     AUL  121  27.876  28.132   7.455
    1AU    AUSL  122  28.326  27.924   7.581
    1AU    AUSL  123  28.342  27.701   8.164
    1AU     AUL  124  28.433  27.963   7.921
    1AU    AUSL  125  27.938  26.441   8.013
    1AU    AUSL  126  28.362  26.410   7.914
    1AU     AUL  127  28.106  26.339   8.285
    1AU    AUSL  128  27.652  26.238   7.737
    1AU    AUSL  129  27.697  26.609   8.310
    1AU     AUL  130  27.607  26.313   8.084
    1AU    AUSL  131  28.086  26.163   7.720
    1AU    AUSL  132  27.878  26.368   7.398
    1AU     AUL  133  27.770  26.016   7.519
    1AU    AUSL  134  28.044  27.678   6.853
    1AU    AUSL  135  28.448  27.639   7.253
    1AU     AUL  136  28.329  27.837   6.893
    1AU    AUSL  137  27.753  27.822   7.142
    1AU    AUSL  138  27.762  27.399   6.980
    1AU     AUL  139  27.713  27.671   6.770
    1AU    AUSL  140  28.107  26.332   7.030
    1AU    AUSL  141  27.475  26.329   7.309
    1AU     AUL  142  27.775  26.166   7.078
    1AU    AUSL  143  28.301  26.375   7.427
    1AU    AUSL  144  28.352  26.675   7.041
    1AU     AUL  145  28.433  26.347   7.025
    1AU       S  146  28.549  26.212   8.317
    1AU     LIG  147  28.789  25.789   8.315
    1AU     LIG  148  28.946  25.352   8.432
    1AU     LIG  149  29.421  25.197   8.422
    1AU       S  150  28.418  26.986   8.773
    1AU     LIG  151  28.814  26.836   8.905
    1AU     LIG  152  29.064  26.910   9.305
    1AU     LIG  153  29.252  27.018   9.737
    1AU       S  154  28.073  26.815   8.662
    1AU     LIG  155  28.178  26.651   9.066
    1AU     LIG  156  28.569  26.672   9.336
    1AU     LIG  157  28.823  26.711   9.733
    1AU       S  158  27.611  27.161   8.634
    1AU     LIG  159  27.669  27.144   9.086
    1AU     LIG  160  27.322  26.981   9.354
    1AU     LIG  161  26.999  27.022   9.712
    1AU       S  162  28.068  27.735   8.525
    1AU     LIG  163  28.370  28.006   8.716
    1AU     LIG  164  28.761  27.790   8.817
    1AU     LIG  165  28.827  27.340   8.793
    1AU       S  166  28.809  27.603   8.292
    1AU     LIG  167  29.158  27.598   8.499
    1AU     LIG  168  29.271  27.915   8.786
    1AU     LIG  169  29.436  28.259   9.055
    1AU       S  170  28.411  27.236   6.387
    1AU     LIG  171  28.850  27.276   6.191
    1AU     LIG  172  29.040  26.928   5.964
    1AU     LIG  173  28.904  26.509   5.798
    1AU       S  174  28.770  27.752   6.869
    1AU     LIG  175  28.692  27.765   6.454
    1AU     LIG  176  28.931  27.991   6.120
    1AU     LIG  177  29.278  28.286   6.012
    1AU       S  178  29.010  26.612   6.873
    1AU     LIG  179  28.989  26.625   6.372
    1AU     LIG  180  28.789  26.243   6.223
    1AU     LIG  181  28.779  25.868   6.494
    1AU       S  182  28.426  27.062   6.316
    1AU     LIG  183  28.481  26.672   6.173
    1AU     LIG  184  28.378  26.483   5.788
    1AU     LIG  185  28.552  26.474   5.353
    1AU       S  186  27.622  26.817   6.341
    1AU     LIG  187  27.912  26.688   6.038
    1AU     LIG  188  27.930  26.680   5.572
    1AU     LIG  189  27.764  26.906   5.200
    1AU       S  190  28.174  27.345   6.472
    1AU     LIG  191  27.982  27.205   6.098
    1AU     LIG  192  28.244  27.007   5.813
    1AU     LIG  193  28.638  26.916   5.632
    1AU       S  194  27.403  27.277   8.683
    1AU     LIG  195  27.089  27.013   8.741
    1AU     LIG  196  27.112  26.651   8.976
    1AU     LIG  197  26.965  26.591   9.408
    1AU       S  198  27.327  27.883   8.137
    1AU     LIG  199  27.253  27.987   8.539
    1AU     LIG  200  26.988  27.856   8.871
    1AU     LIG  201  26.556  27.971   9.006
    1AU       S  202  27.212  26.655   8.407
    1AU     LIG  203  26.793  26.530   8.202
    1AU     LIG  204  26.556  26.135   8.348
    1AU     LIG  205  26.234  26.078   8.689
    1AU       S  206  27.594  26.978   8.590
    1AU     LIG  207  27.637  26.670   8.935
    1AU     LIG  208  27.475  26.484   9.336
    1AU     LIG  209  27.347  26.634   9.760
    1AU       S  210  27.432  26.720   6.440
    1AU     LIG  211  27.278  26.682   6.012
    1AU     LIG  212  27.422  26.808   5.608
    1AU     LIG  213  27.277  27.108   5.293
    1AU       S  214  27.396  26.329   6.832
    1AU     LIG  215  27.274  25.982   6.589
    1AU     LIG  216  27.116  25.776   6.212
    1AU     LIG  217  26.824  25.957   5.887
    1AU       S  218  27.086  27.451   6.703
    1AU     LIG  219  26.807  27.761   6.865
    1AU     LIG  220  26.828  28.121   6.601
    1AU     LIG  221  26.819  28.138   6.119
    1AU       S  222  27.625  27.096   6.419
    1AU     LIG  223  27.262  27.175   6.217
    1AU     LIG  224  27.365  27.283   5.803
    1AU     LIG  225  27.776  27.200   5.615
    1AU       S  226  28.819  27.805   7.031
    1AU     LIG  227  29.245  27.773   6.757
    1AU     LIG  228  29.389  27.856   6.322
    1AU     LIG  229  29.614  27.893   5.909
    1AU       S  230  29.006  27.658   7.480
    1AU     LIG  231  29.300  27.825   7.257
    1AU     LIG  232  29.649  27.768   7.518
    1AU     LIG  233  30.063  27.792   7.546
    1AU       S  234  29.267  27.374   7.455
    1AU     LIG  235  29.569  27.411   7.114
    1AU     LIG  236  30.006  27.589   7.043
    1AU     LIG  237  30.353  27.725   6.730
    1AU       S  238  29.153  26.524   7.841
    1AU     LIG  239  29.531  26.302   7.970
    1AU     LIG  240  29.865  26.038   7.830
    1AU     LIG  241  30.080  26.031   7.423
    1AU       S  242  28.843  27.823   8.087
    1AU     LIG  243  29.227  28.025   8.239
    1AU     LIG  244  29.307  28.377   8.549
    1AU     LIG  245  29.275  28.724   8.882
    1AU       S  246  29.247  27.480   7.623
    1AU     LIG  247  29.376  27.555   8.000
    1AU     LIG  248  29.813  27.641   8.030
    1AU     LIG  249  30.236  27.570   7.957
    1AU       S  250  27.256  27.706   8.079
    1AU     LIG  251  27.030  27.539   8.423
    1AU     LIG  252  26.623  27.677   8.553
    1AU     LIG  253  26.298  27.999   8.532
    1AU       S  254  27.364  28.022   7.342
    1AU     LIG  255  27.070  28.360   7.289
    1AU     LIG  256  26.695  28.435   7.034
    1AU     LIG  257  26.386  28.109   6.886
    1AU       S  258  26.883  27.159   7.031
    1AU     LIG  259  26.483  27.362   7.181
    1AU     LIG  260  26.099  27.670   7.190
    1AU     LIG  261  25.910  28.088   7.105
    1AU       S  262  27.296  27.856   6.865
    1AU     LIG  263  27.361  28.251   6.707
    1AU     LIG  264  27.078  28.567   6.580
    1AU     LIG  265  26.668  28.547   6.369
    1AU       S  266  26.863  26.820   7.656
    1AU     LIG  267  26.562  26.864   7.355
    1AU     LIG  268  26.098  26.846   7.306
    1AU     LIG  269  25.717  26.796   7.053
    1AU       S  270  26.968  27.330   7.968
    1AU     LIG  271  26.765  27.082   8.255
    1AU     LIG  272  26.395  27.318   8.225
    1AU     LIG  273  26.305  27.692   7.950
    1AU       S  274  28.844  26.393   7.705
    1AU     LIG  275  28.945  26.090   7.456
    1AU     LIG  276  29.402  26.019   7.535
    1AU     LIG  277  29.704  25.680   7.489
    1AU       S  278  28.732  26.293   8.175
    1AU     LIG  279  29.066  26.034   7.954
    1AU     LIG  280  29.391  25.777   8.044
    1AU     LIG  281  29.332  25.696   8.492
    1AU       S  282  29.154  26.486   7.663
    1AU     LIG  283  29.377  26.467   7.277
    1AU     LIG  284  29.808  26.363   7.120
    1AU     LIG  285  30.253  26.271   6.966
    1AU       S  286  28.918  26.341   7.021
    1AU     LIG  287  28.732  25.958   7.010
    1AU     LIG  288  28.511  25.644   6.878
    1AU     LIG  289  28.499  25.432   6.507
    1AU       S  290  27.252  26.441   6.890
    1AU     LIG  291  26.897  26.483   6.699
    1AU     LIG  292  26.572  26.181   6.576
    1AU     LIG  293  26.306  25.800   6.608
    1AU       S  294  26.845  26.579   7.680
    1AU     LIG  295  26.791  26.214   7.415
    1AU     LIG  296  26.416  26.086   7.096
    1AU     LIG  297  25.977  26.314   7.019
    1AU       S  298  27.250  26.441   8.361
    1AU     LIG  299  27.130  26.114   8.042
    1AU     LIG  300  26.782  25.806   8.015
    1AU     LIG  301  26.389  25.636   8.191
    1AU       S  302  26.885  26.865   7.813
    1AU     LIG  303  26.425  26.837   7.894
    1AU     LIG  304  26.004  26.662   7.792
    1AU     LIG  305  25.652  26.516   8.045
    1AU       S  306  27.484  28.066   7.815
    1AU     LIG  307  27.048  28.171   7.830
    1AU     LIG  308  26.812  28.017   8.199
    1AU     LIG  309  26.752  28.234   8.598
    1AU       S  310  28.057  28.222   7.870
    1AU     LIG  311  28.140  28.360   8.263
    1AU     LIG  312  28.020  28.824   8.329
    1AU     LIG  313  27.887  29.272   8.475
    1AU       S  314  28.176  28.401   7.753
    1AU     LIG  315  27.766  28.614   7.850
    1AU     LIG  316  27.644  29.022   7.997
    1AU     LIG  317  27.891  29.364   7.975
    1AU       S  318  28.066  28.204   7.031
    1AU     LIG  319  28.012  28.597   7.278
    1AU     LIG  320  28.044  29.068   7.312
    1AU     LIG  321  28.300  29.386   7.080
    1AU       S  322  28.596  27.797   8.331
    1AU     LIG  323  28.802  28.172   8.476
    1AU     LIG  324  28.929  28.288   8.896
    1AU     LIG  325  29.019  28.013   9.256
    1AU       S  326  28.339  28.242   7.544
    1AU     LIG  327  28.431  28.744   7.523
    1AU     LIG  328  28.176  28.956   7.844
    1AU     LIG  329  28.327  29.237   8.195
    1AU       S  330  27.920  25.951   8.112
    1AU     LIG  331  28.299  25.686   8.197
    1AU     LIG  332  28.393  25.254   8.269
    1AU     LIG  333  28.084  24.919   8.387
    1AU       S  334  28.497  26.261   8.030
    1AU     LIG  335  28.584  25.917   7.841
    1AU     LIG  336  28.709  25.475   7.909
    1AU     LIG  337  29.155  25.319   7.984
    1AU       S  338  27.736  25.883   7.964
    1AU     LIG  339  27.665  25.541   7.728
    1AU     LIG  340  27.757  25.114   7.883
    1AU     LIG  341  27.566  24.941   8.265
    1AU       S  342  27.493  26.518   8.491
    1AU     LIG  343  27.463  26.013   8.457
    1AU     LIG  344  27.036  25.818   8.477
    1AU     LIG  345  26.621  25.719   8.655
    1AU       S  346  28.168  25.939   7.305
    1AU     LIG  347  27.843  25.673   7.166
    1AU     LIG  348  28.057  25.404   6.915
    1AU     LIG  349  28.089  25.000   6.985
    1AU       S  350  28.079  25.993   7.885
    1AU     LIG  351  28.166  25.621   7.687
    1AU     LIG  352  28.290  25.197   7.746
    1AU     LIG  353  28.363  24.832   7.970
    1AU       S  354  27.943  28.082   6.752
    1AU     LIG  355  27.860  28.536   6.728
    1AU     LIG  356  28.159  28.874   6.840
    1AU     LIG  357  28.402  29.211   6.610
    1AU       S  358  28.676  27.932   7.205
    1AU     LIG  359  29.072  28.218   7.035
    1AU     LIG  360  29.304  28.280   6.626
    1AU     LIG  361  29.408  28.657   6.364
    1AU       S  362  27.739  28.088   6.999
    1AU     LIG  363  27.551  28.468   7.135
    1AU     LIG  364  27.650  28.919   7.011
    1AU     LIG  365  27.880  29.292   6.778
    1AU       S  366  27.329  27.499   6.602
    1AU     LIG  367  27.221  27.869   6.363
    1AU     LIG  368  27.295  28.299   6.190
    1AU     LIG  369  27.058  28.681   6.052
    1AU       S  370  27.301  26.246   7.125
    1AU     LIG  371  26.928  26.029   6.960
    1AU     LIG  372  26.809  25.733   6.633
    1AU     LIG  373  26.617  25.618   6.214
    1AU       S  374  28.217  25.964   7.137
    1AU     LIG  375  28.076  25.884   6.719
    1AU     LIG  376  28.018  25.485   6.417
    1AU     LIG  377  28.193  25.028   6.481
    1AU       S  378  28.415  26.061   7.401
    1AU     LIG  379  28.593  25.667   7.410
    1AU     LIG  380  28.423  25.331   7.271
    1AU     LIG  381  28.573  25.130   6.916
    1AU       S  382  28.797  26.409   6.767
    1AU     LIG  383  28.396  26.276   6.543
    1AU     LIG  384  28.329  25.912   6.261
    1AU     LIG  385  28.596  25.606   6.028
    2AU     AUC  386  12.432  25.749   7.534
    2AU     AUC  387  12.689  25.745   7.368
    2AU     AUC  388  12.674  25.741   7.704
    2AU     AUC  389  12.162  25.748   7.376
    2AU     AUC  390  12.183  25.796   7.702
    2AU     AUC  391  12.277  26.011   7.499
    2AU     AUC  392  12.619  26.014   7.507
    2AU     AUC  393  12.254  25.494   7.557
    2AU     AUC  394  12.587  25.472   7.553
    2AU     AUC  395  12.424  25.601   7.811
    2AU     AUC  396  12.444  25.944   7.778
    2AU     AUC  397  12.427  25.564   7.284
    2AU     AUC  398  12.446  25.878   7.261
    2AU     AUC  399  13.005  25.742   7.210
    2AU     AUC  400  12.993  25.719   7.549
    2AU     AUC  401  12.954  25.713   7.905
    2AU     AUC  402  11.860  25.715   7.234
    2AU     AUC  403  11.861  25.795   7.560
    2AU     AUC  404  11.890  25.854   7.883
    2AU     AUC  405  12.120  26.318   7.441
    2AU     AUC  406  12.480  26.300   7.430
    2AU     AUC  407  12.816  26.283   7.468
    2AU     AUC  408  12.058  25.214   7.578
    2AU     AUC  409  12.405  25.184   7.557
    2AU     AUC  410  12.756  25.172   7.564
    2AU     AUC  411  12.395  25.445   8.115
    2AU     AUC  412  12.421  25.795   8.098
    2AU     AUC  413  12.482  26.153   8.058
    2AU     AUC  414  12.459  25.376   7.006
    2AU     AUC  415  12.416  25.705   6.958
    2AU     AUC  416  12.412  26.025   6.949
    2AU     AUC  417  12.667  25.557   8.021
    2AU     AUC  418  12.723  25.917   7.997
    2AU     AUC  419  12.733  25.577   7.076
    2AU     AUC  420  12.709  25.895   7.085
    2AU     AUC  421  12.136  25.672   8.014
    2AU     AUC  422  12.182  26.023   7.964
    2AU     AUC  423  12.147  25.529   7.114
    2AU     AUC  424  12.116  25.840   7.068
    2AU     AUC  425  12.931  26.012   7.348
    2AU     AUC  426  12.880  26.003   7.698
    2AU     AUC  427  11.975  26.028   7.359
    2AU     AUC  428  12.018  26.114   7.687
    2AU     AUC  429  12.889  25.455   7.398
    2AU     AUC  430  12.842  25.426   7.744
    2AU     AUC  431  11.959  25.448   7.410
    2AU     AUC  432  11.987  25.532   7.741
    2AU     AUC  433  12.333  26.255   7.757
    2AU     AUC  434  12.657  26.216   7.779
    2AU     AUC  435  12.232  25.329   7.845
    2AU     AUC  436  12.546  25.271   7.831
    2AU     AUC  437  12.252  26.170   7.189
    2AU     AUC  438  12.615  26.192   7.203
    2AU     AUC  439  12.264  25.276   7.281
    2AU     AUC  440  12.636  25.305   7.279
    2AU    AUSL  441  12.921  25.655   8.308
    2AU    AUSL  442  12.683  25.276   8.232
    2AU     AUL  443  13.002  25.303   8.403
    2AU    AUSL  444  12.510  25.605   8.436
    2AU    AUSL  445  12.284  26.005   8.424
    2AU     AUL  446  12.512  25.903   8.711
    2AU    AUSL  447  12.625  25.961   8.194
    2AU    AUSL  448  13.070  26.000   8.115
    2AU     AUL  449  12.906  25.968   8.458
    2AU    AUSL  450  12.866  25.771   6.889
    2AU    AUSL  451  12.731  26.167   6.971
    2AU     AUL  452  12.935  26.103   6.686
    2AU    AUSL  453  12.691  25.494   6.623
    2AU    AUSL  454  13.169  25.503   6.995
    2AU     AUL  455  13.076  25.643   6.666
    2AU    AUSL  456  12.506  25.908   6.707
    2AU    AUSL  457  12.317  25.516   6.816
    2AU     AUL  458  12.422  25.561   6.492
    2AU    AUSL  459  11.897  25.971   8.220
    2AU    AUSL  460  12.235  26.275   8.102
    2AU     AUL  461  12.071  26.257   8.432
    2AU    AUSL  462  12.178  25.656   8.190
    2AU    AUSL  463  11.763  25.553   8.147
    2AU     AUL  464  11.697  25.767   8.301
    2AU    AUSL  465  11.889  25.523   6.821
    2AU    AUSL  466  12.117  25.196   7.001
    2AU     AUL  467  12.168  25.208   6.671
    2AU    AUSL  468  12.085  25.869   6.668
    2AU    AUSL  469  11.790  25.891   7.027
    2AU     AUL  470  11.666  25.733   6.766
    2AU    AUSL  471  13.213  26.205   7.497
    2AU    AUSL  472  13.139  26.020   7.090
    2AU     AUL  473  13.481  26.204   7.176
    2AU    AUSL  474  13.374  25.818   7.385
    2AU    AUSL  475  13.331  25.516   7.755
    2AU     AUL  476  13.629  25.611   7.556
    2AU    AUSL  477  13.101  25.860   7.723
    2AU    AUSL  478  12.936  26.266   7.801
    2AU     AUL  479  13.304  26.025   7.864
    2AU    AUSL  480  11.864  26.390   7.485
    2AU    AUSL  481  11.899  26.173   7.853
    2AU     AUL  482  11.581  26.423   7.683
    2AU    AUSL  483  11.689  25.998   7.418
    2AU    AUSL  484  11.830  26.312   7.078
    2AU     AUL  485  11.573  26.236   7.224
    2AU    AUSL  486  11.533  25.987   7.831
    2AU    AUSL  487  11.505  25.623   7.401
    2AU     AUL  488  11.335  25.964   7.528
    2AU    AUSL  489  13.093  25.177   7.622
    2AU    AUSL  490  12.952  25.457   7.939
    2AU     AUL  491  13.265  25.361   8.005
    2AU    AUSL  492  13.072  25.533   7.397
    2AU    AUSL  493  13.054  25.128   7.201
    2AU     AUL  494  13.326  25.346   7.280
    2AU    AUSL  495  11.676  25.258   7.603
    2AU    AUSL  496  11.842  25.449   7.226
    2AU     AUL  497  11.474  25.341   7.277
    2AU    AUSL  498  11.764  25.655   7.742
    2AU    AUSL  499  11.980  25.285   7.896
    2AU     AUL  500  11.670  25.296   7.953
    2AU    AUSL  501  12.521  26.532   7.923
    2AU    AUSL  502  12.073  26.565   7.816
    2AU     AUL  503  12.286  26.616   8.176
    2AU    AUSL  504  12.356  26.441   7.541
    2AU    AUSL  505  12.593  26.562   7.198
    2AU     AUL  506  12.350  26.793   7.486
    2AU    AUSL  507  12.778  26.581   7.578
    2AU    AUSL  508  12.786  26.344   8.189
    2AU     AUL  509  12.888  26.605   7.924
    2AU    AUSL  510  12.367  25.112   7.997
    2AU    AUSL  511  12.784  25.063   7.878
    2AU     AUL  512  12.540  24.993   8.259
    2AU    AUSL  513  12.063  24.912   7.733
    2AU    AUSL  514  12.134  25.266   8.307
    2AU     AUL  515  12.043  24.972   8.078
    2AU    AUSL  516  12.491  24.826   7.700
    2AU    AUSL  517  12.281  25.044   7.390
    2AU     AUL  518  12.164  24.688   7.507
    2AU    AUSL  519  12.423  26.401   6.817
    2AU    AUSL  520  12.977  26.405   7.219
    2AU     AUL  521  12.752  26.509   6.877
    2AU    AUSL  522  12.177  26.518   7.168
    2AU    AUSL  523  12.187  26.102   6.991
    2AU     AUL  524  12.103  26.386   6.798
    2AU    AUSL  525  12.491  25.001   7.012
    2AU    AUSL  526  11.874  25.022   7.316
    2AU     AUL  527  12.151  24.857   7.072
    2AU    AUSL  528  12.705  25.028   7.400
    2AU    AUSL  529  12.737  25.343   7.008
    2AU     AUL  530  12.814  24.982   7.005
    2AU       S  531  12.980  24.850   8.268
    2AU     LIG  532  13.214  24.462   8.268
    2AU     LIG  533  13.390  24.091   8.316
    2AU     LIG  534  13.475  23.908   8.691
    2AU       S  535  12.872  25.581   8.747
    2AU     LIG  536  13.203  25.827   8.892
    2AU     LIG  537  13.404  25.773   9.315
    2AU     LIG  538  13.440  25.635   9.775
    2AU       S  539  12.514  25.428   8.647
    2AU     LIG  540  12.541  25.474   9.101
    2AU     LIG  541  12.955  25.459   9.351
    2AU     LIG  542  13.225  25.182   9.645
    2AU       S  543  12.065  25.811   8.646
    2AU     LIG  544  12.125  25.789   9.096
    2AU     LIG  545  11.826  25.664   9.421
    2AU     LIG  546  11.688  25.772   9.843
    2AU       S  547  12.541  26.362   8.569
    2AU     LIG  548  12.837  26.637   8.729
    2AU     LIG  549  13.229  26.434   8.813
    2AU     LIG  550  13.557  26.203   9.019
    2AU       S  551  13.255  26.240   8.279
    2AU     LIG  552  13.598  26.285   8.486
    2AU     LIG  553  13.713  26.620   8.733
    2AU     LIG  554  14.007  26.897   8.958
    2AU       S  555  12.786  25.879   6.322
    2AU     LIG  556  13.040  25.917   5.925
    2AU     LIG  557  13.109  25.522   5.721
    2AU     LIG  558  13.180  25.149   5.456
    2AU       S  559  13.205  26.473   6.823
    2AU     LIG  560  13.075  26.828   6.609
    2AU     LIG  561  13.289  27.059   6.276
    2AU     LIG  562  13.636  27.317   6.170
    2AU       S  563  13.319  25.255   6.798
    2AU     LIG  564  13.456  24.966   6.451
    2AU     LIG  565  13.606  24.548   6.386
    2AU     LIG  566  13.639  24.197   6.661
    2AU       S  567  12.801  25.710   6.294
    2AU     LIG  568  12.799  25.320   6.150
    2AU     LIG  569  12.725  25.171   5.735
    2AU     LIG  570  12.715  25.386   5.325
    2AU       S  571  11.994  25.522   6.345
    2AU     LIG  572  12.281  25.351   6.033
    2AU     LIG  573  12.257  25.319   5.569
    2AU     LIG  574  12.213  25.477   5.138
    2AU       S  575  12.532  26.017   6.447
    2AU     LIG  576  12.343  25.852   6.069
    2AU     LIG  577  12.607  25.676   5.759
    2AU     LIG  578  12.866  25.876   5.418
    2AU       S  579  11.861  25.930   8.697
    2AU     LIG  580  11.619  25.603   8.854
    2AU     LIG  581  11.461  25.368   9.203
    2AU     LIG  582  11.322  25.447   9.637
    2AU       S  583  11.809  26.549   8.185
    2AU     LIG  584  11.609  26.746   8.497
    2AU     LIG  585  11.272  26.838   8.754
    2AU     LIG  586  11.018  26.859   9.125
    2AU       S  587  11.675  25.321   8.445
    2AU     LIG  588  11.287  25.399   8.290
    2AU     LIG  589  11.124  25.009   8.176
    2AU     LIG  590  11.119  24.724   8.533
    2AU       S  591  12.051  25.640   8.592
    2AU     LIG  592  12.058  25.323   8.923
    2AU     LIG  593  11.922  25.164   9.334
    2AU     LIG  594  11.773  25.241   9.767
    2AU       S  595  11.830  25.443   6.458
    2AU     LIG  596  11.569  25.323   6.151
    2AU     LIG  597  11.811  25.422   5.810
    2AU     LIG  598  11.760  25.540   5.384
    2AU       S  599  11.770  25.038   6.847
    2AU     LIG  600  11.736  24.633   6.710
    2AU     LIG  601  11.638  24.436   6.310
    2AU     LIG  602  11.261  24.480   6.093
    2AU       S  603  11.508  26.162   6.740
    2AU     LIG  604  11.223  26.500   6.782
    2AU     LIG  605  11.196  26.893   6.544
    2AU     LIG  606  11.134  27.034   6.124
    2AU       S  607  12.018  25.814   6.448
    2AU     LIG  608  11.664  25.878   6.205
    2AU     LIG  609  11.752  25.923   5.755
    2AU     LIG  610  12.161  25.829   5.538
    2AU       S  611  13.305  26.357   6.790
    2AU     LIG  612  13.541  26.638   6.470
    2AU     LIG  613  13.742  26.816   6.077
    2AU     LIG  614  14.095  27.124   5.997
    2AU       S  615  13.369  26.413   7.585
    2AU     LIG  616  13.701  26.647   7.334
    2AU     LIG  617  14.181  26.733   7.376
    2AU     LIG  618  14.627  26.704   7.554
    2AU       S  619  13.674  26.082   7.581
    2AU     LIG  620  14.048  26.236   7.420
    2AU     LIG  621  14.493  26.256   7.321
    2AU     LIG  622  14.811  26.513   7.112
    2AU       S  623  13.567  25.164   7.713
    2AU     LIG  624  13.757  25.053   8.062
    2AU     LIG  625  14.202  25.034   8.053
    2AU     LIG  626  14.487  24.757   7.879
    2AU       S  627  13.290  26.443   8.079
    2AU     LIG  628  13.662  26.704   8.187
    2AU     LIG  629  13.704  27.060   8.496
    2AU     LIG  630  13.638  27.242   8.933
    2AU       S  631  13.616  26.303   7.702
    2AU     LIG  632  13.965  26.343   7.939
    2AU     LIG  633  14.408  26.290   7.824
    2AU     LIG  634  14.860  26.181   7.823
    2AU       S  635  11.727  26.383   8.117
    2AU     LIG  636  11.496  26.229   8.449
    2AU     LIG  637  11.085  26.412   8.508
    2AU     LIG  638  10.775  26.702   8.699
    2AU       S  639  11.807  26.725   7.392
    2AU     LIG  640  11.590  27.047   7.155
    2AU     LIG  641  11.215  26.943   7.057
    2AU     LIG  642  11.085  26.546   7.285
    2AU       S  643  11.301  25.873   7.067
    2AU     LIG  644  10.867  25.767   7.012
    2AU     LIG  645  10.448  25.932   7.078
    2AU     LIG  646  10.308  26.307   7.256
    2AU       S  647  11.696  26.575   6.915
    2AU     LIG  648  11.810  26.945   6.714
    2AU     LIG  649  11.503  27.292   6.640
    2AU     LIG  650  11.120  27.468   6.436
    2AU       S  651  11.282  25.523   7.678
    2AU     LIG  652  10.967  25.425   7.383
    2AU     LIG  653  10.553  25.502   7.352
    2AU     LIG  654  10.131  25.556   7.246
    2AU       S  655  11.422  26.025   7.997
    2AU     LIG  656  11.101  25.891   8.195
    2AU     LIG  657  10.728  26.163   8.198
    2AU     LIG  658  10.344  26.405   8.121
    2AU       S  659  13.249  25.023   7.633
    2AU     LIG  660  13.280  24.673   7.374
    2AU     LIG  661  13.654  24.464   7.452
    2AU     LIG  662  13.978  24.651   7.732
    2AU       S  663  13.167  24.934   8.111
    2AU     LIG  664  13.476  24.665   7.894
    2AU     LIG  665  13.755  24.509   8.199
    2AU     LIG  666  13.712  24.366   8.633
    2AU       S  667  13.534  25.065   7.563
    2AU     LIG  668  13.755  24.917   7.237
    2AU     LIG  669  14.219  24.916   7.329
    2AU     LIG  670  14.450  25.210   7.609
    2AU       S  671  13.275  25.020   6.933
    2AU     LIG  672  13.419  24.640   6.879
    2AU     LIG  673  13.295  24.261   7.020
    2AU     LIG  674  13.145  23.931   6.762
    2AU       S  675  11.644  25.138   6.908
    2AU     LIG  676  11.375  25.284   6.645
    2AU     LIG  677  11.239  24.933   6.392
    2AU     LIG  678  10.846  24.695   6.319
    2AU       S  679  11.290  25.269   7.710
    2AU     LIG  680  11.015  24.975   7.671
    2AU     LIG  681  10.706  24.880   7.379
    2AU     LIG  682  10.326  25.050   7.248
    2AU       S  683  11.678  25.084   8.354
    2AU     LIG  684  11.573  24.818   7.974
    2AU     LIG  685  11.537  24.414   8.092
    2AU     LIG  686  11.216  24.255   8.374
    2AU       S  687  11.316  25.564   7.835
    2AU     LIG  688  10.886  25.427   7.959
    2AU     LIG  689  10.564  25.212   7.769
    2AU     LIG  690  10.184  25.406   7.740
    2AU       S  691  11.946  26.745   7.863
    2AU     LIG  692  11.556  26.936   8.016
    2AU     LIG  693  11.136  26.903   8.251
    2AU     LIG  694  10.785  27.154   8.473
    2AU       S  695  12.537  26.905   7.897
    2AU     LIG  696  12.844  27.041   8.206
    2AU     LIG  697  12.838  27.440   8.407
    2AU     LIG  698  12.492  27.751   8.511
    2AU       S  699  12.670  27.049   7.741
    2AU     LIG  700  12.306  27.331   7.730
    2AU     LIG  701  12.213  27.647   8.051
    2AU     LIG  702  12.219  28.069   8.228
    2AU       S  703  12.512  26.873   7.053
    2AU     LIG  704  12.561  27.265   7.284
    2AU     LIG  705  12.670  27.713   7.330
    2AU     LIG  706  12.963  27.886   7.014
    2AU       S  707  13.039  26.427   8.333
    2AU     LIG  708  13.231  26.800   8.427
    2AU     LIG  709  13.269  26.945   8.806
    2AU     LIG  710  13.507  26.781   9.170
    2AU       S  711  12.823  26.887   7.543
    2AU     LIG  712  12.966  27.397   7.613
    2AU     LIG  713  12.715  27.652   7.930
    2AU     LIG  714  12.917  27.929   8.279
    2AU       S  715  12.348  24.603   8.097
    2AU     LIG  716  12.738  24.328   8.154
    2AU     LIG  717  12.919  23.904   8.191
    2AU     LIG  718  12.686  23.555   8.425
    2AU       S  719  12.922  24.912   7.987
    2AU     LIG  720  12.984  24.577   7.786
    2AU     LIG  721  13.195  24.213   7.809
    2AU     LIG  722  13.626  24.142   7.881
    2AU       S  723  12.148  24.533   7.945
    2AU     LIG  724  12.115  24.089   7.776
    2AU     LIG  725  12.100  23.631   7.897
    2AU     LIG  726  12.272  23.311   8.203
    2AU       S  727  11.932  25.202   8.468
    2AU     LIG  728  12.000  24.767   8.547
    2AU     LIG  729  11.605  24.515   8.604
    2AU     LIG  730  11.254  24.361   8.888
    2AU       S  731  12.547  24.602   7.278
    2AU     LIG  732  12.316  24.204   7.261
    2AU     LIG  733  12.583  23.930   7.060
    2AU     LIG  734  12.642  23.516   7.017
    2AU       S  735  12.485  24.659   7.871
    2AU     LIG  736  12.556  24.316   7.683
    2AU     LIG  737  12.725  23.942   7.698
    2AU     LIG  738  12.633  23.573   7.913
    2AU       S  739  12.363  26.787   6.784
    2AU     LIG  740  12.254  27.259   6.835
    2AU     LIG  741  12.492  27.663   6.845
    2AU     LIG  742  12.818  27.781   6.533
    2AU       S  743  13.150  26.546   7.129
    2AU     LIG  744  13.304  26.932   7.062
    2AU     LIG  745  13.553  27.103   6.722
    2AU     LIG  746  13.936  27.044   6.497
    2AU       S  747  12.170  26.791   7.044
    2AU     LIG  748  12.063  27.164   7.292
    2AU     LIG  749  12.152  27.624   7.267
    2AU     LIG  750  12.141  28.030   7.006
    2AU       S  751  11.726  26.200   6.636
    2AU     LIG  752  11.592  26.561   6.412
    2AU     LIG  753  11.636  26.967   6.231
    2AU     LIG  754  11.519  27.374   6.093
    2AU       S  755  11.684  24.935   7.148
    2AU     LIG  756  11.292  24.760   6.958
    2AU     LIG  757  11.225  24.455   6.610
    2AU     LIG  758  11.303  24.028   6.383
    2AU       S  759  12.557  24.613   7.100
    2AU     LIG  760  12.801  24.346   6.863
    2AU     LIG  761  12.707  23.992   6.555
    2AU     LIG  762  12.842  23.518   6.537
    2AU       S  763  12.782  24.692   7.362
    2AU     LIG  764  12.933  24.264   7.359
    2AU     LIG  765  13.041  23.832   7.259
    2AU     LIG  766  13.143  23.486   6.977
    2AU       S  767  13.051  25.170   6.667
    2AU     LIG  768  12.989  24.747   6.591
    2AU     LIG  769  13.150  24.348   6.486
    2AU     LIG  770  13.379  24.035   6.232
    3AU     AUC  771  22.874  38.502   7.536
    3AU     AUC  772  23.135  38.505   7.376
    3AU     AUC  773  23.113  38.501   7.711
    3AU     AUC  774  22.606  38.493   7.372
    3AU     AUC  775  22.619  38.542   7.698
    3AU     AUC  776  22.713  38.761   7.497
    3AU     AUC  777  23.054  38.771   7.512
    3AU     AUC  778  22.702  38.243   7.554
    3AU     AUC  779  23.036  38.231   7.558
    3AU     AUC  780  22.863  38.354   7.812
    3AU     AUC  781  22.874  38.698   7.779
    3AU     AUC  782  22.879  38.317   7.285
    3AU     AUC  783  22.891  38.630   7.263
    3AU     AUC  784  23.455  38.508   7.226
    3AU     AUC  785  23.437  38.487   7.566
    3AU     AUC  786  23.388  38.481   7.921
    3AU     AUC  787  22.308  38.453   7.224
    3AU     AUC  788  22.301  38.534   7.551
    3AU     AUC  789  22.319  38.593   7.871
    3AU     AUC  790  22.551  39.062   7.434
    3AU     AUC  791  22.909  39.053   7.430
    3AU     AUC  792  23.245  39.045   7.478
    3AU     AUC  793  22.513  37.957   7.571
    3AU     AUC  794  22.863  37.938   7.558
    3AU     AUC  795  23.214  37.937   7.573
    3AU     AUC  796  22.832  38.196   8.113
    3AU     AUC  797  22.845  38.548   8.099
    3AU     AUC  798  22.898  38.907   8.059
    3AU     AUC  799  22.921  38.130   7.007
    3AU     AUC  800  22.872  38.456   6.959
    3AU     AUC  801  22.860  38.773   6.952
    3AU     AUC  802  23.101  38.318   8.028
    3AU     AUC  803  23.147  38.677   8.005
    3AU     AUC  804  23.191  38.338   7.083
    3AU     AUC  805  23.159  38.652   7.093
    3AU     AUC  806  22.570  38.416   8.008
    3AU     AUC  807  22.605  38.771   7.959
    3AU     AUC  808  22.602  38.274   7.109
    3AU     AUC  809  22.564  38.583   7.063
    3AU     AUC  810  23.372  38.776   7.364
    3AU     AUC  811  23.310  38.767   7.710
    3AU     AUC  812  22.414  38.768   7.352
    3AU     AUC  813  22.450  38.857   7.680
    3AU     AUC  814  23.343  38.223   7.409
    3AU     AUC  815  23.288  38.190   7.755
    3AU     AUC  816  22.409  38.191   7.403
    3AU     AUC  817  22.427  38.271   7.735
    3AU     AUC  818  22.757  39.006   7.755
    3AU     AUC  819  23.077  38.975   7.784
    3AU     AUC  820  22.682  38.074   7.841
    3AU     AUC  821  22.994  38.026   7.834
    3AU     AUC  822  22.692  38.916   7.185
    3AU     AUC  823  23.053  38.945   7.208
    3AU     AUC  824  22.722  38.026   7.279
    3AU     AUC  825  23.095  38.066   7.284
    3AU    AUSL  826  23.341  38.422   8.320
    3AU    AUSL  827  23.115  38.039   8.237
    3AU     AUL  828  23.427  38.080   8.422
    3AU    AUSL  829  22.929  38.362   8.439
    3AU    AUSL  830  22.690  38.753   8.422
    3AU     AUL  831  22.910  38.659   8.714
    3AU    AUSL  832  23.040  38.721   8.200
    3AU    AUSL  833  23.484  38.774   8.134
    3AU     AUL  834  23.309  38.732   8.472
    3AU    AUSL  835  23.326  38.533   6.893
    3AU    AUSL  836  23.178  38.923   6.980
    3AU     AUL  837  23.396  38.857   6.701
    3AU    AUSL  838  23.156  38.249   6.629
    3AU    AUSL  839  23.632  38.275   7.014
    3AU     AUL  840  23.537  38.400   6.673
    3AU    AUSL  841  22.962  38.661   6.712
    3AU    AUSL  842  22.779  38.265   6.815
    3AU     AUL  843  22.886  38.317   6.487
    3AU    AUSL  844  22.310  38.705   8.205
    3AU    AUSL  845  22.650  39.025   8.102
    3AU     AUL  846  22.472  38.998   8.424
    3AU    AUSL  847  22.604  38.403   8.183
    3AU    AUSL  848  22.198  38.274   8.136
    3AU     AUL  849  22.105  38.493   8.271
    3AU    AUSL  850  22.351  38.263   6.812
    3AU    AUSL  851  22.581  37.940   6.996
    3AU     AUL  852  22.634  37.960   6.665
    3AU    AUSL  853  22.542  38.613   6.662
    3AU    AUSL  854  22.236  38.627   7.013
    3AU     AUL  855  22.122  38.464   6.752
    3AU    AUSL  856  23.646  38.981   7.524
    3AU    AUSL  857  23.582  38.783   7.117
    3AU     AUL  858  23.917  38.986   7.212
    3AU    AUSL  859  23.822  38.594   7.416
    3AU    AUSL  860  23.774  38.289   7.781
    3AU     AUL  861  24.078  38.363   7.585
    3AU    AUSL  862  23.539  38.630   7.745
    3AU    AUSL  863  23.350  39.031   7.812
    3AU     AUL  864  23.716  38.822   7.904
    3AU    AUSL  865  22.297  39.128   7.472
    3AU    AUSL  866  22.325  38.915   7.843
    3AU     AUL  867  22.012  39.154   7.662
    3AU    AUSL  868  22.131  38.732   7.403
    3AU    AUSL  869  22.268  39.048   7.065
    3AU     AUL  870  22.011  38.966   7.206
    3AU    AUSL  871  21.963  38.723   7.811
    3AU    AUSL  872  21.953  38.355   7.386
    3AU     AUL  873  21.778  38.690   7.505
    3AU    AUSL  874  23.547  37.947   7.638
    3AU    AUSL  875  23.390  38.225   7.954
    3AU     AUL  876  23.697  38.128   8.024
    3AU    AUSL  877  23.525  38.304   7.414
    3AU    AUSL  878  23.522  37.898   7.215
    3AU     AUL  879  23.783  38.115   7.304
    3AU    AUSL  880  22.130  37.996   7.589
    3AU    AUSL  881  22.294  38.185   7.215
    3AU     AUL  882  21.924  38.062   7.274
    3AU    AUSL  883  22.202  38.391   7.736
    3AU    AUSL  884  22.433  38.023   7.883
    3AU     AUL  885  22.116  38.001   7.925
    3AU    AUSL  886  22.933  39.286   7.922
    3AU    AUSL  887  22.491  39.310   7.809
    3AU     AUL  888  22.698  39.361   8.182
    3AU    AUSL  889  22.778  39.195   7.535
    3AU    AUSL  890  23.025  39.313   7.197
    3AU     AUL  891  22.760  39.548   7.472
    3AU    AUSL  892  23.196  39.343   7.583
    3AU    AUSL  893  23.193  39.108   8.198
    3AU     AUL  894  23.295  39.369   7.933
    3AU    AUSL  895  22.817  37.851   7.996
    3AU    AUSL  896  23.239  37.825   7.891
    3AU     AUL  897  22.988  37.747   8.265
    3AU    AUSL  898  22.527  37.650   7.724
    3AU    AUSL  899  22.581  38.011   8.299
    3AU     AUL  900  22.486  37.712   8.065
    3AU    AUSL  901  22.962  37.581   7.695
    3AU    AUSL  902  22.745  37.797   7.388
    3AU     AUL  903  22.651  37.439   7.499
    3AU    AUSL  904  22.866  39.143   6.813
    3AU    AUSL  905  23.413  39.167   7.233
    3AU     AUL  906  23.189  39.260   6.884
    3AU    AUSL  907  22.610  39.262   7.155
    3AU    AUSL  908  22.631  38.845   6.989
    3AU     AUL  909  22.542  39.119   6.787
    3AU    AUSL  910  22.962  37.758   7.014
    3AU    AUSL  911  22.340  37.759   7.309
    3AU     AUL  912  22.629  37.601   7.066
    3AU    AUSL  913  23.169  37.799   7.403
    3AU    AUSL  914  23.203  38.105   7.017
    3AU     AUL  915  23.286  37.750   7.008
    3AU       S  916  23.432  37.626   8.293
    3AU     LIG  917  23.590  37.198   8.302
    3AU     LIG  918  23.756  36.778   8.354
    3AU     LIG  919  24.191  36.682   8.369
    3AU       S  920  23.272  38.345   8.768
    3AU     LIG  921  23.692  38.445   8.704
    3AU     LIG  922  23.927  38.483   9.102
    3AU     LIG  923  23.870  38.349   9.558
    3AU       S  924  22.931  38.185   8.651
    3AU     LIG  925  22.921  38.219   9.114
    3AU     LIG  926  23.289  38.152   9.440
    3AU     LIG  927  23.583  37.965   9.776
    3AU       S  928  22.470  38.548   8.634
    3AU     LIG  929  22.533  38.588   9.085
    3AU     LIG  930  22.205  38.626   9.418
    3AU     LIG  931  22.006  38.534   9.826
    3AU       S  932  22.938  39.117   8.573
    3AU     LIG  933  23.214  39.433   8.729
    3AU     LIG  934  23.615  39.263   8.848
    3AU     LIG  935  23.871  38.916   8.798
    3AU       S  936  23.660  39.017   8.328
    3AU     LIG  937  24.080  39.006   8.336
    3AU     LIG  938  24.118  39.361   8.613
    3AU     LIG  939  24.310  39.628   8.925
    3AU       S  940  23.244  38.647   6.331
    3AU     LIG  941  23.610  38.715   6.046
    3AU     LIG  942  23.788  38.336   5.856
    3AU     LIG  943  23.659  37.992   5.560
    3AU       S  944  23.639  39.253   6.830
    3AU     LIG  945  23.445  39.281   6.416
    3AU     LIG  946  23.708  39.459   6.063
    3AU     LIG  947  24.020  39.809   5.982
    3AU       S  948  23.807  38.036   6.826
    3AU     LIG  949  23.978  37.778   6.480
    3AU     LIG  950  23.962  37.351   6.308
    3AU     LIG  951  23.834  36.999   6.058
    3AU       S  952  23.264  38.480   6.301
    3AU     LIG  953  23.317  38.151   6.041
    3AU     LIG  954  23.145  38.001   5.643
    3AU     LIG  955  23.256  38.084   5.205
    3AU       S  956  22.456  38.272   6.339
    3AU     LIG  957  22.496  38.335   5.917
    3AU     LIG  958  22.652  38.179   5.533
    3AU     LIG  959  22.417  38.065   5.165
    3AU       S  960  22.994  38.778   6.464
    3AU     LIG  961  22.793  38.707   6.100
    3AU     LIG  962  22.994  38.479   5.800
    3AU     LIG  963  23.384  38.456   5.565
    3AU       S  964  22.264  38.657   8.669
    3AU     LIG  965  21.976  38.376   8.771
    3AU     LIG  966  21.929  38.218   9.185
    3AU     LIG  967  21.864  38.072   9.613
    3AU       S  968  22.222  39.308   8.177
    3AU     LIG  969  22.133  39.391   8.593
    3AU     LIG  970  21.821  39.321   8.923
    3AU     LIG  971  21.500  39.604   9.143
    3AU       S  972  22.116  38.045   8.417
    3AU     LIG  973  21.694  38.077   8.266
    3AU     LIG  974  21.384  37.720   8.290
    3AU     LIG  975  21.377  37.293   8.504
    3AU       S  976  22.457  38.380   8.571
    3AU     LIG  977  22.409  38.118   8.927
    3AU     LIG  978  22.414  38.165   9.368
    3AU     LIG  979  22.335  38.132   9.815
    3AU       S  980  22.302  38.193   6.430
    3AU     LIG  981  22.091  37.975   6.099
    3AU     LIG  982  22.136  38.054   5.650
    3AU     LIG  983  22.214  38.453   5.453
    3AU       S  984  22.244  37.777   6.840
    3AU     LIG  985  22.145  37.595   6.441
    3AU     LIG  986  21.897  37.390   6.095
    3AU     LIG  987  21.562  37.068   6.127
    3AU       S  988  21.952  38.890   6.723
    3AU     LIG  989  21.624  39.178   6.838
    3AU     LIG  990  21.456  39.562   6.632
    3AU     LIG  991  21.712  39.785   6.350
    3AU       S  992  22.479  38.563   6.450
    3AU     LIG  993  22.231  38.714   6.164
    3AU     LIG  994  22.384  38.832   5.761
    3AU     LIG  995  22.678  38.690   5.439
    3AU       S  996  23.735  39.131   6.829
    3AU     LIG  997  23.927  39.112   6.416
    3AU     LIG  998  24.216  39.358   6.157
    3AU     LIG  999  24.494  39.619   5.898
    3AU       S 1000  23.827  39.188   7.629
    3AU     LIG 1001  24.207  39.433   7.572
    3AU     LIG 1002  24.591  39.217   7.468
    3AU     LIG 1003  25.036  39.229   7.548
    3AU       S 1004  24.095  38.827   7.611
    3AU     LIG 1005  24.424  38.700   7.349
    3AU     LIG 1006  24.864  38.769   7.202
    3AU     LIG 1007  25.318  38.850   7.088
    3AU       S 1008  24.017  37.919   7.767
    3AU     LIG 1009  24.430  37.853   7.874
    3AU     LIG 1010  24.868  37.897   7.881
    3AU     LIG 1011  25.027  37.498   7.890
    3AU       S 1012  23.687  39.229   8.120
    3AU     LIG 1013  24.071  39.454   8.083
    3AU     LIG 1014  24.240  39.798   8.345
    3AU     LIG 1015  24.142  40.076   8.703
    3AU       S 1016  24.083  38.976   7.700
    3AU     LIG 1017  24.434  39.083   7.941
    3AU     LIG 1018  24.874  38.932   7.949
    3AU     LIG 1019  25.329  39.016   8.019
    3AU       S 1020  22.142  39.126   8.103
    3AU     LIG 1021  21.911  38.966   8.444
    3AU     LIG 1022  21.481  39.109   8.574
    3AU     LIG 1023  21.152  39.381   8.802
    3AU       S 1024  22.243  39.459   7.380
    3AU     LIG 1025  22.016  39.818   7.366
    3AU     LIG 1026  21.836  39.741   6.972
    3AU     LIG 1027  21.449  39.562   7.142
    3AU       S 1028  21.747  38.596   7.046
    3AU     LIG 1029  21.327  38.745   6.962
    3AU     LIG 1030  20.894  38.897   6.992
    3AU     LIG 1031  20.644  38.854   7.348
    3AU       S 1032  22.129  39.307   6.898
    3AU     LIG 1033  22.271  39.658   6.670
    3AU     LIG 1034  22.088  40.066   6.564
    3AU     LIG 1035  21.784  40.293   6.264
    3AU       S 1036  21.728  38.256   7.672
    3AU     LIG 1037  21.408  38.304   7.361
    3AU     LIG 1038  20.955  38.399   7.219
    3AU     LIG 1039  20.475  38.376   7.170
    3AU       S 1040  21.836  38.773   7.979
    3AU     LIG 1041  21.552  38.646   8.270
    3AU     LIG 1042  21.142  38.869   8.192
    3AU     LIG 1043  20.820  38.914   7.845
    3AU       S 1044  23.711  37.769   7.652
    3AU     LIG 1045  23.879  37.347   7.569
    3AU     LIG 1046  24.304  37.320   7.686
    3AU     LIG 1047  24.658  37.521   7.518
    3AU       S 1048  23.607  37.705   8.149
    3AU     LIG 1049  23.959  37.473   8.048
    3AU     LIG 1050  24.280  37.188   8.251
    3AU     LIG 1051  24.408  37.018   8.695
    3AU       S 1052  23.994  37.848   7.596
    3AU     LIG 1053  24.152  37.646   7.253
    3AU     LIG 1054  24.556  37.663   7.033
    3AU     LIG 1055  24.932  37.392   7.041
    3AU       S 1056  23.752  37.784   6.956
    3AU     LIG 1057  23.972  37.401   6.832
    3AU     LIG 1058  23.778  37.011   6.658
    3AU     LIG 1059  23.650  36.658   6.378
    3AU       S 1060  22.105  37.876   6.900
    3AU     LIG 1061  21.856  38.015   6.590
    3AU     LIG 1062  21.611  37.741   6.326
    3AU     LIG 1063  21.291  37.522   6.072
    3AU       S 1064  21.720  38.053   7.706
    3AU     LIG 1065  21.445  37.828   7.788
    3AU     LIG 1066  21.185  37.787   7.446
    3AU     LIG 1067  21.177  37.348   7.279
    3AU       S 1068  22.139  37.834   8.354
    3AU     LIG 1069  21.866  37.611   8.113
    3AU     LIG 1070  21.746  37.195   8.143
    3AU     LIG 1071  21.671  36.838   8.399
    3AU       S 1072  21.773  38.300   7.837
    3AU     LIG 1073  21.380  38.587   7.796
    3AU     LIG 1074  21.001  38.396   7.733
    3AU     LIG 1075  20.974  37.978   7.904
    3AU       S 1076  22.381  39.483   7.848
    3AU     LIG 1077  21.960  39.604   7.874
    3AU     LIG 1078  21.715  39.444   8.234
    3AU     LIG 1079  21.557  39.635   8.622
    3AU       S 1080  22.929  39.647   7.887
    3AU     LIG 1081  23.083  39.708   8.278
    3AU     LIG 1082  22.927  40.154   8.345
    3AU     LIG 1083  22.623  40.531   8.427
    3AU       S 1084  23.086  39.813   7.765
    3AU     LIG 1085  22.740  40.115   7.823
    3AU     LIG 1086  22.631  40.575   7.897
    3AU     LIG 1087  22.692  40.957   8.147
    3AU       S 1088  22.939  39.626   7.046
    3AU     LIG 1089  22.860  40.021   7.299
    3AU     LIG 1090  22.869  40.484   7.357
    3AU     LIG 1091  22.939  40.880   7.137
    3AU       S 1092  23.432  39.202   8.356
    3AU     LIG 1093  23.660  39.592   8.458
    3AU     LIG 1094  23.806  39.731   8.867
    3AU     LIG 1095  23.925  39.525   9.267
    3AU       S 1096  23.223  39.643   7.545
    3AU     LIG 1097  23.315  40.149   7.492
    3AU     LIG 1098  23.125  40.442   7.793
    3AU     LIG 1099  23.094  40.628   8.213
    3AU       S 1100  22.808  37.360   8.089
    3AU     LIG 1101  23.105  37.037   8.198
    3AU     LIG 1102  22.972  36.627   8.409
    3AU     LIG 1103  22.552  36.540   8.612
    3AU       S 1104  23.379  37.683   8.004
    3AU     LIG 1105  23.440  37.327   7.836
    3AU     LIG 1106  23.523  36.913   7.876
    3AU     LIG 1107  23.968  36.940   7.922
    3AU       S 1108  22.653  37.289   7.939
    3AU     LIG 1109  22.555  36.905   7.775
    3AU     LIG 1110  22.576  36.567   8.071
    3AU     LIG 1111  22.714  36.175   8.281
    3AU       S 1112  22.411  37.917   8.480
    3AU     LIG 1113  22.251  37.596   8.760
    3AU     LIG 1114  21.878  37.351   8.642
    3AU     LIG 1115  21.684  37.017   8.890
    3AU       S 1116  23.049  37.359   7.286
    3AU     LIG 1117  22.760  36.995   7.237
    3AU     LIG 1118  22.756  36.650   6.907
    3AU     LIG 1119  22.581  36.288   6.666
    3AU       S 1120  22.963  37.405   7.863
    3AU     LIG 1121  23.043  37.027   7.671
    3AU     LIG 1122  23.055  36.639   7.896
    3AU     LIG 1123  23.396  36.470   8.151
    3AU       S 1124  22.801  39.520   6.765
    3AU     LIG 1125  22.779  39.987   6.729
    3AU     LIG 1126  22.995  40.409   6.858
    3AU     LIG 1127  23.356  40.744   6.843
    3AU       S 1128  23.579  39.325   7.154
    3AU     LIG 1129  24.006  39.483   7.094
    3AU     LIG 1130  24.150  39.546   6.656
    3AU     LIG 1131  24.407  39.824   6.373
    3AU       S 1132  22.609  39.527   7.022
    3AU     LIG 1133  22.419  39.899   7.090
    3AU     LIG 1134  22.507  40.321   6.998
    3AU     LIG 1135  22.533  40.749   6.853
    3AU       S 1136  22.163  38.937   6.625
    3AU     LIG 1137  21.973  39.316   6.416
    3AU     LIG 1138  22.167  39.670   6.165
    3AU     LIG 1139  22.228  40.112   6.052
    3AU       S 1140  22.164  37.675   7.138
    3AU     LIG 1141  22.069  37.312   6.875
    3AU     LIG 1142  21.731  37.287   6.578
    3AU     LIG 1143  21.275  37.290   6.533
    3AU       S 1144  23.048  37.377   7.121
    3AU     LIG 1145  23.275  37.088   6.853
    3AU     LIG 1146  23.137  36.764   6.537
    3AU     LIG 1147  22.830  36.537   6.272
    3AU       S 1148  23.300  37.481   7.388
    3AU     LIG 1149  23.476  37.104   7.381
    3AU     LIG 1150  23.376  36.756   7.238
    3AU     LIG 1151  23.505  36.604   6.848
    3AU       S 1152  23.543  37.930   6.684
    3AU     LIG 1153  23.519  37.483   6.600
    3AU     LIG 1154  23.410  37.133   6.310
    3AU     LIG 1155  23.303  36.754   6.023
    4AU     AUC 1156  34.815  34.541   7.517
    4AU     AUC 1157  35.071  34.544   7.351
    4AU     AUC 1158  35.065  34.547   7.688
    4AU     AUC 1159  34.543  34.528   7.359
    4AU     AUC 1160  34.564  34.580   7.685
    4AU     AUC 1161  34.648  34.799   7.480
    4AU     AUC 1162  34.986  34.807   7.485
    4AU     AUC 1163  34.648  34.282   7.542
    4AU     AUC 1164  34.981  34.271   7.540
    4AU     AUC 1165  34.815  34.399   7.795
    4AU     AUC 1166  34.819  34.742   7.757
    4AU     AUC 1167  34.818  34.354   7.267
    4AU     AUC 1168  34.826  34.669   7.242
    4AU     AUC 1169  35.390  34.546   7.195
    4AU     AUC 1170  35.382  34.527   7.532
    4AU     AUC 1171  35.355  34.538   7.885
    4AU     AUC 1172  34.242  34.483   7.218
    4AU     AUC 1173  34.240  34.564   7.544
    4AU     AUC 1174  34.269  34.626   7.865
    4AU     AUC 1175  34.477  35.097   7.419
    4AU     AUC 1176  34.834  35.097   7.410
    4AU     AUC 1177  35.167  35.083   7.454
    4AU     AUC 1178  34.463  33.994   7.566
    4AU     AUC 1179  34.810  33.977   7.549
    4AU     AUC 1180  35.159  33.976   7.555
    4AU     AUC 1181  34.792  34.248   8.102
    4AU     AUC 1182  34.806  34.600   8.080
    4AU     AUC 1183  34.846  34.959   8.034
    4AU     AUC 1184  34.858  34.165   6.992
    4AU     AUC 1185  34.803  34.493   6.942
    4AU     AUC 1186  34.791  34.814   6.932
    4AU     AUC 1187  35.062  34.374   8.004
    4AU     AUC 1188  35.105  34.730   7.973
    4AU     AUC 1189  35.123  34.376   7.059
    4AU     AUC 1190  35.092  34.699   7.064
    4AU     AUC 1191  34.525  34.460   7.999
    4AU     AUC 1192  34.554  34.811   7.944
    4AU     AUC 1193  34.539  34.309   7.099
    4AU     AUC 1194  34.496  34.617   7.051
    4AU     AUC 1195  35.307  34.806   7.333
    4AU     AUC 1196  35.263  34.802   7.675
    4AU     AUC 1197  34.344  34.800   7.342
    4AU     AUC 1198  34.385  34.890   7.667
    4AU     AUC 1199  35.279  34.261   7.382
    4AU     AUC 1200  35.237  34.233   7.733
    4AU     AUC 1201  34.352  34.223   7.396
    4AU     AUC 1202  34.380  34.309   7.728
    4AU     AUC 1203  34.691  35.048   7.736
    4AU     AUC 1204  35.014  35.023   7.755
    4AU     AUC 1205  34.635  34.117   7.834
    4AU     AUC 1206  34.948  34.074   7.821
    4AU     AUC 1207  34.618  34.952   7.170
    4AU     AUC 1208  34.976  34.979   7.182
    4AU     AUC 1209  34.665  34.061   7.269
    4AU     AUC 1210  35.035  34.101   7.264
    4AU    AUSL 1211  35.316  34.496   8.275
    4AU    AUSL 1212  35.080  34.102   8.217
    4AU     AUL 1213  35.398  34.163   8.395
    4AU    AUSL 1214  34.910  34.430   8.423
    4AU    AUSL 1215  34.659  34.806   8.406
    4AU     AUL 1216  34.893  34.744   8.694
    4AU    AUSL 1217  35.000  34.782   8.170
    4AU    AUSL 1218  35.451  34.853   8.084
    4AU     AUL 1219  35.278  34.796   8.430
    4AU    AUSL 1220  35.253  34.574   6.878
    4AU    AUSL 1221  35.132  34.980   6.915
    4AU     AUL 1222  35.353  34.903   6.657
    4AU    AUSL 1223  35.086  34.293   6.607
    4AU    AUSL 1224  35.564  34.317   6.983
    4AU     AUL 1225  35.456  34.440   6.642
    4AU    AUSL 1226  34.888  34.701   6.696
    4AU    AUSL 1227  34.712  34.301   6.799
    4AU     AUL 1228  34.815  34.352   6.469
    4AU    AUSL 1229  34.274  34.746   8.202
    4AU    AUSL 1230  34.590  35.065   8.080
    4AU     AUL 1231  34.423  35.042   8.411
    4AU    AUSL 1232  34.574  34.448   8.177
    4AU    AUSL 1233  34.162  34.320   8.135
    4AU     AUL 1234  34.088  34.541   8.283
    4AU    AUSL 1235  34.286  34.296   6.808
    4AU    AUSL 1236  34.525  33.977   6.992
    4AU     AUL 1237  34.570  33.992   6.658
    4AU    AUSL 1238  34.470  34.645   6.647
    4AU    AUSL 1239  34.163  34.656   7.008
    4AU     AUL 1240  34.056  34.494   6.745
    4AU    AUSL 1241  35.613  35.021   7.486
    4AU    AUSL 1242  35.519  34.831   7.081
    4AU     AUL 1243  35.873  35.008   7.165
    4AU    AUSL 1244  35.758  34.619   7.364
    4AU    AUSL 1245  35.725  34.322   7.728
    4AU     AUL 1246  36.035  34.366   7.504
    4AU    AUSL 1247  35.503  34.677   7.714
    4AU    AUSL 1248  35.271  35.071   7.741
    4AU     AUL 1249  35.586  35.086   7.807
    4AU    AUSL 1250  34.221  35.155   7.461
    4AU    AUSL 1251  34.262  34.942   7.831
    4AU     AUL 1252  33.939  35.175   7.659
    4AU    AUSL 1253  34.059  34.757   7.400
    4AU    AUSL 1254  34.190  35.078   7.053
    4AU     AUL 1255  33.937  34.990   7.201
    4AU    AUSL 1256  33.903  34.743   7.815
    4AU    AUSL 1257  33.890  34.376   7.390
    4AU     AUL 1258  33.709  34.713   7.513
    4AU    AUSL 1259  35.491  33.981   7.608
    4AU    AUSL 1260  35.351  34.272   7.923
    4AU     AUL 1261  35.661  34.183   7.983
    4AU    AUSL 1262  35.456  34.338   7.383
    4AU    AUSL 1263  35.458  33.934   7.185
    4AU     AUL 1264  35.707  34.142   7.264
    4AU    AUSL 1265  34.080  34.021   7.592
    4AU    AUSL 1266  34.232  34.215   7.211
    4AU     AUL 1267  33.864  34.082   7.279
    4AU    AUSL 1268  34.150  34.422   7.730
    4AU    AUSL 1269  34.389  34.066   7.877
    4AU     AUL 1270  34.075  34.049   7.932
    4AU    AUSL 1271  34.858  35.340   7.904
    4AU    AUSL 1272  34.413  35.344   7.793
    4AU     AUL 1273  34.606  35.408   8.157
    4AU    AUSL 1274  34.705  35.234   7.520
    4AU    AUSL 1275  34.944  35.363   7.176
    4AU     AUL 1276  34.671  35.588   7.463
    4AU    AUSL 1277  35.111  35.414   7.563
    4AU    AUSL 1278  35.154  35.166   8.143
    4AU     AUL 1279  35.246  35.414   7.890
    4AU    AUSL 1280  34.775  33.901   7.992
    4AU    AUSL 1281  35.193  33.872   7.879
    4AU     AUL 1282  34.950  33.806   8.260
    4AU    AUSL 1283  34.480  33.690   7.726
    4AU    AUSL 1284  34.534  34.058   8.294
    4AU     AUL 1285  34.450  33.759   8.072
    4AU    AUSL 1286  34.912  33.625   7.692
    4AU    AUSL 1287  34.691  33.833   7.383
    4AU     AUL 1288  34.598  33.473   7.492
    4AU    AUSL 1289  34.783  35.180   6.803
    4AU    AUSL 1290  35.297  35.161   7.255
    4AU     AUL 1291  35.105  35.305   6.875
    4AU    AUSL 1292  34.529  35.297   7.144
    4AU    AUSL 1293  34.553  34.877   6.975
    4AU     AUL 1294  34.467  35.156   6.774
    4AU    AUSL 1295  34.901  33.785   7.006
    4AU    AUSL 1296  34.286  33.792   7.304
    4AU     AUL 1297  34.572  33.638   7.059
    4AU    AUSL 1298  35.114  33.833   7.390
    4AU    AUSL 1299  35.135  34.136   6.990
    4AU     AUL 1300  35.224  33.764   7.005
    4AU       S 1301  35.397  33.703   8.287
    4AU     LIG 1302  35.571  33.316   8.412
    4AU     LIG 1303  35.640  32.876   8.419
    4AU     LIG 1304  36.015  32.609   8.488
    4AU       S 1305  35.262  34.431   8.745
    4AU     LIG 1306  35.665  34.588   8.777
    4AU     LIG 1307  35.858  34.706   9.202
    4AU     LIG 1308  35.905  34.489   9.648
    4AU       S 1309  34.924  34.270   8.633
    4AU     LIG 1310  34.936  34.242   9.088
    4AU     LIG 1311  35.303  34.180   9.405
    4AU     LIG 1312  35.596  34.049   9.771
    4AU       S 1313  34.461  34.599   8.628
    4AU     LIG 1314  34.527  34.589   9.082
    4AU     LIG 1315  34.125  34.449   9.312
    4AU     LIG 1316  33.837  34.479   9.693
    4AU       S 1317  34.892  35.192   8.512
    4AU     LIG 1318  34.975  35.268   8.925
    4AU     LIG 1319  35.361  35.237   9.118
    4AU     LIG 1320  35.631  35.087   8.822
    4AU       S 1321  35.640  35.049   8.273
    4AU     LIG 1322  35.978  34.936   8.502
    4AU     LIG 1323  36.136  35.237   8.804
    4AU     LIG 1324  36.237  35.605   9.087
    4AU       S 1325  35.164  34.680   6.313
    4AU     LIG 1326  35.620  34.744   6.247
    4AU     LIG 1327  35.735  34.405   5.975
    4AU     LIG 1328  35.641  33.973   5.820
    4AU       S 1329  35.554  35.336   6.873
    4AU     LIG 1330  35.395  35.385   6.442
    4AU     LIG 1331  35.678  35.518   6.083
    4AU     LIG 1332  36.028  35.769   5.869
    4AU       S 1333  35.742  34.094   6.787
    4AU     LIG 1334  35.780  34.038   6.331
    4AU     LIG 1335  35.772  33.615   6.211
    4AU     LIG 1336  35.840  33.191   6.352
    4AU       S 1337  35.186  34.511   6.258
    4AU     LIG 1338  35.254  34.121   6.127
    4AU     LIG 1339  35.100  33.932   5.727
    4AU     LIG 1340  35.026  34.073   5.279
    4AU       S 1341  34.380  34.293   6.337
    4AU     LIG 1342  34.455  34.320   5.928
    4AU     LIG 1343  34.591  34.097   5.566
    4AU     LIG 1344  34.528  34.153   5.113
    4AU       S 1345  34.931  34.812   6.449
    4AU     LIG 1346  34.723  34.717   6.075
    4AU     LIG 1347  34.932  34.441   5.780
    4AU     LIG 1348  35.351  34.367   5.618
    4AU       S 1349  34.254  34.699   8.683
    4AU     LIG 1350  33.921  34.470   8.743
    4AU     LIG 1351  33.808  34.119   8.932
    4AU     LIG 1352  33.670  34.112   9.356
    4AU       S 1353  34.139  35.311   8.155
    4AU     LIG 1354  34.118  35.447   8.547
    4AU     LIG 1355  33.808  35.434   8.872
    4AU     LIG 1356  33.410  35.402   9.131
    4AU       S 1357  34.071  34.096   8.431
    4AU     LIG 1358  33.660  34.131   8.286
    4AU     LIG 1359  33.337  33.791   8.260
    4AU     LIG 1360  33.179  33.379   8.471
    4AU       S 1361  34.442  34.425   8.576
    4AU     LIG 1362  34.325  34.158   8.929
    4AU     LIG 1363  34.154  33.932   9.302
    4AU     LIG 1364  33.981  33.982   9.748
    4AU       S 1365  34.216  34.202   6.429
    4AU     LIG 1366  34.031  34.048   6.031
    4AU     LIG 1367  34.069  34.254   5.590
    4AU     LIG 1368  33.934  34.662   5.388
    4AU       S 1369  34.181  33.803   6.835
    4AU     LIG 1370  33.973  33.595   6.512
    4AU     LIG 1371  33.840  33.518   6.091
    4AU     LIG 1372  33.434  33.513   5.869
    4AU       S 1373  33.867  34.910   6.720
    4AU     LIG 1374  33.579  35.205   6.887
    4AU     LIG 1375  33.655  35.605   6.688
    4AU     LIG 1376  33.543  35.759   6.253
    4AU       S 1377  34.402  34.583   6.430
    4AU     LIG 1378  34.114  34.693   6.169
    4AU     LIG 1379  34.259  34.784   5.769
    4AU     LIG 1380  34.474  34.580   5.433
    4AU       S 1381  35.597  35.214   6.880
    4AU     LIG 1382  35.857  35.172   6.490
    4AU     LIG 1383  36.176  35.401   6.211
    4AU     LIG 1384  36.524  35.650   5.972
    4AU       S 1385  35.994  35.004   7.620
    4AU     LIG 1386  36.242  35.319   7.686
    4AU     LIG 1387  36.616  35.390   7.484
    4AU     LIG 1388  36.863  35.683   7.229
    4AU       S 1389  36.028  34.813   7.591
    4AU     LIG 1390  36.365  34.785   7.274
    4AU     LIG 1391  36.796  34.998   7.168
    4AU     LIG 1392  37.184  35.240   6.992
    4AU       S 1393  35.964  33.940   7.733
    4AU     LIG 1394  36.302  33.717   7.921
    4AU     LIG 1395  36.741  33.777   7.926
    4AU     LIG 1396  37.030  33.949   7.682
    4AU       S 1397  35.601  35.330   8.193
    4AU     LIG 1398  36.030  35.401   8.275
    4AU     LIG 1399  36.119  35.712   8.590
    4AU     LIG 1400  35.971  36.029   8.901
    4AU       S 1401  35.890  34.741   7.841
    4AU     LIG 1402  36.222  34.956   8.060
    4AU     LIG 1403  36.551  35.267   8.102
    4AU     LIG 1404  36.875  35.521   7.905
    4AU       S 1405  34.066  35.144   8.100
    4AU     LIG 1406  33.866  34.995   8.476
    4AU     LIG 1407  33.444  35.130   8.681
    4AU     LIG 1408  33.016  35.344   8.767
    4AU       S 1409  34.149  35.483   7.362
    4AU     LIG 1410  33.915  35.857   7.456
    4AU     LIG 1411  33.655  35.974   7.104
    4AU     LIG 1412  33.246  35.737   7.002
    4AU       S 1413  33.674  34.615   7.053
    4AU     LIG 1414  33.203  34.700   7.129
    4AU     LIG 1415  32.801  34.969   7.128
    4AU     LIG 1416  32.654  35.413   7.082
    4AU       S 1417  34.054  35.333   6.880
    4AU     LIG 1418  34.189  35.684   6.625
    4AU     LIG 1419  33.898  36.053   6.575
    4AU     LIG 1420  33.434  36.058   6.639
    4AU       S 1421  33.675  34.275   7.673
    4AU     LIG 1422  33.319  34.279   7.404
    4AU     LIG 1423  32.858  34.223   7.241
    4AU     LIG 1424  32.432  33.999   7.154
    4AU       S 1425  33.774  34.772   7.995
    4AU     LIG 1426  33.428  34.866   8.233
    4AU     LIG 1427  33.123  35.218   8.275
    4AU     LIG 1428  32.719  35.377   8.123
    4AU       S 1429  35.659  33.808   7.627
    4AU     LIG 1430  35.859  33.388   7.546
    4AU     LIG 1431  36.178  33.179   7.769
    4AU     LIG 1432  36.621  33.290   7.859
    4AU       S 1433  35.564  33.774   8.142
    4AU     LIG 1434  35.864  33.507   8.038
    4AU     LIG 1435  36.065  33.206   8.291
    4AU     LIG 1436  35.996  33.082   8.731
    4AU       S 1437  35.936  33.875   7.541
    4AU     LIG 1438  36.245  33.979   7.245
    4AU     LIG 1439  36.722  33.937   7.247
    4AU     LIG 1440  37.018  33.675   6.969
    4AU       S 1441  35.677  33.849   6.891
    4AU     LIG 1442  35.714  33.509   6.747
    4AU     LIG 1443  35.445  33.240   6.863
    4AU     LIG 1444  35.481  32.895   6.588
    4AU       S 1445  34.052  33.913   6.901
    4AU     LIG 1446  33.769  34.064   6.641
    4AU     LIG 1447  33.529  33.848   6.323
    4AU     LIG 1448  33.143  33.592   6.299
    4AU       S 1449  33.668  34.052   7.718
    4AU     LIG 1450  33.294  33.863   7.722
    4AU     LIG 1451  33.140  33.643   7.343
    4AU     LIG 1452  32.760  33.623   7.091
    4AU       S 1453  34.090  33.867   8.348
    4AU     LIG 1454  33.789  33.666   8.049
    4AU     LIG 1455  33.483  33.327   8.058
    4AU     LIG 1456  33.522  32.992   8.356
    4AU       S 1457  33.716  34.313   7.833
    4AU     LIG 1458  33.302  34.408   7.964
    4AU     LIG 1459  32.922  34.271   7.765
    4AU     LIG 1460  32.772  33.873   7.609
    4AU       S 1461  34.269  35.518   7.837
    4AU     LIG 1462  33.825  35.603   7.920
    4AU     LIG 1463  33.623  35.457   8.318
    4AU     LIG 1464  33.390  35.671   8.672
    4AU       S 1465  34.860  35.682   7.879
    4AU     LIG 1466  35.043  35.681   8.282
    4AU     LIG 1467  35.059  36.134   8.392
    4AU     LIG 1468  34.798  36.530   8.368
    4AU       S 1469  35.010  35.852   7.798
    4AU     LIG 1470  34.615  36.093   7.741
    4AU     LIG 1471  34.504  36.496   7.915
    4AU     LIG 1472  34.773  36.853   7.964
    4AU       S 1473  34.845  35.665   7.032
    4AU     LIG 1474  34.670  36.030   7.236
    4AU     LIG 1475  34.776  36.429   7.116
    4AU     LIG 1476  35.201  36.572   7.050
    4AU       S 1477  35.357  35.262   8.332
    4AU     LIG 1478  35.399  35.523   8.656
    4AU     LIG 1479  35.736  35.566   8.955
    4AU     LIG 1480  35.885  35.256   9.270
    4AU       S 1481  35.123  35.708   7.530
    4AU     LIG 1482  35.090  36.200   7.478
    4AU     LIG 1483  35.032  36.393   7.911
    4AU     LIG 1484  35.288  36.619   8.240
    4AU       S 1485  34.779  33.410   8.091
    4AU     LIG 1486  35.138  33.155   8.200
    4AU     LIG 1487  35.149  32.721   8.354
    4AU     LIG 1488  35.039  32.261   8.269
    4AU       S 1489  35.335  33.737   7.993
    4AU     LIG 1490  35.420  33.398   7.831
    4AU     LIG 1491  35.605  33.058   7.937
    4AU     LIG 1492  35.954  32.793   8.024
    4AU       S 1493  34.594  33.331   7.937
    4AU     LIG 1494  34.607  32.906   7.781
    4AU     LIG 1495  34.687  32.448   7.836
    4AU     LIG 1496  34.570  32.070   8.101
    4AU       S 1497  34.343  33.965   8.484
    4AU     LIG 1498  34.079  33.705   8.803
    4AU     LIG 1499  33.689  33.466   8.644
    4AU     LIG 1500  33.439  33.105   8.840
    4AU       S 1501  35.007  33.383   7.297
    4AU     LIG 1502  34.759  32.972   7.285
    4AU     LIG 1503  34.740  32.527   7.062
    4AU     LIG 1504  34.847  32.114   6.815
    4AU       S 1505  34.921  33.449   7.851
    4AU     LIG 1506  35.078  33.061   7.697
    4AU     LIG 1507  35.251  32.665   7.864
    4AU     LIG 1508  35.141  32.229   7.776
    4AU       S 1509  34.712  35.566   6.756
    4AU     LIG 1510  34.632  36.044   6.734
    4AU     LIG 1511  34.890  36.442   6.615
    4AU     LIG 1512  34.859  36.737   6.251
    4AU       S 1513  35.480  35.367   7.179
    4AU     LIG 1514  35.938  35.500   7.152
    4AU     LIG 1515  36.098  35.590   6.712
    4AU     LIG 1516  36.277  35.889   6.376
    4AU       S 1517  34.512  35.573   7.011
    4AU     LIG 1518  34.208  35.933   7.052
    4AU     LIG 1519  34.232  36.395   7.000
    4AU     LIG 1520  34.472  36.687   6.753
    4AU       S 1521  34.092  34.962   6.613
    4AU     LIG 1522  33.960  35.319   6.354
    4AU     LIG 1523  34.034  35.747   6.133
    4AU     LIG 1524  33.798  36.155   6.030
    4AU       S 1525  34.104  33.703   7.129
    4AU     LIG 1526  33.656  33.643   7.005
    4AU     LIG 1527  33.494  33.428   6.636
    4AU     LIG 1528  33.483  33.162   6.251
    4AU       S 1529  34.977  33.403   7.144
    4AU     LIG 1530  34.954  33.337   6.721
    4AU     LIG 1531  35.007  32.968   6.422
    4AU     LIG 1532  35.084  32.506   6.514
    4AU       S 1533  35.251  33.505   7.390
    4AU     LIG 1534  35.475  33.115   7.381
    4AU     LIG 1535  35.530  32.793   7.102
    4AU     LIG 1536  35.102  32.864   6.916
    4AU       S 1537  35.451  33.973   6.674
    4AU     LIG 1538  35.163  33.761   6.504
    4AU     LIG 1539  35.339  33.367   6.373
    4AU     LIG 1540  35.443  33.019   6.093
    5AU     AUC 1541  24.095  16.281   7.531
    5AU     AUC 1542  24.355  16.278   7.369
    5AU     AUC 1543  24.331  16.271   7.706
    5AU     AUC 1544  23.828  16.282   7.370
    5AU     AUC 1545  23.841  16.326   7.696
    5AU     AUC 1546  23.941  16.545   7.496
    5AU     AUC 1547  24.281  16.545   7.510
    5AU     AUC 1548  23.916  16.026   7.548
    5AU     AUC 1549  24.250  16.005   7.551
    5AU     AUC 1550  24.081  16.130   7.807
    5AU     AUC 1551  24.101  16.473   7.778
    5AU     AUC 1552  24.095  16.097   7.279
    5AU     AUC 1553  24.114  16.411   7.260
    5AU     AUC 1554  24.672  16.277   7.218
    5AU     AUC 1555  24.655  16.252   7.557
    5AU     AUC 1556  24.606  16.243   7.914
    5AU     AUC 1557  23.529  16.252   7.222
    5AU     AUC 1558  23.524  16.328   7.550
    5AU     AUC 1559  23.544  16.383   7.869
    5AU     AUC 1560  23.787  16.850   7.438
    5AU     AUC 1561  24.145  16.832   7.432
    5AU     AUC 1562  24.479  16.816   7.474
    5AU     AUC 1563  23.720  15.745   7.563
    5AU     AUC 1564  24.069  15.717   7.548
    5AU     AUC 1565  24.422  15.707   7.562
    5AU     AUC 1566  24.046  15.970   8.107
    5AU     AUC 1567  24.070  16.321   8.096
    5AU     AUC 1568  24.134  16.677   8.062
    5AU     AUC 1569  24.133  15.910   7.001
    5AU     AUC 1570  24.089  16.240   6.955
    5AU     AUC 1571  24.085  16.559   6.946
    5AU     AUC 1572  24.318  16.085   8.022
    5AU     AUC 1573  24.375  16.442   8.003
    5AU     AUC 1574  24.406  16.111   7.077
    5AU     AUC 1575  24.379  16.428   7.086
    5AU     AUC 1576  23.789  16.198   8.004
    5AU     AUC 1577  23.835  16.551   7.959
    5AU     AUC 1578  23.819  16.065   7.104
    5AU     AUC 1579  23.787  16.376   7.061
    5AU     AUC 1580  24.596  16.547   7.355
    5AU     AUC 1581  24.536  16.533   7.706
    5AU     AUC 1582  23.642  16.562   7.352
    5AU     AUC 1583  23.680  16.646   7.682
    5AU     AUC 1584  24.556  15.991   7.401
    5AU     AUC 1585  24.502  15.958   7.747
    5AU     AUC 1586  23.624  15.983   7.397
    5AU     AUC 1587  23.643  16.060   7.729
    5AU     AUC 1588  23.992  16.784   7.758
    5AU     AUC 1589  24.314  16.744   7.785
    5AU     AUC 1590  23.890  15.857   7.832
    5AU     AUC 1591  24.203  15.800   7.825
    5AU     AUC 1592  23.922  16.703   7.186
    5AU     AUC 1593  24.284  16.726   7.204
    5AU     AUC 1594  23.933  15.810   7.271
    5AU     AUC 1595  24.306  15.840   7.276
    5AU    AUSL 1596  24.563  16.178   8.317
    5AU    AUSL 1597  24.331  15.798   8.229
    5AU     AUL 1598  24.642  15.832   8.418
    5AU    AUSL 1599  24.149  16.126   8.431
    5AU    AUSL 1600  23.923  16.525   8.421
    5AU     AUL 1601  24.145  16.426   8.707
    5AU    AUSL 1602  24.272  16.488   8.199
    5AU    AUSL 1603  24.720  16.521   8.127
    5AU     AUL 1604  24.547  16.486   8.468
    5AU    AUSL 1605  24.539  16.305   6.887
    5AU    AUSL 1606  24.402  16.698   6.976
    5AU     AUL 1607  24.609  16.633   6.690
    5AU    AUSL 1608  24.367  16.023   6.622
    5AU    AUSL 1609  24.842  16.044   7.007
    5AU     AUL 1610  24.744  16.171   6.662
    5AU    AUSL 1611  24.181  16.446   6.703
    5AU    AUSL 1612  23.993  16.057   6.810
    5AU     AUL 1613  24.105  16.100   6.488
    5AU    AUSL 1614  23.541  16.494   8.206
    5AU    AUSL 1615  23.886  16.802   8.104
    5AU     AUL 1616  23.708  16.779   8.424
    5AU    AUSL 1617  23.823  16.181   8.178
    5AU    AUSL 1618  23.412  16.070   8.132
    5AU     AUL 1619  23.336  16.292   8.276
    5AU    AUSL 1620  23.565  16.061   6.808
    5AU    AUSL 1621  23.795  15.734   6.989
    5AU     AUL 1622  23.848  15.747   6.659
    5AU    AUSL 1623  23.760  16.409   6.659
    5AU    AUSL 1624  23.460  16.426   7.015
    5AU     AUL 1625  23.340  16.272   6.751
    5AU    AUSL 1626  24.866  16.741   7.510
    5AU    AUSL 1627  24.806  16.551   7.101
    5AU     AUL 1628  25.139  16.747   7.199
    5AU    AUSL 1629  25.040  16.357   7.403
    5AU    AUSL 1630  24.989  16.053   7.778
    5AU     AUL 1631  25.287  16.150   7.589
    5AU    AUSL 1632  24.756  16.393   7.731
    5AU    AUSL 1633  24.588  16.792   7.815
    5AU     AUL 1634  24.957  16.553   7.877
    5AU    AUSL 1635  23.533  16.925   7.478
    5AU    AUSL 1636  23.556  16.706   7.845
    5AU     AUL 1637  23.243  16.951   7.668
    5AU    AUSL 1638  23.357  16.533   7.405
    5AU    AUSL 1639  23.501  16.845   7.071
    5AU     AUL 1640  23.243  16.768   7.211
    5AU    AUSL 1641  23.192  16.518   7.814
    5AU    AUSL 1642  23.171  16.160   7.384
    5AU     AUL 1643  22.997  16.497   7.508
    5AU    AUSL 1644  24.765  15.711   7.632
    5AU    AUSL 1645  24.604  15.988   7.946
    5AU     AUL 1646  24.909  15.891   8.024
    5AU    AUSL 1647  24.742  16.069   7.409
    5AU    AUSL 1648  24.727  15.667   7.209
    5AU     AUL 1649  24.995  15.885   7.293
    5AU    AUSL 1650  23.335  15.790   7.578
    5AU    AUSL 1651  23.512  15.987   7.212
    5AU     AUL 1652  23.141  15.895   7.250
    5AU    AUSL 1653  23.421  16.183   7.731
    5AU    AUSL 1654  23.636  15.812   7.878
    5AU     AUL 1655  23.320  15.803   7.916
    5AU    AUSL 1656  24.183  17.050   7.929
    5AU    AUSL 1657  23.737  17.095   7.816
    5AU     AUL 1658  23.941  17.136   8.185
    5AU    AUSL 1659  24.020  16.975   7.541
    5AU    AUSL 1660  24.264  17.096   7.202
    5AU     AUL 1661  24.002  17.327   7.481
    5AU    AUSL 1662  24.443  17.110   7.586
    5AU    AUSL 1663  24.442  16.867   8.205
    5AU     AUL 1664  24.554  17.121   7.946
    5AU    AUSL 1665  24.021  15.637   7.984
    5AU    AUSL 1666  24.441  15.596   7.869
    5AU     AUL 1667  24.191  15.507   8.240
    5AU    AUSL 1668  23.723  15.440   7.713
    5AU    AUSL 1669  23.787  15.789   8.294
    5AU     AUL 1670  23.692  15.508   8.065
    5AU    AUSL 1671  24.153  15.355   7.688
    5AU    AUSL 1672  23.950  15.579   7.379
    5AU     AUL 1673  23.839  15.222   7.475
    5AU    AUSL 1674  24.099  16.934   6.816
    5AU    AUSL 1675  24.649  16.942   7.219
    5AU     AUL 1676  24.427  17.041   6.879
    5AU    AUSL 1677  23.849  17.049   7.163
    5AU    AUSL 1678  23.859  16.635   6.987
    5AU     AUL 1679  23.778  16.915   6.791
    5AU    AUSL 1680  24.165  15.531   7.008
    5AU    AUSL 1681  23.545  15.559   7.295
    5AU     AUL 1682  23.824  15.394   7.047
    5AU    AUSL 1683  24.374  15.566   7.400
    5AU    AUSL 1684  24.411  15.874   7.009
    5AU     AUL 1685  24.487  15.499   7.023
    5AU       S 1686  24.636  15.391   8.258
    5AU     LIG 1687  24.779  15.042   8.437
    5AU     LIG 1688  24.997  14.688   8.441
    5AU     LIG 1689  25.353  14.500   8.539
    5AU       S 1690  24.495  16.102   8.760
    5AU     LIG 1691  24.909  16.172   8.732
    5AU     LIG 1692  25.067  16.267   9.159
    5AU     LIG 1693  24.992  16.219   9.631
    5AU       S 1694  24.154  15.951   8.645
    5AU     LIG 1695  24.173  15.981   9.117
    5AU     LIG 1696  24.576  15.958   9.400
    5AU     LIG 1697  24.818  15.739   9.765
    5AU       S 1698  23.702  16.327   8.631
    5AU     LIG 1699  23.767  16.327   9.076
    5AU     LIG 1700  23.364  16.274   9.266
    5AU     LIG 1701  23.101  16.370   9.645
    5AU       S 1702  24.177  16.885   8.571
    5AU     LIG 1703  24.436  17.264   8.603
    5AU     LIG 1704  24.812  17.111   8.830
    5AU     LIG 1705  24.868  16.665   8.840
    5AU       S 1706  24.917  16.737   8.306
    5AU     LIG 1707  25.227  16.887   8.547
    5AU     LIG 1708  25.333  17.256   8.757
    5AU     LIG 1709  25.452  17.701   8.905
    5AU       S 1710  24.464  16.408   6.325
    5AU     LIG 1711  24.916  16.467   6.276
    5AU     LIG 1712  25.027  16.149   5.957
    5AU     LIG 1713  24.958  15.716   5.766
    5AU       S 1714  24.881  16.996   6.821
    5AU     LIG 1715  24.791  17.306   6.527
    5AU     LIG 1716  25.038  17.471   6.157
    5AU     LIG 1717  25.397  17.737   6.019
    5AU       S 1718  25.006  15.806   6.811
    5AU     LIG 1719  25.015  15.797   6.330
    5AU     LIG 1720  24.899  15.392   6.157
    5AU     LIG 1721  25.129  14.982   6.202
    5AU       S 1722  24.482  16.230   6.269
    5AU     LIG 1723  24.525  15.824   6.146
    5AU     LIG 1724  24.427  15.646   5.735
    5AU     LIG 1725  24.373  15.762   5.285
    5AU       S 1726  23.677  16.067   6.337
    5AU     LIG 1727  23.939  15.864   6.040
    5AU     LIG 1728  23.928  15.821   5.567
    5AU     LIG 1729  23.675  15.981   5.197
    5AU       S 1730  24.212  16.554   6.436
    5AU     LIG 1731  24.017  16.377   6.059
    5AU     LIG 1732  24.281  16.146   5.778
    5AU     LIG 1733  24.677  16.091   5.564
    5AU       S 1734  23.494  16.449   8.678
    5AU     LIG 1735  23.198  16.166   8.755
    5AU     LIG 1736  23.187  15.827   9.016
    5AU     LIG 1737  23.087  15.871   9.465
    5AU       S 1738  23.460  17.093   8.176
    5AU     LIG 1739  23.277  17.408   8.373
    5AU     LIG 1740  23.031  17.384   8.727
    5AU     LIG 1741  22.716  17.484   9.022
    5AU       S 1742  23.323  15.841   8.407
    5AU     LIG 1743  22.926  15.890   8.263
    5AU     LIG 1744  22.772  15.477   8.284
    5AU     LIG 1745  22.605  15.308   8.677
    5AU       S 1746  23.682  16.155   8.573
    5AU     LIG 1747  23.697  15.863   8.914
    5AU     LIG 1748  23.608  15.828   9.350
    5AU     LIG 1749  23.532  16.087   9.726
    5AU       S 1750  23.506  15.978   6.446
    5AU     LIG 1751  23.315  15.816   6.106
    5AU     LIG 1752  23.501  16.042   5.783
    5AU     LIG 1753  23.333  16.288   5.447
    5AU       S 1754  23.445  15.579   6.827
    5AU     LIG 1755  23.440  15.164   6.728
    5AU     LIG 1756  23.218  15.089   6.347
    5AU     LIG 1757  22.782  15.003   6.232
    5AU       S 1758  23.181  16.702   6.729
    5AU     LIG 1759  22.898  17.013   6.881
    5AU     LIG 1760  22.984  17.327   6.581
    5AU     LIG 1761  22.862  17.417   6.133
    5AU       S 1762  23.702  16.355   6.447
    5AU     LIG 1763  23.377  16.447   6.206
    5AU     LIG 1764  23.553  16.558   5.821
    5AU     LIG 1765  23.853  16.345   5.541
    5AU       S 1766  24.988  16.869   6.793
    5AU     LIG 1767  25.206  17.028   6.410
    5AU     LIG 1768  25.536  17.262   6.171
    5AU     LIG 1769  25.848  17.511   5.898
    5AU       S 1770  25.009  16.947   7.610
    5AU     LIG 1771  25.277  17.207   7.365
    5AU     LIG 1772  25.717  17.227   7.433
    5AU     LIG 1773  25.965  17.510   7.695
    5AU       S 1774  25.328  16.624   7.602
    5AU     LIG 1775  25.663  16.591   7.366
    5AU     LIG 1776  26.036  16.820   7.251
    5AU     LIG 1777  26.230  17.234   7.290
    5AU       S 1778  25.240  15.692   7.773
    5AU     LIG 1779  25.613  15.480   7.930
    5AU     LIG 1780  26.090  15.523   7.942
    5AU     LIG 1781  26.483  15.734   7.803
    5AU       S 1782  24.948  16.954   8.114
    5AU     LIG 1783  25.323  17.187   8.139
    5AU     LIG 1784  25.396  17.591   8.370
    5AU     LIG 1785  25.214  17.980   8.516
    5AU       S 1786  25.267  16.837   7.720
    5AU     LIG 1787  25.434  16.667   8.090
    5AU     LIG 1788  25.882  16.654   7.960
    5AU     LIG 1789  26.098  16.994   7.738
    5AU       S 1790  23.379  16.917   8.104
    5AU     LIG 1791  23.120  16.796   8.433
    5AU     LIG 1792  22.712  16.976   8.596
    5AU     LIG 1793  22.340  17.254   8.765
    5AU       S 1794  23.483  17.249   7.390
    5AU     LIG 1795  23.198  17.526   7.243
    5AU     LIG 1796  22.838  17.585   7.000
    5AU     LIG 1797  22.489  17.384   6.840
    5AU       S 1798  22.971  16.407   7.045
    5AU     LIG 1799  22.532  16.383   6.952
    5AU     LIG 1800  22.242  16.541   7.252
    5AU     LIG 1801  22.380  16.794   7.623
    5AU       S 1802  23.377  17.112   6.912
    5AU     LIG 1803  23.448  17.525   6.791
    5AU     LIG 1804  23.149  17.817   6.643
    5AU     LIG 1805  22.727  17.758   6.493
    5AU       S 1806  22.943  16.058   7.658
    5AU     LIG 1807  22.642  16.066   7.336
    5AU     LIG 1808  22.195  16.008   7.175
    5AU     LIG 1809  21.722  15.929   7.028
    5AU       S 1810  23.071  16.564   7.980
    5AU     LIG 1811  22.721  16.529   8.177
    5AU     LIG 1812  22.447  16.895   8.149
    5AU     LIG 1813  22.420  17.255   7.883
    5AU       S 1814  24.932  15.552   7.647
    5AU     LIG 1815  25.097  15.150   7.586
    5AU     LIG 1816  25.483  15.036   7.720
    5AU     LIG 1817  25.946  15.094   7.710
    5AU       S 1818  24.809  15.462   8.119
    5AU     LIG 1819  25.154  15.186   8.108
    5AU     LIG 1820  25.432  15.014   8.476
    5AU     LIG 1821  25.739  14.742   8.775
    5AU       S 1822  25.226  15.640   7.586
    5AU     LIG 1823  25.587  15.413   7.402
    5AU     LIG 1824  26.061  15.408   7.318
    5AU     LIG 1825  26.508  15.587   7.293
    5AU       S 1826  24.946  15.559   6.946
    5AU     LIG 1827  24.938  15.248   6.662
    5AU     LIG 1828  24.944  14.825   6.648
    5AU     LIG 1829  24.805  14.553   6.327
    5AU       S 1830  23.317  15.679   6.890
    5AU     LIG 1831  23.029  15.791   6.630
    5AU     LIG 1832  22.788  15.405   6.576
    5AU     LIG 1833  22.471  15.102   6.766
    5AU       S 1834  22.925  15.828   7.686
    5AU     LIG 1835  22.832  15.557   7.413
    5AU     LIG 1836  22.472  15.539   7.186
    5AU     LIG 1837  22.024  15.514   7.127
    5AU       S 1838  23.331  15.617   8.332
    5AU     LIG 1839  23.207  15.321   8.001
    5AU     LIG 1840  22.892  14.996   8.021
    5AU     LIG 1841  22.515  15.012   8.252
    5AU       S 1842  22.982  16.101   7.826
    5AU     LIG 1843  22.541  16.047   7.943
    5AU     LIG 1844  22.335  15.793   7.650
    5AU     LIG 1845  22.016  15.517   7.632
    5AU       S 1846  23.621  17.282   7.860
    5AU     LIG 1847  23.196  17.411   7.845
    5AU     LIG 1848  22.894  17.196   8.108
    5AU     LIG 1849  22.648  17.434   8.391
    5AU       S 1850  24.196  17.407   7.902
    5AU     LIG 1851  24.572  17.604   8.117
    5AU     LIG 1852  24.449  18.015   8.228
    5AU     LIG 1853  23.990  18.128   8.259
    5AU       S 1854  24.191  17.611   7.812
    5AU     LIG 1855  23.822  17.822   7.747
    5AU     LIG 1856  23.698  18.264   7.844
    5AU     LIG 1857  23.709  18.582   8.204
    5AU       S 1858  24.185  17.404   7.057
    5AU     LIG 1859  24.191  17.804   7.298
    5AU     LIG 1860  24.424  18.244   7.308
    5AU     LIG 1861  24.711  18.426   6.981
    5AU       S 1862  24.714  16.943   8.360
    5AU     LIG 1863  24.917  17.359   8.405
    5AU     LIG 1864  24.961  17.607   8.774
    5AU     LIG 1865  25.082  17.422   9.183
    5AU       S 1866  24.449  17.421   7.597
    5AU     LIG 1867  24.551  17.862   7.635
    5AU     LIG 1868  24.233  18.166   7.778
    5AU     LIG 1869  24.282  18.501   8.088
    5AU       S 1870  23.982  15.129   8.068
    5AU     LIG 1871  24.351  14.907   8.197
    5AU     LIG 1872  24.550  14.509   8.255
    5AU     LIG 1873  24.511  14.145   8.564
    5AU       S 1874  24.575  15.430   7.971
    5AU     LIG 1875  24.663  15.051   7.831
    5AU     LIG 1876  24.930  14.728   7.935
    5AU     LIG 1877  25.374  14.712   8.076
    5AU       S 1878  23.798  15.083   7.915
    5AU     LIG 1879  23.719  14.756   7.708
    5AU     LIG 1880  23.836  14.395   7.961
    5AU     LIG 1881  23.868  14.003   8.241
    5AU       S 1882  23.568  15.697   8.480
    5AU     LIG 1883  23.308  15.374   8.743
    5AU     LIG 1884  23.014  15.044   8.539
    5AU     LIG 1885  22.657  14.788   8.732
    5AU       S 1886  24.254  15.123   7.291
    5AU     LIG 1887  24.346  14.668   7.213
    5AU     LIG 1888  24.323  14.245   7.116
    5AU     LIG 1889  23.952  13.977   7.094
    5AU       S 1890  24.148  15.184   7.842
    5AU     LIG 1891  24.225  14.808   7.684
    5AU     LIG 1892  24.316  14.393   7.779
    5AU     LIG 1893  24.349  14.059   8.086
    5AU       S 1894  24.039  17.315   6.779
    5AU     LIG 1895  23.945  17.783   6.819
    5AU     LIG 1896  24.173  18.188   6.870
    5AU     LIG 1897  24.311  18.620   6.726
    5AU       S 1898  24.829  17.096   7.120
    5AU     LIG 1899  25.076  17.447   6.945
    5AU     LIG 1900  25.337  17.533   6.574
    5AU     LIG 1901  25.757  17.676   6.412
    5AU       S 1902  23.845  17.322   7.033
    5AU     LIG 1903  23.694  17.697   7.256
    5AU     LIG 1904  23.827  18.163   7.293
    5AU     LIG 1905  24.034  18.588   7.182
    5AU       S 1906  23.396  16.741   6.630
    5AU     LIG 1907  23.461  17.127   6.421
    5AU     LIG 1908  23.352  17.542   6.263
    5AU     LIG 1909  23.073  17.896   6.125
    5AU       S 1910  23.368  15.499   7.128
    5AU     LIG 1911  23.025  15.270   7.040
    5AU     LIG 1912  22.956  14.946   6.767
    5AU     LIG 1913  22.697  14.646   6.584
    5AU       S 1914  24.213  15.153   7.145
    5AU     LIG 1915  24.477  14.999   6.840
    5AU     LIG 1916  24.379  14.585   6.671
    5AU     LIG 1917  24.145  14.151   6.636
    5AU       S 1918  24.504  15.231   7.402
    5AU     LIG 1919  24.795  14.904   7.244
    5AU     LIG 1920  24.784  14.501   6.987
    5AU     LIG 1921  24.690  14.168   6.670
    5AU       S 1922  24.724  15.702   6.698
    5AU     LIG 1923  24.459  15.436   6.522
    5AU     LIG 1924  24.574  15.033   6.340
    5AU     LIG 1925  24.711  14.900   5.932
    6AU     AUC 1926   2.238  22.604   7.531
    6AU     AUC 1927   2.495  22.603   7.362
    6AU     AUC 1928   2.480  22.606   7.698
    6AU     AUC 1929   1.966  22.593   7.377
    6AU     AUC 1930   1.989  22.648   7.702
    6AU     AUC 1931   2.078  22.863   7.493
    6AU     AUC 1932   2.419  22.873   7.498
    6AU     AUC 1933   2.065  22.346   7.562
    6AU     AUC 1934   2.399  22.332   7.554
    6AU     AUC 1935   2.236  22.461   7.811
    6AU     AUC 1936   2.248  22.805   7.771
    6AU     AUC 1937   2.235  22.415   7.284
    6AU     AUC 1938   2.248  22.728   7.256
    6AU     AUC 1939   2.808  22.603   7.202
    6AU     AUC 1940   2.799  22.588   7.542
    6AU     AUC 1941   2.764  22.589   7.899
    6AU     AUC 1942   1.663  22.552   7.241
    6AU     AUC 1943   1.666  22.637   7.565
    6AU     AUC 1944   1.698  22.703   7.883
    6AU     AUC 1945   1.913  23.164   7.431
    6AU     AUC 1946   2.272  23.155   7.416
    6AU     AUC 1947   2.609  23.147   7.453
    6AU     AUC 1948   1.875  22.062   7.590
    6AU     AUC 1949   2.223  22.040   7.566
    6AU     AUC 1950   2.575  22.038   7.568
    6AU     AUC 1951   2.214  22.307   8.117
    6AU     AUC 1952   2.231  22.661   8.095
    6AU     AUC 1953   2.283  23.020   8.046
    6AU     AUC 1954   2.269  22.222   7.010
    6AU     AUC 1955   2.218  22.550   6.956
    6AU     AUC 1956   2.207  22.868   6.942
    6AU     AUC 1957   2.480  22.426   8.018
    6AU     AUC 1958   2.530  22.790   7.986
    6AU     AUC 1959   2.540  22.430   7.072
    6AU     AUC 1960   2.508  22.749   7.075
    6AU     AUC 1961   1.950  22.528   8.016
    6AU     AUC 1962   1.988  22.881   7.959
    6AU     AUC 1963   1.954  22.371   7.119
    6AU     AUC 1964   1.915  22.680   7.069
    6AU     AUC 1965   2.729  22.875   7.335
    6AU     AUC 1966   2.683  22.875   7.686
    6AU     AUC 1967   1.773  22.869   7.358
    6AU     AUC 1968   1.820  22.962   7.683
    6AU     AUC 1969   2.701  22.319   7.394
    6AU     AUC 1970   2.656  22.295   7.742
    6AU     AUC 1971   1.770  22.291   7.419
    6AU     AUC 1972   1.797  22.377   7.751
    6AU     AUC 1973   2.131  23.113   7.746
    6AU     AUC 1974   2.455  23.083   7.765
    6AU     AUC 1975   2.050  22.182   7.853
    6AU     AUC 1976   2.362  22.132   7.835
    6AU     AUC 1977   2.046  23.013   7.181
    6AU     AUC 1978   2.407  23.043   7.189
    6AU     AUC 1979   2.077  22.124   7.289
    6AU     AUC 1980   2.450  22.161   7.281
    6AU    AUSL 1981   2.737  22.536   8.299
    6AU    AUSL 1982   2.503  22.147   8.231
    6AU     AUL 1983   2.812  22.195   8.417
    6AU    AUSL 1984   2.329  22.478   8.434
    6AU    AUSL 1985   2.093  22.874   8.418
    6AU     AUL 1986   2.324  22.786   8.701
    6AU    AUSL 1987   2.433  22.833   8.184
    6AU    AUSL 1988   2.875  22.883   8.100
    6AU     AUL 1989   2.717  22.850   8.444
    6AU    AUSL 1990   2.667  22.623   6.878
    6AU    AUSL 1991   2.528  23.020   6.950
    6AU     AUL 1992   2.743  22.944   6.667
    6AU    AUSL 1993   2.492  22.337   6.620
    6AU    AUSL 1994   2.974  22.364   6.990
    6AU     AUL 1995   2.869  22.483   6.648
    6AU    AUSL 1996   2.301  22.752   6.701
    6AU    AUSL 1997   2.122  22.359   6.819
    6AU     AUL 1998   2.221  22.404   6.487
    6AU    AUSL 1999   1.706  22.828   8.219
    6AU    AUSL 2000   2.037  23.138   8.093
    6AU     AUL 2001   1.877  23.122   8.420
    6AU    AUSL 2002   1.992  22.518   8.192
    6AU    AUSL 2003   1.580  22.402   8.159
    6AU     AUL 2004   1.516  22.630   8.304
    6AU    AUSL 2005   1.696  22.356   6.830
    6AU    AUSL 2006   1.933  22.038   7.013
    6AU     AUL 2007   1.979  22.046   6.681
    6AU    AUSL 2008   1.880  22.703   6.666
    6AU    AUSL 2009   1.587  22.722   7.030
    6AU     AUL 2010   1.464  22.547   6.777
    6AU    AUSL 2011   3.012  23.078   7.478
    6AU    AUSL 2012   2.932  22.881   7.080
    6AU     AUL 2013   3.275  23.072   7.153
    6AU    AUSL 2014   3.178  22.691   7.373
    6AU    AUSL 2015   3.141  22.399   7.759
    6AU     AUL 2016   3.430  22.499   7.552
    6AU    AUSL 2017   2.904  22.737   7.710
    6AU    AUSL 2018   2.736  23.143   7.783
    6AU     AUL 2019   3.111  22.909   7.842
    6AU    AUSL 2020   1.659  23.230   7.476
    6AU    AUSL 2021   1.703  23.021   7.848
    6AU     AUL 2022   1.387  23.257   7.680
    6AU    AUSL 2023   1.489  22.834   7.420
    6AU    AUSL 2024   1.618  23.144   7.072
    6AU     AUL 2025   1.368  23.069   7.221
    6AU    AUSL 2026   1.341  22.827   7.837
    6AU    AUSL 2027   1.311  22.456   7.417
    6AU     AUL 2028   1.142  22.801   7.538
    6AU    AUSL 2029   2.918  22.049   7.625
    6AU    AUSL 2030   2.761  22.331   7.934
    6AU     AUL 2031   3.061  22.230   8.014
    6AU    AUSL 2032   2.885  22.400   7.394
    6AU    AUSL 2033   2.870  21.991   7.205
    6AU     AUL 2034   3.139  22.212   7.272
    6AU    AUSL 2035   1.495  22.096   7.617
    6AU    AUSL 2036   1.648  22.286   7.235
    6AU     AUL 2037   1.282  22.169   7.300
    6AU    AUSL 2038   1.574  22.496   7.753
    6AU    AUSL 2039   1.799  22.133   7.911
    6AU     AUL 2040   1.479  22.124   7.956
    6AU    AUSL 2041   2.312  23.400   7.903
    6AU    AUSL 2042   1.866  23.417   7.802
    6AU     AUL 2043   2.086  23.484   8.164
    6AU    AUSL 2044   2.146  23.295   7.524
    6AU    AUSL 2045   2.377  23.414   7.176
    6AU     AUL 2046   2.125  23.646   7.457
    6AU    AUSL 2047   2.563  23.449   7.556
    6AU    AUSL 2048   2.581  23.220   8.170
    6AU     AUL 2049   2.673  23.482   7.910
    6AU    AUSL 2050   2.190  21.963   8.006
    6AU    AUSL 2051   2.607  21.931   7.879
    6AU     AUL 2052   2.381  21.852   8.261
    6AU    AUSL 2053   1.887  21.761   7.746
    6AU    AUSL 2054   1.968  22.129   8.318
    6AU     AUL 2055   1.863  21.825   8.096
    6AU    AUSL 2056   2.318  21.681   7.710
    6AU    AUSL 2057   2.101  21.898   7.404
    6AU     AUL 2058   2.004  21.540   7.515
    6AU    AUSL 2059   2.205  23.237   6.801
    6AU    AUSL 2060   2.762  23.264   7.204
    6AU     AUL 2061   2.529  23.352   6.855
    6AU    AUSL 2062   1.962  23.358   7.151
    6AU    AUSL 2063   1.979  22.939   6.988
    6AU     AUL 2064   1.884  23.212   6.788
    6AU    AUSL 2065   2.308  21.844   7.028
    6AU    AUSL 2066   1.695  21.861   7.330
    6AU     AUL 2067   1.971  21.703   7.082
    6AU    AUSL 2068   2.526  21.893   7.412
    6AU    AUSL 2069   2.547  22.191   7.007
    6AU     AUL 2070   2.630  21.818   7.030
    6AU       S 2071   2.837  21.757   8.262
    6AU     LIG 2072   2.664  21.378   8.348
    6AU     LIG 2073   2.807  20.970   8.531
    6AU     LIG 2074   3.173  20.838   8.778
    6AU       S 2075   2.683  22.477   8.755
    6AU     LIG 2076   3.076  22.633   8.772
    6AU     LIG 2077   3.257  22.604   9.206
    6AU     LIG 2078   3.261  22.542   9.682
    6AU       S 2079   2.338  22.310   8.647
    6AU     LIG 2080   2.345  22.349   9.102
    6AU     LIG 2081   2.727  22.354   9.411
    6AU     LIG 2082   2.907  22.190   9.826
    6AU       S 2083   1.881  22.681   8.646
    6AU     LIG 2084   1.938  22.686   9.099
    6AU     LIG 2085   1.549  22.526   9.308
    6AU     LIG 2086   1.227  22.581   9.656
    6AU       S 2087   2.342  23.241   8.554
    6AU     LIG 2088   2.595  23.583   8.648
    6AU     LIG 2089   3.008  23.431   8.783
    6AU     LIG 2090   3.225  23.091   8.992
    6AU       S 2091   3.049  23.134   8.246
    6AU     LIG 2092   3.340  23.137   8.489
    6AU     LIG 2093   3.522  23.483   8.661
    6AU     LIG 2094   3.886  23.688   8.853
    6AU       S 2095   2.571  22.722   6.313
    6AU     LIG 2096   3.027  22.766   6.248
    6AU     LIG 2097   3.127  22.371   6.061
    6AU     LIG 2098   2.993  21.970   5.841
    6AU       S 2099   2.977  23.347   6.794
    6AU     LIG 2100   2.976  23.597   6.430
    6AU     LIG 2101   3.284  23.757   6.116
    6AU     LIG 2102   3.748  23.820   6.161
    6AU       S 2103   3.134  22.118   6.792
    6AU     LIG 2104   3.180  21.952   6.348
    6AU     LIG 2105   3.041  21.564   6.194
    6AU     LIG 2106   3.207  21.142   6.291
    6AU       S 2107   2.592  22.549   6.270
    6AU     LIG 2108   2.608  22.139   6.154
    6AU     LIG 2109   2.470  21.984   5.731
    6AU     LIG 2110   2.640  22.036   5.301
    6AU       S 2111   1.788  22.349   6.358
    6AU     LIG 2112   1.822  22.420   5.956
    6AU     LIG 2113   1.938  22.235   5.576
    6AU     LIG 2114   1.642  22.076   5.291
    6AU       S 2115   2.329  22.863   6.451
    6AU     LIG 2116   2.117  22.799   6.093
    6AU     LIG 2117   2.319  22.493   5.834
    6AU     LIG 2118   2.750  22.418   5.708
    6AU       S 2119   1.678  22.803   8.697
    6AU     LIG 2120   1.379  22.539   8.780
    6AU     LIG 2121   1.295  22.162   8.931
    6AU     LIG 2122   1.153  22.150   9.363
    6AU       S 2123   1.606  23.412   8.172
    6AU     LIG 2124   1.607  23.539   8.556
    6AU     LIG 2125   1.267  23.610   8.813
    6AU     LIG 2126   0.865  23.782   8.833
    6AU       S 2127   1.510  22.184   8.451
    6AU     LIG 2128   1.121  22.332   8.363
    6AU     LIG 2129   0.975  21.987   8.247
    6AU     LIG 2130   0.807  21.613   8.463
    6AU       S 2131   1.868  22.507   8.595
    6AU     LIG 2132   1.822  22.230   8.940
    6AU     LIG 2133   1.652  22.024   9.292
    6AU     LIG 2134   1.548  22.185   9.722
    6AU       S 2135   1.639  22.274   6.460
    6AU     LIG 2136   1.400  22.060   6.197
    6AU     LIG 2137   1.450  22.116   5.785
    6AU     LIG 2138   1.484  22.508   5.550
    6AU       S 2139   1.584  21.871   6.862
    6AU     LIG 2140   1.481  21.616   6.536
    6AU     LIG 2141   1.431  21.574   6.087
    6AU     LIG 2142   1.067  21.732   5.857
    6AU       S 2143   1.304  22.972   6.739
    6AU     LIG 2144   1.041  23.276   6.676
    6AU     LIG 2145   1.128  23.674   6.485
    6AU     LIG 2146   1.059  23.756   6.041
    6AU       S 2147   1.810  22.647   6.455
    6AU     LIG 2148   1.474  22.724   6.226
    6AU     LIG 2149   1.627  22.897   5.862
    6AU     LIG 2150   1.953  22.768   5.558
    6AU       S 2151   3.053  23.250   6.810
    6AU     LIG 2152   3.294  23.162   6.454
    6AU     LIG 2153   3.573  23.333   6.157
    6AU     LIG 2154   3.970  23.403   5.951
    6AU       S 2155   3.167  23.293   7.559
    6AU     LIG 2156   3.400  23.560   7.248
    6AU     LIG 2157   3.833  23.729   7.286
    6AU     LIG 2158   4.126  23.524   7.589
    6AU       S 2159   3.482  22.971   7.555
    6AU     LIG 2160   3.805  23.200   7.318
    6AU     LIG 2161   4.267  23.163   7.203
    6AU     LIG 2162   4.713  23.301   7.062
    6AU       S 2163   3.396  22.062   7.747
    6AU     LIG 2164   3.519  21.754   8.021
    6AU     LIG 2165   3.937  21.608   7.967
    6AU     LIG 2166   4.254  21.876   7.728
    6AU       S 2167   3.086  23.331   8.052
    6AU     LIG 2168   3.452  23.616   8.163
    6AU     LIG 2169   3.646  23.960   8.459
    6AU     LIG 2170   3.623  24.111   8.927
    6AU       S 2171   3.417  23.190   7.666
    6AU     LIG 2172   3.625  23.142   8.034
    6AU     LIG 2173   4.091  23.223   8.024
    6AU     LIG 2174   4.471  23.497   7.992
    6AU       S 2175   1.525  23.239   8.116
    6AU     LIG 2176   1.298  23.109   8.460
    6AU     LIG 2177   0.894  23.329   8.569
    6AU     LIG 2178   0.471  23.460   8.756
    6AU       S 2179   1.597  23.561   7.378
    6AU     LIG 2180   1.368  23.858   7.187
    6AU     LIG 2181   1.025  23.658   7.008
    6AU     LIG 2182   0.873  23.236   7.171
    6AU       S 2183   1.104  22.695   7.079
    6AU     LIG 2184   0.791  22.840   6.828
    6AU     LIG 2185   0.414  23.013   6.965
    6AU     LIG 2186   0.369  23.193   7.343
    6AU       S 2187   1.473  23.403   6.892
    6AU     LIG 2188   1.578  23.813   6.724
    6AU     LIG 2189   1.279  24.150   6.665
    6AU     LIG 2190   0.936  24.147   6.368
    6AU       S 2191   1.097  22.361   7.697
    6AU     LIG 2192   0.779  22.474   7.411
    6AU     LIG 2193   0.350  22.526   7.282
    6AU     LIG 2194  44.996  22.296   7.447
    6AU       S 2195   1.229  22.872   8.005
    6AU     LIG 2196   0.910  22.812   8.225
    6AU     LIG 2197   0.600  23.143   8.180
    6AU     LIG 2198   0.257  23.389   8.296
    6AU       S 2199   3.089  21.905   7.638
    6AU     LIG 2200   3.163  21.509   7.598
    6AU     LIG 2201   3.538  21.353   7.702
    6AU     LIG 2202   3.871  21.464   7.481
    6AU       S 2203   2.991  21.792   8.105
    6AU     LIG 2204   3.201  21.375   8.109
    6AU     LIG 2205   3.633  21.239   8.202
    6AU     LIG 2206   3.759  21.133   8.634
    6AU       S 2207   3.374  21.989   7.584
    6AU     LIG 2208   3.463  21.765   7.246
    6AU     LIG 2209   3.888  21.750   7.063
    6AU     LIG 2210   4.300  21.649   7.253
    6AU       S 2211   3.080  21.882   6.920
    6AU     LIG 2212   3.017  21.488   6.738
    6AU     LIG 2213   3.013  21.032   6.748
    6AU     LIG 2214   2.910  20.710   6.451
    6AU       S 2215   1.455  21.976   6.927
    6AU     LIG 2216   1.178  22.095   6.660
    6AU     LIG 2217   1.009  21.770   6.399
    6AU     LIG 2218   0.649  21.649   6.179
    6AU       S 2219   1.074  22.119   7.728
    6AU     LIG 2220   0.809  21.965   7.386
    6AU     LIG 2221   0.356  21.991   7.214
    6AU     LIG 2222  44.969  21.769   7.374
    6AU       S 2223   1.513  21.963   8.381
    6AU     LIG 2224   1.342  21.649   8.105
    6AU     LIG 2225   1.057  21.278   8.167
    6AU     LIG 2226   0.618  21.169   8.292
    6AU       S 2227   1.131  22.406   7.866
    6AU     LIG 2228   0.707  22.368   7.995
    6AU     LIG 2229   0.447  22.178   7.707
    6AU     LIG 2230   0.093  21.964   7.831
    6AU       S 2231   1.757  23.582   7.838
    6AU     LIG 2232   1.370  23.751   7.897
    6AU     LIG 2233   1.158  23.729   8.301
    6AU     LIG 2234   0.934  24.109   8.451
    6AU       S 2235   2.315  23.774   7.858
    6AU     LIG 2236   2.523  23.890   8.200
    6AU     LIG 2237   2.364  24.273   8.385
    6AU     LIG 2238   1.938  24.458   8.409
    6AU       S 2239   2.402  23.970   7.682
    6AU     LIG 2240   2.074  24.305   7.681
    6AU     LIG 2241   1.946  24.684   7.947
    6AU     LIG 2242   1.936  24.967   8.352
    6AU       S 2243   2.285  23.716   7.021
    6AU     LIG 2244   2.363  24.114   7.204
    6AU     LIG 2245   2.297  24.546   7.282
    6AU     LIG 2246   2.191  24.924   7.050
    6AU       S 2247   2.837  23.312   8.317
    6AU     LIG 2248   2.993  23.729   8.350
    6AU     LIG 2249   3.201  23.896   8.714
    6AU     LIG 2250   3.370  23.685   9.101
    6AU       S 2251   2.592  23.740   7.522
    6AU     LIG 2252   2.860  24.039   7.806
    6AU     LIG 2253   2.565  24.412   7.926
    6AU     LIG 2254   2.399  24.774   8.183
    6AU       S 2255   2.177  21.462   8.111
    6AU     LIG 2256   2.355  21.024   8.163
    6AU     LIG 2257   2.533  20.603   8.235
    6AU     LIG 2258   2.375  20.154   8.323
    6AU       S 2259   2.748  21.762   7.970
    6AU     LIG 2260   2.773  21.358   7.858
    6AU     LIG 2261   2.853  20.976   8.033
    6AU     LIG 2262   3.270  20.883   8.271
    6AU       S 2263   1.980  21.387   7.954
    6AU     LIG 2264   1.968  20.918   7.841
    6AU     LIG 2265   2.083  20.494   8.013
    6AU     LIG 2266   1.834  20.171   8.269
    6AU       S 2267   1.779  22.053   8.495
    6AU     LIG 2268   1.605  21.760   8.812
    6AU     LIG 2269   1.284  21.478   8.623
    6AU     LIG 2270   0.964  21.134   8.676
    6AU       S 2271   2.410  21.450   7.309
    6AU     LIG 2272   2.275  20.975   7.212
    6AU     LIG 2273   2.269  20.520   7.071
    6AU     LIG 2274   2.349  20.063   6.986
    6AU       S 2275   2.311  21.504   7.889
    6AU     LIG 2276   2.378  21.138   7.674
    6AU     LIG 2277   2.478  20.712   7.718
    6AU     LIG 2278   2.592  20.278   7.824
    6AU       S 2279   2.135  23.616   6.752
    6AU     LIG 2280   2.047  24.084   6.760
    6AU     LIG 2281   2.311  24.468   6.766
    6AU     LIG 2282   2.630  24.538   6.424
    6AU       S 2283   2.920  23.420   7.121
    6AU     LIG 2284   3.059  23.807   6.935
    6AU     LIG 2285   3.413  23.817   6.622
    6AU     LIG 2286   3.835  24.000   6.646
    6AU       S 2287   1.949  23.627   7.015
    6AU     LIG 2288   1.857  24.020   7.226
    6AU     LIG 2289   1.855  24.466   7.055
    6AU     LIG 2290   1.891  24.759   6.663
    6AU       S 2291   1.504  23.016   6.641
    6AU     LIG 2292   1.706  23.188   6.315
    6AU     LIG 2293   1.581  23.618   6.212
    6AU     LIG 2294   1.443  24.051   6.194
    6AU       S 2295   1.503  21.773   7.157
    6AU     LIG 2296   1.124  21.591   6.951
    6AU     LIG 2297   1.049  21.293   6.621
    6AU     LIG 2298   1.025  21.289   6.166
    6AU       S 2299   2.369  21.470   7.173
    6AU     LIG 2300   2.562  21.237   6.868
    6AU     LIG 2301   2.453  20.818   6.657
    6AU     LIG 2302   2.316  20.348   6.549
    6AU       S 2303   2.667  21.565   7.420
    6AU     LIG 2304   2.808  21.130   7.371
    6AU     LIG 2305   2.731  20.780   7.086
    6AU     LIG 2306   2.723  20.407   6.848
    6AU       S 2307   2.844  22.014   6.685
    6AU     LIG 2308   2.598  21.681   6.527
    6AU     LIG 2309   2.692  21.231   6.375
    6AU     LIG 2310   2.814  20.975   6.000
    7AU     AUC 2311   2.590   3.142   7.533
    7AU     AUC 2312   2.848   3.148   7.370
    7AU     AUC 2313   2.829   3.147   7.706
    7AU     AUC 2314   2.323   3.128   7.373
    7AU     AUC 2315   2.335   3.180   7.698
    7AU     AUC 2316   2.424   3.398   7.492
    7AU     AUC 2317   2.764   3.415   7.505
    7AU     AUC 2318   2.423   2.880   7.557
    7AU     AUC 2319   2.757   2.874   7.556
    7AU     AUC 2320   2.584   2.998   7.811
    7AU     AUC 2321   2.588   3.341   7.774
    7AU     AUC 2322   2.597   2.953   7.284
    7AU     AUC 2323   2.602   3.267   7.259
    7AU     AUC 2324   3.166   3.156   7.217
    7AU     AUC 2325   3.151   3.138   7.557
    7AU     AUC 2326   3.107   3.135   7.912
    7AU     AUC 2327   2.026   3.079   7.228
    7AU     AUC 2328   2.016   3.163   7.552
    7AU     AUC 2329   2.036   3.228   7.872
    7AU     AUC 2330   2.254   3.694   7.426
    7AU     AUC 2331   2.613   3.693   7.420
    7AU     AUC 2332   2.948   3.692   7.465
    7AU     AUC 2333   2.241   2.592   7.580
    7AU     AUC 2334   2.588   2.578   7.563
    7AU     AUC 2335   2.938   2.583   7.573
    7AU     AUC 2336   2.559   2.844   8.115
    7AU     AUC 2337   2.567   3.195   8.096
    7AU     AUC 2338   2.610   3.554   8.052
    7AU     AUC 2339   2.641   2.761   7.008
    7AU     AUC 2340   2.582   3.089   6.958
    7AU     AUC 2341   2.565   3.407   6.945
    7AU     AUC 2342   2.826   2.966   8.024
    7AU     AUC 2343   2.863   3.328   7.998
    7AU     AUC 2344   2.904   2.977   7.079
    7AU     AUC 2345   2.865   3.293   7.086
    7AU     AUC 2346   2.291   3.060   8.009
    7AU     AUC 2347   2.320   3.413   7.954
    7AU     AUC 2348   2.322   2.903   7.112
    7AU     AUC 2349   2.275   3.212   7.063
    7AU     AUC 2350   3.079   3.424   7.353
    7AU     AUC 2351   3.021   3.419   7.701
    7AU     AUC 2352   2.123   3.397   7.350
    7AU     AUC 2353   2.158   3.491   7.676
    7AU     AUC 2354   3.061   2.869   7.402
    7AU     AUC 2355   3.011   2.841   7.750
    7AU     AUC 2356   2.135   2.819   7.408
    7AU     AUC 2357   2.150   2.907   7.739
    7AU     AUC 2358   2.463   3.648   7.747
    7AU     AUC 2359   2.785   3.622   7.775
    7AU     AUC 2360   2.406   2.718   7.846
    7AU     AUC 2361   2.720   2.673   7.836
    7AU     AUC 2362   2.396   3.548   7.178
    7AU     AUC 2363   2.757   3.587   7.197
    7AU     AUC 2364   2.450   2.657   7.283
    7AU     AUC 2365   2.818   2.704   7.284
    7AU    AUSL 2366   3.071   3.078   8.313
    7AU    AUSL 2367   2.851   2.688   8.237
    7AU     AUL 2368   3.162   2.728   8.417
    7AU    AUSL 2369   2.660   3.011   8.435
    7AU    AUSL 2370   2.416   3.405   8.418
    7AU     AUL 2371   2.650   3.317   8.701
    7AU    AUSL 2372   2.761   3.368   8.192
    7AU    AUSL 2373   3.201   3.435   8.124
    7AU     AUL 2374   3.045   3.391   8.458
    7AU    AUSL 2375   3.029   3.174   6.891
    7AU    AUSL 2376   2.878   3.563   6.970
    7AU     AUL 2377   3.089   3.500   6.687
    7AU    AUSL 2378   2.866   2.888   6.625
    7AU    AUSL 2379   3.343   2.923   7.004
    7AU     AUL 2380   3.235   3.045   6.671
    7AU    AUSL 2381   2.664   3.295   6.705
    7AU    AUSL 2382   2.492   2.897   6.816
    7AU     AUL 2383   2.593   2.947   6.487
    7AU    AUSL 2384   2.034   3.351   8.208
    7AU    AUSL 2385   2.359   3.667   8.092
    7AU     AUL 2386   2.186   3.648   8.419
    7AU    AUSL 2387   2.329   3.050   8.185
    7AU    AUSL 2388   1.920   2.925   8.141
    7AU     AUL 2389   1.843   3.146   8.290
    7AU    AUSL 2390   2.064   2.880   6.819
    7AU    AUSL 2391   2.313   2.566   7.002
    7AU     AUL 2392   2.356   2.584   6.670
    7AU    AUSL 2393   2.245   3.234   6.663
    7AU    AUSL 2394   1.947   3.245   7.020
    7AU     AUL 2395   1.832   3.073   6.765
    7AU    AUSL 2396   3.343   3.634   7.506
    7AU    AUSL 2397   3.287   3.434   7.099
    7AU     AUL 2398   3.618   3.642   7.188
    7AU    AUSL 2399   3.531   3.253   7.402
    7AU    AUSL 2400   3.496   2.952   7.770
    7AU     AUL 2401   3.798   3.022   7.554
    7AU    AUSL 2402   3.251   3.286   7.735
    7AU    AUSL 2403   3.058   3.686   7.804
    7AU     AUL 2404   3.428   3.477   7.896
    7AU    AUSL 2405   1.998   3.757   7.465
    7AU    AUSL 2406   2.032   3.547   7.837
    7AU     AUL 2407   1.711   3.778   7.660
    7AU    AUSL 2408   1.835   3.358   7.407
    7AU    AUSL 2409   1.969   3.669   7.059
    7AU     AUL 2410   1.717   3.585   7.206
    7AU    AUSL 2411   1.677   3.342   7.821
    7AU    AUSL 2412   1.675   2.973   7.385
    7AU     AUL 2413   1.487   3.305   7.516
    7AU    AUSL 2414   3.275   2.602   7.635
    7AU    AUSL 2415   3.115   2.878   7.947
    7AU     AUL 2416   3.423   2.793   8.022
    7AU    AUSL 2417   3.242   2.955   7.406
    7AU    AUSL 2418   3.243   2.546   7.213
    7AU     AUL 2419   3.499   2.767   7.289
    7AU    AUSL 2420   1.859   2.618   7.594
    7AU    AUSL 2421   2.026   2.812   7.224
    7AU     AUL 2422   1.665   2.701   7.246
    7AU    AUSL 2423   1.920   3.019   7.734
    7AU    AUSL 2424   2.153   2.664   7.897
    7AU     AUL 2425   1.836   2.652   7.942
    7AU    AUSL 2426   2.634   3.934   7.909
    7AU    AUSL 2427   2.191   3.946   7.798
    7AU     AUL 2428   2.393   4.008   8.169
    7AU    AUSL 2429   2.480   3.832   7.525
    7AU    AUSL 2430   2.720   3.953   7.183
    7AU     AUL 2431   2.455   4.180   7.457
    7AU    AUSL 2432   2.895   3.988   7.568
    7AU    AUSL 2433   2.894   3.760   8.188
    7AU     AUL 2434   2.991   4.022   7.927
    7AU    AUSL 2435   2.545   2.504   8.001
    7AU    AUSL 2436   2.967   2.476   7.887
    7AU     AUL 2437   2.729   2.395   8.262
    7AU    AUSL 2438   2.255   2.294   7.736
    7AU    AUSL 2439   2.313   2.660   8.310
    7AU     AUL 2440   2.214   2.369   8.087
    7AU    AUSL 2441   2.687   2.223   7.709
    7AU    AUSL 2442   2.475   2.430   7.397
    7AU     AUL 2443   2.373   2.068   7.509
    7AU    AUSL 2444   2.563   3.777   6.802
    7AU    AUSL 2445   3.111   3.818   7.215
    7AU     AUL 2446   2.889   3.900   6.865
    7AU    AUSL 2447   2.307   3.891   7.145
    7AU    AUSL 2448   2.336   3.474   6.983
    7AU     AUL 2449   2.243   3.744   6.778
    7AU    AUSL 2450   2.694   2.383   7.026
    7AU    AUSL 2451   2.072   2.386   7.315
    7AU     AUL 2452   2.368   2.228   7.073
    7AU    AUSL 2453   2.899   2.436   7.415
    7AU    AUSL 2454   2.918   2.739   7.011
    7AU     AUL 2455   3.016   2.371   7.034
    7AU       S 2456   3.175   2.276   8.276
    7AU     LIG 2457   3.325   1.855   8.362
    7AU     LIG 2458   3.420   1.435   8.498
    7AU     LIG 2459   3.459   1.384   8.938
    7AU       S 2460   3.014   3.008   8.753
    7AU     LIG 2461   3.426   3.045   8.762
    7AU     LIG 2462   3.564   3.176   9.189
    7AU     LIG 2463   3.507   3.178   9.666
    7AU       S 2464   2.672   2.841   8.652
    7AU     LIG 2465   2.698   2.892   9.116
    7AU     LIG 2466   3.097   2.914   9.401
    7AU     LIG 2467   3.323   2.704   9.775
    7AU       S 2468   2.209   3.205   8.637
    7AU     LIG 2469   2.305   3.232   9.083
    7AU     LIG 2470   1.961   3.114   9.361
    7AU     LIG 2471   1.529   3.273   9.414
    7AU       S 2472   2.647   3.778   8.566
    7AU     LIG 2473   2.893   4.127   8.684
    7AU     LIG 2474   3.269   3.946   8.844
    7AU     LIG 2475   3.428   3.548   8.802
    7AU       S 2476   3.363   3.710   8.298
    7AU     LIG 2477   3.730   3.615   8.390
    7AU     LIG 2478   3.799   3.935   8.698
    7AU     LIG 2479   4.058   4.255   8.917
    7AU       S 2480   2.941   3.279   6.320
    7AU     LIG 2481   3.401   3.332   6.294
    7AU     LIG 2482   3.468   2.875   6.252
    7AU     LIG 2483   3.340   2.509   5.983
    7AU       S 2484   3.344   3.885   6.823
    7AU     LIG 2485   3.227   4.255   6.629
    7AU     LIG 2486   3.439   4.454   6.272
    7AU     LIG 2487   3.810   4.702   6.189
    7AU       S 2488   3.510   2.684   6.804
    7AU     LIG 2489   3.610   2.407   6.428
    7AU     LIG 2490   3.526   1.987   6.305
    7AU     LIG 2491   3.592   1.596   6.536
    7AU       S 2492   2.969   3.103   6.285
    7AU     LIG 2493   2.892   2.711   6.138
    7AU     LIG 2494   2.876   2.602   5.692
    7AU     LIG 2495   3.129   2.742   5.320
    7AU       S 2496   2.163   2.886   6.349
    7AU     LIG 2497   2.385   2.780   6.007
    7AU     LIG 2498   2.341   2.915   5.585
    7AU     LIG 2499   2.128   3.193   5.296
    7AU       S 2500   2.688   3.408   6.448
    7AU     LIG 2501   2.486   3.276   6.075
    7AU     LIG 2502   2.768   3.099   5.801
    7AU     LIG 2503   3.209   2.996   5.817
    7AU       S 2504   2.004   3.309   8.690
    7AU     LIG 2505   1.703   3.034   8.775
    7AU     LIG 2506   1.609   2.790   9.119
    7AU     LIG 2507   1.572   2.791   9.573
    7AU       S 2508   1.916   3.922   8.155
    7AU     LIG 2509   1.909   4.204   8.427
    7AU     LIG 2510   1.598   4.118   8.745
    7AU     LIG 2511   1.233   3.971   9.001
    7AU       S 2512   1.845   2.698   8.429
    7AU     LIG 2513   1.421   2.669   8.263
    7AU     LIG 2514   1.109   2.348   8.410
    7AU     LIG 2515   0.827   2.045   8.681
    7AU       S 2516   2.195   3.030   8.585
    7AU     LIG 2517   2.125   2.783   8.953
    7AU     LIG 2518   2.026   2.602   9.359
    7AU     LIG 2519   2.047   2.774   9.792
    7AU       S 2520   2.003   2.795   6.443
    7AU     LIG 2521   1.806   2.703   6.042
    7AU     LIG 2522   1.822   2.987   5.680
    7AU     LIG 2523   1.651   3.367   5.457
    7AU       S 2524   1.975   2.385   6.853
    7AU     LIG 2525   1.969   2.028   6.641
    7AU     LIG 2526   1.744   2.084   6.252
    7AU     LIG 2527   1.513   2.205   5.867
    7AU       S 2528   1.661   3.495   6.720
    7AU     LIG 2529   1.358   3.772   6.886
    7AU     LIG 2530   1.394   4.195   6.712
    7AU     LIG 2531   1.323   4.373   6.273
    7AU       S 2532   2.175   3.173   6.446
    7AU     LIG 2533   1.899   3.273   6.149
    7AU     LIG 2534   2.068   3.435   5.768
    7AU     LIG 2535   2.475   3.469   5.564
    7AU       S 2536   3.444   3.768   6.792
    7AU     LIG 2537   3.598   3.955   6.389
    7AU     LIG 2538   3.903   4.201   6.129
    7AU     LIG 2539   4.184   4.500   5.880
    7AU       S 2540   3.494   3.834   7.598
    7AU     LIG 2541   3.804   4.089   7.424
    7AU     LIG 2542   4.207   4.120   7.662
    7AU     LIG 2543   4.660   4.247   7.597
    7AU       S 2544   3.787   3.484   7.591
    7AU     LIG 2545   4.166   3.470   7.413
    7AU     LIG 2546   4.493   3.761   7.444
    7AU     LIG 2547   4.788   3.972   7.178
    7AU       S 2548   3.748   2.590   7.768
    7AU     LIG 2549   3.970   2.382   8.072
    7AU     LIG 2550   4.366   2.222   7.994
    7AU     LIG 2551   4.626   2.478   7.718
    7AU       S 2552   3.398   3.896   8.092
    7AU     LIG 2553   3.791   4.090   8.194
    7AU     LIG 2554   3.889   4.466   8.475
    7AU     LIG 2555   3.904   4.768   8.868
    7AU       S 2556   3.773   3.666   7.680
    7AU     LIG 2557   4.076   3.682   7.972
    7AU     LIG 2558   4.514   3.771   7.962
    7AU     LIG 2559   4.746   4.138   8.089
    7AU       S 2560   1.841   3.752   8.097
    7AU     LIG 2561   1.629   3.621   8.449
    7AU     LIG 2562   1.221   3.822   8.521
    7AU     LIG 2563   0.810   3.978   8.675
    7AU       S 2564   1.932   4.079   7.365
    7AU     LIG 2565   1.639   4.375   7.391
    7AU     LIG 2566   1.299   4.502   7.146
    7AU     LIG 2567   0.908   4.330   6.996
    7AU       S 2568   1.453   3.216   7.055
    7AU     LIG 2569   1.002   3.241   7.161
    7AU     LIG 2570   0.558   3.387   7.099
    7AU     LIG 2571   0.360   3.781   6.961
    7AU       S 2572   1.829   3.922   6.884
    7AU     LIG 2573   1.940   4.279   6.648
    7AU     LIG 2574   1.639   4.631   6.579
    7AU     LIG 2575   1.158   4.664   6.670
    7AU       S 2576   1.448   2.856   7.651
    7AU     LIG 2577   1.062   2.836   7.467
    7AU     LIG 2578   0.643   2.854   7.311
    7AU     LIG 2579   0.198   2.817   7.155
    7AU       S 2580   1.536   3.377   7.997
    7AU     LIG 2581   1.173   3.385   8.263
    7AU     LIG 2582   0.795   3.665   8.263
    7AU     LIG 2583   0.723   4.005   7.956
    7AU       S 2584   3.441   2.449   7.651
    7AU     LIG 2585   3.544   2.067   7.506
    7AU     LIG 2586   4.005   2.045   7.637
    7AU     LIG 2587   4.471   2.044   7.492
    7AU       S 2588   3.347   2.359   8.126
    7AU     LIG 2589   3.623   2.038   8.002
    7AU     LIG 2590   3.870   1.910   8.359
    7AU     LIG 2591   3.927   1.488   8.581
    7AU       S 2592   3.724   2.529   7.601
    7AU     LIG 2593   3.850   2.393   7.254
    7AU     LIG 2594   4.257   2.472   7.326
    7AU     LIG 2595   4.675   2.522   7.193
    7AU       S 2596   3.465   2.451   6.925
    7AU     LIG 2597   3.391   2.054   6.820
    7AU     LIG 2598   3.212   1.673   6.915
    7AU     LIG 2599   3.217   1.275   6.698
    7AU       S 2600   1.848   2.475   6.896
    7AU     LIG 2601   1.563   2.633   6.646
    7AU     LIG 2602   1.346   2.412   6.321
    7AU     LIG 2603   1.231   1.960   6.251
    7AU       S 2604   1.470   2.604   7.669
    7AU     LIG 2605   1.132   2.467   7.883
    7AU     LIG 2606   0.748   2.467   7.677
    7AU     LIG 2607   0.423   2.383   7.376
    7AU       S 2608   1.870   2.485   8.372
    7AU     LIG 2609   1.682   2.209   8.089
    7AU     LIG 2610   1.292   1.996   8.096
    7AU     LIG 2611   0.886   1.811   8.207
    7AU       S 2612   1.480   2.908   7.819
    7AU     LIG 2613   1.068   2.995   7.955
    7AU     LIG 2614   0.645   2.929   7.852
    7AU     LIG 2615   0.341   2.577   7.980
    7AU       S 2616   2.074   4.108   7.834
    7AU     LIG 2617   1.698   4.288   7.898
    7AU     LIG 2618   1.410   4.214   8.246
    7AU     LIG 2619   1.155   4.367   8.614
    7AU       S 2620   2.621   4.290   7.870
    7AU     LIG 2621   2.680   4.420   8.280
    7AU     LIG 2622   2.434   4.756   8.495
    7AU     LIG 2623   2.441   5.222   8.598
    7AU       S 2624   2.749   4.455   7.755
    7AU     LIG 2625   2.423   4.744   7.940
    7AU     LIG 2626   2.403   5.175   7.868
    7AU     LIG 2627   2.709   5.501   7.995
    7AU       S 2628   2.635   4.254   7.031
    7AU     LIG 2629   2.599   4.628   7.278
    7AU     LIG 2630   2.780   5.034   7.290
    7AU     LIG 2631   3.081   5.267   7.023
    7AU       S 2632   3.139   3.865   8.348
    7AU     LIG 2633   3.370   4.252   8.453
    7AU     LIG 2634   3.552   4.370   8.852
    7AU     LIG 2635   3.652   4.067   9.192
    7AU       S 2636   2.917   4.269   7.529
    7AU     LIG 2637   3.092   4.700   7.519
    7AU     LIG 2638   2.887   4.999   7.796
    7AU     LIG 2639   2.754   5.042   8.223
    7AU       S 2640   2.528   2.010   8.103
    7AU     LIG 2641   2.838   1.733   8.248
    7AU     LIG 2642   2.923   1.307   8.428
    7AU     LIG 2643   2.843   0.880   8.603
    7AU       S 2644   3.109   2.309   7.983
    7AU     LIG 2645   3.157   1.888   7.871
    7AU     LIG 2646   3.421   1.521   7.984
    7AU     LIG 2647   3.907   1.541   8.036
    7AU       S 2648   2.359   1.950   7.960
    7AU     LIG 2649   2.216   1.636   7.782
    7AU     LIG 2650   2.382   1.244   7.930
    7AU     LIG 2651   2.437   1.062   8.335
    7AU       S 2652   2.132   2.566   8.510
    7AU     LIG 2653   1.840   2.368   8.840
    7AU     LIG 2654   1.520   2.104   8.603
    7AU     LIG 2655   1.223   1.719   8.586
    7AU       S 2656   2.784   1.988   7.315
    7AU     LIG 2657   2.509   1.596   7.230
    7AU     LIG 2658   2.445   1.161   7.037
    7AU     LIG 2659   2.391   0.724   6.906
    7AU       S 2660   2.686   2.054   7.874
    7AU     LIG 2661   2.714   1.672   7.705
    7AU     LIG 2662   2.914   1.362   7.905
    7AU     LIG 2663   2.897   0.943   8.066
    7AU       S 2664   2.490   4.153   6.756
    7AU     LIG 2665   2.407   4.615   6.770
    7AU     LIG 2666   2.687   4.957   6.796
    7AU     LIG 2667   3.056   5.035   6.562
    7AU       S 2668   3.278   3.973   7.126
    7AU     LIG 2669   3.501   4.347   7.057
    7AU     LIG 2670   3.722   4.544   6.697
    7AU     LIG 2671   3.932   4.964   6.640
    7AU       S 2672   2.292   4.161   7.010
    7AU     LIG 2673   2.020   4.521   7.078
    7AU     LIG 2674   2.193   4.934   7.167
    7AU     LIG 2675   2.425   5.318   7.044
    7AU       S 2676   1.870   3.544   6.622
    7AU     LIG 2677   1.754   3.893   6.366
    7AU     LIG 2678   1.822   4.306   6.147
    7AU     LIG 2679   1.659   4.726   6.034
    7AU       S 2680   1.909   2.299   7.171
    7AU     LIG 2681   1.486   2.227   7.126
    7AU     LIG 2682   1.454   2.068   6.712
    7AU     LIG 2683   1.601   1.655   6.520
    7AU       S 2684   2.780   2.009   7.176
    7AU     LIG 2685   2.730   1.831   6.807
    7AU     LIG 2686   2.716   1.399   6.667
    7AU     LIG 2687   2.434   1.048   6.508
    7AU       S 2688   3.045   2.112   7.426
    7AU     LIG 2689   3.139   1.648   7.425
    7AU     LIG 2690   2.937   1.304   7.171
    7AU     LIG 2691   2.880   0.918   6.894
    7AU       S 2692   3.227   2.574   6.686
    7AU     LIG 2693   2.997   2.214   6.542
    7AU     LIG 2694   3.086   1.751   6.429
    7AU     LIG 2695   3.326   1.469   6.121
    8AU     AUC 2696  37.130  11.508   7.531
    8AU     AUC 2697  37.389  11.511   7.367
    8AU     AUC 2698  37.373  11.512   7.703
    8AU     AUC 2699  36.860  11.493   7.372
    8AU     AUC 2700  36.878  11.548   7.697
    8AU     AUC 2701  36.966  11.765   7.491
    8AU     AUC 2702  37.306  11.778   7.501
    8AU     AUC 2703  36.961  11.247   7.557
    8AU     AUC 2704  37.295  11.240   7.555
    8AU     AUC 2705  37.126  11.364   7.810
    8AU     AUC 2706  37.132  11.707   7.771
    8AU     AUC 2707  37.133  11.319   7.283
    8AU     AUC 2708  37.143  11.631   7.258
    8AU     AUC 2709  37.707  11.516   7.213
    8AU     AUC 2710  37.694  11.500   7.553
    8AU     AUC 2711  37.652  11.498   7.908
    8AU     AUC 2712  36.560  11.448   7.231
    8AU     AUC 2713  36.557  11.532   7.556
    8AU     AUC 2714  36.583  11.597   7.875
    8AU     AUC 2715  36.800  12.061   7.426
    8AU     AUC 2716  37.158  12.058   7.417
    8AU     AUC 2717  37.494  12.054   7.459
    8AU     AUC 2718  36.775  10.960   7.580
    8AU     AUC 2719  37.122  10.944   7.563
    8AU     AUC 2720  37.473  10.948   7.570
    8AU     AUC 2721  37.101  11.210   8.115
    8AU     AUC 2722  37.113  11.562   8.095
    8AU     AUC 2723  37.158  11.920   8.049
    8AU     AUC 2724  37.173  11.127   7.006
    8AU     AUC 2725  37.121  11.453   6.956
    8AU     AUC 2726  37.106  11.769   6.944
    8AU     AUC 2727  37.368  11.332   8.021
    8AU     AUC 2728  37.408  11.691   7.994
    8AU     AUC 2729  37.443  11.340   7.076
    8AU     AUC 2730  37.407  11.653   7.084
    8AU     AUC 2731  36.836  11.427   8.011
    8AU     AUC 2732  36.867  11.780   7.954
    8AU     AUC 2733  36.856  11.270   7.112
    8AU     AUC 2734  36.814  11.579   7.063
    8AU     AUC 2735  37.624  11.785   7.351
    8AU     AUC 2736  37.565  11.779   7.696
    8AU     AUC 2737  36.664  11.765   7.351
    8AU     AUC 2738  36.703  11.858   7.677
    8AU     AUC 2739  37.600  11.232   7.400
    8AU     AUC 2740  37.551  11.204   7.747
    8AU     AUC 2741  36.669  11.187   7.409
    8AU     AUC 2742  36.693  11.275   7.741
    8AU     AUC 2743  37.009  12.014   7.744
    8AU     AUC 2744  37.329  11.986   7.769
    8AU     AUC 2745  36.946  11.084   7.847
    8AU     AUC 2746  37.258  11.038   7.834
    8AU     AUC 2747  36.939  11.914   7.178
    8AU     AUC 2748  37.301  11.949   7.195
    8AU     AUC 2749  36.980  11.025   7.282
    8AU     AUC 2750  37.351  11.071   7.283
    8AU    AUSL 2751  37.617  11.443   8.307
    8AU    AUSL 2752  37.388  11.056   8.232
    8AU     AUL 2753  37.698  11.096   8.413
    8AU    AUSL 2754  37.208  11.381   8.439
    8AU    AUSL 2755  36.966  11.774   8.419
    8AU     AUL 2756  37.192  11.680   8.713
    8AU    AUSL 2757  37.306  11.735   8.188
    8AU    AUSL 2758  37.745  11.801   8.121
    8AU     AUL 2759  37.577  11.757   8.454
    8AU    AUSL 2760  37.573  11.535   6.881
    8AU    AUSL 2761  37.420  11.921   6.972
    8AU     AUL 2762  37.618  11.855   6.682
    8AU    AUSL 2763  37.402  11.247   6.623
    8AU    AUSL 2764  37.882  11.282   7.001
    8AU     AUL 2765  37.776  11.400   6.653
    8AU    AUSL 2766  37.203  11.655   6.706
    8AU    AUSL 2767  37.027  11.261   6.815
    8AU     AUL 2768  37.136  11.305   6.487
    8AU    AUSL 2769  36.584  11.720   8.210
    8AU    AUSL 2770  36.911  12.034   8.090
    8AU     AUL 2771  36.742  12.017   8.416
    8AU    AUSL 2772  36.880  11.419   8.187
    8AU    AUSL 2773  36.470  11.294   8.148
    8AU     AUL 2774  36.399  11.516   8.294
    8AU    AUSL 2775  36.600  11.254   6.819
    8AU    AUSL 2776  36.837  10.935   7.000
    8AU     AUL 2777  36.883  10.953   6.669
    8AU    AUSL 2778  36.784  11.604   6.662
    8AU    AUSL 2779  36.485  11.618   7.021
    8AU     AUL 2780  36.371  11.456   6.759
    8AU    AUSL 2781  37.892  11.997   7.504
    8AU    AUSL 2782  37.831  11.791   7.096
    8AU     AUL 2783  38.170  12.007   7.202
    8AU    AUSL 2784  38.074  11.611   7.398
    8AU    AUSL 2785  38.038  11.309   7.764
    8AU     AUL 2786  38.346  11.375   7.542
    8AU    AUSL 2787  37.799  11.648   7.734
    8AU    AUSL 2788  37.597  12.044   7.794
    8AU     AUL 2789  37.961  11.857   7.897
    8AU    AUSL 2790  36.546  12.123   7.467
    8AU    AUSL 2791  36.577  11.918   7.841
    8AU     AUL 2792  36.257  12.146   7.664
    8AU    AUSL 2793  36.377  11.726   7.410
    8AU    AUSL 2794  36.512  12.040   7.061
    8AU     AUL 2795  36.257  11.957   7.209
    8AU    AUSL 2796  36.222  11.712   7.824
    8AU    AUSL 2797  36.209  11.342   7.402
    8AU     AUL 2798  36.027  11.676   7.521
    8AU    AUSL 2799  37.810  10.962   7.631
    8AU    AUSL 2800  37.657  11.240   7.943
    8AU     AUL 2801  37.962  11.153   8.017
    8AU    AUSL 2802  37.782  11.316   7.403
    8AU    AUSL 2803  37.776  10.906   7.209
    8AU     AUL 2804  38.037  11.123   7.288
    8AU    AUSL 2805  36.396  10.986   7.604
    8AU    AUSL 2806  36.551  11.180   7.224
    8AU     AUL 2807  36.183  11.054   7.290
    8AU    AUSL 2808  36.466  11.388   7.741
    8AU    AUSL 2809  36.696  11.031   7.899
    8AU     AUL 2810  36.379  11.030   7.950
    8AU    AUSL 2811  37.185  12.300   7.903
    8AU    AUSL 2812  36.740  12.313   7.799
    8AU     AUL 2813  36.953  12.373   8.167
    8AU    AUSL 2814  37.026  12.201   7.521
    8AU    AUSL 2815  37.268  12.314   7.178
    8AU     AUL 2816  37.003  12.554   7.453
    8AU    AUSL 2817  37.444  12.353   7.560
    8AU    AUSL 2818  37.446  12.127   8.181
    8AU     AUL 2819  37.552  12.376   7.907
    8AU    AUSL 2820  37.083  10.863   8.003
    8AU    AUSL 2821  37.503  10.839   7.885
    8AU     AUL 2822  37.263  10.761   8.265
    8AU    AUSL 2823  36.789  10.660   7.736
    8AU    AUSL 2824  36.853  11.029   8.310
    8AU     AUL 2825  36.756  10.729   8.087
    8AU    AUSL 2826  37.222  10.589   7.704
    8AU    AUSL 2827  37.004  10.800   7.395
    8AU     AUL 2828  36.910  10.441   7.504
    8AU    AUSL 2829  37.109  12.137   6.798
    8AU    AUSL 2830  37.661  12.178   7.208
    8AU     AUL 2831  37.439  12.262   6.863
    8AU    AUSL 2832  36.854  12.259   7.142
    8AU    AUSL 2833  36.877  11.840   6.985
    8AU     AUL 2834  36.789  12.104   6.775
    8AU    AUSL 2835  37.219  10.754   7.022
    8AU    AUSL 2836  36.600  10.756   7.315
    8AU     AUL 2837  36.890  10.598   7.070
    8AU    AUSL 2838  37.428  10.806   7.410
    8AU    AUSL 2839  37.453  11.105   7.011
    8AU     AUL 2840  37.536  10.742   7.024
    8AU       S 2841  37.709  10.642   8.279
    8AU     LIG 2842  37.886  10.210   8.302
    8AU     LIG 2843  37.874   9.746   8.271
    8AU     LIG 2844  38.154   9.364   8.341
    8AU       S 2845  37.565  11.376   8.754
    8AU     LIG 2846  37.935  11.584   8.782
    8AU     LIG 2847  38.078  11.630   9.220
    8AU     LIG 2848  38.029  11.466   9.661
    8AU       S 2849  37.220  11.207   8.650
    8AU     LIG 2850  37.226  11.261   9.102
    8AU     LIG 2851  37.607  11.255   9.402
    8AU     LIG 2852  37.829  10.988   9.742
    8AU       S 2853  36.751  11.576   8.641
    8AU     LIG 2854  36.825  11.594   9.092
    8AU     LIG 2855  36.515  11.396   9.374
    8AU     LIG 2856  36.280  11.458   9.781
    8AU       S 2857  37.211  12.138   8.568
    8AU     LIG 2858  37.484  12.456   8.734
    8AU     LIG 2859  37.904  12.344   8.857
    8AU     LIG 2860  38.204  12.022   8.875
    8AU       S 2861  37.916  12.061   8.322
    8AU     LIG 2862  38.327  12.034   8.372
    8AU     LIG 2863  38.522  12.358   8.621
    8AU     LIG 2864  38.763  12.705   8.838
    8AU       S 2865  37.473  11.635   6.316
    8AU     LIG 2866  37.929  11.727   6.285
    8AU     LIG 2867  38.095  11.385   6.032
    8AU     LIG 2868  37.963  10.958   5.853
    8AU       S 2869  37.894  12.209   6.807
    8AU     LIG 2870  37.868  12.518   6.520
    8AU     LIG 2871  38.147  12.651   6.169
    8AU     LIG 2872  38.554  12.861   6.062
    8AU       S 2873  38.057  11.053   6.811
    8AU     LIG 2874  38.110  10.990   6.354
    8AU     LIG 2875  37.983  10.578   6.226
    8AU     LIG 2876  38.005  10.152   6.433
    8AU       S 2877  37.502  11.470   6.272
    8AU     LIG 2878  37.541  11.077   6.144
    8AU     LIG 2879  37.422  10.933   5.726
    8AU     LIG 2880  37.378  11.156   5.304
    8AU       S 2881  36.705  11.263   6.347
    8AU     LIG 2882  36.954  11.107   6.027
    8AU     LIG 2883  36.939  11.099   5.568
    8AU     LIG 2884  36.837  11.227   5.135
    8AU       S 2885  37.219  11.768   6.438
    8AU     LIG 2886  37.020  11.620   6.063
    8AU     LIG 2887  37.282  11.423   5.787
    8AU     LIG 2888  37.705  11.373   5.691
    8AU       S 2889  36.548  11.691   8.691
    8AU     LIG 2890  36.255  11.408   8.775
    8AU     LIG 2891  36.204  11.080   9.051
    8AU     LIG 2892  36.124  11.041   9.507
    8AU       S 2893  36.476  12.312   8.171
    8AU     LIG 2894  36.197  12.497   8.456
    8AU     LIG 2895  35.951  12.465   8.852
    8AU     LIG 2896  35.632  12.751   9.037
    8AU       S 2897  36.390  11.069   8.442
    8AU     LIG 2898  35.994  11.228   8.322
    8AU     LIG 2899  35.757  10.906   8.205
    8AU     LIG 2900  35.771  10.579   8.521
    8AU       S 2901  36.746  11.400   8.592
    8AU     LIG 2902  36.719  11.129   8.942
    8AU     LIG 2903  36.609  10.888   9.316
    8AU     LIG 2904  36.577  11.022   9.756
    8AU       S 2905  36.535  11.172   6.437
    8AU     LIG 2906  36.376  11.179   5.993
    8AU     LIG 2907  36.500  11.360   5.609
    8AU     LIG 2908  36.475  11.605   5.238
    8AU       S 2909  36.496  10.757   6.845
    8AU     LIG 2910  36.287  10.374   6.737
    8AU     LIG 2911  36.082  10.181   6.396
    8AU     LIG 2912  35.763   9.973   6.117
    8AU       S 2913  36.178  11.876   6.735
    8AU     LIG 2914  35.900  12.252   6.808
    8AU     LIG 2915  36.026  12.606   6.531
    8AU     LIG 2916  35.980  12.702   6.078
    8AU       S 2917  36.724  11.548   6.450
    8AU     LIG 2918  36.485  11.696   6.145
    8AU     LIG 2919  36.631  11.831   5.739
    8AU     LIG 2920  36.943  11.629   5.457
    8AU       S 2921  38.010  12.059   6.786
    8AU     LIG 2922  38.229  12.168   6.411
    8AU     LIG 2923  38.585  12.364   6.222
    8AU     LIG 2924  38.928  12.630   6.328
    8AU       S 2925  38.061  12.213   7.610
    8AU     LIG 2926  38.438  12.406   7.430
    8AU     LIG 2927  38.827  12.229   7.569
    8AU     LIG 2928  39.154  12.426   7.843
    8AU       S 2929  38.329  11.834   7.605
    8AU     LIG 2930  38.648  11.774   7.330
    8AU     LIG 2931  39.093  11.888   7.289
    8AU     LIG 2932  39.137  12.336   7.173
    8AU       S 2933  38.289  10.951   7.766
    8AU     LIG 2934  38.632  10.716   7.943
    8AU     LIG 2935  39.073  10.623   7.913
    8AU     LIG 2936  39.365  10.873   7.716
    8AU       S 2937  37.944  12.263   8.111
    8AU     LIG 2938  38.352  12.460   8.088
    8AU     LIG 2939  38.529  12.807   8.355
    8AU     LIG 2940  38.575  13.154   8.667
    8AU       S 2941  38.328  12.005   7.689
    8AU     LIG 2942  38.667  11.962   7.967
    8AU     LIG 2943  39.108  11.896   7.862
    8AU     LIG 2944  39.498  12.046   8.035
    8AU       S 2945  36.394  12.123   8.100
    8AU     LIG 2946  36.168  11.977   8.437
    8AU     LIG 2947  35.761  12.210   8.448
    8AU     LIG 2948  35.433  12.443   8.664
    8AU       S 2949  36.489  12.442   7.374
    8AU     LIG 2950  36.320  12.781   7.392
    8AU     LIG 2951  36.082  12.674   7.078
    8AU     LIG 2952  35.670  12.599   7.176
    8AU       S 2953  35.997  11.574   7.062
    8AU     LIG 2954  35.561  11.692   7.135
    8AU     LIG 2955  35.296  12.062   7.027
    8AU     LIG 2956  35.312  12.511   6.838
    8AU       S 2957  36.382  12.293   6.883
    8AU     LIG 2958  36.480  12.711   6.739
    8AU     LIG 2959  36.256  13.095   6.828
    8AU     LIG 2960  35.930  13.439   6.790
    8AU       S 2961  35.991  11.236   7.692
    8AU     LIG 2962  35.695  11.258   7.396
    8AU     LIG 2963  35.288  11.226   7.235
    8AU     LIG 2964  34.911  10.971   7.118
    8AU       S 2965  36.091  11.745   7.999
    8AU     LIG 2966  35.729  11.730   8.252
    8AU     LIG 2967  35.336  11.999   8.213
    8AU     LIG 2968  35.248  12.395   7.967
    8AU       S 2969  37.971  10.805   7.646
    8AU     LIG 2970  38.113  10.421   7.454
    8AU     LIG 2971  38.578  10.393   7.541
    8AU     LIG 2972  39.030  10.480   7.413
    8AU       S 2973  37.878  10.726   8.134
    8AU     LIG 2974  38.176  10.479   7.956
    8AU     LIG 2975  38.435  10.205   8.126
    8AU     LIG 2976  38.321   9.922   8.475
    8AU       S 2977  38.257  10.876   7.596
    8AU     LIG 2978  38.536  10.884   7.310
    8AU     LIG 2979  38.963  10.991   7.375
    8AU     LIG 2980  39.296  10.850   7.129
    8AU       S 2981  37.996  10.796   6.932
    8AU     LIG 2982  37.865  10.369   6.977
    8AU     LIG 2983  37.784   9.941   6.835
    8AU     LIG 2984  37.796   9.646   6.445
    8AU       S 2985  36.353  10.873   6.907
    8AU     LIG 2986  36.009  10.788   6.628
    8AU     LIG 2987  35.664  10.473   6.505
    8AU     LIG 2988  35.373  10.084   6.551
    8AU       S 2989  35.983  10.982   7.720
    8AU     LIG 2990  35.565  10.855   7.728
    8AU     LIG 2991  35.342  10.732   7.371
    8AU     LIG 2992  35.335  10.393   7.050
    8AU       S 2993  36.402  10.846   8.369
    8AU     LIG 2994  36.242  10.573   8.036
    8AU     LIG 2995  35.836  10.429   8.043
    8AU     LIG 2996  35.625  10.117   8.337
    8AU       S 2997  36.015  11.282   7.837
    8AU     LIG 2998  35.582  11.330   7.969
    8AU     LIG 2999  35.202  11.104   8.001
    8AU     LIG 3000  34.976  11.075   7.619
    8AU       S 3001  36.619  12.484   7.844
    8AU     LIG 3002  36.198  12.618   7.879
    8AU     LIG 3003  35.814  12.642   8.130
    8AU     LIG 3004  35.778  12.827   8.543
    8AU       S 3005  37.180  12.653   7.868
    8AU     LIG 3006  37.388  12.677   8.263
    8AU     LIG 3007  37.376  13.120   8.307
    8AU     LIG 3008  36.997  13.343   8.160
    8AU       S 3009  37.310  12.817   7.751
    8AU     LIG 3010  36.927  13.062   7.637
    8AU     LIG 3011  36.833  13.508   7.666
    8AU     LIG 3012  36.905  13.822   8.005
    8AU       S 3013  37.176  12.614   7.021
    8AU     LIG 3014  37.229  12.998   7.232
    8AU     LIG 3015  37.292  13.442   7.329
    8AU     LIG 3016  37.383  13.830   7.105
    8AU       S 3017  37.684  12.236   8.342
    8AU     LIG 3018  37.942  12.629   8.438
    8AU     LIG 3019  38.227  12.749   8.783
    8AU     LIG 3020  38.369  12.477   9.128
    8AU       S 3021  37.467  12.639   7.523
    8AU     LIG 3022  37.636  13.093   7.529
    8AU     LIG 3023  37.388  13.351   7.822
    8AU     LIG 3024  37.397  13.687   8.153
    8AU       S 3025  37.078  10.368   8.097
    8AU     LIG 3026  37.393  10.006   8.157
    8AU     LIG 3027  37.337   9.623   8.418
    8AU     LIG 3028  37.107   9.392   8.752
    8AU       S 3029  37.642  10.686   7.989
    8AU     LIG 3030  37.704  10.306   7.841
    8AU     LIG 3031  37.994   9.996   7.834
    8AU     LIG 3032  38.332   9.722   7.989
    8AU       S 3033  36.877  10.304   7.945
    8AU     LIG 3034  36.796   9.949   7.732
    8AU     LIG 3035  37.028   9.646   7.965
    8AU     LIG 3036  36.875   9.381   8.295
    8AU       S 3037  36.662  10.945   8.493
    8AU     LIG 3038  36.471  10.685   8.833
    8AU     LIG 3039  36.157  10.357   8.774
    8AU     LIG 3040  35.736  10.182   8.869
    8AU       S 3041  37.318  10.362   7.303
    8AU     LIG 3042  36.993  10.004   7.251
    8AU     LIG 3043  36.993   9.798   6.870
    8AU     LIG 3044  36.983   9.397   6.676
    8AU       S 3045  37.219  10.411   7.874
    8AU     LIG 3046  37.290  10.041   7.664
    8AU     LIG 3047  37.557   9.723   7.714
    8AU     LIG 3048  37.561   9.433   8.012
    8AU       S 3049  37.038  12.514   6.747
    8AU     LIG 3050  37.020  13.001   6.741
    8AU     LIG 3051  37.290  13.400   6.796
    8AU     LIG 3052  37.343  13.847   6.576
    8AU       S 3053  37.850  12.331   7.089
    8AU     LIG 3054  38.282  12.490   6.932
    8AU     LIG 3055  38.457  12.741   6.579
    8AU     LIG 3056  38.445  13.195   6.432
    8AU       S 3057  36.846  12.518   7.006
    8AU     LIG 3058  36.733  12.915   7.155
    8AU     LIG 3059  36.847  13.356   7.104
    8AU     LIG 3060  36.901  13.722   6.801
    8AU       S 3061  36.404  11.917   6.628
    8AU     LIG 3062  36.521  12.209   6.354
    8AU     LIG 3063  36.479  12.628   6.218
    8AU     LIG 3064  36.327  13.032   6.327
    8AU       S 3065  36.425  10.678   7.146
    8AU     LIG 3066  35.993  10.553   7.120
    8AU     LIG 3067  35.797  10.173   6.890
    8AU     LIG 3068  35.811   9.814   6.609
    8AU       S 3069  37.302  10.377   7.169
    8AU     LIG 3070  37.385  10.274   6.780
    8AU     LIG 3071  37.364   9.929   6.488
    8AU     LIG 3072  37.196   9.584   6.235
    8AU       S 3073  37.577  10.488   7.412
    8AU     LIG 3074  37.730  10.074   7.372
    8AU     LIG 3075  37.453   9.788   7.198
    8AU     LIG 3076  37.452   9.558   6.819
    8AU       S 3077  37.774  10.931   6.692
    8AU     LIG 3078  37.417  10.743   6.532
    8AU     LIG 3079  37.511  10.371   6.273
    8AU     LIG 3080  37.679   9.978   6.065
    9AU     AUC 3081  13.121  35.086   7.530
    9AU     AUC 3082  13.386  35.080   7.374
    9AU     AUC 3083  13.358  35.085   7.708
    9AU     AUC 3084  12.854  35.074   7.361
    9AU     AUC 3085  12.863  35.132   7.687
    9AU     AUC 3086  12.963  35.343   7.483
    9AU     AUC 3087  13.305  35.351   7.504
    9AU     AUC 3088  12.944  34.830   7.553
    9AU     AUC 3089  13.279  34.813   7.561
    9AU     AUC 3090  13.105  34.945   7.810
    9AU     AUC 3091  13.121  35.287   7.770
    9AU     AUC 3092  13.129  34.895   7.283
    9AU     AUC 3093  13.146  35.209   7.254
    9AU     AUC 3094  13.709  35.075   7.227
    9AU     AUC 3095  13.683  35.060   7.563
    9AU     AUC 3096  13.630  35.064   7.917
    9AU     AUC 3097  12.559  35.033   7.207
    9AU     AUC 3098  12.546  35.120   7.534
    9AU     AUC 3099  12.559  35.189   7.855
    9AU     AUC 3100  12.802  35.644   7.413
    9AU     AUC 3101  13.163  35.635   7.419
    9AU     AUC 3102  13.499  35.623   7.473
    9AU     AUC 3103  12.751  34.549   7.574
    9AU     AUC 3104  13.099  34.523   7.567
    9AU     AUC 3105  13.452  34.516   7.587
    9AU     AUC 3106  13.070  34.795   8.115
    9AU     AUC 3107  13.088  35.147   8.091
    9AU     AUC 3108  13.144  35.504   8.046
    9AU     AUC 3109  13.176  34.700   7.014
    9AU     AUC 3110  13.131  35.028   6.955
    9AU     AUC 3111  13.125  35.350   6.940
    9AU     AUC 3112  13.341  34.911   8.029
    9AU     AUC 3113  13.397  35.271   7.994
    9AU     AUC 3114  13.444  34.905   7.087
    9AU     AUC 3115  13.417  35.231   7.087
    9AU     AUC 3116  12.810  35.017   8.002
    9AU     AUC 3117  12.849  35.366   7.943
    9AU     AUC 3118  12.855  34.852   7.105
    9AU     AUC 3119  12.823  35.159   7.048
    9AU     AUC 3120  13.624  35.348   7.353
    9AU     AUC 3121  13.566  35.349   7.699
    9AU     AUC 3122  12.665  35.350   7.329
    9AU     AUC 3123  12.693  35.445   7.657
    9AU     AUC 3124  13.588  34.794   7.414
    9AU     AUC 3125  13.528  34.772   7.762
    9AU     AUC 3126  12.652  34.777   7.398
    9AU     AUC 3127  12.668  34.864   7.731
    9AU     AUC 3128  13.002  35.594   7.740
    9AU     AUC 3129  13.332  35.562   7.774
    9AU     AUC 3130  12.918  34.669   7.845
    9AU     AUC 3131  13.231  34.616   7.843
    9AU     AUC 3132  12.949  35.494   7.171
    9AU     AUC 3133  13.308  35.519   7.197
    9AU     AUC 3134  12.965  34.607   7.284
    9AU     AUC 3135  13.339  34.638   7.293
    9AU    AUSL 3136  13.581  35.019   8.320
    9AU    AUSL 3137  13.356  34.631   8.249
    9AU     AUL 3138  13.665  34.677   8.438
    9AU    AUSL 3139  13.165  34.965   8.430
    9AU    AUSL 3140  12.932  35.359   8.405
    9AU     AUL 3141  13.160  35.282   8.687
    9AU    AUSL 3142  13.287  35.322   8.192
    9AU    AUSL 3143  13.735  35.356   8.116
    9AU     AUL 3144  13.571  35.336   8.459
    9AU    AUSL 3145  13.583  35.099   6.910
    9AU    AUSL 3146  13.459  35.507   6.945
    9AU     AUL 3147  13.686  35.418   6.684
    9AU    AUSL 3148  13.425  34.819   6.635
    9AU    AUSL 3149  13.881  34.830   7.023
    9AU     AUL 3150  13.797  34.956   6.682
    9AU    AUSL 3151  13.230  35.229   6.709
    9AU    AUSL 3152  13.044  34.834   6.813
    9AU     AUL 3153  13.161  34.876   6.489
    9AU    AUSL 3154  12.550  35.311   8.191
    9AU    AUSL 3155  12.883  35.621   8.080
    9AU     AUL 3156  12.705  35.607   8.403
    9AU    AUSL 3157  12.838  35.004   8.176
    9AU    AUSL 3158  12.429  34.882   8.130
    9AU     AUL 3159  12.342  35.115   8.259
    9AU    AUSL 3160  12.619  34.837   6.802
    9AU    AUSL 3161  12.836  34.522   7.004
    9AU     AUL 3162  12.906  34.520   6.674
    9AU    AUSL 3163  12.814  35.180   6.643
    9AU    AUSL 3164  12.496  35.206   6.982
    9AU     AUL 3165  12.391  35.026   6.722
    9AU    AUSL 3166  13.926  35.548   7.514
    9AU    AUSL 3167  13.843  35.361   7.110
    9AU     AUL 3168  14.191  35.524   7.166
    9AU    AUSL 3169  14.071  35.152   7.404
    9AU    AUSL 3170  14.016  34.867   7.792
    9AU     AUL 3171  14.314  34.934   7.589
    9AU    AUSL 3172  13.785  35.205   7.730
    9AU    AUSL 3173  13.617  35.616   7.786
    9AU     AUL 3174  13.979  35.376   7.888
    9AU    AUSL 3175  12.539  35.708   7.444
    9AU    AUSL 3176  12.566  35.503   7.818
    9AU     AUL 3177  12.252  35.754   7.627
    9AU    AUSL 3178  12.385  35.309   7.370
    9AU    AUSL 3179  12.528  35.627   7.036
    9AU     AUL 3180  12.265  35.544   7.171
    9AU    AUSL 3181  12.201  35.321   7.767
    9AU    AUSL 3182  12.194  34.937   7.381
    9AU     AUL 3183  12.018  35.271   7.464
    9AU    AUSL 3184  13.792  34.519   7.658
    9AU    AUSL 3185  13.629  34.810   7.960
    9AU     AUL 3186  13.933  34.713   8.041
    9AU    AUSL 3187  13.771  34.868   7.421
    9AU    AUSL 3188  13.760  34.459   7.236
    9AU     AUL 3189  14.025  34.670   7.312
    9AU    AUSL 3190  12.375  34.585   7.589
    9AU    AUSL 3191  12.532  34.769   7.202
    9AU     AUL 3192  12.158  34.629   7.297
    9AU    AUSL 3193  12.445  34.986   7.727
    9AU    AUSL 3194  12.669  34.623   7.892
    9AU     AUL 3195  12.354  34.594   7.917
    9AU    AUSL 3196  13.174  35.878   7.916
    9AU    AUSL 3197  12.731  35.900   7.777
    9AU     AUL 3198  12.913  35.967   8.146
    9AU    AUSL 3199  13.033  35.773   7.525
    9AU    AUSL 3200  13.281  35.900   7.190
    9AU     AUL 3201  13.013  36.126   7.459
    9AU    AUSL 3202  13.440  35.936   7.582
    9AU    AUSL 3203  13.458  35.700   8.171
    9AU     AUL 3204  13.532  35.965   7.928
    9AU    AUSL 3205  13.051  34.454   8.006
    9AU    AUSL 3206  13.472  34.410   7.902
    9AU     AUL 3207  13.220  34.341   8.273
    9AU    AUSL 3208  12.753  34.247   7.737
    9AU    AUSL 3209  12.816  34.617   8.308
    9AU     AUL 3210  12.731  34.312   8.082
    9AU    AUSL 3211  13.184  34.167   7.720
    9AU    AUSL 3212  12.981  34.381   7.403
    9AU     AUL 3213  12.872  34.024   7.510
    9AU    AUSL 3214  13.129  35.720   6.807
    9AU    AUSL 3215  13.649  35.721   7.257
    9AU     AUL 3216  13.446  35.841   6.893
    9AU    AUSL 3217  12.869  35.835   7.143
    9AU    AUSL 3218  12.890  35.417   6.969
    9AU     AUL 3219  12.810  35.695   6.770
    9AU    AUSL 3220  13.205  34.319   7.039
    9AU    AUSL 3221  12.578  34.347   7.305
    9AU     AUL 3222  12.864  34.185   7.074
    9AU    AUSL 3223  13.405  34.374   7.430
    9AU    AUSL 3224  13.450  34.662   7.021
    9AU     AUL 3225  13.527  34.287   7.058
    9AU       S 3226  13.663  34.215   8.310
    9AU     LIG 3227  13.915  33.797   8.357
    9AU     LIG 3228  13.970  33.329   8.332
    9AU     LIG 3229  13.829  33.056   8.664
    9AU       S 3230  13.499  34.955   8.768
    9AU     LIG 3231  13.909  35.055   8.770
    9AU     LIG 3232  14.138  35.096   9.181
    9AU     LIG 3233  14.197  34.960   9.645
    9AU       S 3234  13.160  34.804   8.650
    9AU     LIG 3235  13.170  34.778   9.113
    9AU     LIG 3236  13.555  34.733   9.398
    9AU     LIG 3237  13.868  34.550   9.724
    9AU       S 3238  12.719  35.163   8.623
    9AU     LIG 3239  12.809  35.170   9.063
    9AU     LIG 3240  12.494  35.096   9.385
    9AU     LIG 3241  12.233  35.256   9.731
    9AU       S 3242  13.177  35.737   8.525
    9AU     LIG 3243  13.476  36.062   8.628
    9AU     LIG 3244  13.879  35.885   8.777
    9AU     LIG 3245  14.141  35.520   8.781
    9AU       S 3246  13.934  35.606   8.294
    9AU     LIG 3247  14.287  35.845   8.397
    9AU     LIG 3248  14.370  36.061   8.739
    9AU     LIG 3249  14.611  36.195   9.094
    9AU       S 3250  13.511  35.198   6.330
    9AU     LIG 3251  13.974  35.255   6.270
    9AU     LIG 3252  14.151  34.919   6.020
    9AU     LIG 3253  13.961  34.535   5.808
    9AU       S 3254  13.889  35.846   6.825
    9AU     LIG 3255  14.036  36.160   6.544
    9AU     LIG 3256  14.321  36.272   6.203
    9AU     LIG 3257  14.582  36.487   5.901
    9AU       S 3258  14.040  34.577   6.828
    9AU     LIG 3259  14.030  34.532   6.335
    9AU     LIG 3260  13.954  34.119   6.139
    9AU     LIG 3261  14.106  33.680   6.221
    9AU       S 3262  13.541  35.029   6.293
    9AU     LIG 3263  13.534  34.630   6.153
    9AU     LIG 3264  13.446  34.515   5.717
    9AU     LIG 3265  13.679  34.657   5.351
    9AU       S 3266  12.736  34.822   6.335
    9AU     LIG 3267  12.765  34.876   5.914
    9AU     LIG 3268  12.947  34.717   5.533
    9AU     LIG 3269  12.860  34.735   5.087
    9AU       S 3270  13.273  35.337   6.459
    9AU     LIG 3271  13.060  35.265   6.083
    9AU     LIG 3272  13.267  34.992   5.842
    9AU     LIG 3273  13.701  34.980   5.784
    9AU       S 3274  12.507  35.265   8.662
    9AU     LIG 3275  12.242  34.955   8.797
    9AU     LIG 3276  12.219  34.699   9.169
    9AU     LIG 3277  12.179  34.738   9.631
    9AU       S 3278  12.439  35.878   8.124
    9AU     LIG 3279  12.414  36.038   8.506
    9AU     LIG 3280  12.071  36.099   8.788
    9AU     LIG 3281  11.870  36.115   9.200
    9AU       S 3282  12.341  34.665   8.399
    9AU     LIG 3283  11.924  34.589   8.219
    9AU     LIG 3284  11.769  34.187   8.264
    9AU     LIG 3285  11.661  33.943   8.638
    9AU       S 3286  12.691  34.996   8.566
    9AU     LIG 3287  12.685  34.707   8.928
    9AU     LIG 3288  12.702  34.630   9.386
    9AU     LIG 3289  12.647  34.801   9.828
    9AU       S 3290  12.577  34.733   6.427
    9AU     LIG 3291  12.245  34.767   6.177
    9AU     LIG 3292  12.270  34.930   5.762
    9AU     LIG 3293  12.501  34.992   5.378
    9AU       S 3294  12.490  34.361   6.825
    9AU     LIG 3295  12.274  34.061   6.552
    9AU     LIG 3296  11.958  33.914   6.232
    9AU     LIG 3297  11.505  33.961   6.079
    9AU       S 3298  12.240  35.454   6.683
    9AU     LIG 3299  11.926  35.705   6.747
    9AU     LIG 3300  11.918  36.142   6.669
    9AU     LIG 3301  11.819  36.439   6.316
    9AU       S 3302  12.752  35.112   6.425
    9AU     LIG 3303  12.466  35.236   6.160
    9AU     LIG 3304  12.602  35.344   5.752
    9AU     LIG 3305  12.956  35.233   5.481
    9AU       S 3306  13.934  35.751   6.883
    9AU     LIG 3307  14.237  35.546   6.637
    9AU     LIG 3308  14.494  35.807   6.364
    9AU     LIG 3309  14.607  35.936   5.918
    9AU       S 3310  14.113  35.712   7.589
    9AU     LIG 3311  14.423  35.939   7.479
    9AU     LIG 3312  14.857  35.981   7.603
    9AU     LIG 3313  15.322  35.950   7.648
    9AU       S 3314  14.381  35.391   7.564
    9AU     LIG 3315  14.715  35.578   7.288
    9AU     LIG 3316  15.119  35.791   7.191
    9AU     LIG 3317  15.572  35.888   7.203
    9AU       S 3318  14.270  34.507   7.801
    9AU     LIG 3319  14.651  34.275   7.956
    9AU     LIG 3320  15.108  34.306   7.937
    9AU     LIG 3321  15.391  34.541   7.647
    9AU       S 3322  13.946  35.808   8.042
    9AU     LIG 3323  14.242  36.137   7.963
    9AU     LIG 3324  14.376  36.424   8.319
    9AU     LIG 3325  14.445  36.567   8.753
    9AU       S 3326  14.359  35.485   7.684
    9AU     LIG 3327  14.573  35.718   7.951
    9AU     LIG 3328  15.029  35.632   7.938
    9AU     LIG 3329  15.475  35.552   7.984
    9AU       S 3330  12.379  35.720   8.068
    9AU     LIG 3331  12.169  35.583   8.425
    9AU     LIG 3332  11.772  35.713   8.573
    9AU     LIG 3333  11.556  36.058   8.798
    9AU       S 3334  12.489  36.037   7.334
    9AU     LIG 3335  12.304  36.386   7.445
    9AU     LIG 3336  11.938  36.339   7.199
    9AU     LIG 3337  11.873  35.903   7.208
    9AU       S 3338  12.018  35.161   7.007
    9AU     LIG 3339  11.572  35.172   6.983
    9AU     LIG 3340  11.345  35.313   7.328
    9AU     LIG 3341  11.378  35.753   7.290
    9AU       S 3342  12.392  35.882   6.860
    9AU     LIG 3343  12.343  36.332   6.890
    9AU     LIG 3344  12.001  36.662   6.769
    9AU     LIG 3345  11.659  36.888   6.503
    9AU       S 3346  11.980  34.858   7.679
    9AU     LIG 3347  11.677  34.863   7.355
    9AU     LIG 3348  11.218  34.807   7.275
    9AU     LIG 3349  10.822  34.992   7.093
    9AU       S 3350  12.079  35.375   7.936
    9AU     LIG 3351  11.804  35.295   8.224
    9AU     LIG 3352  11.404  35.510   8.208
    9AU     LIG 3353  10.972  35.472   8.029
    9AU       S 3354  13.953  34.362   7.683
    9AU     LIG 3355  14.070  33.975   7.515
    9AU     LIG 3356  14.470  33.887   7.669
    9AU     LIG 3357  14.851  34.094   7.514
    9AU       S 3358  13.830  34.295   8.173
    9AU     LIG 3359  14.186  34.089   8.047
    9AU     LIG 3360  14.516  33.810   8.203
    9AU     LIG 3361  14.576  33.494   8.564
    9AU       S 3362  14.245  34.435   7.626
    9AU     LIG 3363  14.422  34.269   7.256
    9AU     LIG 3364  14.858  34.278   7.049
    9AU     LIG 3365  15.313  34.304   7.194
    9AU       S 3366  13.984  34.337   6.966
    9AU     LIG 3367  13.929  33.971   6.706
    9AU     LIG 3368  13.873  33.500   6.645
    9AU     LIG 3369  13.894  33.170   6.299
    9AU       S 3370  12.341  34.487   6.901
    9AU     LIG 3371  12.025  34.511   6.611
    9AU     LIG 3372  11.674  34.202   6.541
    9AU     LIG 3373  11.373  33.840   6.556
    9AU       S 3374  11.945  34.686   7.731
    9AU     LIG 3375  11.894  34.318   7.688
    9AU     LIG 3376  11.538  34.372   7.424
    9AU     LIG 3377  11.105  34.332   7.511
    9AU       S 3378  12.371  34.439   8.351
    9AU     LIG 3379  12.245  34.122   8.050
    9AU     LIG 3380  11.952  33.758   8.056
    9AU     LIG 3381  11.886  33.332   8.135
    9AU       S 3382  12.018  34.904   7.843
    9AU     LIG 3383  11.606  35.154   7.776
    9AU     LIG 3384  11.366  34.778   7.764
    9AU     LIG 3385  11.413  34.363   7.937
    9AU       S 3386  12.597  36.087   7.809
    9AU     LIG 3387  12.376  36.358   8.089
    9AU     LIG 3388  11.963  36.237   8.303
    9AU     LIG 3389  11.590  36.502   8.478
    9AU       S 3390  13.179  36.258   7.882
    9AU     LIG 3391  13.461  36.465   8.210
    9AU     LIG 3392  13.376  36.868   8.473
    9AU     LIG 3393  13.017  37.194   8.571
    9AU       S 3394  13.291  36.417   7.724
    9AU     LIG 3395  12.861  36.571   7.656
    9AU     LIG 3396  12.840  36.998   7.706
    9AU     LIG 3397  12.856  37.263   8.062
    9AU       S 3398  13.188  36.207   7.032
    9AU     LIG 3399  13.215  36.610   7.249
    9AU     LIG 3400  13.375  37.033   7.145
    9AU     LIG 3401  13.729  37.290   6.943
    9AU       S 3402  13.731  35.789   8.313
    9AU     LIG 3403  13.895  36.204   8.351
    9AU     LIG 3404  13.965  36.382   8.739
    9AU     LIG 3405  14.080  36.190   9.152
    9AU       S 3406  13.474  36.240   7.548
    9AU     LIG 3407  13.717  36.629   7.778
    9AU     LIG 3408  13.475  36.986   7.995
    9AU     LIG 3409  13.322  37.390   8.214
    9AU       S 3410  13.036  33.947   8.112
    9AU     LIG 3411  13.416  33.732   8.249
    9AU     LIG 3412  13.447  33.275   8.342
    9AU     LIG 3413  13.130  32.938   8.239
    9AU       S 3414  13.603  34.246   8.009
    9AU     LIG 3415  13.749  33.878   7.881
    9AU     LIG 3416  14.116  33.600   7.921
    9AU     LIG 3417  14.450  33.312   8.111
    9AU       S 3418  12.844  33.874   7.950
    9AU     LIG 3419  12.879  33.438   7.800
    9AU     LIG 3420  12.718  33.025   7.902
    9AU     LIG 3421  12.601  32.821   8.295
    9AU       S 3422  12.625  34.542   8.474
    9AU     LIG 3423  12.508  34.224   8.762
    9AU     LIG 3424  12.182  33.967   8.554
    9AU     LIG 3425  12.011  33.551   8.574
    9AU       S 3426  13.292  33.925   7.336
    9AU     LIG 3427  13.142  33.478   7.309
    9AU     LIG 3428  13.092  33.130   7.025
    9AU     LIG 3429  12.973  32.698   7.042
    9AU       S 3430  13.180  33.997   7.882
    9AU     LIG 3431  13.331  33.645   7.749
    9AU     LIG 3432  13.635  33.370   7.880
    9AU     LIG 3433  13.575  32.921   7.967
    9AU       S 3434  13.064  36.098   6.754
    9AU     LIG 3435  13.015  36.558   6.709
    9AU     LIG 3436  13.139  37.033   6.679
    9AU     LIG 3437  13.440  37.355   6.512
    9AU       S 3438  13.841  35.896   7.170
    9AU     LIG 3439  14.229  36.158   7.037
    9AU     LIG 3440  14.517  36.279   6.672
    9AU     LIG 3441  14.672  36.633   6.400
    9AU       S 3442  12.861  36.106   7.003
    9AU     LIG 3443  12.737  36.469   7.174
    9AU     LIG 3444  12.786  36.875   7.016
    9AU     LIG 3445  12.679  37.282   6.793
    9AU       S 3446  12.444  35.504   6.591
    9AU     LIG 3447  12.292  35.889   6.376
    9AU     LIG 3448  12.319  36.361   6.377
    9AU     LIG 3449  12.185  36.814   6.284
    9AU       S 3450  12.394  34.266   7.104
    9AU     LIG 3451  11.976  34.101   6.965
    9AU     LIG 3452  11.837  33.710   6.694
    9AU     LIG 3453  11.628  33.491   6.282
    9AU       S 3454  13.253  33.951   7.199
    9AU     LIG 3455  13.473  33.789   6.872
    9AU     LIG 3456  13.355  33.436   6.586
    9AU     LIG 3457  13.180  32.974   6.518
    9AU       S 3458  13.548  34.042   7.455
    9AU     LIG 3459  13.692  33.618   7.381
    9AU     LIG 3460  13.577  33.322   7.059
    9AU     LIG 3461  13.633  33.041   6.722
    9AU       S 3462  13.761  34.482   6.724
    9AU     LIG 3463  13.416  34.312   6.566
    9AU     LIG 3464  13.528  33.922   6.379
    9AU     LIG 3465  13.613  33.565   6.146
   10AU     AUC 3466   2.638  10.761   7.525
   10AU     AUC 3467   2.898  10.756   7.366
   10AU     AUC 3468   2.878  10.761   7.702
   10AU     AUC 3469   2.370  10.753   7.361
   10AU     AUC 3470   2.383  10.805   7.687
   10AU     AUC 3471   2.479  11.021   7.483
   10AU     AUC 3472   2.819  11.027   7.498
   10AU     AUC 3473   2.464  10.504   7.546
   10AU     AUC 3474   2.798  10.488   7.550
   10AU     AUC 3475   2.627  10.617   7.802
   10AU     AUC 3476   2.642  10.961   7.766
   10AU     AUC 3477   2.642  10.574   7.276
   10AU     AUC 3478   2.657  10.885   7.251
   10AU     AUC 3479   3.213  10.745   7.217
   10AU     AUC 3480   3.200  10.737   7.562
   10AU     AUC 3481   3.158  10.744   7.911
   10AU     AUC 3482   2.072  10.715   7.215
   10AU     AUC 3483   2.065  10.797   7.541
   10AU     AUC 3484   2.087  10.860   7.860
   10AU     AUC 3485   2.318  11.324   7.416
   10AU     AUC 3486   2.677  11.313   7.411
   10AU     AUC 3487   3.011  11.301   7.461
   10AU     AUC 3488   2.273  10.222   7.564
   10AU     AUC 3489   2.623  10.198   7.549
   10AU     AUC 3490   2.974  10.189   7.568
   10AU     AUC 3491   2.595  10.461   8.105
   10AU     AUC 3492   2.615  10.816   8.087
   10AU     AUC 3493   2.670  11.173   8.042
   10AU     AUC 3494   2.684  10.387   7.000
   10AU     AUC 3495   2.642  10.710   6.948
   10AU     AUC 3496   2.628  11.026   6.936
   10AU     AUC 3497   2.864  10.582   8.019
   10AU     AUC 3498   2.920  10.945   7.988
   10AU     AUC 3499   2.959  10.595   7.069
   10AU     AUC 3500   2.919  10.898   7.073
   10AU     AUC 3501   2.335  10.682   7.998
   10AU     AUC 3502   2.375  11.036   7.946
   10AU     AUC 3503   2.365  10.532   7.100
   10AU     AUC 3504   2.329  10.841   7.052
   10AU     AUC 3505   3.126  11.024   7.355
   10AU     AUC 3506   3.083  11.025   7.693
   10AU     AUC 3507   2.177  11.029   7.340
   10AU     AUC 3508   2.217  11.121   7.665
   10AU     AUC 3509   3.106  10.475   7.410
   10AU     AUC 3510   3.046  10.444   7.753
   10AU     AUC 3511   2.171  10.452   7.394
   10AU     AUC 3512   2.191  10.536   7.726
   10AU     AUC 3513   2.525  11.269   7.738
   10AU     AUC 3514   2.848  11.237   7.765
   10AU     AUC 3515   2.440  10.340   7.833
   10AU     AUC 3516   2.751  10.285   7.826
   10AU     AUC 3517   2.458  11.171   7.170
   10AU     AUC 3518   2.817  11.196   7.189
   10AU     AUC 3519   2.483  10.287   7.270
   10AU     AUC 3520   2.859  10.325   7.279
   10AU    AUSL 3521   3.115  10.689   8.306
   10AU    AUSL 3522   2.874  10.297   8.232
   10AU     AUL 3523   3.171  10.332   8.422
   10AU    AUSL 3524   2.703  10.633   8.426
   10AU    AUSL 3525   2.466  11.025   8.406
   10AU     AUL 3526   2.697  10.942   8.690
   10AU    AUSL 3527   2.816  10.990   8.186
   10AU    AUSL 3528   3.261  11.039   8.112
   10AU     AUL 3529   3.099  11.003   8.450
   10AU    AUSL 3530   3.117  10.790   6.832
   10AU    AUSL 3531   2.959  11.176   6.941
   10AU     AUL 3532   3.242  11.119   6.707
   10AU    AUSL 3533   2.915  10.482   6.619
   10AU    AUSL 3534   3.396  10.534   7.017
   10AU     AUL 3535   3.309  10.622   6.648
   10AU    AUSL 3536   2.728  10.907   6.703
   10AU    AUSL 3537   2.542  10.520   6.809
   10AU     AUL 3538   2.651  10.581   6.480
   10AU    AUSL 3539   2.084  10.979   8.193
   10AU    AUSL 3540   2.418  11.293   8.084
   10AU     AUL 3541   2.245  11.272   8.408
   10AU    AUSL 3542   2.372  10.670   8.175
   10AU    AUSL 3543   1.961  10.553   8.129
   10AU     AUL 3544   1.886  10.775   8.272
   10AU    AUSL 3545   2.114  10.523   6.803
   10AU    AUSL 3546   2.339  10.197   6.986
   10AU     AUL 3547   2.401  10.216   6.657
   10AU    AUSL 3548   2.307  10.868   6.648
   10AU    AUSL 3549   1.999  10.885   7.005
   10AU     AUL 3550   1.884  10.723   6.748
   10AU    AUSL 3551   3.433  11.229   7.495
   10AU    AUSL 3552   3.284  10.990   7.160
   10AU     AUL 3553   3.577  11.089   7.051
   10AU    AUSL 3554   3.594  10.831   7.408
   10AU    AUSL 3555   3.530  10.543   7.792
   10AU     AUL 3556   3.821  10.639   7.637
   10AU    AUSL 3557   3.308  10.888   7.727
   10AU    AUSL 3558   3.130  11.294   7.778
   10AU     AUL 3559   3.497  11.102   7.865
   10AU    AUSL 3560   2.064  11.391   7.454
   10AU    AUSL 3561   2.093  11.182   7.826
   10AU     AUL 3562   1.781  11.423   7.646
   10AU    AUSL 3563   1.892  10.996   7.393
   10AU    AUSL 3564   2.033  11.306   7.048
   10AU     AUL 3565   1.777  11.229   7.191
   10AU    AUSL 3566   1.731  10.989   7.804
   10AU    AUSL 3567   1.715  10.618   7.377
   10AU     AUL 3568   1.538  10.958   7.499
   10AU    AUSL 3569   3.311  10.197   7.641
   10AU    AUSL 3570   3.142  10.480   7.945
   10AU     AUL 3571   3.445  10.384   8.036
   10AU    AUSL 3572   3.286  10.553   7.417
   10AU    AUSL 3573   3.286  10.153   7.216
   10AU     AUL 3574   3.549  10.370   7.311
   10AU    AUSL 3575   1.889  10.257   7.582
   10AU    AUSL 3576   2.057  10.447   7.207
   10AU     AUL 3577   1.687  10.325   7.262
   10AU    AUSL 3578   1.965  10.656   7.724
   10AU    AUSL 3579   2.187  10.289   7.881
   10AU     AUL 3580   1.869  10.287   7.923
   10AU    AUSL 3581   2.702  11.548   7.903
   10AU    AUSL 3582   2.263  11.576   7.786
   10AU     AUL 3583   2.464  11.632   8.161
   10AU    AUSL 3584   2.549  11.454   7.515
   10AU    AUSL 3585   2.792  11.574   7.174
   10AU     AUL 3586   2.537  11.808   7.439
   10AU    AUSL 3587   2.959  11.615   7.564
   10AU    AUSL 3588   2.975  11.374   8.167
   10AU     AUL 3589   3.076  11.627   7.900
   10AU    AUSL 3590   2.574  10.119   7.986
   10AU    AUSL 3591   2.995  10.078   7.885
   10AU     AUL 3592   2.745  10.001   8.252
   10AU    AUSL 3593   2.282   9.919   7.716
   10AU    AUSL 3594   2.341  10.279   8.294
   10AU     AUL 3595   2.259   9.980   8.067
   10AU    AUSL 3596   2.714   9.840   7.690
   10AU    AUSL 3597   2.505  10.060   7.378
   10AU     AUL 3598   2.408   9.713   7.491
   10AU    AUSL 3599   2.632  11.390   6.797
   10AU    AUSL 3600   3.162  11.401   7.232
   10AU     AUL 3601   2.963  11.502   6.866
   10AU    AUSL 3602   2.377  11.517   7.135
   10AU    AUSL 3603   2.395  11.097   6.977
   10AU     AUL 3604   2.312  11.365   6.767
   10AU    AUSL 3605   2.725  10.029   7.003
   10AU    AUSL 3606   2.099  10.022   7.301
   10AU     AUL 3607   2.390   9.868   7.054
   10AU    AUSL 3608   2.929  10.051   7.397
   10AU    AUSL 3609   2.975  10.369   7.014
   10AU     AUL 3610   3.047  10.012   7.002
   10AU       S 3611   3.190   9.880   8.281
   10AU     LIG 3612   3.313   9.429   8.294
   10AU     LIG 3613   3.341   9.088   8.623
   10AU     LIG 3614   3.650   8.744   8.724
   10AU       S 3615   3.054  10.629   8.755
   10AU     LIG 3616   3.488  10.653   8.675
   10AU     LIG 3617   3.713  10.706   9.073
   10AU     LIG 3618   3.554  10.699   9.521
   10AU       S 3619   2.705  10.468   8.642
   10AU     LIG 3620   2.719  10.439   9.091
   10AU     LIG 3621   3.072  10.447   9.402
   10AU     LIG 3622   3.329  10.293   9.755
   10AU       S 3623   2.256  10.827   8.621
   10AU     LIG 3624   2.355  10.812   9.049
   10AU     LIG 3625   1.973  10.692   9.228
   10AU     LIG 3626   1.687  10.826   9.573
   10AU       S 3627   2.718  11.395   8.541
   10AU     LIG 3628   3.016  11.707   8.714
   10AU     LIG 3629   3.462  11.581   8.746
   10AU     LIG 3630   3.561  11.146   8.775
   10AU       S 3631   3.439  11.295   8.292
   10AU     LIG 3632   3.838  11.203   8.346
   10AU     LIG 3633   3.988  11.486   8.681
   10AU     LIG 3634   4.303  11.807   8.816
   10AU       S 3635   3.041  10.902   6.350
   10AU     LIG 3636   3.461  10.973   6.269
   10AU     LIG 3637   3.555  10.571   6.158
   10AU     LIG 3638   3.286  10.207   6.155
   10AU       S 3639   3.411  11.532   6.847
   10AU     LIG 3640   3.260  11.818   6.562
   10AU     LIG 3641   3.423  11.935   6.148
   10AU     LIG 3642   3.752  12.030   5.848
   10AU       S 3643   3.613  10.308   6.844
   10AU     LIG 3644   3.746  10.174   6.427
   10AU     LIG 3645   3.647   9.804   6.193
   10AU     LIG 3646   3.805   9.379   6.255
   10AU       S 3647   3.038  10.693   6.266
   10AU     LIG 3648   2.793  10.359   6.055
   10AU     LIG 3649   2.863  10.199   5.614
   10AU     LIG 3650   3.183  10.143   5.257
   10AU       S 3651   2.224  10.518   6.331
   10AU     LIG 3652   2.265  10.601   5.925
   10AU     LIG 3653   2.386  10.403   5.555
   10AU     LIG 3654   2.357  10.458   5.106
   10AU       S 3655   2.825  11.022   6.471
   10AU     LIG 3656   2.585  10.951   6.111
   10AU     LIG 3657   2.753  10.756   5.752
   10AU     LIG 3658   3.184  10.577   5.770
   10AU       S 3659   2.048  10.938   8.672
   10AU     LIG 3660   1.741  10.673   8.741
   10AU     LIG 3661   1.712  10.313   8.948
   10AU     LIG 3662   1.597  10.351   9.381
   10AU       S 3663   1.990  11.565   8.146
   10AU     LIG 3664   1.970  11.705   8.517
   10AU     LIG 3665   1.614  11.691   8.771
   10AU     LIG 3666   1.210  11.676   8.992
   10AU       S 3667   1.873  10.324   8.415
   10AU     LIG 3668   1.471  10.353   8.252
   10AU     LIG 3669   1.268   9.970   8.089
   10AU     LIG 3670   1.069   9.557   8.259
   10AU       S 3671   2.234  10.650   8.569
   10AU     LIG 3672   2.232  10.347   8.905
   10AU     LIG 3673   2.084  10.179   9.294
   10AU     LIG 3674   2.028  10.433   9.666
   10AU       S 3675   2.069  10.454   6.433
   10AU     LIG 3676   1.847  10.127   6.298
   10AU     LIG 3677   1.829  10.264   5.851
   10AU     LIG 3678   1.902  10.617   5.542
   10AU       S 3679   2.004  10.033   6.828
   10AU     LIG 3680   1.971   9.632   6.657
   10AU     LIG 3681   1.750   9.595   6.258
   10AU     LIG 3682   1.491   9.873   5.998
   10AU       S 3683   1.714  11.147   6.711
   10AU     LIG 3684   1.425  11.458   6.841
   10AU     LIG 3685   1.424  11.795   6.542
   10AU     LIG 3686   1.471  11.863   6.086
   10AU       S 3687   2.238  10.816   6.434
   10AU     LIG 3688   1.922  10.917   6.181
   10AU     LIG 3689   2.020  11.062   5.771
   10AU     LIG 3690   2.333  10.912   5.473
   10AU       S 3691   3.527  11.523   6.971
   10AU     LIG 3692   3.734  11.293   6.586
   10AU     LIG 3693   3.799  11.556   6.214
   10AU     LIG 3694   4.152  11.830   6.101
   10AU       S 3695   3.635  11.335   7.472
   10AU     LIG 3696   3.929  11.538   7.267
   10AU     LIG 3697   4.323  11.512   7.475
   10AU     LIG 3698   4.722  11.673   7.535
   10AU       S 3699   3.871  11.060   7.419
   10AU     LIG 3700   4.240  11.123   7.166
   10AU     LIG 3701   4.668  11.367   7.099
   10AU     LIG 3702   5.118  11.527   6.983
   10AU       S 3703   3.781  10.180   7.798
   10AU     LIG 3704   4.086   9.883   7.922
   10AU     LIG 3705   4.495   9.911   8.032
   10AU     LIG 3706   4.882  10.096   7.966
   10AU       S 3707   3.469  11.499   8.097
   10AU     LIG 3708   3.813  11.709   8.250
   10AU     LIG 3709   3.984  12.053   8.493
   10AU     LIG 3710   4.069  12.304   8.880
   10AU       S 3711   3.879  11.147   7.631
   10AU     LIG 3712   4.138  11.320   7.919
   10AU     LIG 3713   4.595  11.328   7.904
   10AU     LIG 3714   4.905  10.991   7.948
   10AU       S 3715   1.913  11.393   8.084
   10AU     LIG 3716   1.684  11.256   8.431
   10AU     LIG 3717   1.251  11.402   8.537
   10AU     LIG 3718   0.830  11.581   8.644
   10AU       S 3719   2.005  11.729   7.350
   10AU     LIG 3720   1.737  12.115   7.378
   10AU     LIG 3721   1.310  12.202   7.186
   10AU     LIG 3722   1.062  11.988   6.842
   10AU       S 3723   1.507  10.859   7.039
   10AU     LIG 3724   1.057  10.941   7.075
   10AU     LIG 3725   0.808  11.288   7.197
   10AU     LIG 3726   0.851  11.725   7.241
   10AU       S 3727   1.907  11.565   6.872
   10AU     LIG 3728   1.777  11.992   6.887
   10AU     LIG 3729   1.467  12.280   6.701
   10AU     LIG 3730   1.164  12.228   6.355
   10AU       S 3731   1.486  10.519   7.654
   10AU     LIG 3732   1.192  10.514   7.323
   10AU     LIG 3733   0.734  10.502   7.200
   10AU     LIG 3734   0.260  10.494   7.115
   10AU       S 3735   1.602  11.033   7.976
   10AU     LIG 3736   1.238  10.998   8.204
   10AU     LIG 3737   0.853  11.272   8.212
   10AU     LIG 3738   0.873  11.728   8.150
   10AU       S 3739   3.478  10.051   7.665
   10AU     LIG 3740   3.535   9.709   7.438
   10AU     LIG 3741   3.958   9.558   7.549
   10AU     LIG 3742   4.293   9.403   7.856
   10AU       S 3743   3.366   9.952   8.137
   10AU     LIG 3744   3.638   9.639   7.951
   10AU     LIG 3745   3.852   9.328   8.208
   10AU     LIG 3746   3.823   9.255   8.674
   10AU       S 3747   3.770  10.135   7.621
   10AU     LIG 3748   3.934   9.994   7.262
   10AU     LIG 3749   4.385   9.969   7.163
   10AU     LIG 3750   4.650  10.252   6.919
   10AU       S 3751   3.518  10.042   6.964
   10AU     LIG 3752   3.576   9.682   6.711
   10AU     LIG 3753   3.568   9.219   6.691
   10AU     LIG 3754   3.531   8.936   6.328
   10AU       S 3755   1.871  10.137   6.889
   10AU     LIG 3756   1.533  10.224   6.718
   10AU     LIG 3757   1.371   9.859   6.505
   10AU     LIG 3758   1.208   9.493   6.253
   10AU       S 3759   1.471  10.283   7.691
   10AU     LIG 3760   1.049  10.140   7.646
   10AU     LIG 3761   0.877   9.987   7.259
   10AU     LIG 3762   0.519  10.065   6.981
   10AU       S 3763   1.890  10.079   8.329
   10AU     LIG 3764   1.798   9.798   7.933
   10AU     LIG 3765   1.472   9.472   7.949
   10AU     LIG 3766   1.487   9.224   8.332
   10AU       S 3767   1.522  10.567   7.814
   10AU     LIG 3768   1.086  10.574   7.946
   10AU     LIG 3769   0.676  10.455   7.828
   10AU     LIG 3770   0.498  10.182   7.527
   10AU       S 3771   2.159  11.744   7.817
   10AU     LIG 3772   1.775  11.906   7.861
   10AU     LIG 3773   1.509  11.745   8.222
   10AU     LIG 3774   1.202  11.925   8.524
   10AU       S 3775   2.715  11.913   7.880
   10AU     LIG 3776   2.906  12.272   8.145
   10AU     LIG 3777   2.678  12.619   8.376
   10AU     LIG 3778   2.451  12.998   8.532
   10AU       S 3779   2.594  12.046   7.842
   10AU     LIG 3780   2.339  12.242   8.070
   10AU     LIG 3781   2.396  12.647   7.947
   10AU     LIG 3782   2.288  13.043   8.054
   10AU       S 3783   2.703  11.871   7.002
   10AU     LIG 3784   2.714  12.273   7.200
   10AU     LIG 3785   2.839  12.726   7.198
   10AU     LIG 3786   3.027  13.100   7.022
   10AU       S 3787   3.204  11.470   8.326
   10AU     LIG 3788   3.331  11.911   8.358
   10AU     LIG 3789   3.540  12.092   8.733
   10AU     LIG 3790   3.820  11.865   9.021
   10AU       S 3791   2.923  11.989   7.634
   10AU     LIG 3792   2.821  12.453   7.663
   10AU     LIG 3793   2.902  12.781   7.951
   10AU     LIG 3794   2.936  13.106   8.277
   10AU       S 3795   2.564   9.606   8.081
   10AU     LIG 3796   2.887   9.213   8.099
   10AU     LIG 3797   2.989   8.807   8.359
   10AU     LIG 3798   2.691   8.545   8.644
   10AU       S 3799   3.131   9.913   7.988
   10AU     LIG 3800   3.171   9.536   7.791
   10AU     LIG 3801   3.330   9.114   7.809
   10AU     LIG 3802   3.512   8.934   8.181
   10AU       S 3803   2.351   9.547   7.920
   10AU     LIG 3804   2.414   9.126   7.962
   10AU     LIG 3805   2.453   8.882   8.312
   10AU     LIG 3806   2.356   8.447   8.228
   10AU       S 3807   2.125  10.197   8.461
   10AU     LIG 3808   1.969   9.880   8.784
   10AU     LIG 3809   1.769   9.431   8.766
   10AU     LIG 3810   1.602   8.988   8.761
   10AU       S 3811   2.787   9.629   7.252
   10AU     LIG 3812   2.395   9.356   7.134
   10AU     LIG 3813   2.481   8.936   6.992
   10AU     LIG 3814   2.817   8.688   7.146
   10AU       S 3815   2.698   9.658   7.873
   10AU     LIG 3816   2.709   9.324   7.610
   10AU     LIG 3817   2.812   8.954   7.618
   10AU     LIG 3818   2.731   8.679   7.948
   10AU       S 3819   2.575  11.763   6.736
   10AU     LIG 3820   2.581  12.230   6.663
   10AU     LIG 3821   2.843  12.624   6.688
   10AU     LIG 3822   2.990  13.038   6.515
   10AU       S 3823   3.326  11.610   7.175
   10AU     LIG 3824   3.543  12.011   6.961
   10AU     LIG 3825   3.768  12.014   6.533
   10AU     LIG 3826   3.988  12.311   6.224
   10AU       S 3827   2.370  11.781   6.990
   10AU     LIG 3828   2.242  12.174   7.046
   10AU     LIG 3829   2.396  12.622   6.941
   10AU     LIG 3830   2.555  13.034   6.837
   10AU       S 3831   1.929  11.188   6.611
   10AU     LIG 3832   1.852  11.554   6.367
   10AU     LIG 3833   1.873  12.020   6.385
   10AU     LIG 3834   1.727  12.431   6.291
   10AU       S 3835   1.924   9.933   7.132
   10AU     LIG 3836   1.575   9.707   6.973
   10AU     LIG 3837   1.508   9.366   6.659
   10AU     LIG 3838   1.551   9.111   6.247
   10AU       S 3839   2.804   9.634   7.087
   10AU     LIG 3840   3.116   9.456   6.841
   10AU     LIG 3841   3.082   9.065   6.588
   10AU     LIG 3842   3.017   8.618   6.674
   10AU       S 3843   3.028   9.722   7.363
   10AU     LIG 3844   3.148   9.279   7.337
   10AU     LIG 3845   3.259   8.949   7.048
   10AU     LIG 3846   3.554   8.698   6.796
   10AU       S 3847   3.349  10.167   6.707
   10AU     LIG 3848   3.131   9.862   6.511
   10AU     LIG 3849   3.279   9.463   6.321
   10AU     LIG 3850   3.437   9.275   5.918
   11POPC   NC3 3851  27.929  21.362   9.502
   11POPC   PO4 3852  28.570  21.156   9.571
   11POPC   GL1 3853  28.369  21.257   9.184
   11POPC   GL2 3854  28.290  21.614   9.198
   11POPC   C1A 3855  28.348  21.217   8.724
   11POPC   D2A 3856  28.563  21.375   8.329
   11POPC   C3A 3857  28.570  21.166   7.918
   11POPC   C4A 3858  28.276  21.143   7.575
   11POPC   C1B 3859  28.190  21.718   8.772
   11POPC   C2B 3860  28.057  21.487   8.406
   11POPC   C3B 3861  28.066  21.360   7.993
   11POPC   C4B 3862  28.074  21.645   7.665
   12POPC   NC3 3863   6.236  26.792   9.483
   12POPC   PO4 3864   5.606  27.085   9.533
   12POPC   GL1 3865   5.779  26.942   9.157
   12POPC   GL2 3866   6.033  27.200   9.163
   12POPC   C1A 3867   5.724  26.706   8.756
   12POPC   D2A 3868   5.787  26.528   8.334
   12POPC   C3A 3869   5.574  26.667   7.946
   12POPC   C4A 3870   5.794  26.630   7.525
   12POPC   C1B 3871   6.039  27.132   8.714
   12POPC   C2B 3872   5.985  26.984   8.280
   12POPC   C3B 3873   5.931  27.017   7.856
   12POPC   C4B 3874   6.251  26.873   7.606
   13POPC   NC3 3875   2.293  36.590   9.486
   13POPC   PO4 3876   3.061  36.827   9.511
   13POPC   GL1 3877   2.901  36.957   9.111
   13POPC   GL2 3878   2.589  36.839   9.152
   13POPC   C1A 3879   2.729  37.139   8.735
   13POPC   D2A 3880   2.656  36.941   8.396
   13POPC   C3A 3881   2.722  37.101   8.023
   13POPC   C4A 3882   2.953  36.778   7.827
   13POPC   C1B 3883   2.416  36.672   8.814
   13POPC   C2B 3884   2.302  36.577   8.412
   13POPC   C3B 3885   2.502  36.610   8.018
   13POPC   C4B 3886   2.485  36.864   7.610
   14POPC   NC3 3887   9.276   8.828   9.580
   14POPC   PO4 3888   8.668   9.082   9.491
   14POPC   GL1 3889   8.837   9.106   9.123
   14POPC   GL2 3890   9.066   8.833   9.120
   14POPC   C1A 3891   8.930   9.306   8.738
   14POPC   D2A 3892   8.806   9.124   8.352
   14POPC   C3A 3893   8.837   9.222   7.932
   14POPC   C4A 3894   8.723   8.918   7.638
   14POPC   C1B 3895   8.977   8.780   8.720
   14POPC   C2B 3896   9.236   8.825   8.369
   14POPC   C3B 3897   9.134   8.798   7.937
   14POPC   C4B 3898   9.301   8.674   7.545
   15POPC   NC3 3899  35.344   5.245   9.425
   15POPC   PO4 3900  35.451   4.569   9.260
   15POPC   GL1 3901  35.319   4.916   9.009
   15POPC   GL2 3902  35.571   5.172   8.977
   15POPC   C1A 3903  35.347   4.999   8.571
   15POPC   D2A 3904  35.650   5.132   8.282
   15POPC   C3A 3905  35.488   4.982   7.904
   15POPC   C4A 3906  35.330   4.545   7.920
   15POPC   C1B 3907  35.501   5.496   8.626
   15POPC   C2B 3908  35.422   5.571   8.182
   15POPC   C3B 3909  35.663   5.488   7.811
   15POPC   C4B 3910  35.546   5.469   7.335
   16POPC   NC3 3911  10.223   5.059   9.472
   16POPC   PO4 3912  10.754   5.404   9.412
   16POPC   GL1 3913  10.574   5.115   9.099
   16POPC   GL2 3914  10.332   5.361   9.041
   16POPC   C1A 3915  10.380   5.041   8.661
   16POPC   D2A 3916  10.032   4.933   8.386
   16POPC   C3A 3917  10.114   5.157   8.010
   16POPC   C4A 3918  10.357   5.041   7.632
   16POPC   C1B 3919  10.773   5.401   8.741
   16POPC   C2B 3920  10.858   5.647   8.351
   16POPC   C3B 3921  10.864   5.479   7.929
   16POPC   C4B 3922  10.712   5.379   7.500
   17POPC   NC3 3923  27.685  33.374   9.793
   17POPC   PO4 3924  27.515  32.785   9.491
   17POPC   GL1 3925  27.553  32.929   9.101
   17POPC   GL2 3926  27.769  33.198   9.088
   17POPC   C1A 3927  27.386  33.032   8.727
   17POPC   D2A 3928  27.481  33.060   8.320
   17POPC   C3A 3929  27.319  32.797   8.015
   17POPC   C4A 3930  27.313  33.024   7.654
   17POPC   C1B 3931  27.877  32.873   8.716
   17POPC   C2B 3932  27.974  32.865   8.261
   17POPC   C3B 3933  27.773  32.985   7.881
   17POPC   C4B 3934  27.794  33.013   7.424
   18POPC   NC3 3935  27.657   5.535   9.547
   18POPC   PO4 3936  27.483   6.186   9.706
   18POPC   GL1 3937  27.642   5.973   9.283
   18POPC   GL2 3938  27.350   5.856   9.153
   18POPC   C1A 3939  27.739   5.739   8.863
   18POPC   D2A 3940  27.805   5.878   8.402
   18POPC   C3A 3941  27.583   6.028   8.024
   18POPC   C4A 3942  27.811   5.876   7.659
   18POPC   C1B 3943  27.225   5.643   8.787
   18POPC   C2B 3944  27.312   5.699   8.335
   18POPC   C3B 3945  27.473   5.545   7.922
   18POPC   C4B 3946  27.513   5.521   7.450
   19POPC   NC3 3947  31.193  38.394   9.346
   19POPC   PO4 3948  31.508  38.840   9.690
   19POPC   GL1 3949  31.503  38.810   9.230
   19POPC   GL2 3950  31.621  38.517   9.105
   19POPC   C1A 3951  31.356  38.757   8.771
   19POPC   D2A 3952  31.592  38.706   8.343
   19POPC   C3A 3953  31.812  38.457   8.029
   19POPC   C4A 3954  31.545  38.685   7.771
   19POPC   C1B 3955  31.797  38.445   8.725
   19POPC   C2B 3956  31.631  38.179   8.398
   19POPC   C3B 3957  31.410  38.087   8.022
   19POPC   C4B 3958  31.339  38.273   7.597
   20POPC   NC3 3959  31.036  32.196   9.644
   20POPC   PO4 3960  31.661  32.357   9.670
   20POPC   GL1 3961  31.458  32.172   9.333
   20POPC   GL2 3962  31.274  32.432   9.265
   20POPC   C1A 3963  31.438  32.043   8.913
   20POPC   D2A 3964  31.623  32.020   8.482
   20POPC   C3A 3965  31.403  32.160   8.117
   20POPC   C4A 3966  31.575  32.107   7.707
   20POPC   C1B 3967  31.613  32.518   8.983
   20POPC   C2B 3968  31.697  32.541   8.548
   20POPC   C3B 3969  31.591  32.661   8.149
   20POPC   C4B 3970  31.415  32.602   7.790
   21POPC   NC3 3971  25.412  29.447   9.486
   21POPC   PO4 3972  25.060  30.073   9.479
   21POPC   GL1 3973  25.243  29.961   9.079
   21POPC   GL2 3974  25.559  29.782   9.124
   21POPC   C1A 3975  25.412  30.051   8.695
   21POPC   D2A 3976  25.493  29.789   8.370
   21POPC   C3A 3977  25.448  30.079   8.111
   21POPC   C4A 3978  25.040  30.109   7.862
   21POPC   C1B 3979  25.364  29.544   8.795
   21POPC   C2B 3980  25.126  29.385   8.467
   21POPC   C3B 3981  25.085  29.637   8.118
   21POPC   C4B 3982  25.398  29.718   7.785
   22POPC   NC3 3983  14.514   3.378   9.452
   22POPC   PO4 3984  14.507   4.043   9.491
   22POPC   GL1 3985  14.368   3.771   9.135
   22POPC   GL2 3986  14.099   3.490   9.135
   22POPC   C1A 3987  14.510   3.516   8.764
   22POPC   D2A 3988  14.702   3.421   8.354
   22POPC   C3A 3989  14.542   3.391   7.924
   22POPC   C4A 3990  14.419   3.548   7.498
   22POPC   C1B 3991  14.157   3.155   8.851
   22POPC   C2B 3992  14.321   3.085   8.466
   22POPC   C3B 3993  14.126   2.985   8.100
   22POPC   C4B 3994  14.171   3.136   7.699
   23POPC   NC3 3995   3.062  14.803   9.492
   23POPC   PO4 3996   2.883  14.160   9.396
   23POPC   GL1 3997   2.801  14.354   9.016
   23POPC   GL2 3998   2.906  14.687   9.030
   23POPC   C1A 3999   3.015  14.405   8.616
   23POPC   D2A 4000   3.011  14.167   8.255
   23POPC   C3A 4001   2.845  14.374   7.911
   23POPC   C4A 4002   3.072  14.620   7.628
   23POPC   C1B 4003   2.617  14.720   8.681
   23POPC   C2B 4004   2.394  14.511   8.303
   23POPC   C3B 4005   2.385  14.604   7.851
   23POPC   C4B 4006   2.543  14.552   7.418
   24POPC   NC3 4007  27.549  29.961   9.585
   24POPC   PO4 4008  27.100  30.339   9.265
   24POPC   GL1 4009  27.312  30.018   9.073
   24POPC   GL2 4010  27.641  29.851   9.094
   24POPC   C1A 4011  27.369  29.979   8.652
   24POPC   D2A 4012  27.505  30.163   8.275
   24POPC   C3A 4013  27.345  29.952   7.931
   24POPC   C4A 4014  27.445  29.652   7.611
   24POPC   C1B 4015  27.837  29.801   8.688
   24POPC   C2B 4016  27.683  29.709   8.273
   24POPC   C3B 4017  27.848  29.848   7.866
   24POPC   C4B 4018  27.942  29.544   7.517
   25POPC   NC3 4019  31.753  37.571   9.443
   25POPC   PO4 4020  31.574  38.167   9.449
   25POPC   GL1 4021  31.471  37.868   9.129
   25POPC   GL2 4022  31.492  38.079   8.894
   25POPC   C1A 4023  31.318  37.458   8.922
   25POPC   D2A 4024  31.172  37.332   8.484
   25POPC   C3A 4025  31.197  37.595   8.083
   25POPC   C4A 4026  31.332  37.427   7.638
   25POPC   C1B 4027  31.339  37.817   8.575
   25POPC   C2B 4028  31.632  37.571   8.343
   25POPC   C3B 4029  31.702  37.663   7.893
   25POPC   C4B 4030  31.811  38.063   7.675
   26POPC   NC3 4031  40.133  35.855   9.304
   26POPC   PO4 4032  40.153  36.454   9.633
   26POPC   GL1 4033  40.157  36.393   9.192
   26POPC   GL2 4034  39.821  36.280   9.160
   26POPC   C1A 4035  40.154  36.227   8.754
   26POPC   D2A 4036  40.316  36.149   8.326
   26POPC   C3A 4037  40.062  36.266   7.955
   26POPC   C4A 4038  39.890  35.937   7.706
   26POPC   C1B 4039  39.650  36.125   8.793
   26POPC   C2B 4040  39.781  35.995   8.402
   26POPC   C3B 4041  39.573  36.097   8.051
   26POPC   C4B 4042  39.565  36.309   7.667
   27POPC   NC3 4043  10.924  13.128   9.583
   27POPC   PO4 4044  10.389  12.748   9.548
   27POPC   GL1 4045  10.570  12.926   9.199
   27POPC   GL2 4046  10.910  12.837   9.154
   27POPC   C1A 4047  10.438  12.734   8.819
   27POPC   D2A 4048  10.150  12.676   8.502
   27POPC   C3A 4049  10.298  12.541   8.090
   27POPC   C4A 4050  10.274  12.891   7.814
   27POPC   C1B 4051  10.818  13.059   8.755
   27POPC   C2B 4052  10.586  12.974   8.359
   27POPC   C3B 4053  10.746  12.997   7.941
   27POPC   C4B 4054  10.892  12.638   7.740
   28POPC   NC3 4055  38.318  33.929   9.491
   28POPC   PO4 4056  38.942  33.844   9.409
   28POPC   GL1 4057  38.643  33.684   9.104
   28POPC   GL2 4058  38.357  33.907   8.992
   28POPC   C1A 4059  38.600  33.667   8.634
   28POPC   D2A 4060  38.426  33.917   8.281
   28POPC   C3A 4061  38.414  33.636   7.919
   28POPC   C4A 4062  38.667  33.586   7.566
   28POPC   C1B 4063  38.052  33.853   8.657
   28POPC   C2B 4064  37.891  33.918   8.243
   28POPC   C3B 4065  38.016  33.929   7.822
   28POPC   C4B 4066  38.349  33.981   7.499
   29POPC   NC3 4067   4.750  26.452   9.873
   29POPC   PO4 4068   4.191  26.286   9.499
   29POPC   GL1 4069   4.258  26.071   9.163
   29POPC   GL2 4070   4.589  25.945   9.192
   29POPC   C1A 4071   4.059  25.976   8.812
   29POPC   D2A 4072   4.229  25.771   8.483
   29POPC   C3A 4073   3.991  25.830   8.105
   29POPC   C4A 4074   4.051  26.138   7.817
   29POPC   C1B 4075   4.582  26.080   8.730
   29POPC   C2B 4076   4.773  26.124   8.292
   29POPC   C3B 4077   4.544  26.020   7.912
   29POPC   C4B 4078   4.443  25.988   7.466
   30POPC   NC3 4079   7.592   8.601   9.343
   30POPC   PO4 4080   7.178   9.083   9.586
   30POPC   GL1 4081   7.444   9.197   9.213
   30POPC   GL2 4082   7.775   9.029   9.153
   30POPC   C1A 4083   7.496   9.192   8.762
   30POPC   D2A 4084   7.231   8.993   8.449
   30POPC   C3A 4085   7.075   9.233   8.083
   30POPC   C4A 4086   7.109   9.068   7.677
   30POPC   C1B 4087   7.691   8.736   8.749
   30POPC   C2B 4088   7.587   8.584   8.355
   30POPC   C3B 4089   7.354   8.745   8.014
   30POPC   C4B 4090   7.563   8.814   7.650
   31POPC   NC3 4091  38.232  42.819   9.780
   31POPC   PO4 4092  37.677  43.214   9.505
   31POPC   GL1 4093  37.493  43.217   9.125
   31POPC   GL2 4094  37.388  42.868   9.195
   31POPC   C1A 4095  37.739  43.343   8.792
   31POPC   D2A 4096  37.877  43.097   8.461
   31POPC   C3A 4097  37.698  43.254   8.108
   31POPC   C4A 4098  37.667  43.529   7.778
   31POPC   C1B 4099  37.597  42.801   8.792
   31POPC   C2B 4100  37.483  42.779   8.346
   31POPC   C3B 4101  37.643  42.758   7.925
   31POPC   C4B 4102  37.836  43.044   7.637
   32POPC   NC3 4103  23.771  43.500   9.485
   32POPC   PO4 4104  23.433  42.880   9.540
   32POPC   GL1 4105  23.484  42.910   9.111
   32POPC   GL2 4106  23.470  43.276   9.129
   32POPC   C1A 4107  23.670  42.883   8.679
   32POPC   D2A 4108  23.788  43.226   8.419
   32POPC   C3A 4109  23.724  43.237   7.979
   32POPC   C4A 4110  23.820  43.320   7.524
   32POPC   C1B 4111  23.309  43.278   8.729
   32POPC   C2B 4112  23.249  43.081   8.357
   32POPC   C3B 4113  23.156  43.268   7.984
   32POPC   C4B 4114  23.359  43.161   7.616
   33POPC   NC3 4115  24.216   7.786   9.462
   33POPC   PO4 4116  23.561   7.543   9.468
   33POPC   GL1 4117  23.893   7.454   9.157
   33POPC   GL2 4118  23.636   7.207   9.026
   33POPC   C1A 4119  23.924   7.458   8.699
   33POPC   D2A 4120  23.709   7.154   8.423
   33POPC   C3A 4121  23.553   7.276   8.055
   33POPC   C4A 4122  23.719   7.414   7.686
   33POPC   C1B 4123  24.066   7.017   8.909
   33POPC   C2B 4124  24.204   7.054   8.474
   33POPC   C3B 4125  24.080   7.303   8.084
   33POPC   C4B 4126  24.138   7.148   7.682
   34POPC   NC3 4127  39.657   1.729   9.440
   34POPC   PO4 4128  40.299   1.904   9.520
   34POPC   GL1 4129  40.095   2.000   9.168
   34POPC   GL2 4130  39.771   2.209   9.224
   34POPC   C1A 4131  40.213   1.807   8.784
   34POPC   D2A 4132  40.054   1.628   8.430
   34POPC   C3A 4133  40.037   1.866   8.093
   34POPC   C4A 4134  40.235   1.756   7.723
   34POPC   C1B 4135  39.755   2.053   8.797
   34POPC   C2B 4136  40.010   2.223   8.488
   34POPC   C3B 4137  40.034   2.375   8.080
   34POPC   C4B 4138  39.906   2.169   7.701
   35POPC   NC3 4139  16.076  36.127   9.741
   35POPC   PO4 4140  16.698  36.060   9.584
   35POPC   GL1 4141  16.777  36.156   9.185
   35POPC   GL2 4142  16.725  36.501   9.180
   35POPC   C1A 4143  16.931  36.035   8.819
   35POPC   D2A 4144  16.794  35.844   8.469
   35POPC   C3A 4145  17.006  35.881   8.061
   35POPC   C4A 4146  17.048  35.948   7.605
   35POPC   C1B 4147  16.852  36.514   8.726
   35POPC   C2B 4148  16.823  36.360   8.284
   35POPC   C3B 4149  16.633  36.206   7.883
   35POPC   C4B 4150  16.301  36.377   7.612
   36POPC   NC3 4151  16.635  24.957   9.537
   36POPC   PO4 4152  16.859  25.599   9.519
   36POPC   GL1 4153  16.564  25.483   9.194
   36POPC   GL2 4154  16.726  25.173   9.096
   36POPC   C1A 4155  16.554  25.471   8.730
   36POPC   D2A 4156  16.647  25.244   8.369
   36POPC   C3A 4157  16.569  25.490   8.028
   36POPC   C4A 4158  16.972  25.596   7.879
   36POPC   C1B 4159  16.742  24.918   8.757
   36POPC   C2B 4160  16.470  24.749   8.447
   36POPC   C3B 4161  16.316  24.967   8.103
   36POPC   C4B 4162  16.549  25.062   7.748
   37POPC   NC3 4163   0.227  34.964   9.435
   37POPC   PO4 4164   0.870  35.152   9.519
   37POPC   GL1 4165   0.717  35.157   9.104
   37POPC   GL2 4166   0.483  34.916   8.969
   37POPC   C1A 4167   0.648  35.462   8.768
   37POPC   D2A 4168   0.835  35.488   8.347
   37POPC   C3A 4169   0.480  35.586   8.063
   37POPC   C4A 4170   0.460  35.443   7.648
   37POPC   C1B 4171   0.598  34.996   8.551
   37POPC   C2B 4172   0.623  35.031   8.100
   37POPC   C3B 4173   0.252  35.004   7.806
   37POPC   C4B 4174   0.199  35.151   7.345
   38POPC   NC3 4175  31.300  10.004   9.502
   38POPC   PO4 4176  31.531   9.344   9.573
   38POPC   GL1 4177  31.521   9.608   9.206
   38POPC   GL2 4178  31.772   9.898   9.187
   38POPC   C1A 4179  31.156   9.657   8.912
   38POPC   D2A 4180  31.201   9.467   8.525
   38POPC   C3A 4181  31.006   9.570   8.149
   38POPC   C4A 4182  31.135   9.666   7.738
   38POPC   C1B 4183  31.601   9.846   8.743
   38POPC   C2B 4184  31.475   9.859   8.292
   38POPC   C3B 4185  31.649   9.681   7.910
   38POPC   C4B 4186  31.544   9.894   7.540
   39POPC   NC3 4187  12.454  12.176   9.470
   39POPC   PO4 4188  11.880  11.942   9.654
   39POPC   GL1 4189  11.999  12.014   9.255
   39POPC   GL2 4190  12.231  11.743   9.218
   39POPC   C1A 4191  11.998  12.250   8.852
   39POPC   D2A 4192  11.903  12.345   8.436
   39POPC   C3A 4193  11.934  12.098   8.086
   39POPC   C4A 4194  12.076  12.179   7.709
   39POPC   C1B 4195  12.360  11.894   8.871
   39POPC   C2B 4196  12.220  11.940   8.481
   39POPC   C3B 4197  12.443  11.996   8.116
   39POPC   C4B 4198  12.406  11.793   7.733
   40POPC   NC3 4199  13.630  28.094   9.487
   40POPC   PO4 4200  14.196  28.589   9.618
   40POPC   GL1 4201  13.877  28.547   9.230
   40POPC   GL2 4202  13.547  28.427   9.114
   40POPC   C1A 4203  13.898  28.447   8.745
   40POPC   D2A 4204  13.658  28.478   8.361
   40POPC   C3A 4205  13.916  28.428   8.002
   40POPC   C4A 4206  13.829  28.483   7.545
   40POPC   C1B 4207  13.465  28.159   8.716
   40POPC   C2B 4208  13.472  27.993   8.253
   40POPC   C3B 4209  13.551  28.137   7.790
   40POPC   C4B 4210  13.398  28.310   7.359
   41POPC   NC3 4211   6.243   3.169   9.513
   41POPC   PO4 4212   5.716   2.703   9.473
   41POPC   GL1 4213   5.908   2.732   9.107
   41POPC   GL2 4214   5.687   2.436   9.033
   41POPC   C1A 4215   6.114   2.923   8.739
   41POPC   D2A 4216   6.288   2.831   8.340
   41POPC   C3A 4217   5.945   2.892   8.067
   41POPC   C4A 4218   5.930   3.053   7.683
   41POPC   C1B 4219   5.601   2.682   8.683
   41POPC   C2B 4220   5.471   2.719   8.251
   41POPC   C3B 4221   5.591   2.420   7.927
   41POPC   C4B 4222   5.497   2.431   7.464
   42POPC   NC3 4223  42.700   2.129   9.448
   42POPC   PO4 4224  42.070   1.960   9.723
   42POPC   GL1 4225  42.248   1.882   9.255
   42POPC   GL2 4226  42.392   2.150   9.058
   42POPC   C1A 4227  42.235   1.766   8.812
   42POPC   D2A 4228  42.274   2.102   8.514
   42POPC   C3A 4229  42.414   1.985   8.104
   42POPC   C4A 4230  42.032   2.032   7.853
   42POPC   C1B 4231  42.683   2.328   8.824
   42POPC   C2B 4232  42.726   2.382   8.440
   42POPC   C3B 4233  42.749   2.459   8.076
   42POPC   C4B 4234  42.676   2.304   7.714
   43POPC   NC3 4235  38.441  27.836   9.551
   43POPC   PO4 4236  38.782  27.243   9.453
   43POPC   GL1 4237  38.556  27.548   9.138
   43POPC   GL2 4238  38.221  27.747   9.113
   43POPC   C1A 4239  38.459  27.423   8.726
   43POPC   D2A 4240  38.540  27.176   8.348
   43POPC   C3A 4241  38.446  27.415   7.994
   43POPC   C4A 4242  38.697  27.707   7.811
   43POPC   C1B 4243  38.319  27.945   8.741
   43POPC   C2B 4244  38.474  27.895   8.344
   43POPC   C3B 4245  38.248  27.903   7.985
   43POPC   C4B 4246  38.229  27.715   7.599
   44POPC   NC3 4247  43.402  19.737   9.166
   44POPC   PO4 4248  42.961  19.618   9.618
   44POPC   GL1 4249  42.894  19.779   9.221
   44POPC   GL2 4250  43.019  20.103   9.200
   44POPC   C1A 4251  42.905  19.651   8.762
   44POPC   D2A 4252  42.694  19.483   8.388
   44POPC   C3A 4253  42.949  19.421   8.001
   44POPC   C4A 4254  43.319  19.642   7.851
   44POPC   C1B 4255  43.083  20.125   8.742
   44POPC   C2B 4256  43.086  19.910   8.344
   44POPC   C3B 4257  42.833  19.916   8.000
   44POPC   C4B 4258  42.642  19.918   7.615
   45POPC   NC3 4259  20.794  32.862   9.465
   45POPC   PO4 4260  20.193  33.114   9.627
   45POPC   GL1 4261  20.415  33.068   9.220
   45POPC   GL2 4262  20.640  33.306   9.219
   45POPC   C1A 4263  20.689  32.970   8.808
   45POPC   D2A 4264  20.890  33.058   8.378
   45POPC   C3A 4265  20.644  32.902   7.987
   45POPC   C4A 4266  20.561  32.676   7.559
   45POPC   C1B 4267  20.305  33.353   8.840
   45POPC   C2B 4268  20.043  33.267   8.471
   45POPC   C3B 4269  20.186  33.271   8.056
   45POPC   C4B 4270  20.582  33.417   7.914
   46POPC   NC3 4271   4.612  33.007   9.449
   46POPC   PO4 4272   4.172  33.489   9.590
   46POPC   GL1 4273   4.195  33.209   9.200
   46POPC   GL2 4274   4.209  32.818   9.200
   46POPC   C1A 4275   4.367  33.119   8.792
   46POPC   D2A 4276   4.625  33.271   8.451
   46POPC   C3A 4277   4.426  33.242   8.071
   46POPC   C4A 4278   4.068  33.373   7.825
   46POPC   C1B 4279   4.324  32.598   8.799
   46POPC   C2B 4280   4.455  32.753   8.391
   46POPC   C3B 4281   4.321  32.768   7.957
   46POPC   C4B 4282   4.465  32.940   7.590
   47POPC   NC3 4283  31.233  14.443   9.434
   47POPC   PO4 4284  31.689  14.015   9.532
   47POPC   GL1 4285  31.622  14.201   9.127
   47POPC   GL2 4286  31.288  14.090   9.064
   47POPC   C1A 4287  31.575  14.355   8.677
   47POPC   D2A 4288  31.545  14.647   8.299
   47POPC   C3A 4289  31.597  14.428   7.898
   47POPC   C4A 4290  31.734  14.004   7.778
   47POPC   C1B 4291  31.055  14.362   8.765
   47POPC   C2B 4292  31.090  14.389   8.312
   47POPC   C3B 4293  31.104  14.331   7.852
   47POPC   C4B 4294  31.199  14.637   7.543
   48POPC   NC3 4295  32.660  16.484   9.463
   48POPC   PO4 4296  33.223  16.921   9.477
   48POPC   GL1 4297  33.062  16.646   9.176
   48POPC   GL2 4298  32.746  16.791   9.047
   48POPC   C1A 4299  33.078  16.454   8.765
   48POPC   D2A 4300  33.298  16.401   8.364
   48POPC   C3A 4301  33.058  16.510   8.018
   48POPC   C4A 4302  33.105  16.669   7.592
   48POPC   C1B 4303  33.109  16.986   8.792
   48POPC   C2B 4304  33.302  16.947   8.364
   48POPC   C3B 4305  33.121  17.040   7.939
   48POPC   C4B 4306  32.953  17.148   7.498
   49POPC   NC3 4307   5.891  21.160   9.518
   49POPC   PO4 4308   6.160  21.771   9.500
   49POPC   GL1 4309   5.989  21.542   9.193
   49POPC   GL2 4310   5.647  21.641   9.177
   49POPC   C1A 4311   6.136  21.291   8.844
   49POPC   D2A 4312   6.055  21.174   8.436
   49POPC   C3A 4313   5.930  21.444   8.132
   49POPC   C4A 4314   6.121  21.485   7.745
   49POPC   C1B 4315   5.614  21.278   8.906
   49POPC   C2B 4316   5.553  21.238   8.473
   49POPC   C3B 4317   5.636  21.015   8.098
   49POPC   C4B 4318   5.747  21.154   7.700
   50POPC   NC3 4319   6.376  43.865   9.442
   50POPC   PO4 4320   7.081  43.658   9.385
   50POPC   GL1 4321   6.751  43.854   9.088
   50POPC   GL2 4322   6.351  43.775   8.957
   50POPC   C1A 4323   6.754  43.870   8.644
   50POPC   D2A 4324   6.533  43.730   8.281
   50POPC   C3A 4325   6.798  43.884   7.955
   50POPC   C4A 4326   6.899  43.756   7.514
   50POPC   C1B 4327   6.396  44.193   8.770
   50POPC   C2B 4328   6.529  44.266   8.328
   50POPC   C3B 4329   6.307  44.092   7.969
   50POPC   C4B 4330   6.398  43.752   7.688
   51POPC   NC3 4331  13.254  44.071   9.491
   51POPC   PO4 4332  13.904  43.775   9.439
   51POPC   GL1 4333  13.706  43.951   9.105
   51POPC   GL2 4334  13.319  43.899   9.023
   51POPC   C1A 4335  13.665  43.774   8.699
   51POPC   D2A 4336  13.890  43.940   8.409
   51POPC   C3A 4337  13.722  43.986   8.027
   51POPC   C4A 4338  13.815  44.107   7.626
   51POPC   C1B 4339  13.475  44.251   8.779
   51POPC   C2B 4340  13.523  44.362   8.358
   51POPC   C3B 4341  13.265  44.267   7.978
   51POPC   C4B 4342  13.347  44.248   7.529
   52POPC   NC3 4343  26.273  32.559   9.392
   52POPC   PO4 4344  25.772  32.158   9.416
   52POPC   GL1 4345  25.971  32.068   9.032
   52POPC   GL2 4346  26.327  32.228   8.980
   52POPC   C1A 4347  25.634  32.027   8.729
   52POPC   D2A 4348  25.624  32.268   8.347
   52POPC   C3A 4349  26.031  32.180   8.127
   52POPC   C4A 4350  26.126  32.100   7.716
   52POPC   C1B 4351  26.441  32.616   8.739
   52POPC   C2B 4352  26.307  32.637   8.320
   52POPC   C3B 4353  25.963  32.671   8.072
   52POPC   C4B 4354  25.992  32.595   7.678
   53POPC   NC3 4355  19.384   4.809   9.565
   53POPC   PO4 4356  18.983   5.340   9.406
   53POPC   GL1 4357  18.975   5.004   9.129
   53POPC   GL2 4358  19.294   4.971   9.102
   53POPC   C1A 4359  18.916   5.065   8.700
   53POPC   D2A 4360  18.889   5.222   8.288
   53POPC   C3A 4361  19.225   5.190   7.993
   53POPC   C4A 4362  19.258   5.594   7.865
   53POPC   C1B 4363  19.324   4.727   8.750
   53POPC   C2B 4364  19.211   4.794   8.339
   53POPC   C3B 4365  19.362   4.661   7.958
   53POPC   C4B 4366  19.257   4.833   7.585
   54POPC   NC3 4367   5.703  20.160   9.294
   54POPC   PO4 4368   6.071  20.739   9.498
   54POPC   GL1 4369   5.894  20.602   9.135
   54POPC   GL2 4370   6.130  20.331   9.075
   54POPC   C1A 4371   5.800  20.450   8.719
   54POPC   D2A 4372   5.870  20.699   8.415
   54POPC   C3A 4373   5.785  20.479   8.073
   54POPC   C4A 4374   5.797  20.663   7.719
   54POPC   C1B 4375   6.274  20.680   8.791
   54POPC   C2B 4376   6.363  20.787   8.355
   54POPC   C3B 4377   6.179  20.962   7.950
   54POPC   C4B 4378   6.275  20.737   7.529
   55POPC   NC3 4379  25.140  38.295   9.567
   55POPC   PO4 4380  25.245  38.897   9.514
   55POPC   GL1 4381  25.393  38.476   9.162
   55POPC   GL2 4382  25.172  38.141   9.085
   55POPC   C1A 4383  25.486  38.280   8.706
   55POPC   D2A 4384  25.416  38.569   8.339
   55POPC   C3A 4385  25.479  38.540   7.885
   55POPC   C4A 4386  25.194  38.724   7.589
   55POPC   C1B 4387  25.005  38.435   8.793
   55POPC   C2B 4388  24.907  38.518   8.363
   55POPC   C3B 4389  24.979  38.418   7.952
   55POPC   C4B 4390  24.786  38.385   7.568
   56POPC   NC3 4391  31.317  16.056   9.831
   56POPC   PO4 4392  30.722  15.752   9.665
   56POPC   GL1 4393  30.523  15.996   9.283
   56POPC   GL2 4394  30.629  15.773   9.066
   56POPC   C1A 4395  30.680  16.207   8.837
   56POPC   D2A 4396  30.841  16.211   8.407
   56POPC   C3A 4397  30.558  16.125   8.072
   56POPC   C4A 4398  30.681  16.211   7.673
   56POPC   C1B 4399  30.760  15.724   8.660
   56POPC   C2B 4400  30.437  15.759   8.409
   56POPC   C3B 4401  30.388  15.542   8.080
   56POPC   C4B 4402  30.672  15.498   7.745
   57POPC   NC3 4403  24.133   4.044   9.490
   57POPC   PO4 4404  24.796   4.300   9.556
   57POPC   GL1 4405  24.631   4.243   9.166
   57POPC   GL2 4406  24.338   4.430   9.131
   57POPC   C1A 4407  24.685   4.227   8.724
   57POPC   D2A 4408  24.539   4.351   8.356
   57POPC   C3A 4409  24.660   4.131   8.030
   57POPC   C4A 4410  24.599   4.163   7.596
   57POPC   C1B 4411  24.173   4.286   8.759
   57POPC   C2B 4412  24.037   4.198   8.357
   57POPC   C3B 4413  24.159   4.353   8.003
   57POPC   C4B 4414  24.181   4.457   7.606
   58POPC   NC3 4415  38.259  40.370   9.569
   58POPC   PO4 4416  37.952  40.923   9.296
   58POPC   GL1 4417  37.655  40.919   9.028
   58POPC   GL2 4418  37.540  40.608   8.999
   58POPC   C1A 4419  37.487  41.084   8.682
   58POPC   D2A 4420  37.453  40.785   8.379
   58POPC   C3A 4421  37.665  40.900   8.024
   58POPC   C4A 4422  37.537  40.984   7.628
   58POPC   C1B 4423  37.828  40.412   8.757
   58POPC   C2B 4424  37.945  40.498   8.343
   58POPC   C3B 4425  37.842  40.269   8.001
   58POPC   C4B 4426  37.587  40.483   7.735
   59POPC   NC3 4427   3.849  26.649   9.516
   59POPC   PO4 4428   3.340  27.147   9.330
   59POPC   GL1 4429   3.689  26.979   9.100
   59POPC   GL2 4430   3.538  26.673   9.124
   59POPC   C1A 4431   3.831  26.791   8.704
   59POPC   D2A 4432   4.053  26.751   8.319
   59POPC   C3A 4433   3.889  26.629   7.958
   59POPC   C4A 4434   3.952  26.817   7.596
   59POPC   C1B 4435   3.337  26.742   8.766
   59POPC   C2B 4436   3.469  26.651   8.370
   59POPC   C3B 4437   3.357  26.837   8.046
   59POPC   C4B 4438   3.414  26.703   7.676
   60POPC   NC3 4439   6.578  19.392   9.450
   60POPC   PO4 4440   6.173  19.944   9.440
   60POPC   GL1 4441   6.349  19.705   9.099
   60POPC   GL2 4442   6.728  19.745   9.089
   60POPC   C1A 4443   6.423  19.642   8.662
   60POPC   D2A 4444   6.680  19.901   8.371
   60POPC   C3A 4445   6.475  20.023   8.041
   60POPC   C4A 4446   6.303  19.826   7.676
   60POPC   C1B 4447   6.943  19.624   8.701
   60POPC   C2B 4448   6.738  19.398   8.344
   60POPC   C3B 4449   6.568  19.529   8.013
   60POPC   C4B 4450   6.817  19.812   7.735
   61POPC   NC3 4451   2.689  35.673   9.528
   61POPC   PO4 4452   2.992  35.164   9.317
   61POPC   GL1 4453   2.672  35.322   9.115
   61POPC   GL2 4454   2.414  35.067   9.145
   61POPC   C1A 4455   2.808  35.443   8.702
   61POPC   D2A 4456   2.911  35.478   8.291
   61POPC   C3A 4457   2.562  35.516   8.015
   61POPC   C4A 4458   2.688  35.313   7.668
   61POPC   C1B 4459   2.333  35.213   8.743
   61POPC   C2B 4460   2.510  35.128   8.348
   61POPC   C3B 4461   2.387  35.016   7.954
   61POPC   C4B 4462   2.177  35.223   7.644
   62POPC   NC3 4463   0.260   1.107   9.440
   62POPC   PO4 4464   0.553   1.779   9.469
   62POPC   GL1 4465   0.515   1.444   9.123
   62POPC   GL2 4466   0.666   1.097   9.126
   62POPC   C1A 4467   0.310   1.201   8.778
   62POPC   D2A 4468   0.211   1.284   8.355
   62POPC   C3A 4469   0.564   1.416   8.174
   62POPC   C4A 4470   0.742   1.305   7.786
   62POPC   C1B 4471   0.660   0.803   8.770
   62POPC   C2B 4472   0.667   0.914   8.314
   62POPC   C3B 4473   0.366   0.979   7.954
   62POPC   C4B 4474   0.430   0.917   7.492
   63POPC   NC3 4475  25.450  10.702   9.454
   63POPC   PO4 4476  25.166  10.265   9.828
   63POPC   GL1 4477  25.239  10.230   9.342
   63POPC   GL2 4478  25.577  10.192   9.228
   63POPC   C1A 4479  25.126  10.261   8.877
   63POPC   D2A 4480  25.234  10.293   8.427
   63POPC   C3A 4481  24.943  10.383   8.070
   63POPC   C4A 4482  24.933  10.770   7.811
   63POPC   C1B 4483  25.609  10.442   8.832
   63POPC   C2B 4484  25.681  10.580   8.414
   63POPC   C3B 4485  25.526  10.435   8.026
   63POPC   C4B 4486  25.713  10.382   7.622
   64POPC   NC3 4487  31.923  11.400   9.506
   64POPC   PO4 4488  32.559  11.669   9.424
   64POPC   GL1 4489  32.295  11.388   9.127
   64POPC   GL2 4490  32.356  11.060   9.106
   64POPC   C1A 4491  32.253  11.260   8.674
   64POPC   D2A 4492  32.395  11.432   8.297
   64POPC   C3A 4493  32.088  11.299   8.036
   64POPC   C4A 4494  31.915  11.420   7.630
   64POPC   C1B 4495  32.570  10.863   8.802
   64POPC   C2B 4496  32.588  10.957   8.401
   64POPC   C3B 4497  32.423  10.863   7.993
   64POPC   C4B 4498  32.129  10.954   7.654
   65POPC   NC3 4499  41.171  33.353   9.531
   65POPC   PO4 4500  41.727  33.812   9.436
   65POPC   GL1 4501  41.529  33.895   9.078
   65POPC   GL2 4502  41.317  33.614   9.128
   65POPC   C1A 4503  41.603  34.033   8.662
   65POPC   D2A 4504  41.760  34.076   8.237
   65POPC   C3A 4505  41.441  34.038   7.916
   65POPC   C4A 4506  41.551  33.858   7.536
   65POPC   C1B 4507  41.412  33.530   8.721
   65POPC   C2B 4508  41.390  33.708   8.326
   65POPC   C3B 4509  41.484  33.534   7.955
   65POPC   C4B 4510  41.218  33.499   7.639
   66POPC   NC3 4511  32.744  36.969   9.624
   66POPC   PO4 4512  33.432  36.682   9.683
   66POPC   GL1 4513  33.235  36.888   9.289
   66POPC   GL2 4514  32.964  37.135   9.224
   66POPC   C1A 4515  33.092  36.837   8.839
   66POPC   D2A 4516  33.202  37.001   8.459
   66POPC   C3A 4517  33.157  36.813   8.059
   66POPC   C4A 4518  33.047  36.919   7.648
   66POPC   C1B 4519  32.821  37.369   8.900
   66POPC   C2B 4520  32.711  37.265   8.501
   66POPC   C3B 4521  32.520  37.320   8.115
   66POPC   C4B 4522  32.636  37.234   7.722
   67POPC   NC3 4523  18.850  21.120   9.433
   67POPC   PO4 4524  19.230  21.609   9.479
   67POPC   GL1 4525  19.220  21.546   9.087
   67POPC   GL2 4526  19.104  21.207   8.992
   67POPC   C1A 4527  18.999  21.677   8.767
   67POPC   D2A 4528  18.912  21.469   8.418
   67POPC   C3A 4529  18.976  21.665   8.065
   67POPC   C4A 4530  19.141  21.634   7.709
   67POPC   C1B 4531  19.353  21.308   8.622
   67POPC   C2B 4532  19.335  21.300   8.144
   67POPC   C3B 4533  19.044  21.157   7.812
   67POPC   C4B 4534  19.051  20.956   7.382
   68POPC   NC3 4535  28.657  40.526   9.490
   68POPC   PO4 4536  28.117  40.863   9.658
   68POPC   GL1 4537  28.216  40.750   9.276
   68POPC   GL2 4538  28.086  40.426   9.379
   68POPC   C1A 4539  28.343  40.741   8.836
   68POPC   D2A 4540  28.287  40.836   8.400
   68POPC   C3A 4541  28.560  41.124   8.167
   68POPC   C4A 4542  28.553  40.957   7.783
   68POPC   C1B 4543  27.892  40.492   8.962
   68POPC   C2B 4544  27.979  40.434   8.520
   68POPC   C3B 4545  28.011  40.531   8.085
   68POPC   C4B 4546  28.336  40.494   7.813
   69POPC   NC3 4547  41.225  18.559   9.519
   69POPC   PO4 4548  41.918  18.288   9.479
   69POPC   GL1 4549  41.653  18.479   9.181
   69POPC   GL2 4550  41.931  18.569   8.989
   69POPC   C1A 4551  41.554  18.276   8.781
   69POPC   D2A 4552  41.308  18.050   8.499
   69POPC   C3A 4553  41.544  18.123   8.129
   69POPC   C4A 4554  41.452  18.123   7.728
   69POPC   C1B 4555  42.055  18.138   8.844
   69POPC   C2B 4556  41.948  17.954   8.449
   69POPC   C3B 4557  42.054  18.196   8.072
   69POPC   C4B 4558  41.916  18.494   7.745
   70POPC   NC3 4559  18.653  25.882   9.621
   70POPC   PO4 4560  19.318  25.936   9.558
   70POPC   GL1 4561  19.199  25.951   9.154
   70POPC   GL2 4562  18.909  26.017   9.182
   70POPC   C1A 4563  19.334  26.023   8.742
   70POPC   D2A 4564  19.107  26.079   8.349
   70POPC   C3A 4565  19.231  26.228   7.948
   70POPC   C4A 4566  19.021  26.074   7.591
   70POPC   C1B 4567  18.790  26.030   8.778
   70POPC   C2B 4568  18.573  26.055   8.405
   70POPC   C3B 4569  18.706  26.106   8.005
   70POPC   C4B 4570  18.476  26.208   7.655
   71POPC   NC3 4571  34.416   4.876   9.463
   71POPC   PO4 4572  33.953   5.358   9.430
   71POPC   GL1 4573  34.274   5.292   9.124
   71POPC   GL2 4574  34.644   5.238   9.112
   71POPC   C1A 4575  34.331   5.125   8.716
   71POPC   D2A 4576  34.510   5.259   8.345
   71POPC   C3A 4577  34.285   5.248   7.994
   71POPC   C4A 4578  34.338   5.050   7.663
   71POPC   C1B 4579  34.855   5.092   8.705
   71POPC   C2B 4580  35.008   5.221   8.256
   71POPC   C3B 4581  34.883   4.990   7.874
   71POPC   C4B 4582  34.870   4.555   7.718
   72POPC   NC3 4583  13.413   0.874   9.543
   72POPC   PO4 4584  13.893   1.324   9.426
   72POPC   GL1 4585  13.647   1.118   9.150
   72POPC   GL2 4586  13.273   1.174   9.137
   72POPC   C1A 4587  13.522   0.891   8.796
   72POPC   D2A 4588  13.471   1.031   8.371
   72POPC   C3A 4589  13.715   0.973   7.971
   72POPC   C4A 4590  13.596   1.051   7.508
   72POPC   C1B 4591  13.497   1.420   8.770
   72POPC   C2B 4592  13.619   1.498   8.328
   72POPC   C3B 4593  13.424   1.402   7.946
   72POPC   C4B 4594  13.415   1.752   7.672
   73POPC   NC3 4595  16.564  41.038   9.348
   73POPC   PO4 4596  16.062  40.712   9.615
   73POPC   GL1 4597  16.415  40.557   9.216
   73POPC   GL2 4598  16.440  40.222   9.140
   73POPC   C1A 4599  16.667  40.766   8.768
   73POPC   D2A 4600  16.720  40.950   8.303
   73POPC   C3A 4601  17.032  40.770   7.964
   73POPC   C4A 4602  16.899  40.674   7.497
   73POPC   C1B 4603  16.473  40.315   8.722
   73POPC   C2B 4604  16.689  40.431   8.328
   73POPC   C3B 4605  16.558  40.577   7.925
   73POPC   C4B 4606  16.567  40.272   7.636
   74POPC   NC3 4607   4.110   5.136   9.629
   74POPC   PO4 4608   4.703   4.783   9.597
   74POPC   GL1 4609   4.492   5.053   9.211
   74POPC   GL2 4610   4.136   5.230   9.141
   74POPC   C1A 4611   4.375   4.998   8.760
   74POPC   D2A 4612   4.067   4.965   8.422
   74POPC   C3A 4613   4.297   4.956   8.060
   74POPC   C4A 4614   4.445   5.250   7.816
   74POPC   C1B 4615   4.076   5.404   8.726
   74POPC   C2B 4616   4.236   5.436   8.322
   74POPC   C3B 4617   4.025   5.454   7.977
   74POPC   C4B 4618   3.889   5.076   7.760
   75POPC   NC3 4619  11.864  23.363   9.567
   75POPC   PO4 4620  12.372  22.928   9.585
   75POPC   GL1 4621  12.168  22.958   9.208
   75POPC   GL2 4622  11.915  22.655   9.234
   75POPC   C1A 4623  12.382  23.062   8.774
   75POPC   D2A 4624  12.454  22.823   8.371
   75POPC   C3A 4625  12.168  22.860   8.006
   75POPC   C4A 4626  11.830  23.163   7.874
   75POPC   C1B 4627  12.101  22.648   8.826
   75POPC   C2B 4628  11.951  22.906   8.488
   75POPC   C3B 4629  11.707  22.757   8.169
   75POPC   C4B 4630  11.823  22.467   7.881
   76POPC   NC3 4631   6.958  29.622   9.264
   76POPC   PO4 4632   6.418  30.102   9.434
   76POPC   GL1 4633   6.307  29.964   9.030
   76POPC   GL2 4634   6.092  29.650   9.089
   76POPC   C1A 4635   6.649  29.952   8.678
   76POPC   D2A 4636   6.768  29.705   8.284
   76POPC   C3A 4637   6.584  29.936   7.913
   76POPC   C4A 4638   6.766  30.235   7.676
   76POPC   C1B 4639   6.275  29.592   8.677
   76POPC   C2B 4640   6.280  29.859   8.324
   76POPC   C3B 4641   6.175  29.636   7.978
   76POPC   C4B 4642   6.228  29.664   7.550
   77POPC   NC3 4643  27.245  12.136   9.444
   77POPC   PO4 4644  27.977  12.138   9.509
   77POPC   GL1 4645  27.703  12.130   9.179
   77POPC   GL2 4646  27.580  11.767   9.223
   77POPC   C1A 4647  27.650  11.985   8.764
   77POPC   D2A 4648  27.548  11.761   8.399
   77POPC   C3A 4649  27.741  11.910   8.032
   77POPC   C4A 4650  27.756  12.164   7.687
   77POPC   C1B 4651  27.234  11.755   8.902
   77POPC   C2B 4652  27.148  12.053   8.586
   77POPC   C3B 4653  27.220  12.056   8.142
   77POPC   C4B 4654  27.318  11.886   7.738
   78POPC   NC3 4655  42.765  32.083   9.600
   78POPC   PO4 4656  43.243  32.575   9.467
   78POPC   GL1 4657  42.982  32.508   9.160
   78POPC   GL2 4658  42.876  32.167   9.131
   78POPC   C1A 4659  43.104  32.370   8.746
   78POPC   D2A 4660  42.971  32.511   8.412
   78POPC   C3A 4661  43.084  32.229   8.137
   78POPC   C4A 4662  43.122  32.204   7.736
   78POPC   C1B 4663  42.660  31.956   8.807
   78POPC   C2B 4664  42.641  32.098   8.373
   78POPC   C3B 4665  42.685  31.995   7.928
   78POPC   C4B 4666  42.743  32.020   7.468
   79POPC   NC3 4667  30.165  12.997   9.527
   79POPC   PO4 4668  29.486  12.752   9.614
   79POPC   GL1 4669  29.722  12.906   9.244
   79POPC   GL2 4670  29.985  12.672   9.153
   79POPC   C1A 4671  29.645  12.981   8.802
   79POPC   D2A 4672  29.564  12.803   8.425
   79POPC   C3A 4673  29.632  13.043   8.066
   79POPC   C4A 4674  29.653  12.910   7.646
   79POPC   C1B 4675  30.096  12.736   8.711
   79POPC   C2B 4676  30.043  12.748   8.254
   79POPC   C3B 4677  30.158  12.883   7.872
   79POPC   C4B 4678  30.519  13.165   7.815
   80POPC   NC3 4679   2.164  19.017   9.635
   80POPC   PO4 4680   1.554  19.221   9.320
   80POPC   GL1 4681   1.900  18.954   9.163
   80POPC   GL2 4682   2.264  19.083   9.159
   80POPC   C1A 4683   1.849  18.984   8.720
   80POPC   D2A 4684   1.996  19.294   8.471
   80POPC   C3A 4685   1.913  19.216   8.043
   80POPC   C4A 4686   1.779  18.847   7.832
   80POPC   C1B 4687   2.314  18.824   8.842
   80POPC   C2B 4688   2.301  18.626   8.456
   80POPC   C3B 4689   2.234  18.795   8.082
   80POPC   C4B 4690   2.277  18.982   7.700
   81POPC   NC3 4691  43.375  14.640   9.427
   81POPC   PO4 4692  42.801  14.252   9.571
   81POPC   GL1 4693  42.908  14.450   9.223
   81POPC   GL2 4694  43.199  14.252   9.128
   81POPC   C1A 4695  42.907  14.524   8.790
   81POPC   D2A 4696  42.712  14.493   8.390
   81POPC   C3A 4697  43.038  14.515   8.071
   81POPC   C4A 4698  43.082  14.660   7.685
   81POPC   C1B 4699  43.359  14.078   8.740
   81POPC   C2B 4700  43.237  14.084   8.292
   81POPC   C3B 4701  43.284  13.875   7.863
   81POPC   C4B 4702  43.327  13.941   7.370
   82POPC   NC3 4703   0.609  33.510   9.667
   82POPC   PO4 4704   0.099  33.676   9.224
   82POPC   GL1 4705   0.506  33.730   9.072
   82POPC   GL2 4706   0.741  33.472   9.147
   82POPC   C1A 4707   0.618  33.945   8.685
   82POPC   D2A 4708   0.412  34.197   8.371
   82POPC   C3A 4709   0.273  33.974   8.047
   82POPC   C4A 4710   0.595  33.943   7.805
   82POPC   C1B 4711   0.873  33.498   8.664
   82POPC   C2B 4712   0.721  33.559   8.195
   82POPC   C3B 4713   0.760  33.480   7.704
   82POPC   C4B 4714   0.850  33.428   7.249
   83POPC   NC3 4715  15.121  10.175   9.737
   83POPC   PO4 4716  14.775   9.606   9.494
   83POPC   GL1 4717  15.132   9.710   9.176
   83POPC   GL2 4718  15.487   9.522   9.218
   83POPC   C1A 4719  15.434   9.868   8.824
   83POPC   D2A 4720  15.536  10.064   8.409
   83POPC   C3A 4721  15.161  10.059   8.124
   83POPC   C4A 4722  15.027   9.933   7.718
   83POPC   C1B 4723  15.311   9.380   8.807
   83POPC   C2B 4724  15.188   9.576   8.406
   83POPC   C3B 4725  15.157   9.497   7.970
   83POPC   C4B 4726  15.422   9.369   7.620
   84POPC   NC3 4727  31.551  19.866   9.381
   84POPC   PO4 4728  32.098  19.672   9.718
   84POPC   GL1 4729  32.006  19.609   9.264
   84POPC   GL2 4730  32.336  19.545   9.146
   84POPC   C1A 4731  32.030  19.838   8.827
   84POPC   D2A 4732  32.209  20.153   8.487
   84POPC   C3A 4733  32.111  20.169   8.042
   84POPC   C4A 4734  32.261  19.984   7.674
   84POPC   C1B 4735  32.525  19.646   8.756
   84POPC   C2B 4736  32.301  19.654   8.386
   84POPC   C3B 4737  32.072  19.649   8.033
   84POPC   C4B 4738  32.089  19.505   7.629
   85POPC   NC3 4739   5.027  12.560   9.470
   85POPC   PO4 4740   5.228  11.972   9.755
   85POPC   GL1 4741   5.163  12.009   9.274
   85POPC   GL2 4742   5.465  11.934   9.069
   85POPC   C1A 4743   5.028  12.001   8.828
   85POPC   D2A 4744   5.167  11.883   8.400
   85POPC   C3A 4745   4.844  11.872   8.057
   85POPC   C4A 4746   4.861  12.144   7.687
   85POPC   C1B 4747   5.476  12.248   8.712
   85POPC   C2B 4748   5.434  12.339   8.291
   85POPC   C3B 4749   5.307  12.058   7.925
   85POPC   C4B 4750   5.362  12.243   7.490
   86POPC   NC3 4751  16.879  27.123   9.545
   86POPC   PO4 4752  16.671  26.455   9.694
   86POPC   GL1 4753  16.696  26.701   9.296
   86POPC   GL2 4754  16.390  26.721   9.124
   86POPC   C1A 4755  16.806  26.926   8.884
   86POPC   D2A 4756  16.871  26.768   8.420
   86POPC   C3A 4757  16.854  27.029   8.046
   86POPC   C4A 4758  16.846  27.047   7.605
   86POPC   C1B 4759  16.575  26.486   8.754
   86POPC   C2B 4760  16.576  26.359   8.316
   86POPC   C3B 4761  16.713  26.528   7.913
   86POPC   C4B 4762  16.580  26.651   7.484
   87POPC   NC3 4763  11.240  22.584   9.522
   87POPC   PO4 4764  11.421  23.213   9.501
   87POPC   GL1 4765  11.234  22.973   9.158
   87POPC   GL2 4766  11.425  22.666   9.057
   87POPC   C1A 4767  11.183  22.982   8.713
   87POPC   D2A 4768  11.025  23.137   8.331
   87POPC   C3A 4769  11.333  23.093   8.051
   87POPC   C4A 4770  11.182  23.179   7.697
   87POPC   C1B 4771  11.522  22.606   8.636
   87POPC   C2B 4772  11.236  22.637   8.274
   87POPC   C3B 4773  11.350  22.656   7.790
   87POPC   C4B 4774  11.607  22.564   7.387
   88POPC   NC3 4775  23.212  13.485   9.506
   88POPC   PO4 4776  22.564  13.797   9.615
   88POPC   GL1 4777  22.809  13.661   9.261
   88POPC   GL2 4778  22.726  13.370   9.076
   88POPC   C1A 4779  23.027  13.715   8.850
   88POPC   D2A 4780  22.945  13.516   8.459
   88POPC   C3A 4781  22.857  13.803   8.140
   88POPC   C4A 4782  22.590  13.775   7.790
   88POPC   C1B 4783  23.137  13.212   8.861
   88POPC   C2B 4784  23.280  13.114   8.441
   88POPC   C3B 4785  23.352  13.242   8.026
   88POPC   C4B 4786  23.184  13.581   7.824
   89POPC   NC3 4787   1.382  33.782   9.445
   89POPC   PO4 4788   0.707  33.932   9.528
   89POPC   GL1 4789   0.986  33.933   9.114
   89POPC   GL2 4790   1.199  33.620   9.030
   89POPC   C1A 4791   1.131  33.956   8.658
   89POPC   D2A 4792   0.918  34.052   8.264
   89POPC   C3A 4793   1.102  33.795   7.957
   89POPC   C4A 4794   1.223  33.682   7.551
   89POPC   C1B 4795   1.446  33.538   8.715
   89POPC   C2B 4796   1.492  33.693   8.301
   89POPC   C3B 4797   1.624  33.518   7.924
   89POPC   C4B 4798   1.669  33.522   7.461
   90POPC   NC3 4799  44.748  23.198   9.520
   90POPC   PO4 4800  44.759  22.569   9.594
   90POPC   GL1 4801  44.500  22.772   9.204
   90POPC   GL2 4802  44.349  23.129   9.175
   90POPC   C1A 4803  44.500  22.815   8.720
   90POPC   D2A 4804  44.525  22.758   8.248
   90POPC   C3A 4805  44.882  22.910   8.010
   90POPC   C4A 4806   0.222  22.779   7.717
   90POPC   C1B 4807  44.323  23.341   8.788
   90POPC   C2B 4808  44.271  23.182   8.391
   90POPC   C3B 4809  44.412  23.204   8.024
   90POPC   C4B 4810  44.586  23.133   7.644
   91POPC   NC3 4811  17.934  31.584   9.454
   91POPC   PO4 4812  17.153  31.455   9.506
   91POPC   GL1 4813  17.286  31.596   9.062
   91POPC   GL2 4814  17.669  31.609   9.028
   91POPC   C1A 4815  17.257  31.478   8.613
   91POPC   D2A 4816  17.312  31.721   8.235
   91POPC   C3A 4817  17.434  31.499   7.911
   91POPC   C4A 4818  17.220  31.494   7.528
   91POPC   C1B 4819  17.753  31.319   8.692
   91POPC   C2B 4820  17.603  31.222   8.314
   91POPC   C3B 4821  17.683  31.034   7.962
   91POPC   C4B 4822  17.588  31.107   7.554
   92POPC   NC3 4823   1.902  28.127   9.763
   92POPC   PO4 4824   1.967  27.635   9.336
   92POPC   GL1 4825   2.058  27.870   8.981
   92POPC   GL2 4826   1.741  27.901   8.823
   92POPC   C1A 4827   2.248  27.658   8.667
   92POPC   D2A 4828   2.404  27.745   8.296
   92POPC   C3A 4829   2.216  27.547   7.962
   92POPC   C4A 4830   2.400  27.599   7.574
   92POPC   C1B 4831   1.777  27.455   8.743
   92POPC   C2B 4832   1.933  27.313   8.382
   92POPC   C3B 4833   1.715  27.360   8.026
   92POPC   C4B 4834   1.757  27.788   7.913
   93POPC   NC3 4835  30.863  27.158   9.382
   93POPC   PO4 4836  30.278  26.909   9.618
   93POPC   GL1 4837  30.550  26.695   9.282
   93POPC   GL2 4838  30.482  26.947   9.102
   93POPC   C1A 4839  30.849  26.704   8.860
   93POPC   D2A 4840  30.971  26.433   8.499
   93POPC   C3A 4841  30.726  26.561   8.154
   93POPC   C4A 4842  30.702  26.651   7.746
   93POPC   C1B 4843  30.321  27.096   8.742
   93POPC   C2B 4844  30.380  26.924   8.374
   93POPC   C3B 4845  30.290  27.071   8.010
   93POPC   C4B 4846  30.231  26.877   7.669
   94POPC   NC3 4847   2.655  38.218   9.470
   94POPC   PO4 4848   2.993  38.768   9.598
   94POPC   GL1 4849   2.865  38.585   9.166
   94POPC   GL2 4850   2.990  38.207   9.085
   94POPC   C1A 4851   2.824  38.522   8.709
   94POPC   D2A 4852   3.068  38.539   8.334
   94POPC   C3A 4853   2.937  38.698   7.908
   94POPC   C4A 4854   2.901  38.838   7.476
   94POPC   C1B 4855   2.628  38.059   8.809
   94POPC   C2B 4856   2.564  38.158   8.374
   94POPC   C3B 4857   2.823  38.206   8.009
   94POPC   C4B 4858   2.706  38.277   7.597
   95POPC   NC3 4859  14.518  41.868   9.582
   95POPC   PO4 4860  14.180  41.369   9.697
   95POPC   GL1 4861  14.264  41.459   9.224
   95POPC   GL2 4862  14.245  41.841   9.139
   95POPC   C1A 4863  14.351  41.193   8.836
   95POPC   D2A 4864  14.739  41.264   8.570
   95POPC   C3A 4865  14.657  41.274   8.107
   95POPC   C4A 4866  14.713  41.411   7.674
   95POPC   C1B 4867  14.455  41.675   8.777
   95POPC   C2B 4868  14.293  41.513   8.395
   95POPC   C3B 4869  14.330  41.670   7.986
   95POPC   C4B 4870  14.611  41.906   7.756
   96POPC   NC3 4871  20.553  41.744   9.652
   96POPC   PO4 4872  20.669  41.155   9.436
   96POPC   GL1 4873  20.535  41.524   9.171
   96POPC   GL2 4874  20.774  41.821   9.182
   96POPC   C1A 4875  20.575  41.598   8.719
   96POPC   D2A 4876  20.415  41.453   8.314
   96POPC   C3A 4877  20.521  41.687   7.984
   96POPC   C4A 4878  20.829  41.590   7.706
   96POPC   C1B 4879  20.987  41.900   8.788
   96POPC   C2B 4880  20.872  41.859   8.340
   96POPC   C3B 4881  21.022  42.005   7.922
   96POPC   C4B 4882  20.977  41.969   7.406
   97POPC   NC3 4883   9.546  37.079   9.530
   97POPC   PO4 4884  10.200  37.220   9.807
   97POPC   GL1 4885  10.002  36.975   9.327
   97POPC   GL2 4886   9.732  36.712   9.205
   97POPC   C1A 4887   9.925  36.999   8.832
   97POPC   D2A 4888   9.999  37.108   8.368
   97POPC   C3A 4889   9.855  36.979   7.914
   97POPC   C4A 4890  10.015  36.832   7.470
   97POPC   C1B 4891   9.854  36.514   8.789
   97POPC   C2B 4892   9.777  36.606   8.335
   97POPC   C3B 4893   9.882  36.488   7.886
   97POPC   C4B 4894   9.616  36.526   7.515
   98POPC   NC3 4895  25.866  39.997   9.441
   98POPC   PO4 4896  26.028  39.350   9.472
   98POPC   GL1 4897  26.114  39.215   9.065
   98POPC   GL2 4898  26.154  39.581   9.013
   98POPC   C1A 4899  26.023  39.037   8.619
   98POPC   D2A 4900  26.008  39.245   8.201
   98POPC   C3A 4901  25.984  39.063   7.777
   98POPC   C4A 4902  26.153  38.970   7.349
   98POPC   C1B 4903  25.791  39.479   8.744
   98POPC   C2B 4904  25.613  39.559   8.330
   98POPC   C3B 4905  25.743  39.637   7.924
   98POPC   C4B 4906  25.970  39.552   7.538
   99POPC   NC3 4907  40.054  18.490   9.422
   99POPC   PO4 4908  40.258  17.862   9.235
   99POPC   GL1 4909  39.935  18.135   9.088
   99POPC   GL2 4910  40.225  18.359   8.966
   99POPC   C1A 4911  39.730  18.350   8.752
   99POPC   D2A 4912  39.943  18.178   8.383
   99POPC   C3A 4913  39.895  18.369   7.988
   99POPC   C4A 4914  39.776  18.272   7.557
   99POPC   C1B 4915  40.495  18.589   8.679
   99POPC   C2B 4916  40.316  18.548   8.322
   99POPC   C3B 4917  40.394  18.675   7.964
   99POPC   C4B 4918  40.227  18.486   7.630
  100POPC   NC3 4919  41.861  31.827   9.257
  100POPC   PO4 4920  41.908  32.418   9.544
  100POPC   GL1 4921  41.912  32.471   9.142
  100POPC   GL2 4922  41.621  32.235   9.053
  100POPC   C1A 4923  41.794  32.578   8.736
  100POPC   D2A 4924  41.773  32.285   8.438
  100POPC   C3A 4925  41.684  32.415   8.036
  100POPC   C4A 4926  41.865  32.254   7.674
  100POPC   C1B 4927  41.451  31.937   8.709
  100POPC   C2B 4928  41.492  31.905   8.251
  100POPC   C3B 4929  41.325  32.079   7.857
  100POPC   C4B 4930  41.467  32.101   7.410
  101POPC   NC3 4931  16.966  22.454   9.525
  101POPC   PO4 4932  16.324  22.267   9.818
  101POPC   GL1 4933  16.458  22.292   9.398
  101POPC   GL2 4934  16.715  22.029   9.330
  101POPC   C1A 4935  16.547  22.389   8.971
  101POPC   D2A 4936  16.686  22.245   8.546
  101POPC   C3A 4937  16.624  22.402   8.159
  101POPC   C4A 4938  16.916  22.377   7.809
  101POPC   C1B 4939  16.785  21.916   8.900
  101POPC   C2B 4940  16.998  21.755   8.513
  101POPC   C3B 4941  16.904  21.937   8.112
  101POPC   C4B 4942  16.890  21.758   7.716
  102POPC   NC3 4943  19.133   6.389   9.586
  102POPC   PO4 4944  18.607   6.227   9.295
  102POPC   GL1 4945  19.013   6.369   9.082
  102POPC   GL2 4946  19.153   6.693   9.158
  102POPC   C1A 4947  19.273   6.484   8.702
  102POPC   D2A 4948  19.209   6.312   8.310
  102POPC   C3A 4949  19.220   6.534   7.938
  102POPC   C4A 4950  18.878   6.430   7.721
  102POPC   C1B 4951  19.275   6.986   8.818
  102POPC   C2B 4952  19.241   7.055   8.380
  102POPC   C3B 4953  19.389   7.036   7.933
  102POPC   C4B 4954  19.390   6.942   7.479
  103POPC   NC3 4955   8.963   4.674   9.415
  103POPC   PO4 4956   9.296   4.036   9.595
  103POPC   GL1 4957   9.168   4.242   9.209
  103POPC   GL2 4958   9.389   4.529   9.153
  103POPC   C1A 4959   8.944   4.327   8.821
  103POPC   D2A 4960   8.771   4.137   8.457
  103POPC   C3A 4961   8.861   4.294   8.061
  103POPC   C4A 4962   9.082   4.181   7.705
  103POPC   C1B 4963   9.459   4.372   8.789
  103POPC   C2B 4964   9.276   4.282   8.418
  103POPC   C3B 4965   9.336   4.488   8.042
  103POPC   C4B 4966   9.355   4.658   7.633
  104POPC   NC3 4967  33.233  42.224   9.344
  104POPC   PO4 4968  32.579  42.336   9.479
  104POPC   GL1 4969  32.778  42.389   9.077
  104POPC   GL2 4970  32.831  42.060   8.933
  104POPC   C1A 4971  32.749  42.530   8.633
  104POPC   D2A 4972  32.889  42.327   8.242
  104POPC   C3A 4973  32.670  42.304   7.834
  104POPC   C4A 4974  32.740  42.112   7.363
  104POPC   C1B 4975  33.179  42.224   8.694
  104POPC   C2B 4976  33.396  42.200   8.312
  104POPC   C3B 4977  33.289  42.354   7.913
  104POPC   C4B 4978  33.501  42.496   7.548
  105POPC   NC3 4979  35.246   6.000   9.477
  105POPC   PO4 4980  35.666   5.545   9.297
  105POPC   GL1 4981  35.342   5.683   9.071
  105POPC   GL2 4982  35.127   5.408   8.997
  105POPC   C1A 4983  35.261   5.985   8.736
  105POPC   D2A 4984  35.481   6.048   8.335
  105POPC   C3A 4985  35.278   6.054   7.926
  105POPC   C4A 4986  35.056   6.284   7.581
  105POPC   C1B 4987  34.967   5.575   8.664
  105POPC   C2B 4988  34.973   5.799   8.319
  105POPC   C3B 4989  34.946   5.665   7.948
  105POPC   C4B 4990  35.181   5.376   7.755
  106POPC   NC3 4991   8.584   8.606   9.377
  106POPC   PO4 4992   8.276   7.940   9.470
  106POPC   GL1 4993   8.305   8.246   9.155
  106POPC   GL2 4994   7.946   8.314   9.086
  106POPC   C1A 4995   8.609   8.339   8.780
  106POPC   D2A 4996   8.551   8.123   8.374
  106POPC   C3A 4997   8.483   8.350   7.968
  106POPC   C4A 4998   8.378   8.203   7.544
  106POPC   C1B 4999   8.148   8.533   8.753
  106POPC   C2B 5000   8.107   8.436   8.322
  106POPC   C3B 5001   7.906   8.399   7.933
  106POPC   C4B 5002   7.889   8.330   7.496
  107POPC   NC3 5003  22.242   3.478   9.589
  107POPC   PO4 5004  21.643   3.860   9.516
  107POPC   GL1 5005  22.020   3.786   9.210
  107POPC   GL2 5006  22.403   3.732   9.153
  107POPC   C1A 5007  22.087   3.681   8.771
  107POPC   D2A 5008  22.020   3.477   8.403
  107POPC   C3A 5009  22.211   3.634   8.054
  107POPC   C4A 5010  22.063   3.736   7.644
  107POPC   C1B 5011  22.555   3.431   8.765
  107POPC   C2B 5012  22.536   3.325   8.331
  107POPC   C3B 5013  22.530   3.259   7.883
  107POPC   C4B 5014  22.429   3.398   7.452
  108POPC   NC3 5015  29.715  40.303   9.360
  108POPC   PO4 5016  29.648  40.912   9.693
  108POPC   GL1 5017  29.841  40.767   9.202
  108POPC   GL2 5018  29.601  40.641   9.030
  108POPC   C1A 5019  29.782  40.969   8.714
  108POPC   D2A 5020  29.896  41.173   8.309
  108POPC   C3A 5021  29.968  40.912   7.938
  108POPC   C4A 5022  29.778  40.897   7.504
  108POPC   C1B 5023  29.766  40.414   8.670
  108POPC   C2B 5024  29.681  40.336   8.237
  108POPC   C3B 5025  29.717  40.464   7.813
  108POPC   C4B 5026  30.105  40.533   7.628
  109POPC   NC3 5027   4.487   8.145   9.398
  109POPC   PO4 5028   3.849   8.516   9.432
  109POPC   GL1 5029   4.093   8.292   9.114
  109POPC   GL2 5030   3.904   8.008   9.055
  109POPC   C1A 5031   4.368   8.105   8.756
  109POPC   D2A 5032   4.496   7.851   8.390
  109POPC   C3A 5033   4.513   8.063   7.984
  109POPC   C4A 5034   4.601   8.488   7.881
  109POPC   C1B 5035   3.869   8.244   8.667
  109POPC   C2B 5036   4.133   8.256   8.312
  109POPC   C3B 5037   4.082   8.364   7.904
  109POPC   C4B 5038   3.902   8.367   7.467
  110POPC   NC3 5039  15.449  13.878   9.435
  110POPC   PO4 5040  14.827  14.112   9.412
  110POPC   GL1 5041  15.020  13.817   9.114
  110POPC   GL2 5042  15.183  13.485   9.220
  110POPC   C1A 5043  15.014  13.587   8.722
  110POPC   D2A 5044  15.082  13.413   8.302
  110POPC   C3A 5045  15.066  13.689   7.925
  110POPC   C4A 5046  14.772  14.037   7.848
  110POPC   C1B 5047  15.514  13.513   8.896
  110POPC   C2B 5048  15.526  13.575   8.490
  110POPC   C3B 5049  15.571  13.369   8.109
  110POPC   C4B 5050  15.571  13.475   7.678
  111POPC   NC3 5051  24.772  12.590   9.487
  111POPC   PO4 5052  24.646  13.247   9.517
  111POPC   GL1 5053  24.458  12.935   9.195
  111POPC   GL2 5054  24.168  12.722   9.090
  111POPC   C1A 5055  24.583  12.713   8.796
  111POPC   D2A 5056  24.840  12.701   8.417
  111POPC   C3A 5057  24.712  12.636   7.986
  111POPC   C4A 5058  24.477  12.864   7.685
  111POPC   C1B 5059  24.098  12.692   8.640
  111POPC   C2B 5060  24.220  12.663   8.217
  111POPC   C3B 5061  24.232  12.447   7.839
  111POPC   C4B 5062  24.154  12.546   7.384
  112POPC   NC3 5063  27.479  35.843   9.982
  112POPC   PO4 5064  27.802  35.527   9.465
  112POPC   GL1 5065  27.684  35.643   9.066
  112POPC   GL2 5066  27.428  35.349   9.037
  112POPC   C1A 5067  27.549  35.656   8.655
  112POPC   D2A 5068  27.567  35.332   8.378
  112POPC   C3A 5069  27.425  35.523   8.032
  112POPC   C4A 5070  27.597  35.490   7.676
  112POPC   C1B 5071  27.229  35.073   8.692
  112POPC   C2B 5072  27.326  34.859   8.281
  112POPC   C3B 5073  27.414  35.023   7.867
  112POPC   C4B 5074  27.292  35.142   7.442
  113POPC   NC3 5075  34.488  13.734   9.721
  113POPC   PO4 5076  34.983  13.275   9.619
  113POPC   GL1 5077  34.767  13.531   9.237
  113POPC   GL2 5078  34.444  13.591   9.126
  113POPC   C1A 5079  34.806  13.793   8.806
  113POPC   D2A 5080  35.018  14.015   8.451
  113POPC   C3A 5081  34.919  13.780   8.093
  113POPC   C4A 5082  35.045  13.629   7.683
  113POPC   C1B 5083  34.268  13.705   8.732
  113POPC   C2B 5084  34.178  13.502   8.351
  113POPC   C3B 5085  34.252  13.790   8.037
  113POPC   C4B 5086  34.553  13.779   7.734
  114POPC   NC3 5087  21.643   2.932   9.515
  114POPC   PO4 5088  21.233   2.499   9.519
  114POPC   GL1 5089  21.374   2.673   9.154
  114POPC   GL2 5090  21.712   2.615   9.082
  114POPC   C1A 5091  21.259   2.658   8.737
  114POPC   D2A 5092  21.174   2.465   8.355
  114POPC   C3A 5093  21.470   2.607   8.049
  114POPC   C4A 5094  21.281   2.746   7.649
  114POPC   C1B 5095  21.688   2.924   8.752
  114POPC   C2B 5096  21.674   3.089   8.323
  114POPC   C3B 5097  21.562   3.084   7.870
  114POPC   C4B 5098  21.517   3.092   7.382
  115POPC   NC3 5099  35.812  20.756   9.371
  115POPC   PO4 5100  35.145  20.430   9.425
  115POPC   GL1 5101  35.352  20.672   9.141
  115POPC   GL2 5102  35.654  20.487   8.972
  115POPC   C1A 5103  35.347  20.834   8.739
  115POPC   D2A 5104  35.669  20.712   8.464
  115POPC   C3A 5105  35.525  20.545   8.064
  115POPC   C4A 5106  35.188  20.713   7.801
  115POPC   C1B 5107  35.320  20.306   8.732
  115POPC   C2B 5108  35.197  20.127   8.353
  115POPC   C3B 5109  35.112  20.234   7.933
  115POPC   C4B 5110  35.435  20.272   7.612
  116POPC   NC3 5111  27.908  19.856   9.573
  116POPC   PO4 5112  27.327  20.125   9.376
  116POPC   GL1 5113  27.595  19.864   9.123
  116POPC   GL2 5114  27.925  19.968   9.068
  116POPC   C1A 5115  27.701  19.620   8.744
  116POPC   D2A 5116  27.486  19.581   8.335
  116POPC   C3A 5117  27.604  19.426   7.898
  116POPC   C4A 5118  27.683  19.560   7.461
  116POPC   C1B 5119  27.981  20.022   8.622
  116POPC   C2B 5120  27.983  19.759   8.269
  116POPC   C3B 5121  27.947  19.828   7.828
  116POPC   C4B 5122  27.937  19.982   7.380
  117POPC   NC3 5123  29.795  23.730   9.587
  117POPC   PO4 5124  30.361  23.362   9.576
  117POPC   GL1 5125  30.151  23.687   9.256
  117POPC   GL2 5126  30.331  23.802   9.040
  117POPC   C1A 5127  29.823  23.725   8.892
  117POPC   D2A 5128  29.743  23.493   8.472
  117POPC   C3A 5129  29.638  23.712   8.099
  117POPC   C4A 5130  29.892  23.680   7.754
  117POPC   C1B 5131  30.238  23.558   8.651
  117POPC   C2B 5132  30.139  23.696   8.230
  117POPC   C3B 5133  30.356  23.799   7.871
  117POPC   C4B 5134  30.267  23.803   7.422
  118POPC   NC3 5135   9.111  27.960   9.336
  118POPC   PO4 5136   8.566  27.531   9.468
  118POPC   GL1 5137   8.891  27.485   9.141
  118POPC   GL2 5138   9.271  27.465   9.232
  118POPC   C1A 5139   8.808  27.570   8.694
  118POPC   D2A 5140   8.736  27.250   8.368
  118POPC   C3A 5141   8.689  27.439   7.979
  118POPC   C4A 5142   8.901  27.518   7.615
  118POPC   C1B 5143   9.307  27.671   8.820
  118POPC   C2B 5144   9.255  27.605   8.422
  118POPC   C3B 5145   9.300  27.641   8.028
  118POPC   C4B 5146   9.397  27.619   7.643
  119POPC   NC3 5147  18.085  31.692   9.976
  119POPC   PO4 5148  18.360  31.360   9.495
  119POPC   GL1 5149  18.281  31.561   9.104
  119POPC   GL2 5150  18.076  31.285   9.057
  119POPC   C1A 5151  18.230  31.571   8.662
  119POPC   D2A 5152  18.326  31.516   8.274
  119POPC   C3A 5153  18.010  31.444   7.993
  119POPC   C4A 5154  18.079  31.262   7.632
  119POPC   C1B 5155  18.441  31.132   8.811
  119POPC   C2B 5156  18.661  31.141   8.417
  119POPC   C3B 5157  18.516  31.119   7.995
  119POPC   C4B 5158  18.516  30.995   7.559
  120POPC   NC3 5159   7.040  14.195   9.460
  120POPC   PO4 5160   6.333  14.081   9.510
  120POPC   GL1 5161   6.607  14.126   9.167
  120POPC   GL2 5162   6.708  14.481   9.178
  120POPC   C1A 5163   6.643  14.228   8.715
  120POPC   D2A 5164   6.610  14.520   8.336
  120POPC   C3A 5165   6.560  14.341   7.938
  120POPC   C4A 5166   6.267  14.044   7.740
  120POPC   C1B 5167   6.943  14.643   8.796
  120POPC   C2B 5168   7.104  14.441   8.391
  120POPC   C3B 5169   7.072  14.558   7.940
  120POPC   C4B 5170   7.186  14.435   7.504
  121POPC   NC3 5171  15.261  37.842   9.583
  121POPC   PO4 5172  15.653  37.244   9.604
  121POPC   GL1 5173  15.342  37.477   9.255
  121POPC   GL2 5174  14.980  37.540   9.234
  121POPC   C1A 5175  15.230  37.757   8.851
  121POPC   D2A 5176  15.405  37.748   8.433
  121POPC   C3A 5177  15.400  37.949   8.035
  121POPC   C4A 5178  15.246  37.641   7.760
  121POPC   C1B 5179  14.716  37.533   8.866
  121POPC   C2B 5180  14.713  37.406   8.426
  121POPC   C3B 5181  14.557  37.469   8.017
  121POPC   C4B 5182  14.726  37.655   7.678
  122POPC   NC3 5183  38.454   4.739   9.591
  122POPC   PO4 5184  38.522   4.050   9.577
  122POPC   GL1 5185  38.572   4.300   9.213
  122POPC   GL2 5186  38.291   4.474   9.148
  122POPC   C1A 5187  38.450   4.157   8.799
  122POPC   D2A 5188  38.191   4.173   8.471
  122POPC   C3A 5189  38.424   3.974   8.154
  122POPC   C4A 5190  38.397   3.994   7.719
  122POPC   C1B 5191  38.352   4.658   8.727
  122POPC   C2B 5192  38.179   4.709   8.322
  122POPC   C3B 5193  38.196   4.414   7.983
  122POPC   C4B 5194  38.317   4.474   7.554
  123POPC   NC3 5195  28.004   3.845   9.437
  123POPC   PO4 5196  28.357   3.311   9.674
  123POPC   GL1 5197  28.170   3.376   9.271
  123POPC   GL2 5198  28.015   3.093   9.132
  123POPC   C1A 5199  28.329   3.615   8.890
  123POPC   D2A 5200  28.199   3.938   8.546
  123POPC   C3A 5201  28.394   3.840   8.137
  123POPC   C4A 5202  28.280   3.665   7.744
  123POPC   C1B 5203  28.055   3.210   8.755
  123POPC   C2B 5204  28.200   3.414   8.410
  123POPC   C3B 5205  28.234   3.230   8.014
  123POPC   C4B 5206  27.912   3.215   7.727
  124POPC   NC3 5207  16.819  17.320   9.640
  124POPC   PO4 5208  16.353  17.557   9.301
  124POPC   GL1 5209  16.717  17.463   9.144
  124POPC   GL2 5210  16.955  17.694   9.312
  124POPC   C1A 5211  16.627  17.318   8.726
  124POPC   D2A 5212  16.353  17.375   8.370
  124POPC   C3A 5213  16.616  17.349   8.006
  124POPC   C4A 5214  16.545  17.131   7.598
  124POPC   C1B 5215  17.054  17.606   8.806
  124POPC   C2B 5216  17.032  17.301   8.408
  124POPC   C3B 5217  17.136  17.383   7.982
  124POPC   C4B 5218  16.924  17.487   7.603
  125POPC   NC3 5219   3.747   6.428   9.658
  125POPC   PO4 5220   3.358   6.978   9.533
  125POPC   GL1 5221   3.439   6.613   9.277
  125POPC   GL2 5222   3.795   6.616   9.195
  125POPC   C1A 5223   3.401   6.572   8.830
  125POPC   D2A 5224   3.524   6.818   8.471
  125POPC   C3A 5225   3.430   6.604   8.120
  125POPC   C4A 5226   3.467   6.667   7.688
  125POPC   C1B 5227   3.932   6.792   8.829
  125POPC   C2B 5228   3.993   6.631   8.429
  125POPC   C3B 5229   3.912   6.760   8.003
  125POPC   C4B 5230   3.941   6.482   7.664
  126POPC   NC3 5231  29.693  13.915   9.518
  126POPC   PO4 5232  30.137  13.462   9.549
  126POPC   GL1 5233  30.018  13.683   9.206
  126POPC   GL2 5234  29.756  13.439   9.205
  126POPC   C1A 5235  29.899  13.758   8.796
  126POPC   D2A 5236  30.055  13.728   8.385
  126POPC   C3A 5237  29.807  13.815   7.998
  126POPC   C4A 5238  29.772  14.161   7.674
  126POPC   C1B 5239  30.048  13.246   8.914
  126POPC   C2B 5240  30.032  13.213   8.470
  126POPC   C3B 5241  30.049  13.351   8.041
  126POPC   C4B 5242  30.120  13.360   7.604
  127POPC   NC3 5243  40.259  41.625   9.414
  127POPC   PO4 5244  39.566  41.652   9.506
  127POPC   GL1 5245  39.795  41.636   9.098
  127POPC   GL2 5246  40.143  41.708   8.934
  127POPC   C1A 5247  39.744  41.533   8.664
  127POPC   D2A 5248  40.027  41.702   8.346
  127POPC   C3A 5249  40.036  41.511   7.951
  127POPC   C4A 5250  39.674  41.462   7.702
  127POPC   C1B 5251  40.442  41.877   8.605
  127POPC   C2B 5252  40.492  41.932   8.137
  127POPC   C3B 5253  40.390  41.799   7.725
  127POPC   C4B 5254  40.380  41.430   7.424
  128POPC   NC3 5255  17.365  43.862   9.594
  128POPC   PO4 5256  17.892  43.868   9.210
  128POPC   GL1 5257  17.460  43.951   9.081
  128POPC   GL2 5258  17.233  43.671   9.102
  128POPC   C1A 5259  17.367  43.948   8.643
  128POPC   D2A 5260  17.628  43.750   8.333
  128POPC   C3A 5261  17.485  43.826   7.924
  128POPC   C4A 5262  17.137  43.916   7.682
  128POPC   C1B 5263  17.072  43.530   8.694
  128POPC   C2B 5264  17.129  43.627   8.249
  128POPC   C3B 5265  17.184  43.413   7.833
  128POPC   C4B 5266  17.371  43.511   7.426
  129POPC   NC3 5267   6.638  30.543   9.469
  129POPC   PO4 5268   7.026  31.120   9.354
  129POPC   GL1 5269   6.879  30.823   9.056
  129POPC   GL2 5270   6.542  30.853   9.054
  129POPC   C1A 5271   6.882  30.541   8.648
  129POPC   D2A 5272   6.821  30.278   8.270
  129POPC   C3A 5273   6.825  30.604   7.992
  129POPC   C4A 5274   6.813  30.816   7.619
  129POPC   C1B 5275   6.454  30.433   8.861
  129POPC   C2B 5276   6.357  30.344   8.471
  129POPC   C3B 5277   6.338  30.436   8.067
  129POPC   C4B 5278   6.299  30.549   7.652
  130POPC   NC3 5279   8.136  24.827   9.642
  130POPC   PO4 5280   8.361  24.139   9.428
  130POPC   GL1 5281   8.226  24.271   9.074
  130POPC   GL2 5282   8.135  24.573   9.185
  130POPC   C1A 5283   7.990  24.323   8.718
  130POPC   D2A 5284   7.914  24.404   8.293
  130POPC   C3A 5285   8.114  24.085   8.031
  130POPC   C4A 5286   8.258  24.088   7.584
  130POPC   C1B 5287   7.984  24.862   8.894
  130POPC   C2B 5288   8.074  24.911   8.470
  130POPC   C3B 5289   8.181  24.778   8.070
  130POPC   C4B 5290   8.286  24.785   7.647
  131POPC   NC3 5291   7.064   8.687   9.812
  131POPC   PO4 5292   6.443   8.826   9.732
  131POPC   GL1 5293   6.702   9.124   9.352
  131POPC   GL2 5294   6.529   9.360   9.110
  131POPC   C1A 5295   6.922   9.170   8.888
  131POPC   D2A 5296   6.746   8.843   8.599
  131POPC   C3A 5297   6.734   8.874   8.165
  131POPC   C4A 5298   6.742   8.668   7.799
  131POPC   C1B 5299   6.391   9.429   8.722
  131POPC   C2B 5300   6.687   9.392   8.398
  131POPC   C3B 5301   6.560   9.370   7.996
  131POPC   C4B 5302   6.616   9.141   7.664
  132POPC   NC3 5303  28.946  21.766   9.479
  132POPC   PO4 5304  29.474  22.231   9.566
  132POPC   GL1 5305  29.296  22.104   9.171
  132POPC   GL2 5306  28.936  22.108   9.095
  132POPC   C1A 5307  29.282  22.251   8.744
  132POPC   D2A 5308  28.983  22.336   8.419
  132POPC   C3A 5309  29.221  22.398   8.054
  132POPC   C4A 5310  29.310  22.108   7.744
  132POPC   C1B 5311  29.075  21.774   8.775
  132POPC   C2B 5312  28.954  21.761   8.331
  132POPC   C3B 5313  28.849  22.041   7.986
  132POPC   C4B 5314  28.920  21.838   7.586
  133POPC   NC3 5315  39.519  17.088   9.699
  133POPC   PO4 5316  38.903  16.772   9.544
  133POPC   GL1 5317  39.168  16.695   9.189
  133POPC   GL2 5318  39.307  17.045   9.239
  133POPC   C1A 5319  39.162  16.536   8.720
  133POPC   D2A 5320  38.944  16.837   8.410
  133POPC   C3A 5321  39.006  16.787   7.958
  133POPC   C4A 5322  38.984  16.703   7.503
  133POPC   C1B 5323  39.317  17.002   8.796
  133POPC   C2B 5324  39.471  16.857   8.369
  133POPC   C3B 5325  39.521  16.866   7.930
  133POPC   C4B 5326  39.299  17.086   7.627
  134POPC   NC3 5327   7.386  20.331   9.535
  134POPC   PO4 5328   7.661  19.746   9.550
  134POPC   GL1 5329   7.561  19.920   9.195
  134POPC   GL2 5330   7.285  19.686   9.112
  134POPC   C1A 5331   7.491  20.105   8.803
  134POPC   D2A 5332   7.370  19.864   8.435
  134POPC   C3A 5333   7.585  19.899   8.029
  134POPC   C4A 5334   7.280  20.009   7.742
  134POPC   C1B 5335   7.568  19.488   8.813
  134POPC   C2B 5336   7.641  19.434   8.372
  134POPC   C3B 5337   7.325  19.462   8.039
  134POPC   C4B 5338   7.377  19.551   7.612
  135POPC   NC3 5339  25.027  25.774   9.474
  135POPC   PO4 5340  25.363  26.475   9.539
  135POPC   GL1 5341  25.160  26.215   9.227
  135POPC   GL2 5342  25.320  25.931   9.063
  135POPC   C1A 5343  24.900  26.109   8.868
  135POPC   D2A 5344  25.112  25.808   8.585
  135POPC   C3A 5345  25.065  25.792   8.135
  135POPC   C4A 5346  25.142  26.026   7.793
  135POPC   C1B 5347  25.356  26.264   8.736
  135POPC   C2B 5348  25.357  26.189   8.295
  135POPC   C3B 5349  25.571  25.889   8.015
  135POPC   C4B 5350  25.575  25.755   7.558
  136POPC   NC3 5351   4.710   6.697   9.658
  136POPC   PO4 5352   4.057   6.777   9.624
  136POPC   GL1 5353   4.346   6.726   9.280
  136POPC   GL2 5354   4.444   6.378   9.312
  136POPC   C1A 5355   4.516   6.887   8.877
  136POPC   D2A 5356   4.348   7.009   8.481
  136POPC   C3A 5357   4.515   6.933   8.076
  136POPC   C4A 5358   4.339   6.787   7.701
  136POPC   C1B 5359   4.271   6.399   8.905
  136POPC   C2B 5360   4.353   6.265   8.496
  136POPC   C3B 5361   4.305   6.427   8.081
  136POPC   C4B 5362   4.390   6.260   7.690
  137POPC   NC3 5363  12.828  20.902   9.529
  137POPC   PO4 5364  12.954  21.533   9.741
  137POPC   GL1 5365  13.037  21.461   9.306
  137POPC   GL2 5366  12.713  21.334   9.226
  137POPC   C1A 5367  13.090  21.452   8.842
  137POPC   D2A 5368  13.314  21.392   8.448
  137POPC   C3A 5369  13.134  21.518   8.054
  137POPC   C4A 5370  13.005  21.449   7.616
  137POPC   C1B 5371  12.579  21.258   8.791
  137POPC   C2B 5372  12.776  21.306   8.375
  137POPC   C3B 5373  12.868  21.088   7.978
  137POPC   C4B 5374  12.546  21.041   7.660
  138POPC   NC3 5375  44.873  42.883   9.448
  138POPC   PO4 5376  44.555  43.512   9.352
  138POPC   GL1 5377  44.632  43.220   9.043
  138POPC   GL2 5378  44.577  42.845   9.037
  138POPC   C1A 5379  44.424  43.113   8.638
  138POPC   D2A 5380  44.307  43.020   8.220
  138POPC   C3A 5381  44.516  43.218   7.870
  138POPC   C4A 5382  44.463  43.097   7.450
  138POPC   C1B 5383  44.913  42.943   8.734
  138POPC   C2B 5384  44.828  43.121   8.322
  138POPC   C3B 5385   0.036  43.092   7.956
  138POPC   C4B 5386  44.941  42.996   7.557
  139POPC   NC3 5387  28.780  36.578   9.594
  139POPC   PO4 5388  28.187  36.933   9.519
  139POPC   GL1 5389  28.426  36.679   9.213
  139POPC   GL2 5390  28.125  36.598   9.093
  139POPC   C1A 5391  28.592  36.794   8.789
  139POPC   D2A 5392  28.475  37.059   8.426
  139POPC   C3A 5393  28.591  36.916   7.985
  139POPC   C4A 5394  28.464  36.874   7.541
  139POPC   C1B 5395  28.065  36.829   8.677
  139POPC   C2B 5396  28.088  36.786   8.190
  139POPC   C3B 5397  28.074  36.649   7.739
  139POPC   C4B 5398  28.062  36.641   7.271
  140POPC   NC3 5399  43.199  42.689   9.706
  140POPC   PO4 5400  43.080  43.319   9.781
  140POPC   GL1 5401  43.210  43.099   9.362
  140POPC   GL2 5402  42.968  42.856   9.239
  140POPC   C1A 5403  43.270  43.043   8.867
  140POPC   D2A 5404  42.961  42.999   8.517
  140POPC   C3A 5405  43.109  43.051   8.076
  140POPC   C4A 5406  43.041  42.960   7.634
  140POPC   C1B 5407  42.859  43.292   9.044
  140POPC   C2B 5408  42.616  43.378   8.662
  140POPC   C3B 5409  42.720  43.352   8.221
  140POPC   C4B 5410  42.697  43.313   7.792
  141POPC   NC3 5411   3.500  27.585   9.481
  141POPC   PO4 5412   3.433  28.191   9.279
  141POPC   GL1 5413   3.573  27.841   9.052
  141POPC   GL2 5414   3.287  27.573   9.015
  141POPC   C1A 5415   3.784  27.501   8.867
  141POPC   D2A 5416   3.831  27.615   8.474
  141POPC   C3A 5417   3.491  27.608   8.230
  141POPC   C4A 5418   3.645  27.602   7.836
  141POPC   C1B 5419   3.351  27.292   8.664
  141POPC   C2B 5420   3.641  27.132   8.380
  141POPC   C3B 5421   3.763  27.122   7.964
  141POPC   C4B 5422   3.630  27.186   7.530
  142POPC   NC3 5423  30.143  22.815   9.384
  142POPC   PO4 5424  29.602  23.152   9.575
  142POPC   GL1 5425  29.874  23.229   9.185
  142POPC   GL2 5426  30.238  23.225   9.107
  142POPC   C1A 5427  29.888  23.082   8.745
  142POPC   D2A 5428  29.631  23.014   8.355
  142POPC   C3A 5429  29.875  22.762   8.094
  142POPC   C4A 5430  29.934  22.861   7.683
  142POPC   C1B 5431  30.456  23.120   8.787
  142POPC   C2B 5432  30.269  23.032   8.391
  142POPC   C3B 5433  30.089  23.231   8.045
  142POPC   C4B 5434  30.228  23.306   7.627
  143POPC   NC3 5435  43.534  44.145   9.827
  143POPC   PO4 5436  43.961  43.617   9.623
  143POPC   GL1 5437  43.808  43.765   9.234
  143POPC   GL2 5438  44.148  43.851   9.170
  143POPC   C1A 5439  43.787  43.826   8.766
  143POPC   D2A 5440  43.618  43.742   8.352
  143POPC   C3A 5441  43.685  43.820   7.881
  143POPC   C4A 5442  43.906  43.637   7.513
  143POPC   C1B 5443  44.243  44.051   8.784
  143POPC   C2B 5444  44.144  43.915   8.369
  143POPC   C3B 5445  44.222  43.895   7.934
  143POPC   C4B 5446  44.353  44.323   7.837
  144POPC   NC3 5447  14.422  36.565   9.600
  144POPC   PO4 5448  14.101  37.104   9.592
  144POPC   GL1 5449  14.256  37.004   9.166
  144POPC   GL2 5450  14.136  36.697   9.145
  144POPC   C1A 5451  14.554  37.053   8.801
  144POPC   D2A 5452  14.757  36.884   8.415
  144POPC   C3A 5453  14.634  36.966   7.976
  144POPC   C4A 5454  14.739  36.801   7.554
  144POPC   C1B 5455  14.007  36.880   8.718
  144POPC   C2B 5456  13.944  36.738   8.276
  144POPC   C3B 5457  14.209  36.678   7.892
  144POPC   C4B 5458  14.141  36.863   7.471
  145POPC   NC3 5459  28.492  17.284   9.677
  145POPC   PO4 5460  28.091  17.806   9.588
  145POPC   GL1 5461  28.229  17.502   9.281
  145POPC   GL2 5462  28.601  17.549   9.263
  145POPC   C1A 5463  28.315  17.288   8.915
  145POPC   D2A 5464  28.466  17.353   8.511
  145POPC   C3A 5465  28.331  17.273   8.117
  145POPC   C4A 5466  28.533  17.332   7.726
  145POPC   C1B 5467  28.497  17.768   8.873
  145POPC   C2B 5468  28.288  17.876   8.490
  145POPC   C3B 5469  28.453  17.779   8.096
  145POPC   C4B 5470  28.447  17.850   7.671
  146POPC   NC3 5471   4.060  14.736   9.478
  146POPC   PO4 5472   4.484  14.290   9.579
  146POPC   GL1 5473   4.284  14.362   9.190
  146POPC   GL2 5474   4.587  14.570   9.136
  146POPC   C1A 5475   4.260  14.490   8.739
  146POPC   D2A 5476   4.236  14.344   8.307
  146POPC   C3A 5477   4.072  14.686   8.055
  146POPC   C4A 5478   3.956  14.640   7.617
  146POPC   C1B 5479   4.655  14.192   8.873
  146POPC   C2B 5480   4.732  14.375   8.469
  146POPC   C3B 5481   4.655  14.533   8.052
  146POPC   C4B 5482   4.361  14.365   7.778
  147POPC   NC3 5483  43.295  31.240   9.690
  147POPC   PO4 5484  43.086  31.805   9.431
  147POPC   GL1 5485  43.197  31.487   9.175
  147POPC   GL2 5486  42.941  31.259   9.192
  147POPC   C1A 5487  43.109  31.524   8.744
  147POPC   D2A 5488  43.191  31.451   8.332
  147POPC   C3A 5489  43.104  31.716   8.006
  147POPC   C4A 5490  43.175  31.610   7.596
  147POPC   C1B 5491  42.954  31.025   8.799
  147POPC   C2B 5492  42.823  31.071   8.346
  147POPC   C3B 5493  42.956  31.215   7.919
  147POPC   C4B 5494  42.935  31.174   7.451
  148POPC   NC3 5495   3.841  16.989   9.399
  148POPC   PO4 5496   3.414  16.479   9.645
  148POPC   GL1 5497   3.298  16.520   9.219
  148POPC   GL2 5498   3.616  16.642   9.075
  148POPC   C1A 5499   3.160  16.641   8.801
  148POPC   D2A 5500   3.376  16.822   8.448
  148POPC   C3A 5501   3.179  16.850   8.047
  148POPC   C4A 5502   3.238  16.892   7.619
  148POPC   C1B 5503   3.866  16.365   8.796
  148POPC   C2B 5504   3.997  16.491   8.375
  148POPC   C3B 5505   3.847  16.820   8.187
  148POPC   C4B 5506   3.685  16.909   7.831
  149POPC   NC3 5507  44.823  23.916   9.433
  149POPC   PO4 5508  44.392  23.498   9.539
  149POPC   GL1 5509  44.396  23.689   9.167
  149POPC   GL2 5510  44.694  23.532   9.101
  149POPC   C1A 5511  44.498  23.855   8.753
  149POPC   D2A 5512  44.506  23.653   8.368
  149POPC   C3A 5513  44.626  23.930   8.032
  149POPC   C4A 5514  44.778  23.764   7.663
  149POPC   C1B 5515  44.821  23.214   8.846
  149POPC   C2B 5516  44.775  23.211   8.420
  149POPC   C3B 5517  44.841  23.448   8.045
  149POPC   C4B 5518   0.066  23.303   7.723
  150POPC   NC3 5519  17.810  17.212   9.556
  150POPC   PO4 5520  17.659  16.577   9.542
  150POPC   GL1 5521  17.768  16.681   9.173
  150POPC   GL2 5522  17.562  16.950   9.171
  150POPC   C1A 5523  17.665  16.543   8.786
  150POPC   D2A 5524  17.440  16.311   8.488
  150POPC   C3A 5525  17.659  16.432   8.136
  150POPC   C4A 5526  17.681  16.690   7.836
  150POPC   C1B 5527  17.862  17.064   8.838
  150POPC   C2B 5528  17.750  16.906   8.422
  150POPC   C3B 5529  17.355  16.922   8.180
  150POPC   C4B 5530  17.289  16.968   7.718
  151POPC   NC3 5531  33.987   2.293   9.532
  151POPC   PO4 5532  33.734   1.692   9.597
  151POPC   GL1 5533  33.972   1.875   9.245
  151POPC   GL2 5534  33.673   2.089   9.151
  151POPC   C1A 5535  33.886   1.819   8.782
  151POPC   D2A 5536  33.740   1.997   8.396
  151POPC   C3A 5537  33.963   1.786   8.053
  151POPC   C4A 5538  34.184   2.046   7.769
  151POPC   C1B 5539  33.495   2.327   8.786
  151POPC   C2B 5540  33.619   2.515   8.353
  151POPC   C3B 5541  33.731   2.276   7.961
  151POPC   C4B 5542  33.649   1.956   7.661
  152POPC   NC3 5543  26.349  21.090   9.410
  152POPC   PO4 5544  26.134  20.490   9.648
  152POPC   GL1 5545  26.010  20.722   9.231
  152POPC   GL2 5546  26.334  20.804   9.010
  152POPC   C1A 5547  25.960  20.585   8.771
  152POPC   D2A 5548  26.196  20.656   8.353
  152POPC   C3A 5549  25.944  20.474   8.007
  152POPC   C4A 5550  26.006  20.211   7.662
  152POPC   C1B 5551  26.059  21.096   8.770
  152POPC   C2B 5552  25.907  21.065   8.339
  152POPC   C3B 5553  25.976  20.977   7.890
  152POPC   C4B 5554  26.088  20.683   7.542
  153POPC   NC3 5555  37.222   3.994   9.393
  153POPC   PO4 5556  36.714   4.486   9.705
  153POPC   GL1 5557  36.745   4.246   9.312
  153POPC   GL2 5558  36.708   3.879   9.333
  153POPC   C1A 5559  36.764   4.332   8.852
  153POPC   D2A 5560  37.003   4.385   8.452
  153POPC   C3A 5561  36.792   4.313   8.072
  153POPC   C4A 5562  37.014   4.430   7.739
  153POPC   C1B 5563  36.656   3.820   8.874
  153POPC   C2B 5564  36.618   3.996   8.446
  153POPC   C3B 5565  36.553   3.873   7.993
  153POPC   C4B 5566  36.583   4.083   7.601
  154POPC   NC3 5567  17.105   3.225   9.457
  154POPC   PO4 5568  16.753   3.831   9.543
  154POPC   GL1 5569  16.747   3.652   9.147
  154POPC   GL2 5570  16.516   3.382   9.144
  154POPC   C1A 5571  16.873   3.399   8.799
  154POPC   D2A 5572  16.979   3.330   8.388
  154POPC   C3A 5573  16.884   3.616   8.102
  154POPC   C4A 5574  16.783   3.616   7.652
  154POPC   C1B 5575  16.409   3.135   8.780
  154POPC   C2B 5576  16.255   3.196   8.364
  154POPC   C3B 5577  16.461   3.335   8.048
  154POPC   C4B 5578  16.481   3.221   7.668
  155POPC   NC3 5579  23.467  22.549   9.511
  155POPC   PO4 5580  23.788  22.042   9.480
  155POPC   GL1 5581  23.539  22.033   9.138
  155POPC   GL2 5582  23.604  22.359   9.046
  155POPC   C1A 5583  23.569  21.948   8.687
  155POPC   D2A 5584  23.928  21.926   8.344
  155POPC   C3A 5585  23.834  21.956   7.918
  155POPC   C4A 5586  23.443  21.842   7.862
  155POPC   C1B 5587  23.558  22.443   8.614
  155POPC   C2B 5588  23.527  22.257   8.187
  155POPC   C3B 5589  23.425  22.335   7.715
  155POPC   C4B 5590  23.335  22.367   7.246
  156POPC   NC3 5591  34.857  28.252   9.256
  156POPC   PO4 5592  34.186  28.133   9.424
  156POPC   GL1 5593  34.371  28.241   9.077
  156POPC   GL2 5594  34.434  28.552   9.180
  156POPC   C1A 5595  34.534  28.353   8.689
  156POPC   D2A 5596  34.499  28.179   8.301
  156POPC   C3A 5597  34.600  28.415   7.996
  156POPC   C4A 5598  34.592  28.276   7.587
  156POPC   C1B 5599  34.218  28.734   8.830
  156POPC   C2B 5600  34.339  28.722   8.391
  156POPC   C3B 5601  34.379  28.864   7.970
  156POPC   C4B 5602  34.337  28.724   7.550
  157POPC   NC3 5603  12.222  41.131   9.471
  157POPC   PO4 5604  11.830  40.648   9.784
  157POPC   GL1 5605  11.895  40.664   9.320
  157POPC   GL2 5606  11.732  40.335   9.202
  157POPC   C1A 5607  12.126  40.747   8.908
  157POPC   D2A 5608  12.250  40.453   8.562
  157POPC   C3A 5609  12.290  40.610   8.113
  157POPC   C4A 5610  12.256  40.877   7.760
  157POPC   C1B 5611  11.627  40.644   8.880
  157POPC   C2B 5612  11.737  40.863   8.513
  157POPC   C3B 5613  11.680  40.778   8.075
  157POPC   C4B 5614  11.890  40.513   7.785
  158POPC   NC3 5615  34.153  10.769   9.493
  158POPC   PO4 5616  34.751  10.342   9.629
  158POPC   GL1 5617  34.542  10.460   9.245
  158POPC   GL2 5618  34.481  10.781   9.120
  158POPC   C1A 5619  34.452  10.296   8.824
  158POPC   D2A 5620  34.280  10.314   8.419
  158POPC   C3A 5621  34.421  10.489   8.064
  158POPC   C4A 5622  34.486  10.327   7.667
  158POPC   C1B 5623  34.174  10.740   8.785
  158POPC   C2B 5624  34.030  10.762   8.352
  158POPC   C3B 5625  34.217  10.970   7.986
  158POPC   C4B 5626  34.554  10.837   7.701
  159POPC   NC3 5627   7.914  29.470   9.516
  159POPC   PO4 5628   8.109  30.132   9.562
  159POPC   GL1 5629   7.994  30.184   9.161
  159POPC   GL2 5630   7.930  29.828   9.141
  159POPC   C1A 5631   8.254  30.088   8.802
  159POPC   D2A 5632   8.217  29.898   8.395
  159POPC   C3A 5633   8.169  30.081   7.999
  159POPC   C4A 5634   7.838  30.324   7.825
  159POPC   C1B 5635   8.090  29.563   8.803
  159POPC   C2B 5636   8.437  29.457   8.516
  159POPC   C3B 5637   8.413  29.539   8.079
  159POPC   C4B 5638   8.008  29.584   7.888
  160POPC   NC3 5639  37.499  32.408   9.883
  160POPC   PO4 5640  37.820  31.794   9.834
  160POPC   GL1 5641  37.775  32.254   9.445
  160POPC   GL2 5642  37.462  32.373   9.250
  160POPC   C1A 5643  37.788  32.424   8.902
  160POPC   D2A 5644  37.530  32.474   8.526
  160POPC   C3A 5645  37.688  32.326   8.132
  160POPC   C4A 5646  37.586  32.343   7.702
  160POPC   C1B 5647  37.379  32.091   8.842
  160POPC   C2B 5648  37.378  31.769   8.469
  160POPC   C3B 5649  37.318  31.945   8.042
  160POPC   C4B 5650  37.358  31.918   7.611
  161POPC   NC3 5651  17.994  15.505   9.238
  161POPC   PO4 5652  18.261  14.996   9.632
  161POPC   GL1 5653  18.308  14.960   9.172
  161POPC   GL2 5654  18.447  15.259   9.180
  161POPC   C1A 5655  18.162  15.119   8.735
  161POPC   D2A 5656  18.076  15.141   8.314
  161POPC   C3A 5657  18.316  14.951   8.065
  161POPC   C4A 5658  18.111  14.902   7.720
  161POPC   C1B 5659  18.667  15.093   8.829
  161POPC   C2B 5660  18.636  15.201   8.424
  161POPC   C3B 5661  18.514  15.422   8.093
  161POPC   C4B 5662  18.442  15.277   7.678
  162POPC   NC3 5663  21.191  31.973   9.380
  162POPC   PO4 5664  20.661  32.434   9.323
  162POPC   GL1 5665  20.646  32.093   9.080
  162POPC   GL2 5666  20.315  31.982   8.949
  162POPC   C1A 5667  20.809  32.030   8.693
  162POPC   D2A 5668  20.685  31.780   8.404
  162POPC   C3A 5669  20.782  32.008   8.065
  162POPC   C4A 5670  20.896  32.449   7.943
  162POPC   C1B 5671  20.385  32.380   8.720
  162POPC   C2B 5672  20.629  32.526   8.386
  162POPC   C3B 5673  20.407  32.402   8.012
  162POPC   C4B 5674  20.517  32.178   7.649
  163POPC   NC3 5675   6.054  11.050   9.473
  163POPC   PO4 5676   5.653  11.610   9.433
  163POPC   GL1 5677   5.726  11.293   9.153
  163POPC   GL2 5678   6.055  11.482   9.102
  163POPC   C1A 5679   5.812  11.212   8.734
  163POPC   D2A 5680   5.996  11.505   8.449
  163POPC   C3A 5681   5.875  11.373   8.067
  163POPC   C4A 5682   6.069  11.462   7.700
  163POPC   C1B 5683   6.313  11.292   8.785
  163POPC   C2B 5684   6.369  11.170   8.339
  163POPC   C3B 5685   6.251  11.006   7.943
  163POPC   C4B 5686   6.158  11.035   7.461
  164POPC   NC3 5687  31.905  26.347   9.476
  164POPC   PO4 5688  32.594  26.129   9.553
  164POPC   GL1 5689  32.429  26.108   9.157
  164POPC   GL2 5690  32.089  25.947   9.163
  164POPC   C1A 5691  32.395  25.861   8.772
  164POPC   D2A 5692  32.179  25.915   8.396
  164POPC   C3A 5693  32.499  26.070   8.143
  164POPC   C4A 5694  32.469  26.100   7.722
  164POPC   C1B 5695  32.077  26.287   8.820
  164POPC   C2B 5696  32.254  26.459   8.427
  164POPC   C3B 5697  32.129  26.421   7.986
  164POPC   C4B 5698  31.949  26.353   7.567
  165POPC   NC3 5699  21.953   1.090   9.605
  165POPC   PO4 5700  22.614   1.312   9.489
  165POPC   GL1 5701  22.282   1.194   9.190
  165POPC   GL2 5702  21.921   1.318   9.155
  165POPC   C1A 5703  22.404   1.083   8.779
  165POPC   D2A 5704  22.245   0.987   8.397
  165POPC   C3A 5705  22.436   0.871   8.033
  165POPC   C4A 5706  22.190   0.940   7.685
  165POPC   C1B 5707  22.034   1.443   8.759
  165POPC   C2B 5708  22.129   1.490   8.334
  165POPC   C3B 5709  22.063   1.300   8.002
  165POPC   C4B 5710  21.932   1.410   7.597
  166POPC   NC3 5711  23.867   2.345   9.362
  166POPC   PO4 5712  23.378   1.944   9.325
  166POPC   GL1 5713  23.770   1.908   9.062
  166POPC   GL2 5714  23.998   1.605   9.117
  166POPC   C1A 5715  23.788   2.190   8.696
  166POPC   D2A 5716  23.520   2.296   8.351
  166POPC   C3A 5717  23.607   2.035   8.018
  166POPC   C4A 5718  23.493   1.854   7.641
  166POPC   C1B 5719  23.864   1.516   8.704
  166POPC   C2B 5720  23.927   1.682   8.304
  166POPC   C3B 5721  23.850   1.593   7.871
  166POPC   C4B 5722  23.944   1.725   7.420
  167POPC   NC3 5723  24.775  26.647   9.502
  167POPC   PO4 5724  24.151  26.938   9.459
  167POPC   GL1 5725  24.492  27.001   9.184
  167POPC   GL2 5726  24.457  26.677   9.103
  167POPC   C1A 5727  24.736  27.019   8.791
  167POPC   D2A 5728  24.597  26.822   8.392
  167POPC   C3A 5729  24.740  26.992   8.008
  167POPC   C4A 5730  24.659  26.767   7.667
  167POPC   C1B 5731  24.246  26.850   8.765
  167POPC   C2B 5732  24.084  26.732   8.384
  167POPC   C3B 5733  24.253  26.810   8.001
  167POPC   C4B 5734  24.234  27.246   7.932
  168POPC   NC3 5735  34.291  24.379   9.517
  168POPC   PO4 5736  34.988  24.575   9.590
  168POPC   GL1 5737  34.743  24.477   9.234
  168POPC   GL2 5738  34.420  24.608   9.078
  168POPC   C1A 5739  34.841  24.515   8.814
  168POPC   D2A 5740  34.597  24.485   8.445
  168POPC   C3A 5741  34.650  24.762   8.113
  168POPC   C4A 5742  34.789  24.509   7.794
  168POPC   C1B 5743  34.393  24.199   8.845
  168POPC   C2B 5744  34.337  24.039   8.424
  168POPC   C3B 5745  34.290  24.284   8.040
  168POPC   C4B 5746  34.402  24.257   7.585
  169POPC   NC3 5747  38.603  19.419   9.497
  169POPC   PO4 5748  37.970  19.325   9.274
  169POPC   GL1 5749  38.182  19.666   9.115
  169POPC   GL2 5750  38.454  19.923   9.192
  169POPC   C1A 5751  38.337  19.717   8.720
  169POPC   D2A 5752  38.319  19.927   8.365
  169POPC   C3A 5753  38.388  19.690   8.044
  169POPC   C4A 5754  38.289  20.032   7.787
  169POPC   C1B 5755  38.763  19.987   8.827
  169POPC   C2B 5756  38.825  19.891   8.369
  169POPC   C3B 5757  38.753  20.043   7.951
  169POPC   C4B 5758  38.749  20.087   7.413
  170POPC   NC3 5759   9.176  42.594   9.483
  170POPC   PO4 5760   8.890  42.012   9.546
  170POPC   GL1 5761   8.942  42.219   9.190
  170POPC   GL2 5762   9.188  41.997   9.101
  170POPC   C1A 5763   9.017  42.433   8.799
  170POPC   D2A 5764   9.071  42.341   8.363
  170POPC   C3A 5765   8.927  42.576   8.007
  170POPC   C4A 5766   9.139  42.614   7.604
  170POPC   C1B 5767   9.287  42.003   8.723
  170POPC   C2B 5768   9.163  41.829   8.380
  170POPC   C3B 5769   9.300  41.940   8.033
  170POPC   C4B 5770   9.214  41.781   7.703
  171POPC   NC3 5771  24.134  35.602   9.543
  171POPC   PO4 5772  24.582  35.201   9.456
  171POPC   GL1 5773  24.511  35.376   9.091
  171POPC   GL2 5774  24.170  35.387   9.084
  171POPC   C1A 5775  24.448  35.160   8.703
  171POPC   D2A 5776  24.656  35.052   8.331
  171POPC   C3A 5777  24.516  35.130   7.927
  171POPC   C4A 5778  24.769  35.230   7.592
  171POPC   C1B 5779  24.260  35.646   8.723
  171POPC   C2B 5780  24.423  35.526   8.344
  171POPC   C3B 5781  24.537  35.664   7.985
  171POPC   C4B 5782  24.341  35.512   7.612
  172POPC   NC3 5783  37.340  17.304   9.309
  172POPC   PO4 5784  37.794  17.796   9.521
  172POPC   GL1 5785  37.792  17.537   9.131
  172POPC   GL2 5786  37.799  17.189   9.129
  172POPC   C1A 5787  37.986  17.507   8.705
  172POPC   D2A 5788  37.819  17.730   8.345
  172POPC   C3A 5789  37.942  17.753   7.933
  172POPC   C4A 5790  37.543  17.829   7.759
  172POPC   C1B 5791  37.582  17.166   8.728
  172POPC   C2B 5792  37.697  17.201   8.295
  172POPC   C3B 5793  37.640  17.334   7.855
  172POPC   C4B 5794  37.466  17.263   7.452
  173POPC   NC3 5795  22.901  26.228   9.637
  173POPC   PO4 5796  23.058  25.580   9.572
  173POPC   GL1 5797  22.817  25.873   9.271
  173POPC   GL2 5798  23.109  26.078   9.180
  173POPC   C1A 5799  22.659  26.028   8.847
  173POPC   D2A 5800  22.650  26.229   8.430
  173POPC   C3A 5801  22.848  26.065   8.062
  173POPC   C4A 5802  22.732  25.821   7.667
  173POPC   C1B 5803  23.097  25.775   8.833
  173POPC   C2B 5804  23.188  25.879   8.396
  173POPC   C3B 5805  23.170  25.688   7.978
  173POPC   C4B 5806  23.293  25.836   7.597
  174POPC   NC3 5807  35.070   9.949   9.536
  174POPC   PO4 5808  35.668   9.537   9.471
  174POPC   GL1 5809  35.453   9.748   9.176
  174POPC   GL2 5810  35.130   9.629   9.149
  174POPC   C1A 5811  35.388   9.833   8.729
  174POPC   D2A 5812  35.570   9.604   8.385
  174POPC   C3A 5813  35.614   9.737   7.944
  174POPC   C4A 5814  35.416   9.517   7.575
  174POPC   C1B 5815  34.939   9.564   8.773
  174POPC   C2B 5816  35.066   9.601   8.348
  174POPC   C3B 5817  35.111   9.761   7.910
  174POPC   C4B 5818  35.096  10.084   7.540
  175POPC   NC3 5819  44.152  27.744   9.562
  175POPC   PO4 5820  43.594  27.484   9.527
  175POPC   GL1 5821  43.945  27.396   9.232
  175POPC   GL2 5822  43.859  27.135   8.999
  175POPC   C1A 5823  44.212  27.497   8.851
  175POPC   D2A 5824  44.124  27.541   8.418
  175POPC   C3A 5825  44.208  27.327   8.033
  175POPC   C4A 5826  44.103  27.542   7.633
  175POPC   C1B 5827  43.696  27.531   8.789
  175POPC   C2B 5828  43.650  27.749   8.378
  175POPC   C3B 5829  43.663  27.657   7.923
  175POPC   C4B 5830  43.351  27.689   7.567
  176POPC   NC3 5831   6.749  27.225   9.849
  176POPC   PO4 5832   6.870  26.590   9.677
  176POPC   GL1 5833   6.788  26.769   9.316
  176POPC   GL2 5834   7.054  26.615   9.164
  176POPC   C1A 5835   6.581  26.696   8.910
  176POPC   D2A 5836   6.290  26.681   8.564
  176POPC   C3A 5837   6.436  26.731   8.146
  176POPC   C4A 5838   6.560  26.494   7.789
  176POPC   C1B 5839   7.054  26.900   8.842
  176POPC   C2B 5840   6.854  26.825   8.447
  176POPC   C3B 5841   7.014  26.627   8.066
  176POPC   C4B 5842   6.994  26.700   7.663
  177POPC   NC3 5843  26.468  40.750   9.467
  177POPC   PO4 5844  25.791  40.755   9.621
  177POPC   GL1 5845  26.021  40.958   9.245
  177POPC   GL2 5846  26.222  40.707   9.027
  177POPC   C1A 5847  26.077  41.139   8.812
  177POPC   D2A 5848  26.166  40.897   8.450
  177POPC   C3A 5849  26.044  41.042   8.041
  177POPC   C4A 5850  26.158  40.786   7.680
  177POPC   C1B 5851  25.803  40.697   8.798
  177POPC   C2B 5852  25.586  40.601   8.382
  177POPC   C3B 5853  25.811  40.562   8.008
  177POPC   C4B 5854  25.774  40.451   7.586
  178POPC   NC3 5855   1.301   9.411   9.620
  178POPC   PO4 5856   1.329   8.755   9.650
  178POPC   GL1 5857   1.346   8.935   9.248
  178POPC   GL2 5858   1.304   8.611   9.139
  178POPC   C1A 5859   1.125   9.071   8.849
  178POPC   D2A 5860   1.029   8.909   8.440
  178POPC   C3A 5861   1.086   9.064   8.033
  178POPC   C4A 5862   0.841   9.149   7.672
  178POPC   C1B 5863   1.318   8.555   8.723
  178POPC   C2B 5864   1.477   8.696   8.352
  178POPC   C3B 5865   1.559   8.861   7.983
  178POPC   C4B 5866   1.300   8.735   7.685
  179POPC   NC3 5867  38.990  25.229   9.493
  179POPC   PO4 5868  39.760  25.234   9.388
  179POPC   GL1 5869  39.419  25.254   9.195
  179POPC   GL2 5870  39.285  25.548   9.190
  179POPC   C1A 5871  39.171  25.100   8.875
  179POPC   D2A 5872  39.026  25.196   8.498
  179POPC   C3A 5873  39.172  25.028   8.129
  179POPC   C4A 5874  39.247  25.109   7.709
  179POPC   C1B 5875  39.390  25.581   8.761
  179POPC   C2B 5876  39.474  25.415   8.356
  179POPC   C3B 5877  39.359  25.526   7.958
  179POPC   C4B 5878  39.498  25.780   7.631
  180POPC   NC3 5879  39.528  15.490   9.416
  180POPC   PO4 5880  39.130  15.014   9.187
  180POPC   GL1 5881  39.377  15.225   8.989
  180POPC   GL2 5882  39.710  15.219   9.035
  180POPC   C1A 5883  39.426  15.154   8.583
  180POPC   D2A 5884  39.105  15.167   8.317
  180POPC   C3A 5885  39.153  14.870   8.047
  180POPC   C4A 5886  39.416  14.840   7.724
  180POPC   C1B 5887  39.592  15.601   8.761
  180POPC   C2B 5888  39.696  15.525   8.379
  180POPC   C3B 5889  39.552  15.278   8.044
  180POPC   C4B 5890  39.175  15.378   7.816
  181POPC   NC3 5891  35.947  23.220   9.498
  181POPC   PO4 5892  36.291  22.776   9.401
  181POPC   GL1 5893  36.317  23.094   9.097
  181POPC   GL2 5894  35.965  23.221   9.004
  181POPC   C1A 5895  36.244  22.971   8.671
  181POPC   D2A 5896  36.046  23.133   8.309
  181POPC   C3A 5897  36.341  23.071   7.964
  181POPC   C4A 5898  36.519  22.783   7.645
  181POPC   C1B 5899  35.671  23.370   8.646
  181POPC   C2B 5900  35.627  23.405   8.188
  181POPC   C3B 5901  35.860  23.220   7.817
  181POPC   C4B 5902  35.838  23.331   7.371
  182POPC   NC3 5903  24.487   2.414   9.471
  182POPC   PO4 5904  24.040   1.925   9.504
  182POPC   GL1 5905  24.388   1.969   9.188
  182POPC   GL2 5906  24.235   2.250   9.022
  182POPC   C1A 5907  24.656   2.084   8.766
  182POPC   D2A 5908  24.735   2.333   8.336
  182POPC   C3A 5909  24.607   2.188   7.873
  182POPC   C4A 5910  24.728   2.399   7.459
  182POPC   C1B 5911  24.198   1.898   8.724
  182POPC   C2B 5912  24.359   1.963   8.316
  182POPC   C3B 5913  24.145   2.009   7.954
  182POPC   C4B 5914  24.343   1.690   7.742
  183POPC   NC3 5915  18.619   6.992   9.510
  183POPC   PO4 5916  17.979   7.092   9.378
  183POPC   GL1 5917  18.333   7.339   9.128
  183POPC   GL2 5918  18.376   7.727   9.109
  183POPC   C1A 5919  18.387   7.418   8.661
  183POPC   D2A 5920  18.487   7.172   8.254
  183POPC   C3A 5921  18.266   7.348   7.889
  183POPC   C4A 5922  17.997   7.724   7.767
  183POPC   C1B 5923  18.630   7.877   8.727
  183POPC   C2B 5924  18.609   7.925   8.276
  183POPC   C3B 5925  18.703   7.709   7.884
  183POPC   C4B 5926  18.677   7.384   7.584
  184POPC   NC3 5927  18.076   4.473   9.532
  184POPC   PO4 5928  18.732   4.643   9.450
  184POPC   GL1 5929  18.428   4.416   9.134
  184POPC   GL2 5930  18.079   4.199   9.110
  184POPC   C1A 5931  18.401   4.350   8.682
  184POPC   D2A 5932  18.239   4.548   8.311
  184POPC   C3A 5933  18.443   4.526   7.905
  184POPC   C4A 5934  18.338   4.480   7.431
  184POPC   C1B 5935  17.984   4.041   8.739
  184POPC   C2B 5936  18.189   4.008   8.367
  184POPC   C3B 5937  18.506   4.070   8.128
  184POPC   C4B 5938  18.401   4.058   7.708
  185POPC   NC3 5939   6.576  11.829   9.470
  185POPC   PO4 5940   7.078  12.302   9.476
  185POPC   GL1 5941   6.777  12.142   9.106
  185POPC   GL2 5942   6.788  11.774   9.021
  185POPC   C1A 5943   6.801  12.070   8.604
  185POPC   D2A 5944   6.934  12.400   8.304
  185POPC   C3A 5945   6.889  12.290   7.893
  185POPC   C4A 5946   7.012  11.834   7.813
  185POPC   C1B 5947   6.391  11.803   8.822
  185POPC   C2B 5948   6.258  12.001   8.437
  185POPC   C3B 5949   6.513  11.999   8.051
  185POPC   C4B 5950   6.539  11.807   7.607
  186POPC   NC3 5951  11.144  23.579   9.544
  186POPC   PO4 5952  11.760  23.791   9.705
  186POPC   GL1 5953  11.546  23.687   9.258
  186POPC   GL2 5954  11.226  23.886   9.133
  186POPC   C1A 5955  11.346  23.444   8.886
  186POPC   D2A 5956  11.431  23.435   8.423
  186POPC   C3A 5957  11.212  23.583   8.014
  186POPC   C4A 5958  10.860  23.584   7.735
  186POPC   C1B 5959  11.414  23.910   8.695
  186POPC   C2B 5960  11.538  23.906   8.231
  186POPC   C3B 5961  11.470  24.017   7.778
  186POPC   C4B 5962  11.788  23.932   7.409
  187POPC   NC3 5963  17.114  38.344   9.330
  187POPC   PO4 5964  17.804  38.579   9.464
  187POPC   GL1 5965  17.600  38.509   9.114
  187POPC   GL2 5966  17.559  38.163   9.097
  187POPC   C1A 5967  17.612  38.731   8.733
  187POPC   D2A 5968  17.496  38.565   8.349
  187POPC   C3A 5969  17.714  38.568   7.998
  187POPC   C4A 5970  17.624  38.507   7.615
  187POPC   C1B 5971  17.403  38.197   8.698
  187POPC   C2B 5972  17.289  38.079   8.284
  187POPC   C3B 5973  17.234  38.319   7.923
  187POPC   C4B 5974  17.327  38.110   7.538
  188POPC   NC3 5975  14.943  41.339   9.446
  188POPC   PO4 5976  15.003  41.938   9.692
  188POPC   GL1 5977  15.181  41.751   9.236
  188POPC   GL2 5978  15.444  41.486   9.300
  188POPC   C1A 5979  14.975  41.709   8.760
  188POPC   D2A 5980  14.758  41.741   8.353
  188POPC   C3A 5981  15.006  41.644   8.012
  188POPC   C4A 5982  15.085  41.800   7.607
  188POPC   C1B 5983  15.267  41.338   8.896
  188POPC   C2B 5984  15.230  41.383   8.433
  188POPC   C3B 5985  15.491  41.512   8.092
  188POPC   C4B 5986  15.449  41.443   7.661
  189POPC   NC3 5987  27.334  22.317   9.468
  189POPC   PO4 5988  27.553  21.682   9.578
  189POPC   GL1 5989  27.368  21.876   9.200
  189POPC   GL2 5990  27.548  22.094   9.032
  189POPC   C1A 5991  27.149  21.858   8.815
  189POPC   D2A 5992  27.122  21.933   8.391
  189POPC   C3A 5993  27.259  22.307   8.141
  189POPC   C4A 5994  27.483  22.255   7.733
  189POPC   C1B 5995  27.366  22.343   8.709
  189POPC   C2B 5996  27.538  22.658   8.440
  189POPC   C3B 5997  27.719  22.635   8.019
  189POPC   C4B 5998  28.042  22.682   7.743
  190POPC   NC3 5999  37.870  28.969   9.379
  190POPC   PO4 6000  37.302  29.537   9.455
  190POPC   GL1 6001  37.552  29.290   9.168
  190POPC   GL2 6002  37.922  29.347   9.009
  190POPC   C1A 6003  37.601  29.057   8.782
  190POPC   D2A 6004  37.794  29.180   8.405
  190POPC   C3A 6005  37.640  28.911   8.158
  190POPC   C4A 6006  37.373  28.951   7.839
  190POPC   C1B 6007  38.121  28.979   8.741
  190POPC   C2B 6008  38.142  28.772   8.309
  190POPC   C3B 6009  38.048  28.900   7.865
  190POPC   C4B 6010  37.820  29.274   7.814
  191POPC   NC3 6011   7.568  31.162   9.697
  191POPC   PO4 6012   7.240  30.621   9.488
  191POPC   GL1 6013   7.296  30.527   9.065
  191POPC   GL2 6014   7.640  30.552   9.030
  191POPC   C1A 6015   7.368  30.381   8.651
  191POPC   D2A 6016   7.275  30.563   8.274
  191POPC   C3A 6017   7.299  30.385   7.871
  191POPC   C4A 6018   7.535  30.664   7.602
  191POPC   C1B 6019   7.677  30.823   8.635
  191POPC   C2B 6020   7.778  31.087   8.259
  191POPC   C3B 6021   7.773  31.077   7.797
  191POPC   C4B 6022   7.822  30.964   7.307
  192POPC   NC3 6023  29.880  41.795   9.529
  192POPC   PO4 6024  29.791  41.236   9.321
  192POPC   GL1 6025  29.852  41.414   9.002
  192POPC   GL2 6026  29.692  41.719   9.075
  192POPC   C1A 6027  30.150  41.364   8.713
  192POPC   D2A 6028  30.405  41.630   8.551
  192POPC   C3A 6029  30.372  41.462   8.190
  192POPC   C4A 6030  30.096  41.395   7.857
  192POPC   C1B 6031  29.904  41.811   8.687
  192POPC   C2B 6032  29.934  41.704   8.270
  192POPC   C3B 6033  29.691  41.742   7.897
  192POPC   C4B 6034  29.899  41.907   7.538
  193POPC   NC3 6035  39.325  10.058   9.599
  193POPC   PO4 6036  39.226   9.448   9.544
  193POPC   GL1 6037  39.527   9.690   9.231
  193POPC   GL2 6038  39.493  10.062   9.106
  193POPC   C1A 6039  39.539   9.617   8.784
  193POPC   D2A 6040  39.288   9.813   8.436
  193POPC   C3A 6041  39.087   9.623   8.061
  193POPC   C4A 6042  38.797   9.762   7.738
  193POPC   C1B 6043  39.710  10.093   8.681
  193POPC   C2B 6044  39.777   9.857   8.301
  193POPC   C3B 6045  39.517   9.870   7.930
  193POPC   C4B 6046  39.224  10.069   7.650
  194POPC   NC3 6047  41.722  42.538   9.605
  194POPC   PO4 6048  41.296  42.063   9.464
  194POPC   GL1 6049  41.640  42.243   9.194
  194POPC   GL2 6050  41.680  42.576   9.106
  194POPC   C1A 6051  41.797  42.117   8.815
  194POPC   D2A 6052  41.616  42.062   8.435
  194POPC   C3A 6053  41.813  42.178   8.038
  194POPC   C4A 6054  41.573  42.209   7.646
  194POPC   C1B 6055  41.722  42.613   8.706
  194POPC   C2B 6056  41.508  42.558   8.350
  194POPC   C3B 6057  41.633  42.633   7.938
  194POPC   C4B 6058  41.853  42.663   7.542
  195POPC   NC3 6059   5.737  24.881   9.234
  195POPC   PO4 6060   5.697  25.487   9.494
  195POPC   GL1 6061   5.696  25.349   9.056
  195POPC   GL2 6062   5.441  25.089   8.890
  195POPC   C1A 6063   5.877  25.254   8.665
  195POPC   D2A 6064   5.826  25.529   8.341
  195POPC   C3A 6065   6.003  25.494   7.977
  195POPC   C4A 6066   6.064  25.267   7.632
  195POPC   C1B 6067   5.463  24.977   8.500
  195POPC   C2B 6068   5.766  25.038   8.198
  195POPC   C3B 6069   5.775  24.880   7.816
  195POPC   C4B 6070   5.495  24.850   7.540
  196POPC   NC3 6071   7.122  22.710   9.539
  196POPC   PO4 6072   7.733  22.964   9.482
  196POPC   GL1 6073   7.444  22.847   9.148
  196POPC   GL2 6074   7.134  23.016   9.139
  196POPC   C1A 6075   7.406  22.846   8.696
  196POPC   D2A 6076   7.755  22.909   8.395
  196POPC   C3A 6077   7.720  22.772   7.985
  196POPC   C4A 6078   7.435  22.871   7.672
  196POPC   C1B 6079   6.856  23.070   8.861
  196POPC   C2B 6080   6.946  22.973   8.489
  196POPC   C3B 6081   7.247  23.021   8.170
  196POPC   C4B 6082   7.042  23.122   7.813
  197POPC   NC3 6083   7.893  44.817   9.450
  197POPC   PO4 6084   8.178   0.418   9.588
  197POPC   GL1 6085   8.274   0.372   9.151
  197POPC   GL2 6086   8.522   0.663   9.147
  197POPC   C1A 6087   8.212   0.228   8.706
  197POPC   D2A 6088   8.097   0.005   8.306
  197POPC   C3A 6089   8.301   0.211   7.943
  197POPC   C4A 6090   8.295   0.205   7.473
  197POPC   C1B 6091   8.283   0.721   8.767
  197POPC   C2B 6092   8.342   0.677   8.387
  197POPC   C3B 6093   8.154   0.685   8.039
  197POPC   C4B 6094   8.338   0.698   7.658
  198POPC   NC3 6095  33.976  42.870   9.387
  198POPC   PO4 6096  34.151  42.245   9.652
  198POPC   GL1 6097  33.880  42.224   9.247
  198POPC   GL2 6098  33.887  42.516   9.054
  198POPC   C1A 6099  33.709  42.135   8.779
  198POPC   D2A 6100  33.896  42.035   8.351
  198POPC   C3A 6101  33.761  42.156   7.921
  198POPC   C4A 6102  33.947  42.318   7.545
  198POPC   C1B 6103  33.888  42.660   8.649
  198POPC   C2B 6104  33.780  42.544   8.249
  198POPC   C3B 6105  33.941  42.718   7.889
  198POPC   C4B 6106  33.903  42.823   7.479
  199POPC   NC3 6107   9.585  34.632   9.478
  199POPC   PO4 6108   9.993  35.157   9.572
  199POPC   GL1 6109   9.981  34.855   9.214
  199POPC   GL2 6110   9.815  34.550   9.054
  199POPC   C1A 6111  10.076  34.931   8.783
  199POPC   D2A 6112  10.182  34.749   8.362
  199POPC   C3A 6113   9.933  34.445   8.106
  199POPC   C4A 6114   9.820  34.647   7.715
  199POPC   C1B 6115   9.815  34.513   8.649
  199POPC   C2B 6116   9.596  34.736   8.353
  199POPC   C3B 6117   9.421  34.545   8.046
  199POPC   C4B 6118   9.277  34.410   7.705
  200POPC   NC3 6119  39.470  29.370   9.389
  200POPC   PO4 6120  39.031  28.954   9.565
  200POPC   GL1 6121  39.158  29.031   9.141
  200POPC   GL2 6122  39.486  28.836   9.139
  200POPC   C1A 6123  39.012  29.190   8.730
  200POPC   D2A 6124  38.851  29.377   8.349
  200POPC   C3A 6125  38.973  29.137   7.992
  200POPC   C4A 6126  39.326  28.886   7.844
  200POPC   C1B 6127  39.534  29.103   8.754
  200POPC   C2B 6128  39.370  29.228   8.333
  200POPC   C3B 6129  39.493  29.357   7.918
  200POPC   C4B 6130  39.791  29.059   7.713
  201POPC   NC3 6131  15.404  36.843   9.551
  201POPC   PO4 6132  14.754  36.842   9.479
  201POPC   GL1 6133  14.981  37.052   9.104
  201POPC   GL2 6134  15.345  37.006   9.078
  201POPC   C1A 6135  15.126  37.244   8.674
  201POPC   D2A 6136  15.171  37.280   8.191
  201POPC   C3A 6137  15.154  36.854   7.967
  201POPC   C4A 6138  15.146  36.425   7.785
  201POPC   C1B 6139  15.607  36.888   8.738
  201POPC   C2B 6140  15.586  36.817   8.309
  201POPC   C3B 6141  15.775  37.041   7.998
  201POPC   C4B 6142  15.480  37.193   7.773
  202POPC   NC3 6143  40.674  13.953   9.553
  202POPC   PO4 6144  40.914  13.356   9.421
  202POPC   GL1 6145  40.856  13.640   9.092
  202POPC   GL2 6146  41.165  13.561   8.919
  202POPC   C1A 6147  40.746  13.685   8.638
  202POPC   D2A 6148  41.122  13.653   8.382
  202POPC   C3A 6149  41.035  13.504   7.978
  202POPC   C4A 6150  40.688  13.562   7.737
  202POPC   C1B 6151  41.092  14.007   8.784
  202POPC   C2B 6152  40.975  14.157   8.358
  202POPC   C3B 6153  41.134  14.017   7.994
  202POPC   C4B 6154  41.080  13.872   7.618
  203POPC   NC3 6155   8.107  22.729   9.369
  203POPC   PO4 6156   8.724  23.086   9.526
  203POPC   GL1 6157   8.442  23.170   9.165
  203POPC   GL2 6158   8.074  23.202   9.176
  203POPC   C1A 6159   8.596  23.154   8.740
  203POPC   D2A 6160   8.553  22.749   8.536
  203POPC   C3A 6161   8.268  22.735   8.220
  203POPC   C4A 6162   8.304  22.955   7.845
  203POPC   C1B 6163   8.099  23.016   8.767
  203POPC   C2B 6164   8.166  23.224   8.376
  203POPC   C3B 6165   7.914  23.251   7.999
  203POPC   C4B 6166   7.874  23.067   7.575
  204POPC   NC3 6167  15.418  42.120   9.535
  204POPC   PO4 6168  14.764  42.041   9.238
  204POPC   GL1 6169  15.192  42.262   9.098
  204POPC   GL2 6170  15.515  42.497   9.149
  204POPC   C1A 6171  15.373  42.309   8.692
  204POPC   D2A 6172  15.090  42.444   8.364
  204POPC   C3A 6173  14.907  42.166   8.082
  204POPC   C4A 6174  14.982  42.289   7.675
  204POPC   C1B 6175  15.565  42.775   8.779
  204POPC   C2B 6176  15.542  42.658   8.328
  204POPC   C3B 6177  15.396  42.534   7.892
  204POPC   C4B 6178  15.466  42.236   7.551
  205POPC   NC3 6179  10.360  10.307   9.530
  205POPC   PO4 6180  10.348  10.889   9.325
  205POPC   GL1 6181  10.484  10.552   9.060
  205POPC   GL2 6182  10.833  10.414   9.028
  205POPC   C1A 6183  10.604  10.709   8.662
  205POPC   D2A 6184  10.513  10.980   8.329
  205POPC   C3A 6185  10.316  10.781   7.988
  205POPC   C4A 6186  10.322  10.596   7.561
  205POPC   C1B 6187  10.658  10.210   8.683
  205POPC   C2B 6188  10.699  10.406   8.262
  205POPC   C3B 6189  10.736  10.514   7.837
  205POPC   C4B 6190  10.803  10.277   7.464
  206POPC   NC3 6191  12.639   7.840   9.467
  206POPC   PO4 6192  12.712   7.279   9.730
  206POPC   GL1 6193  12.835   7.379   9.272
  206POPC   GL2 6194  13.062   7.130   9.176
  206POPC   C1A 6195  12.677   7.595   8.866
  206POPC   D2A 6196  12.851   7.523   8.431
  206POPC   C3A 6197  12.651   7.523   8.017
  206POPC   C4A 6198  12.768   7.441   7.556
  206POPC   C1B 6199  12.847   7.122   8.781
  206POPC   C2B 6200  12.912   6.977   8.379
  206POPC   C3B 6201  12.785   7.022   7.958
  206POPC   C4B 6202  13.076   7.043   7.617
  207POPC   NC3 6203  26.488   3.512   9.492
  207POPC   PO4 6204  25.899   3.193   9.513
  207POPC   GL1 6205  26.049   3.455   9.209
  207POPC   GL2 6206  25.788   3.648   9.067
  207POPC   C1A 6207  26.192   3.441   8.778
  207POPC   D2A 6208  26.115   3.678   8.396
  207POPC   C3A 6209  26.307   3.535   8.014
  207POPC   C4A 6210  26.125   3.763   7.660
  207POPC   C1B 6211  25.679   3.304   8.818
  207POPC   C2B 6212  25.840   3.233   8.364
  207POPC   C3B 6213  25.811   3.464   7.944
  207POPC   C4B 6214  25.710   3.517   7.464
  208POPC   NC3 6215  28.600  34.919   9.496
  208POPC   PO4 6216  27.992  34.670   9.470
  208POPC   GL1 6217  28.235  34.496   9.143
  208POPC   GL2 6218  28.609  34.469   9.217
  208POPC   C1A 6219  28.433  34.723   8.807
  208POPC   D2A 6220  28.577  34.575   8.418
  208POPC   C3A 6221  28.562  34.848   8.104
  208POPC   C4A 6222  28.181  34.787   7.846
  208POPC   C1B 6223  28.592  34.230   8.807
  208POPC   C2B 6224  28.698  34.031   8.415
  208POPC   C3B 6225  28.639  34.239   8.026
  208POPC   C4B 6226  28.261  34.256   7.790
  209POPC   NC3 6227   8.738  34.189   9.547
  209POPC   PO4 6228   8.966  33.578   9.697
  209POPC   GL1 6229   9.018  33.625   9.237
  209POPC   GL2 6230   8.827  33.923   9.134
  209POPC   C1A 6231   9.138  33.702   8.801
  209POPC   D2A 6232   9.060  34.016   8.488
  209POPC   C3A 6233   9.118  33.831   8.085
  209POPC   C4A 6234   8.939  33.555   7.762
  209POPC   C1B 6235   8.614  33.782   8.775
  209POPC   C2B 6236   8.701  33.605   8.374
  209POPC   C3B 6237   8.597  33.831   8.021
  209POPC   C4B 6238   8.492  33.844   7.585
  210POPC   NC3 6239  14.651  10.952   9.226
  210POPC   PO4 6240  14.396  11.509   9.640
  210POPC   GL1 6241  14.230  11.561   9.201
  210POPC   GL2 6242  14.217  11.217   9.148
  210POPC   C1A 6243  14.296  11.678   8.712
  210POPC   D2A 6244  14.565  11.730   8.313
  210POPC   C3A 6245  14.421  11.546   7.902
  210POPC   C4A 6246  14.616  11.178   7.717
  210POPC   C1B 6247  14.135  11.195   8.713
  210POPC   C2B 6248  14.199  11.261   8.270
  210POPC   C3B 6249  14.217  10.946   7.914
  210POPC   C4B 6250  14.244  10.916   7.446
  211POPC   NC3 6251  24.981   1.247   9.517
  211POPC   PO4 6252  25.669   1.550   9.534
  211POPC   GL1 6253  25.540   1.321   9.154
  211POPC   GL2 6254  25.212   1.222   9.078
  211POPC   C1A 6255  25.588   1.206   8.715
  211POPC   D2A 6256  25.567   1.141   8.287
  211POPC   C3A 6257  25.199   1.088   8.048
  211POPC   C4A 6258  25.493   1.186   7.751
  211POPC   C1B 6259  25.216   1.551   8.789
  211POPC   C2B 6260  25.161   1.488   8.396
  211POPC   C3B 6261  25.288   1.573   8.022
  211POPC   C4B 6262  25.111   1.510   7.630
  212POPC   NC3 6263  20.477  31.283   9.499
  212POPC   PO4 6264  21.094  31.587   9.627
  212POPC   GL1 6265  20.783  31.610   9.264
  212POPC   GL2 6266  20.939  31.685   9.022
  212POPC   C1A 6267  20.490  31.504   8.857
  212POPC   D2A 6268  20.333  31.429   8.404
  212POPC   C3A 6269  20.480  31.560   7.989
  212POPC   C4A 6270  20.497  31.270   7.662
  212POPC   C1B 6271  20.964  31.437   8.684
  212POPC   C2B 6272  20.777  31.209   8.359
  212POPC   C3B 6273  20.908  31.283   7.963
  212POPC   C4B 6274  20.999  31.600   7.788
  213POPC   NC3 6275   5.914  14.202   9.703
  213POPC   PO4 6276   6.265  14.696   9.388
  213POPC   GL1 6277   5.999  14.806   9.102
  213POPC   GL2 6278   5.676  14.651   9.177
  213POPC   C1A 6279   5.883  14.703   8.697
  213POPC   D2A 6280   5.715  14.677   8.324
  213POPC   C3A 6281   6.066  14.532   7.998
  213POPC   C4A 6282   6.244  14.566   7.573
  213POPC   C1B 6283   5.522  14.349   8.851
  213POPC   C2B 6284   5.587  14.208   8.420
  213POPC   C3B 6285   5.622  14.303   7.985
  213POPC   C4B 6286   5.624  14.192   7.551
  214POPC   NC3 6287  15.966  41.223   9.474
  214POPC   PO4 6288  15.798  41.840   9.484
  214POPC   GL1 6289  16.048  41.632   9.172
  214POPC   GL2 6290  15.819  41.515   8.948
  214POPC   C1A 6291  16.321  41.496   8.830
  214POPC   D2A 6292  16.144  41.523   8.445
  214POPC   C3A 6293  16.299  41.331   8.066
  214POPC   C4A 6294  15.954  41.393   7.803
  214POPC   C1B 6295  15.483  41.788   8.778
  214POPC   C2B 6296  15.265  41.913   8.389
  214POPC   C3B 6297  15.376  42.003   7.987
  214POPC   C4B 6298  15.725  41.858   7.747
  215POPC   NC3 6299  44.871  38.827   9.846
  215POPC   PO4 6300  44.550  39.367   9.569
  215POPC   GL1 6301  44.625  39.244   9.170
  215POPC   GL2 6302  44.943  39.168   9.257
  215POPC   C1A 6303  44.432  39.206   8.742
  215POPC   D2A 6304  44.262  39.338   8.338
  215POPC   C3A 6305  44.510  39.090   8.050
  215POPC   C4A 6306  44.619  39.201   7.649
  215POPC   C1B 6307  44.966  39.196   8.802
  215POPC   C2B 6308  44.925  39.355   8.340
  215POPC   C3B 6309   0.038  39.277   7.881
  215POPC   C4B 6310   0.035  39.216   7.361
  216POPC   NC3 6311  35.149  31.638   9.552
  216POPC   PO4 6312  35.492  31.096   9.597
  216POPC   GL1 6313  35.513  31.363   9.280
  216POPC   GL2 6314  35.200  31.355   9.135
  216POPC   C1A 6315  35.606  31.364   8.842
  216POPC   D2A 6316  35.422  31.408   8.451
  216POPC   C3A 6317  35.663  31.562   8.151
  216POPC   C4A 6318  35.559  31.462   7.742
  216POPC   C1B 6319  35.169  31.663   8.818
  216POPC   C2B 6320  35.019  31.716   8.388
  216POPC   C3B 6321  35.188  31.760   7.995
  216POPC   C4B 6322  35.556  31.969   7.876
  217POPC   NC3 6323  44.219   2.443   9.478
  217POPC   PO4 6324  43.965   1.788   9.316
  217POPC   GL1 6325  43.789   2.000   9.036
  217POPC   GL2 6326  43.609   2.322   9.152
  217POPC   C1A 6327  43.583   1.808   8.687
  217POPC   D2A 6328  43.485   1.925   8.269
  217POPC   C3A 6329  43.848   1.763   8.019
  217POPC   C4A 6330  43.894   1.639   7.592
  217POPC   C1B 6331  43.662   2.317   8.686
  217POPC   C2B 6332  43.747   2.472   8.307
  217POPC   C3B 6333  43.709   2.244   7.939
  217POPC   C4B 6334  43.465   1.923   7.709
  218POPC   NC3 6335  31.099   3.393   9.572
  218POPC   PO4 6336  31.649   3.834   9.448
  218POPC   GL1 6337  31.442   3.549   9.194
  218POPC   GL2 6338  31.241   3.748   9.041
  218POPC   C1A 6339  31.392   3.223   8.859
  218POPC   D2A 6340  31.264   3.234   8.420
  218POPC   C3A 6341  31.245   3.385   7.984
  218POPC   C4A 6342  31.485   3.357   7.603
  218POPC   C1B 6343  31.383   3.698   8.653
  218POPC   C2B 6344  31.568   3.675   8.255
  218POPC   C3B 6345  31.505   3.806   7.831
  218POPC   C4B 6346  31.515   3.831   7.378
  219POPC   NC3 6347  40.163  37.640   9.688
  219POPC   PO4 6348  39.944  38.367   9.704
  219POPC   GL1 6349  39.809  38.052   9.273
  219POPC   GL2 6350  40.024  37.765   9.241
  219POPC   C1A 6351  39.759  37.801   8.839
  219POPC   D2A 6352  39.807  37.952   8.426
  219POPC   C3A 6353  39.847  37.770   8.023
  219POPC   C4A 6354  40.146  38.036   7.757
  219POPC   C1B 6355  40.194  37.523   8.901
  219POPC   C2B 6356  40.070  37.446   8.465
  219POPC   C3B 6357  40.144  37.335   8.030
  219POPC   C4B 6358  40.240  37.532   7.651
  220POPC   NC3 6359  32.716  30.728   9.500
  220POPC   PO4 6360  33.176  30.225   9.617
  220POPC   GL1 6361  33.160  30.438   9.177
  220POPC   GL2 6362  33.071  30.775   9.137
  220POPC   C1A 6363  32.974  30.477   8.727
  220POPC   D2A 6364  32.641  30.476   8.401
  220POPC   C3A 6365  32.844  30.498   8.005
  220POPC   C4A 6366  33.193  30.511   7.727
  220POPC   C1B 6367  32.750  30.917   8.853
  220POPC   C2B 6368  32.827  31.008   8.432
  220POPC   C3B 6369  32.723  31.129   8.035
  220POPC   C4B 6370  32.806  30.889   7.667
  221POPC   NC3 6371  19.576  34.019   9.356
  221POPC   PO4 6372  20.212  34.114   9.648
  221POPC   GL1 6373  20.044  34.129   9.163
  221POPC   GL2 6374  19.890  33.795   9.000
  221POPC   C1A 6375  19.887  34.162   8.688
  221POPC   D2A 6376  19.609  33.947   8.377
  221POPC   C3A 6377  19.736  33.992   7.945
  221POPC   C4A 6378  19.804  33.878   7.515
  221POPC   C1B 6379  19.531  33.640   8.800
  221POPC   C2B 6380  19.544  33.424   8.420
  221POPC   C3B 6381  19.707  33.486   8.026
  221POPC   C4B 6382  19.454  33.545   7.667
  222POPC   NC3 6383  27.607   8.724   9.637
  222POPC   PO4 6384  27.909   9.301   9.519
  222POPC   GL1 6385  27.923   8.940   9.231
  222POPC   GL2 6386  27.867   8.546   9.226
  222POPC   C1A 6387  27.805   9.064   8.824
  222POPC   D2A 6388  27.458   9.214   8.571
  222POPC   C3A 6389  27.480   9.266   8.109
  222POPC   C4A 6390  27.418   9.133   7.661
  222POPC   C1B 6391  27.508   8.634   8.913
  222POPC   C2B 6392  27.358   8.717   8.479
  222POPC   C3B 6393  27.491   8.763   8.056
  222POPC   C4B 6394  27.353   8.560   7.727
  223POPC   NC3 6395  28.897  33.611   9.617
  223POPC   PO4 6396  29.489  33.910   9.505
  223POPC   GL1 6397  29.239  33.722   9.137
  223POPC   GL2 6398  28.988  33.437   9.158
  223POPC   C1A 6399  29.128  33.939   8.715
  223POPC   D2A 6400  29.372  34.047   8.306
  223POPC   C3A 6401  29.142  34.079   7.891
  223POPC   C4A 6402  29.285  34.015   7.462
  223POPC   C1B 6403  29.176  33.294   8.783
  223POPC   C2B 6404  29.306  33.539   8.442
  223POPC   C3B 6405  29.376  33.622   8.014
  223POPC   C4B 6406  29.069  33.553   7.708
  224POPC   NC3 6407  20.692  35.124   9.471
  224POPC   PO4 6408  20.693  35.737   9.398
  224POPC   GL1 6409  20.702  35.457   9.065
  224POPC   GL2 6410  20.372  35.445   9.091
  224POPC   C1A 6411  20.631  35.171   8.737
  224POPC   D2A 6412  20.468  35.215   8.323
  224POPC   C3A 6413  20.750  35.170   7.967
  224POPC   C4A 6414  20.823  35.434   7.596
  224POPC   C1B 6415  20.160  35.427   8.727
  224POPC   C2B 6416  20.186  35.630   8.346
  224POPC   C3B 6417  20.267  35.475   7.942
  224POPC   C4B 6418  20.296  35.548   7.558
  225POPC   NC3 6419  42.249  23.448   9.829
  225POPC   PO4 6420  42.069  23.821   9.276
  225POPC   GL1 6421  42.278  23.729   8.958
  225POPC   GL2 6422  42.455  23.442   8.962
  225POPC   C1A 6423  42.238  23.871   8.565
  225POPC   D2A 6424  42.203  23.764   8.151
  225POPC   C3A 6425  42.238  24.018   7.795
  225POPC   C4A 6426  42.272  23.610   7.553
  225POPC   C1B 6427  42.677  23.620   8.653
  225POPC   C2B 6428  42.693  23.884   8.290
  225POPC   C3B 6429  42.663  23.742   7.854
  225POPC   C4B 6430  42.604  23.964   7.425
  226POPC   NC3 6431  38.704  21.846   9.396
  226POPC   PO4 6432  38.282  22.302   9.591
  226POPC   GL1 6433  38.275  22.038   9.201
  226POPC   GL2 6434  38.548  22.253   9.104
  226POPC   C1A 6435  38.270  21.918   8.763
  226POPC   D2A 6436  38.449  22.137   8.395
  226POPC   C3A 6437  38.470  21.870   8.035
  226POPC   C4A 6438  38.308  21.806   7.615
  226POPC   C1B 6439  38.810  22.360   8.763
  226POPC   C2B 6440  39.050  22.360   8.412
  226POPC   C3B 6441  38.947  22.330   7.997
  226POPC   C4B 6442  38.668  22.144   7.656
  227POPC   NC3 6443  18.565   5.123   9.411
  227POPC   PO4 6444  17.858   4.931   9.501
  227POPC   GL1 6445  18.156   4.873   9.176
  227POPC   GL2 6446  18.140   5.212   9.103
  227POPC   C1A 6447  18.362   4.874   8.760
  227POPC   D2A 6448  18.256   5.091   8.373
  227POPC   C3A 6449  18.473   5.101   8.034
  227POPC   C4A 6450  18.413   4.952   7.647
  227POPC   C1B 6451  18.241   5.444   8.736
  227POPC   C2B 6452  17.962   5.530   8.397
  227POPC   C3B 6453  17.823   5.309   8.080
  227POPC   C4B 6454  18.109   5.334   7.788
  228POPC   NC3 6455  30.414  28.107   9.423
  228POPC   PO4 6456  30.925  27.623   9.426
  228POPC   GL1 6457  30.949  27.559   9.015
  228POPC   GL2 6458  30.613  27.430   9.010
  228POPC   C1A 6459  30.789  27.658   8.613
  228POPC   D2A 6460  30.544  27.444   8.333
  228POPC   C3A 6461  30.739  27.603   7.972
  228POPC   C4A 6462  30.836  27.599   7.523
  228POPC   C1B 6463  30.827  27.161   8.660
  228POPC   C2B 6464  30.877  27.068   8.189
  228POPC   C3B 6465  30.721  27.153   7.763
  228POPC   C4B 6466  30.397  27.358   7.520
  229POPC   NC3 6467   5.251   2.617   9.535
  229POPC   PO4 6468   4.817   3.078   9.246
  229POPC   GL1 6469   5.086   2.775   9.063
  229POPC   GL2 6470   5.403   2.873   9.096
  229POPC   C1A 6471   5.100   2.571   8.654
  229POPC   D2A 6472   4.972   2.314   8.293
  229POPC   C3A 6473   5.106   2.448   7.882
  229POPC   C4A 6474   5.054   2.663   7.492
  229POPC   C1B 6475   5.286   3.076   8.689
  229POPC   C2B 6476   5.088   3.158   8.300
  229POPC   C3B 6477   5.106   2.968   7.913
  229POPC   C4B 6478   5.475   2.872   7.698
  230POPC   NC3 6479  36.727  27.042   9.894
  230POPC   PO4 6480  36.939  26.597   9.376
  230POPC   GL1 6481  36.922  26.719   9.021
  230POPC   GL2 6482  37.122  27.055   9.087
  230POPC   C1A 6483  36.919  26.550   8.606
  230POPC   D2A 6484  36.613  26.619   8.280
  230POPC   C3A 6485  36.735  26.676   7.854
  230POPC   C4A 6486  37.104  26.895   7.774
  230POPC   C1B 6487  37.078  27.038   8.671
  230POPC   C2B 6488  36.786  27.106   8.408
  230POPC   C3B 6489  36.924  27.268   8.062
  230POPC   C4B 6490  36.690  27.189   7.758
  231POPC   NC3 6491   3.243  39.196   9.485
  231POPC   PO4 6492   2.692  39.504   9.651
  231POPC   GL1 6493   2.566  39.328   9.242
  231POPC   GL2 6494   2.889  39.224   9.077
  231POPC   C1A 6495   2.445  38.975   8.967
  231POPC   D2A 6496   2.707  39.002   8.622
  231POPC   C3A 6497   2.591  38.956   8.200
  231POPC   C4A 6498   2.692  39.155   7.839
  231POPC   C1B 6499   3.067  39.468   8.699
  231POPC   C2B 6500   3.162  39.585   8.270
  231POPC   C3B 6501   3.041  39.528   7.832
  231POPC   C4B 6502   3.130  39.667   7.419
  232POPC   NC3 6503  27.149  21.491   9.419
  232POPC   PO4 6504  27.578  21.054   9.657
  232POPC   GL1 6505  27.549  21.279   9.170
  232POPC   GL2 6506  27.772  21.585   9.085
  232POPC   C1A 6507  27.717  21.216   8.707
  232POPC   D2A 6508  27.772  21.031   8.271
  232POPC   C3A 6509  27.553  21.222   7.897
  232POPC   C4A 6510  27.669  21.387   7.497
  232POPC   C1B 6511  27.638  21.724   8.696
  232POPC   C2B 6512  27.565  21.553   8.303
  232POPC   C3B 6513  27.610  21.738   7.898
  232POPC   C4B 6514  27.269  21.797   7.633
  233POPC   NC3 6515  17.124  23.098   9.528
  233POPC   PO4 6516  16.612  22.763   9.618
  233POPC   GL1 6517  16.777  22.846   9.185
  233POPC   GL2 6518  16.829  23.214   9.081
  233POPC   C1A 6519  16.798  22.758   8.716
  233POPC   D2A 6520  16.621  22.949   8.360
  233POPC   C3A 6521  16.593  22.853   7.931
  233POPC   C4A 6522  16.642  23.193   7.693
  233POPC   C1B 6523  17.190  23.036   8.882
  233POPC   C2B 6524  17.248  23.021   8.458
  233POPC   C3B 6525  17.038  23.140   8.088
  233POPC   C4B 6526  17.079  22.860   7.747
  234POPC   NC3 6527  15.760  24.832   9.519
  234POPC   PO4 6528  15.869  25.460   9.502
  234POPC   GL1 6529  15.915  25.240   9.160
  234POPC   GL2 6530  16.218  25.055   9.236
  234POPC   C1A 6531  15.924  25.417   8.755
  234POPC   D2A 6532  16.148  25.431   8.391
  234POPC   C3A 6533  15.907  25.496   8.042
  234POPC   C4A 6534  16.147  25.369   7.685
  234POPC   C1B 6535  16.249  25.036   8.805
  234POPC   C2B 6536  15.948  24.968   8.481
  234POPC   C3B 6537  15.805  25.005   8.055
  234POPC   C4B 6538  16.041  24.853   7.688
  235POPC   NC3 6539   8.288  15.043   9.560
  235POPC   PO4 6540   8.317  15.767   9.709
  235POPC   GL1 6541   8.342  15.521   9.325
  235POPC   GL2 6542   8.044  15.462   9.201
  235POPC   C1A 6543   8.474  15.329   8.934
  235POPC   D2A 6544   8.429  15.123   8.549
  235POPC   C3A 6545   8.327  15.322   8.170
  235POPC   C4A 6546   8.339  15.042   7.809
  235POPC   C1B 6547   7.981  15.325   8.772
  235POPC   C2B 6548   7.896  15.116   8.422
  235POPC   C3B 6549   7.860  15.183   8.013
  235POPC   C4B 6550   7.840  14.981   7.610
  236POPC   NC3 6551  34.624   0.736   9.531
  236POPC   PO4 6552  34.075   0.328   9.554
  236POPC   GL1 6553  34.340   0.369   9.159
  236POPC   GL2 6554  34.691   0.347   9.197
  236POPC   C1A 6555  34.480   0.297   8.708
  236POPC   D2A 6556  34.792   0.505   8.382
  236POPC   C3A 6557  34.646   0.451   7.948
  236POPC   C4A 6558  34.208   0.394   7.792
  236POPC   C1B 6559  34.959   0.308   8.841
  236POPC   C2B 6560  34.847   0.007   8.527
  236POPC   C3B 6561  34.857  44.989   8.071
  236POPC   C4B 6562  34.985   0.098   7.662
  237POPC   NC3 6563  16.135  37.525   9.585
  237POPC   PO4 6564  15.739  38.146   9.474
  237POPC   GL1 6565  15.676  37.867   9.105
  237POPC   GL2 6566  15.852  37.546   9.161
  237POPC   C1A 6567  15.859  37.801   8.677
  237POPC   D2A 6568  16.137  37.566   8.405
  237POPC   C3A 6569  16.205  37.793   8.004
  237POPC   C4A 6570  16.503  37.698   7.665
  237POPC   C1B 6571  15.589  37.397   8.832
  237POPC   C2B 6572  15.662  37.316   8.415
  237POPC   C3B 6573  15.729  37.560   8.038
  237POPC   C4B 6574  15.708  37.608   7.568
  238POPC   NC3 6575  20.070   9.667   9.691
  238POPC   PO4 6576  19.530   9.778   9.274
  238POPC   GL1 6577  19.880   9.920   9.022
  238POPC   GL2 6578  20.115   9.725   9.180
  238POPC   C1A 6579  19.892   9.881   8.559
  238POPC   D2A 6580  19.606   9.697   8.208
  238POPC   C3A 6581  19.638   9.932   7.792
  238POPC   C4A 6582  19.924  10.117   7.452
  238POPC   C1B 6583  20.220   9.477   8.808
  238POPC   C2B 6584  20.304   9.569   8.355
  238POPC   C3B 6585  20.071   9.747   8.016
  238POPC   C4B 6586  19.839   9.436   7.793
  239POPC   NC3 6587   0.122   8.777   9.553
  239POPC   PO4 6588   0.618   9.284   9.567
  239POPC   GL1 6589   0.472   8.999   9.196
  239POPC   GL2 6590   0.781   8.812   9.097
  239POPC   C1A 6591   0.333   8.792   8.772
  239POPC   D2A 6592   0.111   9.063   8.426
  239POPC   C3A 6593   0.173   9.254   7.971
  239POPC   C4A 6594   0.355   9.287   7.514
  239POPC   C1B 6595   0.808   8.550   8.752
  239POPC   C2B 6596   0.619   8.623   8.381
  239POPC   C3B 6597   0.553   8.914   8.070
  239POPC   C4B 6598   0.310   8.836   7.697
  240POPC   NC3 6599  22.339   5.715   9.450
  240POPC   PO4 6600  21.821   6.143   9.382
  240POPC   GL1 6601  22.180   6.096   9.144
  240POPC   GL2 6602  22.029   5.771   9.048
  240POPC   C1A 6603  22.295   6.104   8.754
  240POPC   D2A 6604  21.990   5.931   8.446
  240POPC   C3A 6605  22.166   5.980   8.034
  240POPC   C4A 6606  22.063   6.119   7.603
  240POPC   C1B 6607  22.328   5.606   8.768
  240POPC   C2B 6608  22.473   5.729   8.400
  240POPC   C3B 6609  22.446   5.537   8.041
  240POPC   C4B 6610  22.281   5.653   7.649
  241POPC   NC3 6611  19.357  27.097   9.481
  241POPC   PO4 6612  19.128  27.716   9.624
  241POPC   GL1 6613  19.147  27.493   9.220
  241POPC   GL2 6614  18.817  27.410   9.101
  241POPC   C1A 6615  19.193  27.476   8.762
  241POPC   D2A 6616  19.321  27.347   8.338
  241POPC   C3A 6617  19.185  27.567   7.937
  241POPC   C4A 6618  19.216  27.472   7.497
  241POPC   C1B 6619  18.733  27.686   8.761
  241POPC   C2B 6620  18.888  27.691   8.342
  241POPC   C3B 6621  18.769  27.867   7.955
  241POPC   C4B 6622  18.765  27.665   7.558
  242POPC   NC3 6623  37.160  32.755   9.466
  242POPC   PO4 6624  36.758  33.228   9.485
  242POPC   GL1 6625  36.990  33.098   9.124
  242POPC   GL2 6626  37.336  33.201   9.169
  242POPC   C1A 6627  37.045  32.789   8.791
  242POPC   D2A 6628  37.054  32.637   8.372
  242POPC   C3A 6629  36.818  32.852   8.033
  242POPC   C4A 6630  36.982  33.005   7.621
  242POPC   C1B 6631  37.219  33.280   8.706
  242POPC   C2B 6632  37.188  33.257   8.229
  242POPC   C3B 6633  37.162  33.470   7.820
  242POPC   C4B 6634  36.894  33.481   7.438
  243POPC   NC3 6635  13.682  12.393   9.505
  243POPC   PO4 6636  13.394  13.071   9.282
  243POPC   GL1 6637  13.640  12.963   9.008
  243POPC   GL2 6638  13.712  12.663   9.087
  243POPC   C1A 6639  13.645  13.077   8.631
  243POPC   D2A 6640  13.452  12.892   8.327
  243POPC   C3A 6641  13.723  12.889   8.021
  243POPC   C4A 6642  13.531  13.133   7.727
  243POPC   C1B 6643  13.479  12.548   8.736
  243POPC   C2B 6644  13.216  12.445   8.399
  243POPC   C3B 6645  13.239  12.598   7.961
  243POPC   C4B 6646  13.596  12.470   7.768
  244POPC   NC3 6647   4.420  44.383   9.497
  244POPC   PO4 6648   3.907  44.894   9.567
  244POPC   GL1 6649   4.064  44.639   9.214
  244POPC   GL2 6650   4.385  44.798   9.191
  244POPC   C1A 6651   4.209  44.496   8.790
  244POPC   D2A 6652   4.176  44.344   8.356
  244POPC   C3A 6653   4.196  44.592   7.974
  244POPC   C4A 6654   3.957  44.472   7.617
  244POPC   C1B 6655   4.242   0.016   8.801
  244POPC   C2B 6656   4.372  44.950   8.347
  244POPC   C3B 6657   4.290   0.121   7.910
  244POPC   C4B 6658   4.331  44.976   7.442
  245POPC   NC3 6659  11.119  18.095   9.577
  245POPC   PO4 6660  11.183  18.701   9.496
  245POPC   GL1 6661  11.112  18.388   9.162
  245POPC   GL2 6662  11.448  18.238   9.222
  245POPC   C1A 6663  11.209  18.304   8.742
  245POPC   D2A 6664  11.440  18.533   8.438
  245POPC   C3A 6665  11.291  18.487   8.016
  245POPC   C4A 6666  11.048  18.221   7.767
  245POPC   C1B 6667  11.582  18.007   8.883
  245POPC   C2B 6668  11.692  18.007   8.464
  245POPC   C3B 6669  11.737  18.193   8.091
  245POPC   C4B 6670  11.533  18.082   7.736
  246POPC   NC3 6671  19.675  11.639   9.624
  246POPC   PO4 6672  19.884  10.949   9.698
  246POPC   GL1 6673  19.795  11.233   9.329
  246POPC   GL2 6674  20.059  11.510   9.254
  246POPC   C1A 6675  19.678  11.432   8.926
  246POPC   D2A 6676  19.815  11.452   8.532
  246POPC   C3A 6677  19.547  11.293   8.248
  246POPC   C4A 6678  19.614  11.258   7.830
  246POPC   C1B 6679  20.125  11.146   8.944
  246POPC   C2B 6680  20.117  11.045   8.497
  246POPC   C3B 6681  20.066  11.291   8.101
  246POPC   C4B 6682  20.088  11.083   7.719
  247POPC   NC3 6683   9.530  23.917   9.752
  247POPC   PO4 6684   9.708  23.360   9.452
  247POPC   GL1 6685   9.596  23.551   9.079
  247POPC   GL2 6686   9.367  23.790   9.206
  247POPC   C1A 6687   9.840  23.721   8.720
  247POPC   D2A 6688  10.119  23.633   8.373
  247POPC   C3A 6689   9.889  23.693   8.025
  247POPC   C4A 6690   9.623  23.394   7.853
  247POPC   C1B 6691   9.297  23.822   8.751
  247POPC   C2B 6692   9.334  23.610   8.347
  247POPC   C3B 6693   9.294  23.779   7.926
  247POPC   C4B 6694   9.619  24.014   7.737
  248POPC   NC3 6695  13.332   8.849   9.623
  248POPC   PO4 6696  13.998   8.988   9.605
  248POPC   GL1 6697  13.653   9.101   9.292
  248POPC   GL2 6698  13.469   8.807   9.133
  248POPC   C1A 6699  13.688   9.240   8.859
  248POPC   D2A 6700  13.571   9.241   8.426
  248POPC   C3A 6701  13.792   9.065   8.083
  248POPC   C4A 6702  13.743   9.243   7.695
  248POPC   C1B 6703  13.609   8.741   8.719
  248POPC   C2B 6704  13.405   8.730   8.337
  248POPC   C3B 6705  13.378   8.819   7.906
  248POPC   C4B 6706  13.704   8.749   7.616
  249POPC   NC3 6707   0.732  41.537   9.570
  249POPC   PO4 6708   0.154  41.694   9.493
  249POPC   GL1 6709   0.429  41.566   9.146
  249POPC   GL2 6710   0.665  41.264   9.147
  249POPC   C1A 6711   0.640  41.737   8.781
  249POPC   D2A 6712   0.733  41.884   8.369
  249POPC   C3A 6713   0.427  41.781   8.053
  249POPC   C4A 6714   0.673  41.761   7.766
  249POPC   C1B 6715   0.498  41.237   8.760
  249POPC   C2B 6716   0.462  41.402   8.391
  249POPC   C3B 6717   0.584  41.283   8.007
  249POPC   C4B 6718   0.783  40.978   7.824
  250POPC   NC3 6719  10.493  29.489   9.421
  250POPC   PO4 6720  10.516  30.051   9.852
  250POPC   GL1 6721  10.541  30.004   9.353
  250POPC   GL2 6722  10.295  30.200   9.181
  250POPC   C1A 6723  10.518  29.831   8.866
  250POPC   D2A 6724  10.823  29.851   8.482
  250POPC   C3A 6725  10.631  29.894   8.049
  250POPC   C4A 6726  10.206  29.804   7.956
  250POPC   C1B 6727  10.700  30.290   8.940
  250POPC   C2B 6728  10.670  30.351   8.485
  250POPC   C3B 6729  10.768  30.394   8.053
  250POPC   C4B 6730  10.830  30.403   7.642
  251POPC   NC3 6731   4.278  15.677   9.434
  251POPC   PO4 6732   4.319  16.305   9.391
  251POPC   GL1 6733   4.475  16.035   9.111
  251POPC   GL2 6734   4.669  15.714   9.114
  251POPC   C1A 6735   4.308  15.828   8.750
  251POPC   D2A 6736   4.099  16.001   8.427
  251POPC   C3A 6737   4.259  15.883   8.061
  251POPC   C4A 6738   4.061  15.961   7.688
  251POPC   C1B 6739   4.815  15.993   8.753
  251POPC   C2B 6740   4.689  15.878   8.359
  251POPC   C3B 6741   4.767  15.771   7.954
  251POPC   C4B 6742   4.577  15.971   7.655
  252POPC   NC3 6743  42.209  32.785   9.523
  252POPC   PO4 6744  42.613  33.351   9.492
  252POPC   GL1 6745  42.402  33.153   9.207
  252POPC   GL2 6746  42.610  32.881   9.135
  252POPC   C1A 6747  42.393  33.263   8.794
  252POPC   D2A 6748  42.569  33.415   8.450
  252POPC   C3A 6749  42.462  33.184   8.142
  252POPC   C4A 6750  42.162  33.190   7.843
  252POPC   C1B 6751  42.220  32.796   8.881
  252POPC   C2B 6752  42.111  32.935   8.458
  252POPC   C3B 6753  42.072  32.745   8.083
  252POPC   C4B 6754  42.212  32.700   7.689
  253POPC   NC3 6755  22.042  31.212   9.564
  253POPC   PO4 6756  22.368  31.841   9.673
  253POPC   GL1 6757  22.132  31.733   9.263
  253POPC   GL2 6758  22.250  31.418   9.156
  253POPC   C1A 6759  21.937  31.678   8.805
  253POPC   D2A 6760  22.123  31.624   8.322
  253POPC   C3A 6761  21.885  31.561   7.904
  253POPC   C4A 6762  21.923  31.781   7.477
  253POPC   C1B 6763  22.423  31.489   8.754
  253POPC   C2B 6764  22.666  31.297   8.445
  253POPC   C3B 6765  22.727  31.446   8.054
  253POPC   C4B 6766  22.362  31.371   7.813
  254POPC   NC3 6767  21.824  20.928   9.557
  254POPC   PO4 6768  22.445  20.565   9.513
  254POPC   GL1 6769  22.291  20.505   9.108
  254POPC   GL2 6770  22.102  20.784   9.162
  254POPC   C1A 6771  22.321  20.590   8.658
  254POPC   D2A 6772  22.266  20.944   8.348
  254POPC   C3A 6773  22.205  20.853   7.919
  254POPC   C4A 6774  22.194  20.500   7.675
  254POPC   C1B 6775  22.148  21.043   8.829
  254POPC   C2B 6776  21.817  21.074   8.552
  254POPC   C3B 6777  21.731  21.043   8.121
  254POPC   C4B 6778  21.856  21.161   7.721
  255POPC   NC3 6779  30.391  34.008   9.472
  255POPC   PO4 6780  31.013  34.213   9.655
  255POPC   GL1 6781  30.789  34.411   9.277
  255POPC   GL2 6782  30.417  34.475   9.246
  255POPC   C1A 6783  30.708  34.669   8.889
  255POPC   D2A 6784  30.613  34.623   8.453
  255POPC   C3A 6785  30.794  34.325   8.139
  255POPC   C4A 6786  30.831  34.579   7.751
  255POPC   C1B 6787  30.262  34.399   8.793
  255POPC   C2B 6788  30.262  34.268   8.334
  255POPC   C3B 6789  30.375  34.424   7.918
  255POPC   C4B 6790  30.405  34.378   7.440
  256POPC   NC3 6791  25.030  44.636   9.461
  256POPC   PO4 6792  25.614  44.984   9.354
  256POPC   GL1 6793  25.253  44.919   9.080
  256POPC   GL2 6794  25.021   0.203   9.141
  256POPC   C1A 6795  25.210  44.558   8.764
  256POPC   D2A 6796  25.471  44.234   8.481
  256POPC   C3A 6797  25.403  44.302   8.048
  256POPC   C4A 6798  25.590  44.550   7.705
  256POPC   C1B 6799  24.896  44.990   8.716
  256POPC   C2B 6800  24.983  44.775   8.297
  256POPC   C3B 6801  25.082  44.667   7.830
  256POPC   C4B 6802  24.887  44.527   7.421
  257POPC   NC3 6803  25.722  13.978   9.407
  257POPC   PO4 6804  25.105  13.829   9.615
  257POPC   GL1 6805  25.079  13.667   9.144
  257POPC   GL2 6806  25.216  13.335   9.042
  257POPC   C1A 6807  25.243  13.740   8.706
  257POPC   D2A 6808  25.061  13.680   8.299
  257POPC   C3A 6809  25.184  13.750   7.891
  257POPC   C4A 6810  25.079  14.000   7.531
  257POPC   C1B 6811  25.543  13.342   8.707
  257POPC   C2B 6812  25.418  13.213   8.266
  257POPC   C3B 6813  25.446  13.302   7.799
  257POPC   C4B 6814  25.578  13.201   7.352
  258POPC   NC3 6815  20.569  34.138   9.357
  258POPC   PO4 6816  20.941  34.747   9.388
  258POPC   GL1 6817  20.565  34.649   9.157
  258POPC   GL2 6818  20.343  34.934   9.119
  258POPC   C1A 6819  20.532  34.524   8.728
  258POPC   D2A 6820  20.674  34.768   8.366
  258POPC   C3A 6821  20.592  34.650   7.936
  258POPC   C4A 6822  20.869  34.320   7.731
  258POPC   C1B 6823  20.216  34.915   8.677
  258POPC   C2B 6824  20.145  34.812   8.232
  258POPC   C3B 6825  20.170  34.968   7.828
  258POPC   C4B 6826  20.485  35.068   7.535
  259POPC   NC3 6827  26.702  31.116   9.922
  259POPC   PO4 6828  26.660  30.741   9.461
  259POPC   GL1 6829  26.826  30.673   9.037
  259POPC   GL2 6830  27.203  30.745   8.979
  259POPC   C1A 6831  26.803  30.503   8.623
  259POPC   D2A 6832  26.816  30.846   8.317
  259POPC   C3A 6833  26.768  30.725   7.908
  259POPC   C4A 6834  26.647  30.918   7.528
  259POPC   C1B 6835  27.303  30.485   8.632
  259POPC   C2B 6836  27.188  30.536   8.229
  259POPC   C3B 6837  27.222  30.521   7.835
  259POPC   C4B 6838  27.149  30.868   7.547
  260POPC   NC3 6839   9.224  31.060   9.521
  260POPC   PO4 6840   8.939  31.544   9.542
  260POPC   GL1 6841   9.117  31.674   9.173
  260POPC   GL2 6842   9.338  31.406   9.167
  260POPC   C1A 6843   8.990  31.588   8.752
  260POPC   D2A 6844   8.628  31.645   8.490
  260POPC   C3A 6845   8.626  31.441   8.103
  260POPC   C4A 6846   8.835  31.630   7.770
  260POPC   C1B 6847   9.293  31.143   8.808
  260POPC   C2B 6848   9.058  31.179   8.439
  260POPC   C3B 6849   9.126  31.518   8.174
  260POPC   C4B 6850   9.356  31.448   7.805
  261POPC   NC3 6851  32.714  44.063   9.789
  261POPC   PO4 6852  32.020  43.805   9.541
  261POPC   GL1 6853  32.190  44.032   9.187
  261POPC   GL2 6854  31.985  44.303   9.001
  261POPC   C1A 6855  32.200  43.777   8.815
  261POPC   D2A 6856  32.435  43.734   8.451
  261POPC   C3A 6857  32.213  43.733   8.056
  261POPC   C4A 6858  32.306  43.561   7.682
  261POPC   C1B 6859  32.337  44.270   8.741
  261POPC   C2B 6860  32.208  44.168   8.327
  261POPC   C3B 6861  32.331  44.306   7.933
  261POPC   C4B 6862  32.438  44.041   7.587
  262POPC   NC3 6863   8.983  35.551   9.391
  262POPC   PO4 6864   9.200  34.842   9.303
  262POPC   GL1 6865   9.141  35.221   9.024
  262POPC   GL2 6866   8.801  35.136   9.069
  262POPC   C1A 6867   8.915  35.559   8.730
  262POPC   D2A 6868   8.944  35.786   8.313
  262POPC   C3A 6869   9.009  35.527   7.941
  262POPC   C4A 6870   8.800  35.543   7.524
  262POPC   C1B 6871   8.784  35.097   8.621
  262POPC   C2B 6872   8.581  35.389   8.326
  262POPC   C3B 6873   8.569  35.295   7.915
  262POPC   C4B 6874   8.923  35.035   7.827
  263POPC   NC3 6875  30.880   1.914   9.479
  263POPC   PO4 6876  31.526   2.056   9.727
  263POPC   GL1 6877  31.531   2.112   9.282
  263POPC   GL2 6878  31.300   1.869   9.115
  263POPC   C1A 6879  31.594   2.172   8.836
  263POPC   D2A 6880  31.509   1.884   8.491
  263POPC   C3A 6881  31.441   1.949   8.052
  263POPC   C4A 6882  31.678   1.984   7.685
  263POPC   C1B 6883  31.070   2.029   8.728
  263POPC   C2B 6884  30.813   1.808   8.409
  263POPC   C3B 6885  30.876   1.696   7.956
  263POPC   C4B 6886  31.243   1.678   7.629
  264POPC   NC3 6887  20.833   7.236   9.433
  264POPC   PO4 6888  21.042   7.815   9.631
  264POPC   GL1 6889  21.240   7.591   9.258
  264POPC   GL2 6890  21.315   7.220   9.248
  264POPC   C1A 6891  21.362   7.570   8.824
  264POPC   D2A 6892  21.302   7.740   8.409
  264POPC   C3A 6893  21.553   7.524   8.084
  264POPC   C4A 6894  21.762   7.617   7.726
  264POPC   C1B 6895  21.142   7.099   8.842
  264POPC   C2B 6896  21.254   7.241   8.430
  264POPC   C3B 6897  21.053   7.458   8.069
  264POPC   C4B 6898  21.202   7.307   7.703
  265POPC   NC3 6899  13.560  16.060   9.513
  265POPC   PO4 6900  13.967  15.528   9.432
  265POPC   GL1 6901  13.810  15.827   9.101
  265POPC   GL2 6902  13.444  15.910   9.054
  265POPC   C1A 6903  13.741  15.929   8.647
  265POPC   D2A 6904  13.570  15.974   8.246
  265POPC   C3A 6905  13.882  15.953   7.944
  265POPC   C4A 6906  13.957  16.013   7.500
  265POPC   C1B 6907  13.392  16.297   8.809
  265POPC   C2B 6908  13.152  16.504   8.478
  265POPC   C3B 6909  13.187  16.309   8.096
  265POPC   C4B 6910  13.407  16.086   7.762
  266POPC   NC3 6911  10.716  18.641   9.375
  266POPC   PO4 6912  10.354  19.124   9.710
  266POPC   GL1 6913  10.646  19.135   9.323
  266POPC   GL2 6914  10.355  19.133   9.146
  266POPC   C1A 6915  10.804  19.250   8.878
  266POPC   D2A 6916  10.735  19.180   8.410
  266POPC   C3A 6917  10.352  19.364   8.175
  266POPC   C4A 6918  10.208  19.494   7.726
  266POPC   C1B 6919  10.472  18.871   8.788
  266POPC   C2B 6920  10.459  18.739   8.374
  266POPC   C3B 6921  10.516  18.926   7.968
  266POPC   C4B 6922  10.161  18.971   7.703
  267POPC   NC3 6923  35.016  37.720   9.656
  267POPC   PO4 6924  35.683  37.977   9.530
  267POPC   GL1 6925  35.404  37.718   9.243
  267POPC   GL2 6926  35.139  37.849   8.972
  267POPC   C1A 6927  35.477  37.507   8.848
  267POPC   D2A 6928  35.338  37.633   8.443
  267POPC   C3A 6929  35.556  37.432   8.112
  267POPC   C4A 6930  35.400  37.406   7.734
  267POPC   C1B 6931  35.522  38.015   8.800
  267POPC   C2B 6932  35.645  38.100   8.403
  267POPC   C3B 6933  35.539  37.932   8.006
  267POPC   C4B 6934  35.809  38.117   7.731
  268POPC   NC3 6935  10.133  18.144   9.423
  268POPC   PO4 6936   9.576  18.583   9.390
  268POPC   GL1 6937   9.815  18.324   9.071
  268POPC   GL2 6938   9.564  18.129   9.047
  268POPC   C1A 6939   9.864  18.066   8.662
  268POPC   D2A 6940   9.645  18.079   8.266
  268POPC   C3A 6941   9.912  18.076   7.919
  268POPC   C4A 6942  10.022  18.320   7.577
  268POPC   C1B 6943   9.456  18.375   8.686
  268POPC   C2B 6944   9.492  18.571   8.315
  268POPC   C3B 6945   9.655  18.523   7.925
  268POPC   C4B 6946   9.458  18.298   7.626
  269POPC   NC3 6947  28.792  14.993   9.427
  269POPC   PO4 6948  29.281  15.410   9.555
  269POPC   GL1 6949  29.405  15.172   9.193
  269POPC   GL2 6950  29.093  15.197   9.070
  269POPC   C1A 6951  29.450  15.021   8.764
  269POPC   D2A 6952  29.106  15.064   8.481
  269POPC   C3A 6953  29.248  15.026   8.054
  269POPC   C4A 6954  29.048  14.947   7.673
  269POPC   C1B 6955  28.924  15.493   8.803
  269POPC   C2B 6956  28.772  15.459   8.395
  269POPC   C3B 6957  28.725  15.196   8.051
  269POPC   C4B 6958  28.742  15.382   7.646
  270POPC   NC3 6959  27.566   1.720   9.536
  270POPC   PO4 6960  28.048   2.135   9.494
  270POPC   GL1 6961  27.750   2.029   9.183
  270POPC   GL2 6962  27.506   2.231   9.093
  270POPC   C1A 6963  27.616   1.787   8.802
  270POPC   D2A 6964  27.577   1.564   8.371
  270POPC   C3A 6965  27.479   1.814   7.964
  270POPC   C4A 6966  27.489   2.028   7.533
  270POPC   C1B 6967  27.837   2.235   8.739
  270POPC   C2B 6968  27.769   2.077   8.329
  270POPC   C3B 6969  27.684   2.302   7.965
  270POPC   C4B 6970  27.276   2.373   7.857
  271POPC   NC3 6971   9.196  14.952   9.500
  271POPC   PO4 6972   8.830  15.506   9.523
  271POPC   GL1 6973   8.911  15.205   9.161
  271POPC   GL2 6974   9.234  15.309   9.066
  271POPC   C1A 6975   8.955  15.133   8.670
  271POPC   D2A 6976   9.139  14.964   8.244
  271POPC   C3A 6977   8.886  14.959   7.843
  271POPC   C4A 6978   8.699  15.090   7.438
  271POPC   C1B 6979   8.893  15.609   8.862
  271POPC   C2B 6980   8.697  15.589   8.481
  271POPC   C3B 6981   8.834  15.426   8.096
  271POPC   C4B 6982   8.603  15.494   7.741
  272POPC   NC3 6983  33.350  18.127   9.500
  272POPC   PO4 6984  32.778  18.553   9.622
  272POPC   GL1 6985  33.008  18.409   9.208
  272POPC   GL2 6986  33.134  18.058   9.047
  272POPC   C1A 6987  32.868  18.383   8.775
  272POPC   D2A 6988  33.016  18.205   8.406
  272POPC   C3A 6989  32.859  18.499   8.107
  272POPC   C4A 6990  32.924  18.516   7.669
  272POPC   C1B 6991  33.364  18.422   8.792
  272POPC   C2B 6992  33.294  18.635   8.395
  272POPC   C3B 6993  33.334  18.392   8.018
  272POPC   C4B 6994  33.339  18.071   7.723
  273POPC   NC3 6995  15.604  23.684   9.470
  273POPC   PO4 6996  15.083  23.261   9.583
  273POPC   GL1 6997  15.080  23.529   9.207
  273POPC   GL2 6998  15.172  23.854   9.221
  273POPC   C1A 6999  14.956  23.675   8.788
  273POPC   D2A 7000  14.793  23.590   8.388
  273POPC   C3A 7001  14.928  23.820   8.030
  273POPC   C4A 7002  14.795  23.605   7.654
  273POPC   C1B 7003  15.431  23.906   8.829
  273POPC   C2B 7004  15.334  23.766   8.410
  273POPC   C3B 7005  15.494  23.555   8.052
  273POPC   C4B 7006  15.311  23.745   7.688
  274POPC   NC3 7007   7.932  18.307   9.684
  274POPC   PO4 7008   7.211  18.100   9.575
  274POPC   GL1 7009   7.383  18.169   9.198
  274POPC   GL2 7010   7.552  18.455   9.314
  274POPC   C1A 7011   7.254  18.258   8.779
  274POPC   D2A 7012   7.502  18.250   8.387
  274POPC   C3A 7013   7.297  18.401   8.050
  274POPC   C4A 7014   7.161  18.220   7.678
  274POPC   C1B 7015   7.663  18.518   8.886
  274POPC   C2B 7016   7.879  18.573   8.501
  274POPC   C3B 7017   7.804  18.598   8.056
  274POPC   C4B 7018   7.571  18.551   7.655
  275POPC   NC3 7019  29.634  12.265   9.954
  275POPC   PO4 7020  30.028  11.931   9.508
  275POPC   GL1 7021  29.769  12.075   9.187
  275POPC   GL2 7022  29.575  12.366   9.270
  275POPC   C1A 7023  29.636  11.940   8.786
  275POPC   D2A 7024  29.465  11.903   8.376
  275POPC   C3A 7025  29.744  11.962   8.018
  275POPC   C4A 7026  29.769  11.692   7.667
  275POPC   C1B 7027  29.662  12.453   8.822
  275POPC   C2B 7028  29.781  12.326   8.409
  275POPC   C3B 7029  29.677  12.484   7.982
  275POPC   C4B 7030  29.933  12.493   7.601
  276POPC   NC3 7031  32.829  24.710   9.422
  276POPC   PO4 7032  33.426  24.352   9.326
  276POPC   GL1 7033  33.367  24.353   8.970
  276POPC   GL2 7034  33.118  24.611   8.993
  276POPC   C1A 7035  33.362  24.380   8.565
  276POPC   D2A 7036  33.115  24.671   8.366
  276POPC   C3A 7037  33.241  24.609   7.954
  276POPC   C4A 7038  33.087  24.415   7.630
  276POPC   C1B 7039  32.743  24.698   8.747
  276POPC   C2B 7040  32.729  25.013   8.408
  276POPC   C3B 7041  32.789  24.860   7.992
  276POPC   C4B 7042  32.718  24.752   7.562
  277POPC   NC3 7043   4.595  39.829   9.410
  277POPC   PO4 7044   4.069  40.240   9.659
  277POPC   GL1 7045   4.315  40.223   9.244
  277POPC   GL2 7046   4.219  40.441   9.031
  277POPC   C1A 7047   4.299  39.954   8.810
  277POPC   D2A 7048   4.547  39.991   8.441
  277POPC   C3A 7049   4.457  39.893   8.050
  277POPC   C4A 7050   4.080  39.838   7.851
  277POPC   C1B 7051   4.248  40.410   8.608
  277POPC   C2B 7052   4.142  40.241   8.234
  277POPC   C3B 7053   4.182  40.362   7.827
  277POPC   C4B 7054   4.208  40.219   7.386
  278POPC   NC3 7055  42.463  42.723   9.464
  278POPC   PO4 7056  42.067  42.125   9.506
  278POPC   GL1 7057  42.427  42.240   9.232
  278POPC   GL2 7058  42.194  42.384   9.030
  278POPC   C1A 7059  42.628  42.189   8.822
  278POPC   D2A 7060  42.596  42.018   8.438
  278POPC   C3A 7061  42.415  42.253   8.094
  278POPC   C4A 7062  42.620  42.054   7.740
  278POPC   C1B 7063  42.190  42.355   8.591
  278POPC   C2B 7064  42.034  42.595   8.287
  278POPC   C3B 7065  42.152  42.765   7.924
  278POPC   C4B 7066  42.330  42.471   7.598
  279POPC   NC3 7067  17.737  26.618   9.451
  279POPC   PO4 7068  17.344  27.128   9.526
  279POPC   GL1 7069  17.268  26.807   9.217
  279POPC   GL2 7070  17.561  26.965   9.070
  279POPC   C1A 7071  17.221  26.652   8.779
  279POPC   D2A 7072  17.395  26.768   8.387
  279POPC   C3A 7073  17.215  26.667   8.003
  279POPC   C4A 7074  17.332  26.886   7.642
  279POPC   C1B 7075  17.759  26.775   8.742
  279POPC   C2B 7076  17.928  26.671   8.338
  279POPC   C3B 7077  17.727  26.820   7.985
  279POPC   C4B 7078  17.846  26.769   7.592
  280POPC   NC3 7079  39.322  34.073   9.545
  280POPC   PO4 7080  39.275  33.491   9.789
  280POPC   GL1 7081  39.274  33.551   9.209
  280POPC   GL2 7082  39.426  33.878   9.095
  280POPC   C1A 7083  39.494  33.506   8.775
  280POPC   D2A 7084  39.620  33.685   8.379
  280POPC   C3A 7085  39.351  33.660   8.033
  280POPC   C4A 7086  39.304  33.956   7.732
  280POPC   C1B 7087  39.086  33.831   8.784
  280POPC   C2B 7088  38.943  33.977   8.393
  280POPC   C3B 7089  38.860  33.865   7.969
  280POPC   C4B 7090  38.846  34.118   7.586
  281POPC   NC3 7091  31.274  29.534   9.469
  281POPC   PO4 7092  31.735  29.970   9.248
  281POPC   GL1 7093  31.403  30.088   9.062
  281POPC   GL2 7094  31.263  29.789   9.033
  281POPC   C1A 7095  31.445  30.006   8.606
  281POPC   D2A 7096  31.484  30.256   8.244
  281POPC   C3A 7097  31.690  30.022   7.921
  281POPC   C4A 7098  31.687  29.560   7.828
  281POPC   C1B 7099  31.048  29.616   8.686
  281POPC   C2B 7100  31.283  29.610   8.304
  281POPC   C3B 7101  31.163  29.709   7.903
  281POPC   C4B 7102  30.934  30.067   7.756
  282POPC   NC3 7103  29.157  38.987   9.476
  282POPC   PO4 7104  29.500  39.603   9.348
  282POPC   GL1 7105  29.306  39.392   9.040
  282POPC   GL2 7106  28.989  39.344   9.118
  282POPC   C1A 7107  29.163  39.366   8.608
  282POPC   D2A 7108  29.335  39.520   8.223
  282POPC   C3A 7109  29.200  39.294   7.863
  282POPC   C4A 7110  29.213  39.278   7.370
  282POPC   C1B 7111  28.881  38.986   8.856
  282POPC   C2B 7112  29.025  38.786   8.486
  282POPC   C3B 7113  28.948  38.776   8.041
  282POPC   C4B 7114  29.100  38.859   7.642
  283POPC   NC3 7115  18.824  33.338   9.431
  283POPC   PO4 7116  19.290  32.916   9.613
  283POPC   GL1 7117  19.265  32.944   9.170
  283POPC   GL2 7118  19.400  33.291   9.197
  283POPC   C1A 7119  19.037  32.770   8.771
  283POPC   D2A 7120  18.966  32.853   8.319
  283POPC   C3A 7121  19.261  32.723   8.028
  283POPC   C4A 7122  19.251  32.668   7.589
  283POPC   C1B 7123  19.172  33.266   8.791
  283POPC   C2B 7124  19.031  33.378   8.387
  283POPC   C3B 7125  19.235  33.239   8.041
  283POPC   C4B 7126  18.975  33.067   7.761
  284POPC   NC3 7127  16.324  11.852   9.495
  284POPC   PO4 7128  15.640  11.911   9.396
  284POPC   GL1 7129  15.912  12.168   9.122
  284POPC   GL2 7130  16.283  12.134   9.065
  284POPC   C1A 7131  15.863  12.326   8.697
  284POPC   D2A 7132  16.129  12.278   8.321
  284POPC   C3A 7133  15.946  12.397   7.923
  284POPC   C4A 7134  15.790  12.193   7.555
  284POPC   C1B 7135  16.162  11.820   8.772
  284POPC   C2B 7136  16.308  11.762   8.361
  284POPC   C3B 7137  16.259  11.927   7.972
  284POPC   C4B 7138  15.983  11.755   7.677
  285POPC   NC3 7139  20.407   1.661   9.619
  285POPC   PO4 7140  20.580   2.275   9.438
  285POPC   GL1 7141  20.677   2.023   9.131
  285POPC   GL2 7142  20.663   1.717   9.160
  285POPC   C1A 7143  20.869   1.938   8.766
  285POPC   D2A 7144  20.611   1.952   8.418
  285POPC   C3A 7145  20.748   2.167   8.085
  285POPC   C4A 7146  20.671   2.207   7.621
  285POPC   C1B 7147  20.569   1.525   8.756
  285POPC   C2B 7148  20.596   1.462   8.285
  285POPC   C3B 7149  20.499   1.756   7.927
  285POPC   C4B 7150  20.597   1.731   7.458
  286POPC   NC3 7151  33.073  36.404   9.589
  286POPC   PO4 7152  32.766  35.891   9.622
  286POPC   GL1 7153  32.966  36.069   9.220
  286POPC   GL2 7154  33.048  35.765   9.115
  286POPC   C1A 7155  32.868  36.291   8.769
  286POPC   D2A 7156  32.701  36.175   8.339
  286POPC   C3A 7157  32.893  36.378   7.989
  286POPC   C4A 7158  33.313  36.376   7.806
  286POPC   C1B 7159  32.748  35.798   8.783
  286POPC   C2B 7160  32.956  35.736   8.386
  286POPC   C3B 7161  33.041  35.753   7.934
  286POPC   C4B 7162  32.930  35.582   7.502
  287POPC   NC3 7163  17.256  14.155   9.555
  287POPC   PO4 7164  17.577  13.521   9.483
  287POPC   GL1 7165  17.376  13.524   9.082
  287POPC   GL2 7166  17.321  13.852   9.150
  287POPC   C1A 7167  17.413  13.454   8.625
  287POPC   D2A 7168  17.562  13.155   8.363
  287POPC   C3A 7169  17.472  13.267   7.995
  287POPC   C4A 7170  17.310  13.481   7.673
  287POPC   C1B 7171  17.532  13.917   8.769
  287POPC   C2B 7172  17.304  13.931   8.398
  287POPC   C3B 7173  17.383  13.860   7.982
  287POPC   C4B 7174  17.555  13.931   7.565
  288POPC   NC3 7175  33.740  27.962   9.429
  288POPC   PO4 7176  33.976  27.333   9.475
  288POPC   GL1 7177  33.951  27.578   9.145
  288POPC   GL2 7178  33.614  27.566   9.135
  288POPC   C1A 7179  34.148  27.737   8.793
  288POPC   D2A 7180  34.109  27.870   8.374
  288POPC   C3A 7181  34.070  27.606   8.044
  288POPC   C4A 7182  33.695  27.538   7.810
  288POPC   C1B 7183  33.381  27.793   8.822
  288POPC   C2B 7184  33.619  27.966   8.487
  288POPC   C3B 7185  33.659  28.018   8.058
  288POPC   C4B 7186  33.430  28.001   7.675
  289POPC   NC3 7187  44.953  33.008   9.515
  289POPC   PO4 7188  44.376  32.758   9.592
  289POPC   GL1 7189  44.536  32.966   9.209
  289POPC   GL2 7190  44.250  32.895   9.094
  289POPC   C1A 7191  44.681  33.124   8.774
  289POPC   D2A 7192   0.082  33.165   8.446
  289POPC   C3A 7193  44.951  33.122   7.978
  289POPC   C4A 7194  44.575  33.300   7.734
  289POPC   C1B 7195  44.273  32.719   8.740
  289POPC   C2B 7196  44.269  32.973   8.404
  289POPC   C3B 7197  44.484  32.939   8.073
  289POPC   C4B 7198  44.529  32.768   7.657
  290POPC   NC3 7199  43.765  17.906   9.521
  290POPC   PO4 7200  44.088  17.331   9.619
  290POPC   GL1 7201  44.040  17.536   9.220
  290POPC   GL2 7202  43.696  17.512   9.202
  290POPC   C1A 7203  43.925  17.355   8.788
  290POPC   D2A 7204  44.037  17.507   8.407
  290POPC   C3A 7205  43.931  17.350   8.060
  290POPC   C4A 7206  43.885  17.504   7.698
  290POPC   C1B 7207  43.548  17.811   8.901
  290POPC   C2B 7208  43.574  17.780   8.470
  290POPC   C3B 7209  43.730  17.850   8.066
  290POPC   C4B 7210  43.523  17.880   7.657
  291POPC   NC3 7211  27.631  31.563   9.846
  291POPC   PO4 7212  27.987  31.989   9.404
  291POPC   GL1 7213  27.596  31.679   9.222
  291POPC   GL2 7214  27.455  31.322   9.305
  291POPC   C1A 7215  27.305  31.512   8.841
  291POPC   D2A 7216  27.345  31.636   8.398
  291POPC   C3A 7217  27.511  31.523   7.972
  291POPC   C4A 7218  27.520  31.670   7.510
  291POPC   C1B 7219  27.752  31.288   8.924
  291POPC   C2B 7220  27.800  31.293   8.462
  291POPC   C3B 7221  27.863  31.092   8.066
  291POPC   C4B 7222  27.842  31.299   7.633
  292POPC   NC3 7223  38.854   9.176   9.577
  292POPC   PO4 7224  39.554   8.834   9.545
  292POPC   GL1 7225  39.318   8.690   9.201
  292POPC   GL2 7226  39.015   8.829   9.231
  292POPC   C1A 7227  39.202   8.611   8.788
  292POPC   D2A 7228  39.444   8.863   8.492
  292POPC   C3A 7229  39.335   8.725   8.090
  292POPC   C4A 7230  39.038   8.628   7.763
  292POPC   C1B 7231  39.127   9.109   8.841
  292POPC   C2B 7232  39.059   9.168   8.347
  292POPC   C3B 7233  39.109   9.135   7.891
  292POPC   C4B 7234  39.480   9.354   7.806
  293POPC   NC3 7235  18.420  41.272   9.351
  293POPC   PO4 7236  18.325  41.844   9.695
  293POPC   GL1 7237  18.139  41.722   9.290
  293POPC   GL2 7238  18.404  41.889   9.155
  293POPC   C1A 7239  18.166  41.580   8.834
  293POPC   D2A 7240  18.029  41.459   8.438
  293POPC   C3A 7241  18.285  41.403   8.109
  293POPC   C4A 7242  17.977  41.498   7.852
  293POPC   C1B 7243  18.590  41.900   8.776
  293POPC   C2B 7244  18.437  41.795   8.401
  293POPC   C3B 7245  18.577  41.805   8.004
  293POPC   C4B 7246  18.673  41.926   7.621
  294POPC   NC3 7247   2.327  32.456   9.591
  294POPC   PO4 7248   1.720  31.997   9.501
  294POPC   GL1 7249   1.704  31.966   9.091
  294POPC   GL2 7250   2.036  31.995   9.044
  294POPC   C1A 7251   1.720  32.151   8.701
  294POPC   D2A 7252   1.962  32.283   8.386
  294POPC   C3A 7253   1.905  32.519   8.031
  294POPC   C4A 7254   1.635  32.452   7.714
  294POPC   C1B 7255   2.206  32.407   8.825
  294POPC   C2B 7256   2.437  32.467   8.396
  294POPC   C3B 7257   2.327  32.154   8.067
  294POPC   C4B 7258   2.267  32.320   7.671
  295POPC   NC3 7259  10.494   9.719   9.666
  295POPC   PO4 7260  10.840  10.239   9.489
  295POPC   GL1 7261  10.516   9.984   9.179
  295POPC   GL2 7262  10.603   9.613   9.134
  295POPC   C1A 7263  10.303   9.847   8.773
  295POPC   D2A 7264  10.463   9.880   8.316
  295POPC   C3A 7265  10.438   9.477   8.049
  295POPC   C4A 7266  10.526   9.285   7.623
  295POPC   C1B 7267  10.823   9.699   8.705
  295POPC   C2B 7268  11.002   9.988   8.378
  295POPC   C3B 7269  10.884  10.037   7.963
  295POPC   C4B 7270  10.648   9.787   7.709
  296POPC   NC3 7271  40.402  19.976   9.389
  296POPC   PO4 7272  39.704  19.989   9.422
  296POPC   GL1 7273  39.984  19.716   9.169
  296POPC   GL2 7274  39.805  19.415   9.108
  296POPC   C1A 7275  40.243  19.816   8.777
  296POPC   D2A 7276  40.197  20.086   8.409
  296POPC   C3A 7277  40.197  19.918   8.020
  296POPC   C4A 7278  40.028  19.909   7.619
  296POPC   C1B 7279  39.595  19.390   8.711
  296POPC   C2B 7280  39.757  19.405   8.279
  296POPC   C3B 7281  39.700  19.629   7.895
  296POPC   C4B 7282  39.476  19.594   7.471
  297POPC   NC3 7283   9.619  39.493   9.431
  297POPC   PO4 7284  10.063  39.014   9.437
  297POPC   GL1 7285   9.869  39.255   9.070
  297POPC   GL2 7286   9.457  39.214   9.051
  297POPC   C1A 7287   9.751  39.095   8.677
  297POPC   D2A 7288   9.922  39.018   8.314
  297POPC   C3A 7289   9.684  39.148   7.979
  297POPC   C4A 7290   9.768  39.516   7.764
  297POPC   C1B 7291   9.544  39.592   8.765
  297POPC   C2B 7292   9.360  39.782   8.366
  297POPC   C3B 7293   9.307  39.680   7.895
  297POPC   C4B 7294   9.317  39.344   7.573
  298POPC   NC3 7295  44.174  18.503   9.546
  298POPC   PO4 7296  43.501  18.295   9.480
  298POPC   GL1 7297  43.757  18.234   9.105
  298POPC   GL2 7298  44.085  18.066   9.159
  298POPC   C1A 7299  43.746  18.259   8.642
  298POPC   D2A 7300  43.829  18.471   8.235
  298POPC   C3A 7301  43.674  18.340   7.812
  298POPC   C4A 7302  43.738  18.223   7.347
  298POPC   C1B 7303  44.049  17.863   8.778
  298POPC   C2B 7304  44.153  18.033   8.372
  298POPC   C3B 7305  44.242  18.250   8.002
  298POPC   C4B 7306  44.048  18.012   7.687
  299POPC   NC3 7307  24.780  18.776   9.474
  299POPC   PO4 7308  24.204  19.048   9.522
  299POPC   GL1 7309  24.409  19.214   9.141
  299POPC   GL2 7310  24.734  19.337   9.254
  299POPC   C1A 7311  24.441  19.060   8.727
  299POPC   D2A 7312  24.573  18.788   8.418
  299POPC   C3A 7313  24.504  18.943   8.001
  299POPC   C4A 7314  24.372  18.695   7.611
  299POPC   C1B 7315  24.860  19.359   8.818
  299POPC   C2B 7316  24.773  19.256   8.379
  299POPC   C3B 7317  24.935  19.205   7.953
  299POPC   C4B 7318  24.826  18.952   7.597
  300POPC   NC3 7319  13.690   5.794   9.420
  300POPC   PO4 7320  13.387   6.323   9.471
  300POPC   GL1 7321  13.611   6.255   9.132
  300POPC   GL2 7322  13.381   5.991   9.045
  300POPC   C1A 7323  13.590   6.307   8.694
  300POPC   D2A 7324  13.507   6.029   8.335
  300POPC   C3A 7325  13.767   5.992   7.992
  300POPC   C4A 7326  13.629   6.164   7.616
  300POPC   C1B 7327  13.629   5.767   8.747
  300POPC   C2B 7328  13.866   5.598   8.390
  300POPC   C3B 7329  13.782   5.466   7.948
  300POPC   C4B 7330  13.713   5.668   7.543
  301POPC   NC3 7331  12.228  13.149   9.461
  301POPC   PO4 7332  12.097  12.504   9.440
  301POPC   GL1 7333  12.207  12.744   9.102
  301POPC   GL2 7334  12.552  12.761   9.190
  301POPC   C1A 7335  12.236  12.694   8.659
  301POPC   D2A 7336  12.394  12.470   8.309
  301POPC   C3A 7337  12.129  12.610   7.996
  301POPC   C4A 7338  11.809  12.947   8.003
  301POPC   C1B 7339  12.492  13.088   8.852
  301POPC   C2B 7340  12.535  13.095   8.445
  301POPC   C3B 7341  12.403  13.047   8.032
  301POPC   C4B 7342  12.587  13.079   7.638
  302POPC   NC3 7343  40.532  35.837   9.796
  302POPC   PO4 7344  40.890  36.314   9.499
  302POPC   GL1 7345  40.650  36.217   9.179
  302POPC   GL2 7346  40.634  35.895   9.281
  302POPC   C1A 7347  40.667  36.294   8.746
  302POPC   D2A 7348  40.823  36.192   8.340
  302POPC   C3A 7349  40.657  36.314   7.940
  302POPC   C4A 7350  41.031  36.270   7.670
  302POPC   C1B 7351  40.620  35.765   8.844
  302POPC   C2B 7352  40.748  35.654   8.410
  302POPC   C3B 7353  40.911  35.790   8.021
  302POPC   C4B 7354  40.700  35.888   7.664
  303POPC   NC3 7355  21.336  34.584   9.584
  303POPC   PO4 7356  22.017  34.554   9.718
  303POPC   GL1 7357  21.771  34.543   9.250
  303POPC   GL2 7358  21.396  34.512   9.113
  303POPC   C1A 7359  21.754  34.395   8.806
  303POPC   D2A 7360  21.469  34.367   8.477
  303POPC   C3A 7361  21.635  34.533   8.110
  303POPC   C4A 7362  21.511  34.593   7.734
  303POPC   C1B 7363  21.116  34.606   8.798
  303POPC   C2B 7364  21.178  34.795   8.460
  303POPC   C3B 7365  21.121  34.603   8.089
  303POPC   C4B 7366  21.040  34.786   7.719
  304POPC   NC3 7367   9.415  17.448   9.451
  304POPC   PO4 7368  10.099  17.604   9.439
  304POPC   GL1 7369   9.934  17.728   9.060
  304POPC   GL2 7370   9.610  17.637   9.029
  304POPC   C1A 7371   9.893  17.554   8.638
  304POPC   D2A 7372   9.732  17.391   8.283
  304POPC   C3A 7373   9.927  17.545   7.921
  304POPC   C4A 7374  10.071  17.304   7.566
  304POPC   C1B 7375   9.380  17.811   8.634
  304POPC   C2B 7376   9.334  17.689   8.156
  304POPC   C3B 7377   9.518  17.805   7.731
  304POPC   C4B 7378   9.310  17.919   7.289
  305POPC   NC3 7379   0.989  18.587   9.729
  305POPC   PO4 7380   1.448  18.234   9.439
  305POPC   GL1 7381   1.336  18.386   9.079
  305POPC   GL2 7382   1.002  18.457   9.227
  305POPC   C1A 7383   1.468  18.277   8.686
  305POPC   D2A 7384   1.245  18.217   8.336
  305POPC   C3A 7385   1.419  18.448   8.044
  305POPC   C4A 7386   1.404  18.313   7.721
  305POPC   C1B 7387   0.872  18.274   8.834
  305POPC   C2B 7388   0.791  18.460   8.446
  305POPC   C3B 7389   0.872  18.394   8.023
  305POPC   C4B 7390   0.908  18.532   7.610
  306POPC   NC3 7391  30.943  18.517   9.378
  306POPC   PO4 7392  30.477  18.047   9.401
  306POPC   GL1 7393  30.521  18.298   9.086
  306POPC   GL2 7394  30.459  18.656   9.210
  306POPC   C1A 7395  30.835  18.300   8.772
  306POPC   D2A 7396  31.075  18.459   8.405
  306POPC   C3A 7397  30.872  18.366   8.021
  306POPC   C4A 7398  30.526  18.366   7.689
  306POPC   C1B 7399  30.500  18.701   8.785
  306POPC   C2B 7400  30.558  18.512   8.424
  306POPC   C3B 7401  30.333  18.407   8.152
  306POPC   C4B 7402  30.166  18.663   7.870
  307POPC   NC3 7403  32.678  12.924   9.487
  307POPC   PO4 7404  32.138  12.576   9.450
  307POPC   GL1 7405  32.427  12.664   9.119
  307POPC   GL2 7406  32.274  13.002   9.153
  307POPC   C1A 7407  32.557  12.974   8.771
  307POPC   D2A 7408  32.338  13.141   8.416
  307POPC   C3A 7409  32.417  12.977   8.017
  307POPC   C4A 7410  32.546  12.964   7.597
  307POPC   C1B 7411  32.068  12.812   8.770
  307POPC   C2B 7412  32.107  12.685   8.327
  307POPC   C3B 7413  31.891  12.566   7.927
  307POPC   C4B 7414  31.903  12.512   7.398
  308POPC   NC3 7415  25.602  26.087   9.460
  308POPC   PO4 7416  26.139  25.888   9.309
  308POPC   GL1 7417  25.812  25.819   9.021
  308POPC   GL2 7418  25.782  26.174   8.976
  308POPC   C1A 7419  25.685  25.876   8.571
  308POPC   D2A 7420  26.017  25.979   8.249
  308POPC   C3A 7421  25.984  26.143   7.851
  308POPC   C4A 7422  25.987  26.022   7.430
  308POPC   C1B 7423  25.830  26.372   8.538
  308POPC   C2B 7424  26.185  26.466   8.236
  308POPC   C3B 7425  26.452  26.319   7.879
  308POPC   C4B 7426  26.325  26.413   7.474
  309POPC   NC3 7427  22.268  17.567   9.557
  309POPC   PO4 7428  21.780  17.153   9.379
  309POPC   GL1 7429  21.887  17.596   9.167
  309POPC   GL2 7430  22.251  17.682   9.054
  309POPC   C1A 7431  21.918  17.646   8.692
  309POPC   D2A 7432  22.128  17.445   8.335
  309POPC   C3A 7433  22.019  17.559   7.928
  309POPC   C4A 7434  22.301  17.683   7.617
  309POPC   C1B 7435  22.408  17.814   8.632
  309POPC   C2B 7436  22.434  17.847   8.190
  309POPC   C3B 7437  22.733  17.664   7.908
  309POPC   C4B 7438  22.753  17.444   7.503
  310POPC   NC3 7439   5.295  28.116   9.658
  310POPC   PO4 7440   4.799  27.633   9.755
  310POPC   GL1 7441   4.827  27.382   9.278
  310POPC   GL2 7442   4.533  27.224   9.136
  310POPC   C1A 7443   5.006  27.472   8.846
  310POPC   D2A 7444   5.252  27.593   8.484
  310POPC   C3A 7445   5.069  27.782   8.102
  310POPC   C4A 7446   5.259  27.908   7.732
  310POPC   C1B 7447   4.785  27.021   8.809
  310POPC   C2B 7448   4.997  27.140   8.440
  310POPC   C3B 7449   4.855  27.310   8.066
  310POPC   C4B 7450   5.055  27.451   7.682
  311POPC   NC3 7451   8.788   3.268   9.479
  311POPC   PO4 7452   9.057   2.582   9.435
  311POPC   GL1 7453   8.916   2.869   9.131
  311POPC   GL2 7454   8.549   2.931   9.083
  311POPC   C1A 7455   8.884   2.995   8.704
  311POPC   D2A 7456   8.854   3.201   8.346
  311POPC   C3A 7457   9.005   2.907   8.076
  311POPC   C4A 7458   8.800   2.881   7.702
  311POPC   C1B 7459   8.554   2.609   8.767
  311POPC   C2B 7460   8.768   2.507   8.384
  311POPC   C3B 7461   8.780   2.443   7.959
  311POPC   C4B 7462   8.701   2.425   7.535
  312POPC   NC3 7463  22.129  11.076   9.403
  312POPC   PO4 7464  22.168  11.741   9.271
  312POPC   GL1 7465  22.299  11.412   9.035
  312POPC   GL2 7466  21.965  11.275   8.981
  312POPC   C1A 7467  22.378  11.361   8.614
  312POPC   D2A 7468  22.502  11.461   8.195
  312POPC   C3A 7469  22.301  11.196   7.873
  312POPC   C4A 7470  22.194  11.280   7.439
  312POPC   C1B 7471  21.876  11.526   8.652
  312POPC   C2B 7472  21.989  11.375   8.279
  312POPC   C3B 7473  22.075  11.641   7.980
  312POPC   C4B 7474  22.011  11.732   7.600
  313POPC   NC3 7475  18.199  28.270   9.406
  313POPC   PO4 7476  18.668  28.895   9.445
  313POPC   GL1 7477  18.488  28.629   9.144
  313POPC   GL2 7478  18.128  28.692   9.082
  313POPC   C1A 7479  18.447  28.411   8.746
  313POPC   D2A 7480  18.263  28.406   8.365
  313POPC   C3A 7481  18.525  28.315   8.040
  313POPC   C4A 7482  18.213  28.273   7.698
  313POPC   C1B 7483  18.346  28.924   8.736
  313POPC   C2B 7484  18.547  28.823   8.351
  313POPC   C3B 7485  18.300  28.750   7.965
  313POPC   C4B 7486  18.447  28.723   7.532
  314POPC   NC3 7487  13.763  11.346   9.339
  314POPC   PO4 7488  13.567  11.919   9.524
  314POPC   GL1 7489  13.303  12.151   9.231
  314POPC   GL2 7490  13.619  12.157   9.046
  314POPC   C1A 7491  13.187  12.116   8.806
  314POPC   D2A 7492  13.524  12.048   8.504
  314POPC   C3A 7493  13.429  12.092   8.075
  314POPC   C4A 7494  13.578  11.950   7.693
  314POPC   C1B 7495  13.819  11.805   8.857
  314POPC   C2B 7496  13.848  11.624   8.447
  314POPC   C3B 7497  13.944  11.760   8.036
  314POPC   C4B 7498  14.083  12.027   7.708
  315POPC   NC3 7499   4.988  41.451   9.478
  315POPC   PO4 7500   5.410  41.924   9.355
  315POPC   GL1 7501   5.065  41.807   9.112
  315POPC   GL2 7502   5.234  41.469   9.027
  315POPC   C1A 7503   4.979  41.741   8.679
  315POPC   D2A 7504   5.245  41.469   8.483
  315POPC   C3A 7505   5.308  41.655   8.103
  315POPC   C4A 7506   5.093  41.792   7.761
  315POPC   C1B 7507   4.905  41.209   8.843
  315POPC   C2B 7508   4.911  41.069   8.436
  315POPC   C3B 7509   4.863  41.377   8.122
  315POPC   C4B 7510   4.923  41.226   7.755
  316POPC   NC3 7511  26.878  10.147   9.794
  316POPC   PO4 7512  27.010   9.687   9.312
  316POPC   GL1 7513  26.751   9.574   9.025
  316POPC   GL2 7514  26.656   9.879   8.985
  316POPC   C1A 7515  26.880   9.526   8.641
  316POPC   D2A 7516  26.832   9.743   8.278
  316POPC   C3A 7517  27.123   9.647   7.948
  316POPC   C4A 7518  26.973   9.726   7.531
  316POPC   C1B 7519  26.549  10.061   8.620
  316POPC   C2B 7520  26.529  10.172   8.200
  316POPC   C3B 7521  26.695  10.015   7.837
  316POPC   C4B 7522  26.575  10.008   7.378
  317POPC   NC3 7523   9.167   1.288   9.621
  317POPC   PO4 7524   8.888   0.725   9.520
  317POPC   GL1 7525   9.090   0.984   9.212
  317POPC   GL2 7526   8.934   1.324   9.172
  317POPC   C1A 7527   9.128   0.970   8.773
  317POPC   D2A 7528   8.869   0.764   8.459
  317POPC   C3A 7529   8.966   0.973   8.098
  317POPC   C4A 7530   9.209   1.083   7.789
  317POPC   C1B 7531   8.932   1.462   8.754
  317POPC   C2B 7532   8.846   1.659   8.389
  317POPC   C3B 7533   8.966   1.506   8.024
  317POPC   C4B 7534   8.776   1.325   7.703
  318POPC   NC3 7535  43.640  11.544   9.930
  318POPC   PO4 7536  43.780  11.040   9.445
  318POPC   GL1 7537  44.026  11.210   9.099
  318POPC   GL2 7538  44.141  11.513   9.214
  318POPC   C1A 7539  44.101  11.293   8.645
  318POPC   D2A 7540  43.963  11.105   8.295
  318POPC   C3A 7541  44.182  11.151   7.952
  318POPC   C4A 7542  43.904  11.186   7.613
  318POPC   C1B 7543  43.881  11.695   8.851
  318POPC   C2B 7544  43.991  11.766   8.446
  318POPC   C3B 7545  43.894  11.564   8.087
  318POPC   C4B 7546  43.724  11.668   7.696
  319POPC   NC3 7547  33.249  28.167   9.756
  319POPC   PO4 7548  32.795  28.654   9.508
  319POPC   GL1 7549  33.064  28.562   9.186
  319POPC   GL2 7550  33.123  28.206   9.233
  319POPC   C1A 7551  33.118  28.652   8.758
  319POPC   D2A 7552  32.925  28.521   8.388
  319POPC   C3A 7553  33.106  28.650   8.057
  319POPC   C4A 7554  33.241  28.500   7.681
  319POPC   C1B 7555  32.935  28.169   8.828
  319POPC   C2B 7556  33.113  28.052   8.466
  319POPC   C3B 7557  33.124  28.140   8.062
  319POPC   C4B 7558  32.771  28.318   7.848
  320POPC   NC3 7559  11.618  29.696   9.519
  320POPC   PO4 7560  10.954  29.514   9.349
  320POPC   GL1 7561  11.025  29.931   9.142
  320POPC   GL2 7562  11.352  30.064   9.219
  320POPC   C1A 7563  11.172  30.167   8.767
  320POPC   D2A 7564  11.148  30.241   8.357
  320POPC   C3A 7565  11.139  29.983   8.047
  320POPC   C4A 7566  11.288  30.204   7.722
  320POPC   C1B 7567  11.457  29.753   8.880
  320POPC   C2B 7568  11.500  29.890   8.462
  320POPC   C3B 7569  11.610  29.782   8.050
  320POPC   C4B 7570  11.367  29.649   7.712
  321POPC   NC3 7571  17.587  37.337   9.346
  321POPC   PO4 7572  17.191  37.884   9.340
  321POPC   GL1 7573  17.419  37.668   8.999
  321POPC   GL2 7574  17.798  37.530   8.944
  321POPC   C1A 7575  17.452  37.653   8.569
  321POPC   D2A 7576  17.180  37.556   8.279
  321POPC   C3A 7577  17.459  37.504   7.978
  321POPC   C4A 7578  17.477  37.638   7.613
  321POPC   C1B 7579  17.845  37.907   8.761
  321POPC   C2B 7580  17.797  38.101   8.355
  321POPC   C3B 7581  17.685  38.044   7.914
  321POPC   C4B 7582  17.812  38.009   7.475
  322POPC   NC3 7583  42.325  12.233   9.500
  322POPC   PO4 7584  42.458  11.639   9.464
  322POPC   GL1 7585  42.262  11.876   9.126
  322POPC   GL2 7586  42.239  12.239   9.017
  322POPC   C1A 7587  42.236  11.842   8.696
  322POPC   D2A 7588  42.098  11.733   8.323
  322POPC   C3A 7589  42.305  11.985   8.055
  322POPC   C4A 7590  42.363  12.213   7.688
  322POPC   C1B 7591  41.984  12.296   8.666
  322POPC   C2B 7592  42.025  12.384   8.232
  322POPC   C3B 7593  41.870  12.175   7.864
  322POPC   C4B 7594  41.851  12.232   7.434
  323POPC   NC3 7595  34.588  11.645   9.702
  323POPC   PO4 7596  34.165  11.215   9.663
  323POPC   GL1 7597  34.465  11.288   9.291
  323POPC   GL2 7598  34.575  11.640   9.173
  323POPC   C1A 7599  34.583  11.195   8.851
  323POPC   D2A 7600  34.419  11.101   8.445
  323POPC   C3A 7601  34.667  11.233   8.083
  323POPC   C4A 7602  34.533  11.357   7.701
  323POPC   C1B 7603  34.920  11.590   8.804
  323POPC   C2B 7604  35.055  11.542   8.300
  323POPC   C3B 7605  35.027  11.550   7.809
  323POPC   C4B 7606  34.862  11.487   7.328
  324POPC   NC3 7607   7.047  11.155   9.531
  324POPC   PO4 7608   6.421  11.361   9.470
  324POPC   GL1 7609   6.699  11.277   9.118
  324POPC   GL2 7610   7.049  11.323   9.069
  324POPC   C1A 7611   6.792  11.342   8.651
  324POPC   D2A 7612   6.613  11.627   8.401
  324POPC   C3A 7613   6.638  11.499   8.012
  324POPC   C4A 7614   6.558  11.291   7.656
  324POPC   C1B 7615   6.926  10.890   8.877
  324POPC   C2B 7616   6.691  10.790   8.475
  324POPC   C3B 7617   6.776  10.976   8.041
  324POPC   C4B 7618   7.056  11.284   7.806
  325POPC   NC3 7619  30.411  16.002   9.893
  325POPC   PO4 7620  29.777  15.972   9.533
  325POPC   GL1 7621  30.018  15.878   9.197
  325POPC   GL2 7622  29.739  15.855   9.017
  325POPC   C1A 7623  30.210  16.005   8.814
  325POPC   D2A 7624  30.193  16.239   8.414
  325POPC   C3A 7625  30.075  15.952   8.077
  325POPC   C4A 7626  30.312  15.853   7.701
  325POPC   C1B 7627  29.717  16.000   8.624
  325POPC   C2B 7628  29.531  15.984   8.249
  325POPC   C3B 7629  29.612  15.896   7.830
  325POPC   C4B 7630  29.875  15.968   7.477
  326POPC   NC3 7631   2.509  16.567   9.575
  326POPC   PO4 7632   2.594  15.924   9.786
  326POPC   GL1 7633   2.542  15.922   9.268
  326POPC   GL2 7634   2.843  15.735   9.126
  326POPC   C1A 7635   2.684  16.081   8.811
  326POPC   D2A 7636   3.008  16.096   8.498
  326POPC   C3A 7637   3.000  16.338   8.125
  326POPC   C4A 7638   2.954  16.093   7.749
  326POPC   C1B 7639   2.875  15.606   8.700
  326POPC   C2B 7640   2.508  15.648   8.402
  326POPC   C3B 7641   2.687  15.708   8.006
  326POPC   C4B 7642   2.824  15.483   7.637
  327POPC   NC3 7643  35.822  26.205   9.579
  327POPC   PO4 7644  35.151  26.163   9.567
  327POPC   GL1 7645  35.453  26.207   9.225
  327POPC   GL2 7646  35.502  25.874   9.270
  327POPC   C1A 7647  35.554  26.273   8.783
  327POPC   D2A 7648  35.296  26.073   8.452
  327POPC   C3A 7649  35.184  26.067   8.005
  327POPC   C4A 7650  35.326  26.190   7.613
  327POPC   C1B 7651  35.478  25.767   8.844
  327POPC   C2B 7652  35.548  25.647   8.404
  327POPC   C3B 7653  35.733  25.746   8.027
  327POPC   C4B 7654  35.643  25.787   7.595
  328POPC   NC3 7655   0.756  39.418   9.457
  328POPC   PO4 7656   0.350  38.894   9.514
  328POPC   GL1 7657   0.448  39.122   9.152
  328POPC   GL2 7658   0.344  39.478   9.153
  328POPC   C1A 7659   0.464  39.062   8.723
  328POPC   D2A 7660   0.742  39.039   8.378
  328POPC   C3A 7661   0.474  39.075   8.023
  328POPC   C4A 7662   0.500  39.113   7.577
  328POPC   C1B 7663   0.261  39.585   8.728
  328POPC   C2B 7664   0.435  39.471   8.363
  328POPC   C3B 7665   0.400  39.644   7.977
  328POPC   C4B 7666   0.289  39.584   7.581
  329POPC   NC3 7667  15.713   4.472   9.516
  329POPC   PO4 7668  16.205   4.058   9.433
  329POPC   GL1 7669  15.946   4.234   9.141
  329POPC   GL2 7670  16.148   4.493   9.089
  329POPC   C1A 7671  15.914   4.103   8.737
  329POPC   D2A 7672  16.105   3.918   8.396
  329POPC   C3A 7673  15.954   4.035   8.002
  329POPC   C4A 7674  16.092   4.206   7.608
  329POPC   C1B 7675  16.097   4.589   8.699
  329POPC   C2B 7676  16.057   4.418   8.321
  329POPC   C3B 7677  15.912   4.554   7.941
  329POPC   C4B 7678  16.169   4.727   7.611
  330POPC   NC3 7679   9.083  16.801   9.558
  330POPC   PO4 7680   8.676  16.314   9.651
  330POPC   GL1 7681   8.788  16.531   9.200
  330POPC   GL2 7682   9.181  16.633   9.097
  330POPC   C1A 7683   8.857  16.634   8.720
  330POPC   D2A 7684   8.818  16.916   8.346
  330POPC   C3A 7685   8.818  16.653   7.987
  330POPC   C4A 7686   9.131  16.333   7.839
  330POPC   C1B 7687   9.333  16.796   8.689
  330POPC   C2B 7688   9.269  16.616   8.269
  330POPC   C3B 7689   9.272  16.845   7.849
  330POPC   C4B 7690   9.244  17.061   7.424
  331POPC   NC3 7691   5.997  43.703   9.869
  331POPC   PO4 7692   5.650  44.214   9.643
  331POPC   GL1 7693   5.935  44.115   9.311
  331POPC   GL2 7694   5.908  43.776   9.249
  331POPC   C1A 7695   5.892  44.108   8.856
  331POPC   D2A 7696   6.054  44.008   8.434
  331POPC   C3A 7697   5.803  44.159   8.078
  331POPC   C4A 7698   5.897  44.316   7.637
  331POPC   C1B 7699   5.747  43.610   8.856
  331POPC   C2B 7700   5.816  43.519   8.422
  331POPC   C3B 7701   6.021  43.652   8.059
  331POPC   C4B 7702   5.886  43.820   7.692
  332POPC   NC3 7703  20.516  38.202   9.521
  332POPC   PO4 7704  20.602  37.515   9.531
  332POPC   GL1 7705  20.441  37.629   9.140
  332POPC   GL2 7706  20.348  37.977   9.112
  332POPC   C1A 7707  20.629  37.783   8.745
  332POPC   D2A 7708  20.799  37.758   8.331
  332POPC   C3A 7709  20.525  37.741   7.955
  332POPC   C4A 7710  20.804  37.538   7.659
  332POPC   C1B 7711  20.286  38.165   8.715
  332POPC   C2B 7712  20.411  38.111   8.294
  332POPC   C3B 7713  20.525  38.245   7.866
  332POPC   C4B 7714  20.687  38.013   7.480
  333POPC   NC3 7715  43.514  43.413   9.663
  333POPC   PO4 7716  43.132  43.980   9.640
  333POPC   GL1 7717  43.245  43.700   9.295
  333POPC   GL2 7718  42.990  43.864   9.065
  333POPC   C1A 7719  43.295  43.550   8.856
  333POPC   D2A 7720  43.040  43.648   8.497
  333POPC   C3A 7721  43.228  43.546   8.099
  333POPC   C4A 7722  43.159  43.463   7.678
  333POPC   C1B 7723  43.300  44.039   8.719
  333POPC   C2B 7724  43.207  44.096   8.280
  333POPC   C3B 7725  42.949  43.924   7.919
  333POPC   C4B 7726  43.256  43.972   7.596
  334POPC   NC3 7727  26.232  42.399   9.907
  334POPC   PO4 7728  26.333  42.135   9.314
  334POPC   GL1 7729  26.028  42.165   8.967
  334POPC   GL2 7730  25.709  41.937   9.037
  334POPC   C1A 7731  26.207  42.494   8.668
  334POPC   D2A 7732  26.160  42.638   8.248
  334POPC   C3A 7733  26.178  42.233   8.022
  334POPC   C4A 7734  26.442  42.109   7.684
  334POPC   C1B 7735  25.624  42.018   8.649
  334POPC   C2B 7736  25.780  42.320   8.426
  334POPC   C3B 7737  25.705  42.415   8.048
  334POPC   C4B 7738  25.855  42.420   7.670
  335POPC   NC3 7739  42.167  17.208   9.598
  335POPC   PO4 7740  42.671  17.747   9.583
  335POPC   GL1 7741  42.627  17.610   9.179
  335POPC   GL2 7742  42.442  17.304   9.136
  335POPC   C1A 7743  42.502  17.653   8.745
  335POPC   D2A 7744  42.491  17.368   8.395
  335POPC   C3A 7745  42.362  17.535   7.986
  335POPC   C4A 7746  42.399  17.299   7.592
  335POPC   C1B 7747  42.053  17.458   8.925
  335POPC   C2B 7748  41.943  17.368   8.481
  335POPC   C3B 7749  42.031  17.165   8.092
  335POPC   C4B 7750  41.985  17.005   7.661
  336POPC   NC3 7751  16.217  26.544   9.606
  336POPC   PO4 7752  15.811  27.059   9.530
  336POPC   GL1 7753  15.965  27.025   9.123
  336POPC   GL2 7754  15.697  27.259   9.042
  336POPC   C1A 7755  16.026  26.684   8.741
  336POPC   D2A 7756  16.031  26.386   8.337
  336POPC   C3A 7757  16.179  26.478   7.923
  336POPC   C4A 7758  16.328  26.890   7.859
  336POPC   C1B 7759  15.991  27.205   8.668
  336POPC   C2B 7760  16.013  26.969   8.283
  336POPC   C3B 7761  15.790  26.871   7.924
  336POPC   C4B 7762  15.625  26.522   7.742
  337POPC   NC3 7763   7.339   9.532   9.605
  337POPC   PO4 7764   7.557  10.192   9.502
  337POPC   GL1 7765   7.581   9.854   9.203
  337POPC   GL2 7766   7.812   9.568   9.224
  337POPC   C1A 7767   7.309   9.630   8.918
  337POPC   D2A 7768   7.192   9.510   8.503
  337POPC   C3A 7769   7.319   9.724   8.124
  337POPC   C4A 7770   7.205   9.599   7.727
  337POPC   C1B 7771   7.806   9.672   8.766
  337POPC   C2B 7772   7.707   9.449   8.375
  337POPC   C3B 7773   7.564   9.275   7.971
  337POPC   C4B 7774   7.537   9.301   7.516
  338POPC   NC3 7775  11.407  13.476   9.549
  338POPC   PO4 7776  11.016  13.921   9.238
  338POPC   GL1 7777  11.395  13.672   9.059
  338POPC   GL2 7778  11.574  13.327   9.105
  338POPC   C1A 7779  11.663  13.606   8.686
  338POPC   D2A 7780  11.622  13.600   8.219
  338POPC   C3A 7781  11.254  13.813   8.016
  338POPC   C4A 7782  10.962  13.888   7.639
  338POPC   C1B 7783  11.337  13.189   8.736
  338POPC   C2B 7784  11.081  13.216   8.324
  338POPC   C3B 7785  11.085  13.367   7.884
  338POPC   C4B 7786  11.514  13.364   7.731
  339POPC   NC3 7787  10.362  28.800   9.841
  339POPC   PO4 7788  10.408  28.118   9.575
  339POPC   GL1 7789  10.525  28.015   9.163
  339POPC   GL2 7790  10.457  28.383   9.140
  339POPC   C1A 7791  10.540  28.137   8.716
  339POPC   D2A 7792  10.573  28.438   8.381
  339POPC   C3A 7793  10.692  28.113   8.105
  339POPC   C4A 7794  10.537  28.084   7.707
  339POPC   C1B 7795  10.177  28.531   8.831
  339POPC   C2B 7796  10.245  28.868   8.561
  339POPC   C3B 7797  10.233  28.812   8.153
  339POPC   C4B 7798  10.429  28.569   7.830
  340POPC   NC3 7799   8.778  34.756   9.446
  340POPC   PO4 7800   9.241  34.257   9.558
  340POPC   GL1 7801   9.159  34.351   9.127
  340POPC   GL2 7802   8.814  34.465   9.025
  340POPC   C1A 7803   9.268  34.556   8.711
  340POPC   D2A 7804   9.057  34.748   8.338
  340POPC   C3A 7805   8.916  34.387   8.090
  340POPC   C4A 7806   8.871  34.128   7.718
  340POPC   C1B 7807   8.466  34.780   8.849
  340POPC   C2B 7808   8.331  34.940   8.424
  340POPC   C3B 7809   8.512  34.804   8.051
  340POPC   C4B 7810   8.677  34.612   7.679
  341POPC   NC3 7811  17.958  34.840   9.572
  341POPC   PO4 7812  18.466  34.380   9.648
  341POPC   GL1 7813  18.274  34.514   9.248
  341POPC   GL2 7814  18.293  34.225   9.061
  341POPC   C1A 7815  18.434  34.621   8.790
  341POPC   D2A 7816  18.302  34.591   8.332
  341POPC   C3A 7817  18.558  34.802   8.002
  341POPC   C4A 7818  18.774  34.754   7.587
  341POPC   C1B 7819  17.931  34.448   8.847
  341POPC   C2B 7820  17.706  34.537   8.438
  341POPC   C3B 7821  17.898  34.434   8.023
  341POPC   C4B 7822  18.320  34.363   7.851
  342POPC   NC3 7823  33.641   0.554   9.565
  342POPC   PO4 7824  33.138   0.106   9.582
  342POPC   GL1 7825  33.537   0.164   9.255
  342POPC   GL2 7826  33.832   0.457   9.117
  342POPC   C1A 7827  33.553   0.226   8.807
  342POPC   D2A 7828  33.637   0.618   8.565
  342POPC   C3A 7829  33.759   0.525   8.133
  342POPC   C4A 7830  33.554   0.553   7.735
  342POPC   C1B 7831  34.101   0.628   8.761
  342POPC   C2B 7832  34.265   0.554   8.318
  342POPC   C3B 7833  34.315   0.846   7.965
  342POPC   C4B 7834  33.958   0.857   7.768
  343POPC   NC3 7835  10.416   5.731   9.397
  343POPC   PO4 7836  10.871   6.071   9.736
  343POPC   GL1 7837  10.837   6.060   9.223
  343POPC   GL2 7838  10.773   5.776   9.059
  343POPC   C1A 7839  10.703   6.138   8.723
  343POPC   D2A 7840  10.501   6.030   8.329
  343POPC   C3A 7841  10.764   6.027   7.982
  343POPC   C4A 7842  10.589   5.876   7.618
  343POPC   C1B 7843  10.406   5.739   8.738
  343POPC   C2B 7844  10.384   5.466   8.389
  343POPC   C3B 7845  10.368   5.630   8.007
  343POPC   C4B 7846  10.215   5.511   7.636
  344POPC   NC3 7847  16.377   6.174   9.512
  344POPC   PO4 7848  15.785   5.707   9.518
  344POPC   GL1 7849  15.996   5.914   9.214
  344POPC   GL2 7850  16.314   5.787   9.149
  344POPC   C1A 7851  15.842   5.924   8.808
  344POPC   D2A 7852  15.988   6.059   8.416
  344POPC   C3A 7853  15.706   6.093   8.100
  344POPC   C4A 7854  15.718   5.884   7.730
  344POPC   C1B 7855  16.387   5.856   8.706
  344POPC   C2B 7856  16.475   5.966   8.265
  344POPC   C3B 7857  16.194   5.909   7.911
  344POPC   C4B 7858  16.281   5.803   7.454
  345POPC   NC3 7859  29.141  28.595   9.676
  345POPC   PO4 7860  29.497  29.069   9.529
  345POPC   GL1 7861  29.397  29.202   9.083
  345POPC   GL2 7862  29.029  29.238   9.079
  345POPC   C1A 7863  29.249  29.185   8.628
  345POPC   D2A 7864  29.086  29.272   8.217
  345POPC   C3A 7865  29.319  29.080   7.855
  345POPC   C4A 7866  29.220  28.670   7.662
  345POPC   C1B 7867  28.830  29.506   8.720
  345POPC   C2B 7868  28.683  29.599   8.256
  345POPC   C3B 7869  28.838  29.525   7.816
  345POPC   C4B 7870  28.777  29.586   7.360
  346POPC   NC3 7871   0.261  30.344   9.271
  346POPC   PO4 7872   0.648  30.909   9.383
  346POPC   GL1 7873   0.510  30.745   9.048
  346POPC   GL2 7874   0.693  30.458   9.012
  346POPC   C1A 7875   0.314  30.664   8.659
  346POPC   D2A 7876   0.153  30.857   8.290
  346POPC   C3A 7877   0.344  30.756   7.898
  346POPC   C4A 7878   0.357  30.397   7.622
  346POPC   C1B 7879   0.815  30.575   8.633
  346POPC   C2B 7880   0.709  30.599   8.234
  346POPC   C3B 7881   0.835  30.434   7.857
  346POPC   C4B 7882   0.847  30.287   7.435
  347POPC   NC3 7883   6.111   6.088   9.662
  347POPC   PO4 7884   5.835   5.534   9.500
  347POPC   GL1 7885   5.907   5.911   9.203
  347POPC   GL2 7886   5.606   6.115   9.076
  347POPC   C1A 7887   6.100   6.186   8.894
  347POPC   D2A 7888   6.234   6.088   8.483
  347POPC   C3A 7889   5.993   5.768   8.299
  347POPC   C4A 7890   5.967   5.810   7.877
  347POPC   C1B 7891   5.559   5.782   8.811
  347POPC   C2B 7892   5.547   6.022   8.448
  347POPC   C3B 7893   5.600   6.138   8.056
  347POPC   C4B 7894   5.480   5.847   7.746
  348POPC   NC3 7895   5.461  13.356   9.487
  348POPC   PO4 7896   4.834  13.746   9.519
  348POPC   GL1 7897   5.058  13.549   9.166
  348POPC   GL2 7898   5.390  13.674   9.117
  348POPC   C1A 7899   5.057  13.549   8.713
  348POPC   D2A 7900   4.851  13.363   8.343
  348POPC   C3A 7901   4.980  13.582   7.984
  348POPC   C4A 7902   5.095  13.514   7.546
  348POPC   C1B 7903   5.498  13.308   8.823
  348POPC   C2B 7904   5.368  13.303   8.378
  348POPC   C3B 7905   5.479  13.403   7.960
  348POPC   C4B 7906   5.510  13.207   7.543
  349POPC   NC3 7907   6.614  21.850   9.493
  349POPC   PO4 7908   7.018  21.377   9.831
  349POPC   GL1 7909   6.659  21.351   9.390
  349POPC   GL2 7910   6.499  21.579   9.094
  349POPC   C1A 7911   6.614  21.105   8.960
  349POPC   D2A 7912   6.576  21.225   8.503
  349POPC   C3A 7913   6.700  21.047   8.066
  349POPC   C4A 7914   6.543  21.206   7.649
  349POPC   C1B 7915   6.849  21.568   8.786
  349POPC   C2B 7916   6.920  21.574   8.352
  349POPC   C3B 7917   6.602  21.545   8.073
  349POPC   C4B 7918   6.561  21.731   7.724
  350POPC   NC3 7919  36.190   6.153   9.498
  350POPC   PO4 7920  36.189   6.905   9.530
  350POPC   GL1 7921  36.185   6.627   9.186
  350POPC   GL2 7922  36.514   6.554   9.248
  350POPC   C1A 7923  36.018   6.429   8.782
  350POPC   D2A 7924  35.948   6.248   8.369
  350POPC   C3A 7925  35.977   6.477   7.997
  350POPC   C4A 7926  36.093   6.710   7.651
  350POPC   C1B 7927  36.520   6.601   8.794
  350POPC   C2B 7928  36.311   6.608   8.390
  350POPC   C3B 7929  36.296   6.894   8.066
  350POPC   C4B 7930  36.559   6.947   7.741
  351POPC   NC3 7931  27.300   3.318   9.437
  351POPC   PO4 7932  26.819   3.850   9.456
  351POPC   GL1 7933  26.887   3.500   9.164
  351POPC   GL2 7934  27.137   3.690   9.056
  351POPC   C1A 7935  26.719   3.286   8.771
  351POPC   D2A 7936  26.622   3.202   8.306
  351POPC   C3A 7937  26.859   3.458   7.985
  351POPC   C4A 7938  26.654   3.816   7.760
  351POPC   C1B 7939  27.320   3.572   8.719
  351POPC   C2B 7940  27.294   3.416   8.344
  351POPC   C3B 7941  27.349   3.707   8.036
  351POPC   C4B 7942  27.161   3.813   7.687
  352POPC   NC3 7943  23.909  20.266   9.530
  352POPC   PO4 7944  23.814  19.568   9.472
  352POPC   GL1 7945  23.823  19.888   9.162
  352POPC   GL2 7946  23.507  20.014   9.063
  352POPC   C1A 7947  24.031  19.983   8.768
  352POPC   D2A 7948  24.176  19.889   8.340
  352POPC   C3A 7949  23.936  19.700   7.990
  352POPC   C4A 7950  23.836  19.920   7.580
  352POPC   C1B 7951  23.480  19.672   8.786
  352POPC   C2B 7952  23.675  19.804   8.441
  352POPC   C3B 7953  23.514  19.984   8.105
  352POPC   C4B 7954  23.438  19.691   7.807
  353POPC   NC3 7955  14.042  40.997   9.464
  353POPC   PO4 7956  13.550  40.595   9.758
  353POPC   GL1 7957  13.742  40.556   9.303
  353POPC   GL2 7958  13.442  40.604   9.142
  353POPC   C1A 7959  13.776  40.768   8.833
  353POPC   D2A 7960  13.479  40.725   8.470
  353POPC   C3A 7961  13.533  40.893   8.068
  353POPC   C4A 7962  13.755  40.827   7.678
  353POPC   C1B 7963  13.191  40.469   8.837
  353POPC   C2B 7964  13.173  40.314   8.415
  353POPC   C3B 7965  13.153  40.466   7.993
  353POPC   C4B 7966  13.302  40.552   7.582
  354POPC   NC3 7967  34.775   3.344   9.442
  354POPC   PO4 7968  34.729   4.009   9.406
  354POPC   GL1 7969  34.648   3.751   9.103
  354POPC   GL2 7970  34.307   3.693   9.210
  354POPC   C1A 7971  34.948   3.584   8.820
  354POPC   D2A 7972  35.034   3.678   8.404
  354POPC   C3A 7973  34.658   3.515   8.183
  354POPC   C4A 7974  34.570   3.332   7.767
  354POPC   C1B 7975  34.251   3.885   8.774
  354POPC   C2B 7976  34.139   3.752   8.322
  354POPC   C3B 7977  34.325   3.762   7.885
  354POPC   C4B 7978  34.333   3.647   7.426
  355POPC   NC3 7979  26.934  14.725   9.622
  355POPC   PO4 7980  26.587  14.210   9.618
  355POPC   GL1 7981  26.622  14.471   9.260
  355POPC   GL2 7982  26.990  14.507   9.164
  355POPC   C1A 7983  26.594  14.340   8.824
  355POPC   D2A 7984  26.707  14.238   8.402
  355POPC   C3A 7985  26.468  14.332   8.012
  355POPC   C4A 7986  26.427  14.159   7.580
  355POPC   C1B 7987  27.154  14.643   8.751
  355POPC   C2B 7988  27.216  14.445   8.339
  355POPC   C3B 7989  27.015  14.233   7.999
  355POPC   C4B 7990  26.839  14.441   7.674
  356POPC   NC3 7991  37.397   0.664   9.559
  356POPC   PO4 7992  37.148   0.065   9.692
  356POPC   GL1 7993  37.031   0.186   9.246
  356POPC   GL2 7994  36.879   0.472   9.062
  356POPC   C1A 7995  37.167   0.143   8.810
  356POPC   D2A 7996  37.079  44.972   8.422
  356POPC   C3A 7997  36.888   0.209   8.088
  356POPC   C4A 7998  37.099   0.328   7.714
  356POPC   C1B 7999  37.030   0.679   8.701
  356POPC   C2B 8000  37.029   0.716   8.255
  356POPC   C3B 8001  36.859   0.750   7.854
  356POPC   C4B 8002  37.032   0.747   7.438
  357POPC   NC3 8003   7.552  17.793   9.523
  357POPC   PO4 8004   7.464  17.209   9.439
  357POPC   GL1 8005   7.441  17.480   9.150
  357POPC   GL2 8006   7.145  17.681   9.207
  357POPC   C1A 8007   7.636  17.540   8.802
  357POPC   D2A 8008   7.598  17.687   8.426
  357POPC   C3A 8009   7.453  17.398   8.144
  357POPC   C4A 8010   7.482  17.488   7.721
  357POPC   C1B 8011   7.144  17.638   8.761
  357POPC   C2B 8012   7.154  17.901   8.441
  357POPC   C3B 8013   7.308  17.878   8.037
  357POPC   C4B 8014   7.013  17.721   7.762
  358POPC   NC3 8015  29.366  41.232   9.483
  358POPC   PO4 8016  29.376  41.874   9.520
  358POPC   GL1 8017  29.168  41.672   9.164
  358POPC   GL2 8018  28.767  41.707   9.181
  358POPC   C1A 8019  29.359  41.424   8.809
  358POPC   D2A 8020  29.477  41.514   8.388
  358POPC   C3A 8021  29.128  41.385   8.109
  358POPC   C4A 8022  29.163  41.497   7.706
  358POPC   C1B 8023  28.890  41.918   8.792
  358POPC   C2B 8024  29.071  41.837   8.371
  358POPC   C3B 8025  28.897  41.856   7.963
  358POPC   C4B 8026  28.728  41.988   7.573
  359POPC   NC3 8027   6.924  43.138   9.579
  359POPC   PO4 8028   6.317  43.448   9.661
  359POPC   GL1 8029   6.551  43.379   9.260
  359POPC   GL2 8030   6.498  43.038   9.126
  359POPC   C1A 8031   6.660  43.409   8.805
  359POPC   D2A 8032   6.952  43.294   8.480
  359POPC   C3A 8033   6.868  43.349   8.039
  359POPC   C4A 8034   6.886  42.967   7.797
  359POPC   C1B 8035   6.544  42.932   8.691
  359POPC   C2B 8036   6.415  43.215   8.371
  359POPC   C3B 8037   6.372  43.301   7.955
  359POPC   C4B 8038   6.329  42.962   7.701
  360POPC   NC3 8039   7.837  36.915   9.481
  360POPC   PO4 8040   8.533  37.117   9.401
  360POPC   GL1 8041   8.253  36.942   9.151
  360POPC   GL2 8042   8.083  37.264   9.141
  360POPC   C1A 8043   8.340  36.745   8.770
  360POPC   D2A 8044   8.357  36.946   8.366
  360POPC   C3A 8045   8.110  36.685   8.123
  360POPC   C4A 8046   8.286  36.380   7.816
  360POPC   C1B 8047   8.034  37.160   8.734
  360POPC   C2B 8048   7.740  37.141   8.429
  360POPC   C3B 8049   7.976  37.214   8.114
  360POPC   C4B 8050   8.245  37.067   7.825
  361POPC   NC3 8051  34.948  17.780   9.479
  361POPC   PO4 8052  35.502  17.359   9.498
  361POPC   GL1 8053  35.246  17.438   9.133
  361POPC   GL2 8054  35.334  17.754   9.134
  361POPC   C1A 8055  35.439  17.467   8.705
  361POPC   D2A 8056  35.516  17.703   8.323
  361POPC   C3A 8057  35.285  17.601   7.957
  361POPC   C4A 8058  35.255  17.300   7.637
  361POPC   C1B 8059  35.232  17.922   8.742
  361POPC   C2B 8060  35.001  17.811   8.350
  361POPC   C3B 8061  34.954  17.990   7.935
  361POPC   C4B 8062  35.155  17.882   7.516
  362POPC   NC3 8063  10.913  31.036   9.354
  362POPC   PO4 8064  11.201  31.441   9.796
  362POPC   GL1 8065  11.429  31.447   9.375
  362POPC   GL2 8066  11.410  31.106   9.218
  362POPC   C1A 8067  11.545  31.506   8.915
  362POPC   D2A 8068  11.740  31.579   8.484
  362POPC   C3A 8069  11.584  31.537   8.042
  362POPC   C4A 8070  11.329  31.492   7.672
  362POPC   C1B 8071  11.309  31.088   8.752
  362POPC   C2B 8072  11.529  31.129   8.327
  362POPC   C3B 8073  11.517  31.044   7.851
  362POPC   C4B 8074  11.435  31.130   7.346
  363POPC   NC3 8075   8.055  20.016   9.489
  363POPC   PO4 8076   8.540  19.557   9.535
  363POPC   GL1 8077   8.307  19.535   9.169
  363POPC   GL2 8078   7.938  19.504   9.189
  363POPC   C1A 8079   8.306  19.476   8.760
  363POPC   D2A 8080   8.326  19.781   8.442
  363POPC   C3A 8081   8.092  19.718   8.082
  363POPC   C4A 8082   8.360  19.680   7.733
  363POPC   C1B 8083   7.959  19.837   8.859
  363POPC   C2B 8084   7.873  20.027   8.468
  363POPC   C3B 8085   7.945  20.243   8.106
  363POPC   C4B 8086   8.068  20.114   7.748
  364POPC   NC3 8087  10.565  13.962   9.166
  364POPC   PO4 8088  10.954  13.589   9.638
  364POPC   GL1 8089  10.945  13.415   9.168
  364POPC   GL2 8090  10.578  13.433   9.039
  364POPC   C1A 8091  10.960  13.546   8.715
  364POPC   D2A 8092  10.635  13.476   8.401
  364POPC   C3A 8093  10.682  13.716   8.035
  364POPC   C4A 8094  10.536  14.078   7.839
  364POPC   C1B 8095  10.251  13.607   8.723
  364POPC   C2B 8096  10.190  13.753   8.285
  364POPC   C3B 8097  10.144  13.772   7.845
  364POPC   C4B 8098  10.026  14.094   7.547
  365POPC   NC3 8099  38.753  20.256   9.466
  365POPC   PO4 8100  39.238  20.749   9.459
  365POPC   GL1 8101  39.184  20.533   9.081
  365POPC   GL2 8102  39.186  20.173   9.205
  365POPC   C1A 8103  39.237  20.720   8.641
  365POPC   D2A 8104  39.436  21.001   8.297
  365POPC   C3A 8105  39.249  20.891   7.891
  365POPC   C4A 8106  38.869  20.698   8.054
  365POPC   C1B 8107  39.267  20.141   8.773
  365POPC   C2B 8108  39.166  20.276   8.394
  365POPC   C3B 8109  39.323  20.412   8.039
  365POPC   C4B 8110  39.085  20.329   7.709
  366POPC   NC3 8111  16.397  34.618   9.430
  366POPC   PO4 8112  15.810  34.727   9.698
  366POPC   GL1 8113  15.921  34.554   9.262
  366POPC   GL2 8114  16.129  34.236   9.205
  366POPC   C1A 8115  15.936  34.635   8.821
  366POPC   D2A 8116  15.887  34.477   8.404
  366POPC   C3A 8117  15.986  34.806   8.110
  366POPC   C4A 8118  15.904  34.695   7.698
  366POPC   C1B 8119  16.370  34.385   8.823
  366POPC   C2B 8120  16.388  34.551   8.391
  366POPC   C3B 8121  16.230  34.370   7.991
  366POPC   C4B 8122  16.253  34.356   7.523
  367POPC   NC3 8123   9.723  19.031   9.467
  367POPC   PO4 8124  10.247  18.590   9.356
  367POPC   GL1 8125   9.953  18.811   9.085
  367POPC   GL2 8126   9.862  19.200   9.014
  367POPC   C1A 8127   9.775  18.791   8.727
  367POPC   D2A 8128  10.033  19.033   8.491
  367POPC   C3A 8129   9.863  18.963   8.128
  367POPC   C4A 8130   9.664  19.017   7.757
  367POPC   C1B 8131   9.584  19.295   8.639
  367POPC   C2B 8132   9.585  19.421   8.173
  367POPC   C3B 8133   9.281  19.314   7.822
  367POPC   C4B 8134   9.457  19.341   7.409
  368POPC   NC3 8135  24.161  28.878   9.885
  368POPC   PO4 8136  24.611  29.326   9.605
  368POPC   GL1 8137  24.501  29.359   9.165
  368POPC   GL2 8138  24.160  29.434   9.065
  368POPC   C1A 8139  24.658  29.332   8.752
  368POPC   D2A 8140  24.617  29.494   8.359
  368POPC   C3A 8141  24.712  29.250   8.037
  368POPC   C4A 8142  24.657  29.041   7.632
  368POPC   C1B 8143  24.228  29.028   8.845
  368POPC   C2B 8144  24.394  28.964   8.427
  368POPC   C3B 8145  24.320  28.924   8.008
  368POPC   C4B 8146  24.272  29.333   7.779
  369POPC   NC3 8147   9.642  26.707   9.904
  369POPC   PO4 8148  10.132  27.184   9.594
  369POPC   GL1 8149  10.016  26.920   9.196
  369POPC   GL2 8150   9.746  26.687   9.284
  369POPC   C1A 8151   9.788  26.830   8.769
  369POPC   D2A 8152   9.482  26.648   8.450
  369POPC   C3A 8153   9.504  26.748   8.031
  369POPC   C4A 8154   9.930  26.809   7.863
  369POPC   C1B 8155   9.918  26.386   8.988
  369POPC   C2B 8156   9.924  26.371   8.532
  369POPC   C3B 8157   9.834  26.345   8.100
  369POPC   C4B 8158  10.062  26.351   7.698
  370POPC   NC3 8159  16.957  30.945   9.573
  370POPC   PO4 8160  16.616  30.311   9.549
  370POPC   GL1 8161  16.824  30.525   9.223
  370POPC   GL2 8162  16.738  30.886   9.109
  370POPC   C1A 8163  16.812  30.439   8.794
  370POPC   D2A 8164  16.843  30.719   8.448
  370POPC   C3A 8165  16.661  30.529   8.113
  370POPC   C4A 8166  16.933  30.381   7.831
  370POPC   C1B 8167  16.416  30.783   8.790
  370POPC   C2B 8168  16.345  30.885   8.342
  370POPC   C3B 8169  16.548  31.038   8.034
  370POPC   C4B 8170  16.720  30.853   7.700
  371POPC   NC3 8171  33.448   3.649   9.525
  371POPC   PO4 8172  33.943   3.933   9.579
  371POPC   GL1 8173  33.790   3.778   9.149
  371POPC   GL2 8174  33.682   3.436   9.100
  371POPC   C1A 8175  33.745   3.767   8.682
  371POPC   D2A 8176  33.572   3.862   8.259
  371POPC   C3A 8177  33.815   3.730   7.862
  371POPC   C4A 8178  34.028   3.328   7.724
  371POPC   C1B 8179  33.367   3.379   8.796
  371POPC   C2B 8180  33.224   3.429   8.390
  371POPC   C3B 8181  33.403   3.445   7.984
  371POPC   C4B 8182  33.340   3.746   7.661
  372POPC   NC3 8183  34.796  24.972   9.415
  372POPC   PO4 8184  34.566  25.631   9.326
  372POPC   GL1 8185  34.406  25.489   8.976
  372POPC   GL2 8186  34.447  25.136   9.064
  372POPC   C1A 8187  34.550  25.550   8.563
  372POPC   D2A 8188  34.811  25.199   8.387
  372POPC   C3A 8189  34.912  25.248   7.984
  372POPC   C4A 8190  34.774  25.653   7.797
  372POPC   C1B 8191  34.521  24.934   8.698
  372POPC   C2B 8192  34.274  25.159   8.424
  372POPC   C3B 8193  34.417  25.368   8.069
  372POPC   C4B 8194  34.521  25.082   7.717
  373POPC   NC3 8195  21.455  13.252   9.339
  373POPC   PO4 8196  21.672  12.590   9.451
  373POPC   GL1 8197  21.542  12.780   9.116
  373POPC   GL2 8198  21.223  12.733   9.132
  373POPC   C1A 8199  21.483  12.983   8.728
  373POPC   D2A 8200  21.598  12.930   8.308
  373POPC   C3A 8201  21.409  13.098   7.923
  373POPC   C4A 8202  21.476  12.941   7.505
  373POPC   C1B 8203  21.063  12.701   8.761
  373POPC   C2B 8204  21.201  12.609   8.376
  373POPC   C3B 8205  21.122  12.669   7.950
  373POPC   C4B 8206  21.173  12.291   7.772
  374POPC   NC3 8207  29.665   0.053   9.658
  374POPC   PO4 8208  30.058   0.565   9.683
  374POPC   GL1 8209  29.926   0.612   9.230
  374POPC   GL2 8210  29.724   0.315   9.225
  374POPC   C1A 8211  29.931   0.731   8.806
  374POPC   D2A 8212  30.093   0.500   8.457
  374POPC   C3A 8213  29.988   0.643   8.044
  374POPC   C4A 8214  29.867   0.448   7.646
  374POPC   C1B 8215  29.967   0.207   8.871
  374POPC   C2B 8216  29.897   0.026   8.456
  374POPC   C3B 8217  29.970   0.117   8.025
  374POPC   C4B 8218  29.906  44.940   7.595
  375POPC   NC3 8219  26.254   5.196   9.580
  375POPC   PO4 8220  25.606   4.888   9.534
  375POPC   GL1 8221  25.983   4.892   9.247
  375POPC   GL2 8222  25.889   5.227   9.141
  375POPC   C1A 8223  26.253   5.036   8.861
  375POPC   D2A 8224  26.012   5.302   8.533
  375POPC   C3A 8225  25.933   5.194   8.108
  375POPC   C4A 8226  26.213   4.996   7.822
  375POPC   C1B 8227  25.764   4.930   8.779
  375POPC   C2B 8228  25.481   4.929   8.424
  375POPC   C3B 8229  25.550   4.860   7.993
  375POPC   C4B 8230  25.732   5.015   7.629
  376POPC   NC3 8231  26.030  11.536   9.818
  376POPC   PO4 8232  25.787  11.004   9.567
  376POPC   GL1 8233  26.061  11.126   9.232
  376POPC   GL2 8234  26.157  11.487   9.304
  376POPC   C1A 8235  25.994  11.273   8.822
  376POPC   D2A 8236  25.794  11.547   8.539
  376POPC   C3A 8237  25.809  11.413   8.131
  376POPC   C4A 8238  25.854  11.202   7.764
  376POPC   C1B 8239  26.232  11.703   8.903
  376POPC   C2B 8240  26.331  11.518   8.507
  376POPC   C3B 8241  26.311  11.697   8.118
  376POPC   C4B 8242  26.145  11.602   7.764
  377POPC   NC3 8243  44.405  39.732   9.800
  377POPC   PO4 8244  44.891  40.138   9.462
  377POPC   GL1 8245  44.606  40.018   9.123
  377POPC   GL2 8246  44.417  39.712   9.196
  377POPC   C1A 8247  44.736  40.120   8.704
  377POPC   D2A 8248  44.973  40.029   8.344
  377POPC   C3A 8249  44.670  40.145   8.072
  377POPC   C4A 8250  44.507  40.144   7.694
  377POPC   C1B 8251  44.676  39.634   8.797
  377POPC   C2B 8252  44.568  39.734   8.373
  377POPC   C3B 8253  44.634  39.650   7.903
  377POPC   C4B 8254  44.786  39.674   7.445
  378POPC   NC3 8255  23.753  26.746   9.569
  378POPC   PO4 8256  23.379  27.282   9.465
  378POPC   GL1 8257  23.728  27.107   9.159
  378POPC   GL2 8258  23.877  26.726   9.092
  378POPC   C1A 8259  23.786  27.031   8.705
  378POPC   D2A 8260  23.939  27.227   8.348
  378POPC   C3A 8261  23.793  26.999   8.046
  378POPC   C4A 8262  23.757  27.088   7.679
  378POPC   C1B 8263  23.858  26.453   8.753
  378POPC   C2B 8264  23.649  26.412   8.350
  378POPC   C3B 8265  23.545  26.572   7.921
  378POPC   C4B 8266  23.751  26.624   7.481
  379POPC   NC3 8267  29.944  39.521   9.235
  379POPC   PO4 8268  29.528  39.158   9.694
  379POPC   GL1 8269  29.675  39.075   9.190
  379POPC   GL2 8270  30.014  39.116   8.937
  379POPC   C1A 8271  29.582  39.091   8.705
  379POPC   D2A 8272  29.835  39.270   8.341
  379POPC   C3A 8273  29.735  39.374   7.933
  379POPC   C4A 8274  29.605  39.077   7.651
  379POPC   C1B 8275  30.193  39.477   8.635
  379POPC   C2B 8276  30.211  39.608   8.169
  379POPC   C3B 8277  30.246  39.358   7.840
  379POPC   C4B 8278  30.101  38.934   7.853
  380POPC   NC3 8279  11.367  37.830   9.674
  380POPC   PO4 8280  10.862  37.490   9.475
  380POPC   GL1 8281  11.064  37.822   9.195
  380POPC   GL2 8282  11.463  37.851   9.154
  380POPC   C1A 8283  11.165  37.843   8.737
  380POPC   D2A 8284  11.470  37.902   8.390
  380POPC   C3A 8285  11.280  37.870   7.967
  380POPC   C4A 8286  11.116  37.767   7.555
  380POPC   C1B 8287  11.587  37.549   8.789
  380POPC   C2B 8288  11.700  37.438   8.370
  380POPC   C3B 8289  11.674  37.281   7.947
  380POPC   C4B 8290  11.604  37.619   7.647
  381POPC   NC3 8291  41.323  44.143   9.556
  381POPC   PO4 8292  41.828  44.341   9.253
  381POPC   GL1 8293  41.462  44.067   9.068
  381POPC   GL2 8294  41.437  43.698   9.135
  381POPC   C1A 8295  41.358  43.948   8.646
  381POPC   D2A 8296  41.693  44.126   8.360
  381POPC   C3A 8297  41.602  44.090   7.935
  381POPC   C4A 8298  41.200  43.952   7.797
  381POPC   C1B 8299  41.722  43.621   8.738
  381POPC   C2B 8300  41.705  43.567   8.286
  381POPC   C3B 8301  41.958  43.717   7.956
  381POPC   C4B 8302  41.947  43.939   7.557
  382POPC   NC3 8303   3.388  34.024   9.452
  382POPC   PO4 8304   3.448  33.404   9.508
  382POPC   GL1 8305   3.780  33.527   9.237
  382POPC   GL2 8306   3.734  33.866   9.086
  382POPC   C1A 8307   3.864  33.439   8.825
  382POPC   D2A 8308   3.681  33.749   8.550
  382POPC   C3A 8309   3.546  33.568   8.183
  382POPC   C4A 8310   3.775  33.806   7.881
  382POPC   C1B 8311   3.340  33.648   8.908
  382POPC   C2B 8312   3.108  33.745   8.522
  382POPC   C3B 8313   3.175  33.937   8.125
  382POPC   C4B 8314   3.289  33.782   7.712
  383POPC   NC3 8315  16.626  24.312   9.570
  383POPC   PO4 8316  17.059  24.863   9.378
  383POPC   GL1 8317  16.699  24.611   9.154
  383POPC   GL2 8318  16.409  24.351   9.133
  383POPC   C1A 8319  16.745  24.411   8.748
  383POPC   D2A 8320  16.857  24.387   8.322
  383POPC   C3A 8321  16.727  24.639   8.022
  383POPC   C4A 8322  16.968  24.655   7.677
  383POPC   C1B 8323  16.228  24.422   8.761
  383POPC   C2B 8324  16.371  24.217   8.423
  383POPC   C3B 8325  16.668  23.940   8.215
  383POPC   C4B 8326  16.660  24.145   7.836
  384POPC   NC3 8327  11.490  43.138   9.857
  384POPC   PO4 8328  11.034  42.754   9.593
  384POPC   GL1 8329  11.115  42.971   9.224
  384POPC   GL2 8330  11.464  43.095   9.234
  384POPC   C1A 8331  11.080  43.157   8.834
  384POPC   D2A 8332  10.832  43.254   8.507
  384POPC   C3A 8333  11.102  43.125   8.220
  384POPC   C4A 8334  11.143  43.158   7.842
  384POPC   C1B 8335  11.578  43.018   8.787
  384POPC   C2B 8336  11.602  43.217   8.335
  384POPC   C3B 8337  11.626  42.980   7.914
  384POPC   C4B 8338  11.741  42.687   7.550
  385POPC   NC3 8339  12.578  44.626   9.603
  385POPC   PO4 8340  13.061   0.162   9.532
  385POPC   GL1 8341  12.914  44.844   9.197
  385POPC   GL2 8342  12.554  44.809   9.138
  385POPC   C1A 8343  12.887  44.706   8.748
  385POPC   D2A 8344  12.947  44.515   8.352
  385POPC   C3A 8345  12.850  44.773   8.010
  385POPC   C4A 8346  13.086  44.760   7.650
  385POPC   C1B 8347  12.486   0.020   8.775
  385POPC   C2B 8348  12.480  44.896   8.377
  385POPC   C3B 8349  12.503   0.204   8.042
  385POPC   C4B 8350  12.771   0.187   7.689
  386POPC   NC3 8351  11.195   6.355   9.461
  386POPC   PO4 8352  10.883   6.896   9.761
  386POPC   GL1 8353  11.085   6.906   9.271
  386POPC   GL2 8354  11.300   6.647   9.082
  386POPC   C1A 8355  11.065   6.958   8.795
  386POPC   D2A 8356  11.410   6.788   8.519
  386POPC   C3A 8357  11.151   6.779   8.168
  386POPC   C4A 8358  11.175   6.754   7.752
  386POPC   C1B 8359  11.079   6.453   8.730
  386POPC   C2B 8360  11.196   6.295   8.330
  386POPC   C3B 8361  11.504   6.411   8.022
  386POPC   C4B 8362  11.278   6.257   7.695
  387POPC   NC3 8363  43.585   0.108   9.562
  387POPC   PO4 8364  44.114   0.632   9.564
  387POPC   GL1 8365  43.940   0.379   9.263
  387POPC   GL2 8366  43.709   0.658   9.179
  387POPC   C1A 8367  44.072   0.222   8.868
  387POPC   D2A 8368  43.905  44.998   8.505
  387POPC   C3A 8369  43.934   0.180   8.120
  387POPC   C4A 8370  44.012   0.320   7.739
  387POPC   C1B 8371  43.970   0.775   8.843
  387POPC   C2B 8372  44.007   0.609   8.418
  387POPC   C3B 8373  44.010   0.760   7.993
  387POPC   C4B 8374  43.707   0.766   7.657
  388POPC   NC3 8375  41.243   6.636   9.838
  388POPC   PO4 8376  40.668   6.801   9.509
  388POPC   GL1 8377  40.654   6.618   9.127
  388POPC   GL2 8378  40.985   6.538   9.147
  388POPC   C1A 8379  40.813   6.763   8.717
  388POPC   D2A 8380  40.988   6.596   8.339
  388POPC   C3A 8381  40.826   6.704   7.915
  388POPC   C4A 8382  41.050   6.964   7.607
  388POPC   C1B 8383  41.135   6.333   8.779
  388POPC   C2B 8384  41.123   6.105   8.385
  388POPC   C3B 8385  41.150   6.264   7.980
  388POPC   C4B 8386  40.923   6.249   7.648
  389POPC   NC3 8387  23.088  33.527   9.580
  389POPC   PO4 8388  22.586  34.051   9.583
  389POPC   GL1 8389  22.777  33.873   9.207
  389POPC   GL2 8390  23.152  33.883   9.189
  389POPC   C1A 8391  22.883  33.766   8.765
  389POPC   D2A 8392  23.054  33.896   8.369
  389POPC   C3A 8393  22.815  34.031   8.022
  389POPC   C4A 8394  22.691  33.617   7.944
  389POPC   C1B 8395  23.391  33.819   8.794
  389POPC   C2B 8396  23.536  34.028   8.408
  389POPC   C3B 8397  23.358  34.064   7.984
  389POPC   C4B 8398  23.146  33.756   7.690
  390POPC   NC3 8399  32.861   7.201   9.566
  390POPC   PO4 8400  32.569   7.799   9.357
  390POPC   GL1 8401  32.923   7.508   9.145
  390POPC   GL2 8402  33.216   7.202   9.213
  390POPC   C1A 8403  33.046   7.589   8.728
  390POPC   D2A 8404  32.792   7.485   8.360
  390POPC   C3A 8405  32.727   7.755   8.057
  390POPC   C4A 8406  32.884   7.509   7.769
  390POPC   C1B 8407  33.247   7.020   8.839
  390POPC   C2B 8408  33.193   7.188   8.425
  390POPC   C3B 8409  33.083   7.022   8.003
  390POPC   C4B 8410  33.186   7.137   7.554
  391POPC   NC3 8411  40.977  43.205   9.564
  391POPC   PO4 8412  40.405  43.449   9.376
  391POPC   GL1 8413  40.601  43.146   9.147
  391POPC   GL2 8414  40.931  43.186   9.042
  391POPC   C1A 8415  40.562  42.877   8.815
  391POPC   D2A 8416  40.784  42.827   8.458
  391POPC   C3A 8417  40.813  43.198   8.198
  391POPC   C4A 8418  40.816  43.085   7.774
  391POPC   C1B 8419  41.202  43.430   8.755
  391POPC   C2B 8420  41.181  43.563   8.326
  391POPC   C3B 8421  41.232  43.377   7.920
  391POPC   C4B 8422  41.196  43.340   7.412
  392POPC   NC3 8423  21.721  42.861   9.832
  392POPC   PO4 8424  21.255  43.291   9.632
  392POPC   GL1 8425  21.593  43.088   9.348
  392POPC   GL2 8426  21.326  43.178   9.129
  392POPC   C1A 8427  21.772  43.043   8.880
  392POPC   D2A 8428  21.637  42.904   8.434
  392POPC   C3A 8429  21.746  43.129   8.032
  392POPC   C4A 8430  21.913  42.942   7.654
  392POPC   C1B 8431  21.278  42.846   8.843
  392POPC   C2B 8432  21.094  42.846   8.441
  392POPC   C3B 8433  21.254  42.965   8.066
  392POPC   C4B 8434  21.540  42.689   7.867
  393POPC   NC3 8435   8.836  40.764   9.782
  393POPC   PO4 8436   8.286  40.883   9.395
  393POPC   GL1 8437   8.267  40.749   8.976
  393POPC   GL2 8438   7.975  40.578   9.091
  393POPC   C1A 8439   8.539  40.888   8.600
  393POPC   D2A 8440   8.653  41.043   8.149
  393POPC   C3A 8441   8.460  40.875   7.719
  393POPC   C4A 8442   8.437  41.075   7.263
  393POPC   C1B 8443   7.831  40.526   8.725
  393POPC   C2B 8444   8.137  40.615   8.438
  393POPC   C3B 8445   8.263  40.487   8.049
  393POPC   C4B 8446   7.963  40.412   7.744
  394POPC   NC3 8447   2.581  39.056   9.670
  394POPC   PO4 8448   1.885  38.992   9.597
  394POPC   GL1 8449   1.929  39.122   9.208
  394POPC   GL2 8450   1.594  39.012   9.131
  394POPC   C1A 8451   2.105  39.358   8.881
  394POPC   D2A 8452   2.231  39.153   8.499
  394POPC   C3A 8453   2.152  39.271   8.061
  394POPC   C4A 8454   2.268  39.346   7.627
  394POPC   C1B 8455   1.793  38.967   8.734
  394POPC   C2B 8456   1.732  39.201   8.368
  394POPC   C3B 8457   1.743  38.984   8.003
  394POPC   C4B 8458   1.971  38.943   7.637
  395POPC   NC3 8459  39.568  20.432   9.435
  395POPC   PO4 8460  39.839  20.954   9.646
  395POPC   GL1 8461  40.110  20.767   9.301
  395POPC   GL2 8462  40.090  20.387   9.292
  395POPC   C1A 8463  40.101  20.883   8.853
  395POPC   D2A 8464  39.743  20.713   8.610
  395POPC   C3A 8465  39.774  20.654   8.144
  395POPC   C4A 8466  39.762  20.899   7.748
  395POPC   C1B 8467  40.069  20.367   8.834
  395POPC   C2B 8468  40.204  20.604   8.434
  395POPC   C3B 8469  40.247  20.460   8.010
  395POPC   C4B 8470  39.938  20.410   7.716
  396POPC   NC3 8471  34.001  40.113   9.517
  396POPC   PO4 8472  33.499  39.722   9.509
  396POPC   GL1 8473  33.794  39.746   9.169
  396POPC   GL2 8474  33.638  40.054   9.105
  396POPC   C1A 8475  33.833  39.837   8.699
  396POPC   D2A 8476  33.538  39.969   8.356
  396POPC   C3A 8477  33.571  39.757   7.978
  396POPC   C4A 8478  33.792  39.714   7.577
  396POPC   C1B 8479  33.661  40.340   8.784
  396POPC   C2B 8480  33.895  40.321   8.459
  396POPC   C3B 8481  33.953  40.143   8.065
  396POPC   C4B 8482  33.759  40.336   7.748
  397POPC   NC3 8483  26.818  16.368   9.415
  397POPC   PO4 8484  27.009  15.803   9.641
  397POPC   GL1 8485  27.020  15.883   9.185
  397POPC   GL2 8486  27.071  16.199   8.995
  397POPC   C1A 8487  26.967  15.752   8.728
  397POPC   D2A 8488  26.696  15.824   8.352
  397POPC   C3A 8489  26.881  16.007   7.998
  397POPC   C4A 8490  27.232  16.184   7.825
  397POPC   C1B 8491  26.780  16.269   8.658
  397POPC   C2B 8492  26.656  16.410   8.240
  397POPC   C3B 8493  26.448  16.280   7.845
  397POPC   C4B 8494  26.432  16.091   7.421
  398POPC   NC3 8495   8.246  19.202   9.557
  398POPC   PO4 8496   8.584  18.668   9.403
  398POPC   GL1 8497   8.485  19.006   9.126
  398POPC   GL2 8498   8.123  19.032   9.086
  398POPC   C1A 8499   8.432  18.973   8.681
  398POPC   D2A 8500   8.364  18.665   8.395
  398POPC   C3A 8501   8.303  18.816   7.988
  398POPC   C4A 8502   8.365  19.193   7.820
  398POPC   C1B 8503   7.955  19.118   8.680
  398POPC   C2B 8504   8.118  19.240   8.291
  398POPC   C3B 8505   7.869  19.264   7.910
  398POPC   C4B 8506   7.917  18.918   7.650
  399POPC   NC3 8507  25.479   2.981   9.560
  399POPC   PO4 8508  24.924   2.567   9.445
  399POPC   GL1 8509  25.162   2.682   9.105
  399POPC   GL2 8510  25.306   3.009   9.090
  399POPC   C1A 8511  24.980   2.894   8.725
  399POPC   D2A 8512  25.010   2.816   8.301
  399POPC   C3A 8513  25.229   2.475   8.156
  399POPC   C4A 8514  25.260   2.401   7.737
  399POPC   C1B 8515  25.515   2.770   8.744
  399POPC   C2B 8516  25.624   2.762   8.314
  399POPC   C3B 8517  25.418   2.945   7.975
  399POPC   C4B 8518  25.695   3.055   7.680
  400POPC   NC3 8519  13.978  11.394   9.818
  400POPC   PO4 8520  13.325  11.239   9.503
  400POPC   GL1 8521  13.323  11.298   9.082
  400POPC   GL2 8522  13.387  11.655   9.095
  400POPC   C1A 8523  13.620  11.218   8.733
  400POPC   D2A 8524  13.549  11.231   8.336
  400POPC   C3A 8525  13.769  11.117   8.053
  400POPC   C4A 8526  13.954  11.344   7.728
  400POPC   C1B 8527  13.304  11.608   8.668
  400POPC   C2B 8528  13.270  11.640   8.256
  400POPC   C3B 8529  13.483  11.511   7.911
  400POPC   C4B 8530  13.481  11.398   7.503
  401POPC   NC3 8531  31.645  23.374   9.557
  401POPC   PO4 8532  31.304  22.798   9.445
  401POPC   GL1 8533  31.350  22.976   9.080
  401POPC   GL2 8534  31.669  23.125   9.125
  401POPC   C1A 8535  31.528  22.828   8.696
  401POPC   D2A 8536  31.589  22.882   8.261
  401POPC   C3A 8537  31.346  22.760   7.891
  401POPC   C4A 8538  31.352  22.864   7.436
  401POPC   C1B 8539  31.564  23.352   8.791
  401POPC   C2B 8540  31.694  23.389   8.400
  401POPC   C3B 8541  31.630  23.317   7.998
  401POPC   C4B 8542  31.403  23.347   7.619
  402POPC   NC3 8543  42.290  13.821   9.948
  402POPC   PO4 8544  42.187  14.406   9.667
  402POPC   GL1 8545  42.276  14.496   9.261
  402POPC   GL2 8546  42.008  14.235   9.202
  402POPC   C1A 8547  42.412  14.358   8.871
  402POPC   D2A 8548  42.160  14.500   8.501
  402POPC   C3A 8549  42.271  14.500   8.094
  402POPC   C4A 8550  42.152  14.277   7.722
  402POPC   C1B 8551  41.885  14.233   8.827
  402POPC   C2B 8552  41.948  14.012   8.466
  402POPC   C3B 8553  41.855  14.174   8.111
  402POPC   C4B 8554  41.665  14.073   7.769
  403POPC   NC3 8555  43.820  44.275   9.256
  403POPC   PO4 8556  44.053  44.889   9.532
  403POPC   GL1 8557  43.964  44.755   9.123
  403POPC   GL2 8558  44.255  44.490   9.069
  403POPC   C1A 8559  43.613  44.753   8.832
  403POPC   D2A 8560  43.407  44.683   8.435
  403POPC   C3A 8561  43.683  44.727   8.089
  403POPC   C4A 8562  43.699  44.891   7.687
  403POPC   C1B 8563  44.014  44.488   8.666
  403POPC   C2B 8564  43.725  44.258   8.466
  403POPC   C3B 8565  43.871  44.246   8.073
  403POPC   C4B 8566  43.836  44.401   7.680
  404POPC   NC3 8567  38.102  29.778   9.556
  404POPC   PO4 8568  38.770  29.802   9.718
  404POPC   GL1 8569  38.601  29.938   9.305
  404POPC   GL2 8570  38.445  29.650   9.173
  404POPC   C1A 8571  38.590  30.012   8.834
  404POPC   D2A 8572  38.515  29.767   8.458
  404POPC   C3A 8573  38.459  29.993   8.088
  404POPC   C4A 8574  38.535  29.984   7.679
  404POPC   C1B 8575  38.122  29.789   8.868
  404POPC   C2B 8576  37.962  29.681   8.466
  404POPC   C3B 8577  38.043  29.697   8.033
  404POPC   C4B 8578  38.171  29.594   7.603
  405POPC   NC3 8579   9.377   2.165   9.297
  405POPC   PO4 8580   8.944   1.721   9.695
  405POPC   GL1 8581   8.917   1.866   9.222
  405POPC   GL2 8582   8.854   2.229   9.130
  405POPC   C1A 8583   9.029   1.958   8.761
  405POPC   D2A 8584   9.280   2.118   8.437
  405POPC   C3A 8585   9.074   2.041   8.066
  405POPC   C4A 8586   8.805   1.896   7.736
  405POPC   C1B 8587   9.059   2.486   8.794
  405POPC   C2B 8588   9.274   2.639   8.437
  405POPC   C3B 8589   9.427   2.502   8.030
  405POPC   C4B 8590   9.205   2.391   7.648
  406POPC   NC3 8591  38.149   2.288   9.798
  406POPC   PO4 8592  38.470   1.810   9.517
  406POPC   GL1 8593  38.510   1.932   9.111
  406POPC   GL2 8594  38.138   1.838   9.090
  406POPC   C1A 8595  38.803   2.063   8.750
  406POPC   D2A 8596  38.964   1.943   8.326
  406POPC   C3A 8597  38.649   2.058   8.000
  406POPC   C4A 8598  38.332   2.114   7.681
  406POPC   C1B 8599  38.279   1.854   8.684
  406POPC   C2B 8600  38.269   1.821   8.284
  406POPC   C3B 8601  38.004   1.884   7.977
  406POPC   C4B 8602  38.047   1.719   7.527
  407POPC   NC3 8603   3.168  28.521   9.490
  407POPC   PO4 8604   3.714  28.447   9.891
  407POPC   GL1 8605   3.626  28.669   9.351
  407POPC   GL2 8606   3.814  28.547   9.063
  407POPC   C1A 8607   3.363  28.702   8.881
  407POPC   D2A 8608   3.202  28.459   8.523
  407POPC   C3A 8609   3.486  28.548   8.190
  407POPC   C4A 8610   3.355  28.514   7.772
  407POPC   C1B 8611   3.667  28.321   8.707
  407POPC   C2B 8612   3.668  28.086   8.367
  407POPC   C3B 8613   3.565  28.089   7.952
  407POPC   C4B 8614   3.809  28.116   7.609
  408POPC   NC3 8615  41.738   2.289   9.678
  408POPC   PO4 8616  41.603   2.920   9.628
  408POPC   GL1 8617  41.719   2.814   9.196
  408POPC   GL2 8618  41.556   2.536   9.229
  408POPC   C1A 8619  41.747   2.629   8.761
  408POPC   D2A 8620  41.750   2.909   8.412
  408POPC   C3A 8621  41.956   2.871   8.057
  408POPC   C4A 8622  41.892   2.711   7.676
  408POPC   C1B 8623  41.257   2.499   8.869
  408POPC   C2B 8624  41.308   2.613   8.431
  408POPC   C3B 8625  41.460   2.773   8.020
  408POPC   C4B 8626  41.372   2.622   7.632
  409POPC   NC3 8627   9.507   2.915   9.480
  409POPC   PO4 8628   9.729   2.276   9.606
  409POPC   GL1 8629   9.790   2.575   9.235
  409POPC   GL2 8630   9.472   2.610   9.065
  409POPC   C1A 8631   9.897   2.801   8.831
  409POPC   D2A 8632   9.754   2.804   8.409
  409POPC   C3A 8633   9.939   2.726   8.010
  409POPC   C4A 8634   9.774   2.715   7.590
  409POPC   C1B 8635   9.383   2.986   8.830
  409POPC   C2B 8636   9.357   3.157   8.414
  409POPC   C3B 8637   9.497   3.032   8.009
  409POPC   C4B 8638   9.301   2.886   7.647
  410POPC   NC3 8639  12.123  11.523   9.651
  410POPC   PO4 8640  12.352  10.834   9.535
  410POPC   GL1 8641  12.131  11.203   9.247
  410POPC   GL2 8642  11.821  11.394   9.124
  410POPC   C1A 8643  12.231  11.402   8.826
  410POPC   D2A 8644  11.972  11.469   8.451
  410POPC   C3A 8645  12.232  11.496   8.101
  410POPC   C4A 8646  12.457  11.296   7.730
  410POPC   C1B 8647  11.856  11.756   8.849
  410POPC   C2B 8648  11.640  11.878   8.485
  410POPC   C3B 8649  11.633  11.683   8.088
  410POPC   C4B 8650  11.897  11.678   7.719
  411POPC   NC3 8651  37.682  24.069   9.396
  411POPC   PO4 8652  38.098  24.501   9.498
  411POPC   GL1 8653  37.757  24.572   9.184
  411POPC   GL2 8654  37.393  24.415   9.151
  411POPC   C1A 8655  37.624  24.681   8.766
  411POPC   D2A 8656  37.775  24.815   8.386
  411POPC   C3A 8657  37.637  24.606   8.030
  411POPC   C4A 8658  37.708  24.775   7.637
  411POPC   C1B 8659  37.207  24.284   8.743
  411POPC   C2B 8660  36.990  24.174   8.351
  411POPC   C3B 8661  37.108  24.247   7.922
  411POPC   C4B 8662  37.479  24.300   7.623
  412POPC   NC3 8663  11.296  33.728   9.820
  412POPC   PO4 8664  11.821  33.595   9.388
  412POPC   GL1 8665  11.618  33.536   8.960
  412POPC   GL2 8666  11.251  33.632   8.995
  412POPC   C1A 8667  11.510  33.476   8.511
  412POPC   D2A 8668  11.188  33.424   8.245
  412POPC   C3A 8669  11.447  33.585   7.918
  412POPC   C4A 8670  11.532  33.922   7.653
  412POPC   C1B 8671  11.142  33.834   8.631
  412POPC   C2B 8672  11.312  33.946   8.248
  412POPC   C3B 8673  11.079  33.976   7.889
  412POPC   C4B 8674  10.959  33.617   7.740
  413POPC   NC3 8675   0.734  33.020   9.417
  413POPC   PO4 8676   0.170  33.356   9.703
  413POPC   GL1 8677   0.308  33.224   9.229
  413POPC   GL2 8678   0.091  32.990   9.038
  413POPC   C1A 8679   0.509  33.169   8.798
  413POPC   D2A 8680   0.730  33.066   8.396
  413POPC   C3A 8681   0.485  33.131   8.026
  413POPC   C4A 8682   0.273  33.497   7.850
  413POPC   C1B 8683   0.254  32.736   8.733
  413POPC   C2B 8684   0.371  32.707   8.338
  413POPC   C3B 8685   0.631  32.603   7.999
  413POPC   C4B 8686   0.277  32.736   7.771
  414POPC   NC3 8687  12.055   0.476   9.531
  414POPC   PO4 8688  11.444   0.053   9.513
  414POPC   GL1 8689  11.810   0.124   9.196
  414POPC   GL2 8690  12.174   0.232   9.117
  414POPC   C1A 8691  11.839   0.296   8.758
  414POPC   D2A 8692  12.137   0.296   8.420
  414POPC   C3A 8693  11.931   0.302   8.001
  414POPC   C4A 8694  12.158   0.294   7.622
  414POPC   C1B 8695  12.126   0.686   8.896
  414POPC   C2B 8696  12.228   0.832   8.479
  414POPC   C3B 8697  12.252   0.698   8.060
  414POPC   C4B 8698  11.897   0.784   7.805
  415POPC   NC3 8699  38.304  31.830   9.851
  415POPC   PO4 8700  38.518  32.422   9.492
  415POPC   GL1 8701  38.453  32.250   9.100
  415POPC   GL2 8702  38.180  32.289   9.138
  415POPC   C1A 8703  38.268  32.259   8.651
  415POPC   D2A 8704  38.535  32.170   8.350
  415POPC   C3A 8705  38.404  32.111   7.965
  415POPC   C4A 8706  38.099  32.313   7.747
  415POPC   C1B 8707  38.444  32.674   8.873
  415POPC   C2B 8708  38.496  32.697   8.432
  415POPC   C3B 8709  38.423  32.643   8.006
  415POPC   C4B 8710  38.623  32.503   7.621
  416POPC   NC3 8711  28.417  31.849   9.362
  416POPC   PO4 8712  28.452  32.441   9.540
  416POPC   GL1 8713  28.305  32.340   9.146
  416POPC   GL2 8714  28.583  32.178   9.000
  416POPC   C1A 8715  28.223  32.492   8.737
  416POPC   D2A 8716  28.079  32.325   8.349
  416POPC   C3A 8717  28.261  32.465   7.963
  416POPC   C4A 8718  28.127  32.678   7.605
  416POPC   C1B 8719  28.257  31.967   8.749
  416POPC   C2B 8720  28.155  31.776   8.369
  416POPC   C3B 8721  28.175  31.944   7.946
  416POPC   C4B 8722  28.612  31.916   7.748
  417POPC   NC3 8723  29.869  33.817   9.729
  417POPC   PO4 8724  30.410  33.556   9.666
  417POPC   GL1 8725  30.196  33.614   9.237
  417POPC   GL2 8726  29.828  33.592   9.245
  417POPC   C1A 8727  30.006  33.979   8.949
  417POPC   D2A 8728  29.855  33.994   8.506
  417POPC   C3A 8729  30.012  33.838   8.084
  417POPC   C4A 8730  29.728  33.784   7.678
  417POPC   C1B 8731  29.941  33.507   8.797
  417POPC   C2B 8732  29.791  33.448   8.374
  417POPC   C3B 8733  29.847  33.368   7.960
  417POPC   C4B 8734  30.090  33.421   7.603
  418POPC   NC3 8735   5.849  41.959   9.493
  418POPC   PO4 8736   5.758  42.630   9.525
  418POPC   GL1 8737   5.977  42.432   9.208
  418POPC   GL2 8738   5.718  42.235   9.076
  418POPC   C1A 8739   6.180  42.608   8.848
  418POPC   D2A 8740   6.176  42.646   8.398
  418POPC   C3A 8741   6.235  42.340   8.090
  418POPC   C4A 8742   6.007  42.518   7.746
  418POPC   C1B 8743   5.836  42.288   8.646
  418POPC   C2B 8744   5.762  42.254   8.214
  418POPC   C3B 8745   5.524  42.101   7.884
  418POPC   C4B 8746   5.580  42.159   7.457
  419POPC   NC3 8747   8.650  36.661   9.378
  419POPC   PO4 8748   8.825  36.008   9.403
  419POPC   GL1 8749   8.998  36.142   9.049
  419POPC   GL2 8750   9.164  35.893   9.008
  419POPC   C1A 8751   8.940  36.206   8.614
  419POPC   D2A 8752   9.065  36.568   8.366
  419POPC   C3A 8753   8.864  36.465   7.977
  419POPC   C4A 8754   8.804  36.015   7.819
  419POPC   C1B 8755   9.352  35.805   8.651
  419POPC   C2B 8756   9.441  35.661   8.245
  419POPC   C3B 8757   9.315  35.905   7.893
  419POPC   C4B 8758   9.259  35.785   7.456
  420POPC   NC3 8759   3.111   0.789   9.599
  420POPC   PO4 8760   3.691   0.549   9.588
  420POPC   GL1 8761   3.493   0.481   9.177
  420POPC   GL2 8762   3.242   0.229   9.131
  420POPC   C1A 8763   3.675   0.290   8.793
  420POPC   D2A 8764   3.988   0.297   8.459
  420POPC   C3A 8765   3.795   0.241   8.087
  420POPC   C4A 8766   3.701   0.489   7.739
  420POPC   C1B 8767   3.181   0.411   8.725
  420POPC   C2B 8768   3.362   0.437   8.306
  420POPC   C3B 8769   3.271   0.268   7.886
  420POPC   C4B 8770   3.187   0.587   7.542
  421POPC   NC3 8771  24.643  23.489   9.439
  421POPC   PO4 8772  24.923  23.990   9.676
  421POPC   GL1 8773  24.793  23.983   9.199
  421POPC   GL2 8774  24.504  23.775   9.043
  421POPC   C1A 8775  24.754  24.024   8.715
  421POPC   D2A 8776  24.326  24.033   8.472
  421POPC   C3A 8777  24.379  23.913   8.041
  421POPC   C4A 8778  24.773  23.842   7.805
  421POPC   C1B 8779  24.466  23.371   8.818
  421POPC   C2B 8780  24.609  23.198   8.418
  421POPC   C3B 8781  24.616  23.405   8.061
  421POPC   C4B 8782  24.340  23.527   7.712
  422POPC   NC3 8783  24.789  21.119   9.439
  422POPC   PO4 8784  24.390  21.617   9.475
  422POPC   GL1 8785  24.655  21.537   9.170
  422POPC   GL2 8786  24.376  21.452   8.981
  422POPC   C1A 8787  24.839  21.467   8.808
  422POPC   D2A 8788  24.520  21.493   8.467
  422POPC   C3A 8789  24.564  21.295   8.068
  422POPC   C4A 8790  24.481  21.498   7.622
  422POPC   C1B 8791  24.439  21.060   8.768
  422POPC   C2B 8792  24.140  20.906   8.453
  422POPC   C3B 8793  24.027  21.043   8.077
  422POPC   C4B 8794  24.215  21.085   7.735
  423POPC   NC3 8795  42.866  17.270   9.556
  423POPC   PO4 8796  43.401  17.635   9.595
  423POPC   GL1 8797  43.149  17.571   9.241
  423POPC   GL2 8798  43.255  17.252   9.200
  423POPC   C1A 8799  42.911  17.354   8.850
  423POPC   D2A 8800  43.058  17.278   8.422
  423POPC   C3A 8801  42.879  17.360   8.043
  423POPC   C4A 8802  42.788  17.632   7.713
  423POPC   C1B 8803  43.417  17.338   8.791
  423POPC   C2B 8804  43.549  17.273   8.364
  423POPC   C3B 8805  43.412  17.422   7.932
  423POPC   C4B 8806  43.107  17.260   7.585
  424POPC   NC3 8807   4.264  29.877   9.558
  424POPC   PO4 8808   4.756  29.484   9.560
  424POPC   GL1 8809   4.571  29.774   9.186
  424POPC   GL2 8810   4.644  30.137   9.238
  424POPC   C1A 8811   4.415  29.795   8.755
  424POPC   D2A 8812   4.630  29.921   8.371
  424POPC   C3A 8813   4.544  29.643   8.045
  424POPC   C4A 8814   4.303  29.713   7.722
  424POPC   C1B 8815   4.292  30.252   8.944
  424POPC   C2B 8816   4.010  30.152   8.556
  424POPC   C3B 8817   4.142  30.049   8.110
  424POPC   C4B 8818   4.535  30.133   7.869
  425POPC   NC3 8819   6.742  12.638   9.450
  425POPC   PO4 8820   6.182  13.095   9.447
  425POPC   GL1 8821   6.459  12.928   9.136
  425POPC   GL2 8822   6.364  12.614   9.065
  425POPC   C1A 8823   6.741  13.110   8.800
  425POPC   D2A 8824   6.759  13.369   8.403
  425POPC   C3A 8825   6.707  13.170   8.016
  425POPC   C4A 8826   6.817  13.151   7.592
  425POPC   C1B 8827   6.415  12.329   8.800
  425POPC   C2B 8828   6.419  12.497   8.402
  425POPC   C3B 8829   6.399  12.516   7.977
  425POPC   C4B 8830   6.547  12.533   7.565
  426POPC   NC3 8831  43.970  30.135   9.466
  426POPC   PO4 8832  44.215  29.550   9.528
  426POPC   GL1 8833  44.061  29.685   9.078
  426POPC   GL2 8834  43.822  29.995   9.015
  426POPC   C1A 8835  44.022  29.780   8.596
  426POPC   D2A 8836  43.769  30.090   8.349
  426POPC   C3A 8837  43.895  30.151   7.924
  426POPC   C4A 8838  44.003  29.786   7.687
  426POPC   C1B 8839  43.606  29.649   8.842
  426POPC   C2B 8840  43.509  29.605   8.403
  426POPC   C3B 8841  43.557  29.754   7.992
  426POPC   C4B 8842  43.525  29.953   7.606
  427POPC   NC3 8843  27.683  40.678   9.663
  427POPC   PO4 8844  26.939  40.710   9.583
  427POPC   GL1 8845  27.303  40.855   9.253
  427POPC   GL2 8846  27.714  40.903   9.219
  427POPC   C1A 8847  27.446  40.743   8.822
  427POPC   D2A 8848  27.479  40.465   8.484
  427POPC   C3A 8849  27.499  40.595   8.063
  427POPC   C4A 8850  27.300  40.919   7.851
  427POPC   C1B 8851  27.895  41.002   8.794
  427POPC   C2B 8852  27.764  40.901   8.371
  427POPC   C3B 8853  27.806  40.985   7.900
  427POPC   C4B 8854  28.103  40.901   7.565
  428POPC   NC3 8855   1.220  16.190   9.608
  428POPC   PO4 8856   1.672  15.738   9.495
  428POPC   GL1 8857   1.496  15.955   9.159
  428POPC   GL2 8858   1.152  16.068   9.115
  428POPC   C1A 8859   1.553  16.096   8.751
  428POPC   D2A 8860   1.268  16.057   8.432
  428POPC   C3A 8861   1.533  16.015   8.088
  428POPC   C4A 8862   1.376  16.009   7.689
  428POPC   C1B 8863   0.972  16.415   8.912
  428POPC   C2B 8864   1.074  16.534   8.494
  428POPC   C3B 8865   0.987  16.336   8.080
  428POPC   C4B 8866   0.931  16.267   7.631
  429POPC   NC3 8867  17.093  19.589   9.336
  429POPC   PO4 8868  16.514  19.887   9.557
  429POPC   GL1 8869  16.753  19.995   9.181
  429POPC   GL2 8870  17.021  20.274   9.166
  429POPC   C1A 8871  16.832  19.832   8.769
  429POPC   D2A 8872  16.625  19.835   8.383
  429POPC   C3A 8873  16.824  19.857   7.997
  429POPC   C4A 8874  16.660  19.676   7.642
  429POPC   C1B 8875  17.218  20.251   8.729
  429POPC   C2B 8876  17.094  20.177   8.306
  429POPC   C3B 8877  17.242  20.107   7.871
  429POPC   C4B 8878  16.984  20.069   7.483
  430POPC   NC3 8879  17.859  10.010   9.336
  430POPC   PO4 8880  17.313   9.762   9.625
  430POPC   GL1 8881  17.245   9.572   9.178
  430POPC   GL2 8882  17.588   9.598   9.134
  430POPC   C1A 8883  17.346   9.600   8.672
  430POPC   D2A 8884  17.393   9.830   8.266
  430POPC   C3A 8885  17.316   9.793   7.793
  430POPC   C4A 8886  17.192  10.173   7.533
  430POPC   C1B 8887  17.877   9.468   8.816
  430POPC   C2B 8888  17.849   9.588   8.392
  430POPC   C3B 8889  17.806   9.704   7.973
  430POPC   C4B 8890  17.716   9.478   7.632
  431POPC   NC3 8891  22.982   1.706   9.394
  431POPC   PO4 8892  22.749   2.287   9.661
  431POPC   GL1 8893  22.959   2.251   9.200
  431POPC   GL2 8894  22.847   1.967   8.985
  431POPC   C1A 8895  23.148   2.284   8.739
  431POPC   D2A 8896  23.042   2.479   8.308
  431POPC   C3A 8897  22.991   2.161   7.965
  431POPC   C4A 8898  22.692   1.865   7.765
  431POPC   C1B 8899  23.052   1.705   8.674
  431POPC   C2B 8900  22.987   1.663   8.207
  431POPC   C3B 8901  23.100   1.553   7.764
  431POPC   C4B 8902  23.216   1.613   7.294
  432POPC   NC3 8903  33.472  44.574   9.664
  432POPC   PO4 8904  34.115  44.548   9.667
  432POPC   GL1 8905  33.867  44.678   9.305
  432POPC   GL2 8906  34.002  44.969   9.183
  432POPC   C1A 8907  33.646  44.729   8.896
  432POPC   D2A 8908  33.545  44.548   8.492
  432POPC   C3A 8909  33.678  44.596   8.065
  432POPC   C4A 8910  34.038  44.575   7.779
  432POPC   C1B 8911  34.027   0.073   8.751
  432POPC   C2B 8912  33.766   0.022   8.383
  432POPC   C3B 8913  33.876   0.046   7.965
  432POPC   C4B 8914  33.836   0.130   7.561
  433POPC   NC3 8915  17.927  19.704   9.447
  433POPC   PO4 8916  18.616  19.758   9.547
  433POPC   GL1 8917  18.561  19.820   9.119
  433POPC   GL2 8918  18.263  20.040   9.010
  433POPC   C1A 8919  18.413  19.627   8.762
  433POPC   D2A 8920  18.085  19.577   8.442
  433POPC   C3A 8921  18.052  19.742   8.043
  433POPC   C4A 8922  18.201  19.565   7.625
  433POPC   C1B 8923  18.219  20.068   8.545
  433POPC   C2B 8924  18.548  19.851   8.313
  433POPC   C3B 8925  18.549  19.830   7.897
  433POPC   C4B 8926  18.282  20.119   7.768
  434POPC   NC3 8927  20.930  23.573   9.544
  434POPC   PO4 8928  21.541  23.448   9.561
  434POPC   GL1 8929  21.396  23.702   9.228
  434POPC   GL2 8930  21.665  23.918   9.177
  434POPC   C1A 8931  21.167  23.575   8.853
  434POPC   D2A 8932  21.158  23.343   8.425
  434POPC   C3A 8933  21.256  23.653   8.064
  434POPC   C4A 8934  21.115  23.998   7.751
  434POPC   C1B 8935  21.632  23.851   8.758
  434POPC   C2B 8936  21.408  24.080   8.450
  434POPC   C3B 8937  21.528  24.092   8.044
  434POPC   C4B 8938  21.754  23.785   7.879
  435POPC   NC3 8939  38.538   1.378   9.637
  435POPC   PO4 8940  38.306   0.786   9.597
  435POPC   GL1 8941  38.349   1.169   9.214
  435POPC   GL2 8942  38.616   1.421   9.128
  435POPC   C1A 8943  38.421   1.128   8.754
  435POPC   D2A 8944  38.290   1.287   8.364
  435POPC   C3A 8945  38.309   1.007   8.027
  435POPC   C4A 8946  38.408   0.844   7.637
  435POPC   C1B 8947  38.694   1.562   8.679
  435POPC   C2B 8948  38.698   1.540   8.213
  435POPC   C3B 8949  38.466   1.595   7.824
  435POPC   C4B 8950  38.550   1.771   7.385
  436POPC   NC3 8951  30.690   7.130   9.444
  436POPC   PO4 8952  30.908   7.771   9.545
  436POPC   GL1 8953  30.668   7.623   9.216
  436POPC   GL2 8954  30.348   7.805   9.189
  436POPC   C1A 8955  30.745   7.387   8.850
  436POPC   D2A 8956  30.851   7.410   8.435
  436POPC   C3A 8957  30.694   7.091   8.154
  436POPC   C4A 8958  30.766   7.152   7.747
  436POPC   C1B 8959  30.546   7.917   8.800
  436POPC   C2B 8960  30.455   7.801   8.388
  436POPC   C3B 8961  30.623   7.592   8.018
  436POPC   C4B 8962  30.851   7.629   7.642
  437POPC   NC3 8963   2.287  42.818   9.864
  437POPC   PO4 8964   1.753  42.858   9.407
  437POPC   GL1 8965   1.727  42.908   8.989
  437POPC   GL2 8966   2.010  43.168   9.046
  437POPC   C1A 8967   1.731  43.139   8.598
  437POPC   D2A 8968   2.061  43.457   8.511
  437POPC   C3A 8969   2.185  43.445   8.055
  437POPC   C4A 8970   2.084  43.188   7.666
  437POPC   C1B 8971   2.222  42.943   8.749
  437POPC   C2B 8972   2.249  43.017   8.334
  437POPC   C3B 8973   2.404  42.936   7.954
  437POPC   C4B 8974   2.302  42.735   7.582
  438POPC   NC3 8975  20.728   4.109   9.556
  438POPC   PO4 8976  20.484   4.712   9.489
  438POPC   GL1 8977  20.375   4.452   9.150
  438POPC   GL2 8978  20.366   4.097   9.194
  438POPC   C1A 8979  20.380   4.626   8.740
  438POPC   D2A 8980  20.635   4.824   8.411
  438POPC   C3A 8981  20.516   4.629   8.038
  438POPC   C4A 8982  20.435   4.175   7.947
  438POPC   C1B 8983  20.624   4.119   8.846
  438POPC   C2B 8984  20.684   4.305   8.453
  438POPC   C3B 8985  20.959   4.368   8.140
  438POPC   C4B 8986  20.916   4.196   7.763
  439POPC   NC3 8987  40.689  27.767   9.538
  439POPC   PO4 8988  40.577  27.115   9.657
  439POPC   GL1 8989  40.767  27.359   9.264
  439POPC   GL2 8990  41.144  27.446   9.203
  439POPC   C1A 8991  40.819  27.431   8.804
  439POPC   D2A 8992  40.647  27.502   8.394
  439POPC   C3A 8993  40.856  27.404   8.007
  439POPC   C4A 8994  40.778  27.615   7.612
  439POPC   C1B 8995  41.210  27.754   8.809
  439POPC   C2B 8996  41.041  27.846   8.407
  439POPC   C3B 8997  41.014  27.906   7.959
  439POPC   C4B 8998  41.281  27.713   7.650
  440POPC   NC3 8999   4.088  30.852   9.561
  440POPC   PO4 9000   3.426  30.740   9.558
  440POPC   GL1 9001   3.663  30.761   9.232
  440POPC   GL2 9002   3.896  30.464   9.262
  440POPC   C1A 9003   3.492  30.858   8.841
  440POPC   D2A 9004   3.429  30.720   8.448
  440POPC   C3A 9005   3.471  31.029   8.161
  440POPC   C4A 9006   3.528  30.875   7.773
  440POPC   C1B 9007   3.942  30.595   8.844
  440POPC   C2B 9008   3.957  30.675   8.455
  440POPC   C3B 9009   3.772  30.452   8.124
  440POPC   C4B 9010   3.941  30.464   7.735
  441POPC   NC3 9011  29.429  25.240   9.652
  441POPC   PO4 9012  30.054  25.154   9.550
  441POPC   GL1 9013  30.061  25.039   9.113
  441POPC   GL2 9014  30.160  25.380   9.046
  441POPC   C1A 9015  29.847  24.892   8.688
  441POPC   D2A 9016  29.644  24.764   8.265
  441POPC   C3A 9017  29.596  25.061   7.904
  441POPC   C4A 9018  29.408  25.269   7.524
  441POPC   C1B 9019  30.219  25.243   8.624
  441POPC   C2B 9020  30.026  25.139   8.205
  441POPC   C3B 9021  29.976  25.506   7.904
  441POPC   C4B 9022  30.339  25.805   7.811
  442POPC   NC3 9023  42.401  22.608   9.549
  442POPC   PO4 9024  42.180  22.026   9.681
  442POPC   GL1 9025  42.145  21.961   9.212
  442POPC   GL2 9026  42.501  21.810   9.218
  442POPC   C1A 9027  42.020  22.225   8.801
  442POPC   D2A 9028  42.208  22.535   8.460
  442POPC   C3A 9029  42.405  22.348   8.069
  442POPC   C4A 9030  42.226  22.004   7.830
  442POPC   C1B 9031  42.534  22.120   8.890
  442POPC   C2B 9032  42.421  22.031   8.471
  442POPC   C3B 9033  42.616  21.821   8.129
  442POPC   C4B 9034  42.698  21.675   7.745
  443POPC   NC3 9035   3.075   7.274   9.329
  443POPC   PO4 9036   3.547   7.633   9.538
  443POPC   GL1 9037   3.501   7.451   9.107
  443POPC   GL2 9038   3.529   7.078   9.067
  443POPC   C1A 9039   3.615   7.367   8.668
  443POPC   D2A 9040   3.700   7.641   8.312
  443POPC   C3A 9041   3.684   7.489   7.922
  443POPC   C4A 9042   3.478   7.706   7.584
  443POPC   C1B 9043   3.173   7.043   8.752
  443POPC   C2B 9044   3.019   6.925   8.340
  443POPC   C3B 9045   3.211   7.035   7.956
  443POPC   C4B 9046   3.406   7.213   7.587
  444POPC   NC3 9047  11.084  44.775   9.385
  444POPC   PO4 9048  11.526  44.293   9.480
  444POPC   GL1 9049  11.326  44.408   9.108
  444POPC   GL2 9050  11.510  44.708   9.121
  444POPC   C1A 9051  11.181  44.536   8.667
  444POPC   D2A 9052  11.189  44.913   8.362
  444POPC   C3A 9053  11.096  44.863   7.947
  444POPC   C4A 9054  11.278  44.473   7.883
  444POPC   C1B 9055  11.514  44.919   8.760
  444POPC   C2B 9056  11.703  44.989   8.349
  444POPC   C3B 9057  11.617  44.892   7.900
  444POPC   C4B 9058  11.916  44.836   7.562
  445POPC   NC3 9059  41.718  41.798   9.412
  445POPC   PO4 9060  41.518  41.089   9.445
  445POPC   GL1 9061  41.529  41.398   9.153
  445POPC   GL2 9062  41.275  41.653   9.173
  445POPC   C1A 9063  41.634  41.608   8.758
  445POPC   D2A 9064  41.725  41.529   8.319
  445POPC   C3A 9065  41.506  41.772   8.036
  445POPC   C4A 9066  41.288  41.761   7.692
  445POPC   C1B 9067  41.132  41.384   8.866
  445POPC   C2B 9068  41.326  41.222   8.510
  445POPC   C3B 9069  41.216  41.349   8.114
  445POPC   C4B 9070  41.224  41.252   7.712
  446POPC   NC3 9071  39.836  17.725   9.415
  446POPC   PO4 9072  40.386  17.841   9.755
  446POPC   GL1 9073  40.265  17.394   9.398
  446POPC   GL2 9074  39.929  17.241   9.301
  446POPC   C1A 9075  40.282  17.275   8.900
  446POPC   D2A 9076  40.122  17.500   8.490
  446POPC   C3A 9077  40.257  17.557   8.026
  446POPC   C4A 9078  40.166  17.908   7.710
  446POPC   C1B 9079  39.790  17.126   8.922
  446POPC   C2B 9080  39.657  17.304   8.555
  446POPC   C3B 9081  39.779  17.306   8.123
  446POPC   C4B 9082  39.643  17.451   7.728
  447POPC   NC3 9083  28.777   8.386   9.253
  447POPC   PO4 9084  29.226   7.973   9.541
  447POPC   GL1 9085  29.174   8.064   9.118
  447POPC   GL2 9086  29.277   8.389   9.130
  447POPC   C1A 9087  28.980   8.003   8.708
  447POPC   D2A 9088  28.800   8.250   8.363
  447POPC   C3A 9089  28.946   8.004   8.061
  447POPC   C4A 9090  29.284   8.004   7.795
  447POPC   C1B 9091  29.093   8.501   8.715
  447POPC   C2B 9092  29.058   8.690   8.301
  447POPC   C3B 9093  29.033   8.497   7.904
  447POPC   C4B 9094  28.835   8.215   7.616
  448POPC   NC3 9095  42.066  32.058   9.785
  448POPC   PO4 9096  42.595  32.510   9.615
  448POPC   GL1 9097  42.431  32.405   9.227
  448POPC   GL2 9098  42.307  32.085   9.258
  448POPC   C1A 9099  42.608  32.477   8.812
  448POPC   D2A 9100  42.601  32.833   8.544
  448POPC   C3A 9101  42.592  32.691   8.110
  448POPC   C4A 9102  42.691  32.485   7.739
  448POPC   C1B 9103  42.180  32.199   8.811
  448POPC   C2B 9104  42.259  32.428   8.434
  448POPC   C3B 9105  42.267  32.279   7.997
  448POPC   C4B 9106  42.242  31.908   7.713
  449POPC   NC3 9107  22.164   4.979   9.530
  449POPC   PO4 9108  21.908   5.625   9.580
  449POPC   GL1 9109  21.886   5.315   9.240
  449POPC   GL2 9110  22.251   5.283   9.135
  449POPC   C1A 9111  21.896   5.307   8.777
  449POPC   D2A 9112  22.210   5.231   8.434
  449POPC   C3A 9113  22.003   5.287   8.040
  449POPC   C4A 9114  21.886   5.153   7.646
  449POPC   C1B 9115  22.518   4.993   8.881
  449POPC   C2B 9116  22.510   4.787   8.470
  449POPC   C3B 9117  22.570   5.002   8.074
  449POPC   C4B 9118  22.405   5.157   7.704
  450POPC   NC3 9119   2.248  43.544   9.360
  450POPC   PO4 9120   1.828  43.955   9.669
  450POPC   GL1 9121   1.994  44.066   9.228
  450POPC   GL2 9122   2.363  44.021   9.193
  450POPC   C1A 9123   2.071  43.969   8.762
  450POPC   D2A 9124   2.221  43.906   8.338
  450POPC   C3A 9125   1.924  43.895   8.057
  450POPC   C4A 9126   1.799  43.627   7.747
  450POPC   C1B 9127   2.534  44.187   8.801
  450POPC   C2B 9128   2.375  44.376   8.400
  450POPC   C3B 9129   2.309  44.290   7.969
  450POPC   C4B 9130   2.127  44.024   7.615
  451POPC   NC3 9131  26.948  36.554   9.520
  451POPC   PO4 9132  27.058  35.872   9.768
  451POPC   GL1 9133  26.912  35.975   9.318
  451POPC   GL2 9134  26.542  35.894   9.191
  451POPC   C1A 9135  26.870  36.149   8.902
  451POPC   D2A 9136  26.736  36.332   8.511
  451POPC   C3A 9137  26.854  36.074   8.152
  451POPC   C4A 9138  26.999  36.065   7.734
  451POPC   C1B 9139  26.354  36.084   8.820
  451POPC   C2B 9140  26.330  36.037   8.380
  451POPC   C3B 9141  26.416  36.304   8.079
  451POPC   C4B 9142  26.489  36.054   7.763
  452POPC   NC3 9143  34.394  30.221   9.517
  452POPC   PO4 9144  34.851  29.696   9.408
  452POPC   GL1 9145  34.613  29.922   9.129
  452POPC   GL2 9146  34.274  29.815   9.200
  452POPC   C1A 9147  34.478  29.765   8.737
  452POPC   D2A 9148  34.336  29.778   8.344
  452POPC   C3A 9149  34.685  29.742   8.097
  452POPC   C4A 9150  34.556  29.687   7.716
  452POPC   C1B 9151  34.241  30.208   8.912
  452POPC   C2B 9152  34.385  30.246   8.536
  452POPC   C3B 9153  34.477  30.241   8.125
  452POPC   C4B 9154  34.335  30.142   7.726
  453POPC   NC3 9155  24.268  44.662   9.320
  453POPC   PO4 9156  24.787   0.013   9.582
  453POPC   GL1 9157  24.695  44.830   9.133
  453POPC   GL2 9158  24.427  44.944   8.940
  453POPC   C1A 9159  24.653  44.539   8.744
  453POPC   D2A 9160  24.465  44.610   8.352
  453POPC   C3A 9161  24.694  44.429   8.049
  453POPC   C4A 9162  24.609  44.145   7.738
  453POPC   C1B 9163  24.391   0.216   8.623
  453POPC   C2B 9164  24.580   0.127   8.278
  453POPC   C3B 9165  24.551  44.931   7.945
  453POPC   C4B 9166  24.464  44.634   7.667
  454POPC   NC3 9167  10.302  27.639   9.734
  454POPC   PO4 9168  10.872  27.305   9.766
  454POPC   GL1 9169  10.630  27.491   9.367
  454POPC   GL2 9170  10.277  27.527   9.230
  454POPC   C1A 9171  10.674  27.482   8.894
  454POPC   D2A 9172  10.662  27.667   8.450
  454POPC   C3A 9173  10.680  27.424   8.052
  454POPC   C4A 9174  10.784  27.602   7.663
  454POPC   C1B 9175  10.237  27.733   8.814
  454POPC   C2B 9176  10.206  27.899   8.361
  454POPC   C3B 9177  10.268  27.725   7.938
  454POPC   C4B 9178  10.298  27.717   7.471
  455POPC   NC3 9179  13.439  21.444   9.630
  455POPC   PO4 9180  13.417  21.975   9.229
  455POPC   GL1 9181  13.641  21.606   9.183
  455POPC   GL2 9182  13.651  21.225   9.198
  455POPC   C1A 9183  13.702  21.498   8.771
  455POPC   D2A 9184  13.862  21.638   8.405
  455POPC   C3A 9185  13.648  21.464   8.066
  455POPC   C4A 9186  13.506  21.585   7.706
  455POPC   C1B 9187  13.927  21.055   8.860
  455POPC   C2B 9188  13.889  21.132   8.388
  455POPC   C3B 9189  13.847  21.025   7.910
  455POPC   C4B 9190  13.758  21.211   7.478
  456POPC   NC3 9191  43.433  24.324   9.510
  456POPC   PO4 9192  43.940  24.749   9.377
  456POPC   GL1 9193  43.877  24.569   9.041
  456POPC   GL2 9194  43.861  24.243   9.153
  456POPC   C1A 9195  43.707  24.624   8.670
  456POPC   D2A 9196  43.806  24.375   8.352
  456POPC   C3A 9197  44.075  24.595   8.098
  456POPC   C4A 9198  43.913  24.893   7.781
  456POPC   C1B 9199  44.094  24.185   8.735
  456POPC   C2B 9200  44.182  24.032   8.292
  456POPC   C3B 9201  44.196  24.158   7.872
  456POPC   C4B 9202  43.935  24.327   7.607
  457POPC   NC3 9203   7.681   2.453   9.471
  457POPC   PO4 9204   7.400   3.152   9.559
  457POPC   GL1 9205   7.537   2.949   9.224
  457POPC   GL2 9206   7.227   3.021   9.057
  457POPC   C1A 9207   7.644   2.724   8.859
  457POPC   D2A 9208   7.753   2.631   8.448
  457POPC   C3A 9209   7.458   2.664   8.111
  457POPC   C4A 9210   7.552   2.934   7.783
  457POPC   C1B 9211   7.239   2.941   8.608
  457POPC   C2B 9212   7.181   3.191   8.244
  457POPC   C3B 9213   7.065   3.047   7.879
  457POPC   C4B 9214   7.092   2.658   7.677
  458POPC   NC3 9215  34.199  31.437   9.308
  458POPC   PO4 9216  34.763  31.386   9.613
  458POPC   GL1 9217  34.706  31.265   9.191
  458POPC   GL2 9218  34.880  30.946   9.198
  458POPC   C1A 9219  34.713  31.435   8.763
  458POPC   D2A 9220  34.520  31.686   8.447
  458POPC   C3A 9221  34.679  31.557   8.031
  458POPC   C4A 9222  34.772  31.868   7.688
  458POPC   C1B 9223  35.034  31.025   8.778
  458POPC   C2B 9224  34.944  31.161   8.367
  458POPC   C3B 9225  35.167  31.233   8.005
  458POPC   C4B 9226  35.044  31.438   7.627
  459POPC   NC3 9227  33.358  39.405   9.223
  459POPC   PO4 9228  32.742  39.271   9.599
  459POPC   GL1 9229  32.859  39.365   9.182
  459POPC   GL2 9230  32.955  39.040   9.156
  459POPC   C1A 9231  33.018  39.275   8.717
  459POPC   D2A 9232  33.202  39.165   8.384
  459POPC   C3A 9233  33.176  39.335   8.038
  459POPC   C4A 9234  32.853  39.407   7.795
  459POPC   C1B 9235  32.724  38.782   8.849
  459POPC   C2B 9236  32.619  38.862   8.419
  459POPC   C3B 9237  32.866  38.907   8.050
  459POPC   C4B 9238  33.197  38.704   7.854
  460POPC   NC3 9239   6.793  37.150   9.608
  460POPC   PO4 9240   7.211  36.655   9.478
  460POPC   GL1 9241   7.402  36.907   9.190
  460POPC   GL2 9242   7.126  37.172   9.197
  460POPC   C1A 9243   7.671  36.799   8.819
  460POPC   D2A 9244   7.626  36.602   8.396
  460POPC   C3A 9245   7.551  36.859   8.007
  460POPC   C4A 9246   7.408  36.916   7.550
  460POPC   C1B 9247   7.319  37.177   8.782
  460POPC   C2B 9248   7.226  36.985   8.404
  460POPC   C3B 9249   7.055  37.231   8.076
  460POPC   C4B 9250   7.154  37.363   7.666
  461POPC   NC3 9251  20.382  30.667   9.575
  461POPC   PO4 9252  20.905  30.285   9.418
  461POPC   GL1 9253  20.645  30.578   9.155
  461POPC   GL2 9254  20.449  30.399   8.953
  461POPC   C1A 9255  20.576  30.880   8.806
  461POPC   D2A 9256  20.664  30.704   8.406
  461POPC   C3A 9257  20.646  30.857   7.987
  461POPC   C4A 9258  20.711  30.832   7.544
  461POPC   C1B 9259  20.217  30.459   8.583
  461POPC   C2B 9260  20.268  30.514   8.126
  461POPC   C3B 9261  20.451  30.439   7.720
  461POPC   C4B 9262  20.408  30.503   7.263
  462POPC   NC3 9263  34.881  15.377   9.382
  462POPC   PO4 9264  34.436  14.945   9.602
  462POPC   GL1 9265  34.418  15.077   9.203
  462POPC   GL2 9266  34.755  14.956   9.117
  462POPC   C1A 9267  34.414  15.174   8.774
  462POPC   D2A 9268  34.656  15.434   8.491
  462POPC   C3A 9269  34.478  15.444   8.094
  462POPC   C4A 9270  34.493  15.113   7.813
  462POPC   C1B 9271  34.916  14.928   8.700
  462POPC   C2B 9272  34.780  14.957   8.276
  462POPC   C3B 9273  34.912  14.808   7.878
  462POPC   C4B 9274  34.807  14.793   7.416
  463POPC   NC3 9275  14.542  11.961   9.520
  463POPC   PO4 9276  14.721  11.411   9.162
  463POPC   GL1 9277  14.632  11.875   9.031
  463POPC   GL2 9278  14.267  12.062   9.083
  463POPC   C1A 9279  14.531  12.147   8.653
  463POPC   D2A 9280  14.279  12.149   8.280
  463POPC   C3A 9281  14.545  12.054   7.891
  463POPC   C4A 9282  14.507  11.845   7.478
  463POPC   C1B 9283  14.017  12.333   8.770
  463POPC   C2B 9284  13.823  12.462   8.358
  463POPC   C3B 9285  14.051  12.474   7.972
  463POPC   C4B 9286  14.232  12.503   7.579
  464POPC   NC3 9287   1.791  32.439   9.413
  464POPC   PO4 9288   1.950  32.919   9.862
  464POPC   GL1 9289   1.820  32.998   9.392
  464POPC   GL2 9290   1.685  33.322   9.220
  464POPC   C1A 9291   1.906  32.896   8.912
  464POPC   D2A 9292   2.046  32.808   8.454
  464POPC   C3A 9293   2.127  32.994   8.002
  464POPC   C4A 9294   2.110  32.805   7.542
  464POPC   C1B 9295   1.922  33.395   8.808
  464POPC   C2B 9296   1.803  33.279   8.390
  464POPC   C3B 9297   1.607  33.002   8.096
  464POPC   C4B 9298   1.686  33.048   7.664
  465POPC   NC3 9299  41.945   7.190   9.390
  465POPC   PO4 9300  41.329   6.909   9.476
  465POPC   GL1 9301  41.481   7.202   9.165
  465POPC   GL2 9302  41.634   7.572   9.238
  465POPC   C1A 9303  41.467   7.389   8.775
  465POPC   D2A 9304  41.312   7.477   8.401
  465POPC   C3A 9305  41.596   7.302   8.153
  465POPC   C4A 9306  41.502   7.271   7.793
  465POPC   C1B 9307  41.702   7.836   8.861
  465POPC   C2B 9308  41.772   7.714   8.428
  465POPC   C3B 9309  41.607   7.779   7.996
  465POPC   C4B 9310  41.649   7.684   7.555
  466POPC   NC3 9311  14.898   8.340   9.354
  466POPC   PO4 9312  15.578   8.181   9.464
  466POPC   GL1 9313  15.464   8.392   9.103
  466POPC   GL2 9314  15.248   8.111   9.060
  466POPC   C1A 9315  15.227   8.477   8.722
  466POPC   D2A 9316  14.976   8.345   8.367
  466POPC   C3A 9317  15.089   8.592   8.036
  466POPC   C4A 9318  15.130   8.423   7.652
  466POPC   C1B 9319  15.077   7.978   8.694
  466POPC   C2B 9320  15.212   7.893   8.264
  466POPC   C3B 9321  15.016   7.970   7.870
  466POPC   C4B 9322  15.231   7.924   7.476
  467POPC   NC3 9323  32.393  18.279   9.750
  467POPC   PO4 9324  32.282  17.792   9.290
  467POPC   GL1 9325  32.549  18.154   9.102
  467POPC   GL2 9326  32.510  18.530   9.157
  467POPC   C1A 9327  32.368  18.286   8.692
  467POPC   D2A 9328  31.995  18.339   8.418
  467POPC   C3A 9329  32.171  18.243   8.050
  467POPC   C4A 9330  32.139  18.044   7.708
  467POPC   C1B 9331  32.542  18.772   8.737
  467POPC   C2B 9332  32.411  18.646   8.301
  467POPC   C3B 9333  32.450  18.634   7.832
  467POPC   C4B 9334  32.526  18.737   7.379
  468POPC   NC3 9335   3.873  17.869   9.351
  468POPC   PO4 9336   3.282  18.094   9.452
  468POPC   GL1 9337   3.418  18.335   9.136
  468POPC   GL2 9338   3.523  18.027   8.964
  468POPC   C1A 9339   3.587  18.469   8.732
  468POPC   D2A 9340   3.653  18.179   8.398
  468POPC   C3A 9341   3.588  18.395   8.015
  468POPC   C4A 9342   3.365  18.445   7.649
  468POPC   C1B 9343   3.136  17.899   8.756
  468POPC   C2B 9344   2.996  17.880   8.319
  468POPC   C3B 9345   3.192  17.995   7.898
  468POPC   C4B 9346   3.163  17.992   7.431
  469POPC   NC3 9347  42.514  23.962   9.352
  469POPC   PO4 9348  42.338  24.600   9.537
  469POPC   GL1 9349  42.498  24.528   9.167
  469POPC   GL2 9350  42.485  24.902   9.092
  469POPC   C1A 9351  42.412  24.338   8.769
  469POPC   D2A 9352  42.305  24.615   8.427
  469POPC   C3A 9353  42.375  24.465   8.019
  469POPC   C4A 9354  42.708  24.271   7.814
  469POPC   C1B 9355  42.079  24.722   8.881
  469POPC   C2B 9356  41.781  24.692   8.538
  469POPC   C3B 9357  41.900  24.703   8.115
  469POPC   C4B 9358  42.055  24.733   7.721
  470POPC   NC3 9359  35.850  18.630   9.292
  470POPC   PO4 9360  36.192  18.080   9.438
  470POPC   GL1 9361  36.191  18.272   9.060
  470POPC   GL2 9362  36.133  17.947   8.971
  470POPC   C1A 9363  36.275  18.242   8.603
  470POPC   D2A 9364  36.513  18.482   8.314
  470POPC   C3A 9365  36.384  18.374   7.891
  470POPC   C4A 9366  36.298  18.634   7.551
  470POPC   C1B 9367  35.805  17.865   8.709
  470POPC   C2B 9368  35.866  18.092   8.312
  470POPC   C3B 9369  36.002  17.957   7.928
  470POPC   C4B 9370  36.070  18.077   7.515
  471POPC   NC3 9371  18.975   8.519   9.277
  471POPC   PO4 9372  18.841   9.138   9.463
  471POPC   GL1 9373  19.111   8.987   9.125
  471POPC   GL2 9374  19.421   8.737   9.148
  471POPC   C1A 9375  19.221   9.058   8.712
  471POPC   D2A 9376  19.503   9.144   8.401
  471POPC   C3A 9377  19.239   9.131   8.054
  471POPC   C4A 9378  19.028   9.096   7.654
  471POPC   C1B 9379  19.303   8.544   8.739
  471POPC   C2B 9380  19.174   8.672   8.318
  471POPC   C3B 9381  19.271   8.670   7.847
  471POPC   C4B 9382  19.542   9.011   7.665
  472POPC   NC3 9383  27.819  17.415   9.596
  472POPC   PO4 9384  27.327  16.987   9.573
  472POPC   GL1 9385  27.447  17.372   9.233
  472POPC   GL2 9386  27.694  17.680   9.185
  472POPC   C1A 9387  27.450  17.414   8.754
  472POPC   D2A 9388  27.376  17.560   8.309
  472POPC   C3A 9389  27.535  17.404   7.899
  472POPC   C4A 9390  27.660  17.317   7.422
  472POPC   C1B 9391  27.941  17.633   8.812
  472POPC   C2B 9392  27.929  17.479   8.381
  472POPC   C3B 9393  28.004  17.614   7.962
  472POPC   C4B 9394  28.067  17.553   7.563
  473POPC   NC3 9395  16.620  15.739   9.720
  473POPC   PO4 9396  17.030  16.269   9.542
  473POPC   GL1 9397  16.789  16.033   9.231
  473POPC   GL2 9398  17.042  15.815   9.127
  473POPC   C1A 9399  16.552  16.073   8.810
  473POPC   D2A 9400  16.390  16.288   8.401
  473POPC   C3A 9401  16.361  15.996   8.031
  473POPC   C4A 9402  16.605  15.671   7.786
  473POPC   C1B 9403  17.060  16.156   8.807
  473POPC   C2B 9404  16.902  16.097   8.383
  473POPC   C3B 9405  16.869  16.092   7.924
  473POPC   C4B 9406  16.760  16.101   7.484
  474POPC   NC3 9407  33.747   8.639   9.493
  474POPC   PO4 9408  34.071   9.240   9.483
  474POPC   GL1 9409  33.962   8.959   9.152
  474POPC   GL2 9410  33.621   8.936   9.090
  474POPC   C1A 9411  33.967   8.903   8.715
  474POPC   D2A 9412  33.630   8.918   8.445
  474POPC   C3A 9413  33.794   9.055   8.093
  474POPC   C4A 9414  34.194   8.989   7.893
  474POPC   C1B 9415  33.587   8.553   8.791
  474POPC   C2B 9416  33.805   8.421   8.391
  474POPC   C3B 9417  33.689   8.570   7.958
  474POPC   C4B 9418  33.778   8.885   7.624
  475POPC   NC3 9419   3.882  20.945   9.313
  475POPC   PO4 9420   3.874  20.288   9.479
  475POPC   GL1 9421   3.755  20.492   9.088
  475POPC   GL2 9422   3.422  20.532   9.138
  475POPC   C1A 9423   3.624  20.643   8.659
  475POPC   D2A 9424   3.496  20.411   8.295
  475POPC   C3A 9425   3.603  20.636   7.933
  475POPC   C4A 9426   3.443  20.530   7.516
  475POPC   C1B 9427   3.244  20.317   8.773
  475POPC   C2B 9428   2.998  20.455   8.400
  475POPC   C3B 9429   3.092  20.533   7.953
  475POPC   C4B 9430   3.229  20.949   7.711
  476POPC   NC3 9431   7.553  15.291   9.454
  476POPC   PO4 9432   7.098  14.726   9.514
  476POPC   GL1 9433   7.194  15.032   9.171
  476POPC   GL2 9434   7.177  15.407   9.139
  476POPC   C1A 9435   7.453  15.055   8.787
  476POPC   D2A 9436   7.229  14.937   8.414
  476POPC   C3A 9437   7.405  14.973   8.018
  476POPC   C4A 9438   7.331  14.924   7.596
  476POPC   C1B 9439   7.310  15.524   8.738
  476POPC   C2B 9440   7.453  15.409   8.343
  476POPC   C3B 9441   7.193  15.477   7.975
  476POPC   C4B 9442   7.119  15.441   7.492
  477POPC   NC3 9443  35.059  12.233   9.184
  477POPC   PO4 9444  34.511  12.063   9.514
  477POPC   GL1 9445  34.515  12.227   9.121
  477POPC   GL2 9446  34.665  12.569   9.120
  477POPC   C1A 9447  34.535  11.934   8.759
  477POPC   D2A 9448  34.572  11.604   8.445
  477POPC   C3A 9449  34.597  11.758   8.029
  477POPC   C4A 9450  34.681  11.859   7.608
  477POPC   C1B 9451  34.626  12.438   8.678
  477POPC   C2B 9452  34.540  12.189   8.309
  477POPC   C3B 9453  34.755  12.261   7.921
  477POPC   C4B 9454  34.722  12.558   7.584
  478POPC   NC3 9455   6.118   2.338   9.436
  478POPC   PO4 9456   5.755   1.704   9.448
  478POPC   GL1 9457   5.742   1.943   9.091
  478POPC   GL2 9458   6.089   2.024   9.007
  478POPC   C1A 9459   5.767   2.042   8.627
  478POPC   D2A 9460   6.067   1.969   8.292
  478POPC   C3A 9461   5.867   1.972   7.884
  478POPC   C4A 9462   5.854   2.080   7.443
  478POPC   C1B 9463   6.117   2.410   8.774
  478POPC   C2B 9464   5.940   2.473   8.394
  478POPC   C3B 9465   6.085   2.414   8.032
  478POPC   C4B 9466   5.980   2.548   7.642
  479POPC   NC3 9467  18.819  34.723   9.651
  479POPC   PO4 9468  19.433  34.587   9.738
  479POPC   GL1 9469  19.116  34.619   9.283
  479POPC   GL2 9470  18.778  34.451   9.227
  479POPC   C1A 9471  19.054  34.617   8.821
  479POPC   D2A 9472  18.842  34.718   8.440
  479POPC   C3A 9473  19.061  34.740   8.012
  479POPC   C4A 9474  19.261  34.603   7.617
  479POPC   C1B 9475  18.757  34.208   8.864
  479POPC   C2B 9476  18.606  34.202   8.510
  479POPC   C3B 9477  18.743  34.323   8.144
  479POPC   C4B 9478  18.859  34.272   7.770
  480POPC   NC3 9479   2.040  35.888   9.539
  480POPC   PO4 9480   1.771  36.522   9.451
  480POPC   GL1 9481   2.036  36.296   9.134
  480POPC   GL2 9482   2.281  36.006   9.101
  480POPC   C1A 9483   1.876  36.116   8.758
  480POPC   D2A 9484   1.704  36.279   8.394
  480POPC   C3A 9485   1.737  36.038   8.043
  480POPC   C4A 9486   1.954  36.131   7.720
  480POPC   C1B 9487   2.387  36.158   8.712
  480POPC   C2B 9488   2.204  36.088   8.308
  480POPC   C3B 9489   2.413  36.091   7.927
  480POPC   C4B 9490   2.359  36.387   7.587
  481POPC   NC3 9491   9.203  37.923   9.460
  481POPC   PO4 9492   8.749  37.601   9.806
  481POPC   GL1 9493   8.959  37.445   9.363
  481POPC   GL2 9494   8.898  37.712   9.125
  481POPC   C1A 9495   9.160  37.375   8.871
  481POPC   D2A 9496   9.328  37.668   8.516
  481POPC   C3A 9497   9.240  37.532   8.089
  481POPC   C4A 9498   9.115  37.764   7.718
  481POPC   C1B 9499   8.721  37.666   8.758
  481POPC   C2B 9500   8.832  37.703   8.364
  481POPC   C3B 9501   8.730  37.477   8.031
  481POPC   C4B 9502   8.616  37.587   7.679
  482POPC   NC3 9503   6.816   1.050   9.805
  482POPC   PO4 9504   6.893   0.409   9.483
  482POPC   GL1 9505   6.591   0.371   9.132
  482POPC   GL2 9506   6.806   0.631   9.001
  482POPC   C1A 9507   6.356   0.353   8.715
  482POPC   D2A 9508   6.200   0.615   8.338
  482POPC   C3A 9509   6.384   0.554   7.889
  482POPC   C4A 9510   6.260   0.624   7.436
  482POPC   C1B 9511   6.844   0.482   8.630
  482POPC   C2B 9512   6.715   0.392   8.261
  482POPC   C3B 9513   6.853   0.346   7.859
  482POPC   C4B 9514   6.754   0.546   7.505
  483POPC   NC3 9515  27.714  44.301   9.649
  483POPC   PO4 9516  27.152  43.990   9.514
  483POPC   GL1 9517  27.411  44.091   9.144
  483POPC   GL2 9518  27.752  43.998   9.181
  483POPC   C1A 9519  27.612  44.086   8.706
  483POPC   D2A 9520  27.618  43.762   8.345
  483POPC   C3A 9521  27.586  43.860   7.887
  483POPC   C4A 9522  27.344  43.635   7.575
  483POPC   C1B 9523  27.854  43.628   8.840
  483POPC   C2B 9524  28.025  43.463   8.386
  483POPC   C3B 9525  28.066  43.690   7.950
  483POPC   C4B 9526  27.987  44.149   7.765
  484POPC   NC3 9527  13.155  40.540   9.535
  484POPC   PO4 9528  12.653  40.970   9.523
  484POPC   GL1 9529  12.594  40.862   9.139
  484POPC   GL2 9530  12.969  40.843   9.109
  484POPC   C1A 9531  12.631  40.778   8.726
  484POPC   D2A 9532  12.969  40.776   8.486
  484POPC   C3A 9533  12.819  40.822   8.114
  484POPC   C4A 9534  12.714  40.662   7.776
  484POPC   C1B 9535  13.293  41.002   8.837
  484POPC   C2B 9536  13.257  41.224   8.450
  484POPC   C3B 9537  13.075  41.256   8.062
  484POPC   C4B 9538  13.158  41.004   7.740
  485POPC   NC3 9539  21.667  15.677   9.592
  485POPC   PO4 9540  21.405  16.231   9.471
  485POPC   GL1 9541  21.250  16.057   9.100
  485POPC   GL2 9542  21.086  15.748   9.149
  485POPC   C1A 9543  21.333  15.999   8.642
  485POPC   D2A 9544  21.257  15.969   8.189
  485POPC   C3A 9545  21.515  16.170   7.858
  485POPC   C4A 9546  21.842  16.011   7.546
  485POPC   C1B 9547  21.015  15.575   8.737
  485POPC   C2B 9548  21.185  15.491   8.340
  485POPC   C3B 9549  21.033  15.544   7.921
  485POPC   C4B 9550  21.071  15.606   7.482
  486POPC   NC3 9551  18.946  15.853   9.468
  486POPC   PO4 9552  18.631  16.414   9.394
  486POPC   GL1 9553  18.875  16.194   9.091
  486POPC   GL2 9554  19.256  16.124   9.118
  486POPC   C1A 9555  18.908  15.960   8.723
  486POPC   D2A 9556  18.890  16.211   8.362
  486POPC   C3A 9557  18.832  16.028   7.977
  486POPC   C4A 9558  19.205  16.135   7.808
  486POPC   C1B 9559  19.411  15.844   8.763
  486POPC   C2B 9560  19.273  15.854   8.343
  486POPC   C3B 9561  19.463  15.724   7.966
  486POPC   C4B 9562  19.341  15.735   7.520
  487POPC   NC3 9563  42.556  30.862  10.010
  487POPC   PO4 9564  42.117  30.701   9.498
  487POPC   GL1 9565  42.325  30.597   9.120
  487POPC   GL2 9566  42.607  30.800   9.079
  487POPC   C1A 9567  42.476  30.419   8.738
  487POPC   D2A 9568  42.294  30.357   8.343
  487POPC   C3A 9569  42.402  30.635   8.014
  487POPC   C4A 9570  42.423  30.579   7.580
  487POPC   C1B 9571  42.434  30.924   8.670
  487POPC   C2B 9572  42.235  31.237   8.413
  487POPC   C3B 9573  42.187  31.118   7.989
  487POPC   C4B 9574  42.501  31.071   7.701
  488POPC   NC3 9575  28.583  19.142   9.389
  488POPC   PO4 9576  28.127  19.526   9.341
  488POPC   GL1 9577  28.279  19.301   9.025
  488POPC   GL2 9578  28.166  18.945   9.085
  488POPC   C1A 9579  28.491  19.044   8.697
  488POPC   D2A 9580  28.264  18.871   8.362
  488POPC   C3A 9581  28.508  18.794   8.028
  488POPC   C4A 9582  28.801  18.945   7.711
  488POPC   C1B 9583  27.947  19.153   8.697
  488POPC   C2B 9584  27.900  19.246   8.261
  488POPC   C3B 9585  28.067  19.130   7.840
  488POPC   C4B 9586  28.303  18.810   7.584
  489POPC   NC3 9587  25.326  24.056   9.900
  489POPC   PO4 9588  25.361  23.684   9.339
  489POPC   GL1 9589  25.199  23.734   8.996
  489POPC   GL2 9590  24.941  23.491   9.036
  489POPC   C1A 9591  25.357  23.776   8.587
  489POPC   D2A 9592  25.104  23.899   8.244
  489POPC   C3A 9593  25.436  24.020   7.993
  489POPC   C4A 9594  25.617  23.654   7.857
  489POPC   C1B 9595  24.908  23.543   8.624
  489POPC   C2B 9596  25.107  23.379   8.305
  489POPC   C3B 9597  25.121  23.473   7.888
  489POPC   C4B 9598  24.802  23.323   7.609
  490POPC   NC3 9599  25.747  22.488   9.599
  490POPC   PO4 9600  26.127  23.141   9.542
  490POPC   GL1 9601  25.954  22.883   9.230
  490POPC   GL2 9602  25.767  23.145   9.112
  490POPC   C1A 9603  25.932  22.776   8.777
  490POPC   D2A 9604  25.938  22.914   8.340
  490POPC   C3A 9605  25.843  22.620   8.010
  490POPC   C4A 9606  25.920  22.788   7.634
  490POPC   C1B 9607  25.881  23.292   8.705
  490POPC   C2B 9608  25.841  23.425   8.280
  490POPC   C3B 9609  25.977  23.256   7.864
  490POPC   C4B 9610  26.032  23.222   7.386
  491POPC   NC3 9611   0.089  14.547   9.537
  491POPC   PO4 9612   0.741  14.316   9.656
  491POPC   GL1 9613   0.527  14.453   9.262
  491POPC   GL2 9614   0.325  14.173   9.244
  491POPC   C1A 9615   0.273  14.580   8.869
  491POPC   D2A 9616   0.396  14.417   8.459
  491POPC   C3A 9617   0.311  14.554   8.028
  491POPC   C4A 9618   0.683  14.629   7.755
  491POPC   C1B 9619   0.261  14.068   8.843
  491POPC   C2B 9620   0.434  13.902   8.535
  491POPC   C3B 9621   0.340  14.010   8.123
  491POPC   C4B 9622   0.329  14.168   7.688
  492POPC   NC3 9623  32.318  19.265   9.601
  492POPC   PO4 9624  32.123  18.640   9.550
  492POPC   GL1 9625  32.085  18.855   9.199
  492POPC   GL2 9626  32.404  19.030   9.159
  492POPC   C1A 9627  32.047  18.682   8.800
  492POPC   D2A 9628  31.953  18.865   8.417
  492POPC   C3A 9629  31.967  18.716   7.983
  492POPC   C4A 9630  32.107  18.983   7.645
  492POPC   C1B 9631  32.204  19.190   8.785
  492POPC   C2B 9632  32.390  19.148   8.391
  492POPC   C3B 9633  32.399  19.246   7.980
  492POPC   C4B 9634  32.568  19.592   7.765
  493POPC   NC3 9635  33.281  21.534   9.742
  493POPC   PO4 9636  33.884  21.707   9.808
  493POPC   GL1 9637  33.824  21.467   9.340
  493POPC   GL2 9638  33.612  21.159   9.242
  493POPC   C1A 9639  33.991  21.357   8.879
  493POPC   D2A 9640  34.071  21.258   8.442
  493POPC   C3A 9641  33.873  21.513   8.124
  493POPC   C4A 9642  33.714  21.689   7.742
  493POPC   C1B 9643  33.564  21.055   8.762
  493POPC   C2B 9644  33.434  21.278   8.353
  493POPC   C3B 9645  33.461  21.282   7.875
  493POPC   C4B 9646  33.541  21.164   7.416
  494POPC   NC3 9647  18.947  43.600   9.536
  494POPC   PO4 9648  19.241  44.154   9.319
  494POPC   GL1 9649  19.131  43.800   9.093
  494POPC   GL2 9650  19.413  43.563   9.203
  494POPC   C1A 9651  18.919  43.977   8.737
  494POPC   D2A 9652  18.993  44.237   8.400
  494POPC   C3A 9653  18.987  43.989   8.038
  494POPC   C4A 9654  19.294  43.991   7.736
  494POPC   C1B 9655  19.514  43.703   8.779
  494POPC   C2B 9656  19.286  43.774   8.411
  494POPC   C3B 9657  19.295  43.552   8.029
  494POPC   C4B 9658  19.425  43.506   7.612
  495POPC   NC3 9659  10.630  37.870   9.596
  495POPC   PO4 9660  10.422  37.223   9.343
  495POPC   GL1 9661  10.542  37.590   9.103
  495POPC   GL2 9662  10.343  37.874   9.143
  495POPC   C1A 9663  10.674  37.570   8.676
  495POPC   D2A 9664  10.476  37.315   8.340
  495POPC   C3A 9665  10.595  37.508   7.973
  495POPC   C4A 9666  10.746  37.916   7.910
  495POPC   C1B 9667  10.195  37.808   8.719
  495POPC   C2B 9668  10.074  38.084   8.368
  495POPC   C3B 9669  10.209  37.908   8.001
  495POPC   C4B 9670   9.997  37.807   7.620
  496POPC   NC3 9671  30.492  32.528   9.518
  496POPC   PO4 9672  30.703  31.880   9.735
  496POPC   GL1 9673  30.839  31.859   9.281
  496POPC   GL2 9674  30.886  32.137   9.151
  496POPC   C1A 9675  30.649  31.901   8.780
  496POPC   D2A 9676  30.702  32.146   8.370
  496POPC   C3A 9677  30.647  31.920   7.966
  496POPC   C4A 9678  30.369  31.984   7.647
  496POPC   C1B 9679  31.030  32.355   8.784
  496POPC   C2B 9680  31.096  32.518   8.347
  496POPC   C3B 9681  30.951  32.394   7.959
  496POPC   C4B 9682  30.616  32.433   7.675
  497POPC   NC3 9683  20.407  25.593   9.277
  497POPC   PO4 9684  20.848  26.073   9.537
  497POPC   GL1 9685  20.807  26.188   9.122
  497POPC   GL2 9686  20.480  26.315   9.194
  497POPC   C1A 9687  20.890  26.050   8.680
  497POPC   D2A 9688  20.770  25.875   8.271
  497POPC   C3A 9689  20.827  25.972   7.827
  497POPC   C4A 9690  20.465  25.773   7.652
  497POPC   C1B 9691  20.390  26.164   8.807
  497POPC   C2B 9692  20.454  26.281   8.397
  497POPC   C3B 9693  20.344  26.169   7.981
  497POPC   C4B 9694  20.105  26.498   7.844
  498POPC   NC3 9695  17.175  28.366   9.466
  498POPC   PO4 9696  17.799  28.629   9.490
  498POPC   GL1 9697  17.734  28.309   9.178
  498POPC   GL2 9698  17.411  28.179   9.051
  498POPC   C1A 9699  17.891  28.303   8.767
  498POPC   D2A 9700  17.799  28.562   8.419
  498POPC   C3A 9701  17.838  28.428   8.016
  498POPC   C4A 9702  17.475  28.593   7.786
  498POPC   C1B 9703  17.380  28.504   8.727
  498POPC   C2B 9704  17.289  28.560   8.279
  498POPC   C3B 9705  17.394  28.172   8.047
  498POPC   C4B 9706  17.284  27.929   7.679
  499POPC   NC3 9707   3.893  28.291   9.493
  499POPC   PO4 9708   4.651  28.498   9.546
  499POPC   GL1 9709   4.585  28.272   9.142
  499POPC   GL2 9710   4.240  28.171   9.151
  499POPC   C1A 9711   4.482  28.290   8.684
  499POPC   D2A 9712   4.083  28.488   8.480
  499POPC   C3A 9713   3.985  28.400   8.047
  499POPC   C4A 9714   4.378  28.249   7.854
  499POPC   C1B 9715   4.056  27.981   8.806
  499POPC   C2B 9716   4.206  27.960   8.400
  499POPC   C3B 9717   4.033  27.893   8.025
  499POPC   C4B 9718   4.214  27.834   7.613
  500POPC   NC3 9719   9.125  13.173   9.689
  500POPC   PO4 9720   8.688  13.768   9.625
  500POPC   GL1 9721   8.711  13.563   9.201
  500POPC   GL2 9722   8.735  13.226   9.248
  500POPC   C1A 9723   8.784  13.620   8.717
  500POPC   D2A 9724   9.009  13.812   8.293
  500POPC   C3A 9725   8.772  13.739   7.915
  500POPC   C4A 9726   8.722  13.345   7.710
  500POPC   C1B 9727   9.136  13.373   9.009
  500POPC   C2B 9728   9.251  13.461   8.573
  500POPC   C3B 9729   9.081  13.315   8.169
  500POPC   C4B 9730   9.196  13.509   7.773
  501POPC   NC3 9731  30.084  18.993   9.372
  501POPC   PO4 9732  30.035  19.535   9.681
  501POPC   GL1 9733  30.144  19.468   9.157
  501POPC   GL2 9734  30.250  19.155   8.926
  501POPC   C1A 9735  29.978  19.498   8.679
  501POPC   D2A 9736  29.936  19.162   8.377
  501POPC   C3A 9737  30.027  19.241   7.956
  501POPC   C4A 9738  29.683  19.456   7.751
  501POPC   C1B 9739  30.003  18.804   8.746
  501POPC   C2B 9740  29.912  18.648   8.343
  501POPC   C3B 9741  29.719  18.847   7.981
  501POPC   C4B 9742  29.732  18.538   7.647
  502POPC   NC3 9743  14.414  22.754   9.486
  502POPC   PO4 9744  14.186  23.398   9.482
  502POPC   GL1 9745  14.447  23.114   9.161
  502POPC   GL2 9746  14.800  23.111   9.161
  502POPC   C1A 9747  14.427  22.806   8.803
  502POPC   D2A 9748  14.370  22.555   8.411
  502POPC   C3A 9749  14.526  22.732   8.032
  502POPC   C4A 9750  14.192  22.948   7.839
  502POPC   C1B 9751  14.813  23.176   8.746
  502POPC   C2B 9752  14.530  23.140   8.414
  502POPC   C3B 9753  14.545  23.272   8.021
  502POPC   C4B 9754  14.660  23.114   7.616
  503POPC   NC3 9755  38.899  26.197   9.725
  503POPC   PO4 9756  39.376  25.741   9.658
  503POPC   GL1 9757  39.153  26.019   9.330
  503POPC   GL2 9758  38.861  25.862   9.272
  503POPC   C1A 9759  39.125  26.012   8.863
  503POPC   D2A 9760  39.232  26.178   8.473
  503POPC   C3A 9761  39.410  26.027   8.099
  503POPC   C4A 9762  39.156  26.229   7.746
  503POPC   C1B 9763  38.867  25.579   8.865
  503POPC   C2B 9764  39.031  25.684   8.408
  503POPC   C3B 9765  38.947  25.845   8.001
  503POPC   C4B 9766  38.977  25.790   7.534
  504POPC   NC3 9767   7.616  30.333   9.510
  504POPC   PO4 9768   7.393  29.634   9.435
  504POPC   GL1 9769   7.429  29.714   9.024
  504POPC   GL2 9770   7.477  30.057   9.078
  504POPC   C1A 9771   7.197  29.884   8.661
  504POPC   D2A 9772   7.274  30.046   8.266
  504POPC   C3A 9773   7.091  29.868   7.889
  504POPC   C4A 9774   7.108  29.920   7.442
  504POPC   C1B 9775   7.739  30.013   8.707
  504POPC   C2B 9776   7.728  29.780   8.324
  504POPC   C3B 9777   7.601  29.883   7.913
  504POPC   C4B 9778   7.558  29.671   7.561
  505POPC   NC3 9779  22.888   1.056   9.779
  505POPC   PO4 9780  23.251   0.545   9.415
  505POPC   GL1 9781  22.998   0.397   9.110
  505POPC   GL2 9782  22.642   0.346   9.200
  505POPC   C1A 9783  22.985   0.593   8.699
  505POPC   D2A 9784  23.191   0.629   8.282
  505POPC   C3A 9785  22.866   0.563   7.986
  505POPC   C4A 9786  22.868   0.257   7.682
  505POPC   C1B 9787  22.704   0.153   8.786
  505POPC   C2B 9788  22.907   0.196   8.377
  505POPC   C3B 9789  22.608   0.113   8.080
  505POPC   C4B 9790  22.431  44.949   7.708
  506POPC   NC3 9791   7.121  31.983   9.475
  506POPC   PO4 9792   7.765  32.328   9.480
  506POPC   GL1 9793   7.556  32.250   9.139
  506POPC   GL2 9794   7.526  31.922   9.144
  506POPC   C1A 9795   7.519  32.489   8.758
  506POPC   D2A 9796   7.642  32.671   8.370
  506POPC   C3A 9797   7.487  32.453   8.021
  506POPC   C4A 9798   7.437  32.355   7.542
  506POPC   C1B 9799   7.275  32.018   8.752
  506POPC   C2B 9800   7.195  31.938   8.282
  506POPC   C3B 9801   7.415  31.976   7.881
  506POPC   C4B 9802   7.355  31.852   7.444
  507POPC   NC3 9803  28.705   4.445   9.340
  507POPC   PO4 9804  28.112   4.274   9.566
  507POPC   GL1 9805  28.214   4.312   9.183
  507POPC   GL2 9806  28.272   4.667   9.128
  507POPC   C1A 9807  27.961   4.350   8.863
  507POPC   D2A 9808  27.845   4.358   8.475
  507POPC   C3A 9809  28.187   4.340   8.199
  507POPC   C4A 9810  28.213   4.330   7.773
  507POPC   C1B 9811  28.424   4.524   8.695
  507POPC   C2B 9812  28.597   4.671   8.275
  507POPC   C3B 9813  28.722   4.516   7.860
  507POPC   C4B 9814  28.712   4.548   7.398
  508POPC   NC3 9815  22.651  29.341   9.485
  508POPC   PO4 9816  22.002  29.089   9.463
  508POPC   GL1 9817  22.109  29.054   9.054
  508POPC   GL2 9818  22.459  29.061   9.103
  508POPC   C1A 9819  21.928  29.050   8.659
  508POPC   D2A 9820  22.013  29.199   8.261
  508POPC   C3A 9821  21.856  29.061   7.870
  508POPC   C4A 9822  22.044  29.386   7.599
  508POPC   C1B 9823  22.505  29.277   8.740
  508POPC   C2B 9824  22.547  29.104   8.324
  508POPC   C3B 9825  22.373  29.003   7.913
  508POPC   C4B 9826  22.272  28.966   7.479
  509POPC   NC3 9827  22.742  14.226   9.570
  509POPC   PO4 9828  23.288  13.951   9.451
  509POPC   GL1 9829  22.957  14.138   9.119
  509POPC   GL2 9830  22.558  14.083   9.119
  509POPC   C1A 9831  22.868  14.287   8.680
  509POPC   D2A 9832  22.804  14.555   8.301
  509POPC   C3A 9833  23.152  14.505   8.022
  509POPC   C4A 9834  23.212  14.749   7.693
  509POPC   C1B 9835  22.407  14.096   8.703
  509POPC   C2B 9836  22.503  14.151   8.246
  509POPC   C3B 9837  22.740  14.261   7.848
  509POPC   C4B 9838  22.625  14.121   7.403
  510POPC   NC3 9839  36.092  13.674   9.649
  510POPC   PO4 9840  36.399  14.088   9.226
  510POPC   GL1 9841  36.001  13.848   9.176
  510POPC   GL2 9842  35.967  13.481   9.096
  510POPC   C1A 9843  35.834  13.846   8.771
  510POPC   D2A 9844  35.964  13.543   8.461
  510POPC   C3A 9845  35.959  13.669   8.040
  510POPC   C4A 9846  36.314  13.675   7.725
  510POPC   C1B 9847  35.600  13.366   8.792
  510POPC   C2B 9848  35.574  13.237   8.342
  510POPC   C3B 9849  35.871  13.151   8.016
  510POPC   C4B 9850  35.915  13.368   7.616
  511POPC   NC3 9851  28.161  42.299   9.709
  511POPC   PO4 9852  28.682  42.504   9.326
  511POPC   GL1 9853  28.513  42.182   9.123
  511POPC   GL2 9854  28.166  42.159   9.201
  511POPC   C1A 9855  28.501  42.246   8.695
  511POPC   D2A 9856  28.270  42.156   8.318
  511POPC   C3A 9857  28.364  42.450   8.043
  511POPC   C4A 9858  28.466  42.668   7.699
  511POPC   C1B 9859  28.007  42.186   8.755
  511POPC   C2B 9860  27.881  42.493   8.405
  511POPC   C3B 9861  27.941  42.717   7.990
  511POPC   C4B 9862  27.987  42.645   7.525
  512POPC   NC3 9863   4.356  13.861   9.460
  512POPC   PO4 9864   4.110  13.196   9.563
  512POPC   GL1 9865   4.396  13.403   9.241
  512POPC   GL2 9866   4.111  13.585   9.103
  512POPC   C1A 9867   4.555  13.632   8.841
  512POPC   D2A 9868   4.339  13.712   8.443
  512POPC   C3A 9869   4.453  13.533   8.054
  512POPC   C4A 9870   4.611  13.654   7.635
  512POPC   C1B 9871   4.135  13.972   8.828
  512POPC   C2B 9872   3.897  13.999   8.452
  512POPC   C3B 9873   3.960  13.770   8.105
  512POPC   C4B 9874   4.196  13.884   7.772
  513POPC   NC3 9875  33.915  42.703   9.898
  513POPC   PO4 9876  33.700  43.225   9.510
  513POPC   GL1 9877  33.798  43.263   9.095
  513POPC   GL2 9878  33.580  42.978   9.010
  513POPC   C1A 9879  33.875  43.190   8.671
  513POPC   D2A 9880  33.689  43.029   8.330
  513POPC   C3A 9881  34.006  43.187   8.119
  513POPC   C4A 9882  34.162  43.194   7.735
  513POPC   C1B 9883  33.389  42.703   8.699
  513POPC   C2B 9884  33.244  42.711   8.297
  513POPC   C3B 9885  33.439  42.835   7.918
  513POPC   C4B 9886  33.621  43.202   7.804
  514POPC   NC3 9887  28.991  39.693   9.485
  514POPC   PO4 9888  29.399  40.162   9.658
  514POPC   GL1 9889  29.254  40.039   9.235
  514POPC   GL2 9890  28.941  40.139   9.106
  514POPC   C1A 9891  29.202  39.837   8.808
  514POPC   D2A 9892  29.323  40.007   8.413
  514POPC   C3A 9893  29.037  39.936   8.082
  514POPC   C4A 9894  28.933  39.694   7.727
  514POPC   C1B 9895  29.267  40.335   8.820
  514POPC   C2B 9896  29.224  40.514   8.420
  514POPC   C3B 9897  29.239  40.399   7.983
  514POPC   C4B 9898  29.187  40.149   7.619
  515POPC   NC3 9899  13.173  27.740   9.917
  515POPC   PO4 9900  13.760  27.693   9.697
  515POPC   GL1 9901  13.815  27.652   9.217
  515POPC   GL2 9902  14.054  27.406   9.163
  515POPC   C1A 9903  13.690  27.707   8.760
  515POPC   D2A 9904  13.378  27.456   8.493
  515POPC   C3A 9905  13.338  27.534   8.042
  515POPC   C4A 9906  13.143  27.869   7.824
  515POPC   C1B 9907  14.087  27.362   8.704
  515POPC   C2B 9908  13.866  27.511   8.316
  515POPC   C3B 9909  13.754  27.222   7.963
  515POPC   C4B 9910  13.487  26.896   7.738
  516POPC   NC3 9911  20.135  37.436   9.510
  516POPC   PO4 9912  20.063  38.086   9.535
  516POPC   GL1 9913  19.903  37.767   9.197
  516POPC   GL2 9914  19.592  37.579   9.266
  516POPC   C1A 9915  20.099  37.686   8.779
  516POPC   D2A 9916  20.028  37.769   8.368
  516POPC   C3A 9917  20.062  37.493   8.027
  516POPC   C4A 9918  19.873  37.695   7.703
  516POPC   C1B 9919  19.618  37.546   8.812
  516POPC   C2B 9920  19.456  37.431   8.415
  516POPC   C3B 9921  19.479  37.530   8.027
  516POPC   C4B 9922  19.580  37.279   7.700
  517POPC   NC3 9923  22.756  22.121   9.893
  517POPC   PO4 9924  23.005  22.660   9.552
  517POPC   GL1 9925  23.066  22.287   9.312
  517POPC   GL2 9926  22.745  22.109   9.235
  517POPC   C1A 9927  23.135  22.227   8.892
  517POPC   D2A 9928  22.882  22.160   8.580
  517POPC   C3A 9929  23.102  21.950   8.266
  517POPC   C4A 9930  22.994  22.063   7.858
  517POPC   C1B 9931  22.562  21.837   8.876
  517POPC   C2B 9932  22.633  21.743   8.418
  517POPC   C3B 9933  22.645  21.700   7.959
  517POPC   C4B 9934  22.698  21.793   7.505
  518POPC   NC3 9935  31.748  21.647   9.528
  518POPC   PO4 9936  32.279  21.119   9.521
  518POPC   GL1 9937  32.092  21.397   9.226
  518POPC   GL2 9938  32.344  21.291   9.051
  518POPC   C1A 9939  32.052  21.594   8.799
  518POPC   D2A 9940  32.301  21.607   8.423
  518POPC   C3A 9941  32.113  21.634   8.043
  518POPC   C4A 9942  32.328  21.591   7.687
  518POPC   C1B 9943  32.545  21.271   8.725
  518POPC   C2B 9944  32.481  21.077   8.333
  518POPC   C3B 9945  32.580  21.208   7.946
  518POPC   C4B 9946  32.502  21.009   7.583
  519POPC   NC3 9947  34.181   1.570   9.687
  519POPC   PO4 9948  34.728   1.168   9.642
  519POPC   GL1 9949  34.706   1.090   9.178
  519POPC   GL2 9950  34.932   0.813   9.103
  519POPC   C1A 9951  34.462   1.307   8.814
  519POPC   D2A 9952  34.211   1.534   8.481
  519POPC   C3A 9953  34.277   1.346   8.085
  519POPC   C4A 9954  34.517   1.410   7.727
  519POPC   C1B 9955  34.604   0.779   8.797
  519POPC   C2B 9956  34.515   0.994   8.410
  519POPC   C3B 9957  34.769   1.067   8.028
  519POPC   C4B 9958  34.744   0.951   7.593
  520POPC   NC3 9959  24.641   9.587   9.486
  520POPC   PO4 9960  23.930   9.710   9.513
  520POPC   GL1 9961  24.173   9.541   9.186
  520POPC   GL2 9962  24.422   9.784   9.060
  520POPC   C1A 9963  24.108   9.471   8.776
  520POPC   D2A 9964  24.362   9.716   8.507
  520POPC   C3A 9965  24.184   9.763   8.122
  520POPC   C4A 9966  24.342   9.779   7.764
  520POPC   C1B 9967  24.654  10.054   8.776
  520POPC   C2B 9968  24.848   9.949   8.379
  520POPC   C3B 9969  24.790   9.890   7.948
  520POPC   C4B 9970  24.767  10.149   7.579
  521POPC   NC3 9971  31.551   8.458   9.454
  521POPC   PO4 9972  31.806   7.851   9.687
  521POPC   GL1 9973  31.561   7.883   9.241
  521POPC   GL2 9974  31.266   8.044   9.281
  521POPC   C1A 9975  31.620   7.835   8.814
  521POPC   D2A 9976  31.847   7.762   8.441
  521POPC   C3A 9977  31.733   7.965   8.063
  521POPC   C4A 9978  31.787   8.360   7.819
  521POPC   C1B 9979  31.311   8.232   8.871
  521POPC   C2B 9980  31.394   8.097   8.443
  521POPC   C3B 9981  31.311   8.272   8.032
  521POPC   C4B 9982  31.289   8.239   7.582
  522POPC   NC3 9983  15.547  13.126   9.737
  522POPC   PO4 9984  15.089  12.746   9.406
  522POPC   GL1 9985  15.392  12.730   9.126
  522POPC   GL2 9986  15.528  13.068   9.192
  522POPC   C1A 9987  15.386  12.651   8.685
  522POPC   D2A 9988  15.224  12.918   8.359
  522POPC   C3A 9989  15.141  12.658   8.013
  522POPC   C4A 9990  15.447  12.491   7.797
  522POPC   C1B 9991  15.185  13.112   8.840
  522POPC   C2B 9992  14.779  13.078   8.574
  522POPC   C3B 9993  14.789  13.022   8.121
  522POPC   C4B 9994  15.170  13.152   7.875
  523POPC   NC3 9995  37.009  39.644   9.559
  523POPC   PO4 9996  37.180  40.317   9.400
  523POPC   GL1 9997  36.898  40.178   9.119
  523POPC   GL2 9998  36.849  39.817   9.086
  523POPC   C1A 9999  36.841  40.342   8.722
  523POPC   D2A10000  36.993  40.090   8.412
  523POPC   C3A10001  36.796  40.180   8.049
  523POPC   C4A10002  36.770  39.997   7.681
  523POPC   C1B10003  37.156  39.699   8.801
  523POPC   C2B10004  37.328  39.689   8.409
  523POPC   C3B10005  37.051  39.689   8.056
  523POPC   C4B10006  37.166  39.691   7.653
  524POPC   NC310007  14.572  38.249   9.559
  524POPC   PO410008  13.898  38.527   9.546
  524POPC   GL110009  14.280  38.608   9.259
  524POPC   GL210010  14.381  38.301   9.096
  524POPC   C1A10011  14.651  38.716   8.962
  524POPC   D2A10012  14.693  38.779   8.508
  524POPC   C3A10013  14.369  38.640   8.198
  524POPC   C4A10014  14.411  38.799   7.739
  524POPC   C1B10015  14.302  38.403   8.678
  524POPC   C2B10016  14.113  38.140   8.367
  524POPC   C3B10017  14.442  38.047   8.083
  524POPC   C4B10018  14.603  38.355   7.837
  525POPC   NC310019  15.932  21.051   9.683
  525POPC   PO410020  15.935  20.382   9.563
  525POPC   GL110021  15.924  20.492   9.155
  525POPC   GL210022  15.906  20.810   9.256
  525POPC   C1A10023  16.076  20.486   8.723
  525POPC   D2A10024  15.942  20.496   8.262
  525POPC   C3A10025  16.231  20.541   7.927
  525POPC   C4A10026  16.105  20.350   7.555
  525POPC   C1B10027  15.792  20.989   8.916
  525POPC   C2B10028  15.939  20.934   8.519
  525POPC   C3B10029  15.764  20.999   8.122
  525POPC   C4B10030  15.921  20.942   7.724
  526POPC   NC310031  34.689  42.218   9.645
  526POPC   PO410032  34.536  41.541   9.600
  526POPC   GL110033  34.557  41.513   9.173
  526POPC   GL210034  34.681  41.842   9.161
  526POPC   C1A10035  34.823  41.520   8.793
  526POPC   D2A10036  34.835  41.700   8.367
  526POPC   C3A10037  34.753  41.437   8.030
  526POPC   C4A10038  34.950  41.309   7.701
  526POPC   C1B10039  34.549  41.961   8.765
  526POPC   C2B10040  34.406  41.976   8.344
  526POPC   C3B10041  34.573  41.905   7.933
  526POPC   C4B10042  34.319  41.937   7.584
  527POPC   NC310043  14.461   5.753   9.251
  527POPC   PO410044  14.069   6.209   9.478
  527POPC   GL110045  14.016   5.956   9.052
  527POPC   GL210046  14.160   5.629   8.861
  527POPC   C1A10047  14.041   6.065   8.613
  527POPC   D2A10048  14.349   5.856   8.364
  527POPC   C3A10049  14.255   5.790   7.939
  527POPC   C4A10050  14.575   5.899   7.607
  527POPC   C1B10051  14.611   5.522   8.658
  527POPC   C2B10052  14.788   5.504   8.214
  527POPC   C3B10053  14.583   5.404   7.813
  527POPC   C4B10054  14.172   5.430   7.584
  528POPC   NC310055  11.673  21.756   9.497
  528POPC   PO410056  11.394  21.168   9.456
  528POPC   GL110057  11.199  21.328   9.138
  528POPC   GL210058  11.304  21.656   9.168
  528POPC   C1A10059  11.101  21.489   8.740
  528POPC   D2A10060  11.324  21.629   8.406
  528POPC   C3A10061  11.192  21.432   8.092
  528POPC   C4A10062  11.097  21.488   7.696
  528POPC   C1B10063  11.623  21.532   8.843
  528POPC   C2B10064  11.848  21.610   8.456
  528POPC   C3B10065  11.715  21.544   8.025
  528POPC   C4B10066  11.562  21.626   7.614
  529POPC   NC310067  18.080  34.058   9.505
  529POPC   PO410068  18.477  33.576   9.652
  529POPC   GL110069  18.438  33.774   9.253
  529POPC   GL210070  18.102  33.744   9.091
  529POPC   C1A10071  18.512  33.766   8.790
  529POPC   D2A10072  18.483  33.622   8.336
  529POPC   C3A10073  18.537  33.876   7.924
  529POPC   C4A10074  18.671  33.898   7.453
  529POPC   C1B10075  18.058  33.973   8.695
  529POPC   C2B10076  18.185  34.069   8.284
  529POPC   C3B10077  18.022  33.949   7.925
  529POPC   C4B10078  17.673  34.091   7.680
  530POPC   NC310079  33.009  29.074   9.442
  530POPC   PO410080  32.421  29.336   9.442
  530POPC   GL110081  32.544  29.132   9.063
  530POPC   GL210082  32.916  29.066   8.966
  530POPC   C1A10083  32.628  29.260   8.628
  530POPC   D2A10084  32.979  29.052   8.439
  530POPC   C3A10085  32.863  29.088   8.065
  530POPC   C4A10086  32.920  28.925   7.674
  530POPC   C1B10087  33.277  29.300   8.778
  530POPC   C2B10088  33.512  29.173   8.422
  530POPC   C3B10089  33.387  29.069   8.016
  530POPC   C4B10090  33.162  29.358   7.734
  531POPC   NC310091   5.044  36.629   9.759
  531POPC   PO410092   5.354  37.217   9.754
  531POPC   GL110093   5.106  37.140   9.318
  531POPC   GL210094   5.270  36.836   9.289
  531POPC   C1A10095   4.894  36.864   8.903
  531POPC   D2A10096   4.786  36.616   8.492
  531POPC   C3A10097   4.815  36.830   8.085
  531POPC   C4A10098   4.952  36.746   7.633
  531POPC   C1B10099   5.380  36.987   8.869
  531POPC   C2B10100   5.230  36.849   8.460
  531POPC   C3B10101   5.322  36.761   8.001
  531POPC   C4B10102   5.485  36.821   7.552
  532POPC   NC310103   7.040  21.831   9.768
  532POPC   PO410104   6.464  22.206   9.758
  532POPC   GL110105   6.418  22.255   9.293
  532POPC   GL210106   6.768  22.222   9.138
  532POPC   C1A10107   6.366  22.053   8.876
  532POPC   D2A10108   6.372  22.202   8.466
  532POPC   C3A10109   6.708  22.082   8.189
  532POPC   C4A10110   6.692  22.222   7.776
  532POPC   C1B10111   7.008  22.557   8.897
  532POPC   C2B10112   6.962  22.469   8.471
  532POPC   C3B10113   6.892  22.643   8.092
  532POPC   C4B10114   7.031  22.601   7.702
  533POPC   NC310115  36.260   4.506   9.828
  533POPC   PO410116  35.907   4.967   9.588
  533POPC   GL110117  36.022   5.010   9.162
  533POPC   GL210118  36.329   5.169   9.143
  533POPC   C1A10119  35.991   5.192   8.729
  533POPC   D2A10120  36.155   5.248   8.319
  533POPC   C3A10121  36.011   5.066   7.927
  533POPC   C4A10122  35.875   5.117   7.516
  533POPC   C1B10123  36.427   4.904   8.804
  533POPC   C2B10124  36.525   4.820   8.376
  533POPC   C3B10125  36.518   5.088   8.006
  533POPC   C4B10126  36.391   5.163   7.578
  534POPC   NC310127   6.440   9.487   9.622
  534POPC   PO410128   6.981   9.844   9.603
  534POPC   GL110129   6.879   9.693   9.227
  534POPC   GL210130   6.556   9.890   9.194
  534POPC   C1A10131   6.814   9.731   8.775
  534POPC   D2A10132   6.936   9.946   8.389
  534POPC   C3A10133   6.799   9.833   7.954
  534POPC   C4A10134   6.905   9.925   7.501
  534POPC   C1B10135   6.339   9.942   8.768
  534POPC   C2B10136   6.394   9.810   8.308
  534POPC   C3B10137   6.270   9.806   7.863
  534POPC   C4B10138   6.487   9.632   7.516
  535POPC   NC310139   9.175  18.368   9.266
  535POPC   PO410140   9.101  18.924   9.657
  535POPC   GL110141   9.038  18.918   9.194
  535POPC   GL210142   9.387  18.960   9.083
  535POPC   C1A10143   8.875  19.189   8.816
  535POPC   D2A10144   8.647  19.350   8.409
  535POPC   C3A10145   8.835  19.221   8.029
  535POPC   C4A10146   8.772  18.917   7.692
  535POPC   C1B10147   9.266  18.881   8.678
  535POPC   C2B10148   9.297  19.018   8.256
  535POPC   C3B10149   9.214  18.784   7.905
  535POPC   C4B10150   9.257  18.871   7.466
  536POPC   NC310151  43.369  27.912   9.532
  536POPC   PO410152  42.789  27.517   9.449
  536POPC   GL110153  43.045  27.750   9.182
  536POPC   GL210154  42.839  27.944   9.053
  536POPC   C1A10155  43.213  27.764   8.751
  536POPC   D2A10156  43.269  27.403   8.503
  536POPC   C3A10157  43.202  27.498   8.086
  536POPC   C4A10158  43.426  27.225   7.780
  536POPC   C1B10159  42.762  27.507   8.820
  536POPC   C2B10160  42.781  27.286   8.441
  536POPC   C3B10161  42.651  27.414   8.043
  536POPC   C4B10162  42.888  27.422   7.690
  537POPC   NC310163  12.175  40.369   9.638
  537POPC   PO410164  12.409  39.798   9.626
  537POPC   GL110165  12.108  39.981   9.272
  537POPC   GL210166  12.256  40.303   9.133
  537POPC   C1A10167  11.972  40.033   8.787
  537POPC   D2A10168  11.881  39.832   8.323
  537POPC   C3A10169  11.749  40.013   7.874
  537POPC   C4A10170  11.916  40.176   7.412
  537POPC   C1B10171  12.459  39.948   8.919
  537POPC   C2B10172  12.407  39.911   8.472
  537POPC   C3B10173  12.432  39.712   8.058
  537POPC   C4B10174  12.183  39.824   7.694
  538POPC   NC310175  19.410  42.715   9.572
  538POPC   PO410176  18.794  42.398   9.530
  538POPC   GL110177  19.081  42.478   9.187
  538POPC   GL210178  19.358  42.274   9.202
  538POPC   C1A10179  19.041  42.284   8.767
  538POPC   D2A10180  18.894  42.043   8.362
  538POPC   C3A10181  18.956  42.224   7.942
  538POPC   C4A10182  18.846  42.636   7.777
  538POPC   C1B10183  19.537  42.226   8.790
  538POPC   C2B10184  19.362  42.256   8.377
  538POPC   C3B10185  19.461  42.098   8.005
  538POPC   C4B10186  19.385  42.282   7.642
  539POPC   NC310187  37.863   9.297   9.642
  539POPC   PO410188  37.905   8.657   9.833
  539POPC   GL110189  37.695   8.852   9.440
  539POPC   GL210190  37.640   8.607   9.196
  539POPC   C1A10191  37.747   9.040   8.984
  539POPC   D2A10192  37.735   8.849   8.552
  539POPC   C3A10193  37.804   9.008   8.135
  539POPC   C4A10194  37.652   9.027   7.709
  539POPC   C1B10195  37.423   8.430   8.835
  539POPC   C2B10196  37.313   8.554   8.410
  539POPC   C3B10197  37.406   8.689   8.004
  539POPC   C4B10198  37.318   8.547   7.609
  540POPC   NC310199  28.538  37.178   9.317
  540POPC   PO410200  28.537  37.862   9.400
  540POPC   GL110201  28.386  37.621   9.067
  540POPC   GL210202  28.299  37.250   8.893
  540POPC   C1A10203  28.190  37.690   8.673
  540POPC   D2A10204  28.146  37.449   8.305
  540POPC   C3A10205  28.230  37.767   8.014
  540POPC   C4A10206  28.613  37.855   7.819
  540POPC   C1B10207  28.671  37.478   8.691
  540POPC   C2B10208  28.629  37.736   8.347
  540POPC   C3B10209  28.614  37.414   8.067
  540POPC   C4B10210  28.442  37.364   7.677
  541POPC   NC310211   3.931  16.255   9.628
  541POPC   PO410212   4.329  16.868   9.545
  541POPC   GL110213   4.170  16.707   9.151
  541POPC   GL210214   4.507  16.660   9.048
  541POPC   C1A10215   4.121  16.826   8.765
  541POPC   D2A10216   4.469  16.940   8.570
  541POPC   C3A10217   4.373  16.834   8.177
  541POPC   C4A10218   4.199  16.847   7.801
  541POPC   C1B10219   4.376  16.368   8.722
  541POPC   C2B10220   4.495  16.337   8.304
  541POPC   C3B10221   4.378  16.373   7.891
  541POPC   C4B10222   4.298  16.352   7.443
  542POPC   NC310223  33.856   7.140   9.488
  542POPC   PO410224  33.410   7.625   9.376
  542POPC   GL110225  33.700   7.373   9.055
  542POPC   GL210226  34.009   7.134   9.000
  542POPC   C1A10227  33.896   7.488   8.654
  542POPC   D2A10228  33.690   7.620   8.272
  542POPC   C3A10229  33.947   7.558   7.885
  542POPC   C4A10230  34.145   7.544   7.451
  542POPC   C1B10231  33.714   7.016   8.644
  542POPC   C2B10232  33.587   6.973   8.220
  542POPC   C3B10233  33.498   7.309   7.919
  542POPC   C4B10234  33.664   7.355   7.490
  543POPC   NC310235   9.768  10.850   9.403
  543POPC   PO410236   9.632  11.507   9.463
  543POPC   GL110237   9.711  11.266   9.109
  543POPC   GL210238  10.057  11.197   9.044
  543POPC   C1A10239   9.602  11.106   8.712
  543POPC   D2A10240   9.730  11.304   8.334
  543POPC   C3A10241   9.477  11.523   8.026
  543POPC   C4A10242   9.787  11.419   7.707
  543POPC   C1B10243  10.054  10.844   8.723
  543POPC   C2B10244   9.805  10.780   8.330
  543POPC   C3B10245   9.832  10.963   7.925
  543POPC   C4B10246  10.137  11.068   7.604
  544POPC   NC310247   4.046  19.839   9.466
  544POPC   PO410248   4.535  19.442   9.593
  544POPC   GL110249   4.512  19.709   9.234
  544POPC   GL210250   4.426  20.093   9.247
  544POPC   C1A10251   4.551  19.619   8.801
  544POPC   D2A10252   4.248  19.627   8.458
  544POPC   C3A10253   4.469  19.518   8.128
  544POPC   C4A10254   4.488  19.524   7.714
  544POPC   C1B10255   4.250  20.041   8.802
  544POPC   C2B10256   4.391  20.117   8.340
  544POPC   C3B10257   4.443  20.021   7.885
  544POPC   C4B10258   4.413  20.274   7.497
  545POPC   NC310259  11.185  43.975   9.402
  545POPC   PO410260  11.641  43.542   9.694
  545POPC   GL110261  11.634  43.621   9.248
  545POPC   GL210262  11.621  43.956   9.105
  545POPC   C1A10263  11.500  43.524   8.829
  545POPC   D2A10264  11.186  43.608   8.539
  545POPC   C3A10265  11.266  43.586   8.113
  545POPC   C4A10266  11.156  43.667   7.683
  545POPC   C1B10267  11.358  44.045   8.739
  545POPC   C2B10268  11.232  44.109   8.307
  545POPC   C3B10269  11.462  44.012   7.950
  545POPC   C4B10270  11.767  43.962   7.667
  546POPC   NC310271  32.083  13.935   9.299
  546POPC   PO410272  32.474  13.361   9.552
  546POPC   GL110273  32.330  13.507   9.164
  546POPC   GL210274  32.489  13.795   9.031
  546POPC   C1A10275  32.121  13.437   8.785
  546POPC   D2A10276  32.092  13.604   8.371
  546POPC   C3A10277  32.158  13.412   7.934
  546POPC   C4A10278  32.265  13.354   7.458
  546POPC   C1B10279  32.211  14.021   8.697
  546POPC   C2B10280  31.970  14.115   8.330
  546POPC   C3B10281  32.180  13.924   7.994
  546POPC   C4B10282  32.200  13.826   7.591
  547POPC   NC310283  36.727  23.846   9.500
  547POPC   PO410284  37.205  23.323   9.454
  547POPC   GL110285  37.035  23.597   9.192
  547POPC   GL210286  36.728  23.447   9.169
  547POPC   C1A10287  37.116  23.766   8.812
  547POPC   D2A10288  37.001  23.544   8.445
  547POPC   C3A10289  37.125  23.738   8.080
  547POPC   C4A10290  37.031  23.798   7.675
  547POPC   C1B10291  36.636  23.642   8.803
  547POPC   C2B10292  36.560  23.798   8.413
  547POPC   C3B10293  36.665  23.949   8.033
  547POPC   C4B10294  36.522  23.791   7.676
  548POPC   NC310295  14.411  31.200   9.597
  548POPC   PO410296  14.262  31.879   9.642
  548POPC   GL110297  14.336  31.615   9.283
  548POPC   GL210298  14.175  31.783   9.104
  548POPC   C1A10299  14.421  31.353   8.909
  548POPC   D2A10300  14.372  31.149   8.492
  548POPC   C3A10301  14.518  31.352   8.091
  548POPC   C4A10302  14.465  31.380   7.634
  548POPC   C1B10303  14.478  31.854   8.792
  548POPC   C2B10304  14.354  31.769   8.373
  548POPC   C3B10305  14.492  31.874   7.957
  548POPC   C4B10306  14.362  31.868   7.530
  549POPC   NC310307  23.226  24.400   9.560
  549POPC   PO410308  22.617  24.241   9.520
  549POPC   GL110309  22.775  24.604   9.257
  549POPC   GL210310  23.110  24.603   9.117
  549POPC   C1A10311  22.758  24.788   8.821
  549POPC   D2A10312  22.748  24.609   8.423
  549POPC   C3A10313  23.008  24.701   8.105
  549POPC   C4A10314  22.784  24.730   7.735
  549POPC   C1B10315  23.091  24.381   8.764
  549POPC   C2B10316  23.265  24.312   8.410
  549POPC   C3B10317  23.213  24.255   7.989
  549POPC   C4B10318  23.246  24.538   7.640
  550POPC   NC310319  37.186  15.639   9.628
  550POPC   PO410320  36.867  16.173   9.547
  550POPC   GL110321  36.733  15.832   9.256
  550POPC   GL210322  37.031  15.769   9.136
  550POPC   C1A10323  36.682  15.878   8.778
  550POPC   D2A10324  36.889  16.010   8.376
  550POPC   C3A10325  36.950  15.822   7.938
  550POPC   C4A10326  36.848  15.809   7.459
  550POPC   C1B10327  37.106  16.190   8.897
  550POPC   C2B10328  37.273  16.367   8.489
  550POPC   C3B10329  37.203  16.296   8.034
  550POPC   C4B10330  37.065  16.248   7.615
  551POPC   NC310331  41.746   1.831   9.423
  551POPC   PO410332  42.050   2.365   9.349
  551POPC   GL110333  41.854   2.147   9.019
  551POPC   GL210334  41.496   2.072   9.075
  551POPC   C1A10335  41.715   2.143   8.597
  551POPC   D2A10336  41.757   2.401   8.250
  551POPC   C3A10337  41.409   2.277   8.012
  551POPC   C4A10338  41.551   2.091   7.644
  551POPC   C1B10339  41.230   1.926   8.814
  551POPC   C2B10340  41.150   2.087   8.440
  551POPC   C3B10341  41.109   1.865   8.089
  551POPC   C4B10342  41.241   1.708   7.755
  552POPC   NC310343   5.491  18.941   9.439
  552POPC   PO410344   6.189  19.137   9.477
  552POPC   GL110345   6.151  18.892   9.095
  552POPC   GL210346   5.805  18.794   9.029
  552POPC   C1A10347   6.113  18.964   8.657
  552POPC   D2A10348   5.937  19.329   8.463
  552POPC   C3A10349   6.107  19.218   8.100
  552POPC   C4A10350   6.116  18.751   8.126
  552POPC   C1B10351   5.609  19.005   8.718
  552POPC   C2B10352   5.416  19.148   8.374
  552POPC   C3B10353   5.480  18.987   8.029
  552POPC   C4B10354   5.833  18.930   7.750
  553POPC   NC310355  26.258  36.727   9.367
  553POPC   PO410356  26.818  37.126   9.501
  553POPC   GL110357  26.709  36.928   9.127
  553POPC   GL210358  26.719  36.590   9.057
  553POPC   C1A10359  26.849  36.958   8.707
  553POPC   D2A10360  26.858  37.203   8.344
  553POPC   C3A10361  27.026  37.029   7.951
  553POPC   C4A10362  27.196  37.134   7.537
  553POPC   C1B10363  27.143  36.560   8.794
  553POPC   C2B10364  27.090  36.677   8.348
  553POPC   C3B10365  26.929  36.533   7.955
  553POPC   C4B10366  27.239  36.513   7.624
  554POPC   NC310367  41.137  37.533   9.409
  554POPC   PO410368  40.587  37.918   9.489
  554POPC   GL110369  40.787  37.794   9.133
  554POPC   GL210370  41.062  37.984   9.147
  554POPC   C1A10371  40.804  37.520   8.787
  554POPC   D2A10372  40.618  37.432   8.393
  554POPC   C3A10373  40.902  37.350   8.062
  554POPC   C4A10374  40.801  37.417   7.632
  554POPC   C1B10375  41.210  37.836   8.771
  554POPC   C2B10376  41.108  37.718   8.367
  554POPC   C3B10377  41.023  37.837   7.939
  554POPC   C4B10378  40.635  37.879   7.745
  555POPC   NC310379  41.020  20.112   9.531
  555POPC   PO410380  40.600  19.550   9.474
  555POPC   GL110381  40.883  19.687   9.183
  555POPC   GL210382  40.810  20.025   9.073
  555POPC   C1A10383  40.735  19.616   8.772
  555POPC   D2A10384  40.658  19.848   8.411
  555POPC   C3A10385  40.636  19.649   8.006
  555POPC   C4A10386  40.957  19.722   7.773
  555POPC   C1B10387  40.557  20.227   8.755
  555POPC   C2B10388  40.645  20.383   8.357
  555POPC   C3B10389  40.664  20.153   8.001
  555POPC   C4B10390  40.534  19.983   7.641
  556POPC   NC310391   3.252  41.261   9.340
  556POPC   PO410392   2.611  41.128   9.229
  556POPC   GL110393   2.765  40.733   8.999
  556POPC   GL210394   3.108  40.649   9.041
  556POPC   C1A10395   2.733  40.593   8.581
  556POPC   D2A10396   2.401  40.478   8.284
  556POPC   C3A10397   2.541  40.581   7.862
  556POPC   C4A10398   2.471  40.975   7.775
  556POPC   C1B10399   3.047  41.050   8.745
  556POPC   C2B10400   2.789  41.140   8.387
  556POPC   C3B10401   2.886  41.189   7.974
  556POPC   C4B10402   2.967  40.874   7.673
  557POPC   NC310403  22.440  35.065   9.367
  557POPC   PO410404  22.962  35.458   9.531
  557POPC   GL110405  22.837  35.292   9.189
  557POPC   GL210406  22.531  35.523   9.200
  557POPC   C1A10407  23.021  35.069   8.834
  557POPC   D2A10408  23.027  35.208   8.417
  557POPC   C3A10409  23.144  35.076   8.028
  557POPC   C4A10410  23.083  35.298   7.659
  557POPC   C1B10411  22.549  35.249   8.761
  557POPC   C2B10412  22.518  35.311   8.314
  557POPC   C3B10413  22.642  35.215   7.902
  557POPC   C4B10414  22.607  35.344   7.468
  558POPC   NC310415   9.463  44.871   9.312
  558POPC   PO410416   9.917  44.311   9.473
  558POPC   GL110417   9.892  44.529   9.151
  558POPC   GL210418  10.079  44.820   9.109
  558POPC   C1A10419   9.879  44.384   8.767
  558POPC   D2A10420   9.556  44.440   8.474
  558POPC   C3A10421   9.654  44.576   8.060
  558POPC   C4A10422   9.998  44.477   7.808
  558POPC   C1B10423   9.822  44.890   8.728
  558POPC   C2B10424   9.499  44.954   8.383
  558POPC   C3B10425   9.436   0.023   7.930
  558POPC   C4B10426   9.619  44.762   7.559
  559POPC   NC310427  24.427  41.039   9.529
  559POPC   PO410428  24.542  40.364   9.548
  559POPC   GL110429  24.755  40.639   9.229
  559POPC   GL210430  24.550  40.866   9.079
  559POPC   C1A10431  24.827  40.637   8.755
  559POPC   D2A10432  24.696  40.808   8.428
  559POPC   C3A10433  24.625  40.632   8.041
  559POPC   C4A10434  24.856  40.632   7.674
  559POPC   C1B10435  24.295  40.648   8.775
  559POPC   C2B10436  24.159  40.694   8.333
  559POPC   C3B10437  24.153  40.516   7.890
  559POPC   C4B10438  24.352  40.602   7.491
  560POPC   NC310439  33.521  17.305   9.518
  560POPC   PO410440  33.817  17.945   9.525
  560POPC   GL110441  33.808  17.631   9.219
  560POPC   GL210442  33.527  17.625   9.111
  560POPC   C1A10443  33.974  17.703   8.808
  560POPC   D2A10444  33.930  17.809   8.383
  560POPC   C3A10445  34.046  17.500   8.099
  560POPC   C4A10446  33.971  17.388   7.672
  560POPC   C1B10447  33.596  17.325   8.809
  560POPC   C2B10448  33.559  17.425   8.379
  560POPC   C3B10449  33.619  17.189   8.009
  560POPC   C4B10450  33.467  17.261   7.608
  561POPC   NC310451  27.952   9.715   9.714
  561POPC   PO410452  28.608   9.616   9.566
  561POPC   GL110453  28.263   9.705   9.278
  561POPC   GL210454  28.156  10.057   9.308
  561POPC   C1A10455  28.254   9.685   8.824
  561POPC   D2A10456  28.051   9.863   8.452
  561POPC   C3A10457  28.119   9.588   8.100
  561POPC   C4A10458  28.470   9.378   7.892
  561POPC   C1B10459  28.288  10.194   8.864
  561POPC   C2B10460  28.514  10.112   8.477
  561POPC   C3B10461  28.372  10.021   8.047
  561POPC   C4B10462  28.609  10.089   7.672
  562POPC   NC310463  35.522  20.142   9.346
  562POPC   PO410464  35.088  19.685   9.458
  562POPC   GL110465  35.175  19.873   9.093
  562POPC   GL210466  35.457  19.670   9.066
  562POPC   C1A10467  35.089  19.748   8.692
  562POPC   D2A10468  35.026  19.547   8.326
  562POPC   C3A10469  35.125  19.731   7.927
  562POPC   C4A10470  35.419  19.679   7.571
  562POPC   C1B10471  35.589  19.863   8.720
  562POPC   C2B10472  35.517  19.736   8.356
  562POPC   C3B10473  35.560  19.989   8.025
  562POPC   C4B10474  35.811  19.943   7.725
  563POPC   NC310475  23.119   7.415   9.476
  563POPC   PO410476  22.603   6.987   9.591
  563POPC   GL110477  22.702   7.253   9.168
  563POPC   GL210478  23.076   7.249   9.023
  563POPC   C1A10479  22.746   7.460   8.725
  563POPC   D2A10480  22.583   7.744   8.391
  563POPC   C3A10481  22.612   7.465   8.029
  563POPC   C4A10482  22.815   7.502   7.591
  563POPC   C1B10483  23.279   7.293   8.659
  563POPC   C2B10484  23.085   7.212   8.279
  563POPC   C3B10485  23.117   7.509   7.976
  563POPC   C4B10486  23.292   7.719   7.661
  564POPC   NC310487   3.856   7.204   9.537
  564POPC   PO410488   4.422   7.699   9.501
  564POPC   GL110489   4.347   7.701   9.099
  564POPC   GL210490   4.018   7.516   9.135
  564POPC   C1A10491   4.504   7.447   8.749
  564POPC   D2A10492   4.728   7.382   8.351
  564POPC   C3A10493   4.533   7.441   7.939
  564POPC   C4A10494   4.140   7.245   7.826
  564POPC   C1B10495   4.037   7.668   8.702
  564POPC   C2B10496   4.173   7.464   8.325
  564POPC   C3B10497   4.128   7.741   8.003
  564POPC   C4B10498   3.904   7.933   7.720
  565POPC   NC310499   6.046  25.806   9.455
  565POPC   PO410500   5.912  26.461   9.418
  565POPC   GL110501   5.755  26.236   9.090
  565POPC   GL210502   5.603  25.895   9.166
  565POPC   C1A10503   6.002  26.269   8.704
  565POPC   D2A10504   6.234  26.230   8.284
  565POPC   C3A10505   6.070  26.448   7.923
  565POPC   C4A10506   5.734  26.215   7.815
  565POPC   C1B10507   5.807  25.814   8.772
  565POPC   C2B10508   5.710  26.013   8.348
  565POPC   C3B10509   5.529  25.803   7.981
  565POPC   C4B10510   5.742  25.711   7.593
  566POPC   NC310511   7.251  34.498   9.428
  566POPC   PO410512   6.586  34.367   9.536
  566POPC   GL110513   6.630  34.575   9.168
  566POPC   GL210514   6.317  34.724   9.094
  566POPC   C1A10515   6.845  34.471   8.772
  566POPC   D2A10516   6.673  34.269   8.426
  566POPC   C3A10517   6.555  34.475   8.031
  566POPC   C4A10518   6.836  34.773   7.821
  566POPC   C1B10519   6.552  34.884   8.760
  566POPC   C2B10520   6.666  34.886   8.354
  566POPC   C3B10521   6.440  35.014   8.003
  566POPC   C4B10522   6.391  34.879   7.567
  567POPC   NC310523  31.237  13.729   9.449
  567POPC   PO410524  31.931  13.552   9.508
  567POPC   GL110525  31.669  13.679   9.136
  567POPC   GL210526  31.334  13.581   8.962
  567POPC   C1A10527  31.725  13.849   8.739
  567POPC   D2A10528  31.589  13.581   8.465
  567POPC   C3A10529  31.667  13.570   8.050
  567POPC   C4A10530  31.360  13.336   7.841
  567POPC   C1B10531  31.218  13.893   8.605
  567POPC   C2B10532  31.352  13.966   8.166
  567POPC   C3B10533  31.244  13.858   7.729
  567POPC   C4B10534  31.023  13.974   7.285
  568POPC   NC310535  14.340   9.324   9.550
  568POPC   PO410536  14.707   8.766   9.439
  568POPC   GL110537  14.394   8.901   9.130
  568POPC   GL210538  14.138   9.161   9.118
  568POPC   C1A10539  14.201   8.790   8.744
  568POPC   D2A10540  14.225   8.986   8.350
  568POPC   C3A10541  14.240   8.763   7.969
  568POPC   C4A10542  14.560   8.797   7.648
  568POPC   C1B10543  14.206   9.356   8.715
  568POPC   C2B10544  14.269   9.488   8.277
  568POPC   C3B10545  14.220   9.368   7.818
  568POPC   C4B10546  14.101   9.454   7.338
  569POPC   NC310547  21.901  40.971   9.401
  569POPC   PO410548  22.243  41.525   9.617
  569POPC   GL110549  22.104  41.515   9.202
  569POPC   GL210550  21.875  41.789   9.246
  569POPC   C1A10551  22.241  41.520   8.764
  569POPC   D2A10552  22.301  41.795   8.406
  569POPC   C3A10553  22.223  41.658   7.966
  569POPC   C4A10554  22.217  41.529   7.519
  569POPC   C1B10555  21.769  41.708   8.810
  569POPC   C2B10556  21.860  41.521   8.398
  569POPC   C3B10557  21.726  41.604   7.990
  569POPC   C4B10558  21.827  41.834   7.609
  570POPC   NC310559  11.781  15.720   9.384
  570POPC   PO410560  12.149  16.151   9.791
  570POPC   GL110561  12.098  16.184   9.300
  570POPC   GL210562  12.248  15.914   9.221
  570POPC   C1A10563  11.949  16.066   8.825
  570POPC   D2A10564  12.193  16.050   8.430
  570POPC   C3A10565  12.114  16.194   8.029
  570POPC   C4A10566  11.952  15.900   7.776
  570POPC   C1B10567  12.460  15.932   8.837
  570POPC   C2B10568  12.591  15.726   8.449
  570POPC   C3B10569  12.362  15.719   8.053
  570POPC   C4B10570  12.432  16.010   7.670
  571POPC   NC310571  15.850   8.643   9.387
  571POPC   PO410572  16.167   9.211   9.661
  571POPC   GL110573  16.005   9.215   9.230
  571POPC   GL210574  16.144   8.983   9.063
  571POPC   C1A10575  15.722   9.031   8.808
  571POPC   D2A10576  15.883   9.100   8.433
  571POPC   C3A10577  15.894   8.884   8.075
  571POPC   C4A10578  15.817   9.046   7.687
  571POPC   C1B10579  16.193   8.773   8.666
  571POPC   C2B10580  16.200   8.506   8.301
  571POPC   C3B10581  16.345   8.694   7.927
  571POPC   C4B10582  16.319   9.065   7.649
  572POPC   NC310583  10.536  16.694   9.837
  572POPC   PO410584  10.923  16.873   9.343
  572POPC   GL110585  10.536  16.849   9.201
  572POPC   GL210586  10.386  16.543   9.339
  572POPC   C1A10587  10.470  16.959   8.779
  572POPC   D2A10588  10.669  16.746   8.408
  572POPC   C3A10589  10.695  16.913   7.995
  572POPC   C4A10590  10.930  16.818   7.620
  572POPC   C1B10591  10.200  16.551   8.914
  572POPC   C2B10592  10.169  16.684   8.460
  572POPC   C3B10593  10.291  16.560   8.030
  572POPC   C4B10594  10.446  16.384   7.618
  573POPC   NC310595  12.407  29.272   9.506
  573POPC   PO410596  12.951  29.021   9.619
  573POPC   GL110597  12.859  29.173   9.212
  573POPC   GL210598  12.611  28.902   9.172
  573POPC   C1A10599  13.106  29.293   8.815
  573POPC   D2A10600  12.853  29.342   8.447
  573POPC   C3A10601  12.878  29.263   8.012
  573POPC   C4A10602  12.536  29.398   7.722
  573POPC   C1B10603  12.781  28.903   8.760
  573POPC   C2B10604  12.608  28.875   8.355
  573POPC   C3B10605  12.746  28.713   7.996
  573POPC   C4B10606  12.805  28.928   7.619
  574POPC   NC310607   4.784  19.200   9.287
  574POPC   PO410608   4.221  18.907   9.562
  574POPC   GL110609   4.256  19.208   9.243
  574POPC   GL210610   4.410  18.937   9.066
  574POPC   C1A10611   4.109  19.337   8.861
  574POPC   D2A10612   3.993  19.043   8.534
  574POPC   C3A10613   4.041  19.199   8.122
  574POPC   C4A10614   4.128  19.138   7.692
  574POPC   C1B10615   4.513  19.066   8.657
  574POPC   C2B10616   4.444  18.867   8.276
  574POPC   C3B10617   4.595  19.061   7.908
  574POPC   C4B10618   4.590  18.919   7.498
  575POPC   NC310619  31.672  31.159   9.565
  575POPC   PO410620  31.359  31.748   9.601
  575POPC   GL110621  31.448  31.626   9.231
  575POPC   GL210622  31.352  31.277   9.184
  575POPC   C1A10623  31.611  31.564   8.809
  575POPC   D2A10624  31.467  31.533   8.415
  575POPC   C3A10625  31.614  31.680   8.012
  575POPC   C4A10626  31.557  31.626   7.546
  575POPC   C1B10627  31.118  31.122   8.822
  575POPC   C2B10628  31.084  31.218   8.369
  575POPC   C3B10629  31.466  31.171   8.056
  575POPC   C4B10630  31.345  31.144   7.593
  576POPC   NC310631  12.745  18.456   9.298
  576POPC   PO410632  12.700  19.055   9.498
  576POPC   GL110633  12.889  19.095   9.111
  576POPC   GL210634  13.014  18.789   9.055
  576POPC   C1A10635  12.936  19.211   8.702
  576POPC   D2A10636  12.688  19.095   8.343
  576POPC   C3A10637  12.778  19.325   7.949
  576POPC   C4A10638  12.792  19.269   7.466
  576POPC   C1B10639  12.861  18.692   8.631
  576POPC   C2B10640  12.898  18.652   8.172
  576POPC   C3B10641  12.843  18.852   7.774
  576POPC   C4B10642  12.954  18.759   7.334
  577POPC   NC310643   6.257  15.164   9.397
  577POPC   PO410644   5.660  15.442   9.521
  577POPC   GL110645   5.863  15.317   9.156
  577POPC   GL210646   5.625  15.148   9.081
  577POPC   C1A10647   6.067  15.184   8.759
  577POPC   D2A10648   5.800  15.187   8.406
  577POPC   C3A10649   5.848  15.001   7.991
  577POPC   C4A10650   6.049  15.045   7.648
  577POPC   C1B10651   5.433  14.905   8.797
  577POPC   C2B10652   5.279  15.103   8.477
  577POPC   C3B10653   5.400  15.250   8.103
  577POPC   C4B10654   5.394  15.012   7.742
  578POPC   NC310655  16.053   7.165   9.240
  578POPC   PO410656  16.148   6.603   9.576
  578POPC   GL110657  15.979   6.476   9.209
  578POPC   GL210658  15.724   6.759   9.151
  578POPC   C1A10659  16.180   6.287   8.865
  578POPC   D2A10660  16.308   6.483   8.486
  578POPC   C3A10661  16.232   6.387   8.076
  578POPC   C4A10662  15.966   6.337   7.733
  578POPC   C1B10663  15.889   6.681   8.723
  578POPC   C2B10664  15.801   6.594   8.276
  578POPC   C3B10665  15.673   6.735   7.847
  578POPC   C4B10666  15.561   6.835   7.415
  579POPC   NC310667  13.881  19.353   9.510
  579POPC   PO410668  13.838  18.692   9.691
  579POPC   GL110669  13.724  18.901   9.280
  579POPC   GL210670  13.413  19.103   9.226
  579POPC   C1A10671  13.890  19.009   8.858
  579POPC   D2A10672  13.791  18.747   8.487
  579POPC   C3A10673  13.715  18.917   8.088
  579POPC   C4A10674  13.707  18.852   7.640
  579POPC   C1B10675  13.398  18.919   8.791
  579POPC   C2B10676  13.331  19.071   8.392
  579POPC   C3B10677  13.242  19.114   7.971
  579POPC   C4B10678  13.290  19.122   7.514
  580POPC   NC310679  33.067  40.351   9.289
  580POPC   PO410680  32.827  39.816   9.769
  580POPC   GL110681  32.818  39.861   9.302
  580POPC   GL210682  33.142  39.863   9.184
  580POPC   C1A10683  32.805  39.735   8.821
  580POPC   D2A10684  33.081  39.685   8.416
  580POPC   C3A10685  33.046  39.840   7.990
  580POPC   C4A10686  32.916  39.820   7.536
  580POPC   C1B10687  33.229  40.040   8.762
  580POPC   C2B10688  33.107  40.254   8.368
  580POPC   C3B10689  33.302  40.279   7.951
  580POPC   C4B10690  33.362  40.018   7.601
  581POPC   NC310691  19.588   3.860   9.543
  581POPC   PO410692  19.859   3.153   9.620
  581POPC   GL110693  19.802   3.393   9.223
  581POPC   GL210694  19.486   3.518   9.180
  581POPC   C1A10695  19.794   3.358   8.749
  581POPC   D2A10696  19.831   3.623   8.348
  581POPC   C3A10697  19.847   3.352   7.978
  581POPC   C4A10698  20.019   3.276   7.605
  581POPC   C1B10699  19.522   3.812   8.845
  581POPC   C2B10700  19.496   4.060   8.460
  581POPC   C3B10701  19.408   4.070   8.016
  581POPC   C4B10702  19.650   3.779   7.796
  582POPC   NC310703  37.734  38.569   9.947
  582POPC   PO410704  37.639  38.599   9.316
  582POPC   GL110705  37.679  38.665   8.950
  582POPC   GL210706  37.401  38.882   8.941
  582POPC   C1A10707  37.667  38.518   8.560
  582POPC   D2A10708  37.504  38.696   8.213
  582POPC   C3A10709  37.799  38.593   7.918
  582POPC   C4A10710  37.789  38.608   7.497
  582POPC   C1B10711  37.184  38.504   8.762
  582POPC   C2B10712  37.222  38.281   8.388
  582POPC   C3B10713  37.557  38.183   8.124
  582POPC   C4B10714  37.613  38.142   7.709
  583POPC   NC310715  17.488  31.219   9.328
  583POPC   PO410716  17.310  30.613   9.526
  583POPC   GL110717  17.279  30.774   9.148
  583POPC   GL210718  17.640  30.765   9.094
  583POPC   C1A10719  17.296  30.603   8.738
  583POPC   D2A10720  17.509  30.659   8.366
  583POPC   C3A10721  17.228  30.747   8.044
  583POPC   C4A10722  17.158  31.080   7.805
  583POPC   C1B10723  17.915  30.388   8.957
  583POPC   C2B10724  17.924  30.327   8.521
  583POPC   C3B10725  17.859  30.420   8.107
  583POPC   C4B10726  17.646  30.593   7.722
  584POPC   NC310727  28.403  23.116   9.372
  584POPC   PO410728  27.903  22.761   9.695
  584POPC   GL110729  28.172  22.672   9.277
  584POPC   GL210730  28.531  22.599   9.260
  584POPC   C1A10731  28.197  22.739   8.817
  584POPC   D2A10732  28.057  22.829   8.379
  584POPC   C3A10733  28.334  22.983   8.054
  584POPC   C4A10734  28.247  23.167   7.662
  584POPC   C1B10735  28.693  22.547   8.820
  584POPC   C2B10736  28.634  22.713   8.394
  584POPC   C3B10737  28.764  22.652   7.971
  584POPC   C4B10738  28.523  22.755   7.605
  585POPC   NC310739  39.581   6.567   9.410
  585POPC   PO410740  38.851   6.747   9.576
  585POPC   GL110741  39.126   6.765   9.242
  585POPC   GL210742  39.095   6.427   9.173
  585POPC   C1A10743  39.203   6.892   8.829
  585POPC   D2A10744  38.956   6.893   8.463
  585POPC   C3A10745  39.168   6.887   8.055
  585POPC   C4A10746  39.523   6.986   7.772
  585POPC   C1B10747  39.330   6.379   8.800
  585POPC   C2B10748  39.364   6.572   8.419
  585POPC   C3B10749  39.300   6.383   8.039
  585POPC   C4B10750  39.467   6.492   7.673
  586POPC   NC310751  12.978   2.297   9.415
  586POPC   PO410752  12.963   1.620   9.453
  586POPC   GL110753  12.968   1.884   9.128
  586POPC   GL210754  13.321   1.900   9.054
  586POPC   C1A10755  12.718   2.061   8.782
  586POPC   D2A10756  12.855   2.108   8.359
  586POPC   C3A10757  12.637   2.014   7.974
  586POPC   C4A10758  12.485   1.625   7.734
  586POPC   C1B10759  13.222   2.171   8.729
  586POPC   C2B10760  13.252   2.416   8.323
  586POPC   C3B10761  13.186   2.136   7.959
  586POPC   C4B10762  12.967   2.094   7.591
  587POPC   NC310763   6.429  35.516   9.613
  587POPC   PO410764   6.365  36.123   9.442
  587POPC   GL110765   6.705  36.090   9.147
  587POPC   GL210766   6.911  35.770   9.272
  587POPC   C1A10767   6.736  36.297   8.726
  587POPC   D2A10768   6.546  36.431   8.300
  587POPC   C3A10769   6.537  36.121   7.928
  587POPC   C4A10770   6.146  35.894   7.751
  587POPC   C1B10771   6.844  35.707   8.833
  587POPC   C2B10772   6.846  35.879   8.411
  587POPC   C3B10773   6.892  35.739   8.002
  587POPC   C4B10774   7.015  35.994   7.696
  588POPC   NC310775  21.231  12.515   9.583
  588POPC   PO410776  21.270  11.805   9.552
  588POPC   GL110777  21.263  11.933   9.172
  588POPC   GL210778  21.383  12.241   9.193
  588POPC   C1A10779  21.477  11.827   8.815
  588POPC   D2A10780  21.311  11.702   8.476
  588POPC   C3A10781  21.294  11.968   8.138
  588POPC   C4A10782  21.584  11.989   7.775
  588POPC   C1B10783  21.408  12.332   8.792
  588POPC   C2B10784  21.642  12.213   8.443
  588POPC   C3B10785  21.586  12.442   8.080
  588POPC   C4B10786  21.712  12.489   7.698
  589POPC   NC310787  11.944   3.435   9.624
  589POPC   PO410788  12.023   4.121   9.578
  589POPC   GL110789  11.899   3.824   9.247
  589POPC   GL210790  12.176   3.616   9.203
  589POPC   C1A10791  11.836   3.791   8.770
  589POPC   D2A10792  11.805   3.814   8.274
  589POPC   C3A10793  11.850   3.414   8.020
  589POPC   C4A10794  11.586   3.119   7.782
  589POPC   C1B10795  12.377   3.700   8.818
  589POPC   C2B10796  12.402   3.415   8.460
  589POPC   C3B10797  12.429   3.488   8.062
  589POPC   C4B10798  12.191   3.746   7.810
  590POPC   NC310799  41.810  15.296   9.507
  590POPC   PO410800  41.374  14.823   9.582
  590POPC   GL110801  41.473  15.019   9.159
  590POPC   GL210802  41.761  15.219   9.011
  590POPC   C1A10803  41.392  14.918   8.730
  590POPC   D2A10804  41.466  14.979   8.294
  590POPC   C3A10805  41.205  15.138   7.969
  590POPC   C4A10806  41.350  14.872   7.700
  590POPC   C1B10807  41.537  15.404   8.662
  590POPC   C2B10808  41.501  15.468   8.219
  590POPC   C3B10809  41.726  15.280   7.882
  590POPC   C4B10810  41.979  15.426   7.536
  591POPC   NC310811  26.917  15.386   9.504
  591POPC   PO410812  26.518  14.913   9.632
  591POPC   GL110813  26.684  14.981   9.210
  591POPC   GL210814  27.027  15.027   9.129
  591POPC   C1A10815  26.652  15.166   8.786
  591POPC   D2A10816  26.822  15.308   8.373
  591POPC   C3A10817  26.719  15.134   7.980
  591POPC   C4A10818  26.847  15.410   7.667
  591POPC   C1B10819  27.162  15.179   8.719
  591POPC   C2B10820  27.281  14.988   8.303
  591POPC   C3B10821  27.237  15.119   7.871
  591POPC   C4B10822  26.970  14.910   7.563
  592POPC   NC310823  35.135  17.043   9.464
  592POPC   PO410824  35.616  16.576   9.428
  592POPC   GL110825  35.319  16.722   9.127
  592POPC   GL210826  35.528  17.009   9.104
  592POPC   C1A10827  35.156  16.531   8.774
  592POPC   D2A10828  35.499  16.415   8.515
  592POPC   C3A10829  35.363  16.512   8.137
  592POPC   C4A10830  35.329  16.343   7.782
  592POPC   C1B10831  35.440  16.959   8.665
  592POPC   C2B10832  35.380  17.184   8.262
  592POPC   C3B10833  35.506  16.949   7.927
  592POPC   C4B10834  35.352  16.806   7.551
  593POPC   NC310835  42.657  26.318   9.442
  593POPC   PO410836  43.229  26.624   9.547
  593POPC   GL110837  43.076  26.759   9.198
  593POPC   GL210838  43.065  26.413   9.097
  593POPC   C1A10839  43.043  27.041   8.841
  593POPC   D2A10840  43.101  26.854   8.441
  593POPC   C3A10841  43.000  27.033   8.046
  593POPC   C4A10842  43.114  26.852   7.673
  593POPC   C1B10843  42.783  26.591   8.814
  593POPC   C2B10844  42.664  26.544   8.425
  593POPC   C3B10845  42.893  26.541   8.065
  593POPC   C4B10846  42.782  26.458   7.684
  594POPC   NC310847  16.450  42.810   9.530
  594POPC   PO410848  16.777  42.220   9.560
  594POPC   GL110849  16.757  42.229   9.125
  594POPC   GL210850  17.002  41.998   9.157
  594POPC   C1A10851  16.721  42.310   8.674
  594POPC   D2A10852  16.476  42.460   8.309
  594POPC   C3A10853  16.492  42.231   7.903
  594POPC   C4A10854  16.408  42.324   7.450
  594POPC   C1B10855  17.184  42.073   8.799
  594POPC   C2B10856  17.169  42.248   8.390
  594POPC   C3B10857  17.009  42.149   7.982
  594POPC   C4B10858  16.896  42.299   7.572
  595POPC   NC310859  12.969  20.379   9.347
  595POPC   PO410860  13.287  21.018   9.485
  595POPC   GL110861  13.090  20.994   9.076
  595POPC   GL210862  12.770  20.822   9.045
  595POPC   C1A10863  13.065  20.959   8.623
  595POPC   D2A10864  13.192  20.563   8.415
  595POPC   C3A10865  13.122  20.428   8.022
  595POPC   C4A10866  13.070  20.545   7.612
  595POPC   C1B10867  12.789  20.528   8.710
  595POPC   C2B10868  12.699  20.736   8.332
  595POPC   C3B10869  12.654  20.618   7.939
  595POPC   C4B10870  12.693  20.226   7.783
  596POPC   NC310871  15.581   0.460   9.612
  596POPC   PO410872  16.085   0.046   9.559
  596POPC   GL110873  15.825   0.174   9.199
  596POPC   GL210874  15.753   0.548   9.141
  596POPC   C1A10875  15.969   0.166   8.762
  596POPC   D2A10876  15.820   0.301   8.344
  596POPC   C3A10877  15.952   0.175   7.912
  596POPC   C4A10878  15.766   0.359   7.542
  596POPC   C1B10879  16.061   0.669   8.825
  596POPC   C2B10880  15.986   0.794   8.405
  596POPC   C3B10881  15.937   0.691   7.956
  596POPC   C4B10882  16.243   0.531   7.673
  597POPC   NC310883   2.234  33.300   9.663
  597POPC   PO410884   1.846  33.855   9.527
  597POPC   GL110885   1.818  33.816   9.099
  597POPC   GL210886   2.184  33.668   9.153
  597POPC   C1A10887   1.702  33.997   8.675
  597POPC   D2A10888   1.985  34.243   8.427
  597POPC   C3A10889   2.019  34.152   8.008
  597POPC   C4A10890   1.708  33.993   7.762
  597POPC   C1B10891   2.188  33.840   8.716
  597POPC   C2B10892   2.069  33.720   8.275
  597POPC   C3B10893   2.084  33.638   7.786
  597POPC   C4B10894   2.123  33.314   7.425
  598POPC   NC310895   5.974  35.970   9.630
  598POPC   PO410896   5.535  35.579   9.320
  598POPC   GL110897   5.810  35.874   9.074
  598POPC   GL210898   5.955  36.151   9.136
  598POPC   C1A10899   5.636  36.119   8.736
  598POPC   D2A10900   5.487  35.847   8.424
  598POPC   C3A10901   5.745  35.974   8.114
  598POPC   C4A10902   5.552  35.955   7.778
  598POPC   C1B10903   6.151  36.321   8.774
  598POPC   C2B10904   6.014  36.373   8.367
  598POPC   C3B10905   6.090  36.360   7.959
  598POPC   C4B10906   5.797  36.373   7.643
  599POPC   NC310907   0.522  37.868   9.585
  599POPC   PO410908   0.272  37.253   9.641
  599POPC   GL110909   0.230  37.549   9.291
  599POPC   GL210910   0.558  37.555   9.166
  599POPC   C1A10911   0.236  37.814   8.879
  599POPC   D2A10912   0.023  37.853   8.460
  599POPC   C3A10913   0.283  37.728   8.103
  599POPC   C4A10914   0.412  37.950   7.757
  599POPC   C1B10915   0.795  37.705   8.851
  599POPC   C2B10916   0.653  37.663   8.456
  599POPC   C3B10917   0.802  37.713   8.032
  599POPC   C4B10918   0.643  37.394   7.822
  600POPC   NC310919  38.203  37.786   9.772
  600POPC   PO410920  38.803  37.561   9.686
  600POPC   GL110921  38.449  37.524   9.383
  600POPC   GL210922  38.418  37.852   9.305
  600POPC   C1A10923  38.389  37.375   8.956
  600POPC   D2A10924  38.487  37.505   8.533
  600POPC   C3A10925  38.415  37.307   8.142
  600POPC   C4A10926  38.317  37.574   7.811
  600POPC   C1B10927  38.347  37.898   8.872
  600POPC   C2B10928  38.532  38.020   8.507
  600POPC   C3B10929  38.513  37.939   8.100
  600POPC   C4B10930  38.620  38.175   7.746
  601POPC   NC310931  32.349  34.208   9.598
  601POPC   PO410932  32.393  34.741   9.484
  601POPC   GL110933  32.148  34.517   9.165
  601POPC   GL210934  32.200  34.151   9.112
  601POPC   C1A10935  32.085  34.652   8.753
  601POPC   D2A10936  31.956  34.845   8.382
  601POPC   C3A10937  32.275  34.848   8.096
  601POPC   C4A10938  32.137  34.962   7.719
  601POPC   C1B10939  31.951  34.150   8.745
  601POPC   C2B10940  32.080  34.310   8.332
  601POPC   C3B10941  32.140  34.409   7.882
  601POPC   C4B10942  32.436  34.269   7.575
  602POPC   NC310943  42.768   6.204   9.300
  602POPC   PO410944  43.303   6.572   9.466
  602POPC   GL110945  43.077   6.637   9.134
  602POPC   GL210946  42.863   6.922   9.158
  602POPC   C1A10947  43.229   6.589   8.708
  602POPC   D2A10948  43.375   6.476   8.305
  602POPC   C3A10949  43.352   6.736   7.897
  602POPC   C4A10950  43.350   6.918   7.433
  602POPC   C1B10951  42.735   6.707   8.785
  602POPC   C2B10952  42.732   6.449   8.421
  602POPC   C3B10953  42.929   6.451   8.021
  602POPC   C4B10954  42.626   6.393   7.702
  603POPC   NC310955  13.795  15.088   9.495
  603POPC   PO410956  13.380  15.656   9.649
  603POPC   GL110957  13.509  15.442   9.255
  603POPC   GL210958  13.374  15.158   9.172
  603POPC   C1A10959  13.650  15.438   8.821
  603POPC   D2A10960  13.462  15.487   8.424
  603POPC   C3A10961  13.672  15.444   8.045
  603POPC   C4A10962  13.600  15.634   7.669
  603POPC   C1B10963  13.538  14.944   8.834
  603POPC   C2B10964  13.345  14.971   8.439
  603POPC   C3B10965  13.450  14.879   8.014
  603POPC   C4B10966  13.394  14.504   7.797
  604POPC   NC310967   2.950  19.365   9.480
  604POPC   PO410968   2.533  18.754   9.500
  604POPC   GL110969   2.747  18.730   9.115
  604POPC   GL210970   2.805  19.069   9.099
  604POPC   C1A10971   2.784  18.796   8.669
  604POPC   D2A10972   2.993  18.912   8.325
  604POPC   C3A10973   2.732  18.916   8.002
  604POPC   C4A10974   2.929  18.895   7.652
  604POPC   C1B10975   2.562  19.293   8.816
  604POPC   C2B10976   2.479  19.122   8.419
  604POPC   C3B10977   2.403  19.312   8.046
  604POPC   C4B10978   2.628  19.333   7.662
  605POPC   NC310979   8.917  18.481   9.689
  605POPC   PO410980   9.233  17.908   9.358
  605POPC   GL110981   8.837  17.926   9.128
  605POPC   GL210982   8.711  18.291   9.067
  605POPC   C1A10983   8.840  17.966   8.683
  605POPC   D2A10984   9.008  18.322   8.437
  605POPC   C3A10985   9.178  18.232   8.050
  605POPC   C4A10986   9.058  17.978   7.719
  605POPC   C1B10987   8.811  18.654   8.788
  605POPC   C2B10988   8.844  18.823   8.370
  605POPC   C3B10989   8.746  18.542   8.033
  605POPC   C4B10990   8.620  18.158   7.833
  606POPC   NC310991  24.662   0.560   9.558
  606POPC   PO410992  24.209   0.123   9.363
  606POPC   GL110993  24.470   0.398   9.133
  606POPC   GL210994  24.208   0.640   9.223
  606POPC   C1A10995  24.777   0.500   8.800
  606POPC   D2A10996  24.649   0.633   8.397
  606POPC   C3A10997  24.863   0.665   8.001
  606POPC   C4A10998  24.592   0.414   7.739
  606POPC   C1B10999  24.302   0.733   8.796
  606POPC   C2B11000  24.283   0.962   8.413
  606POPC   C3B11001  24.389   0.865   7.978
  606POPC   C4B11002  24.139   0.638   7.677
  607POPC   NC311003  10.858  37.079   9.252
  607POPC   PO411004  11.308  36.976   9.734
  607POPC   GL111005  11.345  37.029   9.262
  607POPC   GL211006  11.311  37.356   9.175
  607POPC   C1A11007  11.328  36.853   8.812
  607POPC   D2A11008  11.390  37.031   8.396
  607POPC   C3A11009  11.295  36.836   8.021
  607POPC   C4A11010  11.562  36.787   7.723
  607POPC   C1B11011  11.134  37.329   8.735
  607POPC   C2B11012  11.135  37.505   8.321
  607POPC   C3B11013  11.162  37.357   7.895
  607POPC   C4B11014  11.199  37.074   7.535
  608POPC   NC311015  30.169  19.961   9.565
  608POPC   PO411016  29.675  19.663   9.206
  608POPC   GL111017  29.990  19.967   9.055
  608POPC   GL211018  29.792  20.156   8.835
  608POPC   C1A11019  30.229  20.014   8.653
  608POPC   D2A11020  30.018  19.874   8.285
  608POPC   C3A11021  30.084  20.073   7.901
  608POPC   C4A11022  29.925  19.873   7.537
  608POPC   C1B11023  29.592  19.842   8.595
  608POPC   C2B11024  29.410  19.821   8.226
  608POPC   C3B11025  29.595  19.971   7.917
  608POPC   C4B11026  29.657  20.325   7.675
  609POPC   NC311027  43.235  21.977   9.514
  609POPC   PO411028  42.977  22.591   9.469
  609POPC   GL111029  43.041  22.310   9.115
  609POPC   GL211030  42.989  21.934   9.064
  609POPC   C1A11031  43.342  22.262   8.798
  609POPC   D2A11032  43.381  22.074   8.416
  609POPC   C3A11033  43.342  22.305   8.063
  609POPC   C4A11034  43.334  22.135   7.656
  609POPC   C1B11035  42.927  21.896   8.612
  609POPC   C2B11036  42.886  22.222   8.289
  609POPC   C3B11037  42.859  22.191   7.841
  609POPC   C4B11038  42.917  22.434   7.459
  610POPC   NC311039  39.206  37.391   9.836
  610POPC   PO411040  39.720  37.807   9.695
  610POPC   GL111041  39.472  37.635   9.301
  610POPC   GL211042  39.089  37.635   9.265
  610POPC   C1A11043  39.340  37.519   8.847
  610POPC   D2A11044  39.549  37.485   8.455
  610POPC   C3A11045  39.313  37.463   8.116
  610POPC   C4A11046  39.336  37.724   7.804
  610POPC   C1B11047  38.874  37.774   8.850
  610POPC   C2B11048  38.934  37.733   8.377
  610POPC   C3B11049  38.843  37.587   7.931
  610POPC   C4B11050  38.692  37.445   7.524
  611POPC   NC311051  40.193  33.436   9.723
  611POPC   PO411052  39.779  33.908   9.495
  611POPC   GL111053  39.926  33.638   9.142
  611POPC   GL211054  40.279  33.522   9.215
  611POPC   C1A11055  40.028  33.618   8.686
  611POPC   D2A11056  39.968  33.284   8.376
  611POPC   C3A11057  39.867  33.421   7.967
  611POPC   C4A11058  39.780  33.818   7.789
  611POPC   C1B11059  40.478  33.774   8.901
  611POPC   C2B11060  40.418  33.913   8.490
  611POPC   C3B11061  40.525  33.878   8.069
  611POPC   C4B11062  40.268  33.746   7.768
  612POPC   NC311063  35.666  15.371   9.488
  612POPC   PO411064  35.137  14.952   9.441
  612POPC   GL111065  35.321  15.209   9.136
  612POPC   GL211066  35.658  15.096   9.050
  612POPC   C1A11067  35.300  15.290   8.711
  612POPC   D2A11068  35.405  15.086   8.326
  612POPC   C3A11069  35.377  15.348   7.988
  612POPC   C4A11070  34.941  15.329   7.939
  612POPC   C1B11071  35.666  14.803   8.674
  612POPC   C2B11072  35.788  14.768   8.214
  612POPC   C3B11073  35.653  14.908   7.764
  612POPC   C4B11074  35.686  14.934   7.267
  613POPC   NC311075  39.121  17.960   9.681
  613POPC   PO411076  39.599  18.373   9.443
  613POPC   GL111077  39.284  18.428   9.113
  613POPC   GL211078  39.082  18.146   9.216
  613POPC   C1A11079  39.213  18.542   8.654
  613POPC   D2A11080  39.471  18.404   8.293
  613POPC   C3A11081  39.345  18.414   7.847
  613POPC   C4A11082  39.385  18.589   7.425
  613POPC   C1B11083  38.926  18.157   8.822
  613POPC   C2B11084  39.144  18.028   8.482
  613POPC   C3B11085  38.971  17.782   8.192
  613POPC   C4B11086  38.839  17.989   7.847
  614POPC   NC311087   0.044  18.369   9.483
  614POPC   PO411088  44.385  18.071   9.576
  614POPC   GL111089  44.564  18.269   9.202
  614POPC   GL211090  44.899  18.149   9.040
  614POPC   C1A11091  44.469  18.168   8.773
  614POPC   D2A11092  44.751  18.246   8.444
  614POPC   C3A11093  44.733  18.025   8.047
  614POPC   C4A11094  44.582  18.102   7.633
  614POPC   C1B11095  44.930  18.580   8.839
  614POPC   C2B11096  44.777  18.770   8.442
  614POPC   C3B11097  44.718  18.570   8.043
  614POPC   C4B11098  44.861  18.572   7.616
  615POPC   NC311099  42.912  44.373   9.514
  615POPC   PO411100  43.573  44.514   9.552
  615POPC   GL111101  43.308  44.614   9.208
  615POPC   GL211102  43.295  44.252   9.181
  615POPC   C1A11103  43.119  44.891   8.828
  615POPC   D2A11104  43.006   0.062   8.385
  615POPC   C3A11105  43.153  44.908   7.967
  615POPC   C4A11106  42.885  44.764   7.588
  615POPC   C1B11107  42.975  44.402   8.865
  615POPC   C2B11108  42.909  44.527   8.433
  615POPC   C3B11109  42.929  44.430   7.981
  615POPC   C4B11110  42.857  44.268   7.533
  616POPC   NC311111  44.555  35.498   9.522
  616POPC   PO411112  44.438  34.942   9.753
  616POPC   GL111113  44.384  35.131   9.226
  616POPC   GL211114  44.734  35.287   9.076
  616POPC   C1A11115  44.348  35.490   8.841
  616POPC   D2A11116  44.650  35.504   8.448
  616POPC   C3A11117  44.438  35.553   8.034
  616POPC   C4A11118  44.475  35.667   7.618
  616POPC   C1B11119   0.011  35.054   8.756
  616POPC   C2B11120  44.911  35.049   8.340
  616POPC   C3B11121  44.915  35.336   8.020
  616POPC   C4B11122  44.777  35.196   7.648
  617POPC   NC311123  40.466  39.826   9.505
  617POPC   PO411124  40.995  40.243   9.340
  617POPC   GL111125  40.616  40.120   9.048
  617POPC   GL211126  40.681  39.792   9.035
  617POPC   C1A11127  40.405  39.937   8.641
  617POPC   D2A11128  40.543  39.959   8.190
  617POPC   C3A11129  40.262  40.115   7.842
  617POPC   C4A11130  40.341  40.327   7.439
  617POPC   C1B11131  40.912  39.940   8.648
  617POPC   C2B11132  41.129  39.752   8.294
  617POPC   C3B11133  40.934  39.756   7.911
  617POPC   C4B11134  40.764  40.154   7.749
  618POPC   NC311135  21.048  15.973   9.621
  618POPC   PO411136  20.343  15.915   9.522
  618POPC   GL111137  20.390  15.980   9.098
  618POPC   GL211138  20.716  16.099   9.187
  618POPC   C1A11139  20.474  15.765   8.685
  618POPC   D2A11140  20.779  15.824   8.347
  618POPC   C3A11141  20.602  15.829   7.968
  618POPC   C4A11142  20.589  15.705   7.588
  618POPC   C1B11143  20.858  16.079   8.792
  618POPC   C2B11144  20.958  16.323   8.447
  618POPC   C3B11145  21.023  16.404   8.008
  618POPC   C4B11146  21.017  16.036   7.754
  619POPC   NC311147  29.725   9.861   9.572
  619POPC   PO411148  30.067   9.273   9.387
  619POPC   GL111149  29.816   9.543   9.166
  619POPC   GL211150  29.960   9.866   9.136
  619POPC   C1A11151  29.827   9.589   8.740
  619POPC   D2A11152  30.024   9.755   8.398
  619POPC   C3A11153  29.788   9.554   8.092
  619POPC   C4A11154  29.959   9.487   7.691
  619POPC   C1B11155  29.874  10.097   8.760
  619POPC   C2B11156  29.635  10.106   8.366
  619POPC   C3B11157  29.775  10.048   7.945
  619POPC   C4B11158  29.932  10.200   7.565
  620POPC   NC311159  10.019  35.604   9.467
  620POPC   PO411160   9.382  35.774   9.441
  620POPC   GL111161   9.570  35.583   9.079
  620POPC   GL211162   9.699  35.268   9.153
  620POPC   C1A11163   9.717  35.464   8.668
  620POPC   D2A11164   9.857  35.160   8.375
  620POPC   C3A11165   9.825  35.157   7.943
  620POPC   C4A11166   9.560  35.471   7.765
  620POPC   C1B11167   9.563  35.001   8.804
  620POPC   C2B11168   9.292  35.200   8.516
  620POPC   C3B11169   9.336  35.149   8.106
  620POPC   C4B11170   9.407  34.934   7.728
  621POPC   NC311171  24.690  28.938   9.382
  621POPC   PO411172  25.358  28.970   9.416
  621POPC   GL111173  25.371  29.134   9.067
  621POPC   GL211174  25.038  29.301   9.112
  621POPC   C1A11175  25.463  29.018   8.642
  621POPC   D2A11176  25.519  28.897   8.237
  621POPC   C3A11177  25.433  29.257   8.023
  621POPC   C4A11178  25.090  29.334   7.720
  621POPC   C1B11179  24.989  28.936   8.803
  621POPC   C2B11180  24.905  28.924   8.380
  621POPC   C3B11181  25.070  28.892   7.957
  621POPC   C4B11182  25.053  28.795   7.476
  622POPC   NC311183  18.343   9.145   9.467
  622POPC   PO411184  18.599   8.534   9.562
  622POPC   GL111185  18.302   8.697   9.240
  622POPC   GL211186  18.597   8.819   9.098
  622POPC   C1A11187  18.187   9.017   8.852
  622POPC   D2A11188  18.214   9.228   8.448
  622POPC   C3A11189  17.978   9.156   8.086
  622POPC   C4A11190  18.052   9.029   7.674
  622POPC   C1B11191  18.702   9.074   8.759
  622POPC   C2B11192  18.776   9.127   8.318
  622POPC   C3B11193  18.526   9.139   7.936
  622POPC   C4B11194  18.541   9.048   7.500
  623POPC   NC311195  42.560  38.544   9.517
  623POPC   PO411196  41.984  38.665   9.823
  623POPC   GL111197  42.075  38.378   9.367
  623POPC   GL211198  42.336  38.158   9.265
  623POPC   C1A11199  42.149  38.444   8.883
  623POPC   D2A11200  42.293  38.734   8.528
  623POPC   C3A11201  42.340  38.578   8.096
  623POPC   C4A11202  42.292  38.505   7.667
  623POPC   C1B11203  42.631  38.314   8.900
  623POPC   C2B11204  42.844  38.412   8.516
  623POPC   C3B11205  42.799  38.380   8.067
  623POPC   C4B11206  42.725  38.215   7.633
  624POPC   NC311207  25.298   8.880   9.694
  624POPC   PO411208  25.061   9.371   9.428
  624POPC   GL111209  25.437   9.122   9.251
  624POPC   GL211210  25.345   8.780   9.201
  624POPC   C1A11211  25.612   8.966   8.823
  624POPC   D2A11212  25.379   9.168   8.503
  624POPC   C3A11213  25.366   9.159   8.058
  624POPC   C4A11214  25.052   9.419   7.839
  624POPC   C1B11215  25.060   8.914   8.878
  624POPC   C2B11216  25.002   8.709   8.475
  624POPC   C3B11217  25.341   8.623   8.179
  624POPC   C4B11218  25.489   8.692   7.765
  625POPC   NC311219   7.499  12.191   9.596
  625POPC   PO411220   7.068  11.636   9.476
  625POPC   GL111221   7.249  11.943   9.173
  625POPC   GL211222   7.609  12.041   9.132
  625POPC   C1A11223   7.218  12.216   8.843
  625POPC   D2A11224   7.349  12.071   8.475
  625POPC   C3A11225   7.342  12.118   8.070
  625POPC   C4A11226   7.366  12.372   7.745
  625POPC   C1B11227   7.793  11.953   8.741
  625POPC   C2B11228   7.821  12.178   8.340
  625POPC   C3B11229   7.865  12.336   7.923
  625POPC   C4B11230   7.773  12.251   7.464
  626POPC   NC311231  38.860   6.193   9.584
  626POPC   PO411232  39.446   6.122   9.395
  626POPC   GL111233  39.079   5.912   9.213
  626POPC   GL211234  39.049   5.566   9.105
  626POPC   C1A11235  38.967   6.001   8.814
  626POPC   D2A11236  39.211   6.031   8.415
  626POPC   C3A11237  39.036   5.944   7.993
  626POPC   C4A11238  39.155   6.115   7.602
  626POPC   C1B11239  39.407   5.696   8.807
  626POPC   C2B11240  39.548   5.649   8.353
  626POPC   C3B11241  39.477   5.616   7.885
  626POPC   C4B11242  39.304   5.640   7.437
  627POPC   NC311243  40.248   1.421   9.503
  627POPC   PO411244  40.379   0.765   9.495
  627POPC   GL111245  40.089   1.048   9.175
  627POPC   GL211246  39.991   1.452   9.074
  627POPC   C1A11247  39.924   1.046   8.763
  627POPC   D2A11248  40.167   1.064   8.400
  627POPC   C3A11249  40.055   0.928   7.985
  627POPC   C4A11250  40.038   0.751   7.578
  627POPC   C1B11251  39.691   1.498   8.761
  627POPC   C2B11252  39.694   1.287   8.330
  627POPC   C3B11253  39.863   1.406   7.978
  627POPC   C4B11254  39.750   1.640   7.641
  628POPC   NC311255  26.142  28.812   9.607
  628POPC   PO411256  25.874  29.507   9.607
  628POPC   GL111257  25.865  29.212   9.281
  628POPC   GL211258  26.215  29.176   9.135
  628POPC   C1A11259  25.809  29.307   8.860
  628POPC   D2A11260  25.794  29.358   8.403
  628POPC   C3A11261  26.235  29.395   8.198
  628POPC   C4A11262  26.361  29.374   7.768
  628POPC   C1B11263  26.245  29.165   8.649
  628POPC   C2B11264  26.042  28.934   8.280
  628POPC   C3B11265  25.958  29.046   7.838
  628POPC   C4B11266  25.900  28.807   7.428
  629POPC   NC311267  38.732   2.221   9.468
  629POPC   PO411268  39.203   1.773   9.467
  629POPC   GL111269  39.031   1.765   9.083
  629POPC   GL211270  39.263   2.035   9.023
  629POPC   C1A11271  39.211   1.661   8.677
  629POPC   D2A11272  39.555   1.795   8.370
  629POPC   C3A11273  39.426   1.884   7.963
  629POPC   C4A11274  39.030   1.806   7.774
  629POPC   C1B11275  39.305   2.199   8.619
  629POPC   C2B11276  39.551   2.309   8.261
  629POPC   C3B11277  39.461   2.401   7.837
  629POPC   C4B11278  39.118   2.367   7.533
  630POPC   NC311279  18.898  29.377   9.451
  630POPC   PO411280  19.446  28.956   9.475
  630POPC   GL111281  19.266  29.238   9.154
  630POPC   GL211282  19.047  28.964   9.099
  630POPC   C1A11283  19.282  29.336   8.724
  630POPC   D2A11284  19.229  29.066   8.364
  630POPC   C3A11285  19.112  29.290   7.990
  630POPC   C4A11286  19.221  29.043   7.666
  630POPC   C1B11287  18.807  29.154   8.797
  630POPC   C2B11288  18.783  29.286   8.391
  630POPC   C3B11289  18.661  29.618   8.144
  630POPC   C4B11290  18.834  29.747   7.758
  631POPC   NC311291  41.783   4.900   9.487
  631POPC   PO411292  41.465   5.437   9.538
  631POPC   GL111293  41.318   5.151   9.197
  631POPC   GL211294  41.617   5.065   9.039
  631POPC   C1A11295  41.189   5.013   8.762
  631POPC   D2A11296  41.473   4.910   8.435
  631POPC   C3A11297  41.314   5.106   8.074
  631POPC   C4A11298  41.459   5.076   7.666
  631POPC   C1B11299  41.851   4.775   8.809
  631POPC   C2B11300  41.987   4.838   8.409
  631POPC   C3B11301  41.842   4.954   8.018
  631POPC   C4B11302  41.943   4.802   7.647
  632POPC   NC311303   3.803  40.120   9.290
  632POPC   PO411304   3.263  39.675   9.482
  632POPC   GL111305   3.428  39.836   9.095
  632POPC   GL211306   3.453  40.205   8.933
  632POPC   C1A11307   3.492  39.777   8.675
  632POPC   D2A11308   3.816  39.861   8.389
  632POPC   C3A11309   3.620  39.994   8.013
  632POPC   C4A11310   3.739  40.099   7.584
  632POPC   C1B11311   3.761  40.321   8.654
  632POPC   C2B11312   3.784  40.581   8.305
  632POPC   C3B11313   3.585  40.499   7.925
  632POPC   C4B11314   3.135  40.467   7.909
  633POPC   NC311315  14.108  15.552   9.869
  633POPC   PO411316  14.368  16.067   9.549
  633POPC   GL111317  14.266  16.034   9.162
  633POPC   GL211318  14.609  16.015   9.074
  633POPC   C1A11319  14.246  15.835   8.763
  633POPC   D2A11320  14.472  16.016   8.441
  633POPC   C3A11321  14.383  15.831   8.073
  633POPC   C4A11322  14.558  15.823   7.708
  633POPC   C1B11323  14.795  16.327   8.791
  633POPC   C2B11324  14.649  16.507   8.407
  633POPC   C3B11325  14.601  16.316   8.010
  633POPC   C4B11326  14.957  16.127   7.809
  634POPC   NC311327   8.328  21.835   9.759
  634POPC   PO411328   7.739  21.514   9.584
  634POPC   GL111329   7.946  21.390   9.198
  634POPC   GL211330   7.966  21.692   9.072
  634POPC   C1A11331   8.213  21.179   8.900
  634POPC   D2A11332   8.396  21.319   8.514
  634POPC   C3A11333   8.325  21.055   8.154
  634POPC   C4A11334   8.139  21.153   7.769
  634POPC   C1B11335   7.888  21.493   8.676
  634POPC   C2B11336   8.035  21.610   8.292
  634POPC   C3B11337   7.955  21.619   7.873
  634POPC   C4B11338   7.904  21.698   7.431
  635POPC   NC311339   7.833  31.842   9.552
  635POPC   PO411340   8.424  32.146   9.537
  635POPC   GL111341   8.144  32.110   9.183
  635POPC   GL211342   8.035  31.763   9.082
  635POPC   C1A11343   8.354  32.069   8.786
  635POPC   D2A11344   8.211  31.947   8.394
  635POPC   C3A11345   8.413  32.126   8.020
  635POPC   C4A11346   8.346  32.146   7.569
  635POPC   C1B11347   7.837  32.040   8.774
  635POPC   C2B11348   7.680  32.133   8.399
  635POPC   C3B11349   7.883  32.045   8.034
  635POPC   C4B11350   7.912  32.332   7.760
  636POPC   NC311351  16.926   2.480   9.628
  636POPC   PO411352  16.632   3.037   9.483
  636POPC   GL111353  16.845   2.789   9.204
  636POPC   GL211354  16.533   2.661   9.087
  636POPC   C1A11355  16.922   2.878   8.767
  636POPC   D2A11356  16.693   2.916   8.365
  636POPC   C3A11357  16.876   3.012   7.967
  636POPC   C4A11358  17.095   2.700   7.739
  636POPC   C1B11359  16.512   2.522   8.659
  636POPC   C2B11360  16.246   2.690   8.323
  636POPC   C3B11361  16.326   2.822   7.943
  636POPC   C4B11362  16.594   2.715   7.631
  637POPC   NC311363  26.641   1.996   9.276
  637POPC   PO411364  27.265   2.159   9.539
  637POPC   GL111365  27.125   1.852   9.179
  637POPC   GL211366  26.789   1.581   9.100
  637POPC   C1A11367  27.033   2.071   8.751
  637POPC   D2A11368  27.125   2.026   8.307
  637POPC   C3A11369  26.834   2.212   8.006
  637POPC   C4A11370  26.979   2.038   7.619
  637POPC   C1B11371  26.571   1.704   8.733
  637POPC   C2B11372  26.627   1.922   8.397
  637POPC   C3B11373  26.643   1.755   8.013
  637POPC   C4B11374  26.482   2.008   7.674
  638POPC   NC311375  16.413  39.051   9.420
  638POPC   PO411376  16.931  39.434   9.553
  638POPC   GL111377  16.841  39.208   9.170
  638POPC   GL211378  16.553  39.335   9.040
  638POPC   C1A11379  16.785  38.957   8.769
  638POPC   D2A11380  16.975  39.091   8.362
  638POPC   C3A11381  16.874  39.306   7.979
  638POPC   C4A11382  16.482  39.132   7.817
  638POPC   C1B11383  16.820  39.473   8.709
  638POPC   C2B11384  16.586  39.492   8.343
  638POPC   C3B11385  16.438  39.619   7.947
  638POPC   C4B11386  16.328  39.516   7.511
  639POPC   NC311387  12.738   0.553   9.601
  639POPC   PO411388  13.510   0.436   9.681
  639POPC   GL111389  13.372   0.464   9.229
  639POPC   GL211390  13.083   0.619   9.255
  639POPC   C1A11391  13.499   0.343   8.806
  639POPC   D2A11392  13.684   0.563   8.451
  639POPC   C3A11393  13.595   0.452   8.065
  639POPC   C4A11394  13.676   0.576   7.635
  639POPC   C1B11395  13.032   0.737   8.890
  639POPC   C2B11396  13.162   0.604   8.518
  639POPC   C3B11397  13.174   0.718   8.137
  639POPC   C4B11398  13.211   0.935   7.786
  640POPC   NC311399  34.271   5.786   9.537
  640POPC   PO411400  34.942   5.483   9.465
  640POPC   GL111401  34.858   5.821   9.154
  640POPC   GL211402  34.548   5.769   9.127
  640POPC   C1A11403  34.744   6.023   8.733
  640POPC   D2A11404  34.561   6.106   8.328
  640POPC   C3A11405  34.735   6.133   7.933
  640POPC   C4A11406  34.658   5.954   7.495
  640POPC   C1B11407  34.450   5.606   8.753
  640POPC   C2B11408  34.263   5.711   8.390
  640POPC   C3B11409  34.424   5.731   7.970
  640POPC   C4B11410  34.231   5.669   7.566
  641POPC   NC311411  27.966  32.451   9.531
  641POPC   PO411412  27.387  31.995   9.612
  641POPC   GL111413  27.580  32.191   9.175
  641POPC   GL211414  27.795  32.477   9.072
  641POPC   C1A11415  27.755  32.109   8.721
  641POPC   D2A11416  27.712  31.975   8.281
  641POPC   C3A11417  27.474  32.045   7.939
  641POPC   C4A11418  27.750  32.110   7.589
  641POPC   C1B11419  27.466  32.523   8.792
  641POPC   C2B11420  27.600  32.537   8.375
  641POPC   C3B11421  27.742  32.480   7.960
  641POPC   C4B11422  27.557  32.586   7.560
  642POPC   NC311423  37.702   5.381   9.437
  642POPC   PO411424  38.034   4.889   9.779
  642POPC   GL111425  37.634   4.909   9.312
  642POPC   GL211426  37.796   5.140   9.007
  642POPC   C1A11427  37.460   4.832   8.847
  642POPC   D2A11428  37.708   4.961   8.442
  642POPC   C3A11429  37.489   5.116   8.053
  642POPC   C4A11430  37.328   4.862   7.729
  642POPC   C1B11431  37.871   5.491   8.746
  642POPC   C2B11432  37.820   5.471   8.319
  642POPC   C3B11433  37.989   5.259   7.988
  642POPC   C4B11434  38.153   5.345   7.562
  643POPC   NC311435  33.560   5.107   9.469
  643POPC   PO411436  34.041   4.605   9.501
  643POPC   GL111437  33.926   4.911   9.129
  643POPC   GL211438  33.676   5.222   9.008
  643POPC   C1A11439  33.890   4.885   8.685
  643POPC   D2A11440  34.087   4.901   8.315
  643POPC   C3A11441  33.814   5.030   7.978
  643POPC   C4A11442  33.876   4.910   7.539
  643POPC   C1B11443  33.921   5.422   8.728
  643POPC   C2B11444  33.889   5.375   8.343
  643POPC   C3B11445  33.919   5.602   8.006
  643POPC   C4B11446  33.818   5.402   7.645
  644POPC   NC311447  11.889   2.222   9.611
  644POPC   PO411448  12.106   1.573   9.608
  644POPC   GL111449  12.130   1.746   9.207
  644POPC   GL211450  11.908   2.011   9.165
  644POPC   C1A11451  12.219   1.906   8.778
  644POPC   D2A11452  12.350   2.054   8.402
  644POPC   C3A11453  12.164   1.845   8.072
  644POPC   C4A11454  12.204   2.052   7.681
  644POPC   C1B11455  11.805   2.203   8.794
  644POPC   C2B11456  11.833   2.077   8.400
  644POPC   C3B11457  11.844   2.257   8.003
  644POPC   C4B11458  11.685   2.206   7.636
  645POPC   NC311459   1.359  37.880   9.473
  645POPC   PO411460   0.820  37.515   9.593
  645POPC   GL111461   1.110  37.521   9.214
  645POPC   GL211462   1.329  37.256   9.128
  645POPC   C1A11463   1.326  37.711   8.810
  645POPC   D2A11464   1.142  37.880   8.403
  645POPC   C3A11465   1.321  37.766   7.990
  645POPC   C4A11466   1.361  38.026   7.603
  645POPC   C1B11467   1.066  37.264   8.775
  645POPC   C2B11468   1.053  37.361   8.336
  645POPC   C3B11469   1.137  37.278   7.899
  645POPC   C4B11470   1.264  37.207   7.470
  646POPC   NC311471   8.339  12.567   9.566
  646POPC   PO411472   7.942  13.181   9.420
  646POPC   GL111473   8.286  12.951   9.242
  646POPC   GL211474   8.187  12.645   9.099
  646POPC   C1A11475   8.481  12.977   8.833
  646POPC   D2A11476   8.272  13.125   8.451
  646POPC   C3A11477   8.523  13.085   8.078
  646POPC   C4A11478   8.538  12.869   7.680
  646POPC   C1B11479   8.000  12.815   8.754
  646POPC   C2B11480   7.945  12.708   8.354
  646POPC   C3B11481   8.143  12.767   8.003
  646POPC   C4B11482   8.074  12.679   7.591
  647POPC   NC311483  23.266  32.553   9.721
  647POPC   PO411484  23.698  32.963   9.611
  647POPC   GL111485  23.799  32.957   9.195
  647POPC   GL211486  24.151  32.874   9.224
  647POPC   C1A11487  23.561  32.945   8.807
  647POPC   D2A11488  23.436  33.201   8.425
  647POPC   C3A11489  23.556  33.026   8.064
  647POPC   C4A11490  23.409  32.777   7.753
  647POPC   C1B11491  24.110  33.024   8.795
  647POPC   C2B11492  23.930  33.031   8.430
  647POPC   C3B11493  24.044  32.821   8.066
  647POPC   C4B11494  23.883  32.910   7.650
  648POPC   NC311495  30.388  25.489   9.516
  648POPC   PO411496  30.677  24.937   9.575
  648POPC   GL111497  30.909  25.067   9.218
  648POPC   GL211498  30.593  25.107   9.069
  648POPC   C1A11499  31.078  25.178   8.812
  648POPC   D2A11500  30.888  25.124   8.449
  648POPC   C3A11501  31.025  25.342   8.120
  648POPC   C4A11502  31.114  25.343   7.706
  648POPC   C1B11503  30.653  25.469   8.825
  648POPC   C2B11504  30.601  25.546   8.379
  648POPC   C3B11505  30.516  25.316   8.028
  648POPC   C4B11506  30.268  25.139   7.734
  649POPC   NC311507  15.394  25.526   9.545
  649POPC   PO411508  15.297  24.807   9.585
  649POPC   GL111509  15.409  25.114   9.259
  649POPC   GL211510  15.096  25.287   9.215
  649POPC   C1A11511  15.566  25.061   8.821
  649POPC   D2A11512  15.558  25.326   8.423
  649POPC   C3A11513  15.327  25.218   8.070
  649POPC   C4A11514  15.368  25.285   7.653
  649POPC   C1B11515  15.162  25.373   8.775
  649POPC   C2B11516  15.022  25.521   8.365
  649POPC   C3B11517  14.725  25.398   8.047
  649POPC   C4B11518  14.883  25.073   7.848
  650POPC   NC311519  30.874  28.735   9.733
  650POPC   PO411520  30.478  29.254   9.477
  650POPC   GL111521  30.763  29.298   9.072
  650POPC   GL211522  30.818  29.610   9.171
  650POPC   C1A11523  31.007  29.073   8.694
  650POPC   D2A11524  31.019  28.790   8.313
  650POPC   C3A11525  30.592  28.853   8.128
  650POPC   C4A11526  30.382  29.023   7.756
  650POPC   C1B11527  30.498  29.608   8.814
  650POPC   C2B11528  30.550  29.288   8.524
  650POPC   C3B11529  30.872  29.302   8.213
  650POPC   C4B11530  30.883  29.157   7.807
  651POPC   NC311531   7.207  29.198   9.589
  651POPC   PO411532   7.783  29.055   9.686
  651POPC   GL111533   7.557  29.000   9.246
  651POPC   GL211534   7.234  29.191   9.096
  651POPC   C1A11535   7.543  28.946   8.772
  651POPC   D2A11536   7.754  29.274   8.498
  651POPC   C3A11537   7.660  29.200   8.081
  651POPC   C4A11538   7.656  28.769   7.867
  651POPC   C1B11539   7.260  29.372   8.680
  651POPC   C2B11540   7.279  29.525   8.262
  651POPC   C3B11541   7.203  29.351   7.860
  651POPC   C4B11542   7.144  29.409   7.435
  652POPC   NC311543   9.453  10.090   9.328
  652POPC   PO411544   9.951  10.484   9.640
  652POPC   GL111545   9.985  10.412   9.205
  652POPC   GL211546   9.698  10.456   9.044
  652POPC   C1A11547  10.121  10.322   8.785
  652POPC   D2A11548  10.221  10.472   8.388
  652POPC   C3A11549   9.986  10.394   7.999
  652POPC   C4A11550   9.838  10.563   7.624
  652POPC   C1B11551   9.467  10.566   8.708
  652POPC   C2B11552   9.525  10.340   8.357
  652POPC   C3B11553   9.462  10.476   7.976
  652POPC   C4B11554   9.335  10.714   7.658
  653POPC   NC311555  37.621  23.071   9.358
  653POPC   PO411556  37.533  22.403   9.452
  653POPC   GL111557  37.655  22.586   9.104
  653POPC   GL211558  37.420  22.819   8.931
  653POPC   C1A11559  37.884  22.676   8.736
  653POPC   D2A11560  37.718  23.011   8.512
  653POPC   C3A11561  37.686  22.929   8.094
  653POPC   C4A11562  37.993  22.851   7.773
  653POPC   C1B11563  37.327  23.262   8.749
  653POPC   C2B11564  37.451  23.385   8.278
  653POPC   C3B11565  37.310  23.329   7.826
  653POPC   C4B11566  37.335  23.512   7.370
  654POPC   NC311567  19.488  34.958   9.410
  654POPC   PO411568  20.103  35.284   9.480
  654POPC   GL111569  19.848  35.505   9.132
  654POPC   GL211570  19.568  35.734   9.136
  654POPC   C1A11571  19.632  35.404   8.750
  654POPC   D2A11572  19.822  35.154   8.453
  654POPC   C3A11573  19.792  35.314   8.083
  654POPC   C4A11574  19.836  35.325   7.679
  654POPC   C1B11575  19.829  35.857   8.713
  654POPC   C2B11576  19.738  35.832   8.238
  654POPC   C3B11577  19.896  35.809   7.800
  654POPC   C4B11578  19.887  35.711   7.328
  655POPC   NC311579  43.402   5.464   9.525
  655POPC   PO411580  44.077   5.160   9.591
  655POPC   GL111581  43.986   4.990   9.175
  655POPC   GL211582  43.750   5.262   9.194
  655POPC   C1A11583  44.045   4.773   8.750
  655POPC   D2A11584  44.044   5.012   8.338
  655POPC   C3A11585  43.795   4.958   7.984
  655POPC   C4A11586  43.831   4.813   7.572
  655POPC   C1B11587  43.627   5.505   8.868
  655POPC   C2B11588  43.751   5.413   8.462
  655POPC   C3B11589  43.767   5.476   8.030
  655POPC   C4B11590  43.781   5.319   7.626
  656POPC   NC311591  39.539  44.076   9.601
  656POPC   PO411592  39.142  43.547   9.553
  656POPC   GL111593  39.459  43.698   9.203
  656POPC   GL211594  39.457  44.083   9.113
  656POPC   C1A11595  39.506  43.757   8.737
  656POPC   D2A11596  39.106  43.795   8.488
  656POPC   C3A11597  39.242  43.863   8.100
  656POPC   C4A11598  39.083  43.809   7.699
  656POPC   C1B11599  39.245  44.215   8.737
  656POPC   C2B11600  39.178  44.326   8.314
  656POPC   C3B11601  39.296  44.310   7.884
  656POPC   C4B11602  39.632  44.065   7.759
  657POPC   NC311603  26.040   1.845   9.573
  657POPC   PO411604  26.440   2.376   9.417
  657POPC   GL111605  26.162   2.100   9.127
  657POPC   GL211606  26.191   1.727   9.093
  657POPC   C1A11607  26.117   1.998   8.684
  657POPC   D2A11608  26.153   1.699   8.400
  657POPC   C3A11609  26.177   1.938   8.082
  657POPC   C4A11610  25.977   2.015   7.738
  657POPC   C1B11611  25.803   1.644   8.855
  657POPC   C2B11612  25.647   1.655   8.437
  657POPC   C3B11613  25.789   1.601   8.017
  657POPC   C4B11614  25.749   1.588   7.563
  658POPC   NC311615  24.919  33.563   9.913
  658POPC   PO411616  25.118  34.032   9.465
  658POPC   GL111617  25.275  34.088   9.095
  658POPC   GL211618  25.197  33.734   9.051
  658POPC   C1A11619  25.346  34.038   8.692
  658POPC   D2A11620  25.270  33.740   8.430
  658POPC   C3A11621  25.398  33.948   8.077
  658POPC   C4A11622  25.303  33.818   7.702
  658POPC   C1B11623  25.508  33.499   8.854
  658POPC   C2B11624  25.570  33.331   8.448
  658POPC   C3B11625  25.387  33.407   8.038
  658POPC   C4B11626  25.453  33.259   7.617
  659POPC   NC311627  15.731  44.680   9.549
  659POPC   PO411628  16.178  44.157   9.490
  659POPC   GL111629  15.949  44.392   9.188
  659POPC   GL211630  15.613  44.310   9.181
  659POPC   C1A11631  16.036  44.650   8.842
  659POPC   D2A11632  16.300  44.523   8.504
  659POPC   C3A11633  16.158  44.729   8.124
  659POPC   C4A11634  16.022  44.704   7.694
  659POPC   C1B11635  15.590  44.387   8.783
  659POPC   C2B11636  15.814  44.399   8.424
  659POPC   C3B11637  15.808  44.365   8.024
  659POPC   C4B11638  15.511  44.549   7.755
  660POPC   NC311639  40.882  21.896   9.558
  660POPC   PO411640  40.351  22.332   9.471
  660POPC   GL111641  40.695  22.199   9.163
  660POPC   GL211642  40.981  22.004   9.087
  660POPC   C1A11643  40.776  22.255   8.708
  660POPC   D2A11644  40.536  22.370   8.354
  660POPC   C3A11645  40.757  22.234   8.004
  660POPC   C4A11646  40.811  22.341   7.590
  660POPC   C1B11647  40.970  21.760   8.745
  660POPC   C2B11648  41.067  21.879   8.343
  660POPC   C3B11649  40.991  21.766   7.943
  660POPC   C4B11650  41.143  21.960   7.568
  661POPC   NC311651  42.374  14.036   9.463
  661POPC   PO411652  42.435  13.423   9.751
  661POPC   GL111653  42.524  13.413   9.290
  661POPC   GL211654  42.224  13.567   9.184
  661POPC   C1A11655  42.618  13.529   8.838
  661POPC   D2A11656  42.343  13.572   8.449
  661POPC   C3A11657  42.412  13.492   8.030
  661POPC   C4A11658  42.038  13.667   7.777
  661POPC   C1B11659  42.250  13.876   8.852
  661POPC   C2B11660  42.436  14.071   8.464
  661POPC   C3B11661  42.327  13.980   8.081
  661POPC   C4B11662  42.490  13.871   7.664
  662POPC   NC311663  37.319  26.305   9.572
  662POPC   PO411664  36.960  25.743   9.468
  662POPC   GL111665  36.942  26.031   9.166
  662POPC   GL211666  37.187  26.241   9.108
  662POPC   C1A11667  36.796  26.062   8.765
  662POPC   D2A11668  37.003  26.028   8.368
  662POPC   C3A11669  36.787  26.186   8.040
  662POPC   C4A11670  36.626  26.096   7.650
  662POPC   C1B11671  37.295  26.186   8.748
  662POPC   C2B11672  37.386  26.442   8.415
  662POPC   C3B11673  37.202  26.472   8.047
  662POPC   C4B11674  37.091  26.363   7.637
  663POPC   NC311675  20.443  44.262   9.663
  663POPC   PO411676  19.839  43.839   9.610
  663POPC   GL111677  19.794  43.911   9.159
  663POPC   GL211678  19.949  43.619   9.056
  663POPC   C1A11679  19.680  44.180   8.795
  663POPC   D2A11680  19.536  44.221   8.379
  663POPC   C3A11681  19.817  44.270   8.051
  663POPC   C4A11682  19.839  43.942   7.759
  663POPC   C1B11683  20.031  43.718   8.621
  663POPC   C2B11684  20.118  43.810   8.184
  663POPC   C3B11685  20.340  43.777   7.773
  663POPC   C4B11686  20.678  43.731   7.432
  664POPC   NC311687  32.297   7.863   9.752
  664POPC   PO411688  31.909   8.207   9.292
  664POPC   GL111689  31.996   8.358   8.959
  664POPC   GL211690  32.318   8.136   9.001
  664POPC   C1A11691  31.987   8.285   8.556
  664POPC   D2A11692  32.321   8.018   8.484
  664POPC   C3A11693  32.271   7.971   8.091
  664POPC   C4A11694  32.141   7.818   7.750
  664POPC   C1B11695  32.445   8.454   8.732
  664POPC   C2B11696  32.465   8.484   8.290
  664POPC   C3B11697  32.392   8.394   7.848
  664POPC   C4B11698  32.564   8.037   7.618
  665POPC   NC311699  24.058  41.724   9.419
  665POPC   PO411700  24.713  41.897   9.441
  665POPC   GL111701  24.480  41.703   9.123
  665POPC   GL211702  24.405  41.347   9.124
  665POPC   C1A11703  24.564  41.602   8.721
  665POPC   D2A11704  24.298  41.570   8.369
  665POPC   C3A11705  24.529  41.581   7.999
  665POPC   C4A11706  24.382  41.717   7.603
  665POPC   C1B11707  24.383  41.137   8.663
  665POPC   C2B11708  24.407  41.116   8.180
  665POPC   C3B11709  24.431  41.031   7.774
  665POPC   C4B11710  24.163  41.173   7.490
  666POPC   NC311711  21.034   2.092   9.484
  666POPC   PO411712  21.712   1.621   9.523
  666POPC   GL111713  21.480   1.949   9.288
  666POPC   GL211714  21.188   1.748   9.152
  666POPC   C1A11715  21.320   2.181   8.901
  666POPC   D2A11716  21.284   1.977   8.502
  666POPC   C3A11717  21.319   2.039   8.077
  666POPC   C4A11718  21.134   2.301   7.815
  666POPC   C1B11719  21.532   1.703   8.852
  666POPC   C2B11720  21.647   1.618   8.445
  666POPC   C3B11721  21.733   1.705   8.020
  666POPC   C4B11722  21.488   1.734   7.661
  667POPC   NC311723  40.145  28.637   9.378
  667POPC   PO411724  39.942  29.367   9.404
  667POPC   GL111725  40.146  29.117   9.110
  667POPC   GL211726  39.979  28.812   8.938
  667POPC   C1A11727  40.052  29.244   8.706
  667POPC   D2A11728  39.884  29.094   8.346
  667POPC   C3A11729  40.002  29.353   8.062
  667POPC   C4A11730  40.267  29.299   7.743
  667POPC   C1B11731  40.411  28.881   8.743
  667POPC   C2B11732  40.422  29.058   8.324
  667POPC   C3B11733  40.203  28.854   7.981
  667POPC   C4B11734  40.208  28.853   7.515
  668POPC   NC311735  44.304  22.400   9.570
  668POPC   PO411736  43.688  22.026   9.574
  668POPC   GL111737  43.792  21.837   9.219
  668POPC   GL211738  44.080  22.063   9.236
  668POPC   C1A11739  43.817  21.992   8.809
  668POPC   D2A11740  43.824  22.289   8.517
  668POPC   C3A11741  43.823  22.105   8.131
  668POPC   C4A11742  43.792  22.364   7.794
  668POPC   C1B11743  44.148  22.401   8.914
  668POPC   C2B11744  44.336  22.345   8.503
  668POPC   C3B11745  44.255  22.372   8.053
  668POPC   C4B11746  44.173  22.745   7.840
  669POPC   NC311747  36.389  22.321   9.434
  669POPC   PO411748  35.865  21.879   9.507
  669POPC   GL111749  36.017  22.110   9.151
  669POPC   GL211750  35.943  22.482   9.166
  669POPC   C1A11751  36.348  22.075   8.810
  669POPC   D2A11752  36.451  22.186   8.364
  669POPC   C3A11753  36.084  22.113   8.108
  669POPC   C4A11754  36.072  21.879   7.743
  669POPC   C1B11755  35.856  22.371   8.731
  669POPC   C2B11756  35.962  22.598   8.360
  669POPC   C3B11757  36.137  22.608   7.967
  669POPC   C4B11758  35.936  22.456   7.638
  670POPC   NC311759  22.931  44.201   9.731
  670POPC   PO411760  23.324  43.684   9.467
  670POPC   GL111761  22.968  43.936   9.241
  670POPC   GL211762  22.951  44.340   9.223
  670POPC   C1A11763  22.844  43.960   8.813
  670POPC   D2A11764  22.957  43.665   8.480
  670POPC   C3A11765  22.987  43.816   8.054
  670POPC   C4A11766  23.004  43.628   7.655
  670POPC   C1B11767  23.182  44.374   8.806
  670POPC   C2B11768  23.241  44.135   8.438
  670POPC   C3B11769  23.369  44.179   8.037
  670POPC   C4B11770  23.087  44.403   7.795
  671POPC   NC311771  44.027   4.688   9.612
  671POPC   PO411772  43.496   4.357   9.460
  671POPC   GL111773  43.847   4.438   9.150
  671POPC   GL211774  44.233   4.531   9.151
  671POPC   C1A11775  43.690   4.406   8.726
  671POPC   D2A11776  43.670   4.656   8.375
  671POPC   C3A11777  43.797   4.440   7.999
  671POPC   C4A11778  43.641   4.082   7.794
  671POPC   C1B11779  44.183   4.252   8.804
  671POPC   C2B11780  44.051   4.188   8.381
  671POPC   C3B11781  44.286   4.164   7.997
  671POPC   C4B11782  44.216   4.491   7.694
  672POPC   NC311783  16.325  22.696   9.985
  672POPC   PO411784  15.853  22.935   9.605
  672POPC   GL111785  15.983  22.995   9.204
  672POPC   GL211786  16.249  22.749   9.222
  672POPC   C1A11787  15.779  23.050   8.804
  672POPC   D2A11788  15.700  22.858   8.422
  672POPC   C3A11789  15.522  23.021   8.048
  672POPC   C4A11790  15.671  22.971   7.619
  672POPC   C1B11791  16.264  22.806   8.770
  672POPC   C2B11792  16.192  22.706   8.331
  672POPC   C3B11793  16.085  22.953   7.938
  672POPC   C4B11794  16.233  22.951   7.496
  673POPC   NC311795  32.531   1.673   9.449
  673POPC   PO411796  32.018   2.149   9.499
  673POPC   GL111797  32.167   1.937   9.188
  673POPC   GL211798  31.877   1.804   9.076
  673POPC   C1A11799  32.446   1.907   8.833
  673POPC   D2A11800  32.472   1.772   8.421
  673POPC   C3A11801  32.427   2.022   8.050
  673POPC   C4A11802  32.345   1.881   7.630
  673POPC   C1B11803  31.989   1.833   8.660
  673POPC   C2B11804  31.967   1.968   8.269
  673POPC   C3B11805  32.012   1.720   7.969
  673POPC   C4B11806  31.952   1.561   7.567
  674POPC   NC311807  11.187   4.792   9.475
  674POPC   PO411808  11.501   5.338   9.721
  674POPC   GL111809  11.381   5.311   9.249
  674POPC   GL211810  11.097   5.145   9.115
  674POPC   C1A11811  11.359   5.409   8.767
  674POPC   D2A11812  11.280   5.368   8.297
  674POPC   C3A11813  11.285   5.007   8.055
  674POPC   C4A11814  11.436   4.742   7.728
  674POPC   C1B11815  11.041   4.946   8.704
  674POPC   C2B11816  10.821   5.109   8.327
  674POPC   C3B11817  10.773   4.976   7.919
  674POPC   C4B11818  11.014   4.974   7.575
  675POPC   NC311819   0.245  26.637   9.478
  675POPC   PO411820   0.748  26.872   9.758
  675POPC   GL111821   0.600  26.929   9.270
  675POPC   GL211822   0.238  27.014   9.144
  675POPC   C1A11823   0.643  26.951   8.804
  675POPC   D2A11824   0.625  26.793   8.383
  675POPC   C3A11825   0.703  26.972   7.972
  675POPC   C4A11826   0.533  26.929   7.528
  675POPC   C1B11827   0.213  26.665   8.806
  675POPC   C2B11828   0.174  26.523   8.381
  675POPC   C3B11829   0.307  26.640   7.984
  675POPC   C4B11830   0.309  26.483   7.597
  676POPC   NC311831   3.936  31.914   9.459
  676POPC   PO411832   4.207  31.287   9.458
  676POPC   GL111833   4.249  31.492   9.094
  676POPC   GL211834   4.429  31.762   9.260
  676POPC   C1A11835   4.358  31.298   8.685
  676POPC   D2A11836   4.423  31.035   8.305
  676POPC   C3A11837   4.305  31.329   7.973
  676POPC   C4A11838   4.623  31.383   7.707
  676POPC   C1B11839   4.637  31.718   8.854
  676POPC   C2B11840   4.609  31.683   8.409
  676POPC   C3B11841   4.666  31.821   7.993
  676POPC   C4B11842   4.338  31.800   7.697
  677POPC   NC311843  17.122  30.166   9.462
  677POPC   PO411844  16.674  29.576   9.474
  677POPC   GL111845  16.787  29.872   9.175
  677POPC   GL211846  17.157  29.756   9.148
  677POPC   C1A11847  16.575  29.933   8.762
  677POPC   D2A11848  16.412  29.709   8.431
  677POPC   C3A11849  16.565  29.937   8.089
  677POPC   C4A11850  16.470  30.204   7.752
  677POPC   C1B11851  17.070  29.980   8.755
  677POPC   C2B11852  16.979  30.156   8.332
  677POPC   C3B11853  17.029  29.908   7.923
  677POPC   C4B11854  16.907  29.966   7.499
  678POPC   NC311855  32.751   9.922   9.509
  678POPC   PO411856  33.285   9.722   9.343
  678POPC   GL111857  32.905   9.702   9.068
  678POPC   GL211858  32.847  10.068   9.030
  678POPC   C1A11859  32.996   9.656   8.629
  678POPC   D2A11860  33.430   9.692   8.450
  678POPC   C3A11861  33.451   9.459   8.060
  678POPC   C4A11862  33.160   9.573   7.731
  678POPC   C1B11863  32.587   9.958   8.701
  678POPC   C2B11864  32.517   9.677   8.382
  678POPC   C3B11865  32.740   9.725   8.020
  678POPC   C4B11866  32.604  10.010   7.743
  679POPC   NC311867  15.461  12.356   9.510
  679POPC   PO411868  14.987  11.925   9.660
  679POPC   GL111869  15.131  11.986   9.214
  679POPC   GL211870  15.400  12.216   9.029
  679POPC   C1A11871  15.063  11.966   8.764
  679POPC   D2A11872  15.292  12.162   8.458
  679POPC   C3A11873  15.025  12.123   8.126
  679POPC   C4A11874  15.008  12.216   7.728
  679POPC   C1B11875  15.623  11.892   8.769
  679POPC   C2B11876  15.758  11.924   8.354
  679POPC   C3B11877  15.555  12.042   8.010
  679POPC   C4B11878  15.390  11.860   7.678
  680POPC   NC311879   0.174  12.440   9.479
  680POPC   PO411880   0.021  11.810   9.513
  680POPC   GL111881   0.243  11.995   9.124
  680POPC   GL211882   0.484  12.312   9.090
  680POPC   C1A11883   0.458  11.943   8.700
  680POPC   D2A11884   0.609  12.168   8.289
  680POPC   C3A11885   0.519  11.967   7.868
  680POPC   C4A11886   0.426  11.945   7.419
  680POPC   C1B11887   0.143  12.386   8.806
  680POPC   C2B11888   0.110  12.168   8.412
  680POPC   C3B11889   0.173  12.325   7.990
  680POPC   C4B11890  45.000  12.196   7.568
  681POPC   NC311891  25.221  14.484   9.808
  681POPC   PO411892  25.750  14.448   9.562
  681POPC   GL111893  25.552  14.387   9.146
  681POPC   GL211894  25.277  14.141   9.183
  681POPC   C1A11895  25.582  14.121   8.761
  681POPC   D2A11896  25.458  14.061   8.306
  681POPC   C3A11897  25.293  14.263   7.911
  681POPC   C4A11898  25.219  14.575   7.547
  681POPC   C1B11899  25.016  14.185   8.779
  681POPC   C2B11900  24.961  14.186   8.312
  681POPC   C3B11901  24.792  14.226   7.890
  681POPC   C4B11902  24.728  14.420   7.484
  682POPC   NC311903  32.943  18.947   9.444
  682POPC   PO411904  33.388  19.482   9.480
  682POPC   GL111905  33.280  19.151   9.105
  682POPC   GL211906  33.010  18.881   8.953
  682POPC   C1A11907  33.414  19.053   8.706
  682POPC   D2A11908  33.237  19.287   8.384
  682POPC   C3A11909  32.944  19.000   8.218
  682POPC   C4A11910  33.234  18.877   7.886
  682POPC   C1B11911  32.817  19.228   8.694
  682POPC   C2B11912  32.780  19.500   8.284
  682POPC   C3B11913  33.001  19.388   7.900
  682POPC   C4B11914  32.778  19.021   7.722
  683POPC   NC311915  20.266  27.513   9.476
  683POPC   PO411916  20.878  27.733   9.244
  683POPC   GL111917  20.587  27.608   9.062
  683POPC   GL211918  20.637  27.285   9.228
  683POPC   C1A11919  20.603  27.809   8.675
  683POPC   D2A11920  20.850  28.045   8.418
  683POPC   C3A11921  20.670  27.834   8.130
  683POPC   C4A11922  20.539  27.775   7.746
  683POPC   C1B11923  20.542  27.166   8.820
  683POPC   C2B11924  20.662  27.361   8.464
  683POPC   C3B11925  20.583  27.344   8.053
  683POPC   C4B11926  20.506  27.263   7.647
  684POPC   NC311927  38.786  35.369   9.628
  684POPC   PO411928  39.443  35.397   9.557
  684POPC   GL111929  39.188  35.415   9.238
  684POPC   GL211930  39.026  35.085   9.258
  684POPC   C1A11931  39.100  35.391   8.810
  684POPC   D2A11932  39.213  35.163   8.463
  684POPC   C3A11933  39.174  35.367   8.060
  684POPC   C4A11934  39.217  35.420   7.609
  684POPC   C1B11935  38.905  34.866   8.877
  684POPC   C2B11936  38.745  34.943   8.499
  684POPC   C3B11937  38.702  35.208   8.185
  684POPC   C4B11938  38.824  35.118   7.773
  685POPC   NC311939  27.212  16.594   9.788
  685POPC   PO411940  26.602  16.734   9.613
  685POPC   GL111941  26.917  16.825   9.227
  685POPC   GL211942  26.662  16.644   9.028
  685POPC   C1A11943  27.101  16.669   8.779
  685POPC   D2A11944  27.199  16.412   8.377
  685POPC   C3A11945  27.054  16.645   8.000
  685POPC   C4A11946  26.972  17.103   7.963
  685POPC   C1B11947  26.641  16.806   8.616
  685POPC   C2B11948  26.544  17.000   8.247
  685POPC   C3B11949  26.567  16.797   7.878
  685POPC   C4B11950  26.482  16.748   7.495
  686POPC   NC311951  40.262  21.117   9.658
  686POPC   PO411952  39.744  21.617   9.555
  686POPC   GL111953  39.989  21.360   9.277
  686POPC   GL211954  39.760  21.121   9.158
  686POPC   C1A11955  40.119  21.410   8.831
  686POPC   D2A11956  40.096  21.628   8.433
  686POPC   C3A11957  40.014  21.477   8.006
  686POPC   C4A11958  40.024  21.694   7.627
  686POPC   C1B11959  39.665  21.202   8.735
  686POPC   C2B11960  39.933  21.129   8.380
  686POPC   C3B11961  40.179  20.988   8.033
  686POPC   C4B11962  40.274  20.831   7.610
  687POPC   NC311963   7.049  41.221   9.435
  687POPC   PO411964   6.558  41.718   9.486
  687POPC   GL111965   6.828  41.635   9.156
  687POPC   GL211966   6.658  41.337   9.134
  687POPC   C1A11967   6.920  41.488   8.724
  687POPC   D2A11968   6.765  41.369   8.306
  687POPC   C3A11969   6.887  41.659   7.941
  687POPC   C4A11970   6.952  41.683   7.467
  687POPC   C1B11971   6.340  41.506   8.877
  687POPC   C2B11972   6.235  41.436   8.488
  687POPC   C3B11973   6.347  41.565   8.110
  687POPC   C4B11974   6.526  41.313   7.847
  688POPC   NC311975   6.825  25.390   9.575
  688POPC   PO411976   6.969  24.768   9.397
  688POPC   GL111977   6.825  25.173   9.096
  688POPC   GL211978   6.829  25.584   9.108
  688POPC   C1A11979   6.860  25.351   8.649
  688POPC   D2A11980   7.054  25.505   8.267
  688POPC   C3A11981   6.950  25.220   7.930
  688POPC   C4A11982   6.727  24.975   7.606
  688POPC   C1B11983   6.434  25.566   8.836
  688POPC   C2B11984   6.332  25.359   8.426
  688POPC   C3B11985   6.438  25.220   8.015
  688POPC   C4B11986   6.553  25.467   7.661
  689POPC   NC311987  42.714   5.381   9.328
  689POPC   PO411988  42.238   4.934   9.620
  689POPC   GL111989  42.143   5.033   9.159
  689POPC   GL211990  42.446   5.126   8.987
  689POPC   C1A11991  42.010   5.252   8.755
  689POPC   D2A11992  42.313   5.230   8.453
  689POPC   C3A11993  42.193   5.319   8.069
  689POPC   C4A11994  42.285   5.189   7.662
  689POPC   C1B11995  42.682   4.794   8.810
  689POPC   C2B11996  42.509   4.743   8.424
  689POPC   C3B11997  42.590   4.969   8.062
  689POPC   C4B11998  42.558   4.763   7.688
  690POPC   NC311999   4.113  24.885   9.513
  690POPC   PO412000   4.778  25.190   9.623
  690POPC   GL112001   4.429  25.222   9.251
  690POPC   GL212002   4.216  25.551   9.169
  690POPC   C1A12003   4.245  25.187   8.807
  690POPC   D2A12004   4.503  25.159   8.457
  690POPC   C3A12005   4.448  25.065   8.030
  690POPC   C4A12006   4.076  25.071   7.812
  690POPC   C1B12007   4.589  25.565   8.866
  690POPC   C2B12008   4.737  25.622   8.440
  690POPC   C3B12009   4.477  25.561   8.100
  690POPC   C4B12010   4.586  25.556   7.705
  691POPC   NC312011  40.978  38.248   9.569
  691POPC   PO412012  40.520  38.675   9.477
  691POPC   GL112013  40.705  38.730   9.082
  691POPC   GL212014  40.908  38.486   9.124
  691POPC   C1A12015  40.790  38.674   8.641
  691POPC   D2A12016  40.606  38.584   8.242
  691POPC   C3A12017  40.805  38.814   7.946
  691POPC   C4A12018  41.020  38.826   7.557
  691POPC   C1B12019  40.776  38.182   8.776
  691POPC   C2B12020  40.783  38.122   8.317
  691POPC   C3B12021  41.022  38.342   7.982
  691POPC   C4B12022  41.038  38.224   7.546
  692POPC   NC312023  24.672   5.450   9.544
  692POPC   PO412024  24.313   5.926   9.351
  692POPC   GL112025  24.671   5.826   9.121
  692POPC   GL212026  24.914   6.069   9.244
  692POPC   C1A12027  24.583   5.826   8.691
  692POPC   D2A12028  24.561   6.071   8.334
  692POPC   C3A12029  24.491   5.836   8.036
  692POPC   C4A12030  24.322   5.633   7.723
  692POPC   C1B12031  25.023   6.138   8.811
  692POPC   C2B12032  24.978   6.345   8.400
  692POPC   C3B12033  24.905   6.181   7.953
  692POPC   C4B12034  24.755   6.213   7.457
  693POPC   NC312035  44.398  44.583   9.579
  693POPC   PO412036  44.856  44.963   9.533
  693POPC   GL112037  44.686  44.773   9.200
  693POPC   GL212038  44.422  44.975   9.139
  693POPC   C1A12039  44.816  44.644   8.811
  693POPC   D2A12040  44.783  44.790   8.382
  693POPC   C3A12041  44.810  44.517   8.026
  693POPC   C4A12042  44.654  44.706   7.673
  693POPC   C1B12043  44.367  44.833   8.703
  693POPC   C2B12044  44.269  44.744   8.241
  693POPC   C3B12045  44.176  44.808   7.800
  693POPC   C4B12046  44.216  44.580   7.384
  694POPC   NC312047  17.991  36.436   9.503
  694POPC   PO412048  18.560  35.986   9.554
  694POPC   GL112049  18.376  36.043   9.152
  694POPC   GL212050  18.074  36.212   9.066
  694POPC   C1A12051  18.342  35.913   8.728
  694POPC   D2A12052  18.194  35.986   8.326
  694POPC   C3A12053  18.306  36.059   7.894
  694POPC   C4A12054  18.207  36.049   7.415
  694POPC   C1B12055  17.855  36.521   8.840
  694POPC   C2B12056  17.748  36.498   8.425
  694POPC   C3B12057  17.901  36.327   8.078
  694POPC   C4B12058  17.987  36.412   7.686
  695POPC   NC312059  19.991   2.677   9.653
  695POPC   PO412060  19.683   2.401   9.103
  695POPC   GL112061  19.822   2.844   9.111
  695POPC   GL212062  19.517   3.007   9.046
  695POPC   C1A12063  20.024   2.855   8.691
  695POPC   D2A12064  19.957   2.598   8.296
  695POPC   C3A12065  20.043   2.851   7.929
  695POPC   C4A12066  19.892   2.803   7.498
  695POPC   C1B12067  19.510   2.882   8.680
  695POPC   C2B12068  19.675   3.024   8.316
  695POPC   C3B12069  19.534   2.880   7.913
  695POPC   C4B12070  19.432   2.981   7.501
  696POPC   NC312071  22.416   8.120   9.573
  696POPC   PO412072  22.968   8.336   9.327
  696POPC   GL112073  22.951   7.933   9.172
  696POPC   GL212074  22.626   7.778   9.140
  696POPC   C1A12075  22.983   7.925   8.745
  696POPC   D2A12076  23.089   7.721   8.424
  696POPC   C3A12077  23.225   7.998   8.119
  696POPC   C4A12078  23.172   8.199   7.742
  696POPC   C1B12079  22.532   8.134   8.852
  696POPC   C2B12080  22.655   8.377   8.477
  696POPC   C3B12081  22.779   8.363   8.040
  696POPC   C4B12082  22.733   7.947   7.853
  697POPC   NC312083   0.201   0.274   9.499
  697POPC   PO412084   0.607   0.781   9.510
  697POPC   GL112085   0.368   0.643   9.189
  697POPC   GL212086   0.606   0.367   9.177
  697POPC   C1A12087   0.160   0.472   8.845
  697POPC   D2A12088   0.292   0.588   8.441
  697POPC   C3A12089   0.302   0.347   8.071
  697POPC   C4A12090   0.588   0.546   7.804
  697POPC   C1B12091   0.606   0.234   8.786
  697POPC   C2B12092   0.685   0.202   8.393
  697POPC   C3B12093   0.729   0.064   7.982
  697POPC   C4B12094   0.569   0.081   7.590
  698POPC   NC312095  39.353  40.075   9.713
  698POPC   PO412096  38.727  40.198   9.537
  698POPC   GL112097  38.996  39.963   9.197
  698POPC   GL212098  39.365  40.009   9.178
  698POPC   C1A12099  38.868  39.766   8.795
  698POPC   D2A12100  38.873  39.940   8.377
  698POPC   C3A12101  38.853  39.702   8.000
  698POPC   C4A12102  38.927  39.915   7.651
  698POPC   C1B12103  39.549  40.235   8.839
  698POPC   C2B12104  39.450  40.253   8.408
  698POPC   C3B12105  39.295  40.008   8.057
  698POPC   C4B12106  39.402  40.079   7.631
  699POPC   NC312107  40.523  12.235   9.557
  699POPC   PO412108  41.119  12.062   9.530
  699POPC   GL112109  40.895  12.037   9.145
  699POPC   GL212110  40.589  12.233   9.062
  699POPC   C1A12111  40.987  12.182   8.737
  699POPC   D2A12112  41.129  12.272   8.336
  699POPC   C3A12113  40.915  12.147   7.941
  699POPC   C4A12114  40.996  11.887   7.581
  699POPC   C1B12115  40.516  12.425   8.668
  699POPC   C2B12116  40.616  12.453   8.227
  699POPC   C3B12117  40.336  12.292   7.866
  699POPC   C4B12118  40.394  12.330   7.411
  700POPC   NC312119  44.812  13.593   9.425
  700POPC   PO412120  44.301  14.021   9.554
  700POPC   GL112121  44.504  13.905   9.148
  700POPC   GL212122  44.382  13.548   9.124
  700POPC   C1A12123  44.856  13.755   8.802
  700POPC   D2A12124   0.024  13.659   8.370
  700POPC   C3A12125  44.729  13.544   8.092
  700POPC   C4A12126  44.674  13.507   7.667
  700POPC   C1B12127  44.349  13.734   8.702
  700POPC   C2B12128  44.206  13.809   8.294
  700POPC   C3B12129  44.363  13.849   7.907
  700POPC   C4B12130  44.446  14.159   7.640
  701POPC   NC312131   0.854  19.532   9.552
  701POPC   PO412132   1.320  19.973   9.506
  701POPC   GL112133   1.245  19.835   9.105
  701POPC   GL212134   0.900  19.824   9.154
  701POPC   C1A12135   1.287  20.033   8.698
  701POPC   D2A12136   1.127  20.008   8.287
  701POPC   C3A12137   1.431  20.090   7.952
  701POPC   C4A12138   1.416  20.160   7.508
  701POPC   C1B12139   0.919  19.675   8.750
  701POPC   C2B12140   0.945  19.501   8.376
  701POPC   C3B12141   1.089  19.597   8.005
  701POPC   C4B12142   0.986  19.959   7.780
  702POPC   NC312143  36.986  18.952   9.479
  702POPC   PO412144  36.606  19.540   9.389
  702POPC   GL112145  36.730  19.221   9.134
  702POPC   GL212146  37.043  19.347   9.163
  702POPC   C1A12147  36.766  18.913   8.789
  702POPC   D2A12148  36.731  19.072   8.375
  702POPC   C3A12149  36.577  18.892   7.995
  702POPC   C4A12150  36.711  18.954   7.571
  702POPC   C1B12151  37.206  19.177   8.798
  702POPC   C2B12152  37.269  18.915   8.438
  702POPC   C3B12153  37.092  18.915   8.027
  702POPC   C4B12154  37.194  19.007   7.618
  703POPC   NC312155  18.709  30.126   9.509
  703POPC   PO412156  19.321  29.714   9.447
  703POPC   GL112157  19.188  29.816   9.116
  703POPC   GL212158  18.885  29.641   9.014
  703POPC   C1A12159  19.300  29.877   8.734
  703POPC   D2A12160  19.062  29.743   8.417
  703POPC   C3A12161  19.269  29.789   8.033
  703POPC   C4A12162  19.533  30.078   7.821
  703POPC   C1B12163  18.816  30.068   8.875
  703POPC   C2B12164  18.797  30.243   8.491
  703POPC   C3B12165  18.826  30.126   8.106
  703POPC   C4B12166  19.060  30.232   7.802
  704POPC   NC312167  11.650  12.397   9.537
  704POPC   PO412168  11.354  13.018   9.504
  704POPC   GL112169  11.418  12.810   9.103
  704POPC   GL212170  11.709  12.614   9.081
  704POPC   C1A12171  11.187  12.695   8.710
  704POPC   D2A12172  11.026  12.707   8.266
  704POPC   C3A12173  11.299  12.896   7.926
  704POPC   C4A12174  11.597  12.914   7.540
  704POPC   C1B12175  11.702  12.770   8.658
  704POPC   C2B12176  11.533  12.622   8.268
  704POPC   C3B12177  11.666  12.493   7.810
  704POPC   C4B12178  11.879  12.523   7.368
  705POPC   NC312179   8.068   0.799   9.368
  705POPC   PO412180   8.075   1.411   9.643
  705POPC   GL112181   8.090   1.306   9.223
  705POPC   GL212182   8.426   1.180   9.229
  705POPC   C1A12183   8.079   1.195   8.784
  705POPC   D2A12184   8.093   1.117   8.343
  705POPC   C3A12185   7.774   1.324   8.106
  705POPC   C4A12186   7.851   1.620   7.740
  705POPC   C1B12187   8.622   1.075   8.839
  705POPC   C2B12188   8.611   1.199   8.411
  705POPC   C3B12189   8.480   1.064   8.008
  705POPC   C4B12190   8.124   1.176   7.771
  706POPC   NC312191   5.021  22.393   9.737
  706POPC   PO412192   4.778  21.870   9.458
  706POPC   GL112193   4.876  22.164   9.104
  706POPC   GL212194   5.042  22.473   9.214
  706POPC   C1A12195   5.067  22.099   8.680
  706POPC   D2A12196   5.286  22.296   8.307
  706POPC   C3A12197   5.396  22.085   7.912
  706POPC   C4A12198   5.751  21.838   7.867
  706POPC   C1B12199   5.093  22.596   8.772
  706POPC   C2B12200   4.951  22.688   8.329
  706POPC   C3B12201   4.969  22.497   7.894
  706POPC   C4B12202   4.767  22.227   7.549
  707POPC   NC312203  20.260   8.718   9.440
  707POPC   PO412204  19.592   8.515   9.681
  707POPC   GL112205  19.838   8.440   9.271
  707POPC   GL212206  19.857   8.077   9.148
  707POPC   C1A12207  19.819   8.469   8.822
  707POPC   D2A12208  19.633   8.388   8.401
  707POPC   C3A12209  19.632   7.987   8.232
  707POPC   C4A12210  19.694   7.970   7.807
  707POPC   C1B12211  20.059   8.003   8.731
  707POPC   C2B12212  20.383   7.920   8.396
  707POPC   C3B12213  20.427   8.157   8.049
  707POPC   C4B12214  20.139   8.208   7.749
  708POPC   NC312215  20.166  42.593   9.570
  708POPC   PO412216  20.699  42.173   9.573
  708POPC   GL112217  20.649  42.334   9.200
  708POPC   GL212218  20.423  42.587   9.143
  708POPC   C1A12219  20.563  42.206   8.807
  708POPC   D2A12220  20.476  42.452   8.468
  708POPC   C3A12221  20.646  42.279   8.133
  708POPC   C4A12222  20.586  42.119   7.721
  708POPC   C1B12223  20.211  42.816   8.831
  708POPC   C2B12224  20.068  42.769   8.430
  708POPC   C3B12225  20.276  42.668   8.023
  708POPC   C4B12226  20.278  42.499   7.579
  709POPC   NC312227  44.872  20.883   9.481
  709POPC   PO412228  44.735  20.224   9.515
  709POPC   GL112229  44.656  20.498   9.203
  709POPC   GL212230  44.323  20.683   9.188
  709POPC   C1A12231  44.837  20.450   8.820
  709POPC   D2A12232  44.977  20.575   8.433
  709POPC   C3A12233  44.753  20.500   8.070
  709POPC   C4A12234  44.786  20.183   7.776
  709POPC   C1B12235  44.525  20.840   8.795
  709POPC   C2B12236  44.610  20.972   8.344
  709POPC   C3B12237  44.462  20.889   7.913
  709POPC   C4B12238  44.545  20.604   7.584
  710POPC   NC312239  35.722   0.211   9.485
  710POPC   PO412240  35.052   0.538   9.513
  710POPC   GL112241  35.340   0.350   9.161
  710POPC   GL212242  35.533   0.018   9.077
  710POPC   C1A12243  35.665   0.473   8.851
  710POPC   D2A12244  35.722   0.780   8.505
  710POPC   C3A12245  35.491   0.654   8.152
  710POPC   C4A12246  35.578   0.644   7.722
  710POPC   C1B12247  35.377   0.029   8.692
  710POPC   C2B12248  35.274   0.214   8.320
  710POPC   C3B12249  35.415   0.214   7.907
  710POPC   C4B12250  35.406   0.241   7.426
  711POPC   NC312251  39.236  38.945   9.483
  711POPC   PO412252  39.268  39.644   9.545
  711POPC   GL112253  39.230  39.496   9.126
  711POPC   GL212254  39.558  39.504   8.991
  711POPC   C1A12255  39.210  39.204   8.760
  711POPC   D2A12256  39.399  38.898   8.482
  711POPC   C3A12257  39.337  39.035   8.084
  711POPC   C4A12258  39.431  39.092   7.664
  711POPC   C1B12259  39.360  39.762   8.695
  711POPC   C2B12260  39.205  39.552   8.361
  711POPC   C3B12261  39.404  39.514   8.007
  711POPC   C4B12262  39.275  39.568   7.671
  712POPC   NC312263  18.896  14.046   9.465
  712POPC   PO412264  19.220  14.735   9.523
  712POPC   GL112265  19.091  14.450   9.216
  712POPC   GL212266  19.395  14.240   9.271
  712POPC   C1A12267  18.818  14.315   8.817
  712POPC   D2A12268  18.878  14.078   8.413
  712POPC   C3A12269  18.772  14.312   8.036
  712POPC   C4A12270  18.969  14.423   7.645
  712POPC   C1B12271  19.269  14.094   8.861
  712POPC   C2B12272  19.391  14.151   8.439
  712POPC   C3B12273  19.422  13.933   8.053
  712POPC   C4B12274  19.204  13.985   7.653
  713POPC   NC312275  17.222  16.745   9.582
  713POPC   PO412276  16.617  16.905   9.511
  713POPC   GL112277  16.872  16.648   9.157
  713POPC   GL212278  17.251  16.513   9.135
  713POPC   C1A12279  16.679  16.616   8.723
  713POPC   D2A12280  16.646  16.946   8.371
  713POPC   C3A12281  16.836  16.895   7.965
  713POPC   C4A12282  16.698  16.560   7.707
  713POPC   C1B12283  17.188  16.726   8.732
  713POPC   C2B12284  17.021  16.584   8.338
  713POPC   C3B12285  17.181  16.508   7.935
  713POPC   C4B12286  17.148  16.425   7.523
  714POPC   NC312287  33.250  26.459   9.867
  714POPC   PO412288  33.075  25.848   9.507
  714POPC   GL112289  32.957  25.996   9.147
  714POPC   GL212290  33.089  26.349   9.215
  714POPC   C1A12291  33.131  25.732   8.811
  714POPC   D2A12292  33.454  25.728   8.485
  714POPC   C3A12293  33.254  25.654   8.083
  714POPC   C4A12294  33.280  25.777   7.653
  714POPC   C1B12295  33.253  26.220   8.788
  714POPC   C2B12296  33.026  26.037   8.404
  714POPC   C3B12297  33.008  26.109   7.962
  714POPC   C4B12298  33.303  26.341   7.704
  715POPC   NC312299   5.620  35.149   9.840
  715POPC   PO412300   4.964  35.077   9.577
  715POPC   GL112301   5.072  35.281   9.197
  715POPC   GL212302   5.001  35.641   9.187
  715POPC   C1A12303   5.200  35.165   8.777
  715POPC   D2A12304   5.050  35.242   8.352
  715POPC   C3A12305   5.386  35.422   8.090
  715POPC   C4A12306   5.450  35.129   7.760
  715POPC   C1B12307   5.048  35.680   8.718
  715POPC   C2B12308   4.964  35.740   8.257
  715POPC   C3B12309   4.938  35.463   7.863
  715POPC   C4B12310   5.307  35.578   7.585
  716POPC   NC312311  20.337  18.898   9.557
  716POPC   PO412312  20.939  19.133   9.490
  716POPC   GL112313  20.735  18.970   9.154
  716POPC   GL212314  20.476  19.194   9.171
  716POPC   C1A12315  20.807  19.025   8.706
  716POPC   D2A12316  20.929  19.260   8.335
  716POPC   C3A12317  20.732  19.135   7.946
  716POPC   C4A12318  20.832  19.225   7.534
  716POPC   C1B12319  20.385  19.285   8.784
  716POPC   C2B12320  20.411  19.101   8.376
  716POPC   C3B12321  20.238  19.006   7.968
  716POPC   C4B12322  20.327  19.103   7.553
  717POPC   NC312323  43.600  30.666   9.560
  717POPC   PO412324  42.908  30.946   9.711
  717POPC   GL112325  43.105  30.791   9.328
  717POPC   GL212326  43.381  30.995   9.246
  717POPC   C1A12327  43.019  30.537   8.948
  717POPC   D2A12328  42.928  30.514   8.498
  717POPC   C3A12329  43.083  30.674   8.111
  717POPC   C4A12330  42.873  30.735   7.728
  717POPC   C1B12331  43.459  31.155   8.863
  717POPC   C2B12332  43.331  30.991   8.480
  717POPC   C3B12333  43.435  31.062   8.097
  717POPC   C4B12334  43.358  30.911   7.720
  718POPC   NC312335  24.254  22.693   9.560
  718POPC   PO412336  23.591  23.020   9.533
  718POPC   GL112337  23.545  22.876   9.135
  718POPC   GL212338  23.883  22.757   9.204
  718POPC   C1A12339  23.598  22.959   8.724
  718POPC   D2A12340  23.771  22.816   8.351
  718POPC   C3A12341  23.494  22.757   8.026
  718POPC   C4A12342  23.443  23.085   7.754
  718POPC   C1B12343  24.004  22.641   8.824
  718POPC   C2B12344  24.076  22.364   8.514
  718POPC   C3B12345  23.998  22.441   8.089
  718POPC   C4B12346  23.965  22.814   7.848
  719POPC   NC312347  21.360  30.487   9.466
  719POPC   PO412348  20.784  30.922   9.530
  719POPC   GL112349  21.095  30.810   9.179
  719POPC   GL212350  20.983  31.149   9.096
  719POPC   C1A12351  21.463  30.672   8.838
  719POPC   D2A12352  21.597  30.726   8.387
  719POPC   C3A12353  21.451  30.505   8.000
  719POPC   C4A12354  21.399  30.453   7.543
  719POPC   C1B12355  21.064  30.944   8.708
  719POPC   C2B12356  21.266  31.102   8.421
  719POPC   C3B12357  21.163  30.897   8.126
  719POPC   C4B12358  21.169  30.875   7.744
  720POPC   NC312359  27.618  38.291   9.807
  720POPC   PO412360  27.828  38.950   9.683
  720POPC   GL112361  27.761  38.743   9.271
  720POPC   GL212362  27.553  38.457   9.320
  720POPC   C1A12363  27.526  38.715   8.878
  720POPC   D2A12364  27.334  38.727   8.459
  720POPC   C3A12365  27.615  38.659   8.092
  720POPC   C4A12366  27.429  38.767   7.708
  720POPC   C1B12367  27.313  38.229   8.987
  720POPC   C2B12368  27.262  38.191   8.534
  720POPC   C3B12369  27.197  38.365   8.120
  720POPC   C4B12370  27.330  38.248   7.721
  721POPC   NC312371  39.064  13.072   9.653
  721POPC   PO412372  39.458  12.563   9.727
  721POPC   GL112373  39.464  12.777   9.314
  721POPC   GL212374  39.166  12.987   9.170
  721POPC   C1A12375  39.498  12.794   8.855
  721POPC   D2A12376  39.525  13.051   8.479
  721POPC   C3A12377  39.397  12.860   8.079
  721POPC   C4A12378  39.271  13.094   7.734
  721POPC   C1B12379  39.084  13.167   8.753
  721POPC   C2B12380  38.993  13.147   8.300
  721POPC   C3B12381  38.855  12.882   7.969
  721POPC   C4B12382  38.450  12.854   7.740
  722POPC   NC312383  44.043  25.656   9.523
  722POPC   PO412384  43.902  26.340   9.587
  722POPC   GL112385  44.047  26.142   9.204
  722POPC   GL212386  43.773  25.933   9.163
  722POPC   C1A12387  43.910  26.207   8.759
  722POPC   D2A12388  43.660  26.086   8.399
  722POPC   C3A12389  43.743  26.318   8.031
  722POPC   C4A12390  44.005  26.226   7.741
  722POPC   C1B12391  44.011  25.704   8.841
  722POPC   C2B12392  44.142  25.851   8.431
  722POPC   C3B12393  43.972  25.816   8.034
  722POPC   C4B12394  44.219  25.713   7.691
  723POPC   NC312395   7.868  23.390   9.606
  723POPC   PO412396   7.455  23.896   9.458
  723POPC   GL112397   7.315  23.669   9.120
  723POPC   GL212398   7.434  23.377   9.313
  723POPC   C1A12399   7.310  23.778   8.682
  723POPC   D2A12400   7.578  24.080   8.459
  723POPC   C3A12401   7.564  24.123   8.018
  723POPC   C4A12402   7.319  23.866   7.749
  723POPC   C1B12403   7.617  23.287   8.909
  723POPC   C2B12404   7.504  23.344   8.499
  723POPC   C3B12405   7.440  23.516   8.113
  723POPC   C4B12406   7.478  23.380   7.696
  724POPC   NC312407  17.463  32.492   9.515
  724POPC   PO412408  17.564  31.866   9.474
  724POPC   GL112409  17.460  32.085   9.091
  724POPC   GL212410  17.263  32.390   9.056
  724POPC   C1A12411  17.495  31.908   8.678
  724POPC   D2A12412  17.813  31.726   8.384
  724POPC   C3A12413  17.804  31.920   7.985
  724POPC   C4A12414  17.434  31.998   7.767
  724POPC   C1B12415  17.554  32.400   8.691
  724POPC   C2B12416  17.398  32.230   8.297
  724POPC   C3B12417  17.229  32.419   7.963
  724POPC   C4B12418  17.626  32.517   7.821
  725POPC   NC312419  42.142  33.535   9.476
  725POPC   PO412420  42.502  33.978   9.792
  725POPC   GL112421  42.432  33.956   9.296
  725POPC   GL212422  42.102  33.921   9.111
  725POPC   C1A12423  42.541  33.769   8.862
  725POPC   D2A12424  42.688  33.918   8.420
  725POPC   C3A12425  42.558  33.715   8.014
  725POPC   C4A12426  42.373  33.986   7.697
  725POPC   C1B12427  41.984  33.635   8.756
  725POPC   C2B12428  42.086  33.562   8.296
  725POPC   C3B12429  41.975  33.682   7.864
  725POPC   C4B12430  41.807  33.419   7.535
  726POPC   NC312431  42.536  31.119   9.462
  726POPC   PO412432  42.120  31.630   9.605
  726POPC   GL112433  42.284  31.551   9.171
  726POPC   GL212434  42.270  31.210   9.049
  726POPC   C1A12435  42.213  31.681   8.716
  726POPC   D2A12436  42.184  31.863   8.307
  726POPC   C3A12437  41.985  31.589   8.007
  726POPC   C4A12438  42.148  31.433   7.578
  726POPC   C1B12439  42.614  31.394   8.812
  726POPC   C2B12440  42.675  31.579   8.421
  726POPC   C3B12441  42.512  31.517   8.028
  726POPC   C4B12442  42.652  31.557   7.632
  727POPC   NC312443   9.439  44.067   9.370
  727POPC   PO412444   8.811  43.649   9.461
  727POPC   GL112445   8.771  43.651   9.056
  727POPC   GL212446   9.137  43.588   9.073
  727POPC   C1A12447   8.661  43.778   8.644
  727POPC   D2A12448   8.839  43.735   8.232
  727POPC   C3A12449   8.811  44.123   7.962
  727POPC   C4A12450   8.646  44.239   7.550
  727POPC   C1B12451   9.163  43.755   8.686
  727POPC   C2B12452   9.413  43.943   8.412
  727POPC   C3B12453   9.286  43.957   8.013
  727POPC   C4B12454   9.050  43.620   7.774
  728POPC   NC312455  40.575  33.050   9.605
  728POPC   PO412456  41.111  32.864   9.496
  728POPC   GL112457  40.845  32.946   9.145
  728POPC   GL212458  40.472  33.059   9.118
  728POPC   C1A12459  40.722  32.825   8.745
  728POPC   D2A12460  40.785  33.076   8.423
  728POPC   C3A12461  40.740  32.988   8.042
  728POPC   C4A12462  40.804  33.118   7.659
  728POPC   C1B12463  40.411  33.278   8.717
  728POPC   C2B12464  40.437  33.403   8.254
  728POPC   C3B12465  40.346  33.257   7.822
  728POPC   C4B12466  40.428  33.264   7.332
  729POPC   NC312467  42.433   3.711   9.332
  729POPC   PO412468  43.093   3.541   9.596
  729POPC   GL112469  43.159   3.447   9.167
  729POPC   GL212470  42.906   3.673   9.137
  729POPC   C1A12471  43.305   3.610   8.752
  729POPC   D2A12472  43.531   3.846   8.391
  729POPC   C3A12473  43.432   3.675   8.000
  729POPC   C4A12474  43.223   3.668   7.624
  729POPC   C1B12475  42.820   3.852   8.775
  729POPC   C2B12476  43.009   3.854   8.384
  729POPC   C3B12477  42.914   3.690   8.027
  729POPC   C4B12478  42.650   3.860   7.732
  730POPC   NC312479  37.265  27.866   9.458
  730POPC   PO412480  37.952  27.758   9.561
  730POPC   GL112481  37.702  27.731   9.168
  730POPC   GL212482  37.439  27.469   9.206
  730POPC   C1A12483  37.882  27.635   8.743
  730POPC   D2A12484  38.110  27.515   8.371
  730POPC   C3A12485  37.915  27.513   7.978
  730POPC   C4A12486  37.754  27.535   7.576
  730POPC   C1B12487  37.487  27.323   8.801
  730POPC   C2B12488  37.615  27.359   8.361
  730POPC   C3B12489  37.393  27.487   7.950
  730POPC   C4B12490  37.289  27.327   7.503
  731POPC   NC312491  30.150  34.827   9.512
  731POPC   PO412492  29.981  34.228   9.566
  731POPC   GL112493  29.909  34.494   9.187
  731POPC   GL212494  29.932  34.848   9.044
  731POPC   C1A12495  29.740  34.416   8.809
  731POPC   D2A12496  29.870  34.592   8.447
  731POPC   C3A12497  29.768  34.358   8.120
  731POPC   C4A12498  29.960  34.233   7.764
  731POPC   C1B12499  30.219  34.896   8.701
  731POPC   C2B12500  30.240  34.908   8.259
  731POPC   C3B12501  30.026  34.785   7.908
  731POPC   C4B12502  30.366  34.843   7.623
  732POPC   NC312503  43.477  10.651   9.510
  732POPC   PO412504  43.783  10.062   9.492
  732POPC   GL112505  43.962  10.415   9.223
  732POPC   GL212506  43.694  10.611   9.063
  732POPC   C1A12507  44.133  10.610   8.827
  732POPC   D2A12508  43.917  10.612   8.406
  732POPC   C3A12509  44.086  10.647   7.996
  732POPC   C4A12510  43.888  10.602   7.592
  732POPC   C1B12511  43.723  10.932   8.754
  732POPC   C2B12512  43.498  10.925   8.371
  732POPC   C3B12513  43.621  10.886   7.933
  732POPC   C4B12514  43.432  10.965   7.516
  733POPC   NC312515   9.740  24.865   9.991
  733POPC   PO412516   9.635  25.302   9.605
  733POPC   GL112517   9.539  25.089   9.228
  733POPC   GL212518   9.615  25.435   9.090
  733POPC   C1A12519   9.460  25.069   8.788
  733POPC   D2A12520   9.725  25.309   8.493
  733POPC   C3A12521   9.696  25.297   8.047
  733POPC   C4A12522   9.592  24.993   7.748
  733POPC   C1B12523   9.381  25.596   8.738
  733POPC   C2B12524   9.335  25.630   8.286
  733POPC   C3B12525   9.521  25.771   7.886
  733POPC   C4B12526   9.747  25.564   7.583
  734POPC   NC312527  41.368  25.902   9.520
  734POPC   PO412528  41.882  25.431   9.518
  734POPC   GL112529  41.676  25.697   9.164
  734POPC   GL212530  41.612  26.121   9.125
  734POPC   C1A12531  41.608  25.806   8.731
  734POPC   D2A12532  41.837  25.925   8.369
  734POPC   C3A12533  41.691  25.924   7.969
  734POPC   C4A12534  41.822  26.155   7.635
  734POPC   C1B12535  41.449  26.299   8.748
  734POPC   C2B12536  41.376  26.133   8.333
  734POPC   C3B12537  41.464  26.373   7.950
  734POPC   C4B12538  41.387  26.330   7.483
  735POPC   NC312539  17.396  23.682   9.665
  735POPC   PO412540  17.737  24.134   9.283
  735POPC   GL112541  17.637  23.685   9.104
  735POPC   GL212542  17.387  23.437   9.205
  735POPC   C1A12543  17.575  23.848   8.665
  735POPC   D2A12544  17.742  23.869   8.289
  735POPC   C3A12545  17.640  24.077   7.948
  735POPC   C4A12546  17.602  23.812   7.619
  735POPC   C1B12547  17.195  23.528   8.817
  735POPC   C2B12548  17.327  23.514   8.396
  735POPC   C3B12549  17.312  23.624   8.006
  735POPC   C4B12550  17.290  23.360   7.705
  736POPC   NC312551  11.799  17.386   9.599
  736POPC   PO412552  12.250  17.899   9.732
  736POPC   GL112553  12.188  17.680   9.319
  736POPC   GL212554  11.864  17.739   9.208
  736POPC   C1A12555  12.270  17.501   8.880
  736POPC   D2A12556  12.137  17.590   8.423
  736POPC   C3A12557  12.302  17.430   8.023
  736POPC   C4A12558  12.112  17.319   7.619
  736POPC   C1B12559  11.771  17.549   8.795
  736POPC   C2B12560  11.619  17.503   8.386
  736POPC   C3B12561  11.750  17.665   7.992
  736POPC   C4B12562  11.832  17.734   7.538
  737POPC   NC312563  21.729  34.928   9.725
  737POPC   PO412564  22.112  35.554   9.613
  737POPC   GL112565  22.011  35.426   9.152
  737POPC   GL212566  21.677  35.331   9.090
  737POPC   C1A12567  22.017  35.231   8.718
  737POPC   D2A12568  22.023  35.449   8.334
  737POPC   C3A12569  22.120  35.351   7.904
  737POPC   C4A12570  21.928  35.701   7.669
  737POPC   C1B12571  21.574  34.941   8.906
  737POPC   C2B12572  21.679  34.842   8.532
  737POPC   C3B12573  21.797  35.018   8.169
  737POPC   C4B12574  21.735  35.046   7.755
  738POPC   NC312575  16.482  11.104   9.633
  738POPC   PO412576  16.742  11.643   9.437
  738POPC   GL112577  16.808  11.275   9.203
  738POPC   GL212578  16.612  10.975   9.169
  738POPC   C1A12579  16.723  11.374   8.789
  738POPC   D2A12580  16.789  11.600   8.439
  738POPC   C3A12581  16.684  11.590   8.025
  738POPC   C4A12582  16.971  11.561   7.663
  738POPC   C1B12583  16.873  10.882   8.853
  738POPC   C2B12584  16.872  11.012   8.462
  738POPC   C3B12585  16.779  10.937   8.079
  738POPC   C4B12586  16.704  11.144   7.751
  739POPC   NC312587  42.063  30.240   9.413
  739POPC   PO412588  42.584  29.819   9.553
  739POPC   GL112589  42.424  29.707   9.154
  739POPC   GL212590  42.399  30.043   9.081
  739POPC   C1A12591  42.483  29.675   8.708
  739POPC   D2A12592  42.228  29.828   8.351
  739POPC   C3A12593  42.328  29.993   7.961
  739POPC   C4A12594  42.464  30.071   7.548
  739POPC   C1B12595  42.078  30.072   8.776
  739POPC   C2B12596  41.818  30.181   8.440
  739POPC   C3B12597  41.901  30.261   8.007
  739POPC   C4B12598  42.003  30.314   7.556
  740POPC   NC312599   4.208  37.138   9.555
  740POPC   PO412600   4.725  36.845   9.522
  740POPC   GL112601   4.424  36.903   9.149
  740POPC   GL212602   4.149  37.173   9.066
  740POPC   C1A12603   4.381  36.698   8.770
  740POPC   D2A12604   4.272  36.514   8.351
  740POPC   C3A12605   4.229  36.761   7.959
  740POPC   C4A12606   4.511  36.991   7.710
  740POPC   C1B12607   3.973  36.975   8.714
  740POPC   C2B12608   3.866  36.835   8.322
  740POPC   C3B12609   3.962  37.200   8.100
  740POPC   C4B12610   4.095  37.269   7.712
  741POPC   NC312611   9.622  44.542   9.744
  741POPC   PO412612   9.765  43.830   9.609
  741POPC   GL112613   9.860  43.929   9.127
  741POPC   GL212614   9.597  43.782   8.959
  741POPC   C1A12615  10.007  43.900   8.689
  741POPC   D2A12616   9.877  43.754   8.326
  741POPC   C3A12617   9.781  44.076   8.060
  741POPC   C4A12618   9.609  44.201   7.659
  741POPC   C1B12619   9.490  43.365   8.785
  741POPC   C2B12620   9.336  43.299   8.388
  741POPC   C3B12621   9.524  43.498   8.054
  741POPC   C4B12622   9.553  43.691   7.652
  742POPC   NC312623  28.727   1.258   9.586
  742POPC   PO412624  29.375   1.091   9.782
  742POPC   GL112625  29.203   1.014   9.298
  742POPC   GL212626  28.855   0.865   9.262
  742POPC   C1A12627  29.321   1.193   8.850
  742POPC   D2A12628  29.133   1.296   8.427
  742POPC   C3A12629  29.426   1.250   8.059
  742POPC   C4A12630  29.612   0.919   7.789
  742POPC   C1B12631  28.827   1.037   8.836
  742POPC   C2B12632  28.760   0.939   8.384
  742POPC   C3B12633  28.921   1.103   7.980
  742POPC   C4B12634  28.821   1.091   7.496
  743POPC   NC312635   0.991  38.747   9.940
  743POPC   PO412636   1.160  38.308   9.515
  743POPC   GL112637   1.347  38.367   9.137
  743POPC   GL212638   1.206  38.676   9.144
  743POPC   C1A12639   1.190  38.286   8.722
  743POPC   D2A12640   1.027  38.502   8.354
  743POPC   C3A12641   1.041  38.280   7.960
  743POPC   C4A12642   1.143  38.486   7.544
  743POPC   C1B12643   1.309  38.782   8.736
  743POPC   C2B12644   1.530  38.663   8.365
  743POPC   C3B12645   1.343  38.691   7.974
  743POPC   C4B12646   1.458  38.867   7.588
  744POPC   NC312647  20.208  20.719   9.538
  744POPC   PO412648  19.771  20.243   9.478
  744POPC   GL112649  19.721  20.508   9.100
  744POPC   GL212650  19.941  20.794   9.118
  744POPC   C1A12651  19.774  20.536   8.668
  744POPC   D2A12652  19.723  20.345   8.300
  744POPC   C3A12653  19.736  20.651   7.992
  744POPC   C4A12654  19.465  20.894   7.755
  744POPC   C1B12655  20.215  20.752   8.759
  744POPC   C2B12656  20.205  20.559   8.350
  744POPC   C3B12657  20.267  20.706   7.951
  744POPC   C4B12658  20.315  20.474   7.542
  745POPC   NC312659  44.352  36.177   9.489
  745POPC   PO412660  44.936  35.788   9.560
  745POPC   GL112661  44.671  35.897   9.210
  745POPC   GL212662  44.712  36.275   9.139
  745POPC   C1A12663  44.713  35.873   8.792
  745POPC   D2A12664  44.682  36.069   8.422
  745POPC   C3A12665  44.835  35.879   8.066
  745POPC   C4A12666  44.898  36.137   7.729
  745POPC   C1B12667  44.505  36.492   8.801
  745POPC   C2B12668  44.371  36.454   8.384
  745POPC   C3B12669  44.499  36.565   8.002
  745POPC   C4B12670  44.225  36.673   7.705
  746POPC   NC312671   5.835  31.574   9.598
  746POPC   PO412672   5.540  32.070   9.232
  746POPC   GL112673   5.815  31.714   9.088
  746POPC   GL212674   6.162  31.670   9.132
  746POPC   C1A12675   5.760  31.456   8.712
  746POPC   D2A12676   5.538  31.395   8.312
  746POPC   C3A12677   5.644  31.492   7.876
  746POPC   C4A12678   5.836  31.243   7.525
  746POPC   C1B12679   6.239  31.333   8.809
  746POPC   C2B12680   6.070  31.193   8.390
  746POPC   C3B12681   6.136  31.357   7.971
  746POPC   C4B12682   6.521  31.520   7.779
  747POPC   NC312683  39.058   3.096   9.433
  747POPC   PO412684  39.449   3.648   9.390
  747POPC   GL112685  39.217   3.634   9.024
  747POPC   GL212686  38.872   3.629   9.063
  747POPC   C1A12687  39.292   3.582   8.593
  747POPC   D2A12688  39.545   3.727   8.262
  747POPC   C3A12689  39.337   3.535   7.915
  747POPC   C4A12690  39.489   3.312   7.530
  747POPC   C1B12691  38.852   3.860   8.663
  747POPC   C2B12692  38.900   3.773   8.206
  747POPC   C3B12693  38.900   3.828   7.753
  747POPC   C4B12694  39.047   3.536   7.449
  748POPC   NC312695  32.060  29.637   9.367
  748POPC   PO412696  32.068  30.232   9.690
  748POPC   GL112697  32.228  30.074   9.216
  748POPC   GL212698  32.489  29.844   9.162
  748POPC   C1A12699  32.103  29.799   8.759
  748POPC   D2A12700  31.852  29.801   8.362
  748POPC   C3A12701  32.124  29.766   7.990
  748POPC   C4A12702  32.016  29.837   7.535
  748POPC   C1B12703  32.467  30.139   8.768
  748POPC   C2B12704  32.434  29.967   8.387
  748POPC   C3B12705  32.565  30.069   8.016
  748POPC   C4B12706  32.499  29.859   7.661
  749POPC   NC312707  11.870   5.316   9.444
  749POPC   PO412708  12.421   5.032   9.479
  749POPC   GL112709  12.223   4.903   9.130
  749POPC   GL212710  11.908   4.860   9.231
  749POPC   C1A12711  12.082   5.121   8.767
  749POPC   D2A12712  12.037   5.190   8.313
  749POPC   C3A12713  12.232   4.919   7.975
  749POPC   C4A12714  12.183   4.988   7.507
  749POPC   C1B12715  11.607   4.979   8.914
  749POPC   C2B12716  11.556   4.797   8.518
  749POPC   C3B12717  11.754   4.777   8.124
  749POPC   C4B12718  11.779   5.121   7.833
  750POPC   NC312719  16.919  37.562   9.574
  750POPC   PO412720  16.361  37.947   9.544
  750POPC   GL112721  16.497  37.607   9.227
  750POPC   GL212722  16.845  37.630   9.069
  750POPC   C1A12723  16.489  37.395   8.813
  750POPC   D2A12724  16.708  37.502   8.448
  750POPC   C3A12725  16.771  37.376   7.998
  750POPC   C4A12726  16.582  37.172   7.644
  750POPC   C1B12727  17.007  37.862   8.717
  750POPC   C2B12728  16.801  38.030   8.397
  750POPC   C3B12729  16.705  37.867   8.095
  750POPC   C4B12730  17.049  37.820   7.853
  751POPC   NC312731  28.584  10.899   9.528
  751POPC   PO412732  28.175  11.392   9.719
  751POPC   GL112733  28.206  11.371   9.233
  751POPC   GL212734  28.164  11.057   9.213
  751POPC   C1A12735  28.517  11.328   8.832
  751POPC   D2A12736  28.486  11.608   8.487
  751POPC   C3A12737  28.458  11.428   8.077
  751POPC   C4A12738  28.462  11.481   7.647
  751POPC   C1B12739  28.045  11.165   8.779
  751POPC   C2B12740  28.321  11.015   8.461
  751POPC   C3B12741  28.445  10.921   8.054
  751POPC   C4B12742  28.232  11.028   7.689
  752POPC   NC312743  25.128  13.365   9.560
  752POPC   PO412744  25.375  12.683   9.541
  752POPC   GL112745  25.307  12.816   9.126
  752POPC   GL212746  24.969  12.883   9.122
  752POPC   C1A12747  25.253  12.905   8.694
  752POPC   D2A12748  25.346  12.680   8.336
  752POPC   C3A12749  25.201  12.845   7.980
  752POPC   C4A12750  25.506  12.811   7.674
  752POPC   C1B12751  25.028  12.459   8.902
  752POPC   C2B12752  25.096  12.276   8.529
  752POPC   C3B12753  25.097  12.275   8.097
  752POPC   C4B12754  25.119  12.428   7.694
  753POPC   NC312755  40.075  38.816   9.604
  753POPC   PO412756  40.110  39.532   9.529
  753POPC   GL112757  40.029  39.387   9.143
  753POPC   GL212758  39.858  39.086   9.188
  753POPC   C1A12759  39.984  39.328   8.731
  753POPC   D2A12760  39.656  39.332   8.486
  753POPC   C3A12761  39.862  39.330   8.121
  753POPC   C4A12762  39.879  39.309   7.707
  753POPC   C1B12763  39.812  38.850   8.790
  753POPC   C2B12764  39.949  38.875   8.368
  753POPC   C3B12765  39.789  38.818   7.944
  753POPC   C4B12766  39.983  38.845   7.522
  754POPC   NC312767   5.858  10.265   9.384
  754POPC   PO412768   6.006   9.723   9.789
  754POPC   GL112769   5.819   9.750   9.346
  754POPC   GL212770   6.096   9.630   9.148
  754POPC   C1A12771   5.762   9.854   8.866
  754POPC   D2A12772   5.952   9.698   8.524
  754POPC   C3A12773   5.681   9.705   8.195
  754POPC   C4A12774   5.767   9.700   7.750
  754POPC   C1B12775   5.855   9.324   8.868
  754POPC   C2B12776   5.811   9.218   8.441
  754POPC   C3B12777   6.049   9.384   8.090
  754POPC   C4B12778   6.118   9.295   7.670
  755POPC   NC312779  10.228  17.149   9.471
  755POPC   PO412780   9.520  16.922   9.401
  755POPC   GL112781   9.750  16.788   9.089
  755POPC   GL212782   9.885  17.173   9.077
  755POPC   C1A12783   9.744  16.514   8.702
  755POPC   D2A12784   9.818  16.325   8.301
  755POPC   C3A12785   9.663  16.516   7.928
  755POPC   C4A12786   9.969  16.635   7.622
  755POPC   C1B12787   9.835  17.033   8.667
  755POPC   C2B12788   9.722  16.859   8.302
  755POPC   C3B12789   9.786  17.019   7.917
  755POPC   C4B12790   9.499  17.303   7.805
  756POPC   NC312791  40.033  28.183   9.752
  756POPC   PO412792  40.266  27.755   9.328
  756POPC   GL112793  40.047  28.114   9.149
  756POPC   GL212794  39.713  28.036   9.071
  756POPC   C1A12795  40.216  28.363   8.800
  756POPC   D2A12796  40.102  28.606   8.454
  756POPC   C3A12797  40.213  28.356   8.148
  756POPC   C4A12798  40.243  28.375   7.739
  756POPC   C1B12799  39.666  28.427   8.818
  756POPC   C2B12800  39.602  28.689   8.452
  756POPC   C3B12801  39.753  28.627   8.044
  756POPC   C4B12802  39.811  28.181   7.905
  757POPC   NC312803  11.542  40.875  10.158
  757POPC   PO412804  11.095  41.000   9.623
  757POPC   GL112805  11.298  40.890   9.226
  757POPC   GL212806  11.606  41.068   9.169
  757POPC   C1A12807  11.174  40.898   8.779
  757POPC   D2A12808  11.244  40.734   8.368
  757POPC   C3A12809  11.143  40.839   7.941
  757POPC   C4A12810  10.999  40.564   7.576
  757POPC   C1B12811  11.515  41.270   8.771
  757POPC   C2B12812  11.425  41.221   8.312
  757POPC   C3B12813  11.489  41.224   7.865
  757POPC   C4B12814  11.773  41.021   7.619
  758POPC   NC312815  21.786   9.702   9.678
  758POPC   PO412816  21.149   9.399   9.639
  758POPC   GL112817  21.370   9.541   9.219
  758POPC   GL212818  21.390   9.905   9.126
  758POPC   C1A12819  21.222   9.550   8.789
  758POPC   D2A12820  21.404   9.704   8.435
  758POPC   C3A12821  21.213   9.658   8.059
  758POPC   C4A12822  20.987   9.456   7.742
  758POPC   C1B12823  21.606  10.004   8.791
  758POPC   C2B12824  21.714  10.153   8.402
  758POPC   C3B12825  21.593  10.034   8.006
  758POPC   C4B12826  21.814   9.984   7.673
  759POPC   NC312827  25.527  36.717   9.438
  759POPC   PO412828  25.091  37.203   9.455
  759POPC   GL112829  25.225  36.981   9.120
  759POPC   GL212830  25.506  37.077   9.043
  759POPC   C1A12831  25.296  36.712   8.757
  759POPC   D2A12832  25.172  36.745   8.351
  759POPC   C3A12833  25.438  36.669   8.009
  759POPC   C4A12834  25.351  36.780   7.579
  759POPC   C1B12835  25.417  37.225   8.660
  759POPC   C2B12836  25.540  37.118   8.245
  759POPC   C3B12837  25.436  37.200   7.828
  759POPC   C4B12838  25.626  37.240   7.417
  760POPC   NC312839  43.093  16.297   9.624
  760POPC   PO412840  43.512  15.741   9.332
  760POPC   GL112841  43.273  16.044   9.196
  760POPC   GL212842  43.464  16.329   9.261
  760POPC   C1A12843  42.944  16.009   8.864
  760POPC   D2A12844  42.823  15.848   8.460
  760POPC   C3A12845  43.050  15.877   8.107
  760POPC   C4A12846  43.332  15.655   7.840
  760POPC   C1B12847  43.517  16.352   8.815
  760POPC   C2B12848  43.271  16.247   8.466
  760POPC   C3B12849  43.086  16.416   8.102
  760POPC   C4B12850  43.227  16.180   7.746
  761POPC   NC312851  10.069   1.937   9.557
  761POPC   PO412852  10.629   2.235   9.503
  761POPC   GL112853  10.456   2.151   9.142
  761POPC   GL212854  10.345   1.803   9.094
  761POPC   C1A12855  10.673   2.063   8.770
  761POPC   D2A12856  10.524   2.145   8.365
  761POPC   C3A12857  10.777   2.071   8.007
  761POPC   C4A12858  10.612   2.145   7.600
  761POPC   C1B12859  10.188   1.914   8.693
  761POPC   C2B12860  10.119   1.767   8.302
  761POPC   C3B12861  10.286   1.914   7.942
  761POPC   C4B12862  10.441   1.659   7.594
  762POPC   NC312863  19.815  44.908   9.878
  762POPC   PO412864  19.666   0.440   9.498
  762POPC   GL112865  19.821   0.508   9.109
  762POPC   GL212866  20.168   0.433   9.194
  762POPC   C1A12867  19.630   0.499   8.694
  762POPC   D2A12868  19.434   0.229   8.390
  762POPC   C3A12869  19.605   0.324   8.030
  762POPC   C4A12870  19.497   0.224   7.635
  762POPC   C1B12871  20.111   0.167   8.828
  762POPC   C2B12872  19.939   0.175   8.433
  762POPC   C3B12873  20.075   0.152   8.040
  762POPC   C4B12874  19.988   0.391   7.677
  763POPC   NC312875   7.780  39.865   9.479
  763POPC   PO412876   7.122  39.836   9.399
  763POPC   GL112877   7.354  40.125   9.108
  763POPC   GL212878   7.685  40.128   9.029
  763POPC   C1A12879   7.340  40.297   8.681
  763POPC   D2A12880   7.343  40.045   8.305
  763POPC   C3A12881   7.068  40.015   7.960
  763POPC   C4A12882   7.146  39.831   7.547
  763POPC   C1B12883   7.765  40.016   8.626
  763POPC   C2B12884   7.770  40.307   8.263
  763POPC   C3B12885   7.477  40.382   7.946
  763POPC   C4B12886   7.572  40.067   7.671
  764POPC   NC312887  23.825   8.572   9.942
  764POPC   PO412888  24.330   9.002   9.583
  764POPC   GL112889  24.308   9.009   9.130
  764POPC   GL212890  24.184   8.666   8.978
  764POPC   C1A12891  24.552   9.229   8.824
  764POPC   D2A12892  24.398   9.216   8.401
  764POPC   C3A12893  24.580   9.430   8.077
  764POPC   C4A12894  24.549   9.227   7.695
  764POPC   C1B12895  24.454   8.750   8.642
  764POPC   C2B12896  24.301   8.723   8.226
  764POPC   C3B12897  24.247   8.775   7.782
  764POPC   C4B12898  24.254   8.522   7.407
  765POPC   NC312899  36.888   8.924   9.622
  765POPC   PO412900  37.396   9.331   9.570
  765POPC   GL112901  37.144   9.128   9.222
  765POPC   GL212902  37.165   8.772   9.200
  765POPC   C1A12903  36.792   9.015   8.904
  765POPC   D2A12904  36.857   8.891   8.451
  765POPC   C3A12905  36.670   8.989   8.037
  765POPC   C4A12906  36.678   9.279   7.670
  765POPC   C1B12907  37.279   8.915   8.770
  765POPC   C2B12908  37.313   9.091   8.328
  765POPC   C3B12909  37.155   9.155   7.880
  765POPC   C4B12910  37.145   9.488   7.500
  766POPC   NC312911  34.620  41.026  10.000
  766POPC   PO412912  34.266  40.578   9.595
  766POPC   GL112913  34.466  40.710   9.218
  766POPC   GL212914  34.663  41.002   9.350
  766POPC   C1A12915  34.651  40.574   8.805
  766POPC   D2A12916  34.834  40.844   8.512
  766POPC   C3A12917  34.891  40.915   8.081
  766POPC   C4A12918  34.697  40.872   7.703
  766POPC   C1B12919  34.598  41.077   8.899
  766POPC   C2B12920  34.536  41.251   8.466
  766POPC   C3B12921  34.396  41.069   8.073
  766POPC   C4B12922  34.269  41.165   7.671
  767POPC   NC312923   6.695  28.680   9.448
  767POPC   PO412924   7.044  28.057   9.612
  767POPC   GL112925   6.701  28.186   9.279
  767POPC   GL212926   6.322  28.372   9.279
  767POPC   C1A12927   6.476  28.081   8.903
  767POPC   D2A12928   6.542  27.970   8.495
  767POPC   C3A12929   6.577  28.263   8.199
  767POPC   C4A12930   6.547  28.312   7.779
  767POPC   C1B12931   6.434  28.614   8.873
  767POPC   C2B12932   6.571  28.735   8.445
  767POPC   C3B12933   6.338  28.718   8.069
  767POPC   C4B12934   6.392  28.752   7.618
  768POPC   NC312935  14.219  39.793   9.456
  768POPC   PO412936  14.782  40.147   9.676
  768POPC   GL112937  14.649  39.985   9.245
  768POPC   GL212938  14.514  40.238   9.021
  768POPC   C1A12939  14.548  39.764   8.830
  768POPC   D2A12940  14.515  39.988   8.415
  768POPC   C3A12941  14.377  39.769   8.026
  768POPC   C4A12942  14.518  39.816   7.624
  768POPC   C1B12943  14.136  40.049   8.797
  768POPC   C2B12944  14.027  40.136   8.389
  768POPC   C3B12945  13.925  39.959   8.037
  768POPC   C4B12946  14.073  40.028   7.631
  769POPC   NC312947  11.188  39.626   9.461
  769POPC   PO412948  11.628  39.206   9.525
  769POPC   GL112949  11.406  39.326   9.137
  769POPC   GL212950  11.600  39.226   8.884
  769POPC   C1A12951  11.210  39.520   8.762
  769POPC   D2A12952  11.420  39.532   8.349
  769POPC   C3A12953  11.317  39.313   7.982
  769POPC   C4A12954  10.975  39.178   7.718
  769POPC   C1B12955  11.190  39.020   8.742
  769POPC   C2B12956  11.078  39.071   8.345
  769POPC   C3B12957  11.206  38.817   8.008
  769POPC   C4B12958  11.273  38.768   7.584
  770POPC   NC312959  30.508  36.224   9.366
  770POPC   PO412960  31.113  35.923   9.472
  770POPC   GL112961  30.885  35.993   9.104
  770POPC   GL212962  30.656  35.732   9.142
  770POPC   C1A12963  30.721  36.181   8.711
  770POPC   D2A12964  30.788  35.992   8.294
  770POPC   C3A12965  30.726  36.270   7.914
  770POPC   C4A12966  30.715  36.486   7.490
  770POPC   C1B12967  30.589  35.696   8.729
  770POPC   C2B12968  30.296  35.870   8.479
  770POPC   C3B12969  30.306  36.107   8.150
  770POPC   C4B12970  30.296  36.028   7.733
  771POPC   NC312971  36.117  37.833   9.631
  771POPC   PO412972  36.607  37.367   9.529
  771POPC   GL112973  36.328  37.645   9.230
  771POPC   GL212974  35.930  37.573   9.255
  771POPC   C1A12975  36.447  37.844   8.833
  771POPC   D2A12976  36.661  37.583   8.509
  771POPC   C3A12977  36.501  37.637   8.120
  771POPC   C4A12978  36.334  37.533   7.718
  771POPC   C1B12979  35.940  37.744   8.887
  771POPC   C2B12980  35.852  37.637   8.496
  771POPC   C3B12981  35.987  37.705   8.086
  771POPC   C4B12982  35.846  37.619   7.676
  772POPC   NC312983  29.152  16.572   9.433
  772POPC   PO412984  28.926  17.192   9.579
  772POPC   GL112985  29.190  17.119   9.205
  772POPC   GL212986  29.098  16.820   8.991
  772POPC   C1A12987  29.383  17.198   8.791
  772POPC   D2A12988  29.424  16.887   8.509
  772POPC   C3A12989  29.558  16.866   8.117
  772POPC   C4A12990  29.360  16.552   7.849
  772POPC   C1B12991  29.331  16.458   8.754
  772POPC   C2B12992  29.226  16.396   8.326
  772POPC   C3B12993  28.843  16.420   8.094
  772POPC   C4B12994  28.627  16.439   7.712
  773POPC   NC312995   3.509  41.734   9.636
  773POPC   PO412996   3.647  41.298   9.110
  773POPC   GL112997   3.477  41.652   9.092
  773POPC   GL212998   3.814  41.768   9.229
  773POPC   C1A12999   3.241  41.590   8.706
  773POPC   D2A13000   3.285  41.308   8.364
  773POPC   C3A13001   3.227  41.559   8.048
  773POPC   C4A13002   3.433  41.783   7.721
  773POPC   C1B13003   3.965  41.775   8.830
  773POPC   C2B13004   3.722  41.571   8.517
  773POPC   C3B13005   3.690  41.779   8.167
  773POPC   C4B13006   3.939  41.732   7.797
  774POPC   NC313007  22.424  13.354   9.562
  774POPC   PO413008  21.811  13.158   9.619
  774POPC   GL113009  21.968  13.437   9.260
  774POPC   GL213010  22.029  13.795   9.225
  774POPC   C1A13011  22.242  13.502   8.871
  774POPC   D2A13012  22.415  13.650   8.469
  774POPC   C3A13013  22.418  13.383   8.130
  774POPC   C4A13014  22.228  13.395   7.715
  774POPC   C1B13015  21.930  13.903   8.779
  774POPC   C2B13016  22.020  14.039   8.362
  774POPC   C3B13017  22.146  13.838   8.022
  774POPC   C4B13018  21.979  13.825   7.644
  775POPC   NC313019  14.809  17.228   9.291
  775POPC   PO413020  15.376  17.583   9.638
  775POPC   GL113021  15.249  17.621   9.254
  775POPC   GL213022  15.316  17.292   9.199
  775POPC   C1A13023  15.152  17.643   8.829
  775POPC   D2A13024  15.477  17.640   8.541
  775POPC   C3A13025  15.366  17.654   8.134
  775POPC   C4A13026  15.501  17.622   7.734
  775POPC   C1B13027  15.350  17.161   8.756
  775POPC   C2B13028  15.115  17.259   8.393
  775POPC   C3B13029  15.166  17.211   7.954
  775POPC   C4B13030  14.993  17.578   7.745
  776POPC   NC313031   8.973  14.008   9.292
  776POPC   PO413032   8.812  14.673   9.501
  776POPC   GL113033   9.035  14.580   9.087
  776POPC   GL213034   9.230  14.287   8.918
  776POPC   C1A13035   9.002  14.626   8.616
  776POPC   D2A13036   9.112  14.378   8.249
  776POPC   C3A13037   9.246  14.533   7.859
  776POPC   C4A13038   9.030  14.564   7.472
  776POPC   C1B13039   8.868  14.139   8.648
  776POPC   C2B13040   8.630  14.163   8.240
  776POPC   C3B13041   8.849  14.228   7.833
  776POPC   C4B13042   9.055  13.934   7.547
  777POPC   NC313043  22.168   7.154   9.638
  777POPC   PO413044  22.062   7.817   9.597
  777POPC   GL113045  22.192   7.490   9.252
  777POPC   GL213046  21.927   7.244   9.199
  777POPC   C1A13047  22.265   7.563   8.813
  777POPC   D2A13048  22.214   7.387   8.416
  777POPC   C3A13049  22.127   7.665   8.106
  777POPC   C4A13050  22.296   7.702   7.712
  777POPC   C1B13051  21.802   7.241   8.793
  777POPC   C2B13052  21.762   7.132   8.375
  777POPC   C3B13053  21.950   7.194   7.991
  777POPC   C4B13054  21.667   7.127   7.688
  778POPC   NC313055  31.722  19.910   9.876
  778POPC   PO413056  31.122  19.812   9.549
  778POPC   GL113057  31.207  19.735   9.068
  778POPC   GL213058  31.224  20.103   9.033
  778POPC   C1A13059  31.541  19.499   8.835
  778POPC   D2A13060  31.776  19.578   8.463
  778POPC   C3A13061  31.509  19.629   8.109
  778POPC   C4A13062  31.676  19.794   7.742
  778POPC   C1B13063  31.363  19.922   8.631
  778POPC   C2B13064  31.158  19.985   8.273
  778POPC   C3B13065  31.280  20.067   7.884
  778POPC   C4B13066  31.459  20.174   7.470
  779POPC   NC313067  20.401  25.483   9.806
  779POPC   PO413068  20.913  25.149   9.442
  779POPC   GL113069  20.725  25.262   9.100
  779POPC   GL213070  20.884  25.651   9.123
  779POPC   C1A13071  20.471  25.135   8.731
  779POPC   D2A13072  20.276  25.293   8.339
  779POPC   C3A13073  20.518  25.219   7.955
  779POPC   C4A13074  20.677  25.007   7.615
  779POPC   C1B13075  20.856  25.521   8.688
  779POPC   C2B13076  20.887  25.316   8.317
  779POPC   C3B13077  20.983  25.478   7.933
  779POPC   C4B13078  20.860  25.463   7.538
  780POPC   NC313079   1.446   6.993   9.467
  780POPC   PO413080   1.155   6.387   9.505
  780POPC   GL113081   1.375   6.428   9.162
  780POPC   GL213082   1.221   6.721   9.060
  780POPC   C1A13083   1.462   6.360   8.739
  780POPC   D2A13084   1.255   6.304   8.336
  780POPC   C3A13085   1.272   6.701   8.126
  780POPC   C4A13086   1.354   6.833   7.718
  780POPC   C1B13087   0.959   6.501   8.732
  780POPC   C2B13088   0.743   6.437   8.334
  780POPC   C3B13089   0.885   6.449   7.910
  780POPC   C4B13090   0.834   6.691   7.555
  781POPC   NC313091   8.360  27.939   9.342
  781POPC   PO413092   7.998  28.294   9.797
  781POPC   GL113093   8.006  28.362   9.290
  781POPC   GL213094   8.319  28.333   9.056
  781POPC   C1A13095   7.900  28.388   8.821
  781POPC   D2A13096   8.148  28.314   8.466
  781POPC   C3A13097   8.043  28.292   8.038
  781POPC   C4A13098   8.090  28.556   7.678
  781POPC   C1B13099   8.497  28.028   8.714
  781POPC   C2B13100   8.543  28.109   8.242
  781POPC   C3B13101   8.513  28.239   7.777
  781POPC   C4B13102   8.567  28.126   7.310
  782POPC   NC313103  24.799  10.511   9.446
  782POPC   PO413104  24.075  10.699   9.494
  782POPC   GL113105  24.368  10.651   9.166
  782POPC   GL213106  24.367  10.286   9.203
  782POPC   C1A13107  24.549  10.739   8.735
  782POPC   D2A13108  24.721  10.793   8.304
  782POPC   C3A13109  24.463  10.900   7.924
  782POPC   C4A13110  24.523  10.982   7.473
  782POPC   C1B13111  24.215  10.349   8.779
  782POPC   C2B13112  24.425  10.314   8.380
  782POPC   C3B13113  24.411  10.263   7.950
  782POPC   C4B13114  24.401  10.498   7.561
  783POPC   NC313115  25.912   9.890   9.811
  783POPC   PO413116  26.605   9.816   9.633
  783POPC   GL113117  26.281   9.607   9.285
  783POPC   GL213118  25.947   9.812   9.227
  783POPC   C1A13119  26.218   9.677   8.817
  783POPC   D2A13120  26.145   9.848   8.386
  783POPC   C3A13121  26.304   9.687   8.016
  783POPC   C4A13122  26.061   9.578   7.663
  783POPC   C1B13123  25.774   9.947   8.803
  783POPC   C2B13124  25.668  10.027   8.355
  783POPC   C3B13125  25.767   9.960   7.902
  783POPC   C4B13126  25.714   9.900   7.421
  784POPC   NC313127  22.389  26.685   9.598
  784POPC   PO413128  21.987  27.149   9.312
  784POPC   GL113129  22.240  26.865   9.119
  784POPC   GL213130  22.560  26.964   9.200
  784POPC   C1A13131  22.151  26.619   8.742
  784POPC   D2A13132  21.829  26.434   8.441
  784POPC   C3A13133  21.980  26.572   8.037
  784POPC   C4A13134  22.057  26.969   7.817
  784POPC   C1B13135  22.631  26.908   8.784
  784POPC   C2B13136  22.554  26.729   8.397
  784POPC   C3B13137  22.523  26.859   8.000
  784POPC   C4B13138  22.505  27.145   7.673
  785POPC   NC313139  22.051  34.126   9.534
  785POPC   PO413140  21.820  33.437   9.482
  785POPC   GL113141  22.130  33.718   9.216
  785POPC   GL213142  22.041  34.027   9.037
  785POPC   C1A13143  22.384  33.700   8.832
  785POPC   D2A13144  22.508  33.836   8.394
  785POPC   C3A13145  22.199  33.755   8.048
  785POPC   C4A13146  22.284  33.530   7.664
  785POPC   C1B13147  22.095  34.059   8.605
  785POPC   C2B13148  21.850  34.086   8.271
  785POPC   C3B13149  21.842  34.123   7.846
  785POPC   C4B13150  22.112  34.039   7.524
  786POPC   NC313151  25.976  25.473   9.387
  786POPC   PO413152  26.441  24.968   9.561
  786POPC   GL113153  26.422  25.152   9.156
  786POPC   GL213154  26.367  25.501   9.044
  786POPC   C1A13155  26.172  25.101   8.781
  786POPC   D2A13156  26.332  25.153   8.362
  786POPC   C3A13157  26.083  25.090   8.044
  786POPC   C4A13158  25.884  25.150   7.669
  786POPC   C1B13159  26.112  25.584   8.655
  786POPC   C2B13160  25.873  25.491   8.282
  786POPC   C3B13161  25.992  25.618   7.855
  786POPC   C4B13162  26.383  25.820   7.677
  787POPC   NC313163  20.252  32.251   9.385
  787POPC   PO413164  19.689  32.263   9.482
  787POPC   GL113165  19.821  32.104   9.109
  787POPC   GL213166  19.953  32.422   9.018
  787POPC   C1A13167  19.649  32.078   8.717
  787POPC   D2A13168  19.423  32.338   8.388
  787POPC   C3A13169  19.383  32.245   7.932
  787POPC   C4A13170  19.590  32.175   7.481
  787POPC   C1B13171  19.838  32.543   8.630
  787POPC   C2B13172  20.004  32.263   8.345
  787POPC   C3B13173  19.916  32.250   7.938
  787POPC   C4B13174  19.715  32.583   7.751
  788POPC   NC313175   6.300  41.300   9.524
  788POPC   PO413176   5.697  41.581   9.703
  788POPC   GL113177   5.722  41.533   9.217
  788POPC   GL213178   5.958  41.275   9.146
  788POPC   C1A13179   5.809  41.800   8.797
  788POPC   D2A13180   6.108  41.922   8.413
  788POPC   C3A13181   5.969  41.854   7.954
  788POPC   C4A13182   5.640  41.633   7.720
  788POPC   C1B13183   5.788  41.308   8.739
  788POPC   C2B13184   5.747  41.521   8.348
  788POPC   C3B13185   5.899  41.321   8.012
  788POPC   C4B13186   6.093  41.431   7.632
  789POPC   NC313187  11.854   8.704   9.338
  789POPC   PO413188  12.260   9.171   9.315
  789POPC   GL113189  12.094   8.976   8.982
  789POPC   GL213190  11.844   9.238   8.968
  789POPC   C1A13191  12.018   8.661   8.648
  789POPC   D2A13192  11.819   8.689   8.231
  789POPC   C3A13193  12.119   8.673   7.866
  789POPC   C4A13194  12.387   9.078   7.741
  789POPC   C1B13195  11.993   9.149   8.530
  789POPC   C2B13196  12.261   9.300   8.224
  789POPC   C3B13197  11.961   9.141   7.986
  789POPC   C4B13198  11.881   9.056   7.567
  790POPC   NC313199  33.294   5.728   9.543
  790POPC   PO413200  33.870   5.911   9.756
  790POPC   GL113201  33.742   5.807   9.306
  790POPC   GL213202  34.024   5.748   9.092
  790POPC   C1A13203  33.547   5.757   8.878
  790POPC   D2A13204  33.773   5.875   8.479
  790POPC   C3A13205  33.561   5.985   8.074
  790POPC   C4A13206  33.748   5.917   7.642
  790POPC   C1B13207  34.216   6.065   8.843
  790POPC   C2B13208  34.114   6.257   8.465
  790POPC   C3B13209  34.063   6.094   8.085
  790POPC   C4B13210  34.245   6.158   7.731
  791POPC   NC313211  15.204  39.824   9.781
  791POPC   PO413212  15.481  40.209   9.319
  791POPC   GL113213  15.404  39.929   9.058
  791POPC   GL213214  15.131  39.782   9.252
  791POPC   C1A13215  15.288  40.110   8.666
  791POPC   D2A13216  15.455  40.298   8.284
  791POPC   C3A13217  15.284  40.187   7.927
  791POPC   C4A13218  14.970  40.496   7.827
  791POPC   C1B13219  15.039  39.653   8.812
  791POPC   C2B13220  15.045  39.760   8.367
  791POPC   C3B13221  14.854  39.952   8.015
  791POPC   C4B13222  15.022  39.826   7.630
  792POPC   NC313223  10.704   6.479   9.913
  792POPC   PO413224  10.739   6.549   9.300
  792POPC   GL113225  10.458   6.453   9.048
  792POPC   GL213226  10.347   6.137   9.080
  792POPC   C1A13227  10.492   6.603   8.638
  792POPC   D2A13228  10.722   6.503   8.290
  792POPC   C3A13229  10.669   6.794   7.963
  792POPC   C4A13230  10.708   6.624   7.587
  792POPC   C1B13231  10.154   6.197   8.672
  792POPC   C2B13232  10.182   6.431   8.256
  792POPC   C3B13233  10.374   6.337   7.853
  792POPC   C4B13234  10.387   6.272   7.378
  793POPC   NC313235  44.549  15.981   9.536
  793POPC   PO413236   0.182  15.880   9.625
  793POPC   GL113237  44.981  15.977   9.228
  793POPC   GL213238  44.774  15.674   9.194
  793POPC   C1A13239  44.731  16.033   8.831
  793POPC   D2A13240  44.708  16.244   8.412
  793POPC   C3A13241  44.692  16.083   7.979
  793POPC   C4A13242  44.295  15.932   7.821
  793POPC   C1B13243  44.693  15.530   8.747
  793POPC   C2B13244  44.587  15.658   8.314
  793POPC   C3B13245  44.657  15.562   7.873
  793POPC   C4B13246   0.031  15.448   7.651
  794POPC   NC313247  25.851  42.193   9.458
  794POPC   PO413248  25.242  42.631   9.406
  794POPC   GL113249  25.421  42.357   9.124
  794POPC   GL213250  25.286  42.051   9.307
  794POPC   C1A13251  25.335  42.438   8.681
  794POPC   D2A13252  25.057  42.485   8.329
  794POPC   C3A13253  25.226  42.397   7.928
  794POPC   C4A13254  25.444  42.712   7.673
  794POPC   C1B13255  25.110  41.986   8.885
  794POPC   C2B13256  25.159  41.976   8.437
  794POPC   C3B13257  25.492  41.936   8.122
  794POPC   C4B13258  25.512  42.018   7.677
  795POPC   NC313259  35.867  17.059   9.498
  795POPC   PO413260  36.286  16.634   9.718
  795POPC   GL113261  36.135  16.692   9.264
  795POPC   GL213262  36.188  17.001   9.126
  795POPC   C1A13263  35.908  16.679   8.832
  795POPC   D2A13264  36.060  16.537   8.425
  795POPC   C3A13265  35.872  16.414   8.039
  795POPC   C4A13266  36.195  16.446   7.744
  795POPC   C1B13267  36.429  17.109   8.810
  795POPC   C2B13268  36.275  17.030   8.416
  795POPC   C3B13269  36.039  16.918   8.040
  795POPC   C4B13270  36.301  16.960   7.692
  796POPC   NC313271  21.226  11.369   9.717
  796POPC   PO413272  21.675  10.894   9.473
  796POPC   GL113273  21.358  11.171   9.260
  796POPC   GL213274  21.533  11.482   9.193
  796POPC   C1A13275  21.065  11.403   8.970
  796POPC   D2A13276  20.870  11.434   8.575
  796POPC   C3A13277  21.037  11.456   8.134
  796POPC   C4A13278  21.275  11.277   7.787
  796POPC   C1B13279  21.496  11.209   8.780
  796POPC   C2B13280  21.459  11.246   8.340
  796POPC   C3B13281  21.581  11.552   8.047
  796POPC   C4B13282  21.799  11.266   7.773
  797POPC   NC313283  35.099  23.225   9.525
  797POPC   PO413284  35.311  22.623   9.527
  797POPC   GL113285  35.256  22.867   9.170
  797POPC   GL213286  35.603  22.916   9.187
  797POPC   C1A13287  35.241  23.087   8.768
  797POPC   D2A13288  35.034  22.973   8.374
  797POPC   C3A13289  35.196  23.101   7.958
  797POPC   C4A13290  35.158  22.758   7.646
  797POPC   C1B13291  35.736  22.867   8.760
  797POPC   C2B13292  35.554  22.923   8.360
  797POPC   C3B13293  35.618  22.768   7.955
  797POPC   C4B13294  35.632  22.857   7.526
  798POPC   NC313295  30.240   8.853   9.420
  798POPC   PO413296  30.721   9.168   9.641
  798POPC   GL113297  30.706   9.164   9.201
  798POPC   GL213298  30.734   8.830   9.195
  798POPC   C1A13299  30.947   9.087   8.794
  798POPC   D2A13300  31.053   8.867   8.391
  798POPC   C3A13301  30.867   9.044   7.997
  798POPC   C4A13302  30.437   9.179   7.832
  798POPC   C1B13303  30.488   8.837   8.796
  798POPC   C2B13304  30.512   8.781   8.338
  798POPC   C3B13305  30.461   8.682   7.902
  798POPC   C4B13306  30.484   8.380   7.570
  799POPC   NC313307   7.424  19.332   9.521
  799POPC   PO413308   7.897  18.792   9.497
  799POPC   GL113309   7.616  18.981   9.184
  799POPC   GL213310   7.259  18.873   9.182
  799POPC   C1A13311   7.498  18.963   8.760
  799POPC   D2A13312   7.373  18.733   8.450
  799POPC   C3A13313   7.506  18.981   8.135
  799POPC   C4A13314   7.402  19.050   7.725
  799POPC   C1B13315   7.096  19.205   8.917
  799POPC   C2B13316   7.171  19.207   8.474
  799POPC   C3B13317   7.008  19.041   8.075
  799POPC   C4B13318   6.917  19.304   7.698
  800POPC   NC313319   9.732  32.128   9.493
  800POPC   PO413320  10.137  32.644   9.245
  800POPC   GL113321   9.696  32.459   9.090
  800POPC   GL213322   9.558  32.057   9.033
  800POPC   C1A13323   9.646  32.395   8.670
  800POPC   D2A13324   9.695  32.128   8.367
  800POPC   C3A13325   9.710  32.372   8.042
  800POPC   C4A13326   9.504  32.397   7.685
  800POPC   C1B13327   9.944  31.944   8.813
  800POPC   C2B13328  10.157  31.830   8.429
  800POPC   C3B13329  10.062  31.959   8.022
  800POPC   C4B13330  10.144  31.920   7.595
  801POPC   NC313331  22.915  30.030   9.634
  801POPC   PO413332  22.387  29.731   9.571
  801POPC   GL113333  22.676  29.793   9.222
  801POPC   GL213334  23.023  29.907   9.166
  801POPC   C1A13335  22.698  29.769   8.784
  801POPC   D2A13336  22.587  30.030   8.423
  801POPC   C3A13337  22.740  29.874   8.007
  801POPC   C4A13338  23.076  29.720   7.741
  801POPC   C1B13339  23.263  29.793   8.821
  801POPC   C2B13340  23.322  29.654   8.398
  801POPC   C3B13341  23.440  29.885   8.060
  801POPC   C4B13342  23.452  30.261   7.819
  802POPC   NC313343  26.809  40.249   9.656
  802POPC   PO413344  26.920  39.576   9.632
  802POPC   GL113345  26.649  39.814   9.301
  802POPC   GL213346  26.764  40.154   9.160
  802POPC   C1A13347  26.562  39.807   8.842
  802POPC   D2A13348  26.633  39.930   8.431
  802POPC   C3A13349  26.977  39.720   8.218
  802POPC   C4A13350  26.781  39.528   7.884
  802POPC   C1B13351  26.931  40.311   8.765
  802POPC   C2B13352  27.029  40.253   8.352
  802POPC   C3B13353  27.019  40.463   7.997
  802POPC   C4B13354  27.001  40.412   7.571
  803POPC   NC313355  23.593  29.451   9.391
  803POPC   PO413356  23.718  28.771   9.560
  803POPC   GL113357  23.818  29.022   9.195
  803POPC   GL213358  23.474  29.024   9.136
  803POPC   C1A13359  23.766  29.232   8.755
  803POPC   D2A13360  23.886  28.992   8.363
  803POPC   C3A13361  23.811  29.128   7.940
  803POPC   C4A13362  23.472  29.410   7.870
  803POPC   C1B13363  23.335  28.939   8.748
  803POPC   C2B13364  23.377  29.135   8.368
  803POPC   C3B13365  23.344  28.924   8.018
  803POPC   C4B13366  23.198  29.055   7.624
  804POPC   NC313367  11.740  44.706   9.582
  804POPC   PO413368  12.183  44.382   9.706
  804POPC   GL113369  12.130  44.588   9.297
  804POPC   GL213370  11.912  44.377   9.155
  804POPC   C1A13371  12.040  44.785   8.870
  804POPC   D2A13372  12.057  44.607   8.434
  804POPC   C3A13373  12.112  44.828   8.043
  804POPC   C4A13374  12.415  44.826   7.702
  804POPC   C1B13375  11.692  44.425   8.748
  804POPC   C2B13376  11.560  44.505   8.323
  804POPC   C3B13377  11.783  44.417   7.963
  804POPC   C4B13378  12.122  44.396   7.745
  805POPC   NC313379  40.990   5.500   9.382
  805POPC   PO413380  40.681   4.995   9.704
  805POPC   GL113381  40.659   4.843   9.228
  805POPC   GL213382  40.780   5.143   9.105
  805POPC   C1A13383  40.670   4.801   8.769
  805POPC   D2A13384  40.773   5.088   8.426
  805POPC   C3A13385  40.777   4.900   8.032
  805POPC   C4A13386  41.043   4.808   7.704
  805POPC   C1B13387  40.548   5.402   8.798
  805POPC   C2B13388  40.558   5.582   8.378
  805POPC   C3B13389  40.579   5.376   7.988
  805POPC   C4B13390  40.518   5.519   7.586
  806POPC   NC313391   0.916  40.039   9.764
  806POPC   PO413392   1.568  39.855   9.610
  806POPC   GL113393   1.179  39.889   9.316
  806POPC   GL213394   0.945  40.183   9.274
  806POPC   C1A13395   1.116  39.845   8.862
  806POPC   D2A13396   1.398  39.777   8.488
  806POPC   C3A13397   1.278  39.782   8.049
  806POPC   C4A13398   1.562  40.024   7.825
  806POPC   C1B13399   0.851  40.344   8.862
  806POPC   C2B13400   0.991  40.180   8.469
  806POPC   C3B13401   1.178  40.287   8.104
  806POPC   C4B13402   1.083  40.185   7.697
  807POPC   NC313403  44.105   7.360   9.454
  807POPC   PO413404  43.485   7.749   9.376
  807POPC   GL113405  43.718   7.562   9.041
  807POPC   GL213406  43.975   7.270   8.987
  807POPC   C1A13407  43.856   7.588   8.619
  807POPC   D2A13408  44.249   7.458   8.447
  807POPC   C3A13409  44.181   7.407   7.995
  807POPC   C4A13410  43.859   7.477   7.687
  807POPC   C1B13411  43.603   7.128   8.783
  807POPC   C2B13412  43.506   6.975   8.385
  807POPC   C3B13413  43.720   7.090   8.011
  807POPC   C4B13414  43.816   6.946   7.598
  808POPC   NC313415  22.468  34.496   9.663
  808POPC   PO413416  22.005  34.980   9.373
  808POPC   GL113417  22.266  34.632   9.189
  808POPC   GL213418  22.421  34.321   9.193
  808POPC   C1A13419  22.228  34.550   8.773
  808POPC   D2A13420  22.065  34.546   8.385
  808POPC   C3A13421  22.227  34.770   8.043
  808POPC   C4A13422  22.019  34.583   7.716
  808POPC   C1B13423  22.577  34.176   8.808
  808POPC   C2B13424  22.551  34.340   8.406
  808POPC   C3B13425  22.328  34.254   8.036
  808POPC   C4B13426  22.502  34.391   7.667
  809POPC   NC313427  11.767   1.230   9.577
  809POPC   PO413428  12.333   0.846   9.512
  809POPC   GL113429  12.192   1.165   9.213
  809POPC   GL213430  11.848   1.131   9.082
  809POPC   C1A13431  12.337   1.427   8.878
  809POPC   D2A13432  12.565   1.565   8.509
  809POPC   C3A13433  12.481   1.232   8.222
  809POPC   C4A13434  12.258   1.175   7.850
  809POPC   C1B13435  11.940   1.224   8.632
  809POPC   C2B13436  11.918   1.337   8.189
  809POPC   C3B13437  11.652   1.244   7.809
  809POPC   C4B13438  11.525   0.978   7.419
  810POPC   NC313439  28.813  32.744   9.567
  810POPC   PO413440  29.286  33.311   9.616
  810POPC   GL113441  29.295  33.016   9.243
  810POPC   GL213442  28.968  32.907   9.124
  810POPC   C1A13443  29.359  32.780   8.836
  810POPC   D2A13444  29.474  32.796   8.397
  810POPC   C3A13445  29.412  33.126   8.134
  810POPC   C4A13446  29.437  33.207   7.685
  810POPC   C1B13447  28.857  32.708   8.734
  810POPC   C2B13448  28.948  32.977   8.361
  810POPC   C3B13449  28.963  33.049   7.900
  810POPC   C4B13450  29.005  32.741   7.577
  811POPC   NC313451  16.880  36.859   9.545
  811POPC   PO413452  17.317  37.329   9.721
  811POPC   GL113453  17.114  37.236   9.235
  811POPC   GL213454  17.005  36.914   9.049
  811POPC   C1A13455  17.108  37.307   8.760
  811POPC   D2A13456  17.002  36.952   8.503
  811POPC   C3A13457  16.739  36.910   8.185
  811POPC   C4A13458  16.735  36.715   7.804
  811POPC   C1B13459  16.566  36.899   8.872
  811POPC   C2B13460  16.435  36.661   8.507
  811POPC   C3B13461  16.332  36.621   8.080
  811POPC   C4B13462  16.146  36.850   7.704
  812POPC   NC313463   7.264   7.034   9.503
  812POPC   PO413464   7.708   6.404   9.537
  812POPC   GL113465   7.455   6.288   9.183
  812POPC   GL213466   7.230   6.595   9.152
  812POPC   C1A13467   7.525   6.381   8.754
  812POPC   D2A13468   7.501   6.678   8.429
  812POPC   C3A13469   7.489   6.577   8.008
  812POPC   C4A13470   7.840   6.492   7.778
  812POPC   C1B13471   7.040   6.551   8.724
  812POPC   C2B13472   7.019   6.722   8.297
  812POPC   C3B13473   7.031   6.725   7.853
  812POPC   C4B13474   6.950   6.484   7.510
  813POPC   NC313475  35.219   9.261   9.513
  813POPC   PO413476  35.740   8.725   9.445
  813POPC   GL113477  35.500   8.983   9.150
  813POPC   GL213478  35.155   8.941   9.111
  813POPC   C1A13479  35.494   9.195   8.728
  813POPC   D2A13480  35.737   9.117   8.309
  813POPC   C3A13481  35.631   8.832   7.992
  813POPC   C4A13482  35.451   8.969   7.620
  813POPC   C1B13483  34.922   9.046   8.760
  813POPC   C2B13484  35.123   9.083   8.376
  813POPC   C3B13485  35.306   9.264   8.030
  813POPC   C4B13486  34.992   9.265   7.730
  814POPC   NC313487  24.523   4.685   9.539
  814POPC   PO413488  24.265   5.221   9.621
  814POPC   GL113489  24.488   5.134   9.193
  814POPC   GL213490  24.648   4.846   9.086
  814POPC   C1A13491  24.568   5.264   8.750
  814POPC   D2A13492  24.350   5.214   8.328
  814POPC   C3A13493  24.578   5.218   7.919
  814POPC   C4A13494  24.746   5.316   7.494
  814POPC   C1B13495  24.584   4.742   8.691
  814POPC   C2B13496  24.673   4.823   8.268
  814POPC   C3B13497  24.579   4.640   7.888
  814POPC   C4B13498  24.449   4.883   7.529
  815POPC   NC313499  11.900  43.179   9.493
  815POPC   PO413500  12.575  43.194   9.619
  815POPC   GL113501  12.365  42.911   9.292
  815POPC   GL213502  12.091  43.054   9.043
  815POPC   C1A13503  12.491  42.839   8.844
  815POPC   D2A13504  12.211  42.843   8.470
  815POPC   C3A13505  12.102  43.168   8.166
  815POPC   C4A13506  12.061  43.224   7.724
  815POPC   C1B13507  11.971  43.318   8.694
  815POPC   C2B13508  12.086  43.625   8.424
  815POPC   C3B13509  11.829  43.655   8.077
  815POPC   C4B13510  11.619  43.470   7.738
  816POPC   NC313511  29.107  15.841   9.612
  816POPC   PO413512  28.847  16.320   9.189
  816POPC   GL113513  29.217  16.072   9.115
  816POPC   GL213514  29.258  15.707   9.144
  816POPC   C1A13515  29.205  15.959   8.683
  816POPC   D2A13516  28.949  15.945   8.328
  816POPC   C3A13517  29.124  16.031   7.945
  816POPC   C4A13518  28.854  15.870   7.657
  816POPC   C1B13519  29.442  15.525   8.781
  816POPC   C2B13520  29.291  15.539   8.384
  816POPC   C3B13521  29.122  15.532   7.997
  816POPC   C4B13522  29.435  15.410   7.761
  817POPC   NC313523  14.758  20.412   9.497
  817POPC   PO413524  14.096  20.432   9.437
  817POPC   GL113525  14.291  20.833   9.195
  817POPC   GL213526  14.658  20.821   9.154
  817POPC   C1A13527  14.412  20.979   8.755
  817POPC   D2A13528  14.207  20.745   8.408
  817POPC   C3A13529  14.338  20.917   8.014
  817POPC   C4A13530  14.406  20.790   7.592
  817POPC   C1B13531  14.530  20.498   8.815
  817POPC   C2B13532  14.481  20.307   8.380
  817POPC   C3B13533  14.425  20.356   7.915
  817POPC   C4B13534  14.705  20.375   7.549
  818POPC   NC313535  32.224  42.623   9.559
  818POPC   PO413536  31.991  41.911   9.486
  818POPC   GL113537  32.153  42.101   9.096
  818POPC   GL213538  32.258  42.433   9.095
  818POPC   C1A13539  32.396  42.160   8.707
  818POPC   D2A13540  32.372  42.313   8.299
  818POPC   C3A13541  32.136  42.120   7.967
  818POPC   C4A13542  32.258  42.236   7.535
  818POPC   C1B13543  32.088  42.593   8.729
  818POPC   C2B13544  32.163  42.770   8.315
  818POPC   C3B13545  32.201  42.617   7.892
  818POPC   C4B13546  32.033  42.703   7.463
  819POPC   NC313547  37.903   4.549   9.499
  819POPC   PO413548  37.245   4.444   9.355
  819POPC   GL113549  37.621   4.404   9.119
  819POPC   GL213550  37.904   4.150   9.146
  819POPC   C1A13551  37.864   4.516   8.767
  819POPC   D2A13552  37.755   4.405   8.360
  819POPC   C3A13553  37.448   4.547   8.116
  819POPC   C4A13554  37.791   4.737   7.914
  819POPC   C1B13555  37.632   4.036   8.786
  819POPC   C2B13556  37.677   3.914   8.366
  819POPC   C3B13557  37.755   4.075   7.934
  819POPC   C4B13558  37.533   3.873   7.557
  820POPC   NC313559   2.600  34.088   9.484
  820POPC   PO413560   2.682  33.492   9.638
  820POPC   GL113561   2.724  33.581   9.202
  820POPC   GL213562   2.605  33.231   9.180
  820POPC   C1A13563   2.689  33.903   8.818
  820POPC   D2A13564   2.503  34.084   8.381
  820POPC   C3A13565   2.650  33.874   7.971
  820POPC   C4A13566   2.820  33.851   7.518
  820POPC   C1B13567   2.467  33.402   8.802
  820POPC   C2B13568   2.598  33.573   8.423
  820POPC   C3B13569   2.443  33.415   8.067
  820POPC   C4B13570   2.539  33.453   7.663
  821POPC   NC313571  44.109  14.395   9.357
  821POPC   PO413572  44.648  14.710   9.702
  821POPC   GL113573  44.555  14.713   9.237
  821POPC   GL213574  44.442  14.431   9.004
  821POPC   C1A13575  44.767  14.769   8.810
  821POPC   D2A13576  44.943  14.705   8.384
  821POPC   C3A13577  44.604  14.572   8.099
  821POPC   C4A13578  44.436  14.662   7.663
  821POPC   C1B13579  44.803  14.265   8.868
  821POPC   C2B13580  44.936  14.163   8.448
  821POPC   C3B13581  44.835  14.080   8.013
  821POPC   C4B13582  44.888  14.399   7.705
  822POPC   NC313583  14.561   5.186   9.649
  822POPC   PO413584  14.080   5.540   9.387
  822POPC   GL113585  14.374   5.240   9.152
  822POPC   GL213586  14.735   5.109   9.185
  822POPC   C1A13587  14.413   5.024   8.760
  822POPC   D2A13588  14.370   4.743   8.416
  822POPC   C3A13589  14.417   4.939   8.007
  822POPC   C4A13590  14.640   4.923   7.611
  822POPC   C1B13591  14.910   5.112   8.804
  822POPC   C2B13592  14.808   4.983   8.391
  822POPC   C3B13593  14.912   4.778   8.017
  822POPC   C4B13594  15.055   5.157   7.856
  823POPC   NC313595   8.982  21.368   9.618
  823POPC   PO413596   8.303  21.406   9.557
  823POPC   GL113597   8.611  21.203   9.263
  823POPC   GL213598   8.886  21.442   9.147
  823POPC   C1A13599   8.731  21.086   8.830
  823POPC   D2A13600   8.776  20.989   8.410
  823POPC   C3A13601   8.764  21.318   8.103
  823POPC   C4A13602   9.007  21.168   7.803
  823POPC   C1B13603   9.174  21.481   8.867
  823POPC   C2B13604   9.063  21.527   8.459
  823POPC   C3B13605   9.282  21.471   8.093
  823POPC   C4B13606   9.220  21.632   7.681
  824POPC   NC313607  24.501  24.190   9.589
  824POPC   PO413608  25.015  24.533   9.482
  824POPC   GL113609  24.697  24.520   9.190
  824POPC   GL213610  24.698  24.884   9.195
  824POPC   C1A13611  24.414  24.392   8.837
  824POPC   D2A13612  24.365  24.546   8.374
  824POPC   C3A13613  24.514  24.398   7.935
  824POPC   C4A13614  24.505  24.430   7.455
  824POPC   C1B13615  24.609  24.849   8.741
  824POPC   C2B13616  24.429  25.055   8.346
  824POPC   C3B13617  24.426  24.901   7.874
  824POPC   C4B13618  24.557  24.925   7.386
  825POPC   NC313619  37.169  19.731   9.519
  825POPC   PO413620  36.705  20.178   9.501
  825POPC   GL113621  36.933  20.169   9.161
  825POPC   GL213622  36.885  19.816   9.077
  825POPC   C1A13623  36.984  20.133   8.724
  825POPC   D2A13624  36.962  19.892   8.373
  825POPC   C3A13625  36.535  19.943   8.212
  825POPC   C4A13626  36.475  20.249   7.858
  825POPC   C1B13627  36.838  19.517   8.708
  825POPC   C2B13628  37.132  19.403   8.339
  825POPC   C3B13629  37.088  19.438   7.897
  825POPC   C4B13630  36.651  19.432   7.811
  826POPC   NC313631   9.181  11.650   9.529
  826POPC   PO413632   8.681  11.199   9.472
  826POPC   GL113633   8.841  11.434   9.144
  826POPC   GL213634   9.203  11.420   9.088
  826POPC   C1A13635   8.810  11.594   8.722
  826POPC   D2A13636   9.005  11.749   8.320
  826POPC   C3A13637   8.959  11.452   7.998
  826POPC   C4A13638   8.873  11.054   7.863
  826POPC   C1B13639   9.071  11.133   8.789
  826POPC   C2B13640   9.202  11.249   8.403
  826POPC   C3B13641   9.353  11.036   8.058
  826POPC   C4B13642   9.310  11.215   7.660
  827POPC   NC313643  32.318  36.055   9.579
  827POPC   PO413644  32.738  36.582   9.340
  827POPC   GL113645  32.495  36.173   9.115
  827POPC   GL213646  32.170  35.947   9.118
  827POPC   C1A13647  32.341  36.180   8.704
  827POPC   D2A13648  32.314  36.501   8.410
  827POPC   C3A13649  32.355  36.347   7.996
  827POPC   C4A13650  32.084  36.466   7.697
  827POPC   C1B13651  32.212  35.673   8.770
  827POPC   C2B13652  32.426  35.721   8.380
  827POPC   C3B13653  32.417  35.808   7.944
  827POPC   C4B13654  32.091  35.967   7.681
  828POPC   NC313655  12.959  37.882   9.325
  828POPC   PO413656  12.370  37.543   9.483
  828POPC   GL113657  12.738  37.450   9.164
  828POPC   GL213658  13.149  37.466   9.087
  828POPC   C1A13659  12.774  37.614   8.750
  828POPC   D2A13660  12.569  37.508   8.405
  828POPC   C3A13661  12.565  37.693   8.025
  828POPC   C4A13662  12.661  37.467   7.617
  828POPC   C1B13663  13.285  37.681   8.690
  828POPC   C2B13664  13.046  37.859   8.332
  828POPC   C3B13665  13.056  37.718   7.897
  828POPC   C4B13666  13.217  37.348   7.685
  829POPC   NC313667  32.247   7.074   9.619
  829POPC   PO413668  31.985   6.383   9.470
  829POPC   GL113669  32.144   6.525   9.127
  829POPC   GL213670  32.252   6.861   9.134
  829POPC   C1A13671  32.072   6.517   8.722
  829POPC   D2A13672  32.298   6.644   8.375
  829POPC   C3A13673  32.238   6.470   7.996
  829POPC   C4A13674  31.893   6.545   7.764
  829POPC   C1B13675  32.549   6.653   8.834
  829POPC   C2B13676  32.734   6.425   8.481
  829POPC   C3B13677  32.804   6.467   8.056
  829POPC   C4B13678  32.613   6.589   7.668
  830POPC   NC313679   2.937  31.934   9.496
  830POPC   PO413680   2.226  32.005   9.565
  830POPC   GL113681   2.474  32.163   9.180
  830POPC   GL213682   2.749  32.215   9.100
  830POPC   C1A13683   2.579  32.064   8.672
  830POPC   D2A13684   2.893  32.219   8.339
  830POPC   C3A13685   2.766  32.287   7.903
  830POPC   C4A13686   2.719  32.044   7.561
  830POPC   C1B13687   2.949  32.434   8.796
  830POPC   C2B13688   2.962  32.735   8.452
  830POPC   C3B13689   3.088  32.626   8.039
  830POPC   C4B13690   3.157  32.363   7.590
  831POPC   NC313691   0.674  36.965   9.985
  831POPC   PO413692   1.158  36.815   9.491
  831POPC   GL113693   1.164  36.762   9.082
  831POPC   GL213694   1.505  36.769   9.040
  831POPC   C1A13695   1.126  36.776   8.637
  831POPC   D2A13696   1.396  36.674   8.322
  831POPC   C3A13697   1.233  36.777   7.948
  831POPC   C4A13698   0.953  36.844   7.644
  831POPC   C1B13699   1.552  37.080   8.683
  831POPC   C2B13700   1.514  37.157   8.220
  831POPC   C3B13701   1.638  37.060   7.783
  831POPC   C4B13702   1.731  37.176   7.291
  832POPC   NC313703  16.487  23.328   9.450
  832POPC   PO413704  16.051  23.781   9.551
  832POPC   GL113705  16.057  23.510   9.209
  832POPC   GL213706  15.769  23.513   9.031
  832POPC   C1A13707  16.210  23.343   8.814
  832POPC   D2A13708  16.118  23.207   8.395
  832POPC   C3A13709  16.021  23.481   8.028
  832POPC   C4A13710  16.309  23.594   7.694
  832POPC   C1B13711  15.785  23.571   8.596
  832POPC   C2B13712  15.813  23.963   8.385
  832POPC   C3B13713  15.680  24.012   7.970
  832POPC   C4B13714  15.833  23.822   7.599
  833POPC   NC313715  42.028   8.035   9.527
  833POPC   PO413716  41.467   8.292   9.636
  833POPC   GL113717  41.480   8.186   9.199
  833POPC   GL213718  41.797   8.288   9.121
  833POPC   C1A13719  41.335   8.209   8.745
  833POPC   D2A13720  41.540   8.164   8.350
  833POPC   C3A13721  41.319   8.200   7.981
  833POPC   C4A13722  41.533   8.156   7.637
  833POPC   C1B13723  41.795   8.441   8.699
  833POPC   C2B13724  41.961   8.545   8.279
  833POPC   C3B13725  41.780   8.546   7.849
  833POPC   C4B13726  41.898   8.407   7.387
  834POPC   NC313727  32.416  43.596   9.437
  834POPC   PO413728  32.599  42.992   9.601
  834POPC   GL113729  32.423  42.924   9.164
  834POPC   GL213730  32.042  42.897   9.160
  834POPC   C1A13731  32.418  42.983   8.700
  834POPC   D2A13732  32.221  43.274   8.356
  834POPC   C3A13733  32.279  43.110   7.911
  834POPC   C4A13734  32.325  43.125   7.401
  834POPC   C1B13735  31.943  43.170   8.814
  834POPC   C2B13736  31.693  43.215   8.437
  834POPC   C3B13737  31.816  43.382   8.034
  834POPC   C4B13738  31.886  43.243   7.632
  835POPC   NC313739  22.575   2.606   9.355
  835POPC   PO413740  22.078   3.027   9.603
  835POPC   GL113741  22.179   2.892   9.197
  835POPC   GL213742  22.366   3.205   9.174
  835POPC   C1A13743  22.149   2.652   8.777
  835POPC   D2A13744  21.869   2.584   8.418
  835POPC   C3A13745  22.032   2.626   8.002
  835POPC   C4A13746  21.791   2.677   7.622
  835POPC   C1B13747  22.134   3.163   8.783
  835POPC   C2B13748  22.164   2.993   8.373
  835POPC   C3B13749  22.050   3.145   7.961
  835POPC   C4B13750  22.226   2.946   7.603
  836POPC   NC313751  15.446  20.231   9.381
  836POPC   PO413752  15.025  20.794   9.512
  836POPC   GL113753  15.117  20.579   9.139
  836POPC   GL213754  15.418  20.739   9.176
  836POPC   C1A13755  15.035  20.729   8.714
  836POPC   D2A13756  14.715  20.774   8.374
  836POPC   C3A13757  14.805  20.713   7.942
  836POPC   C4A13758  15.138  20.557   7.740
  836POPC   C1B13759  15.548  20.557   8.807
  836POPC   C2B13760  15.454  20.537   8.418
  836POPC   C3B13761  15.448  20.325   8.062
  836POPC   C4B13762  15.660  20.519   7.734
  837POPC   NC313763  38.946   3.873   9.499
  837POPC   PO413764  39.469   4.355   9.476
  837POPC   GL113765  39.369   4.112   9.145
  837POPC   GL213766  39.036   4.130   9.072
  837POPC   C1A13767  39.400   4.065   8.718
  837POPC   D2A13768  39.159   4.176   8.388
  837POPC   C3A13769  39.284   4.072   8.000
  837POPC   C4A13770  39.225   4.285   7.673
  837POPC   C1B13771  38.891   4.403   8.767
  837POPC   C2B13772  38.661   4.415   8.378
  837POPC   C3B13773  38.779   4.312   7.960
  837POPC   C4B13774  38.768   4.309   7.517
  838POPC   NC313775  12.049   5.806   9.614
  838POPC   PO413776  11.680   6.284   9.451
  838POPC   GL113777  11.853   6.068   9.012
  838POPC   GL213778  12.151   5.861   9.107
  838POPC   C1A13779  11.826   5.753   8.682
  838POPC   D2A13780  12.103   5.700   8.333
  838POPC   C3A13781  12.062   5.541   7.929
  838POPC   C4A13782  12.099   5.874   7.633
  838POPC   C1B13783  12.335   5.599   8.796
  838POPC   C2B13784  12.596   5.716   8.436
  838POPC   C3B13785  12.508   5.792   7.984
  838POPC   C4B13786  12.455   5.527   7.583
  839POPC   NC313787  14.867  11.498   9.583
  839POPC   PO413788  15.387  11.021   9.509
  839POPC   GL113789  15.169  11.167   9.120
  839POPC   GL213790  15.190  11.519   8.970
  839POPC   C1A13791  15.155  11.093   8.675
  839POPC   D2A13792  15.454  11.080   8.320
  839POPC   C3A13793  15.275  11.153   7.886
  839POPC   C4A13794  15.045  10.959   7.545
  839POPC   C1B13795  15.355  11.549   8.533
  839POPC   C2B13796  15.216  11.635   8.117
  839POPC   C3B13797  14.919  11.673   7.760
  839POPC   C4B13798  14.992  11.859   7.340
  840POPC   NC313799   8.369  28.035   9.910
  840POPC   PO413800   7.909  27.875   9.431
  840POPC   GL113801   8.056  27.696   9.024
  840POPC   GL213802   8.373  27.515   8.957
  840POPC   C1A13803   8.068  27.795   8.604
  840POPC   D2A13804   8.380  27.639   8.349
  840POPC   C3A13805   8.297  27.772   7.925
  840POPC   C4A13806   8.432  27.649   7.498
  840POPC   C1B13807   8.076  27.302   8.641
  840POPC   C2B13808   7.980  27.362   8.182
  840POPC   C3B13809   8.237  27.257   7.814
  840POPC   C4B13810   8.222  27.194   7.356
  841POPC   NC313811  33.751  29.635   9.557
  841POPC   PO413812  34.190  29.117   9.604
  841POPC   GL113813  34.014  29.313   9.238
  841POPC   GL213814  33.910  28.979   9.181
  841POPC   C1A13815  33.798  29.351   8.825
  841POPC   D2A13816  33.957  29.438   8.401
  841POPC   C3A13817  33.798  29.354   7.975
  841POPC   C4A13818  33.777  29.323   7.515
  841POPC   C1B13819  33.589  28.848   8.917
  841POPC   C2B13820  33.779  28.750   8.558
  841POPC   C3B13821  33.922  28.926   8.194
  841POPC   C4B13822  33.884  28.882   7.752
  842POPC   NC313823   4.639  40.531   9.654
  842POPC   PO413824   4.127  40.803   9.391
  842POPC   GL113825   4.488  40.872   9.130
  842POPC   GL213826   4.714  40.591   9.172
  842POPC   C1A13827   4.522  40.843   8.686
  842POPC   D2A13828   4.321  40.760   8.259
  842POPC   C3A13829   4.490  40.910   7.866
  842POPC   C4A13830   4.327  40.762   7.470
  842POPC   C1B13831   4.689  40.309   8.844
  842POPC   C2B13832   4.723  40.459   8.417
  842POPC   C3B13833   4.674  40.439   7.999
  842POPC   C4B13834   4.643  40.371   7.576
  843POPC   NC313835   7.450  30.967   9.257
  843POPC   PO413836   7.400  31.608   9.549
  843POPC   GL113837   7.162  31.578   9.112
  843POPC   GL213838   7.233  31.265   8.925
  843POPC   C1A13839   7.026  31.580   8.627
  843POPC   D2A13840   7.329  31.349   8.356
  843POPC   C3A13841   7.459  31.470   7.932
  843POPC   C4A13842   7.538  31.379   7.476
  843POPC   C1B13843   7.183  30.943   8.657
  843POPC   C2B13844   6.991  30.971   8.288
  843POPC   C3B13845   7.222  30.964   7.921
  843POPC   C4B13846   7.071  31.258   7.663
  844POPC   NC313847   8.740  29.553   9.456
  844POPC   PO413848   9.102  30.012   9.525
  844POPC   GL113849   9.107  29.951   9.139
  844POPC   GL213850   9.198  29.601   9.072
  844POPC   C1A13851   8.895  30.170   8.820
  844POPC   D2A13852   8.704  29.909   8.546
  844POPC   C3A13853   8.668  29.992   8.135
  844POPC   C4A13854   8.802  30.117   7.760
  844POPC   C1B13855   9.219  29.790   8.659
  844POPC   C2B13856   9.185  29.930   8.234
  844POPC   C3B13857   9.280  29.943   7.814
  844POPC   C4B13858   9.093  29.819   7.397
  845POPC   NC313859  37.784  20.468   9.595
  845POPC   PO413860  38.120  21.086   9.762
  845POPC   GL113861  37.931  20.925   9.311
  845POPC   GL213862  37.690  20.675   9.152
  845POPC   C1A13863  37.908  20.936   8.803
  845POPC   D2A13864  38.058  20.612   8.505
  845POPC   C3A13865  37.962  20.613   8.059
  845POPC   C4A13866  37.718  20.775   7.703
  845POPC   C1B13867  37.532  20.378   8.837
  845POPC   C2B13868  37.364  20.265   8.423
  845POPC   C3B13869  37.508  20.384   8.031
  845POPC   C4B13870  37.474  20.265   7.611
  846POPC   NC313871  40.391  19.110   9.522
  846POPC   PO413872  39.694  19.131   9.524
  846POPC   GL113873  39.943  18.922   9.170
  846POPC   GL213874  40.223  19.128   9.053
  846POPC   C1A13875  40.029  18.807   8.709
  846POPC   D2A13876  40.145  19.020   8.293
  846POPC   C3A13877  39.932  18.882   7.904
  846POPC   C4A13878  39.858  18.783   7.418
  846POPC   C1B13879  40.101  19.333   8.702
  846POPC   C2B13880  40.266  19.516   8.348
  846POPC   C3B13881  40.165  19.414   7.928
  846POPC   C4B13882  40.332  19.510   7.531
  847POPC   NC313883  29.456  29.524   9.484
  847POPC   PO413884  29.008  29.984   9.494
  847POPC   GL113885  29.206  30.063   9.139
  847POPC   GL213886  29.217  29.714   9.059
  847POPC   C1A13887  29.054  30.056   8.719
  847POPC   D2A13888  29.132  29.755   8.408
  847POPC   C3A13889  29.026  29.943   8.041
  847POPC   C4A13890  29.116  30.288   7.833
  847POPC   C1B13891  29.499  29.603   8.752
  847POPC   C2B13892  29.630  29.706   8.355
  847POPC   C3B13893  29.384  29.583   7.961
  847POPC   C4B13894  29.254  29.473   7.506
  848POPC   NC313895  22.238  37.025   9.589
  848POPC   PO413896  22.279  37.539   9.467
  848POPC   GL113897  22.137  37.214   9.115
  848POPC   GL213898  22.132  36.837   9.124
  848POPC   C1A13899  22.298  37.073   8.690
  848POPC   D2A13900  22.283  37.318   8.301
  848POPC   C3A13901  22.167  37.279   7.862
  848POPC   C4A13902  21.914  37.560   7.588
  848POPC   C1B13903  22.023  36.648   8.744
  848POPC   C2B13904  22.162  36.732   8.324
  848POPC   C3B13905  22.015  36.744   7.924
  848POPC   C4B13906  22.139  36.733   7.512
  849POPC   NC313907  26.817  11.614   9.724
  849POPC   PO413908  26.745  12.280   9.574
  849POPC   GL113909  26.824  12.145   9.148
  849POPC   GL213910  26.854  11.816   9.246
  849POPC   C1A13911  26.594  12.219   8.765
  849POPC   D2A13912  26.513  12.436   8.351
  849POPC   C3A13913  26.534  12.165   8.024
  849POPC   C4A13914  26.890  12.161   7.773
  849POPC   C1B13915  26.735  11.705   8.822
  849POPC   C2B13916  26.703  11.866   8.416
  849POPC   C3B13917  26.812  11.742   8.030
  849POPC   C4B13918  26.600  11.773   7.651
  850POPC   NC313919  30.415  14.603   9.441
  850POPC   PO413920  30.914  14.079   9.427
  850POPC   GL113921  30.705  14.125   9.072
  850POPC   GL213922  30.348  14.046   9.031
  850POPC   C1A13923  30.710  13.970   8.658
  850POPC   D2A13924  30.823  13.951   8.234
  850POPC   C3A13925  30.637  14.321   8.038
  850POPC   C4A13926  30.737  14.685   7.765
  850POPC   C1B13927  30.429  14.443   8.775
  850POPC   C2B13928  30.486  14.689   8.386
  850POPC   C3B13929  30.296  14.724   8.003
  850POPC   C4B13930  30.356  14.748   7.451
  851POPC   NC313931  16.313  43.716   9.436
  851POPC   PO413932  16.912  44.024   9.606
  851POPC   GL113933  16.782  43.904   9.222
  851POPC   GL213934  16.743  43.536   9.225
  851POPC   C1A13935  16.686  43.866   8.796
  851POPC   D2A13936  16.334  43.984   8.534
  851POPC   C3A13937  16.370  44.180   8.120
  851POPC   C4A13938  16.570  44.034   7.735
  851POPC   C1B13939  16.589  43.359   8.823
  851POPC   C2B13940  16.626  43.542   8.407
  851POPC   C3B13941  16.706  43.623   7.982
  851POPC   C4B13942  16.767  43.609   7.546
  852POPC   NC313943  43.548  13.079   9.457
  852POPC   PO413944  44.197  13.222   9.518
  852POPC   GL113945  43.985  13.029   9.191
  852POPC   GL213946  43.866  12.679   9.271
  852POPC   C1A13947  43.735  13.026   8.816
  852POPC   D2A13948  43.623  13.108   8.393
  852POPC   C3A13949  43.978  13.057   8.145
  852POPC   C4A13950  43.951  12.936   7.742
  852POPC   C1B13951  44.139  12.650   8.894
  852POPC   C2B13952  43.985  12.663   8.480
  852POPC   C3B13953  43.905  12.542   8.062
  852POPC   C4B13954  44.159  12.462   7.703
  853POPC   NC313955   9.348  41.731   9.508
  853POPC   PO413956  10.000  41.505   9.675
  853POPC   GL113957   9.833  41.690   9.310
  853POPC   GL213958   9.712  41.387   9.150
  853POPC   C1A13959   9.729  41.837   8.902
  853POPC   D2A13960   9.641  41.662   8.517
  853POPC   C3A13961   9.770  41.815   8.142
  853POPC   C4A13962   9.752  41.742   7.706
  853POPC   C1B13963   9.502  41.195   8.796
  853POPC   C2B13964   9.290  41.310   8.406
  853POPC   C3B13965   9.431  41.431   8.019
  853POPC   C4B13966   9.256  41.292   7.618
  854POPC   NC313967  17.712   7.484   9.444
  854POPC   PO413968  17.221   7.058   9.519
  854POPC   GL113969  17.352   7.301   9.146
  854POPC   GL213970  17.233   7.638   9.217
  854POPC   C1A13971  17.563   7.613   8.826
  854POPC   D2A13972  17.758   7.759   8.429
  854POPC   C3A13973  17.787   7.414   8.120
  854POPC   C4A13974  17.627   7.385   7.695
  854POPC   C1B13975  17.061   7.735   8.790
  854POPC   C2B13976  17.226   7.789   8.355
  854POPC   C3B13977  17.271   7.756   7.896
  854POPC   C4B13978  17.299   7.677   7.437
  855POPC   NC313979   4.255  38.106   9.437
  855POPC   PO413980   4.594  38.676   9.576
  855POPC   GL113981   4.490  38.501   9.173
  855POPC   GL213982   4.113  38.514   9.103
  855POPC   C1A13983   4.481  38.586   8.736
  855POPC   D2A13984   4.335  38.613   8.331
  855POPC   C3A13985   4.596  38.741   7.977
  855POPC   C4A13986   4.582  38.537   7.591
  855POPC   C1B13987   4.153  38.188   8.759
  855POPC   C2B13988   4.188  38.105   8.320
  855POPC   C3B13989   4.269  38.245   7.906
  855POPC   C4B13990   4.036  38.073   7.553
  856POPC   NC313991  11.119   7.300   9.578
  856POPC   PO413992  11.612   7.027   9.207
  856POPC   GL113993  11.349   7.373   9.129
  856POPC   GL213994  11.568   7.673   9.204
  856POPC   C1A13995  11.145   7.441   8.742
  856POPC   D2A13996  11.234   7.243   8.361
  856POPC   C3A13997  11.368   7.419   7.984
  856POPC   C4A13998  11.162   7.518   7.593
  856POPC   C1B13999  11.642   7.554   8.753
  856POPC   C2B14000  11.485   7.746   8.388
  856POPC   C3B14001  11.447   7.934   7.975
  856POPC   C4B14002  11.630   7.696   7.629
  857POPC   NC314003  41.425   6.451   9.377
  857POPC   PO414004  42.078   6.756   9.504
  857POPC   GL114005  41.793   6.751   9.147
  857POPC   GL214006  41.623   6.469   8.930
  857POPC   C1A14007  41.776   6.980   8.776
  857POPC   D2A14008  41.984   7.117   8.433
  857POPC   C3A14009  41.848   6.851   8.119
  857POPC   C4A14010  41.960   7.039   7.777
  857POPC   C1B14011  41.312   6.811   8.825
  857POPC   C2B14012  41.349   6.966   8.434
  857POPC   C3B14013  41.341   6.814   8.005
  857POPC   C4B14014  41.589   6.466   7.822
  858POPC   NC314015  14.533  32.933   9.578
  858POPC   PO414016  13.947  32.755   9.538
  858POPC   GL114017  14.244  32.780   9.143
  858POPC   GL214018  14.609  32.724   9.125
  858POPC   C1A14019  14.332  32.897   8.684
  858POPC   D2A14020  14.300  32.840   8.213
  858POPC   C3A14021  14.077  33.088   7.865
  858POPC   C4A14022  14.160  33.383   7.471
  858POPC   C1B14023  14.896  32.708   8.820
  858POPC   C2B14024  14.742  32.709   8.429
  858POPC   C3B14025  14.829  32.799   8.043
  858POPC   C4B14026  14.547  32.851   7.746
  859POPC   NC314027   7.891   1.787   9.401
  859POPC   PO414028   7.320   2.157   9.487
  859POPC   GL114029   7.474   2.007   9.123
  859POPC   GL214030   7.320   1.678   9.116
  859POPC   C1A14031   7.523   2.209   8.716
  859POPC   D2A14032   7.302   2.172   8.313
  859POPC   C3A14033   7.578   2.063   7.959
  859POPC   C4A14034   7.481   2.180   7.552
  859POPC   C1B14035   7.142   1.729   8.677
  859POPC   C2B14036   7.227   1.655   8.221
  859POPC   C3B14037   7.123   1.863   7.820
  859POPC   C4B14038   7.189   1.828   7.350
  860POPC   NC314039  36.783  34.598   9.959
  860POPC   PO414040  36.947  34.218   9.621
  860POPC   GL114041  36.952  34.604   9.360
  860POPC   GL214042  37.256  34.753   9.195
  860POPC   C1A14043  36.856  34.686   8.897
  860POPC   D2A14044  37.075  34.528   8.520
  860POPC   C3A14045  36.951  34.547   8.099
  860POPC   C4A14046  37.234  34.391   7.843
  860POPC   C1B14047  37.316  34.900   8.765
  860POPC   C2B14048  37.196  35.030   8.324
  860POPC   C3B14049  36.980  35.023   7.931
  860POPC   C4B14050  36.608  34.908   7.699
  861POPC   NC314051  43.516  40.229   9.535
  861POPC   PO414052  44.181  40.034   9.539
  861POPC   GL114053  44.058  40.092   9.127
  861POPC   GL214054  43.729  39.915   9.038
  861POPC   C1A14055  44.190  39.888   8.758
  861POPC   D2A14056  43.954  39.790   8.404
  861POPC   C3A14057  44.185  39.858   8.069
  861POPC   C4A14058  44.131  39.818   7.689
  861POPC   C1B14059  43.657  40.181   8.699
  861POPC   C2B14060  43.718  40.236   8.255
  861POPC   C3B14061  43.687  39.946   7.913
  861POPC   C4B14062  43.690  39.969   7.462
  862POPC   NC314063  16.569  32.551   9.528
  862POPC   PO414064  16.458  33.222   9.508
  862POPC   GL114065  16.788  33.123   9.190
  862POPC   GL214066  16.940  32.785   9.217
  862POPC   C1A14067  16.881  33.105   8.742
  862POPC   D2A14068  17.017  33.045   8.306
  862POPC   C3A14069  16.784  33.169   7.930
  862POPC   C4A14070  16.392  33.415   7.894
  862POPC   C1B14071  16.835  32.568   8.838
  862POPC   C2B14072  16.993  32.531   8.432
  862POPC   C3B14073  16.787  32.651   8.062
  862POPC   C4B14074  16.932  32.741   7.652
  863POPC   NC314075  20.369  15.442   9.442
  863POPC   PO414076  20.952  15.263   9.306
  863POPC   GL114077  20.807  14.998   9.010
  863POPC   GL214078  20.455  14.964   9.122
  863POPC   C1A14079  20.916  15.074   8.586
  863POPC   D2A14080  20.740  15.276   8.246
  863POPC   C3A14081  20.862  15.061   7.838
  863POPC   C4A14082  20.900  15.133   7.395
  863POPC   C1B14083  20.372  15.268   8.804
  863POPC   C2B14084  20.192  15.350   8.399
  863POPC   C3B14085  20.332  15.406   7.979
  863POPC   C4B14086  20.455  15.219   7.593
  864POPC   NC314087  42.818   1.136   9.474
  864POPC   PO414088  43.400   1.304   9.491
  864POPC   GL114089  43.229   1.010   9.185
  864POPC   GL214090  43.023   1.317   9.051
  864POPC   C1A14091  42.957   0.883   8.824
  864POPC   D2A14092  42.977   1.149   8.469
  864POPC   C3A14093  42.969   1.016   8.058
  864POPC   C4A14094  42.964   1.174   7.648
  864POPC   C1B14095  42.642   1.395   8.777
  864POPC   C2B14096  42.554   1.445   8.311
  864POPC   C3B14097  42.658   1.522   7.845
  864POPC   C4B14098  42.733   1.517   7.346
  865POPC   NC314099   9.652   3.665   9.531
  865POPC   PO414100   9.985   2.998   9.443
  865POPC   GL114101   9.726   3.269   9.159
  865POPC   GL214102   9.928   3.574   9.139
  865POPC   C1A14103   9.679   3.423   8.715
  865POPC   D2A14104   9.752   3.464   8.248
  865POPC   C3A14105   9.958   3.224   7.915
  865POPC   C4A14106   9.681   3.220   7.538
  865POPC   C1B14107   9.944   3.881   8.826
  865POPC   C2B14108  10.102   3.827   8.440
  865POPC   C3B14109   9.943   3.973   8.063
  865POPC   C4B14110   9.812   3.684   7.779
  866POPC   NC314111   7.287  26.806   9.568
  866POPC   PO414112   7.995  26.885   9.545
  866POPC   GL114113   7.712  26.718   9.237
  866POPC   GL214114   7.509  27.021   9.175
  866POPC   C1A14115   7.492  26.614   8.855
  866POPC   D2A14116   7.309  26.528   8.476
  866POPC   C3A14117   7.550  26.498   8.103
  866POPC   C4A14118   7.452  26.784   7.787
  866POPC   C1B14119   7.520  27.156   8.769
  866POPC   C2B14120   7.220  27.178   8.438
  866POPC   C3B14121   7.161  27.128   8.008
  866POPC   C4B14122   7.578  27.276   7.837
  867POPC   NC314123   0.992  20.358   9.616
  867POPC   PO414124   1.479  20.865   9.559
  867POPC   GL114125   1.217  20.641   9.189
  867POPC   GL214126   1.070  20.314   9.134
  867POPC   C1A14127   1.164  20.591   8.713
  867POPC   D2A14128   0.988  20.764   8.316
  867POPC   C3A14129   1.185  20.579   7.940
  867POPC   C4A14130   1.624  20.536   7.781
  867POPC   C1B14131   0.809  20.196   8.841
  867POPC   C2B14132   0.788  20.318   8.472
  867POPC   C3B14133   0.746  20.307   8.055
  867POPC   C4B14134   0.818  20.417   7.618
  868POPC   NC314135  36.700   3.257   9.478
  868POPC   PO414136  36.975   2.634   9.601
  868POPC   GL114137  37.079   2.920   9.236
  868POPC   GL214138  37.058   2.627   9.042
  868POPC   C1A14139  37.150   3.011   8.741
  868POPC   D2A14140  37.197   3.192   8.280
  868POPC   C3A14141  37.077   2.991   7.855
  868POPC   C4A14142  37.000   3.155   7.386
  868POPC   C1B14143  36.728   2.464   8.769
  868POPC   C2B14144  36.813   2.409   8.357
  868POPC   C3B14145  36.824   2.543   7.945
  868POPC   C4B14146  36.830   2.405   7.536
  869POPC   NC314147   8.661   9.538   9.391
  869POPC   PO414148   9.107   9.997   9.671
  869POPC   GL114149   9.102   9.743   9.221
  869POPC   GL214150   8.811   9.792   8.976
  869POPC   C1A14151   9.314   9.673   8.801
  869POPC   D2A14152   9.330   9.836   8.378
  869POPC   C3A14153   8.943   9.676   8.156
  869POPC   C4A14154   8.564   9.681   7.857
  869POPC   C1B14155   8.616  10.078   8.660
  869POPC   C2B14156   8.580  10.081   8.202
  869POPC   C3B14157   8.600  10.203   7.777
  869POPC   C4B14158   8.718   9.954   7.426
  870POPC   NC314159  17.937  18.839   9.660
  870POPC   PO414160  17.184  18.926   9.801
  870POPC   GL114161  17.296  19.098   9.366
  870POPC   GL214162  17.544  18.846   9.272
  870POPC   C1A14163  17.411  19.200   8.888
  870POPC   D2A14164  17.361  19.042   8.421
  870POPC   C3A14165  17.220  19.257   8.051
  870POPC   C4A14166  17.466  19.217   7.666
  870POPC   C1B14167  17.523  18.692   8.816
  870POPC   C2B14168  17.790  18.781   8.471
  870POPC   C3B14169  17.765  18.975   8.055
  870POPC   C4B14170  17.759  18.810   7.628
  871POPC   NC314171  14.277   8.606   9.532
  871POPC   PO414172  14.063   8.003   9.445
  871POPC   GL114173  14.414   8.018   9.143
  871POPC   GL214174  14.452   8.385   9.085
  871POPC   C1A14175  14.531   8.064   8.684
  871POPC   D2A14176  14.322   8.370   8.391
  871POPC   C3A14177  14.165   8.216   7.991
  871POPC   C4A14178  14.310   8.021   7.636
  871POPC   C1B14179  14.686   8.569   8.734
  871POPC   C2B14180  14.665   8.728   8.291
  871POPC   C3B14181  14.639   8.390   7.941
  871POPC   C4B14182  14.659   8.330   7.481
  872POPC   NC314183  20.240   3.407   9.490
  872POPC   PO414184  20.883   3.680   9.571
  872POPC   GL114185  20.748   3.632   9.169
  872POPC   GL214186  20.642   3.278   9.182
  872POPC   C1A14187  20.877   3.542   8.741
  872POPC   D2A14188  20.773   3.409   8.314
  872POPC   C3A14189  20.743   3.716   7.959
  872POPC   C4A14190  20.865   3.741   7.519
  872POPC   C1B14191  20.419   3.190   8.782
  872POPC   C2B14192  20.170   3.231   8.388
  872POPC   C3B14193  20.355   3.256   8.000
  872POPC   C4B14194  20.591   3.320   7.666
  873POPC   NC314195  29.919   3.340   9.526
  873POPC   PO414196  30.639   3.357   9.641
  873POPC   GL114197  30.321   3.503   9.287
  873POPC   GL214198  30.413   3.327   9.082
  873POPC   C1A14199  30.021   3.638   8.950
  873POPC   D2A14200  30.069   3.728   8.520
  873POPC   C3A14201  29.814   3.585   8.177
  873POPC   C4A14202  29.599   3.497   7.823
  873POPC   C1B14203  30.275   3.269   8.671
  873POPC   C2B14204  30.289   3.363   8.213
  873POPC   C3B14205  30.131   3.356   7.783
  873POPC   C4B14206  30.140   3.373   7.317
  874POPC   NC314207  33.380  12.448   9.475
  874POPC   PO414208  33.111  13.067   9.543
  874POPC   GL114209  33.192  12.953   9.144
  874POPC   GL214210  32.951  12.754   9.100
  874POPC   C1A14211  33.052  13.089   8.714
  874POPC   D2A14212  33.036  13.279   8.292
  874POPC   C3A14213  33.044  12.983   7.936
  874POPC   C4A14214  33.303  12.592   7.893
  874POPC   C1B14215  32.859  12.570   8.760
  874POPC   C2B14216  32.786  12.786   8.366
  874POPC   C3B14217  32.721  12.575   8.026
  874POPC   C4B14218  32.852  12.549   7.668
  875POPC   NC314219   6.024  24.055   9.369
  875POPC   PO414220   5.623  23.453   9.475
  875POPC   GL114221   5.965  23.450   9.168
  875POPC   GL214222   5.822  23.739   9.023
  875POPC   C1A14223   6.086  23.465   8.716
  875POPC   D2A14224   6.013  23.681   8.292
  875POPC   C3A14225   5.977  23.389   7.880
  875POPC   C4A14226   6.107  23.337   7.386
  875POPC   C1B14227   5.497  23.830   8.701
  875POPC   C2B14228   5.421  24.096   8.350
  875POPC   C3B14229   5.434  23.935   7.944
  875POPC   C4B14230   5.832  23.861   7.755
  876POPC   NC314231   7.073  33.562   9.511
  876POPC   PO414232   7.489  34.103   9.479
  876POPC   GL114233   7.641  33.815   9.152
  876POPC   GL214234   7.290  33.728   9.080
  876POPC   C1A14235   7.601  33.527   8.752
  876POPC   D2A14236   7.316  33.628   8.411
  876POPC   C3A14237   7.536  33.755   8.061
  876POPC   C4A14238   7.767  33.597   7.731
  876POPC   C1B14239   7.415  34.023   8.742
  876POPC   C2B14240   7.190  34.116   8.376
  876POPC   C3B14241   7.062  33.946   7.987
  876POPC   C4B14242   6.953  34.289   7.731
  877POPC   NC314243  21.179  14.085   9.526
  877POPC   PO414244  21.650  14.561   9.445
  877POPC   GL114245  21.228  14.520   9.202
  877POPC   GL214246  21.157  14.207   9.047
  877POPC   C1A14247  21.032  14.599   8.767
  877POPC   D2A14248  21.131  14.357   8.389
  877POPC   C3A14249  21.099  14.610   8.010
  877POPC   C4A14250  21.469  14.700   7.711
  877POPC   C1B14251  21.329  14.003   8.727
  877POPC   C2B14252  21.555  13.840   8.420
  877POPC   C3B14253  21.622  13.963   8.010
  877POPC   C4B14254  21.315  14.207   7.809
  878POPC   NC314255  29.089  30.454   9.488
  878POPC   PO414256  28.981  31.148   9.511
  878POPC   GL114257  28.875  30.829   9.198
  878POPC   GL214258  29.239  30.823   9.145
  878POPC   C1A14259  28.941  30.601   8.772
  878POPC   D2A14260  28.897  30.427   8.327
  878POPC   C3A14261  29.023  30.743   8.030
  878POPC   C4A14262  29.149  30.760   7.616
  878POPC   C1B14263  29.499  30.673   8.802
  878POPC   C2B14264  29.364  30.660   8.397
  878POPC   C3B14265  29.534  30.570   7.984
  878POPC   C4B14266  29.647  30.780   7.604
  879POPC   NC314267  35.970  16.317   9.597
  879POPC   PO414268  35.996  15.684   9.601
  879POPC   GL114269  36.229  15.927   9.295
  879POPC   GL214270  36.409  16.252   9.347
  879POPC   C1A14271  36.166  15.863   8.862
  879POPC   D2A14272  35.902  16.034   8.550
  879POPC   C3A14273  35.992  15.783   8.201
  879POPC   C4A14274  36.057  15.958   7.821
  879POPC   C1B14275  36.300  16.343   8.926
  879POPC   C2B14276  36.515  16.331   8.547
  879POPC   C3B14277  36.395  16.166   8.158
  879POPC   C4B14278  36.557  16.093   7.757
  880POPC   NC314279  39.065  41.723   9.568
  880POPC   PO414280  39.193  41.058   9.327
  880POPC   GL114281  39.252  41.385   9.005
  880POPC   GL214282  39.251  41.718   9.114
  880POPC   C1A14283  39.096  41.606   8.651
  880POPC   D2A14284  39.050  41.617   8.236
  880POPC   C3A14285  39.252  41.371   7.976
  880POPC   C4A14286  39.198  41.506   7.546
  880POPC   C1B14287  39.463  41.925   8.854
  880POPC   C2B14288  39.494  41.933   8.441
  880POPC   C3B14289  39.554  41.776   8.062
  880POPC   C4B14290  39.553  41.946   7.624
  881POPC   NC314291  23.732   7.099   9.506
  881POPC   PO414292  23.908   6.397   9.489
  881POPC   GL114293  23.727   6.698   9.190
  881POPC   GL214294  23.403   6.549   9.127
  881POPC   C1A14295  23.640   6.784   8.749
  881POPC   D2A14296  23.778   6.573   8.375
  881POPC   C3A14297  23.924   6.824   8.061
  881POPC   C4A14298  23.656   6.906   7.727
  881POPC   C1B14299  23.730   6.302   8.855
  881POPC   C2B14300  23.667   6.066   8.485
  881POPC   C3B14301  23.533   6.171   8.102
  881POPC   C4B14302  23.740   6.405   7.847
  882POPC   NC314303  26.464  20.859   9.921
  882POPC   PO414304  26.804  20.424   9.586
  882POPC   GL114305  26.678  20.408   9.162
  882POPC   GL214306  26.306  20.308   9.129
  882POPC   C1A14307  26.835  20.697   8.798
  882POPC   D2A14308  26.798  20.848   8.357
  882POPC   C3A14309  26.881  20.597   7.975
  882POPC   C4A14310  26.933  20.781   7.523
  882POPC   C1B14311  26.437  20.388   8.728
  882POPC   C2B14312  26.627  20.322   8.363
  882POPC   C3B14313  26.419  20.275   8.004
  882POPC   C4B14314  26.523  20.340   7.607
  883POPC   NC314315   8.241  35.076   9.861
  883POPC   PO414316   8.393  34.515   9.594
  883POPC   GL114317   8.327  34.443   9.195
  883POPC   GL214318   8.052  34.628   9.147
  883POPC   C1A14319   8.332  34.279   8.780
  883POPC   D2A14320   8.189  34.451   8.380
  883POPC   C3A14321   8.404  34.306   8.024
  883POPC   C4A14322   8.207  34.434   7.687
  883POPC   C1B14323   7.956  34.832   8.749
  883POPC   C2B14324   7.753  34.766   8.366
  883POPC   C3B14325   7.825  34.662   7.946
  883POPC   C4B14326   7.801  34.678   7.485
  884POPC   NC314327  24.295  31.475   9.490
  884POPC   PO414328  24.971  31.709   9.497
  884POPC   GL114329  24.636  31.711   9.178
  884POPC   GL214330  24.613  31.344   9.130
  884POPC   C1A14331  24.527  31.629   8.734
  884POPC   D2A14332  24.581  31.399   8.343
  884POPC   C3A14333  24.567  31.640   7.980
  884POPC   C4A14334  24.411  31.644   7.574
  884POPC   C1B14335  24.420  31.128   8.765
  884POPC   C2B14336  24.498  30.882   8.397
  884POPC   C3B14337  24.759  30.997   8.050
  884POPC   C4B14338  24.642  31.211   7.697
  885POPC   NC314339   3.503  38.678   9.733
  885POPC   PO414340   3.783  38.091   9.568
  885POPC   GL114341   3.621  38.396   9.243
  885POPC   GL214342   3.555  38.788   9.215
  885POPC   C1A14343   3.665  38.422   8.798
  885POPC   D2A14344   3.539  38.310   8.382
  885POPC   C3A14345   3.871  38.476   8.144
  885POPC   C4A14346   3.870  38.547   7.724
  885POPC   C1B14347   3.702  38.931   8.800
  885POPC   C2B14348   3.579  38.832   8.386
  885POPC   C3B14349   3.437  38.690   8.014
  885POPC   C4B14350   3.388  38.727   7.596
  886POPC   NC314351  29.441  19.458   9.540
  886POPC   PO414352  28.964  18.900   9.436
  886POPC   GL114353  29.226  19.092   9.129
  886POPC   GL214354  29.610  19.140   9.182
  886POPC   C1A14355  29.041  19.111   8.710
  886POPC   D2A14356  28.871  19.023   8.306
  886POPC   C3A14357  29.222  18.944   8.055
  886POPC   C4A14358  29.298  18.783   7.667
  886POPC   C1B14359  29.577  19.149   8.744
  886POPC   C2B14360  29.438  19.314   8.353
  886POPC   C3B14361  29.103  19.440   8.072
  886POPC   C4B14362  29.200  19.284   7.666
  887POPC   NC314363  13.612   5.049   9.418
  887POPC   PO414364  13.237   5.605   9.395
  887POPC   GL114365  13.379   5.384   9.038
  887POPC   GL214366  13.720   5.404   9.066
  887POPC   C1A14367  13.484   5.244   8.604
  887POPC   D2A14368  13.473   4.910   8.266
  887POPC   C3A14369  13.313   5.019   7.854
  887POPC   C4A14370  13.353   5.316   7.546
  887POPC   C1B14371  13.912   5.076   8.848
  887POPC   C2B14372  13.950   5.018   8.434
  887POPC   C3B14373  13.940   4.753   8.082
  887POPC   C4B14374  13.841   4.981   7.724
  888POPC   NC314375  26.071  19.532   9.658
  888POPC   PO414376  26.009  18.893   9.582
  888POPC   GL114377  26.043  19.070   9.200
  888POPC   GL214378  25.729  19.127   9.189
  888POPC   C1A14379  26.216  19.065   8.784
  888POPC   D2A14380  26.135  18.934   8.370
  888POPC   C3A14381  25.931  19.062   8.013
  888POPC   C4A14382  26.143  19.039   7.632
  888POPC   C1B14383  25.770  18.823   8.828
  888POPC   C2B14384  25.627  18.851   8.388
  888POPC   C3B14385  25.639  18.614   7.962
  888POPC   C4B14386  25.796  18.650   7.520
  889POPC   NC314387  26.866   2.431   9.593
  889POPC   PO414388  26.715   3.077   9.474
  889POPC   GL114389  26.750   2.758   9.182
  889POPC   GL214390  27.109   2.643   9.148
  889POPC   C1A14391  26.673   2.737   8.754
  889POPC   D2A14392  26.818   2.498   8.430
  889POPC   C3A14393  26.623   2.692   8.073
  889POPC   C4A14394  26.569   2.531   7.668
  889POPC   C1B14395  27.124   2.971   8.788
  889POPC   C2B14396  27.063   2.945   8.317
  889POPC   C3B14397  27.049   2.852   7.843
  889POPC   C4B14398  27.202   2.994   7.447
  890POPC   NC314399  26.902  25.113   9.503
  890POPC   PO414400  27.113  25.698   9.435
  890POPC   GL114401  26.885  25.404   9.092
  890POPC   GL214402  27.033  25.040   9.019
  890POPC   C1A14403  26.684  25.215   8.716
  890POPC   D2A14404  26.819  25.371   8.322
  890POPC   C3A14405  26.684  25.247   7.949
  890POPC   C4A14406  26.942  25.050   7.616
  890POPC   C1B14407  27.196  25.335   8.679
  890POPC   C2B14408  27.342  25.470   8.251
  890POPC   C3B14409  27.156  25.492   7.848
  890POPC   C4B14410  27.267  25.408   7.425
  891POPC   NC314411  42.586  28.531   9.594
  891POPC   PO414412  42.075  28.216   9.448
  891POPC   GL114413  42.399  28.317   9.127
  891POPC   GL214414  42.478  28.682   9.067
  891POPC   C1A14415  42.304  28.376   8.681
  891POPC   D2A14416  42.474  28.238   8.309
  891POPC   C3A14417  42.245  28.103   7.931
  891POPC   C4A14418  42.520  28.209   7.563
  891POPC   C1B14419  42.120  28.841   8.792
  891POPC   C2B14420  42.057  28.718   8.373
  891POPC   C3B14421  42.273  28.618   7.993
  891POPC   C4B14422  42.112  28.487   7.604
  892POPC   NC314423  12.889   3.118   9.543
  892POPC   PO414424  12.543   2.526   9.397
  892POPC   GL114425  12.854   2.704   9.152
  892POPC   GL214426  12.692   2.983   9.089
  892POPC   C1A14427  12.913   2.580   8.720
  892POPC   D2A14428  12.632   2.572   8.377
  892POPC   C3A14429  12.840   2.513   8.005
  892POPC   C4A14430  12.959   2.638   7.634
  892POPC   C1B14431  13.137   3.018   8.873
  892POPC   C2B14432  13.319   2.907   8.460
  892POPC   C3B14433  13.219   2.999   7.990
  892POPC   C4B14434  13.275   3.019   7.485
  893POPC   NC314435   4.027  41.266   9.363
  893POPC   PO414436   4.583  41.682   9.526
  893POPC   GL114437   4.449  41.765   9.134
  893POPC   GL214438   4.473  41.400   9.095
  893POPC   C1A14439   4.469  41.732   8.691
  893POPC   D2A14440   4.180  41.714   8.362
  893POPC   C3A14441   4.432  41.765   8.060
  893POPC   C4A14442   4.575  41.624   7.718
  893POPC   C1B14443   4.242  41.280   8.736
  893POPC   C2B14444   4.416  41.255   8.350
  893POPC   C3B14445   4.206  41.321   7.993
  893POPC   C4B14446   4.080  41.258   7.613
  894POPC   NC314447  11.251  40.364   9.422
  894POPC   PO414448  11.632  39.834   9.454
  894POPC   GL114449  11.458  39.878   9.078
  894POPC   GL214450  11.108  39.978   8.987
  894POPC   C1A14451  11.496  39.920   8.667
  894POPC   D2A14452  11.113  39.952   8.457
  894POPC   C3A14453  11.197  39.919   8.053
  894POPC   C4A14454  11.334  39.716   7.701
  894POPC   C1B14455  11.246  40.350   8.738
  894POPC   C2B14456  11.503  40.309   8.328
  894POPC   C3B14457  11.383  40.380   7.888
  894POPC   C4B14458  11.416  40.155   7.496
  895POPC   NC314459  28.011  30.676   9.581
  895POPC   PO414460  28.628  30.452   9.483
  895POPC   GL114461  28.363  30.591   9.200
  895POPC   GL214462  28.353  30.936   9.251
  895POPC   C1A14463  28.084  30.703   8.896
  895POPC   D2A14464  28.116  30.861   8.505
  895POPC   C3A14465  28.316  30.581   8.230
  895POPC   C4A14466  28.127  30.646   7.845
  895POPC   C1B14467  28.541  31.004   8.828
  895POPC   C2B14468  28.696  30.937   8.399
  895POPC   C3B14469  28.552  30.946   7.954
  895POPC   C4B14470  28.637  30.532   7.786
  896POPC   NC314471  33.366  24.053   9.658
  896POPC   PO414472  33.037  23.466   9.580
  896POPC   GL114473  32.975  23.643   9.204
  896POPC   GL214474  33.114  23.958   9.216
  896POPC   C1A14475  32.850  23.660   8.790
  896POPC   D2A14476  33.047  23.478   8.453
  896POPC   C3A14477  33.026  23.740   8.121
  896POPC   C4A14478  32.701  23.758   7.834
  896POPC   C1B14479  32.865  24.172   8.917
  896POPC   C2B14480  32.886  24.195   8.485
  896POPC   C3B14481  32.864  24.226   8.039
  896POPC   C4B14482  32.618  24.230   7.653
  897POPC   NC314483  33.244  22.366   9.298
  897POPC   PO414484  32.927  21.801   9.536
  897POPC   GL114485  32.874  21.959   9.108
  897POPC   GL214486  32.544  21.786   9.047
  897POPC   C1A14487  33.115  22.161   8.711
  897POPC   D2A14488  33.257  22.449   8.357
  897POPC   C3A14489  33.111  22.306   7.993
  897POPC   C4A14490  32.924  22.248   7.618
  897POPC   C1B14491  32.687  21.859   8.638
  897POPC   C2B14492  32.967  21.879   8.308
  897POPC   C3B14493  32.716  21.913   7.973
  897POPC   C4B14494  32.777  21.768   7.580
  898POPC   NC314495   8.991  28.683   9.471
  898POPC   PO414496   9.216  29.303   9.485
  898POPC   GL114497   9.006  29.114   9.163
  898POPC   GL214498   9.340  29.059   9.033
  898POPC   C1A14499   8.972  28.802   8.829
  898POPC   D2A14500   9.080  28.577   8.469
  898POPC   C3A14501   9.163  28.893   8.161
  898POPC   C4A14502   9.092  28.889   7.713
  898POPC   C1B14503   9.147  29.260   8.663
  898POPC   C2B14504   8.928  29.498   8.316
  898POPC   C3B14505   8.892  29.603   7.871
  898POPC   C4B14506   9.018  29.347   7.537
  899POPC   NC314507   5.796  37.221   9.569
  899POPC   PO414508   5.727  36.417   9.497
  899POPC   GL114509   5.742  36.658   9.123
  899POPC   GL214510   5.987  36.939   9.155
  899POPC   C1A14511   5.743  36.664   8.686
  899POPC   D2A14512   5.700  36.936   8.325
  899POPC   C3A14513   5.832  36.786   7.935
  899POPC   C4A14514   6.000  36.844   7.512
  899POPC   C1B14515   5.846  37.163   8.798
  899POPC   C2B14516   6.011  37.318   8.418
  899POPC   C3B14517   6.023  37.240   7.984
  899POPC   C4B14518   6.164  37.425   7.640
  900POPC   NC314519  26.117  24.606   9.633
  900POPC   PO414520  26.539  24.051   9.500
  900POPC   GL114521  26.223  24.281   9.230
  900POPC   GL214522  26.266  24.658   9.161
  900POPC   C1A14523  26.023  24.341   8.828
  900POPC   D2A14524  25.864  24.142   8.465
  900POPC   C3A14525  25.852  24.351   8.095
  900POPC   C4A14526  25.844  24.685   7.842
  900POPC   C1B14527  26.426  24.675   8.765
  900POPC   C2B14528  26.191  24.640   8.397
  900POPC   C3B14529  26.334  24.620   7.994
  900POPC   C4B14530  26.414  24.909   7.692
  901POPC   NC314531  10.882  41.997   9.212
  901POPC   PO414532  10.360  42.422   9.506
  901POPC   GL114533  10.518  42.417   9.135
  901POPC   GL214534  10.886  42.494   9.155
  901POPC   C1A14535  10.266  42.527   8.778
  901POPC   D2A14536  10.428  42.571   8.393
  901POPC   C3A14537  10.241  42.642   8.033
  901POPC   C4A14538  10.405  42.295   7.831
  901POPC   C1B14539  10.751  42.315   8.686
  901POPC   C2B14540  10.602  42.082   8.275
  901POPC   C3B14541  10.779  41.923   7.855
  901POPC   C4B14542  10.944  42.025   7.399
  902POPC   NC314543  32.625  25.690   9.441
  902POPC   PO414544  32.279  25.123   9.532
  902POPC   GL114545  32.131  25.367   9.160
  902POPC   GL214546  31.910  25.099   9.058
  902POPC   C1A14547  32.093  25.449   8.693
  902POPC   D2A14548  32.381  25.437   8.330
  902POPC   C3A14549  32.353  25.629   7.903
  902POPC   C4A14550  32.364  25.518   7.451
  902POPC   C1B14551  32.227  24.935   8.752
  902POPC   C2B14552  32.237  24.946   8.292
  902POPC   C3B14553  32.360  25.112   7.883
  902POPC   C4B14554  32.276  24.972   7.464
  903POPC   NC314555  33.116  40.208   9.767
  903POPC   PO414556  33.124  40.794   9.395
  903POPC   GL114557  33.181  40.759   8.988
  903POPC   GL214558  32.907  40.551   8.856
  903POPC   C1A14559  33.315  40.668   8.597
  903POPC   D2A14560  33.043  40.793   8.311
  903POPC   C3A14561  32.900  40.568   8.000
  903POPC   C4A14562  33.095  40.776   7.714
  903POPC   C1B14563  32.808  40.987   8.734
  903POPC   C2B14564  32.570  40.997   8.371
  903POPC   C3B14565  32.698  41.025   7.968
  903POPC   C4B14566  32.737  41.169   7.569
  904POPC   NC314567  12.124  38.004   9.344
  904POPC   PO414568  12.140  38.668   9.438
  904POPC   GL114569  11.976  38.475   9.090
  904POPC   GL214570  11.679  38.319   9.216
  904POPC   C1A14571  12.209  38.420   8.700
  904POPC   D2A14572  12.404  38.724   8.393
  904POPC   C3A14573  12.251  38.583   8.000
  904POPC   C4A14574  12.256  38.169   7.845
  904POPC   C1B14575  11.590  38.234   8.773
  904POPC   C2B14576  11.846  38.257   8.366
  904POPC   C3B14577  11.772  38.024   7.975
  904POPC   C4B14578  11.860  38.064   7.543
  905POPC   NC314579  16.215   3.607   9.498
  905POPC   PO414580  15.705   3.232   9.173
  905POPC   GL114581  16.016   3.401   9.050
  905POPC   GL214582  15.923   3.732   9.103
  905POPC   C1A14583  15.979   3.505   8.644
  905POPC   D2A14584  15.766   3.410   8.311
  905POPC   C3A14585  15.962   3.495   7.975
  905POPC   C4A14586  15.785   3.749   7.631
  905POPC   C1B14587  16.339   3.769   8.859
  905POPC   C2B14588  16.533   3.659   8.469
  905POPC   C3B14589  16.445   3.851   8.037
  905POPC   C4B14590  16.295   3.726   7.694
  906POPC   NC314591  23.907   9.194   9.441
  906POPC   PO414592  23.485   8.688   9.632
  906POPC   GL114593  23.708   8.708   9.173
  906POPC   GL214594  23.816   9.028   8.981
  906POPC   C1A14595  23.509   8.714   8.733
  906POPC   D2A14596  23.298   8.988   8.406
  906POPC   C3A14597  23.528   9.100   7.999
  906POPC   C4A14598  23.475   9.372   7.637
  906POPC   C1B14599  23.960   9.004   8.594
  906POPC   C2B14600  23.909   9.348   8.307
  906POPC   C3B14601  24.086   9.303   7.920
  906POPC   C4B14602  23.907   9.115   7.596
  907POPC   NC314603  24.600  43.733   9.483
  907POPC   PO414604  24.641  44.390   9.376
  907POPC   GL114605  24.383  44.141   9.173
  907POPC   GL214606  24.670  43.967   9.025
  907POPC   C1A14607  24.270  44.173   8.749
  907POPC   D2A14608  24.485  44.082   8.347
  907POPC   C3A14609  24.462  43.743   8.032
  907POPC   C4A14610  24.253  43.610   7.641
  907POPC   C1B14611  24.745  43.740   8.646
  907POPC   C2B14612  24.803  43.466   8.310
  907POPC   C3B14613  24.961  43.515   7.914
  907POPC   C4B14614  24.770  43.696   7.545
  908POPC   NC314615  34.656  37.347   9.415
  908POPC   PO414616  34.572  37.903   9.772
  908POPC   GL114617  34.483  37.817   9.259
  908POPC   GL214618  34.382  37.487   9.031
  908POPC   C1A14619  34.605  37.877   8.779
  908POPC   D2A14620  34.384  37.854   8.331
  908POPC   C3A14621  34.610  37.823   7.920
  908POPC   C4A14622  34.558  37.612   7.513
  908POPC   C1B14623  34.419  37.423   8.594
  908POPC   C2B14624  34.795  37.518   8.312
  908POPC   C3B14625  34.839  37.354   7.886
  908POPC   C4B14626  34.405  37.159   7.787
  909POPC   NC314627   3.907  43.550   9.284
  909POPC   PO414628   4.011  44.159   9.479
  909POPC   GL114629   4.237  44.063   9.117
  909POPC   GL214630   4.424  43.741   9.155
  909POPC   C1A14631   4.146  43.960   8.700
  909POPC   D2A14632   4.164  43.748   8.292
  909POPC   C3A14633   4.127  44.051   7.940
  909POPC   C4A14634   4.497  44.113   7.727
  909POPC   C1B14635   4.440  43.542   8.728
  909POPC   C2B14636   4.672  43.607   8.336
  909POPC   C3B14637   4.503  43.622   7.913
  909POPC   C4B14638   4.076  43.599   7.718
  910POPC   NC314639  11.320  27.389   9.751
  910POPC   PO414640  11.383  27.928   9.460
  910POPC   GL114641  11.094  27.690   9.186
  910POPC   GL214642  11.099  27.330   9.277
  910POPC   C1A14643  11.019  27.855   8.771
  910POPC   D2A14644  11.183  28.002   8.370
  910POPC   C3A14645  11.107  27.773   8.031
  910POPC   C4A14646  11.394  27.715   7.674
  910POPC   C1B14647  11.157  27.333   8.809
  910POPC   C2B14648  11.230  27.408   8.355
  910POPC   C3B14649  11.203  27.283   7.888
  910POPC   C4B14650  11.309  26.917   7.574
  911POPC   NC314651  18.127  44.169   9.476
  911POPC   PO414652  18.529  44.758   9.516
  911POPC   GL114653  18.484  44.725   9.122
  911POPC   GL214654  18.668   0.021   9.049
  911POPC   C1A14655  18.429  44.363   8.851
  911POPC   D2A14656  18.477  44.224   8.437
  911POPC   C3A14657  18.275  44.567   8.218
  911POPC   C4A14658  18.157  44.583   7.809
  911POPC   C1B14659  18.351  44.985   8.703
  911POPC   C2B14660  18.459   0.088   8.277
  911POPC   C3B14661  18.398   0.008   7.889
  911POPC   C4B14662  18.009   0.076   7.722
  912POPC   NC314663  34.641  39.452   9.464
  912POPC   PO414664  34.339  38.847   9.537
  912POPC   GL114665  34.456  39.114   9.151
  912POPC   GL214666  34.291  39.482   9.095
  912POPC   C1A14667  34.650  39.204   8.757
  912POPC   D2A14668  34.683  38.945   8.412
  912POPC   C3A14669  34.773  39.073   8.006
  912POPC   C4A14670  34.378  39.168   7.786
  912POPC   C1B14671  34.295  39.588   8.651
  912POPC   C2B14672  34.522  39.436   8.300
  912POPC   C3B14673  34.787  39.611   8.015
  912POPC   C4B14674  34.791  39.417   7.642
  913POPC   NC314675  36.832  24.559   9.589
  913POPC   PO414676  37.229  24.008   9.526
  913POPC   GL114677  36.938  24.140   9.160
  913POPC   GL214678  36.864  24.517   9.088
  913POPC   C1A14679  36.704  24.167   8.775
  913POPC   D2A14680  36.733  24.578   8.555
  913POPC   C3A14681  36.736  24.594   8.109
  913POPC   C4A14682  36.613  24.364   7.749
  913POPC   C1B14683  37.129  24.779   8.799
  913POPC   C2B14684  37.224  24.648   8.335
  913POPC   C3B14685  37.170  24.761   7.847
  913POPC   C4B14686  37.233  24.932   7.397
  914POPC   NC314687  25.550  33.809   9.452
  914POPC   PO414688  26.249  33.742   9.610
  914POPC   GL114689  26.227  33.756   9.189
  914POPC   GL214690  26.323  34.096   9.116
  914POPC   C1A14691  25.938  33.788   8.853
  914POPC   D2A14692  26.043  33.613   8.455
  914POPC   C3A14693  25.828  33.699   8.124
  914POPC   C4A14694  25.811  33.579   7.742
  914POPC   C1B14695  26.261  34.129   8.675
  914POPC   C2B14696  26.269  34.020   8.258
  914POPC   C3B14697  26.210  33.933   7.833
  914POPC   C4B14698  26.445  34.021   7.445
  915POPC   NC314699  41.195   2.688   9.553
  915POPC   PO414700  40.544   2.873   9.496
  915POPC   GL114701  40.871   2.772   9.172
  915POPC   GL214702  41.207   2.996   9.160
  915POPC   C1A14703  40.900   2.902   8.759
  915POPC   D2A14704  40.723   3.014   8.394
  915POPC   C3A14705  40.945   2.782   8.101
  915POPC   C4A14706  40.843   2.637   7.706
  915POPC   C1B14707  41.404   3.023   8.761
  915POPC   C2B14708  41.283   3.146   8.319
  915POPC   C3B14709  41.163   3.133   7.830
  915POPC   C4B14710  41.037   3.020   7.394
  916POPC   NC314711  13.083  39.637   9.362
  916POPC   PO414712  13.078  39.022   9.258
  916POPC   GL114713  12.782  39.261   9.084
  916POPC   GL214714  12.808  39.585   8.941
  916POPC   C1A14715  12.580  39.136   8.709
  916POPC   D2A14716  12.831  39.046   8.329
  916POPC   C3A14717  12.624  39.146   7.939
  916POPC   C4A14718  12.484  39.413   7.596
  916POPC   C1B14719  13.213  39.459   8.753
  916POPC   C2B14720  13.183  39.444   8.347
  916POPC   C3B14721  13.083  39.381   7.946
  916POPC   C4B14722  13.027  39.323   7.489
  917POPC   NC314723   7.054  18.549   9.507
  917POPC   PO414724   6.461  18.180   9.572
  917POPC   GL114725   6.584  18.115   9.212
  917POPC   GL214726   6.384  17.793   9.215
  917POPC   C1A14727   6.733  18.269   8.821
  917POPC   D2A14728   6.442  18.512   8.599
  917POPC   C3A14729   6.434  18.359   8.181
  917POPC   C4A14730   6.270  18.410   7.768
  917POPC   C1B14731   6.680  17.768   8.878
  917POPC   C2B14732   6.653  17.900   8.458
  917POPC   C3B14733   6.839  18.077   8.095
  917POPC   C4B14734   6.664  18.105   7.723
  918POPC   NC314735  26.503  41.749   9.498
  918POPC   PO414736  27.177  41.682   9.605
  918POPC   GL114737  27.038  41.518   9.168
  918POPC   GL214738  26.681  41.537   9.084
  918POPC   C1A14739  27.013  41.560   8.698
  918POPC   D2A14740  26.751  41.737   8.333
  918POPC   C3A14741  26.918  41.588   7.942
  918POPC   C4A14742  26.962  41.237   7.655
  918POPC   C1B14743  26.566  41.271   8.750
  918POPC   C2B14744  26.407  41.332   8.340
  918POPC   C3B14745  26.507  41.252   7.911
  918POPC   C4B14746  26.506  41.111   7.484
  919POPC   NC314747   5.292  39.113   9.479
  919POPC   PO414748   4.746  39.388   9.418
  919POPC   GL114749   5.059  39.269   9.050
  919POPC   GL214750   5.286  38.954   9.010
  919POPC   C1A14751   5.068  39.260   8.602
  919POPC   D2A14752   4.737  39.175   8.293
  919POPC   C3A14753   4.844  39.417   7.933
  919POPC   C4A14754   5.273  39.529   7.862
  919POPC   C1B14755   4.924  38.818   8.811
  919POPC   C2B14756   4.884  38.679   8.409
  919POPC   C3B14757   5.123  38.785   8.059
  919POPC   C4B14758   5.128  39.054   7.691
  920POPC   NC314759  39.329  10.994   9.627
  920POPC   PO414760  39.588  11.596   9.629
  920POPC   GL114761  39.470  11.284   9.235
  920POPC   GL214762  39.135  11.157   9.165
  920POPC   C1A14763  39.507  11.227   8.779
  920POPC   D2A14764  39.392  11.500   8.406
  920POPC   C3A14765  39.684  11.545   8.067
  920POPC   C4A14766  39.786  11.168   7.873
  920POPC   C1B14767  39.046  11.025   8.717
  920POPC   C2B14768  39.172  11.040   8.264
  920POPC   C3B14769  39.237  11.324   7.913
  920POPC   C4B14770  38.962  11.471   7.589
  921POPC   NC314771  17.583  40.725   9.320
  921POPC   PO414772  17.017  41.048   9.460
  921POPC   GL114773  17.314  41.156   9.128
  921POPC   GL214774  17.659  41.338   9.163
  921POPC   C1A14775  17.388  40.934   8.733
  921POPC   D2A14776  17.543  40.557   8.514
  921POPC   C3A14777  17.559  40.701   8.109
  921POPC   C4A14778  17.497  40.549   7.716
  921POPC   C1B14779  17.925  41.112   8.856
  921POPC   C2B14780  17.844  40.968   8.476
  921POPC   C3B14781  17.978  41.001   8.094
  921POPC   C4B14782  17.785  40.983   7.726
  922POPC   NC314783  24.717  43.107   9.519
  922POPC   PO414784  24.224  43.484   9.448
  922POPC   GL114785  24.445  43.300   9.131
  922POPC   GL214786  24.774  43.453   9.090
  922POPC   C1A14787  24.284  42.972   8.873
  922POPC   D2A14788  24.212  42.873   8.475
  922POPC   C3A14789  24.256  43.175   8.172
  922POPC   C4A14790  24.178  43.055   7.777
  922POPC   C1B14791  24.773  43.157   8.747
  922POPC   C2B14792  24.714  42.951   8.338
  922POPC   C3B14793  24.684  43.077   7.887
  922POPC   C4B14794  24.557  43.219   7.474
  923POPC   NC314795   1.220  29.882   9.633
  923POPC   PO414796   0.625  30.141   9.492
  923POPC   GL114797   1.005  30.092   9.190
  923POPC   GL214798   1.285  29.860   9.128
  923POPC   C1A14799   1.142  30.217   8.762
  923POPC   D2A14800   1.194  30.391   8.334
  923POPC   C3A14801   1.129  30.070   8.077
  923POPC   C4A14802   1.138  29.945   7.706
  923POPC   C1B14803   1.069  29.710   8.747
  923POPC   C2B14804   1.104  29.602   8.275
  923POPC   C3B14805   1.396  29.553   7.887
  923POPC   C4B14806   1.455  29.677   7.399
  924POPC   NC314807  13.870  39.032   9.481
  924POPC   PO414808  13.506  39.688   9.553
  924POPC   GL114809  13.532  39.407   9.220
  924POPC   GL214810  13.871  39.487   9.202
  924POPC   C1A14811  13.671  39.186   8.845
  924POPC   D2A14812  13.682  39.370   8.470
  924POPC   C3A14813  13.531  39.131   8.143
  924POPC   C4A14814  13.520  39.198   7.723
  924POPC   C1B14815  14.125  39.462   8.846
  924POPC   C2B14816  14.120  39.636   8.452
  924POPC   C3B14817  13.984  39.439   8.073
  924POPC   C4B14818  13.871  39.573   7.691
  925POPC   NC314819   3.162  16.890   9.553
  925POPC   PO414820   2.849  16.308   9.394
  925POPC   GL114821   2.720  16.615   9.122
  925POPC   GL214822   2.398  16.444   9.093
  925POPC   C1A14823   2.719  16.929   8.822
  925POPC   D2A14824   2.829  16.753   8.416
  925POPC   C3A14825   2.654  16.952   8.088
  925POPC   C4A14826   2.823  17.126   7.741
  925POPC   C1B14827   2.463  16.514   8.675
  925POPC   C2B14828   2.486  16.281   8.300
  925POPC   C3B14829   2.492  16.347   7.845
  925POPC   C4B14830   2.817  16.615   7.714
  926POPC   NC314831  34.332  44.952   9.578
  926POPC   PO414832  34.738  44.565   9.432
  926POPC   GL114833  34.618  44.585   9.066
  926POPC   GL214834  34.480  44.882   9.037
  926POPC   C1A14835  34.614  44.459   8.657
  926POPC   D2A14836  34.677  44.573   8.304
  926POPC   C3A14837  34.532  44.484   7.948
  926POPC   C4A14838  34.831  44.634   7.685
  926POPC   C1B14839  34.155  44.582   8.859
  926POPC   C2B14840  34.102  44.608   8.407
  926POPC   C3B14841  34.332  44.935   8.155
  926POPC   C4B14842  34.406  44.939   7.712
  927POPC   NC314843  37.139  44.705   9.977
  927POPC   PO414844  36.594  44.330   9.717
  927POPC   GL114845  36.788  44.655   9.389
  927POPC   GL214846  37.128  44.544   9.279
  927POPC   C1A14847  36.775  44.835   8.929
  927POPC   D2A14848  36.714  44.620   8.484
  927POPC   C3A14849  36.905  44.659   8.035
  927POPC   C4A14850  36.854  44.904   7.623
  927POPC   C1B14851  37.112  44.464   8.829
  927POPC   C2B14852  37.282  44.499   8.425
  927POPC   C3B14853  37.411  44.431   8.016
  927POPC   C4B14854  37.229  44.504   7.631
  928POPC   NC314855   1.607  43.291   9.335
  928POPC   PO414856   0.952  43.004   9.468
  928POPC   GL114857   1.221  43.015   9.112
  928POPC   GL214858   1.299  43.327   8.941
  928POPC   C1A14859   1.202  42.921   8.678
  928POPC   D2A14860   1.278  43.129   8.278
  928POPC   C3A14861   0.977  43.120   7.938
  928POPC   C4A14862   0.949  42.849   7.551
  928POPC   C1B14863   1.361  43.540   8.561
  928POPC   C2B14864   1.635  43.515   8.229
  928POPC   C3B14865   1.702  43.195   7.995
  928POPC   C4B14866   1.426  42.961   7.784
  929POPC   NC314867  31.040  44.366   9.764
  929POPC   PO414868  30.674  44.863   9.525
  929POPC   GL114869  30.875  44.710   9.183
  929POPC   GL214870  30.949  44.372   9.252
  929POPC   C1A14871  30.856  44.854   8.776
  929POPC   D2A14872  30.733  44.653   8.422
  929POPC   C3A14873  30.806  44.833   8.026
  929POPC   C4A14874  30.707  44.624   7.629
  929POPC   C1B14875  30.694  44.319   8.866
  929POPC   C2B14876  30.773  44.123   8.479
  929POPC   C3B14877  30.695  44.285   8.067
  929POPC   C4B14878  30.791  44.079   7.684
  930POPC   NC314879  27.467  13.262   9.288
  930POPC   PO414880  27.746  13.894   9.496
  930POPC   GL114881  27.634  13.762   9.094
  930POPC   GL214882  27.772  13.470   8.941
  930POPC   C1A14883  27.340  13.672   8.751
  930POPC   D2A14884  27.334  13.416   8.376
  930POPC   C3A14885  27.402  13.665   8.025
  930POPC   C4A14886  27.280  13.646   7.653
  930POPC   C1B14887  27.810  13.586   8.533
  930POPC   C2B14888  27.817  13.420   8.151
  930POPC   C3B14889  27.590  13.244   7.833
  930POPC   C4B14890  27.360  13.233   7.380
  931POPC   NC314891  38.696  14.239   9.791
  931POPC   PO414892  38.355  14.878   9.652
  931POPC   GL114893  38.384  14.673   9.210
  931POPC   GL214894  38.624  14.406   9.185
  931POPC   C1A14895  38.247  14.529   8.761
  931POPC   D2A14896  38.213  14.747   8.365
  931POPC   C3A14897  38.202  14.574   7.927
  931POPC   C4A14898  38.176  14.405   7.484
  931POPC   C1B14899  38.725  14.673   8.796
  931POPC   C2B14900  38.781  14.627   8.352
  931POPC   C3B14901  38.697  14.668   7.921
  931POPC   C4B14902  38.592  14.267   7.765
  932POPC   NC314903  11.225  17.157   9.539
  932POPC   PO414904  11.496  17.792   9.590
  932POPC   GL114905  11.333  17.689   9.219
  932POPC   GL214906  11.483  17.374   9.170
  932POPC   C1A14907  11.245  17.638   8.778
  932POPC   D2A14908  11.205  17.830   8.373
  932POPC   C3A14909  11.253  17.544   8.008
  932POPC   C4A14910  11.265  17.620   7.562
  932POPC   C1B14911  11.430  17.139   8.788
  932POPC   C2B14912  11.656  16.997   8.409
  932POPC   C3B14913  11.830  17.132   8.021
  932POPC   C4B14914  11.612  17.282   7.675
  933POPC   NC314915  25.902   6.025   9.723
  933POPC   PO414916  25.293   5.838   9.532
  933POPC   GL114917  25.304   5.702   9.128
  933POPC   GL214918  25.032   5.442   9.167
  933POPC   C1A14919  25.426   5.850   8.715
  933POPC   D2A14920  25.439   6.128   8.378
  933POPC   C3A14921  25.369   5.934   7.999
  933POPC   C4A14922  25.238   6.034   7.588
  933POPC   C1B14923  25.006   5.561   8.753
  933POPC   C2B14924  25.012   5.805   8.386
  933POPC   C3B14925  24.973   5.629   8.002
  933POPC   C4B14926  24.819   5.768   7.668
  934POPC   NC314927  17.142  35.994   9.496
  934POPC   PO414928  17.851  35.979   9.583
  934POPC   GL114929  17.601  36.026   9.259
  934POPC   GL214930  17.542  36.370   9.283
  934POPC   C1A14931  17.628  36.052   8.845
  934POPC   D2A14932  17.718  35.989   8.441
  934POPC   C3A14933  17.460  36.082   8.131
  934POPC   C4A14934  17.544  36.147   7.715
  934POPC   C1B14935  17.276  36.401   8.964
  934POPC   C2B14936  17.288  36.323   8.550
  934POPC   C3B14937  17.287  36.584   8.203
  934POPC   C4B14938  17.117  36.382   7.854
  935POPC   NC314939  35.754  14.547   9.582
  935POPC   PO414940  35.139  14.241   9.685
  935POPC   GL114941  35.131  14.402   9.245
  935POPC   GL214942  35.439  14.621   9.143
  935POPC   C1A14943  35.013  14.421   8.810
  935POPC   D2A14944  35.234  14.567   8.427
  935POPC   C3A14945  35.134  14.371   8.022
  935POPC   C4A14946  35.244  14.534   7.575
  935POPC   C1B14947  35.534  14.307   8.802
  935POPC   C2B14948  35.661  14.256   8.342
  935POPC   C3B14949  35.631  14.392   7.891
  935POPC   C4B14950  35.815  14.498   7.487
  936POPC   NC314951  35.787  17.800   9.507
  936POPC   PO414952  36.265  17.318   9.540
  936POPC   GL114953  36.072  17.493   9.182
  936POPC   GL214954  35.774  17.489   9.092
  936POPC   C1A14955  36.208  17.540   8.730
  936POPC   D2A14956  36.181  17.684   8.340
  936POPC   C3A14957  36.239  17.395   8.017
  936POPC   C4A14958  36.104  17.551   7.637
  936POPC   C1B14959  35.872  17.190   8.786
  936POPC   C2B14960  35.850  17.290   8.381
  936POPC   C3B14961  35.746  17.401   7.974
  936POPC   C4B14962  35.745  17.225   7.573
  937POPC   NC314963  26.961  29.283   9.812
  937POPC   PO414964  26.595  28.819   9.689
  937POPC   GL114965  26.689  29.166   9.376
  937POPC   GL214966  27.013  29.348   9.289
  937POPC   C1A14967  26.686  29.236   8.912
  937POPC   D2A14968  26.728  29.398   8.500
  937POPC   C3A14969  26.664  29.134   8.150
  937POPC   C4A14970  26.810  29.117   7.745
  937POPC   C1B14971  27.112  29.561   8.870
  937POPC   C2B14972  27.199  29.571   8.398
  937POPC   C3B14973  27.175  29.421   7.968
  937POPC   C4B14974  27.309  29.162   7.584
  938POPC   NC314975  21.404  21.553   9.539
  938POPC   PO414976  21.566  21.020   9.197
  938POPC   GL114977  21.188  21.192   9.072
  938POPC   GL214978  21.113  21.573   9.060
  938POPC   C1A14979  21.010  21.063   8.710
  938POPC   D2A14980  21.308  21.092   8.426
  938POPC   C3A14981  21.235  21.380   8.137
  938POPC   C4A14982  21.359  21.214   7.773
  938POPC   C1B14983  21.405  21.505   8.723
  938POPC   C2B14984  21.684  21.530   8.390
  938POPC   C3B14985  21.700  21.586   7.992
  938POPC   C4B14986  21.635  21.663   7.602
  939POPC   NC314987  37.782   6.867   9.847
  939POPC   PO414988  37.187   6.873   9.588
  939POPC   GL114989  37.463   6.852   9.211
  939POPC   GL214990  37.818   6.890   9.218
  939POPC   C1A14991  37.581   6.629   8.812
  939POPC   D2A14992  37.863   6.645   8.423
  939POPC   C3A14993  37.625   6.594   8.010
  939POPC   C4A14994  37.428   6.424   7.598
  939POPC   C1B14995  37.908   7.024   8.777
  939POPC   C2B14996  38.010   7.159   8.337
  939POPC   C3B14997  37.947   7.037   7.883
  939POPC   C4B14998  37.951   6.691   7.598
  940POPC   NC314999  40.676   3.547   9.540
  940POPC   PO415000  40.786   4.145   9.691
  940POPC   GL115001  40.882   3.871   9.213
  940POPC   GL215002  40.962   3.480   9.123
  940POPC   C1A15003  40.946   3.826   8.758
  940POPC   D2A15004  40.918   3.509   8.389
  940POPC   C3A15005  40.710   3.651   7.998
  940POPC   C4A15006  40.859   4.001   7.743
  940POPC   C1B15007  40.660   3.378   8.814
  940POPC   C2B15008  40.348   3.385   8.481
  940POPC   C3B15009  40.385   3.238   8.051
  940POPC   C4B15010  40.668   3.229   7.677
  941POPC   NC315011   7.692  43.409   9.825
  941POPC   PO415012   7.519  44.051   9.639
  941POPC   GL115013   7.482  44.108   9.197
  941POPC   GL215014   7.626  44.423   9.274
  941POPC   C1A15015   7.247  44.027   8.801
  941POPC   D2A15016   7.091  44.105   8.364
  941POPC   C3A15017   7.278  44.051   7.963
  941POPC   C4A15018   7.499  43.721   7.746
  941POPC   C1B15019   7.779  44.360   8.866
  941POPC   C2B15020   7.610  44.173   8.471
  941POPC   C3B15021   7.779  44.020   8.106
  941POPC   C4B15022   7.692  44.216   7.728
  942POPC   NC315023  29.081  12.469   9.405
  942POPC   PO415024  29.432  11.945   9.657
  942POPC   GL115025  29.241  11.963   9.217
  942POPC   GL215026  28.916  11.801   9.267
  942POPC   C1A15027  29.197  12.200   8.797
  942POPC   D2A15028  29.280  12.392   8.376
  942POPC   C3A15029  29.245  12.168   7.985
  942POPC   C4A15030  29.305  11.720   7.872
  942POPC   C1B15031  28.918  11.744   8.801
  942POPC   C2B15032  28.972  11.703   8.323
  942POPC   C3B15033  28.807  11.771   7.892
  942POPC   C4B15034  28.928  11.545   7.475
  943POPC   NC315035  10.327  18.663   9.803
  943POPC   PO415036  10.674  18.165   9.444
  943POPC   GL115037  10.542  18.263   9.077
  943POPC   GL215038  10.315  18.048   8.952
  943POPC   C1A15039  10.711  18.406   8.711
  943POPC   D2A15040  10.905  18.240   8.338
  943POPC   C3A15041  10.687  18.425   8.037
  943POPC   C4A15042  10.426  18.130   7.840
  943POPC   C1B15043  10.188  18.445   8.734
  943POPC   C2B15044   9.989  18.495   8.358
  943POPC   C3B15045  10.172  18.553   7.985
  943POPC   C4B15046  10.462  18.567   7.599
  944POPC   NC315047  13.157  16.818   9.630
  944POPC   PO415048  12.604  16.453   9.603
  944POPC   GL115049  12.893  16.513   9.237
  944POPC   GL215050  12.970  16.874   9.160
  944POPC   C1A15051  12.760  16.596   8.802
  944POPC   D2A15052  12.727  16.828   8.393
  944POPC   C3A15053  12.728  16.547   8.040
  944POPC   C4A15054  12.626  16.529   7.610
  944POPC   C1B15055  13.097  16.972   8.730
  944POPC   C2B15056  13.167  17.102   8.318
  944POPC   C3B15057  13.141  16.877   7.970
  944POPC   C4B15058  13.139  16.581   7.659
  945POPC   NC315059  38.340   0.412   9.339
  945POPC   PO415060  38.766   1.005   9.453
  945POPC   GL115061  38.629   0.763   9.098
  945POPC   GL215062  38.249   0.728   8.975
  945POPC   C1A15063  38.605   0.495   8.742
  945POPC   D2A15064  38.392   0.653   8.404
  945POPC   C3A15065  38.678   0.608   8.062
  945POPC   C4A15066  38.620   0.294   7.746
  945POPC   C1B15067  38.015   0.442   8.726
  945POPC   C2B15068  37.883   0.465   8.297
  945POPC   C3B15069  38.163   0.508   7.954
  945POPC   C4B15070  38.160   0.360   7.539
  946POPC   NC315071   6.385  16.927   9.529
  946POPC   PO415072   6.918  16.454   9.481
  946POPC   GL115073   6.754  16.756   9.150
  946POPC   GL215074   6.398  16.791   9.051
  946POPC   C1A15075   6.706  16.665   8.687
  946POPC   D2A15076   6.575  16.490   8.301
  946POPC   C3A15077   6.722  16.649   7.916
  946POPC   C4A15078   6.996  16.346   7.711
  946POPC   C1B15079   6.303  17.002   8.659
  946POPC   C2B15080   6.566  17.006   8.289
  946POPC   C3B15081   6.455  17.089   7.889
  946POPC   C4B15082   6.422  16.904   7.465
  947POPC   NC315083  37.059   5.764   9.396
  947POPC   PO415084  36.403   5.748   9.479
  947POPC   GL115085  36.578   5.994   9.173
  947POPC   GL215086  36.350   6.142   9.025
  947POPC   C1A15087  36.751   5.894   8.800
  947POPC   D2A15088  37.036   5.868   8.486
  947POPC   C3A15089  36.924   5.828   8.101
  947POPC   C4A15090  37.161   6.040   7.808
  947POPC   C1B15091  36.270   5.987   8.679
  947POPC   C2B15092  36.502   6.129   8.411
  947POPC   C3B15093  36.366   6.053   8.052
  947POPC   C4B15094  36.628   5.975   7.712
  948POPC   NC315095   8.298  32.559   9.384
  948POPC   PO415096   8.104  33.073   9.731
  948POPC   GL115097   8.046  33.007   9.230
  948POPC   GL215098   7.899  32.667   9.094
  948POPC   C1A15099   8.225  32.965   8.798
  948POPC   D2A15100   8.424  33.003   8.394
  948POPC   C3A15101   8.096  33.022   8.112
  948POPC   C4A15102   8.059  33.088   7.683
  948POPC   C1B15103   8.058  32.492   8.692
  948POPC   C2B15104   8.092  32.477   8.239
  948POPC   C3B15105   8.313  32.626   7.868
  948POPC   C4B15106   8.219  32.611   7.450
  949POPC   NC315107  22.461  36.052   9.530
  949POPC   PO415108  22.064  36.596   9.569
  949POPC   GL115109  22.147  36.295   9.190
  949POPC   GL215110  22.143  35.906   9.172
  949POPC   C1A15111  22.219  36.179   8.754
  949POPC   D2A15112  21.975  36.247   8.405
  949POPC   C3A15113  22.179  36.250   8.034
  949POPC   C4A15114  22.147  36.226   7.605
  949POPC   C1B15115  22.310  35.689   8.777
  949POPC   C2B15116  22.346  35.836   8.353
  949POPC   C3B15117  22.376  35.796   7.899
  949POPC   C4B15118  22.417  35.824   7.418
  950POPC   NC315119  43.099  15.598   9.503
  950POPC   PO415120  43.009  14.909   9.496
  950POPC   GL115121  43.113  14.914   9.065
  950POPC   GL215122  43.413  15.106   9.160
  950POPC   C1A15123  42.860  15.036   8.669
  950POPC   D2A15124  42.612  15.384   8.422
  950POPC   C3A15125  42.795  15.407   8.007
  950POPC   C4A15126  43.157  15.108   7.900
  950POPC   C1B15127  43.383  15.197   8.720
  950POPC   C2B15128  43.507  15.108   8.291
  950POPC   C3B15129  43.662  15.238   7.888
  950POPC   C4B15130  43.513  15.319   7.488
  951POPC   NC315131  35.165  30.756   9.596
  951POPC   PO415132  35.718  30.431   9.460
  951POPC   GL115133  35.433  30.575   9.151
  951POPC   GL215134  35.406  30.886   9.142
  951POPC   C1A15135  35.237  30.557   8.730
  951POPC   D2A15136  34.953  30.628   8.402
  951POPC   C3A15137  35.183  30.687   8.028
  951POPC   C4A15138  35.354  30.377   7.736
  951POPC   C1B15139  35.651  30.878   8.795
  951POPC   C2B15140  35.470  30.912   8.423
  951POPC   C3B15141  35.655  31.037   8.075
  951POPC   C4B15142  35.515  30.936   7.703
  952POPC   NC315143  30.095  11.488   9.526
  952POPC   PO415144  29.638  11.085   9.461
  952POPC   GL115145  29.948  11.031   9.125
  952POPC   GL215146  30.124  11.332   9.062
  952POPC   C1A15147  30.115  11.035   8.678
  952POPC   D2A15148  30.019  10.984   8.266
  952POPC   C3A15149  29.914  11.372   8.049
  952POPC   C4A15150  29.978  11.235   7.651
  952POPC   C1B15151  30.076  11.688   8.820
  952POPC   C2B15152  30.047  11.878   8.428
  952POPC   C3B15153  30.251  11.804   8.050
  952POPC   C4B15154  30.270  11.652   7.680
  953POPC   NC315155  41.047  10.387   9.737
  953POPC   PO415156  41.694  10.473   9.728
  953POPC   GL115157  41.744  10.521   9.311
  953POPC   GL215158  41.447  10.697   9.275
  953POPC   C1A15159  41.802  10.439   8.909
  953POPC   D2A15160  41.826  10.638   8.540
  953POPC   C3A15161  41.531  10.487   8.248
  953POPC   C4A15162  41.573  10.407   7.825
  953POPC   C1B15163  41.465  10.838   8.843
  953POPC   C2B15164  41.487  11.000   8.395
  953POPC   C3B15165  41.601  10.943   7.961
  953POPC   C4B15166  41.280  10.786   7.692
  954POPC   NC315167  26.631  30.288   9.365
  954POPC   PO415168  26.955  29.706   9.652
  954POPC   GL115169  26.834  29.837   9.214
  954POPC   GL215170  26.557  29.637   9.196
  954POPC   C1A15171  26.812  29.964   8.747
  954POPC   D2A15172  26.986  30.044   8.314
  954POPC   C3A15173  26.865  30.136   7.874
  954POPC   C4A15174  27.123  30.028   7.480
  954POPC   C1B15175  26.388  29.660   8.761
  954POPC   C2B15176  26.484  29.828   8.351
  954POPC   C3B15177  26.716  29.652   8.048
  954POPC   C4B15178  26.801  29.652   7.643
  955POPC   NC315179  16.228  15.511   9.325
  955POPC   PO415180  15.720  15.161   9.613
  955POPC   GL115181  15.924  15.028   9.233
  955POPC   GL215182  16.315  14.999   9.289
  955POPC   C1A15183  15.717  15.086   8.828
  955POPC   D2A15184  15.504  15.011   8.442
  955POPC   C3A15185  15.747  15.038   8.097
  955POPC   C4A15186  15.957  15.284   7.791
  955POPC   C1B15187  16.268  14.862   8.864
  955POPC   C2B15188  16.052  14.853   8.479
  955POPC   C3B15189  16.113  14.696   8.056
  955POPC   C4B15190  16.015  14.791   7.639
  956POPC   NC315191  23.379   0.071   9.527
  956POPC   PO415192  22.897  44.650   9.687
  956POPC   GL115193  22.846  44.851   9.252
  956POPC   GL215194  23.093  44.875   9.125
  956POPC   C1A15195  22.723  44.609   8.853
  956POPC   D2A15196  22.657  44.762   8.450
  956POPC   C3A15197  22.636  44.589   8.055
  956POPC   C4A15198  22.629  44.177   7.932
  956POPC   C1B15199  23.135  44.882   8.719
  956POPC   C2B15200  23.176  44.678   8.328
  956POPC   C3B15201  23.064  44.886   7.968
  956POPC   C4B15202  23.167  44.863   7.544
  957POPC   NC315203  14.767  14.577   9.396
  957POPC   PO415204  15.462  14.330   9.526
  957POPC   GL115205  15.255  14.302   9.161
  957POPC   GL215206  15.223  14.646   9.156
  957POPC   C1A15207  15.284  14.092   8.772
  957POPC   D2A15208  15.166  13.935   8.382
  957POPC   C3A15209  15.233  14.219   8.107
  957POPC   C4A15210  15.268  14.260   7.711
  957POPC   C1B15211  15.002  14.534   8.769
  957POPC   C2B15212  15.157  14.634   8.381
  957POPC   C3B15213  15.331  14.728   7.984
  957POPC   C4B15214  15.170  14.732   7.556
  958POPC   NC315215  32.511  15.749   9.639
  958POPC   PO415216  33.122  15.926   9.491
  958POPC   GL115217  33.010  15.762   9.095
  958POPC   GL215218  32.650  15.761   9.147
  958POPC   C1A15219  33.133  15.642   8.676
  958POPC   D2A15220  33.110  15.575   8.216
  958POPC   C3A15221  33.351  15.926   8.064
  958POPC   C4A15222  33.361  16.221   7.742
  958POPC   C1B15223  32.663  15.946   8.738
  958POPC   C2B15224  32.921  16.040   8.378
  958POPC   C3B15225  32.863  16.024   7.932
  958POPC   C4B15226  32.665  16.344   7.731
  959POPC   NC315227   3.620  13.295   9.566
  959POPC   PO415228   3.861  13.953   9.410
  959POPC   GL115229   3.657  13.831   9.040
  959POPC   GL215230   3.523  13.501   9.095
  959POPC   C1A15231   3.801  13.577   8.688
  959POPC   D2A15232   3.548  13.481   8.349
  959POPC   C3A15233   3.572  13.509   7.939
  959POPC   C4A15234   3.845  13.544   7.631
  959POPC   C1B15235   3.220  13.520   8.723
  959POPC   C2B15236   3.061  13.645   8.301
  959POPC   C3B15237   3.079  13.463   7.893
  959POPC   C4B15238   3.325  13.492   7.490
  960POPC   NC315239  15.905  18.607   9.561
  960POPC   PO415240  15.831  19.292   9.619
  960POPC   GL115241  15.927  19.052   9.241
  960POPC   GL215242  16.229  18.843   9.250
  960POPC   C1A15243  16.040  19.182   8.813
  960POPC   D2A15244  16.276  19.346   8.441
  960POPC   C3A15245  16.074  19.187   8.073
  960POPC   C4A15246  15.678  19.135   7.878
  960POPC   C1B15247  16.156  18.684   8.838
  960POPC   C2B15248  15.843  18.517   8.523
  960POPC   C3B15249  15.857  18.685   8.094
  960POPC   C4B15250  16.283  18.738   7.873
  961POPC   NC315251  11.737   8.086   9.541
  961POPC   PO415252  12.386   8.206   9.545
  961POPC   GL115253  12.147   8.213   9.188
  961POPC   GL215254  12.312   8.509   9.077
  961POPC   C1A15255  12.075   8.165   8.741
  961POPC   D2A15256  12.169   8.022   8.365
  961POPC   C3A15257  11.886   8.187   8.128
  961POPC   C4A15258  11.871   8.126   7.739
  961POPC   C1B15259  12.527   8.378   8.686
  961POPC   C2B15260  12.462   8.439   8.229
  961POPC   C3B15261  12.378   8.180   7.872
  961POPC   C4B15262  12.241   8.284   7.449
  962POPC   NC315263   9.354  21.966   9.640
  962POPC   PO415264  10.025  21.988   9.616
  962POPC   GL115265   9.819  22.269   9.301
  962POPC   GL215266  10.004  22.512   9.096
  962POPC   C1A15267   9.493  22.417   9.001
  962POPC   D2A15268   9.488  22.291   8.574
  962POPC   C3A15269   9.479  22.408   8.128
  962POPC   C4A15270   9.833  22.369   7.832
  962POPC   C1B15271  10.011  22.163   8.797
  962POPC   C2B15272   9.918  22.077   8.341
  962POPC   C3B15273  10.048  21.917   7.914
  962POPC   C4B15274  10.040  21.868   7.453
  963POPC   NC315275  18.148  16.414   9.403
  963POPC   PO415276  18.310  17.093   9.547
  963POPC   GL115277  18.376  16.861   9.184
  963POPC   GL215278  18.624  17.138   9.124
  963POPC   C1A15279  18.176  16.657   8.805
  963POPC   D2A15280  18.057  16.437   8.439
  963POPC   C3A15281  18.149  16.649   8.039
  963POPC   C4A15282  18.358  16.793   7.680
  963POPC   C1B15283  18.354  17.168   8.788
  963POPC   C2B15284  18.260  16.990   8.408
  963POPC   C3B15285  18.406  17.164   8.028
  963POPC   C4B15286  18.830  17.126   7.862
  964POPC   NC315287   6.021  12.660   9.426
  964POPC   PO415288   5.450  12.424   9.321
  964POPC   GL115289   5.655  12.712   9.058
  964POPC   GL215290   5.735  13.030   9.177
  964POPC   C1A15291   5.574  12.828   8.657
  964POPC   D2A15292   5.800  13.061   8.351
  964POPC   C3A15293   5.674  12.911   7.955
  964POPC   C4A15294   5.974  12.697   7.692
  964POPC   C1B15295   6.043  12.982   8.823
  964POPC   C2B15296   6.313  13.076   8.475
  964POPC   C3B15297   6.220  12.988   8.049
  964POPC   C4B15298   6.339  13.021   7.611
  965POPC   NC315299  17.507  14.925   9.599
  965POPC   PO415300  17.721  14.271   9.547
  965POPC   GL115301  17.561  14.306   9.154
  965POPC   GL215302  17.527  14.632   9.171
  965POPC   C1A15303  17.387  14.391   8.749
  965POPC   D2A15304  17.619  14.353   8.381
  965POPC   C3A15305  17.367  14.373   8.047
  965POPC   C4A15306  17.211  14.281   7.671
  965POPC   C1B15307  17.783  14.721   8.770
  965POPC   C2B15308  17.640  14.882   8.372
  965POPC   C3B15309  17.744  14.713   7.990
  965POPC   C4B15310  17.725  14.432   7.637
  966POPC   NC315311  15.651  26.685   9.328
  966POPC   PO415312  15.044  26.761   9.604
  966POPC   GL115313  15.150  26.618   9.208
  966POPC   GL215314  15.278  26.951   9.098
  966POPC   C1A15315  15.083  26.640   8.741
  966POPC   D2A15316  15.028  26.901   8.370
  966POPC   C3A15317  15.246  26.798   7.973
  966POPC   C4A15318  15.124  26.551   7.577
  966POPC   C1B15319  15.540  26.896   8.711
  966POPC   C2B15320  15.488  27.107   8.334
  966POPC   C3B15321  15.133  27.361   8.149
  966POPC   C4B15322  15.001  27.197   7.736
  967POPC   NC315323  21.273   3.642   9.303
  967POPC   PO415324  21.172   4.241   9.621
  967POPC   GL115325  21.317   4.189   9.219
  967POPC   GL215326  21.038   4.364   9.098
  967POPC   C1A15327  21.500   4.401   8.833
  967POPC   D2A15328  21.367   4.590   8.405
  967POPC   C3A15329  21.466   4.375   7.994
  967POPC   C4A15330  21.329   4.455   7.577
  967POPC   C1B15331  21.118   4.038   8.765
  967POPC   C2B15332  21.027   3.890   8.351
  967POPC   C3B15333  21.261   3.874   7.964
  967POPC   C4B15334  21.317   3.953   7.532
  968POPC   NC315335  44.391   3.820   9.275
  968POPC   PO415336  44.934   3.707   9.543
  968POPC   GL115337  44.756   3.434   9.212
  968POPC   GL215338  44.828   3.758   9.036
  968POPC   C1A15339  44.634   3.390   8.762
  968POPC   D2A15340  44.648   3.681   8.402
  968POPC   C3A15341  44.442   3.631   8.007
  968POPC   C4A15342  44.543   3.361   7.676
  968POPC   C1B15343   0.074   3.712   8.714
  968POPC   C2B15344   0.148   3.545   8.347
  968POPC   C3B15345  44.942   3.497   7.976
  968POPC   C4B15346   0.014   3.591   7.545
  969POPC   NC315347  36.975  21.561   9.370
  969POPC   PO415348  36.519  21.140   9.344
  969POPC   GL115349  36.723  21.352   8.984
  969POPC   GL215350  36.690  21.693   8.954
  969POPC   C1A15351  37.013  21.278   8.642
  969POPC   D2A15352  37.017  20.951   8.319
  969POPC   C3A15353  36.868  21.177   7.952
  969POPC   C4A15354  37.096  21.544   7.787
  969POPC   C1B15355  36.670  21.702   8.537
  969POPC   C2B15356  36.963  21.752   8.231
  969POPC   C3B15357  36.956  22.012   7.888
  969POPC   C4B15358  36.975  21.930   7.446
  970POPC   NC315359  27.222  32.395   9.471
  970POPC   PO415360  26.543  32.091   9.424
  970POPC   GL115361  26.851  32.142   9.123
  970POPC   GL215362  27.107  31.887   9.201
  970POPC   C1A15363  26.819  32.275   8.674
  970POPC   D2A15364  26.524  32.183   8.308
  970POPC   C3A15365  26.530  32.385   7.890
  970POPC   C4A15366  26.452  32.562   7.485
  970POPC   C1B15367  27.261  32.024   8.821
  970POPC   C2B15368  27.267  32.161   8.436
  970POPC   C3B15369  27.010  32.237   8.117
  970POPC   C4B15370  27.131  32.389   7.773
  971POPC   NC315371  13.659  37.210   9.567
  971POPC   PO415372  13.389  37.779   9.439
  971POPC   GL115373  13.675  37.671   9.091
  971POPC   GL215374  13.737  37.328   9.083
  971POPC   C1A15375  13.810  37.758   8.654
  971POPC   D2A15376  13.621  37.811   8.253
  971POPC   C3A15377  13.788  38.056   7.912
  971POPC   C4A15378  13.474  37.888   7.675
  971POPC   C1B15379  13.630  37.274   8.666
  971POPC   C2B15380  13.814  37.325   8.284
  971POPC   C3B15381  13.693  37.443   7.848
  971POPC   C4B15382  13.673  37.089   7.545
  972POPC   NC315383  36.662  31.836   9.769
  972POPC   PO415384  37.132  32.311   9.623
  972POPC   GL115385  36.964  32.236   9.238
  972POPC   GL215386  36.877  31.910   9.265
  972POPC   C1A15387  36.880  32.292   8.802
  972POPC   D2A15388  37.022  32.118   8.426
  972POPC   C3A15389  36.887  32.283   8.039
  972POPC   C4A15390  37.166  32.564   7.836
  972POPC   C1B15391  36.967  31.784   8.828
  972POPC   C2B15392  36.763  31.656   8.432
  972POPC   C3B15393  36.620  31.798   8.012
  972POPC   C4B15394  36.827  31.964   7.645
  973POPC   NC315395   1.325  32.003   9.744
  973POPC   PO415396   1.388  32.578   9.604
  973POPC   GL115397   1.334  32.327   9.215
  973POPC   GL215398   1.219  31.992   9.261
  973POPC   C1A15399   1.336  32.467   8.776
  973POPC   D2A15400   1.424  32.318   8.333
  973POPC   C3A15401   1.154  32.352   8.005
  973POPC   C4A15402   1.157  32.589   7.629
  973POPC   C1B15403   1.246  31.956   8.839
  973POPC   C2B15404   1.045  31.951   8.454
  973POPC   C3B15405   1.189  31.840   8.061
  973POPC   C4B15406   1.374  31.990   7.705
  974POPC   NC315407  34.102  12.284   9.467
  974POPC   PO415408  33.518  11.938   9.424
  974POPC   GL115409  33.745  11.854   9.028
  974POPC   GL215410  34.098  11.922   9.121
  974POPC   C1A15411  33.655  11.962   8.586
  974POPC   D2A15412  33.528  12.281   8.258
  974POPC   C3A15413  33.529  12.134   7.853
  974POPC   C4A15414  33.611  11.734   7.735
  974POPC   C1B15415  34.109  12.199   8.779
  974POPC   C2B15416  34.034  12.254   8.375
  974POPC   C3B15417  33.975  12.007   8.058
  974POPC   C4B15418  34.286  12.105   7.798
  975POPC   NC315419  10.263  22.378   9.567
  975POPC   PO415420  10.553  21.708   9.482
  975POPC   GL115421  10.372  22.005   9.174
  975POPC   GL215422  10.486  22.354   9.122
  975POPC   C1A15423  10.587  22.011   8.764
  975POPC   D2A15424  10.415  21.953   8.366
  975POPC   C3A15425  10.491  22.162   7.987
  975POPC   C4A15426  10.501  21.852   7.663
  975POPC   C1B15427  10.417  22.486   8.693
  975POPC   C2B15428  10.718  22.481   8.339
  975POPC   C3B15429  10.966  22.347   7.974
  975POPC   C4B15430  10.777  22.442   7.588
  976POPC   NC315431  29.566  20.111   9.302
  976POPC   PO415432  29.064  19.755   9.588
  976POPC   GL115433  29.152  19.618   9.124
  976POPC   GL215434  29.241  19.921   8.972
  976POPC   C1A15435  29.126  19.611   8.615
  976POPC   D2A15436  28.918  19.916   8.345
  976POPC   C3A15437  28.972  19.908   7.893
  976POPC   C4A15438  29.283  19.775   7.583
  976POPC   C1B15439  29.321  20.287   8.710
  976POPC   C2B15440  29.577  20.326   8.354
  976POPC   C3B15441  29.259  20.323   8.069
  976POPC   C4B15442  29.151  20.373   7.673
  977POPC   NC315443  14.601  18.897   9.738
  977POPC   PO415444  14.313  19.315   9.328
  977POPC   GL115445  14.606  19.167   9.114
  977POPC   GL215446  14.649  18.858   9.244
  977POPC   C1A15447  14.727  19.280   8.720
  977POPC   D2A15448  14.374  19.377   8.452
  977POPC   C3A15449  14.458  19.288   8.033
  977POPC   C4A15450  14.126  19.068   7.813
  977POPC   C1B15451  14.595  18.766   8.812
  977POPC   C2B15452  14.736  18.886   8.404
  977POPC   C3B15453  14.526  18.794   8.046
  977POPC   C4B15454  14.440  18.719   7.633
  978POPC   NC315455  39.924  11.474   9.309
  978POPC   PO415456  40.099  12.076   9.642
  978POPC   GL115457  40.095  12.145   9.200
  978POPC   GL215458  39.787  12.390   9.078
  978POPC   C1A15459  40.274  11.868   8.849
  978POPC   D2A15460  40.064  11.664   8.482
  978POPC   C3A15461  40.004  11.957   8.148
  978POPC   C4A15462  39.896  11.973   7.736
  978POPC   C1B15463  40.019  12.298   8.720
  978POPC   C2B15464  40.101  12.421   8.324
  978POPC   C3B15465  39.849  12.465   7.944
  978POPC   C4B15466  39.908  12.468   7.504
  979POPC   NC315467  31.890  41.472   9.640
  979POPC   PO415468  31.305  41.623   9.647
  979POPC   GL115469  31.287  41.665   9.236
  979POPC   GL215470  31.646  41.651   9.210
  979POPC   C1A15471  31.280  41.509   8.844
  979POPC   D2A15472  31.435  41.733   8.506
  979POPC   C3A15473  31.324  41.521   8.155
  979POPC   C4A15474  31.110  41.556   7.761
  979POPC   C1B15475  31.801  41.521   8.852
  979POPC   C2B15476  31.780  41.371   8.452
  979POPC   C3B15477  31.836  41.586   8.058
  979POPC   C4B15478  31.598  41.419   7.709
  980POPC   NC315479  26.459  20.107   9.557
  980POPC   PO415480  25.746  19.858   9.604
  980POPC   GL115481  26.056  19.875   9.263
  980POPC   GL215482  26.147  19.559   9.158
  980POPC   C1A15483  26.179  19.919   8.805
  980POPC   D2A15484  26.108  20.156   8.425
  980POPC   C3A15485  26.022  19.920   8.072
  980POPC   C4A15486  25.638  19.912   7.812
  980POPC   C1B15487  25.906  19.466   8.826
  980POPC   C2B15488  26.082  19.450   8.439
  980POPC   C3B15489  26.236  19.465   8.032
  980POPC   C4B15490  25.967  19.517   7.704
  981POPC   NC315491   4.687   5.888   9.510
  981POPC   PO415492   4.154   5.615   9.537
  981POPC   GL115493   4.472   5.603   9.174
  981POPC   GL215494   4.574   5.970   9.020
  981POPC   C1A15495   4.568   5.517   8.778
  981POPC   D2A15496   4.556   5.790   8.477
  981POPC   C3A15497   4.671   5.639   8.085
  981POPC   C4A15498   4.503   5.728   7.674
  981POPC   C1B15499   4.174   5.885   8.863
  981POPC   C2B15500   4.017   5.876   8.465
  981POPC   C3B15501   4.220   5.920   8.083
  981POPC   C4B15502   4.023   5.885   7.701
  982POPC   NC315503  34.300   4.196   9.469
  982POPC   PO415504  34.783   4.630   9.582
  982POPC   GL115505  34.649   4.468   9.188
  982POPC   GL215506  34.841   4.735   9.077
  982POPC   C1A15507  34.701   4.205   8.772
  982POPC   D2A15508  34.583   4.009   8.359
  982POPC   C3A15509  34.521   4.229   7.946
  982POPC   C4A15510  34.626   4.112   7.503
  982POPC   C1B15511  34.549   4.682   8.751
  982POPC   C2B15512  34.673   4.735   8.357
  982POPC   C3B15513  34.472   4.727   8.019
  982POPC   C4B15514  34.091   4.612   7.876
  983POPC   NC315515  33.966  14.803   9.583
  983POPC   PO415516  33.668  15.409   9.445
  983POPC   GL115517  33.881  15.165   9.190
  983POPC   GL215518  33.683  14.878   9.164
  983POPC   C1A15519  33.883  15.269   8.775
  983POPC   D2A15520  34.104  15.436   8.457
  983POPC   C3A15521  34.043  15.210   8.099
  983POPC   C4A15522  34.075  15.363   7.696
  983POPC   C1B15523  33.966  14.782   8.851
  983POPC   C2B15524  33.831  14.885   8.439
  983POPC   C3B15525  33.778  14.781   8.028
  983POPC   C4B15526  34.034  14.835   7.704
  984POPC   NC315527  28.066  38.005   9.318
  984POPC   PO415528  27.558  37.585   9.571
  984POPC   GL115529  27.648  37.678   9.176
  984POPC   GL215530  27.935  37.458   9.212
  984POPC   C1A15531  27.342  37.716   8.827
  984POPC   D2A15532  27.160  37.620   8.428
  984POPC   C3A15533  27.354  37.882   8.086
  984POPC   C4A15534  27.775  38.070   7.875
  984POPC   C1B15535  27.793  37.382   8.780
  984POPC   C2B15536  27.677  37.625   8.413
  984POPC   C3B15537  27.745  37.571   7.967
  984POPC   C4B15538  27.979  37.667   7.597
  985POPC   NC315539  35.107  13.798   9.524
  985POPC   PO415540  35.702  13.428   9.535
  985POPC   GL115541  35.501  13.671   9.219
  985POPC   GL215542  35.270  13.422   9.201
  985POPC   C1A15543  35.328  13.819   8.817
  985POPC   D2A15544  35.504  13.758   8.388
  985POPC   C3A15545  35.405  13.931   8.006
  985POPC   C4A15546  35.695  13.907   7.679
  985POPC   C1B15547  35.068  13.374   8.850
  985POPC   C2B15548  35.124  13.446   8.469
  985POPC   C3B15549  35.139  13.298   8.089
  985POPC   C4B15550  35.483  13.446   7.860
  986POPC   NC315551  17.220  15.423   9.417
  986POPC   PO415552  17.824  15.071   9.294
  986POPC   GL115553  17.486  15.129   9.096
  986POPC   GL215554  17.273  15.367   8.916
  986POPC   C1A15555  17.302  14.900   8.763
  986POPC   D2A15556  17.133  15.150   8.437
  986POPC   C3A15557  17.279  15.062   8.014
  986POPC   C4A15558  17.346  14.772   7.691
  986POPC   C1B15559  17.642  15.324   8.660
  986POPC   C2B15560  17.626  15.400   8.248
  986POPC   C3B15561  17.757  15.222   7.881
  986POPC   C4B15562  17.970  15.416   7.527
  987POPC   NC315563   2.573   8.227   9.499
  987POPC   PO415564   2.549   7.590   9.595
  987POPC   GL115565   2.395   7.829   9.189
  987POPC   GL215566   2.637   8.101   9.034
  987POPC   C1A15567   2.524   7.726   8.734
  987POPC   D2A15568   2.819   7.726   8.337
  987POPC   C3A15569   2.600   7.743   7.923
  987POPC   C4A15570   2.635   8.185   7.860
  987POPC   C1B15571   2.932   8.072   8.712
  987POPC   C2B15572   2.908   8.251   8.293
  987POPC   C3B15573   3.166   8.412   7.984
  987POPC   C4B15574   3.048   8.514   7.573
  988POPC   NC315575  37.209  25.471   9.751
  988POPC   PO415576  37.815  25.327   9.393
  988POPC   GL115577  37.692  25.153   9.019
  988POPC   GL215578  37.759  25.479   8.918
  988POPC   C1A15579  37.452  25.174   8.608
  988POPC   D2A15580  37.403  25.095   8.150
  988POPC   C3A15581  37.429  25.407   7.827
  988POPC   C4A15582  37.630  25.271   7.451
  988POPC   C1B15583  38.037  25.541   8.598
  988POPC   C2B15584  37.759  25.453   8.264
  988POPC   C3B15585  37.876  25.220   7.898
  988POPC   C4B15586  38.041  25.539   7.613
  989POPC   NC315587  12.250   4.523   9.503
  989POPC   PO415588  11.574   4.552   9.444
  989POPC   GL115589  11.841   4.346   9.149
  989POPC   GL215590  12.204   4.229   9.094
  989POPC   C1A15591  11.953   4.592   8.801
  989POPC   D2A15592  12.154   4.718   8.456
  989POPC   C3A15593  12.306   4.425   8.182
  989POPC   C4A15594  12.065   4.195   7.949
  989POPC   C1B15595  12.197   4.176   8.652
  989POPC   C2B15596  12.315   3.915   8.333
  989POPC   C3B15597  12.591   3.989   8.011
  989POPC   C4B15598  12.478   4.192   7.641
  990POPC   NC315599  37.987  36.686   9.455
  990POPC   PO415600  37.311  36.884   9.551
  990POPC   GL115601  37.536  37.112   9.256
  990POPC   GL215602  37.906  37.167   9.260
  990POPC   C1A15603  37.543  37.232   8.841
  990POPC   D2A15604  37.634  37.238   8.409
  990POPC   C3A15605  37.470  36.863   8.232
  990POPC   C4A15606  37.470  36.751   7.795
  990POPC   C1B15607  38.022  36.984   8.853
  990POPC   C2B15608  38.113  36.989   8.424
  990POPC   C3B15609  37.908  37.007   8.023
  990POPC   C4B15610  37.871  37.356   7.806
  991POPC   NC315611  44.945   4.117   9.766
  991POPC   PO415612  44.468   4.547   9.595
  991POPC   GL115613  44.759   4.558   9.252
  991POPC   GL215614  44.698   4.235   9.151
  991POPC   C1A15615  44.718   4.610   8.797
  991POPC   D2A15616  44.434   4.546   8.450
  991POPC   C3A15617  44.644   4.559   8.068
  991POPC   C4A15618  44.807   4.444   7.722
  991POPC   C1B15619  44.669   4.109   8.694
  991POPC   C2B15620  44.833   4.138   8.274
  991POPC   C3B15621  44.764   3.965   7.834
  991POPC   C4B15622  44.533   3.805   7.457
  992POPC   NC315623  27.110  37.494   9.480
  992POPC   PO415624  26.525  37.898   9.528
  992POPC   GL115625  26.751  37.719   9.208
  992POPC   GL215626  26.495  37.803   9.016
  992POPC   C1A15627  26.799  37.448   8.838
  992POPC   D2A15628  26.475  37.583   8.552
  992POPC   C3A15629  26.555  37.556   8.132
  992POPC   C4A15630  26.957  37.541   7.951
  992POPC   C1B15631  26.849  37.940   8.723
  992POPC   C2B15632  26.856  37.988   8.280
  992POPC   C3B15633  26.868  38.057   7.877
  992POPC   C4B15634  26.602  37.805   7.683
  993POPC   NC315635  27.120  43.544   9.375
  993POPC   PO415636  27.688  43.147   9.490
  993POPC   GL115637  27.579  43.212   9.078
  993POPC   GL215638  27.523  42.868   9.008
  993POPC   C1A15639  27.659  43.186   8.627
  993POPC   D2A15640  27.553  42.985   8.241
  993POPC   C3A15641  27.431  43.320   7.986
  993POPC   C4A15642  27.751  43.382   7.680
  993POPC   C1B15643  27.225  42.893   8.645
  993POPC   C2B15644  27.032  42.958   8.247
  993POPC   C3B15645  27.147  42.886   7.846
  993POPC   C4B15646  27.563  42.911   7.688
  994POPC   NC315647  25.110  11.462   9.434
  994POPC   PO415648  25.076  10.813   9.207
  994POPC   GL115649  25.228  11.209   9.016
  994POPC   GL215650  25.572  11.287   9.146
  994POPC   C1A15651  25.306  11.355   8.579
  994POPC   D2A15652  24.940  11.273   8.288
  994POPC   C3A15653  25.022  11.286   7.869
  994POPC   C4A15654  25.408  11.421   7.801
  994POPC   C1B15655  25.586  10.957   8.804
  994POPC   C2B15656  25.258  10.844   8.517
  994POPC   C3B15657  25.399  11.005   8.135
  994POPC   C4B15658  25.442  10.867   7.735
  995POPC   NC315659  39.416   8.349   9.564
  995POPC   PO415660  38.765   8.410   9.546
  995POPC   GL115661  38.995   8.274   9.160
  995POPC   GL215662  39.357   8.176   9.099
  995POPC   C1A15663  38.940   8.166   8.721
  995POPC   D2A15664  39.030   8.409   8.349
  995POPC   C3A15665  39.201   8.224   7.986
  995POPC   C4A15666  39.499   8.388   7.672
  995POPC   C1B15667  39.440   7.982   8.727
  995POPC   C2B15668  39.317   7.862   8.309
  995POPC   C3B15669  39.578   7.913   7.887
  995POPC   C4B15670  39.453   7.951   7.399
  996POPC   NC315671  23.980  34.155   9.348
  996POPC   PO415672  23.407  33.916   9.659
  996POPC   GL115673  23.660  33.774   9.241
  996POPC   GL215674  23.571  33.423   9.231
  996POPC   C1A15675  23.890  33.898   8.797
  996POPC   D2A15676  24.031  34.113   8.407
  996POPC   C3A15677  23.884  33.938   8.020
  996POPC   C4A15678  23.669  33.863   7.626
  996POPC   C1B15679  23.730  33.413   8.807
  996POPC   C2B15680  23.797  33.580   8.414
  996POPC   C3B15681  23.539  33.578   8.068
  996POPC   C4B15682  23.620  33.372   7.692
  997POPC   NC315683  38.534  22.708   9.547
  997POPC   PO415684  38.021  23.264   9.502
  997POPC   GL115685  38.313  23.203   9.162
  997POPC   GL215686  38.452  22.860   9.084
  997POPC   C1A15687  38.202  23.107   8.718
  997POPC   D2A15688  38.177  22.894   8.295
  997POPC   C3A15689  38.449  22.996   7.936
  997POPC   C4A15690  38.388  22.923   7.443
  997POPC   C1B15691  38.671  22.872   8.706
  997POPC   C2B15692  38.643  22.663   8.332
  997POPC   C3B15693  38.448  22.485   7.995
  997POPC   C4B15694  38.719  22.648   7.689
  998POPC   NC315695  20.348  10.905   9.599
  998POPC   PO415696  20.794  11.351   9.596
  998POPC   GL115697  20.541  11.283   9.268
  998POPC   GL215698  20.708  11.015   9.140
  998POPC   C1A15699  20.482  11.520   8.908
  998POPC   D2A15700  20.333  11.525   8.506
  998POPC   C3A15701  20.554  11.267   8.215
  998POPC   C4A15702  20.635  11.400   7.799
  998POPC   C1B15703  20.592  11.024   8.721
  998POPC   C2B15704  20.534  10.757   8.364
  998POPC   C3B15705  20.424  10.794   7.956
  998POPC   C4B15706  20.569  10.960   7.552
  999POPC   NC315707  35.309   8.549   9.490
  999POPC   PO415708  35.048   7.954   9.413
  999POPC   GL115709  35.331   8.116   9.088
  999POPC   GL215710  35.372   8.464   9.012
  999POPC   C1A15711  35.334   8.105   8.627
  999POPC   D2A15712  35.052   8.129   8.262
  999POPC   C3A15713  35.299   8.228   7.891
  999POPC   C4A15714  35.433   8.044   7.482
  999POPC   C1B15715  35.324   8.704   8.689
  999POPC   C2B15716  35.318   8.579   8.300
  999POPC   C3B15717  35.120   8.759   7.963
  999POPC   C4B15718  35.105   8.618   7.566
 1000POPC   NC315719  30.745  21.129   9.435
 1000POPC   PO415720  31.453  21.272   9.596
 1000POPC   GL115721  31.369  21.463   9.226
 1000POPC   GL215722  31.201  21.195   9.110
 1000POPC   C1A15723  31.554  21.429   8.813
 1000POPC   D2A15724  31.424  21.629   8.452
 1000POPC   C3A15725  31.617  21.514   8.104
 1000POPC   C4A15726  31.397  21.393   7.811
 1000POPC   C1B15727  31.097  21.198   8.703
 1000POPC   C2B15728  31.034  21.309   8.291
 1000POPC   C3B15729  31.071  21.026   7.971
 1000POPC   C4B15730  31.181  21.010   7.538
 1001POPC   NC315731  14.236   1.007   9.318
 1001POPC   PO415732  14.699   1.514   9.549
 1001POPC   GL115733  14.568   1.445   9.117
 1001POPC   GL215734  14.200   1.402   9.017
 1001POPC   C1A15735  14.541   1.445   8.664
 1001POPC   D2A15736  14.411   1.213   8.347
 1001POPC   C3A15737  14.080   1.372   8.131
 1001POPC   C4A15738  14.326   1.470   7.786
 1001POPC   C1B15739  13.984   1.127   8.672
 1001POPC   C2B15740  14.085   0.833   8.312
 1001POPC   C3B15741  14.272   0.935   7.924
 1001POPC   C4B15742  14.084   1.035   7.568
 1002POPC   NC315743  36.001  28.513   9.338
 1002POPC   PO415744  36.594  28.259   9.438
 1002POPC   GL115745  36.313  28.151   9.103
 1002POPC   GL215746  35.959  28.039   9.168
 1002POPC   C1A15747  36.244  28.386   8.701
 1002POPC   D2A15748  36.208  28.754   8.397
 1002POPC   C3A15749  36.005  28.725   8.008
 1002POPC   C4A15750  36.099  28.649   7.575
 1002POPC   C1B15751  35.822  28.062   8.717
 1002POPC   C2B15752  35.983  28.203   8.300
 1002POPC   C3B15753  35.914  28.246   7.857
 1002POPC   C4B15754  36.067  28.161   7.438
 1003POPC   NC315755  25.500  26.940   9.630
 1003POPC   PO415756  24.863  27.139   9.494
 1003POPC   GL115757  25.133  26.883   9.198
 1003POPC   GL215758  24.944  26.612   9.017
 1003POPC   C1A15759  25.301  26.826   8.755
 1003POPC   D2A15760  25.094  27.005   8.377
 1003POPC   C3A15761  25.264  26.902   7.948
 1003POPC   C4A15762  25.530  26.798   7.561
 1003POPC   C1B15763  24.941  26.505   8.558
 1003POPC   C2B15764  24.934  26.472   8.099
 1003POPC   C3B15765  25.103  26.513   7.673
 1003POPC   C4B15766  25.062  26.742   7.311
 1004POPC   NC315767   6.725  44.939   9.409
 1004POPC   PO415768   6.608  44.259   9.460
 1004POPC   GL115769   6.581  44.540   9.097
 1004POPC   GL215770   6.452  44.878   8.979
 1004POPC   C1A15771   6.809  44.488   8.718
 1004POPC   D2A15772   7.097  44.612   8.422
 1004POPC   C3A15773   6.953  44.466   8.033
 1004POPC   C4A15774   6.533  44.538   7.861
 1004POPC   C1B15775   6.727  44.986   8.658
 1004POPC   C2B15776   6.722  44.886   8.238
 1004POPC   C3B15777   6.436   0.045   7.993
 1004POPC   C4B15778   6.441   0.117   7.561
 1005POPC   NC315779   1.252  36.346   9.453
 1005POPC   PO415780   1.566  35.717   9.515
 1005POPC   GL115781   1.579  36.046   9.187
 1005POPC   GL215782   1.274  35.925   9.097
 1005POPC   C1A15783   1.403  36.320   8.810
 1005POPC   D2A15784   1.125  36.271   8.456
 1005POPC   C3A15785   1.270  36.238   8.049
 1005POPC   C4A15786   1.536  36.425   7.751
 1005POPC   C1B15787   0.992  35.865   8.756
 1005POPC   C2B15788   0.705  35.988   8.423
 1005POPC   C3B15789   0.812  35.976   8.004
 1005POPC   C4B15790   1.055  35.992   7.649
 1006POPC   NC315791  38.423  24.130   9.508
 1006POPC   PO415792  38.659  24.793   9.458
 1006POPC   GL115793  38.478  24.487   9.147
 1006POPC   GL215794  38.147  24.212   9.091
 1006POPC   C1A15795  38.653  24.509   8.748
 1006POPC   D2A15796  38.812  24.747   8.391
 1006POPC   C3A15797  38.646  24.666   7.973
 1006POPC   C4A15798  38.476  24.387   7.641
 1006POPC   C1B15799  38.115  24.537   8.793
 1006POPC   C2B15800  38.283  24.651   8.403
 1006POPC   C3B15801  38.140  24.732   7.979
 1006POPC   C4B15802  38.325  25.053   7.736
 1007POPC   NC315803  19.554  10.686   9.903
 1007POPC   PO415804  19.903  10.148   9.683
 1007POPC   GL115805  19.831  10.373   9.261
 1007POPC   GL215806  19.913  10.724   9.251
 1007POPC   C1A15807  19.864  10.453   8.802
 1007POPC   D2A15808  20.070  10.522   8.396
 1007POPC   C3A15809  19.953  10.364   7.963
 1007POPC   C4A15810  20.126  10.573   7.583
 1007POPC   C1B15811  19.637  10.914   8.938
 1007POPC   C2B15812  19.595  10.821   8.513
 1007POPC   C3B15813  19.800  10.857   8.125
 1007POPC   C4B15814  19.679  10.765   7.751
 1008POPC   NC315815  41.067  29.055   9.512
 1008POPC   PO415816  40.605  28.621   9.332
 1008POPC   GL115817  40.689  29.087   9.154
 1008POPC   GL215818  41.009  29.338   9.068
 1008POPC   C1A15819  40.562  29.368   8.820
 1008POPC   D2A15820  40.760  29.562   8.473
 1008POPC   C3A15821  40.820  29.330   8.108
 1008POPC   C4A15822  40.759  29.403   7.683
 1008POPC   C1B15823  41.068  29.042   8.772
 1008POPC   C2B15824  41.196  29.042   8.350
 1008POPC   C3B15825  40.955  28.816   8.057
 1008POPC   C4B15826  40.656  28.907   7.757
 1009POPC   NC315827  28.006  15.092   9.804
 1009POPC   PO415828  28.494  15.390   9.488
 1009POPC   GL115829  28.268  15.176   9.160
 1009POPC   GL215830  28.578  15.124   8.966
 1009POPC   C1A15831  28.145  14.961   8.763
 1009POPC   D2A15832  28.400  14.969   8.409
 1009POPC   C3A15833  28.199  14.884   8.026
 1009POPC   C4A15834  28.484  14.926   7.681
 1009POPC   C1B15835  28.358  15.418   8.683
 1009POPC   C2B15836  28.137  15.393   8.272
 1009POPC   C3B15837  28.250  15.335   7.821
 1009POPC   C4B15838  28.258  15.262   7.347
 1010POPC   NC315839  40.235  27.293   9.374
 1010POPC   PO415840  39.588  27.453   9.696
 1010POPC   GL115841  39.773  27.490   9.254
 1010POPC   GL215842  39.538  27.350   9.058
 1010POPC   C1A15843  39.861  27.647   8.805
 1010POPC   D2A15844  40.015  27.974   8.522
 1010POPC   C3A15845  40.102  27.751   8.151
 1010POPC   C4A15846  39.998  27.748   7.720
 1010POPC   C1B15847  39.577  27.176   8.658
 1010POPC   C2B15848  39.878  27.322   8.391
 1010POPC   C3B15849  39.883  27.293   7.987
 1010POPC   C4B15850  39.554  27.355   7.722
 1011POPC   NC315851   0.380   3.670   9.632
 1011POPC   PO415852   0.411   3.106   9.673
 1011POPC   GL115853   0.451   3.249   9.204
 1011POPC   GL215854   0.257   3.515   9.149
 1011POPC   C1A15855   0.538   3.426   8.720
 1011POPC   D2A15856   0.520   3.215   8.284
 1011POPC   C3A15857   0.470   3.491   7.915
 1011POPC   C4A15858   0.792   3.472   7.580
 1011POPC   C1B15859   0.094   3.197   8.808
 1011POPC   C2B15860   0.024   3.018   8.375
 1011POPC   C3B15861   0.155   3.047   7.917
 1011POPC   C4B15862   0.356   3.203   7.522
 1012POPC   NC315863  36.395  19.951   9.263
 1012POPC   PO415864  35.795  19.698   9.439
 1012POPC   GL115865  35.943  19.864   9.064
 1012POPC   GL215866  36.134  19.573   9.059
 1012POPC   C1A15867  36.156  19.875   8.625
 1012POPC   D2A15868  36.024  19.786   8.197
 1012POPC   C3A15869  36.273  19.772   7.795
 1012POPC   C4A15870  36.178  19.969   7.388
 1012POPC   C1B15871  35.905  19.454   8.690
 1012POPC   C2B15872  35.797  19.282   8.322
 1012POPC   C3B15873  35.691  19.494   7.952
 1012POPC   C4B15874  35.897  19.483   7.542
 1013POPC   NC315875  29.545  10.630   9.467
 1013POPC   PO415876  30.076  10.190   9.545
 1013POPC   GL115877  29.876  10.371   9.197
 1013POPC   GL215878  29.547  10.199   9.178
 1013POPC   C1A15879  29.921  10.597   8.820
 1013POPC   D2A15880  30.131  10.479   8.418
 1013POPC   C3A15881  29.983  10.534   8.000
 1013POPC   C4A15882  29.812  10.710   7.623
 1013POPC   C1B15883  29.454  10.403   8.782
 1013POPC   C2B15884  29.606  10.626   8.395
 1013POPC   C3B15885  29.480  10.516   7.971
 1013POPC   C4B15886  29.445  10.271   7.616
 1014POPC   NC315887   4.683  31.252   9.391
 1014POPC   PO415888   4.481  30.573   9.551
 1014POPC   GL115889   4.387  30.784   9.154
 1014POPC   GL215890   4.103  30.996   9.068
 1014POPC   C1A15891   4.419  30.746   8.728
 1014POPC   D2A15892   4.458  30.409   8.448
 1014POPC   C3A15893   4.324  30.544   8.075
 1014POPC   C4A15894   4.440  30.869   7.803
 1014POPC   C1B15895   3.872  31.163   8.732
 1014POPC   C2B15896   3.950  31.191   8.323
 1014POPC   C3B15897   3.982  30.909   8.008
 1014POPC   C4B15898   3.999  30.946   7.572
 1015POPC   NC315899   4.104   0.326   9.598
 1015POPC   PO415900   4.645   0.598   9.753
 1015POPC   GL115901   4.398   0.573   9.293
 1015POPC   GL215902   4.494   0.301   9.156
 1015POPC   C1A15903   4.137   0.563   8.897
 1015POPC   D2A15904   4.133   0.794   8.492
 1015POPC   C3A15905   4.106   0.653   8.048
 1015POPC   C4A15906   4.080   0.802   7.603
 1015POPC   C1B15907   4.675   0.295   8.724
 1015POPC   C2B15908   4.531   0.424   8.321
 1015POPC   C3B15909   4.591   0.563   7.907
 1015POPC   C4B15910   4.437   0.469   7.523
 1016POPC   NC315911  32.841  27.311   9.559
 1016POPC   PO415912  33.298  27.796   9.489
 1016POPC   GL115913  33.023  27.658   9.213
 1016POPC   GL215914  33.166  27.342   9.120
 1016POPC   C1A15915  32.855  27.644   8.834
 1016POPC   D2A15916  33.012  27.577   8.458
 1016POPC   C3A15917  32.777  27.746   8.117
 1016POPC   C4A15918  32.892  27.844   7.696
 1016POPC   C1B15919  33.461  27.290   8.736
 1016POPC   C2B15920  33.519  27.482   8.319
 1016POPC   C3B15921  33.251  27.621   8.005
 1016POPC   C4B15922  32.994  27.345   7.760
 1017POPC   NC315923  31.591  43.566   9.524
 1017POPC   PO415924  31.032  43.935   9.628
 1017POPC   GL115925  31.324  43.923   9.255
 1017POPC   GL215926  31.668  43.928   9.173
 1017POPC   C1A15927  31.298  43.969   8.800
 1017POPC   D2A15928  31.305  43.700   8.419
 1017POPC   C3A15929  31.094  43.894   8.065
 1017POPC   C4A15930  31.313  44.041   7.702
 1017POPC   C1B15931  31.660  43.605   8.838
 1017POPC   C2B15932  31.846  43.706   8.439
 1017POPC   C3B15933  31.686  43.884   8.058
 1017POPC   C4B15934  31.830  43.759   7.668
 1018POPC   NC315935   6.548   7.018   9.761
 1018POPC   PO415936   7.059   7.378   9.742
 1018POPC   GL115937   6.760   7.417   9.383
 1018POPC   GL215938   6.550   7.185   9.232
 1018POPC   C1A15939   6.770   7.518   8.901
 1018POPC   D2A15940   6.952   7.525   8.464
 1018POPC   C3A15941   6.896   7.720   8.041
 1018POPC   C4A15942   6.797   7.458   7.707
 1018POPC   C1B15943   6.364   7.189   8.843
 1018POPC   C2B15944   6.435   7.467   8.501
 1018POPC   C3B15945   6.437   7.467   8.071
 1018POPC   C4B15946   6.261   7.363   7.676
 1019POPC   NC315947   8.559  31.263   9.499
 1019POPC   PO415948   7.955  31.381   9.616
 1019POPC   GL115949   7.914  31.210   9.244
 1019POPC   GL215950   7.665  31.418   9.157
 1019POPC   C1A15951   8.032  31.169   8.825
 1019POPC   D2A15952   8.209  31.343   8.434
 1019POPC   C3A15953   8.281  31.080   8.067
 1019POPC   C4A15954   8.455  31.144   7.663
 1019POPC   C1B15955   7.589  31.588   8.749
 1019POPC   C2B15956   7.765  31.629   8.338
 1019POPC   C3B15957   7.997  31.512   7.980
 1019POPC   C4B15958   8.328  31.678   7.748
 1020POPC   NC315959  36.574   0.376   9.497
 1020POPC   PO415960  35.915   0.684   9.437
 1020POPC   GL115961  36.220   0.537   9.103
 1020POPC   GL215962  36.436   0.221   9.037
 1020POPC   C1A15963  36.154   0.443   8.665
 1020POPC   D2A15964  35.818   0.286   8.402
 1020POPC   C3A15965  35.942   0.421   8.021
 1020POPC   C4A15966  35.866   0.208   7.658
 1020POPC   C1B15967  36.664   0.290   8.634
 1020POPC   C2B15968  36.538   0.550   8.280
 1020POPC   C3B15969  36.442   0.444   7.856
 1020POPC   C4B15970  36.343   0.200   7.501
 1021POPC   NC315971  17.988  14.661   9.438
 1021POPC   PO415972  18.596  14.411   9.414
 1021POPC   GL115973  18.337  14.437   9.100
 1021POPC   GL215974  18.077  14.231   9.184
 1021POPC   C1A15975  18.322  14.630   8.716
 1021POPC   D2A15976  18.077  14.585   8.348
 1021POPC   C3A15977  18.256  14.456   7.931
 1021POPC   C4A15978  18.554  14.703   7.654
 1021POPC   C1B15979  17.951  14.225   8.775
 1021POPC   C2B15980  18.037  14.056   8.374
 1021POPC   C3B15981  17.880  14.074   7.970
 1021POPC   C4B15982  18.116  14.096   7.576
 1022POPC   NC315983  13.067  14.402   9.507
 1022POPC   PO415984  12.397  14.547   9.564
 1022POPC   GL115985  12.662  14.570   9.218
 1022POPC   GL215986  12.986  14.482   9.034
 1022POPC   C1A15987  12.540  14.575   8.816
 1022POPC   D2A15988  12.806  14.433   8.490
 1022POPC   C3A15989  12.558  14.527   8.130
 1022POPC   C4A15990  12.368  14.654   7.736
 1022POPC   C1B15991  13.279  14.517   8.724
 1022POPC   C2B15992  13.321  14.424   8.313
 1022POPC   C3B15993  13.008  14.266   8.054
 1022POPC   C4B15994  12.878  14.488   7.741
 1023POPC   NC315995  20.489  14.031   9.731
 1023POPC   PO415996  20.779  13.453   9.599
 1023POPC   GL115997  20.708  13.672   9.205
 1023POPC   GL215998  20.353  13.811   9.240
 1023POPC   C1A15999  20.556  13.614   8.770
 1023POPC   D2A16000  20.416  13.420   8.358
 1023POPC   C3A16001  20.751  13.407   8.051
 1023POPC   C4A16002  20.810  13.241   7.642
 1023POPC   C1B16003  20.259  14.040   8.850
 1023POPC   C2B16004  20.387  13.957   8.406
 1023POPC   C3B16005  20.413  13.803   7.973
 1023POPC   C4B16006  20.596  13.722   7.567
 1024POPC   NC316007  24.383   8.576   9.429
 1024POPC   PO416008  24.686   7.983   9.375
 1024POPC   GL116009  24.390   8.117   9.082
 1024POPC   GL216010  24.221   7.835   8.938
 1024POPC   C1A16011  24.331   8.247   8.650
 1024POPC   D2A16012  24.665   8.299   8.349
 1024POPC   C3A16013  24.521   8.343   7.938
 1024POPC   C4A16014  24.095   8.244   7.807
 1024POPC   C1B16015  24.657   7.846   8.697
 1024POPC   C2B16016  24.818   7.756   8.270
 1024POPC   C3B16017  24.783   7.890   7.823
 1024POPC   C4B16018  24.794   7.756   7.351
 1025POPC   NC316019  30.974  33.770   9.818
 1025POPC   PO416020  30.725  33.798   9.243
 1025POPC   GL116021  30.560  34.039   8.985
 1025POPC   GL216022  30.434  33.769   8.801
 1025POPC   C1A16023  30.703  34.154   8.611
 1025POPC   D2A16024  30.602  33.859   8.323
 1025POPC   C3A16025  30.544  33.790   7.934
 1025POPC   C4A16026  30.708  34.073   7.690
 1025POPC   C1B16027  30.809  33.517   8.643
 1025POPC   C2B16028  30.924  33.471   8.222
 1025POPC   C3B16029  30.895  33.367   7.820
 1025POPC   C4B16030  30.966  33.229   7.378
 1026POPC   NC316031   8.770  23.165   9.976
 1026POPC   PO416032   9.205  22.631   9.666
 1026POPC   GL116033   9.097  22.878   9.248
 1026POPC   GL216034   9.164  23.272   9.292
 1026POPC   C1A16035   8.975  22.797   8.832
 1026POPC   D2A16036   9.033  22.587   8.424
 1026POPC   C3A16037   8.823  22.802   8.073
 1026POPC   C4A16038   9.049  22.820   7.683
 1026POPC   C1B16039   9.158  23.307   8.844
 1026POPC   C2B16040   9.053  23.165   8.419
 1026POPC   C3B16041   9.104  23.258   7.956
 1026POPC   C4B16042   8.718  23.220   7.702
 1027POPC   NC316043  34.204  25.374   9.454
 1027POPC   PO416044  33.653  25.692   9.633
 1027POPC   GL116045  33.603  25.373   9.300
 1027POPC   GL216046  33.908  25.207   9.094
 1027POPC   C1A16047  33.496  25.374   8.881
 1027POPC   D2A16048  33.779  25.236   8.549
 1027POPC   C3A16049  33.692  25.378   8.168
 1027POPC   C4A16050  33.545  25.364   7.767
 1027POPC   C1B16051  34.035  24.882   8.809
 1027POPC   C2B16052  34.113  24.644   8.429
 1027POPC   C3B16053  34.162  24.859   8.047
 1027POPC   C4B16054  34.018  25.207   7.809
 1028POPC   NC316055  43.120  28.873   9.408
 1028POPC   PO416056  42.887  28.191   9.534
 1028POPC   GL116057  42.919  28.438   9.193
 1028POPC   GL216058  43.273  28.418   9.199
 1028POPC   C1A16059  42.812  28.355   8.775
 1028POPC   D2A16060  43.072  28.231   8.459
 1028POPC   C3A16061  42.926  28.458   8.117
 1028POPC   C4A16062  43.002  28.328   7.701
 1028POPC   C1B16063  43.451  28.218   8.850
 1028POPC   C2B16064  43.620  28.253   8.441
 1028POPC   C3B16065  43.429  28.303   8.034
 1028POPC   C4B16066  43.466  28.543   7.633
 1029POPC   NC316067   5.464  24.774   9.726
 1029POPC   PO416068   6.049  24.554   9.364
 1029POPC   GL116069   5.837  24.461   9.002
 1029POPC   GL216070   5.641  24.214   9.025
 1029POPC   C1A16071   5.821  24.635   8.610
 1029POPC   D2A16072   5.667  24.527   8.261
 1029POPC   C3A16073   5.869  24.382   7.929
 1029POPC   C4A16074   5.806  24.452   7.476
 1029POPC   C1B16075   5.912  24.114   8.656
 1029POPC   C2B16076   6.187  24.280   8.383
 1029POPC   C3B16077   6.271  24.069   8.022
 1029POPC   C4B16078   6.204  24.189   7.607
 1030POPC   NC316079  42.566  34.431   9.769
 1030POPC   PO416080  42.067  34.752   9.447
 1030POPC   GL116081  42.193  34.422   9.194
 1030POPC   GL216082  42.493  34.471   9.024
 1030POPC   C1A16083  42.032  34.322   8.763
 1030POPC   D2A16084  41.885  34.572   8.377
 1030POPC   C3A16085  42.153  34.603   7.987
 1030POPC   C4A16086  41.999  34.668   7.571
 1030POPC   C1B16087  42.634  34.760   8.702
 1030POPC   C2B16088  42.593  34.887   8.275
 1030POPC   C3B16089  42.674  34.757   7.862
 1030POPC   C4B16090  42.598  34.445   7.604
 1031POPC   NC316091   7.324  35.257   9.602
 1031POPC   PO416092   7.985  35.426   9.661
 1031POPC   GL116093   7.618  35.402   9.219
 1031POPC   GL216094   7.362  35.185   9.114
 1031POPC   C1A16095   7.652  35.569   8.815
 1031POPC   D2A16096   7.283  35.561   8.617
 1031POPC   C3A16097   7.317  35.574   8.219
 1031POPC   C4A16098   7.289  35.481   7.781
 1031POPC   C1B16099   7.498  35.079   8.744
 1031POPC   C2B16100   7.335  35.070   8.389
 1031POPC   C3B16101   7.593  35.177   8.068
 1031POPC   C4B16102   7.611  35.089   7.661
 1032POPC   NC316103  18.363  24.168   9.820
 1032POPC   PO416104  18.013  24.617   9.433
 1032POPC   GL116105  18.345  24.699   9.168
 1032POPC   GL216106  18.118  24.549   8.925
 1032POPC   C1A16107  18.598  24.607   8.804
 1032POPC   D2A16108  18.464  24.311   8.540
 1032POPC   C3A16109  18.553  24.440   8.150
 1032POPC   C4A16110  18.399  24.273   7.765
 1032POPC   C1B16111  17.958  24.234   8.634
 1032POPC   C2B16112  18.080  24.226   8.202
 1032POPC   C3B16113  17.977  24.525   7.918
 1032POPC   C4B16114  18.148  24.670   7.526
 1033POPC   NC316115  22.195   6.199   9.636
 1033POPC   PO416116  21.890   6.774   9.644
 1033POPC   GL116117  22.088   6.611   9.256
 1033POPC   GL216118  22.307   6.884   9.193
 1033POPC   C1A16119  22.029   6.557   8.775
 1033POPC   D2A16120  22.237   6.382   8.343
 1033POPC   C3A16121  22.208   6.508   7.897
 1033POPC   C4A16122  22.066   6.855   7.610
 1033POPC   C1B16123  22.284   7.041   8.798
 1033POPC   C2B16124  22.208   6.879   8.381
 1033POPC   C3B16125  22.405   6.963   7.999
 1033POPC   C4B16126  22.413   7.214   7.617
 1034POPC   NC316127  15.648  16.315   9.450
 1034POPC   PO416128  16.306  15.957   9.464
 1034POPC   GL116129  16.000  16.047   9.169
 1034POPC   GL216130  15.648  15.923   9.101
 1034POPC   C1A16131  16.017  16.125   8.757
 1034POPC   D2A16132  15.886  16.098   8.353
 1034POPC   C3A16133  15.903  16.455   8.153
 1034POPC   C4A16134  16.238  16.479   7.891
 1034POPC   C1B16135  15.797  15.624   8.795
 1034POPC   C2B16136  15.803  15.475   8.360
 1034POPC   C3B16137  15.911  15.735   7.999
 1034POPC   C4B16138  15.866  16.115   7.771
 1035POPC   NC316139  11.126   5.622   9.617
 1035POPC   PO416140  11.708   5.715   9.321
 1035POPC   GL116141  11.303   5.819   9.152
 1035POPC   GL216142  11.355   6.141   9.051
 1035POPC   C1A16143  11.135   5.866   8.718
 1035POPC   D2A16144  11.408   5.843   8.399
 1035POPC   C3A16145  11.235   5.833   8.007
 1035POPC   C4A16146  11.085   5.787   7.591
 1035POPC   C1B16147  11.557   6.292   8.686
 1035POPC   C2B16148  11.809   6.154   8.351
 1035POPC   C3B16149  11.735   5.926   8.000
 1035POPC   C4B16150  11.594   5.779   7.616
 1036POPC   NC316151  10.586  42.858   9.536
 1036POPC   PO416152  10.249  43.371   9.647
 1036POPC   GL116153  10.297  43.218   9.228
 1036POPC   GL216154  10.260  42.870   9.138
 1036POPC   C1A16155  10.389  43.208   8.776
 1036POPC   D2A16156  10.391  43.062   8.360
 1036POPC   C3A16157  10.597  43.307   8.038
 1036POPC   C4A16158  10.347  43.110   7.747
 1036POPC   C1B16159  10.682  42.818   8.844
 1036POPC   C2B16160  10.897  42.737   8.445
 1036POPC   C3B16161  10.734  42.809   8.017
 1036POPC   C4B16162  10.724  42.830   7.558
 1037POPC   NC316163  33.463  10.127   9.498
 1037POPC   PO416164  34.075  10.335   9.353
 1037POPC   GL116165  33.817  10.361   9.071
 1037POPC   GL216166  33.509  10.477   9.103
 1037POPC   C1A16167  33.859  10.338   8.673
 1037POPC   D2A16168  33.716  10.341   8.296
 1037POPC   C3A16169  33.962  10.303   7.977
 1037POPC   C4A16170  33.713  10.328   7.639
 1037POPC   C1B16171  33.637  10.781   8.729
 1037POPC   C2B16172  33.497  10.813   8.307
 1037POPC   C3B16173  33.725  10.766   7.935
 1037POPC   C4B16174  33.637  10.824   7.508
 1038POPC   NC316175  10.064  31.068   9.483
 1038POPC   PO416176   9.951  31.721   9.580
 1038POPC   GL116177   9.845  31.473   9.230
 1038POPC   GL216178  10.132  31.476   9.061
 1038POPC   C1A16179   9.671  31.506   8.814
 1038POPC   D2A16180   9.439  31.722   8.538
 1038POPC   C3A16181   9.655  31.671   8.140
 1038POPC   C4A16182   9.649  31.896   7.730
 1038POPC   C1B16183  10.003  31.124   8.796
 1038POPC   C2B16184   9.815  31.146   8.400
 1038POPC   C3B16185  10.054  31.299   8.057
 1038POPC   C4B16186   9.922  31.458   7.681
 1039POPC   NC316187  37.994  42.903   9.336
 1039POPC   PO416188  38.630  43.081   9.733
 1039POPC   GL116189  38.595  43.211   9.277
 1039POPC   GL216190  38.262  43.367   9.252
 1039POPC   C1A16191  38.743  43.115   8.854
 1039POPC   D2A16192  38.843  43.313   8.439
 1039POPC   C3A16193  38.710  43.143   8.018
 1039POPC   C4A16194  38.530  42.785   7.794
 1039POPC   C1B16195  38.264  43.278   8.800
 1039POPC   C2B16196  38.335  43.265   8.362
 1039POPC   C3B16197  38.174  43.084   8.017
 1039POPC   C4B16198  38.318  43.261   7.673
 1040POPC   NC316199  32.007  13.101   9.562
 1040POPC   PO416200  31.453  12.694   9.694
 1040POPC   GL116201  31.448  12.728   9.221
 1040POPC   GL216202  31.772  12.835   9.197
 1040POPC   C1A16203  31.545  12.672   8.775
 1040POPC   D2A16204  31.601  12.672   8.344
 1040POPC   C3A16205  31.358  12.788   8.001
 1040POPC   C4A16206  31.501  12.696   7.629
 1040POPC   C1B16207  31.686  13.167   8.890
 1040POPC   C2B16208  31.818  13.138   8.453
 1040POPC   C3B16209  31.790  13.065   8.027
 1040POPC   C4B16210  32.018  12.966   7.675
 1041POPC   NC316211  37.203  43.276   9.540
 1041POPC   PO416212  36.665  42.922   9.431
 1041POPC   GL116213  36.933  43.107   9.124
 1041POPC   GL216214  36.631  43.234   9.020
 1041POPC   C1A16215  37.086  43.117   8.679
 1041POPC   D2A16216  36.792  43.090   8.292
 1041POPC   C3A16217  36.924  43.213   7.897
 1041POPC   C4A16218  37.320  43.131   7.775
 1041POPC   C1B16219  36.650  42.853   8.739
 1041POPC   C2B16220  36.506  42.650   8.322
 1041POPC   C3B16221  36.537  42.692   7.844
 1041POPC   C4B16222  36.501  42.775   7.331
 1042POPC   NC316223  36.706   6.891   9.581
 1042POPC   PO416224  36.925   6.237   9.446
 1042POPC   GL116225  36.994   6.499   9.108
 1042POPC   GL216226  36.944   6.862   9.136
 1042POPC   C1A16227  36.958   6.336   8.696
 1042POPC   D2A16228  37.157   6.363   8.312
 1042POPC   C3A16229  36.814   6.334   8.058
 1042POPC   C4A16230  36.503   6.454   7.780
 1042POPC   C1B16231  37.015   6.820   8.730
 1042POPC   C2B16232  36.795   6.763   8.374
 1042POPC   C3B16233  37.069   6.822   8.080
 1042POPC   C4B16234  36.991   6.666   7.725
 1043POPC   NC316235  42.833  33.761   9.552
 1043POPC   PO416236  43.445  33.960   9.459
 1043POPC   GL116237  43.209  33.793   9.153
 1043POPC   GL216238  42.929  34.038   9.125
 1043POPC   C1A16239  43.059  33.730   8.736
 1043POPC   D2A16240  43.040  33.559   8.340
 1043POPC   C3A16241  43.101  33.794   8.014
 1043POPC   C4A16242  43.347  33.691   7.661
 1043POPC   C1B16243  43.250  34.227   8.854
 1043POPC   C2B16244  43.320  34.204   8.374
 1043POPC   C3B16245  43.431  34.165   7.901
 1043POPC   C4B16246  43.372  34.127   7.416
 1044POPC   NC316247   1.522  41.985   9.535
 1044POPC   PO416248   1.193  41.331   9.685
 1044POPC   GL116249   1.147  41.396   9.247
 1044POPC   GL216250   0.988  41.719   9.167
 1044POPC   C1A16251   1.013  41.372   8.797
 1044POPC   D2A16252   0.950  41.187   8.421
 1044POPC   C3A16253   1.060  41.481   8.127
 1044POPC   C4A16254   1.032  41.414   7.711
 1044POPC   C1B16255   1.388  41.691   8.932
 1044POPC   C2B16256   1.450  41.743   8.499
 1044POPC   C3B16257   1.619  41.685   8.112
 1044POPC   C4B16258   1.497  41.614   7.709
 1045POPC   NC316259  43.593  17.151   9.589
 1045POPC   PO416260  43.981  16.584   9.595
 1045POPC   GL116261  43.735  16.764   9.264
 1045POPC   GL216262  43.933  17.035   9.219
 1045POPC   C1A16263  43.649  16.881   8.831
 1045POPC   D2A16264  43.908  16.927   8.465
 1045POPC   C3A16265  43.771  16.856   8.055
 1045POPC   C4A16266  43.528  16.577   7.821
 1045POPC   C1B16267  44.215  16.939   8.894
 1045POPC   C2B16268  44.380  17.098   8.506
 1045POPC   C3B16269  44.274  16.972   8.102
 1045POPC   C4B16270  44.112  17.045   7.701
 1046POPC   NC316271  34.918  25.930   9.255
 1046POPC   PO416272  34.774  26.592   9.267
 1046POPC   GL116273  34.660  26.293   8.970
 1046POPC   GL216274  34.437  26.057   9.098
 1046POPC   C1A16275  34.780  26.031   8.604
 1046POPC   D2A16276  34.597  25.959   8.203
 1046POPC   C3A16277  34.626  26.332   7.942
 1046POPC   C4A16278  34.817  26.148   7.618
 1046POPC   C1B16279  34.271  26.038   8.723
 1046POPC   C2B16280  34.276  26.314   8.389
 1046POPC   C3B16281  34.133  26.205   7.997
 1046POPC   C4B16282  34.276  26.042   7.587
 1047POPC   NC316283  17.105  31.908   9.424
 1047POPC   PO416284  16.613  31.312   9.559
 1047POPC   GL116285  16.737  31.565   9.221
 1047POPC   GL216286  16.454  31.761   9.198
 1047POPC   C1A16287  16.851  31.363   8.892
 1047POPC   D2A16288  16.691  31.208   8.537
 1047POPC   C3A16289  16.960  31.327   8.201
 1047POPC   C4A16290  16.789  31.412   7.808
 1047POPC   C1B16291  16.459  31.655   8.755
 1047POPC   C2B16292  16.601  31.675   8.327
 1047POPC   C3B16293  16.398  31.738   7.945
 1047POPC   C4B16294  16.554  31.776   7.532
 1048POPC   NC316295   2.205  28.906   9.432
 1048POPC   PO416296   2.060  29.529   9.409
 1048POPC   GL116297   2.090  29.290   9.056
 1048POPC   GL216298   1.767  29.164   9.021
 1048POPC   C1A16299   2.050  29.392   8.610
 1048POPC   D2A16300   2.271  29.150   8.300
 1048POPC   C3A16301   2.072  29.139   7.939
 1048POPC   C4A16302   1.667  29.110   8.049
 1048POPC   C1B16303   2.021  28.900   8.724
 1048POPC   C2B16304   1.953  28.669   8.373
 1048POPC   C3B16305   1.841  28.629   7.970
 1048POPC   C4B16306   2.047  28.735   7.651
 1049POPC   NC316307  40.309  10.860   9.481
 1049POPC   PO416308  40.819  10.838   9.970
 1049POPC   GL116309  40.826  10.745   9.422
 1049POPC   GL216310  40.598  10.763   9.075
 1049POPC   C1A16311  41.035  10.553   9.010
 1049POPC   D2A16312  41.131  10.622   8.550
 1049POPC   C3A16313  41.006  10.444   8.155
 1049POPC   C4A16314  40.783  10.635   7.835
 1049POPC   C1B16315  40.642  10.481   8.680
 1049POPC   C2B16316  40.488  10.460   8.226
 1049POPC   C3B16317  40.467  10.247   7.768
 1049POPC   C4B16318  40.526  10.305   7.281
 1050POPC   NC316319  19.697  29.413   9.409
 1050POPC   PO416320  20.146  28.942   9.658
 1050POPC   GL116321  20.058  29.028   9.200
 1050POPC   GL216322  19.723  29.090   9.032
 1050POPC   C1A16323  20.105  29.203   8.752
 1050POPC   D2A16324  19.736  29.092   8.474
 1050POPC   C3A16325  19.640  29.258   8.063
 1050POPC   C4A16326  19.777  29.159   7.659
 1050POPC   C1B16327  19.442  28.835   8.792
 1050POPC   C2B16328  19.442  28.594   8.406
 1050POPC   C3B16329  19.418  28.649   7.941
 1050POPC   C4B16330  19.567  28.725   7.494
 1051POPC   NC316331   7.530  11.665   9.478
 1051POPC   PO416332   7.772  11.080   9.554
 1051POPC   GL116333   7.528  11.205   9.202
 1051POPC   GL216334   7.530  11.548   9.000
 1051POPC   C1A16335   7.411  11.126   8.787
 1051POPC   D2A16336   7.630  11.033   8.456
 1051POPC   C3A16337   7.401  11.147   8.156
 1051POPC   C4A16338   7.591  11.101   7.813
 1051POPC   C1B16339   7.184  11.670   8.732
 1051POPC   C2B16340   7.124  11.625   8.291
 1051POPC   C3B16341   7.519  11.638   8.087
 1051POPC   C4B16342   7.704  11.872   7.793
 1052POPC   NC316343  41.724  14.310   9.650
 1052POPC   PO416344  41.071  14.169   9.420
 1052POPC   GL116345  41.433  14.204   9.160
 1052POPC   GL216346  41.599  14.522   9.204
 1052POPC   C1A16347  41.415  14.402   8.745
 1052POPC   D2A16348  41.655  14.525   8.424
 1052POPC   C3A16349  41.405  14.450   8.073
 1052POPC   C4A16350  41.278  14.372   7.652
 1052POPC   C1B16351  41.908  14.726   8.971
 1052POPC   C2B16352  41.914  14.950   8.602
 1052POPC   C3B16353  41.949  14.912   8.174
 1052POPC   C4B16354  41.819  14.649   7.858
 1053POPC   NC316355  17.975  29.758   9.505
 1053POPC   PO416356  18.279  30.365   9.543
 1053POPC   GL116357  18.323  30.064   9.156
 1053POPC   GL216358  18.156  29.776   9.030
 1053POPC   C1A16359  18.344  30.083   8.679
 1053POPC   D2A16360  18.332  30.230   8.234
 1053POPC   C3A16361  18.368  29.978   7.892
 1053POPC   C4A16362  18.346  29.577   7.755
 1053POPC   C1B16363  17.898  29.812   8.637
 1053POPC   C2B16364  17.933  29.906   8.180
 1053POPC   C3B16365  17.796  30.030   7.763
 1053POPC   C4B16366  17.687  29.853   7.351
 1054POPC   NC316367  14.592  28.347   9.584
 1054POPC   PO416368  14.046  28.095   9.285
 1054POPC   GL116369  14.308  28.310   9.027
 1054POPC   GL216370  14.388  28.612   9.164
 1054POPC   C1A16371  14.418  28.278   8.595
 1054POPC   D2A16372  14.471  27.967   8.297
 1054POPC   C3A16373  14.430  28.241   8.013
 1054POPC   C4A16374  14.205  28.168   7.643
 1054POPC   C1B16375  14.465  28.738   8.782
 1054POPC   C2B16376  14.226  28.720   8.417
 1054POPC   C3B16377  14.313  28.755   8.012
 1054POPC   C4B16378  14.494  28.579   7.642
 1055POPC   NC316379   1.263   5.129   9.611
 1055POPC   PO416380   1.148   4.526   9.332
 1055POPC   GL116381   1.265   4.942   9.116
 1055POPC   GL216382   1.146   5.297   9.126
 1055POPC   C1A16383   1.256   5.073   8.670
 1055POPC   D2A16384   1.049   4.834   8.337
 1055POPC   C3A16385   1.187   4.926   7.909
 1055POPC   C4A16386   1.051   4.751   7.535
 1055POPC   C1B16387   0.916   5.469   8.761
 1055POPC   C2B16388   0.936   5.341   8.347
 1055POPC   C3B16389   1.114   5.437   7.947
 1055POPC   C4B16390   1.412   5.361   7.593
 1056POPC   NC316391   0.020  16.779   9.895
 1056POPC   PO416392   0.560  16.772   9.469
 1056POPC   GL116393   0.462  16.692   9.077
 1056POPC   GL216394   0.131  16.690   9.155
 1056POPC   C1A16395   0.647  16.774   8.683
 1056POPC   D2A16396   0.687  16.732   8.239
 1056POPC   C3A16397   0.596  16.975   7.891
 1056POPC   C4A16398   0.535  16.607   7.619
 1056POPC   C1B16399   0.060  16.416   8.845
 1056POPC   C2B16400   0.186  16.403   8.417
 1056POPC   C3B16401   0.227  16.601   8.024
 1056POPC   C4B16402   0.095  16.875   7.681
 1057POPC   NC316403   7.019   6.186   9.468
 1057POPC   PO416404   6.806   6.804   9.446
 1057POPC   GL116405   6.727   6.480   9.153
 1057POPC   GL216406   6.623   6.742   8.947
 1057POPC   C1A16407   6.641   6.207   8.805
 1057POPC   D2A16408   6.749   6.095   8.380
 1057POPC   C3A16409   6.671   6.431   8.076
 1057POPC   C4A16410   6.465   6.577   7.691
 1057POPC   C1B16411   6.795   7.028   8.636
 1057POPC   C2B16412   6.585   7.015   8.258
 1057POPC   C3B16413   6.606   7.021   7.833
 1057POPC   C4B16414   6.829   6.966   7.433
 1058POPC   NC316415   7.585  38.553   9.393
 1058POPC   PO416416   7.151  38.202   9.673
 1058POPC   GL116417   7.409  38.133   9.195
 1058POPC   GL216418   7.346  38.434   8.959
 1058POPC   C1A16419   7.586  38.028   8.784
 1058POPC   D2A16420   7.374  38.029   8.380
 1058POPC   C3A16421   7.498  38.161   7.952
 1058POPC   C4A16422   7.406  38.512   7.688
 1058POPC   C1B16423   7.648  38.593   8.649
 1058POPC   C2B16424   7.683  38.583   8.189
 1058POPC   C3B16425   7.756  38.830   7.844
 1058POPC   C4B16426   7.808  38.718   7.390
 1059POPC   NC316427  43.964  41.121   9.472
 1059POPC   PO416428  43.454  40.703   9.382
 1059POPC   GL116429  43.817  40.813   9.085
 1059POPC   GL216430  44.173  40.697   9.155
 1059POPC   C1A16431  43.984  40.749   8.661
 1059POPC   D2A16432  44.236  40.765   8.287
 1059POPC   C3A16433  43.991  40.877   7.912
 1059POPC   C4A16434  43.914  40.781   7.476
 1059POPC   C1B16435  44.338  40.418   8.816
 1059POPC   C2B16436  44.270  40.256   8.388
 1059POPC   C3B16437  44.117  40.355   7.945
 1059POPC   C4B16438  44.076  40.305   7.470
 1060POPC   NC316439  18.694  33.987   9.796
 1060POPC   PO416440  19.147  33.674   9.449
 1060POPC   GL116441  18.941  33.826   9.154
 1060POPC   GL216442  19.143  34.113   9.146
 1060POPC   C1A16443  19.008  33.749   8.741
 1060POPC   D2A16444  19.021  33.941   8.363
 1060POPC   C3A16445  19.242  33.761   8.076
 1060POPC   C4A16446  18.964  33.607   7.779
 1060POPC   C1B16447  19.308  34.149   8.743
 1060POPC   C2B16448  19.263  34.388   8.403
 1060POPC   C3B16449  19.324  34.293   8.013
 1060POPC   C4B16450  19.322  34.055   7.657
 1061POPC   NC316451  18.434   1.830   9.483
 1061POPC   PO416452  18.105   2.445   9.461
 1061POPC   GL116453  18.346   2.230   9.136
 1061POPC   GL216454  18.271   1.879   9.014
 1061POPC   C1A16455  18.381   2.290   8.704
 1061POPC   D2A16456  18.507   2.070   8.325
 1061POPC   C3A16457  18.368   2.191   7.910
 1061POPC   C4A16458  18.483   2.176   7.474
 1061POPC   C1B16459  18.128   1.679   8.623
 1061POPC   C2B16460  18.059   1.443   8.290
 1061POPC   C3B16461  18.154   1.755   8.044
 1061POPC   C4B16462  18.328   1.731   7.646
 1062POPC   NC316463  36.194  38.718   9.423
 1062POPC   PO416464  36.445  38.152   9.540
 1062POPC   GL116465  36.140  38.129   9.172
 1062POPC   GL216466  35.858  38.372   9.173
 1062POPC   C1A16467  36.089  38.223   8.702
 1062POPC   D2A16468  36.230  38.598   8.413
 1062POPC   C3A16469  36.262  38.487   7.966
 1062POPC   C4A16470  36.297  38.044   7.862
 1062POPC   C1B16471  35.873  38.673   8.799
 1062POPC   C2B16472  35.706  38.674   8.355
 1062POPC   C3B16473  35.756  38.584   7.908
 1062POPC   C4B16474  35.627  38.724   7.492
 1063POPC   NC316475  32.405  39.567   9.477
 1063POPC   PO416476  32.039  39.010   9.512
 1063POPC   GL116477  32.162  39.248   9.181
 1063POPC   GL216478  32.442  39.083   9.169
 1063POPC   C1A16479  32.078  39.449   8.796
 1063POPC   D2A16480  32.160  39.245   8.408
 1063POPC   C3A16481  32.112  39.455   8.039
 1063POPC   C4A16482  32.049  39.354   7.610
 1063POPC   C1B16483  32.538  39.271   8.758
 1063POPC   C2B16484  32.650  39.342   8.275
 1063POPC   C3B16485  32.452  39.123   7.852
 1063POPC   C4B16486  32.511  39.328   7.411
 1064POPC   NC316487  20.955  37.240   9.483
 1064POPC   PO416488  21.116  36.640   9.470
 1064POPC   GL116489  20.718  36.796   9.238
 1064POPC   GL216490  20.505  37.098   9.249
 1064POPC   C1A16491  20.444  36.766   8.854
 1064POPC   D2A16492  20.342  36.943   8.453
 1064POPC   C3A16493  20.505  36.758   8.057
 1064POPC   C4A16494  20.838  36.776   7.714
 1064POPC   C1B16495  20.622  37.265   8.831
 1064POPC   C2B16496  20.419  37.437   8.450
 1064POPC   C3B16497  20.538  37.263   8.084
 1064POPC   C4B16498  20.484  37.149   7.691
 1065POPC   NC316499  36.883  29.617   9.640
 1065POPC   PO416500  36.792  30.105   9.201
 1065POPC   GL116501  37.092  29.857   8.970
 1065POPC   GL216502  36.901  29.610   9.130
 1065POPC   C1A16503  37.126  29.936   8.558
 1065POPC   D2A16504  36.785  30.048   8.293
 1065POPC   C3A16505  37.004  30.264   7.986
 1065POPC   C4A16506  37.203  30.078   7.644
 1065POPC   C1B16507  36.738  29.555   8.705
 1065POPC   C2B16508  36.954  29.516   8.322
 1065POPC   C3B16509  36.986  29.711   7.945
 1065POPC   C4B16510  36.629  29.934   7.782
 1066POPC   NC316511  25.595  27.859   9.702
 1066POPC   PO416512  25.889  28.421   9.584
 1066POPC   GL116513  25.864  28.435   9.126
 1066POPC   GL216514  25.754  28.768   9.014
 1066POPC   C1A16515  25.880  28.286   8.704
 1066POPC   D2A16516  26.111  28.435   8.344
 1066POPC   C3A16517  26.137  28.181   7.999
 1066POPC   C4A16518  25.902  27.952   7.671
 1066POPC   C1B16519  26.185  28.693   8.814
 1066POPC   C2B16520  26.491  28.743   8.451
 1066POPC   C3B16521  26.413  28.676   7.977
 1066POPC   C4B16522  26.671  28.487   7.609
 1067POPC   NC316523  26.291  33.260   9.609
 1067POPC   PO416524  25.876  32.836   9.414
 1067POPC   GL116525  25.978  33.203   9.212
 1067POPC   GL216526  26.274  33.030   9.109
 1067POPC   C1A16527  25.961  33.268   8.798
 1067POPC   D2A16528  26.026  33.058   8.426
 1067POPC   C3A16529  25.846  33.168   8.047
 1067POPC   C4A16530  25.938  33.089   7.641
 1067POPC   C1B16531  26.485  33.146   8.720
 1067POPC   C2B16532  26.513  33.086   8.265
 1067POPC   C3B16533  26.361  32.929   7.871
 1067POPC   C4B16534  26.469  33.056   7.421
 1068POPC   NC316535  14.761  29.727   9.541
 1068POPC   PO416536  14.309  30.199   9.418
 1068POPC   GL116537  14.614  30.027   9.147
 1068POPC   GL216538  14.532  29.641   9.110
 1068POPC   C1A16539  14.485  30.010   8.727
 1068POPC   D2A16540  14.164  30.082   8.453
 1068POPC   C3A16541  14.440  30.202   8.137
 1068POPC   C4A16542  14.284  30.171   7.730
 1068POPC   C1B16543  14.757  29.587   8.756
 1068POPC   C2B16544  14.684  29.710   8.330
 1068POPC   C3B16545  14.728  29.529   7.942
 1068POPC   C4B16546  14.454  29.672   7.630
 1069POPC   NC316547  36.579  26.292   9.418
 1069POPC   PO416548  36.080  25.796   9.523
 1069POPC   GL116549  35.984  25.960   9.122
 1069POPC   GL216550  36.096  26.288   9.147
 1069POPC   C1A16551  36.298  25.881   8.806
 1069POPC   D2A16552  36.532  25.758   8.431
 1069POPC   C3A16553  36.330  26.032   8.161
 1069POPC   C4A16554  36.127  26.026   7.817
 1069POPC   C1B16555  36.072  26.353   8.701
 1069POPC   C2B16556  35.854  26.114   8.378
 1069POPC   C3B16557  35.682  26.240   7.980
 1069POPC   C4B16558  35.823  26.341   7.577
 1070POPC   NC316559  27.087  21.482   9.959
 1070POPC   PO416560  26.685  21.394   9.373
 1070POPC   GL116561  26.850  21.484   9.005
 1070POPC   GL216562  27.036  21.186   9.013
 1070POPC   C1A16563  26.753  21.610   8.602
 1070POPC   D2A16564  26.851  21.370   8.293
 1070POPC   C3A16565  27.124  21.551   8.048
 1070POPC   C4A16566  26.820  21.591   7.766
 1070POPC   C1B16567  27.226  21.359   8.662
 1070POPC   C2B16568  27.270  21.100   8.311
 1070POPC   C3B16569  27.053  21.080   7.903
 1070POPC   C4B16570  27.172  21.303   7.509
 1071POPC   NC316571  44.263  28.387   9.494
 1071POPC   PO416572  44.879  28.125   9.439
 1071POPC   GL116573  44.618  28.266   9.109
 1071POPC   GL216574  44.511  28.593   9.091
 1071POPC   C1A16575  44.742  28.334   8.671
 1071POPC   D2A16576   0.109  28.269   8.414
 1071POPC   C3A16577  44.955  28.078   8.049
 1071POPC   C4A16578  44.653  28.157   7.723
 1071POPC   C1B16579  44.249  28.440   8.727
 1071POPC   C2B16580  44.386  28.463   8.298
 1071POPC   C3B16581  44.726  28.555   8.051
 1071POPC   C4B16582  44.639  28.812   7.715
 1072POPC   NC316583  28.598  13.324   9.553
 1072POPC   PO416584  29.270  13.681   9.577
 1072POPC   GL116585  29.261  13.530   9.183
 1072POPC   GL216586  28.937  13.572   9.192
 1072POPC   C1A16587  29.471  13.461   8.786
 1072POPC   D2A16588  29.521  13.683   8.422
 1072POPC   C3A16589  29.365  13.532   8.054
 1072POPC   C4A16590  29.638  13.434   7.706
 1072POPC   C1B16591  29.032  13.721   8.775
 1072POPC   C2B16592  28.947  13.630   8.379
 1072POPC   C3B16593  28.931  13.870   8.027
 1072POPC   C4B16594  28.897  13.644   7.674
 1073POPC   NC316595  25.937  44.149   9.271
 1073POPC   PO416596  25.797  43.460   9.476
 1073POPC   GL116597  25.782  43.668   9.127
 1073POPC   GL216598  26.115  43.587   9.065
 1073POPC   C1A16599  25.632  43.799   8.733
 1073POPC   D2A16600  25.847  43.851   8.336
 1073POPC   C3A16601  25.850  44.050   7.937
 1073POPC   C4A16602  25.605  44.057   7.553
 1073POPC   C1B16603  26.235  43.812   8.694
 1073POPC   C2B16604  26.325  43.655   8.279
 1073POPC   C3B16605  26.421  43.464   7.898
 1073POPC   C4B16606  26.254  43.811   7.670
 1074POPC   NC316607   1.866  44.423   9.633
 1074POPC   PO416608   2.290   0.003   9.346
 1074POPC   GL116609   1.976  44.855   9.049
 1074POPC   GL216610   1.812  44.567   9.150
 1074POPC   C1A16611   1.878  44.754   8.623
 1074POPC   D2A16612   1.582  44.757   8.255
 1074POPC   C3A16613   1.823  44.905   7.906
 1074POPC   C4A16614   2.281  44.873   7.802
 1074POPC   C1B16615   1.652  44.314   8.818
 1074POPC   C2B16616   1.840  44.284   8.399
 1074POPC   C3B16617   1.797  44.374   7.966
 1074POPC   C4B16618   2.006  44.520   7.608
 1075POPC   NC316619  33.370  37.847   9.830
 1075POPC   PO416620  32.822  37.467   9.638
 1075POPC   GL116621  33.115  37.681   9.378
 1075POPC   GL216622  33.325  37.433   9.407
 1075POPC   C1A16623  33.122  37.825   8.952
 1075POPC   D2A16624  32.825  37.810   8.612
 1075POPC   C3A16625  32.946  37.830   8.157
 1075POPC   C4A16626  32.739  37.765   7.742
 1075POPC   C1B16627  33.331  37.320   8.926
 1075POPC   C2B16628  33.190  37.491   8.508
 1075POPC   C3B16629  33.028  37.330   8.101
 1075POPC   C4B16630  33.118  37.432   7.697
 1076POPC   NC316631  32.776   8.845   9.607
 1076POPC   PO416632  33.441   8.979   9.620
 1076POPC   GL116633  33.144   8.866   9.250
 1076POPC   GL216634  32.881   9.142   9.172
 1076POPC   C1A16635  33.193   8.929   8.798
 1076POPC   D2A16636  33.200   9.204   8.446
 1076POPC   C3A16637  33.278   8.965   8.075
 1076POPC   C4A16638  33.161   9.073   7.680
 1076POPC   C1B16639  32.665   8.917   8.827
 1076POPC   C2B16640  32.787   8.880   8.375
 1076POPC   C3B16641  32.814   9.199   8.047
 1076POPC   C4B16642  32.697   9.390   7.637
 1077POPC   NC316643   6.044  15.830   9.459
 1077POPC   PO416644   5.449  16.128   9.488
 1077POPC   GL116645   5.689  16.085   9.154
 1077POPC   GL216646   5.632  15.757   9.116
 1077POPC   C1A16647   5.803  16.128   8.730
 1077POPC   D2A16648   5.640  16.016   8.336
 1077POPC   C3A16649   5.830  15.849   7.978
 1077POPC   C4A16650   6.033  15.972   7.599
 1077POPC   C1B16651   5.761  15.602   8.731
 1077POPC   C2B16652   6.063  15.658   8.401
 1077POPC   C3B16653   6.108  15.423   8.014
 1077POPC   C4B16654   5.730  15.424   7.726
 1078POPC   NC316655  11.110   3.363   9.367
 1078POPC   PO416656  11.814   3.197   9.258
 1078POPC   GL116657  11.529   3.468   9.072
 1078POPC   GL216658  11.388   3.779   9.177
 1078POPC   C1A16659  11.317   3.412   8.685
 1078POPC   D2A16660  11.381   3.288   8.256
 1078POPC   C3A16661  11.348   3.574   7.940
 1078POPC   C4A16662  11.330   3.466   7.515
 1078POPC   C1B16663  11.206   3.889   8.833
 1078POPC   C2B16664  11.293   3.890   8.405
 1078POPC   C3B16665  11.118   4.040   8.044
 1078POPC   C4B16666  11.207   4.015   7.647
 1079POPC   NC316667  31.923   4.721   9.579
 1079POPC   PO416668  32.362   5.181   9.681
 1079POPC   GL116669  32.316   5.061   9.220
 1079POPC   GL216670  32.035   4.888   9.117
 1079POPC   C1A16671  32.228   5.249   8.797
 1079POPC   D2A16672  31.943   5.262   8.455
 1079POPC   C3A16673  32.070   5.153   8.050
 1079POPC   C4A16674  32.224   5.428   7.762
 1079POPC   C1B16675  32.341   4.765   8.778
 1079POPC   C2B16676  32.397   4.904   8.381
 1079POPC   C3B16677  32.437   4.782   7.959
 1079POPC   C4B16678  32.223   4.944   7.593
 1080POPC   NC316679   0.455  13.296   9.409
 1080POPC   PO416680   0.648  12.589   9.499
 1080POPC   GL116681   0.399  12.836   9.172
 1080POPC   GL216682   0.617  13.078   8.972
 1080POPC   C1A16683   0.148  12.918   8.781
 1080POPC   D2A16684   0.151  12.687   8.386
 1080POPC   C3A16685   0.323  12.830   8.004
 1080POPC   C4A16686   0.134  12.701   7.646
 1080POPC   C1B16687   0.574  12.685   8.707
 1080POPC   C2B16688   0.711  12.690   8.308
 1080POPC   C3B16689   0.800  12.586   7.913
 1080POPC   C4B16690   0.547  12.400   7.620
 1081POPC   NC316691  23.958  28.364   9.446
 1081POPC   PO416692  23.271  28.257   9.482
 1081POPC   GL116693  23.562  28.149   9.170
 1081POPC   GL216694  23.609  28.518   9.124
 1081POPC   C1A16695  23.692  28.214   8.734
 1081POPC   D2A16696  23.535  28.460   8.402
 1081POPC   C3A16697  23.674  28.145   8.135
 1081POPC   C4A16698  23.887  28.106   7.777
 1081POPC   C1B16699  23.795  28.713   8.787
 1081POPC   C2B16700  24.080  28.521   8.492
 1081POPC   C3B16701  23.951  28.574   8.073
 1081POPC   C4B16702  23.670  28.623   7.750
 1082POPC   NC316703  16.235  38.397   9.708
 1082POPC   PO416704  16.829  38.797   9.481
 1082POPC   GL116705  16.623  38.487   9.176
 1082POPC   GL216706  16.678  38.106   9.171
 1082POPC   C1A16707  16.755  38.387   8.744
 1082POPC   D2A16708  16.990  38.514   8.363
 1082POPC   C3A16709  16.785  38.729   8.021
 1082POPC   C4A16710  16.601  38.699   7.589
 1082POPC   C1B16711  16.504  37.900   8.782
 1082POPC   C2B16712  16.280  38.079   8.455
 1082POPC   C3B16713  16.469  38.343   8.151
 1082POPC   C4B16714  16.734  38.258   7.796
 1083POPC   NC316715  17.728  25.709   9.960
 1083POPC   PO416716  17.644  26.149   9.474
 1083POPC   GL116717  17.777  26.147   9.060
 1083POPC   GL216718  17.570  26.403   9.016
 1083POPC   C1A16719  17.675  25.854   8.731
 1083POPC   D2A16720  17.424  25.865   8.357
 1083POPC   C3A16721  17.658  25.883   7.984
 1083POPC   C4A16722  17.472  25.837   7.596
 1083POPC   C1B16723  17.605  26.328   8.575
 1083POPC   C2B16724  17.583  26.347   8.149
 1083POPC   C3B16725  17.539  26.358   7.712
 1083POPC   C4B16726  17.798  26.187   7.394
 1084POPC   NC316727   0.886   8.609   9.543
 1084POPC   PO416728   1.221   8.050   9.592
 1084POPC   GL116729   1.191   8.070   9.171
 1084POPC   GL216730   0.920   8.275   9.157
 1084POPC   C1A16731   1.315   8.041   8.743
 1084POPC   D2A16732   1.373   8.207   8.332
 1084POPC   C3A16733   1.144   7.997   7.999
 1084POPC   C4A16734   1.066   8.076   7.534
 1084POPC   C1B16735   0.813   8.013   8.803
 1084POPC   C2B16736   0.844   8.158   8.381
 1084POPC   C3B16737   1.021   8.497   8.092
 1084POPC   C4B16738   0.804   8.625   7.733
 1085POPC   NC316739  33.600  19.078   9.480
 1085POPC   PO416740  34.234  18.809   9.489
 1085POPC   GL116741  34.051  19.125   9.206
 1085POPC   GL216742  33.917  19.490   9.304
 1085POPC   C1A16743  33.948  18.954   8.798
 1085POPC   D2A16744  33.783  18.774   8.433
 1085POPC   C3A16745  33.880  18.936   8.033
 1085POPC   C4A16746  33.692  18.927   7.646
 1085POPC   C1B16747  33.747  19.410   8.873
 1085POPC   C2B16748  33.772  19.283   8.413
 1085POPC   C3B16749  33.564  19.374   7.982
 1085POPC   C4B16750  33.382  19.317   7.566
 1086POPC   NC316751  30.969  11.246   9.631
 1086POPC   PO416752  30.489  11.598   9.340
 1086POPC   GL116753  30.795  11.339   9.148
 1086POPC   GL216754  30.580  11.091   9.024
 1086POPC   C1A16755  30.979  11.217   8.741
 1086POPC   D2A16756  30.841  11.382   8.326
 1086POPC   C3A16757  30.911  11.064   8.041
 1086POPC   C4A16758  31.066  10.988   7.626
 1086POPC   C1B16759  30.504  11.410   8.724
 1086POPC   C2B16760  30.295  11.417   8.388
 1086POPC   C3B16761  30.421  11.300   8.011
 1086POPC   C4B16762  30.743  11.467   7.769
 1087POPC   NC316763  23.708   0.741   9.393
 1087POPC   PO416764  23.766   0.215   9.754
 1087POPC   GL116765  23.750   0.261   9.244
 1087POPC   GL216766  23.473   0.194   9.041
 1087POPC   C1A16767  23.911   0.224   8.791
 1087POPC   D2A16768  23.974   0.533   8.460
 1087POPC   C3A16769  24.187   0.404   8.121
 1087POPC   C4A16770  23.870   0.252   7.852
 1087POPC   C1B16771  23.428   0.286   8.602
 1087POPC   C2B16772  23.487   0.117   8.186
 1087POPC   C3B16773  23.375   0.286   7.766
 1087POPC   C4B16774  23.303   0.282   7.285
 1088POPC   NC316775  34.059  37.825   9.926
 1088POPC   PO416776  33.620  38.055   9.506
 1088POPC   GL116777  33.637  37.764   9.182
 1088POPC   GL216778  33.958  37.678   9.194
 1088POPC   C1A16779  33.581  37.719   8.757
 1088POPC   D2A16780  33.460  37.935   8.427
 1088POPC   C3A16781  33.463  37.686   8.098
 1088POPC   C4A16782  33.464  37.812   7.714
 1088POPC   C1B16783  34.084  37.802   8.777
 1088POPC   C2B16784  33.926  37.653   8.383
 1088POPC   C3B16785  33.949  37.488   7.980
 1088POPC   C4B16786  34.128  37.761   7.698
 1089POPC   NC316787  21.448   5.553   9.486
 1089POPC   PO416788  21.058   6.151   9.568
 1089POPC   GL116789  21.318   5.993   9.225
 1089POPC   GL216790  21.095   5.707   9.146
 1089POPC   C1A16791  21.565   5.928   8.813
 1089POPC   D2A16792  21.446   6.107   8.402
 1089POPC   C3A16793  21.667   6.106   7.999
 1089POPC   C4A16794  21.803   5.718   7.791
 1089POPC   C1B16795  21.054   5.941   8.765
 1089POPC   C2B16796  20.927   6.046   8.371
 1089POPC   C3B16797  21.131   5.762   8.137
 1089POPC   C4B16798  21.269   5.805   7.768
 1090POPC   NC316799  36.190   8.523   9.488
 1090POPC   PO416800  36.330   7.891   9.435
 1090POPC   GL116801  36.130   8.130   9.130
 1090POPC   GL216802  35.845   8.313   9.115
 1090POPC   C1A16803  36.244   8.368   8.761
 1090POPC   D2A16804  36.100   8.217   8.361
 1090POPC   C3A16805  36.361   8.232   8.022
 1090POPC   C4A16806  36.589   8.379   7.681
 1090POPC   C1B16807  35.822   7.957   8.761
 1090POPC   C2B16808  35.728   7.866   8.290
 1090POPC   C3B16809  35.840   8.102   7.869
 1090POPC   C4B16810  35.933   7.916   7.438
 1091POPC   NC316811  28.866  42.939   9.404
 1091POPC   PO416812  29.354  43.425   9.551
 1091POPC   GL116813  29.211  43.221   9.152
 1091POPC   GL216814  28.857  43.181   8.959
 1091POPC   C1A16815  29.312  43.076   8.751
 1091POPC   D2A16816  29.069  43.167   8.392
 1091POPC   C3A16817  29.332  43.410   8.176
 1091POPC   C4A16818  29.493  43.396   7.788
 1091POPC   C1B16819  28.879  42.789   8.716
 1091POPC   C2B16820  28.764  42.757   8.273
 1091POPC   C3B16821  28.863  42.998   7.884
 1091POPC   C4B16822  28.848  42.853   7.437
 1092POPC   NC316823   5.216  21.871   9.327
 1092POPC   PO416824   5.151  21.246   9.541
 1092POPC   GL116825   5.159  21.403   9.127
 1092POPC   GL216826   4.915  21.620   8.995
 1092POPC   C1A16827   5.073  21.198   8.720
 1092POPC   D2A16828   5.124  21.049   8.284
 1092POPC   C3A16829   4.942  21.265   7.971
 1092POPC   C4A16830   5.207  21.096   7.673
 1092POPC   C1B16831   5.338  21.671   8.732
 1092POPC   C2B16832   5.511  21.737   8.339
 1092POPC   C3B16833   5.420  21.471   7.994
 1092POPC   C4B16834   5.461  21.542   7.563
 1093POPC   NC316835  41.737   3.376   9.627
 1093POPC   PO416836  41.181   3.642   9.544
 1093POPC   GL116837  41.473   3.610   9.215
 1093POPC   GL216838  41.873   3.705   9.259
 1093POPC   C1A16839  41.340   3.527   8.784
 1093POPC   D2A16840  41.369   3.796   8.427
 1093POPC   C3A16841  41.340   3.579   8.040
 1093POPC   C4A16842  41.133   3.602   7.668
 1093POPC   C1B16843  41.810   3.382   8.917
 1093POPC   C2B16844  41.749   3.415   8.506
 1093POPC   C3B16845  41.803   3.348   8.114
 1093POPC   C4B16846  41.664   3.186   7.728
 1094POPC   NC316847  42.487  27.180   9.441
 1094POPC   PO416848  42.265  26.547   9.463
 1094POPC   GL116849  42.092  26.493   9.104
 1094POPC   GL216850  42.314  26.740   8.978
 1094POPC   C1A16851  41.923  26.507   8.731
 1094POPC   D2A16852  42.095  26.736   8.408
 1094POPC   C3A16853  41.942  26.572   8.034
 1094POPC   C4A16854  42.171  26.720   7.696
 1094POPC   C1B16855  42.413  27.115   8.766
 1094POPC   C2B16856  42.296  27.202   8.349
 1094POPC   C3B16857  42.477  26.911   8.063
 1094POPC   C4B16858  42.631  26.949   7.647
 1095POPC   NC316859  21.678  32.828   9.521
 1095POPC   PO416860  21.108  33.184   9.561
 1095POPC   GL116861  21.127  33.160   9.136
 1095POPC   GL216862  21.472  33.199   9.154
 1095POPC   C1A16863  21.237  32.883   8.781
 1095POPC   D2A16864  21.459  32.711   8.416
 1095POPC   C3A16865  21.214  32.837   8.039
 1095POPC   C4A16866  21.046  33.228   7.869
 1095POPC   C1B16867  21.378  33.381   8.749
 1095POPC   C2B16868  21.414  33.235   8.338
 1095POPC   C3B16869  21.559  33.184   7.933
 1095POPC   C4B16870  21.706  32.771   7.796
 1096POPC   NC316871  17.799  37.164   9.795
 1096POPC   PO416872  17.331  36.822   9.447
 1096POPC   GL116873  17.519  36.866   9.099
 1096POPC   GL216874  17.819  36.881   9.231
 1096POPC   C1A16875  17.455  36.827   8.686
 1096POPC   D2A16876  17.493  37.139   8.370
 1096POPC   C3A16877  17.207  37.069   8.022
 1096POPC   C4A16878  17.363  36.800   7.728
 1096POPC   C1B16879  17.917  37.034   8.801
 1096POPC   C2B16880  18.034  36.909   8.394
 1096POPC   C3B16881  17.827  36.842   8.004
 1096POPC   C4B16882  17.805  37.181   7.717
 1097POPC   NC316883   6.829  15.981   9.471
 1097POPC   PO416884   6.171  16.301   9.472
 1097POPC   GL116885   6.501  16.287   9.102
 1097POPC   GL216886   6.889  16.258   9.019
 1097POPC   C1A16887   6.545  16.124   8.665
 1097POPC   D2A16888   6.578  15.749   8.393
 1097POPC   C3A16889   6.376  15.847   8.007
 1097POPC   C4A16890   6.460  16.228   7.859
 1097POPC   C1B16891   6.932  15.841   8.818
 1097POPC   C2B16892   7.116  15.842   8.388
 1097POPC   C3B16893   6.904  15.953   8.030
 1097POPC   C4B16894   6.758  15.694   7.715
 1098POPC   NC316895   2.373  41.530   9.302
 1098POPC   PO416896   3.040  41.732   9.488
 1098POPC   GL116897   2.886  41.616   9.117
 1098POPC   GL216898   2.644  41.898   9.058
 1098POPC   C1A16899   2.740  41.529   8.717
 1098POPC   D2A16900   2.789  41.693   8.340
 1098POPC   C3A16901   2.434  41.518   8.193
 1098POPC   C4A16902   2.455  41.454   7.815
 1098POPC   C1B16903   2.963  42.002   8.747
 1098POPC   C2B16904   3.226  41.997   8.368
 1098POPC   C3B16905   3.029  42.013   7.994
 1098POPC   C4B16906   2.578  41.941   7.904
 1099POPC   NC316907  22.049  14.793   9.323
 1099POPC   PO416908  21.941  15.391   9.377
 1099POPC   GL116909  21.876  15.185   8.985
 1099POPC   GL216910  22.220  15.050   8.906
 1099POPC   C1A16911  21.833  14.869   8.647
 1099POPC   D2A16912  21.867  14.860   8.190
 1099POPC   C3A16913  22.154  15.055   7.880
 1099POPC   C4A16914  22.303  15.123   7.443
 1099POPC   C1B16915  22.130  15.259   8.493
 1099POPC   C2B16916  22.276  15.487   8.114
 1099POPC   C3B16917  22.590  15.361   7.807
 1099POPC   C4B16918  22.822  15.057   7.503
 1100POPC   NC316919  37.820  44.028   9.610
 1100POPC   PO416920  37.173  44.078   9.534
 1100POPC   GL116921  37.513  43.894   9.227
 1100POPC   GL216922  37.829  43.673   9.238
 1100POPC   C1A16923  37.680  44.006   8.830
 1100POPC   D2A16924  37.710  44.159   8.412
 1100POPC   C3A16925  37.562  43.894   8.129
 1100POPC   C4A16926  37.392  44.001   7.751
 1100POPC   C1B16927  38.102  43.749   8.874
 1100POPC   C2B16928  37.986  43.671   8.433
 1100POPC   C3B16929  38.122  43.613   8.003
 1100POPC   C4B16930  38.100  43.677   7.528
 1101POPC   NC316931  40.446  43.887   9.225
 1101POPC   PO416932  41.085  43.744   9.556
 1101POPC   GL116933  40.969  43.989   9.223
 1101POPC   GL216934  40.891  43.701   9.046
 1101POPC   C1A16935  40.922  44.169   8.829
 1101POPC   D2A16936  40.844  43.945   8.493
 1101POPC   C3A16937  40.669  44.200   8.167
 1101POPC   C4A16938  40.704  44.122   7.701
 1101POPC   C1B16939  40.648  43.492   8.716
 1101POPC   C2B16940  40.449  43.661   8.344
 1101POPC   C3B16941  40.754  43.714   8.042
 1101POPC   C4B16942  40.858  43.598   7.676
 1102POPC   NC316943  44.439  34.494   9.834
 1102POPC   PO416944  44.798  34.862   9.324
 1102POPC   GL116945  44.739  34.643   8.987
 1102POPC   GL216946  44.391  34.732   8.892
 1102POPC   C1A16947  44.656  34.399   8.663
 1102POPC   D2A16948  44.550  34.662   8.328
 1102POPC   C3A16949  44.820  34.708   7.956
 1102POPC   C4A16950  44.765  34.510   7.572
 1102POPC   C1B16951  44.494  35.042   8.676
 1102POPC   C2B16952  44.257  35.195   8.359
 1102POPC   C3B16953  44.451  35.054   8.015
 1102POPC   C4B16954  44.397  34.843   7.646
 1103POPC   NC316955   6.084  39.713   9.367
 1103POPC   PO416956   5.745  40.277   9.553
 1103POPC   GL116957   5.693  40.114   9.179
 1103POPC   GL216958   5.623  39.772   9.183
 1103POPC   C1A16959   5.948  40.201   8.835
 1103POPC   D2A16960   5.776  40.105   8.435
 1103POPC   C3A16961   6.017  40.074   8.071
 1103POPC   C4A16962   5.851  40.050   7.665
 1103POPC   C1B16963   5.850  39.698   8.779
 1103POPC   C2B16964   5.999  39.613   8.390
 1103POPC   C3B16965   5.798  39.556   8.013
 1103POPC   C4B16966   5.905  39.534   7.620
 1104POPC   NC316967  22.593  11.960   9.448
 1104POPC   PO416968  23.248  12.224   9.287
 1104POPC   GL116969  22.938  12.032   9.047
 1104POPC   GL216970  22.611  12.165   8.995
 1104POPC   C1A16971  22.993  12.178   8.633
 1104POPC   D2A16972  23.334  12.127   8.316
 1104POPC   C3A16973  23.212  12.330   7.953
 1104POPC   C4A16974  22.915  12.067   7.830
 1104POPC   C1B16975  22.570  11.856   8.714
 1104POPC   C2B16976  22.734  11.886   8.320
 1104POPC   C3B16977  22.475  11.947   8.006
 1104POPC   C4B16978  22.515  11.680   7.719
 1105POPC   NC316979  28.149   5.085   9.417
 1105POPC   PO416980  28.819   4.894   9.342
 1105POPC   GL116981  28.546   5.259   9.121
 1105POPC   GL216982  28.197   5.364   8.979
 1105POPC   C1A16983  28.617   5.421   8.696
 1105POPC   D2A16984  28.498   5.207   8.319
 1105POPC   C3A16985  28.726   5.069   7.947
 1105POPC   C4A16986  28.484   5.293   7.661
 1105POPC   C1B16987  28.247   5.008   8.749
 1105POPC   C2B16988  28.107   4.817   8.394
 1105POPC   C3B16989  28.202   4.939   7.994
 1105POPC   C4B16990  28.357   4.804   7.649
 1106POPC   NC316991  43.505   8.176   9.552
 1106POPC   PO416992  44.090   8.518   9.629
 1106POPC   GL116993  43.866   8.435   9.267
 1106POPC   GL216994  43.609   8.673   9.326
 1106POPC   C1A16995  43.879   8.133   8.924
 1106POPC   D2A16996  44.140   8.023   8.566
 1106POPC   C3A16997  43.978   7.862   8.187
 1106POPC   C4A16998  44.052   7.964   7.781
 1106POPC   C1B16999  43.671   8.630   8.845
 1106POPC   C2B17000  43.753   8.373   8.475
 1106POPC   C3B17001  43.879   8.407   8.039
 1106POPC   C4B17002  43.895   8.732   7.731
 1107POPC   NC317003  35.459  39.854   9.322
 1107POPC   PO417004  35.692  40.458   9.402
 1107POPC   GL117005  35.424  40.310   9.088
 1107POPC   GL217006  35.096  40.210   9.225
 1107POPC   C1A17007  35.430  40.061   8.690
 1107POPC   D2A17008  35.156  39.871   8.377
 1107POPC   C3A17009  35.335  39.909   7.973
 1107POPC   C4A17010  35.160  39.768   7.592
 1107POPC   C1B17011  34.938  40.157   8.811
 1107POPC   C2B17012  34.908  40.337   8.397
 1107POPC   C3B17013  34.899  40.161   8.013
 1107POPC   C4B17014  35.065  40.260   7.631
 1108POPC   NC317015   2.348  15.143   9.943
 1108POPC   PO417016   1.802  14.861   9.773
 1108POPC   GL117017   2.025  15.031   9.330
 1108POPC   GL217018   1.911  15.352   9.174
 1108POPC   C1A17019   2.078  15.024   8.854
 1108POPC   D2A17020   2.281  15.000   8.438
 1108POPC   C3A17021   2.116  15.026   8.077
 1108POPC   C4A17022   2.149  15.018   7.662
 1108POPC   C1B17023   1.577  15.235   8.830
 1108POPC   C2B17024   1.442  15.081   8.392
 1108POPC   C3B17025   1.636  15.044   7.981
 1108POPC   C4B17026   1.784  15.398   7.700
 1109POPC   NC317027   0.084  28.550   9.370
 1109POPC   PO417028   0.459  28.016   9.561
 1109POPC   GL117029   0.418  28.219   9.170
 1109POPC   GL217030   0.124  28.198   8.972
 1109POPC   C1A17031   0.592  28.382   8.795
 1109POPC   D2A17032   0.671  28.277   8.383
 1109POPC   C3A17033   0.426  28.320   8.010
 1109POPC   C4A17034   0.612  28.301   7.616
 1109POPC   C1B17035   0.156  28.655   8.743
 1109POPC   C2B17036   0.238  28.808   8.313
 1109POPC   C3B17037   0.154  28.761   7.858
 1109POPC   C4B17038   0.078  28.392   7.594
 1110POPC   NC317039  41.363  22.736   9.432
 1110POPC   PO417040  42.009  22.829   9.385
 1110POPC   GL117041  41.669  23.001   9.112
 1110POPC   GL217042  41.575  23.332   9.245
 1110POPC   C1A17043  41.693  23.010   8.634
 1110POPC   D2A17044  41.431  22.908   8.291
 1110POPC   C3A17045  41.559  22.752   7.946
 1110POPC   C4A17046  41.665  22.952   7.559
 1110POPC   C1B17047  41.377  23.349   8.852
 1110POPC   C2B17048  41.455  23.440   8.427
 1110POPC   C3B17049  41.466  23.310   7.992
 1110POPC   C4B17050  41.424  23.487   7.598
 1111POPC   NC317051  14.096   0.410  10.108
 1111POPC   PO417052  14.508   0.460   9.614
 1111POPC   GL117053  14.301   0.500   9.194
 1111POPC   GL217054  14.565   0.464   9.004
 1111POPC   C1A17055  14.141   0.497   8.716
 1111POPC   D2A17056  14.241   0.304   8.277
 1111POPC   C3A17057  14.074   0.465   7.912
 1111POPC   C4A17058  14.169   0.555   7.461
 1111POPC   C1B17059  14.624   0.295   8.608
 1111POPC   C2B17060  14.722   0.549   8.249
 1111POPC   C3B17061  14.576   0.531   7.846
 1111POPC   C4B17062  14.408   0.159   7.688
 1112POPC   NC317063  40.583  40.463   9.410
 1112POPC   PO417064  40.938  40.924   9.594
 1112POPC   GL117065  40.889  41.019   9.162
 1112POPC   GL217066  40.899  40.665   9.066
 1112POPC   C1A17067  40.900  40.973   8.686
 1112POPC   D2A17068  41.043  40.876   8.267
 1112POPC   C3A17069  40.842  41.002   7.913
 1112POPC   C4A17070  40.450  41.057   7.797
 1112POPC   C1B17071  41.052  40.477   8.679
 1112POPC   C2B17072  40.943  40.348   8.256
 1112POPC   C3B17073  41.078  40.542   7.881
 1112POPC   C4B17074  41.149  40.354   7.470
 1113POPC   NC317075  39.613  41.223   9.329
 1113POPC   PO417076  39.436  40.527   9.612
 1113POPC   GL117077  39.433  40.605   9.176
 1113POPC   GL217078  39.117  40.453   9.119
 1113POPC   C1A17079  39.278  40.744   8.746
 1113POPC   D2A17080  39.437  40.954   8.388
 1113POPC   C3A17081  39.154  40.864   8.076
 1113POPC   C4A17082  39.032  41.016   7.699
 1113POPC   C1B17083  39.045  40.269   8.738
 1113POPC   C2B17084  38.951  40.443   8.322
 1113POPC   C3B17085  39.061  40.411   7.862
 1113POPC   C4B17086  39.374  40.618   7.626
 1114POPC   NC317087  10.292   0.273   9.532
 1114POPC   PO417088  10.795   0.674   9.624
 1114POPC   GL117089  10.639   0.528   9.232
 1114POPC   GL217090  10.310   0.707   9.254
 1114POPC   C1A17091  10.463   0.267   8.883
 1114POPC   D2A17092  10.250   0.114   8.514
 1114POPC   C3A17093  10.415   0.300   8.143
 1114POPC   C4A17094  10.620   0.093   7.786
 1114POPC   C1B17095  10.033   0.557   8.927
 1114POPC   C2B17096  10.064   0.601   8.498
 1114POPC   C3B17097  10.071   0.683   8.059
 1114POPC   C4B17098  10.283   0.487   7.693
 1115POPC   NC317099  19.661  31.085   9.207
 1115POPC   PO417100  19.931  30.507   9.456
 1115POPC   GL117101  20.008  30.677   9.048
 1115POPC   GL217102  20.226  30.930   9.169
 1115POPC   C1A17103  19.770  30.703   8.624
 1115POPC   D2A17104  19.687  30.901   8.200
 1115POPC   C3A17105  19.835  30.652   7.838
 1115POPC   C4A17106  19.914  30.451   7.436
 1115POPC   C1B17107  20.126  31.127   8.771
 1115POPC   C2B17108  20.185  30.944   8.393
 1115POPC   C3B17109  20.172  31.018   7.977
 1115POPC   C4B17110  20.197  30.877   7.549
 1116POPC   NC317111  40.706  22.650   9.425
 1116POPC   PO417112  41.163  23.158   9.519
 1116POPC   GL117113  41.021  22.963   9.123
 1116POPC   GL217114  41.036  22.567   9.043
 1116POPC   C1A17115  41.181  22.890   8.713
 1116POPC   D2A17116  41.035  22.579   8.389
 1116POPC   C3A17117  40.961  22.741   7.967
 1116POPC   C4A17118  41.181  23.011   7.696
 1116POPC   C1B17119  40.688  22.764   8.752
 1116POPC   C2B17120  40.565  22.889   8.300
 1116POPC   C3B17121  40.431  22.682   7.895
 1116POPC   C4B17122  40.472  22.646   7.396
 1117POPC   NC317123   7.774  32.782   9.601
 1117POPC   PO417124   7.226  33.139   9.513
 1117POPC   GL117125   7.530  33.056   9.210
 1117POPC   GL217126   7.405  32.732   9.213
 1117POPC   C1A17127   7.686  33.008   8.775
 1117POPC   D2A17128   7.440  33.136   8.400
 1117POPC   C3A17129   7.612  33.176   7.978
 1117POPC   C4A17130   7.440  33.280   7.545
 1117POPC   C1B17131   7.189  32.896   8.846
 1117POPC   C2B17132   7.112  32.739   8.457
 1117POPC   C3B17133   7.081  32.827   8.066
 1117POPC   C4B17134   7.314  32.822   7.726
 1118POPC   NC317135  35.403  13.090   9.567
 1118POPC   PO417136  35.084  12.615   9.422
 1118POPC   GL117137  35.148  12.915   9.130
 1118POPC   GL217138  34.858  13.053   9.150
 1118POPC   C1A17139  35.287  12.958   8.691
 1118POPC   D2A17140  35.327  12.776   8.298
 1118POPC   C3A17141  35.416  12.894   7.901
 1118POPC   C4A17142  35.266  12.657   7.512
 1118POPC   C1B17143  34.764  12.931   8.768
 1118POPC   C2B17144  34.845  12.946   8.366
 1118POPC   C3B17145  34.907  12.808   7.982
 1118POPC   C4B17146  34.971  13.087   7.661
 1119POPC   NC317147  39.436  27.820   9.451
 1119POPC   PO417148  39.732  28.422   9.497
 1119POPC   GL117149  39.329  28.319   9.226
 1119POPC   GL217150  39.034  28.524   9.099
 1119POPC   C1A17151  39.223  28.150   8.813
 1119POPC   D2A17152  39.054  28.234   8.421
 1119POPC   C3A17153  39.365  28.314   8.165
 1119POPC   C4A17154  39.375  28.388   7.758
 1119POPC   C1B17155  39.181  28.681   8.748
 1119POPC   C2B17156  39.116  28.787   8.355
 1119POPC   C3B17157  38.958  28.602   8.039
 1119POPC   C4B17158  38.934  28.593   7.621
 1120POPC   NC317159  17.298  34.185   9.442
 1120POPC   PO417160  17.787  33.667   9.476
 1120POPC   GL117161  17.587  33.777   9.126
 1120POPC   GL217162  17.568  34.099   9.017
 1120POPC   C1A17163  17.686  33.629   8.727
 1120POPC   D2A17164  17.877  33.651   8.322
 1120POPC   C3A17165  17.567  33.708   8.019
 1120POPC   C4A17166  17.231  33.457   7.848
 1120POPC   C1B17167  17.237  33.853   8.765
 1120POPC   C2B17168  17.154  33.881   8.352
 1120POPC   C3B17169  17.161  33.988   7.920
 1120POPC   C4B17170  17.232  33.909   7.480
 1121POPC   NC317171  35.706  20.759   9.904
 1121POPC   PO417172  35.966  20.308   9.368
 1121POPC   GL117173  36.266  20.642   9.172
 1121POPC   GL217174  36.535  20.469   8.981
 1121POPC   C1A17175  36.167  20.847   8.759
 1121POPC   D2A17176  36.162  20.641   8.330
 1121POPC   C3A17177  36.002  20.822   7.901
 1121POPC   C4A17178  36.265  20.810   7.494
 1121POPC   C1B17179  36.107  20.351   8.757
 1121POPC   C2B17180  35.822  20.226   8.416
 1121POPC   C3B17181  35.981  20.310   7.996
 1121POPC   C4B17182  35.965  20.401   7.538
 1122POPC   NC317183  40.432   8.106   9.332
 1122POPC   PO417184  39.812   8.122   9.448
 1122POPC   GL117185  39.908   8.128   9.062
 1122POPC   GL217186  40.156   8.377   9.012
 1122POPC   C1A17187  39.945   7.850   8.744
 1122POPC   D2A17188  39.813   7.941   8.353
 1122POPC   C3A17189  40.102   8.000   8.076
 1122POPC   C4A17190  40.001   8.182   7.736
 1122POPC   C1B17191  40.114   8.316   8.585
 1122POPC   C2B17192  40.418   8.341   8.279
 1122POPC   C3B17193  40.339   8.590   7.938
 1122POPC   C4B17194  40.111   8.642   7.574
 1123POPC   NC317195  16.479  17.970   9.490
 1123POPC   PO417196  17.075  18.184   9.593
 1123POPC   GL117197  16.762  18.314   9.240
 1123POPC   GL217198  16.750  18.060   9.051
 1123POPC   C1A17199  16.673  18.469   8.792
 1123POPC   D2A17200  16.811  18.211   8.414
 1123POPC   C3A17201  16.676  18.354   7.992
 1123POPC   C4A17202  16.904  18.563   7.649
 1123POPC   C1B17203  16.606  17.835   8.741
 1123POPC   C2B17204  16.753  17.708   8.359
 1123POPC   C3B17205  16.856  17.860   7.963
 1123POPC   C4B17206  16.595  17.907   7.595
 1124POPC   NC317207  10.492  15.725   9.597
 1124POPC   PO417208  10.910  16.236   9.773
 1124POPC   GL117209  10.695  16.102   9.334
 1124POPC   GL217210  10.778  15.734   9.179
 1124POPC   C1A17211  10.479  16.116   8.902
 1124POPC   D2A17212  10.442  16.249   8.440
 1124POPC   C3A17213  10.464  16.021   8.019
 1124POPC   C4A17214  10.313  15.847   7.583
 1124POPC   C1B17215  10.516  15.614   8.762
 1124POPC   C2B17216  10.408  15.544   8.277
 1124POPC   C3B17217  10.684  15.584   7.868
 1124POPC   C4B17218  10.653  15.494   7.413
 1125POPC   NC317219   3.038  26.723   9.397
 1125POPC   PO417220   2.856  27.301   9.650
 1125POPC   GL117221   2.761  27.126   9.223
 1125POPC   GL217222   2.548  26.794   9.138
 1125POPC   C1A17223   2.854  27.141   8.785
 1125POPC   D2A17224   3.019  26.953   8.430
 1125POPC   C3A17225   2.751  26.784   8.150
 1125POPC   C4A17226   2.939  26.884   7.757
 1125POPC   C1B17227   2.420  26.854   8.672
 1125POPC   C2B17228   2.464  27.188   8.317
 1125POPC   C3B17229   2.501  27.117   7.856
 1125POPC   C4B17230   2.505  26.768   7.526
 1126POPC   NC317231  27.555  23.005   9.479
 1126POPC   PO417232  27.740  22.446   9.324
 1126POPC   GL117233  27.656  22.728   9.007
 1126POPC   GL217234  27.303  22.695   9.103
 1126POPC   C1A17235  27.772  23.109   8.730
 1126POPC   D2A17236  27.744  23.406   8.360
 1126POPC   C3A17237  27.843  23.159   8.016
 1126POPC   C4A17238  27.756  23.085   7.596
 1126POPC   C1B17239  27.272  23.014   8.782
 1126POPC   C2B17240  27.326  23.105   8.343
 1126POPC   C3B17241  27.255  22.833   7.978
 1126POPC   C4B17242  27.397  22.732   7.575
 1127POPC   NC317243  40.333   5.141   9.449
 1127POPC   PO417244  39.704   5.315   9.418
 1127POPC   GL117245  39.900   5.043   9.141
 1127POPC   GL217246  39.597   4.975   8.989
 1127POPC   C1A17247  40.039   4.812   8.782
 1127POPC   D2A17248  39.879   4.768   8.379
 1127POPC   C3A17249  40.220   4.957   8.144
 1127POPC   C4A17250  40.343   4.895   7.741
 1127POPC   C1B17251  39.666   5.216   8.641
 1127POPC   C2B17252  39.386   5.138   8.286
 1127POPC   C3B17253  39.607   4.964   7.960
 1127POPC   C4B17254  39.929   5.189   7.787
 1128POPC   NC317255  37.348   6.432   9.469
 1128POPC   PO417256  37.620   5.833   9.378
 1128POPC   GL117257  37.596   6.147   9.057
 1128POPC   GL217258  37.247   6.065   9.019
 1128POPC   C1A17259  37.914   6.174   8.698
 1128POPC   D2A17260  38.171   5.860   8.453
 1128POPC   C3A17261  38.030   5.802   8.004
 1128POPC   C4A17262  37.698   6.064   7.838
 1128POPC   C1B17263  37.371   5.658   8.808
 1128POPC   C2B17264  37.321   5.427   8.428
 1128POPC   C3B17265  37.394   5.626   8.035
 1128POPC   C4B17266  37.674   5.556   7.737
 1129POPC   NC317267   1.901  30.614   9.596
 1129POPC   PO417268   2.079  31.088   9.179
 1129POPC   GL117269   2.123  30.607   9.056
 1129POPC   GL217270   1.832  30.371   9.132
 1129POPC   C1A17271   2.040  30.394   8.617
 1129POPC   D2A17272   1.840  30.444   8.185
 1129POPC   C3A17273   2.015  30.812   7.917
 1129POPC   C4A17274   2.222  30.881   7.520
 1129POPC   C1B17275   1.637  30.129   8.786
 1129POPC   C2B17276   1.559  29.988   8.347
 1129POPC   C3B17277   1.658  30.030   7.887
 1129POPC   C4B17278   1.838  30.406   7.664
 1130POPC   NC317279  19.919  18.012   9.755
 1130POPC   PO417280  19.763  17.497   9.350
 1130POPC   GL117281  19.902  17.615   8.974
 1130POPC   GL217282  20.180  17.833   9.038
 1130POPC   C1A17283  19.700  17.692   8.584
 1130POPC   D2A17284  19.562  17.629   8.151
 1130POPC   C3A17285  19.826  17.286   7.996
 1130POPC   C4A17286  20.171  17.065   7.773
 1130POPC   C1B17287  20.262  17.833   8.611
 1130POPC   C2B17288  20.110  17.692   8.215
 1130POPC   C3B17289  19.982  17.894   7.843
 1130POPC   C4B17290  20.208  18.196   7.570
 1131POPC   NC317291  36.892  38.021   9.564
 1131POPC   PO417292  37.333  38.501   9.742
 1131POPC   GL117293  37.104  38.505   9.280
 1131POPC   GL217294  36.804  38.301   9.142
 1131POPC   C1A17295  36.832  38.799   8.974
 1131POPC   D2A17296  36.714  38.891   8.518
 1131POPC   C3A17297  36.963  38.664   8.175
 1131POPC   C4A17298  37.235  38.462   7.838
 1131POPC   C1B17299  36.610  38.375   8.728
 1131POPC   C2B17300  36.684  38.200   8.298
 1131POPC   C3B17301  36.739  38.313   7.857
 1131POPC   C4B17302  36.526  38.269   7.465
 1132POPC   NC317303  36.462  25.437   9.553
 1132POPC   PO417304  35.873  25.039   9.552
 1132POPC   GL117305  36.143  25.142   9.207
 1132POPC   GL217306  36.179  25.481   9.128
 1132POPC   C1A17307  36.215  25.095   8.755
 1132POPC   D2A17308  36.434  24.960   8.378
 1132POPC   C3A17309  36.241  25.067   7.989
 1132POPC   C4A17310  36.445  25.209   7.646
 1132POPC   C1B17311  35.915  25.511   8.774
 1132POPC   C2B17312  35.938  25.318   8.363
 1132POPC   C3B17313  36.180  25.546   8.068
 1132POPC   C4B17314  36.120  25.575   7.623
 1133POPC   NC317315  42.163  15.771   9.726
 1133POPC   PO417316  42.636  16.205   9.461
 1133POPC   GL117317  42.395  16.169   9.094
 1133POPC   GL217318  42.168  15.890   9.206
 1133POPC   C1A17319  42.391  15.936   8.711
 1133POPC   D2A17320  42.334  15.811   8.283
 1133POPC   C3A17321  42.575  15.973   7.937
 1133POPC   C4A17322  42.855  15.871   7.598
 1133POPC   C1B17323  41.925  15.700   8.864
 1133POPC   C2B17324  41.756  15.835   8.472
 1133POPC   C3B17325  41.887  15.755   8.067
 1133POPC   C4B17326  42.124  15.857   7.737
 1134POPC   NC317327  27.679   2.400   9.555
 1134POPC   PO417328  27.713   3.076   9.541
 1134POPC   GL117329  27.646   2.743   9.187
 1134POPC   GL217330  27.971   2.526   9.162
 1134POPC   C1A17331  27.466   2.600   8.774
 1134POPC   D2A17332  27.347   2.477   8.379
 1134POPC   C3A17333  27.481   2.764   8.092
 1134POPC   C4A17334  27.579   2.740   7.666
 1134POPC   C1B17335  27.953   2.725   8.782
 1134POPC   C2B17336  27.854   2.622   8.381
 1134POPC   C3B17337  27.990   2.774   7.975
 1134POPC   C4B17338  28.053   2.766   7.491
 1135POPC   NC317339   0.102  44.546   9.473
 1135POPC   PO417340   0.552  44.941   9.467
 1135POPC   GL117341   0.464  44.842   9.075
 1135POPC   GL217342   0.143  44.984   9.085
 1135POPC   C1A17343   0.652  44.720   8.656
 1135POPC   D2A17344   0.622  44.344   8.389
 1135POPC   C3A17345   0.557  44.435   7.948
 1135POPC   C4A17346   0.874  44.645   7.720
 1135POPC   C1B17347   0.199  44.952   8.651
 1135POPC   C2B17348   0.331  44.825   8.253
 1135POPC   C3B17349   0.196  44.826   7.840
 1135POPC   C4B17350   0.042  44.976   7.460
 1136POPC   NC317351  27.488   7.578   9.564
 1136POPC   PO417352  27.673   6.916   9.758
 1136POPC   GL117353  27.656   7.183   9.278
 1136POPC   GL217354  27.340   7.297   9.147
 1136POPC   C1A17355  27.624   7.140   8.778
 1136POPC   D2A17356  27.498   7.365   8.378
 1136POPC   C3A17357  27.442   7.326   7.873
 1136POPC   C4A17358  27.468   7.541   7.415
 1136POPC   C1B17359  27.518   7.632   8.868
 1136POPC   C2B17360  27.605   7.853   8.494
 1136POPC   C3B17361  27.509   7.784   8.089
 1136POPC   C4B17362  27.770   7.766   7.768
 1137POPC   NC317363  33.287   1.981   9.506
 1137POPC   PO417364  32.600   2.137   9.464
 1137POPC   GL117365  32.853   1.916   9.120
 1137POPC   GL217366  33.201   1.852   9.025
 1137POPC   C1A17367  32.884   2.093   8.683
 1137POPC   D2A17368  33.169   2.292   8.385
 1137POPC   C3A17369  33.250   2.141   7.965
 1137POPC   C4A17370  33.104   2.310   7.546
 1137POPC   C1B17371  33.302   1.823   8.585
 1137POPC   C2B17372  32.957   1.821   8.257
 1137POPC   C3B17373  32.846   1.885   7.834
 1137POPC   C4B17374  33.166   1.805   7.565
 1138POPC   NC317375  44.242   9.998   9.514
 1138POPC   PO417376  44.963   9.885   9.418
 1138POPC   GL117377  44.789   9.988   9.074
 1138POPC   GL217378  44.463   9.868   9.086
 1138POPC   C1A17379  44.770   9.846   8.660
 1138POPC   D2A17380  44.568   9.910   8.298
 1138POPC   C3A17381  44.813   9.651   8.057
 1138POPC   C4A17382  44.955   9.617   7.662
 1138POPC   C1B17383  44.273   9.733   8.690
 1138POPC   C2B17384  44.112   9.517   8.348
 1138POPC   C3B17385  44.281   9.642   7.964
 1138POPC   C4B17386  44.573   9.963   7.723
 1139POPC   NC317387   3.210  25.888   9.455
 1139POPC   PO417388   2.737  26.351   9.362
 1139POPC   GL117389   2.918  26.107   9.069
 1139POPC   GL217390   3.182  26.315   9.047
 1139POPC   C1A17391   2.740  26.073   8.671
 1139POPC   D2A17392   2.498  26.348   8.395
 1139POPC   C3A17393   2.458  26.115   8.025
 1139POPC   C4A17394   2.834  25.889   7.859
 1139POPC   C1B17395   2.868  26.565   8.776
 1139POPC   C2B17396   3.022  26.431   8.431
 1139POPC   C3B17397   3.074  26.411   8.046
 1139POPC   C4B17398   2.771  26.410   7.778
 1140POPC   NC317399   7.518  37.857   9.588
 1140POPC   PO417400   6.933  37.577   9.660
 1140POPC   GL117401   7.120  37.707   9.243
 1140POPC   GL217402   7.452  37.574   9.162
 1140POPC   C1A17403   7.173  37.684   8.763
 1140POPC   D2A17404   7.375  37.512   8.380
 1140POPC   C3A17405   7.217  37.721   8.007
 1140POPC   C4A17406   7.334  37.838   7.589
 1140POPC   C1B17407   7.702  37.534   8.798
 1140POPC   C2B17408   7.859  37.745   8.425
 1140POPC   C3B17409   7.729  37.693   8.025
 1140POPC   C4B17410   7.635  37.340   7.782
 1141POPC   NC317411   9.942   1.424   9.342
 1141POPC   PO417412   9.517   0.993   9.560
 1141POPC   GL117413   9.833   0.931   9.229
 1141POPC   GL217414   9.604   1.146   9.071
 1141POPC   C1A17415  10.061   1.062   8.823
 1141POPC   D2A17416   9.854   1.310   8.503
 1141POPC   C3A17417   9.947   1.214   8.080
 1141POPC   C4A17418   9.965   1.551   7.800
 1141POPC   C1B17419   9.432   1.429   8.814
 1141POPC   C2B17420   9.345   1.500   8.382
 1141POPC   C3B17421   9.474   1.465   7.955
 1141POPC   C4B17422   9.203   1.537   7.552
 1142POPC   NC317423  35.615  22.277   9.523
 1142POPC   PO417424  35.054  22.007   9.632
 1142POPC   GL117425  35.144  22.205   9.224
 1142POPC   GL217426  35.437  22.396   9.076
 1142POPC   C1A17427  35.143  22.087   8.794
 1142POPC   D2A17428  35.264  21.866   8.437
 1142POPC   C3A17429  35.097  22.029   8.064
 1142POPC   C4A17430  35.240  21.952   7.641
 1142POPC   C1B17431  35.340  22.572   8.702
 1142POPC   C2B17432  35.397  22.418   8.294
 1142POPC   C3B17433  35.552  22.255   7.904
 1142POPC   C4B17434  35.450  22.364   7.456
 1143POPC   NC317435   5.521  43.050   9.509
 1143POPC   PO417436   4.982  42.826   9.300
 1143POPC   GL117437   5.161  43.223   9.168
 1143POPC   GL217438   5.519  43.202   9.034
 1143POPC   C1A17439   5.206  43.480   8.775
 1143POPC   D2A17440   5.323  43.339   8.366
 1143POPC   C3A17441   5.049  43.437   8.034
 1143POPC   C4A17442   5.184  43.261   7.691
 1143POPC   C1B17443   5.259  42.970   8.738
 1143POPC   C2B17444   5.011  42.805   8.439
 1143POPC   C3B17445   5.093  42.902   8.042
 1143POPC   C4B17446   4.882  42.808   7.702
 1144POPC   NC317447  34.791  43.446   9.438
 1144POPC   PO417448  34.423  42.836   9.564
 1144POPC   GL117449  34.513  42.788   9.127
 1144POPC   GL217450  34.867  42.839   9.024
 1144POPC   C1A17451  34.340  42.918   8.737
 1144POPC   D2A17452  34.352  43.292   8.482
 1144POPC   C3A17453  34.516  43.147   8.103
 1144POPC   C4A17454  34.467  42.784   7.855
 1144POPC   C1B17455  34.757  43.237   8.813
 1144POPC   C2B17456  34.843  43.417   8.397
 1144POPC   C3B17457  34.939  43.381   7.952
 1144POPC   C4B17458  34.745  43.163   7.629
 1145POPC   NC317459  44.663  33.638   9.369
 1145POPC   PO417460  44.765  34.262   9.586
 1145POPC   GL117461  44.601  34.168   9.173
 1145POPC   GL217462  44.913  34.125   9.042
 1145POPC   C1A17463  44.528  33.904   8.791
 1145POPC   D2A17464  44.478  33.544   8.501
 1145POPC   C3A17465  44.572  33.703   8.090
 1145POPC   C4A17466  44.347  33.914   7.741
 1145POPC   C1B17467   0.008  34.032   8.622
 1145POPC   C2B17468  44.915  34.285   8.249
 1145POPC   C3B17469  44.806  34.122   7.885
 1145POPC   C4B17470  44.856  33.742   7.670
 1146POPC   NC317471  19.692  21.614   9.475
 1146POPC   PO417472  20.126  21.172   9.559
 1146POPC   GL117473  20.020  21.321   9.152
 1146POPC   GL217474  19.642  21.239   9.103
 1146POPC   C1A17475  19.902  21.583   8.795
 1146POPC   D2A17476  19.772  21.474   8.379
 1146POPC   C3A17477  20.066  21.583   8.091
 1146POPC   C4A17478  20.097  21.581   7.652
 1146POPC   C1B17479  19.807  21.070   8.720
 1146POPC   C2B17480  19.985  21.004   8.325
 1146POPC   C3B17481  19.872  21.140   7.950
 1146POPC   C4B17482  19.624  21.386   7.706
 1147POPC   NC317483  21.787  26.718   9.345
 1147POPC   PO417484  21.154  26.856   9.535
 1147POPC   GL117485  21.323  26.986   9.154
 1147POPC   GL217486  21.108  27.250   9.047
 1147POPC   C1A17487  21.507  26.842   8.760
 1147POPC   D2A17488  21.346  26.717   8.376
 1147POPC   C3A17489  21.450  26.912   7.986
 1147POPC   C4A17490  21.655  26.704   7.663
 1147POPC   C1B17491  21.024  27.031   8.667
 1147POPC   C2B17492  21.008  27.083   8.213
 1147POPC   C3B17493  20.919  26.942   7.802
 1147POPC   C4B17494  21.245  26.932   7.481
 1148POPC   NC317495  25.390   9.705   9.420
 1148POPC   PO417496  24.777  10.030   9.436
 1148POPC   GL117497  25.012   9.795   9.072
 1148POPC   GL217498  25.158   9.441   8.950
 1148POPC   C1A17499  25.289   9.825   8.673
 1148POPC   D2A17500  25.319   9.655   8.265
 1148POPC   C3A17501  25.277   9.975   7.974
 1148POPC   C4A17502  25.204   9.897   7.553
 1148POPC   C1B17503  25.622   9.462   8.889
 1148POPC   C2B17504  25.803   9.494   8.525
 1148POPC   C3B17505  25.792   9.502   8.107
 1148POPC   C4B17506  25.529   9.544   7.738
 1149POPC   NC317507   0.068  31.105   9.483
 1149POPC   PO417508   0.426  31.659   9.683
 1149POPC   GL117509   0.526  31.624   9.249
 1149POPC   GL217510   0.729  31.896   9.174
 1149POPC   C1A17511   0.449  31.373   8.873
 1149POPC   D2A17512   0.203  31.400   8.500
 1149POPC   C3A17513   0.273  31.286   8.073
 1149POPC   C4A17514   0.034  31.130   7.728
 1149POPC   C1B17515   0.542  31.886   8.778
 1149POPC   C2B17516   0.325  31.893   8.416
 1149POPC   C3B17517   0.326  31.772   8.021
 1149POPC   C4B17518   0.529  31.778   7.635
 1150POPC   NC317519  31.057  34.742   9.602
 1150POPC   PO417520  31.709  34.467   9.430
 1150POPC   GL117521  31.576  34.759   9.126
 1150POPC   GL217522  31.215  34.687   9.102
 1150POPC   C1A17523  31.583  34.620   8.699
 1150POPC   D2A17524  31.562  34.254   8.431
 1150POPC   C3A17525  31.676  34.502   8.105
 1150POPC   C4A17526  31.701  34.699   7.754
 1150POPC   C1B17527  31.120  34.437   8.713
 1150POPC   C2B17528  31.193  34.566   8.281
 1150POPC   C3B17529  31.268  34.333   7.861
 1150POPC   C4B17530  31.112  34.243   7.429
 1151POPC   NC317531   9.710  20.030   9.518
 1151POPC   PO417532   9.479  19.404   9.346
 1151POPC   GL117533   9.714  19.697   9.135
 1151POPC   GL217534  10.076  19.685   9.097
 1151POPC   C1A17535   9.703  19.985   8.833
 1151POPC   D2A17536   9.523  19.822   8.489
 1151POPC   C3A17537   9.609  19.967   8.087
 1151POPC   C4A17538   9.534  19.735   7.729
 1151POPC   C1B17539  10.006  19.580   8.680
 1151POPC   C2B17540  10.067  19.894   8.405
 1151POPC   C3B17541  10.081  20.151   8.087
 1151POPC   C4B17542   9.977  20.027   7.686
 1152POPC   NC317543  25.270  24.144   9.368
 1152POPC   PO417544  25.656  24.663   9.584
 1152POPC   GL117545  25.470  24.592   9.191
 1152POPC   GL217546  25.176  24.727   9.052
 1152POPC   C1A17547  25.533  24.506   8.760
 1152POPC   D2A17548  25.370  24.310   8.420
 1152POPC   C3A17549  25.376  24.590   8.089
 1152POPC   C4A17550  25.436  24.446   7.676
 1152POPC   C1B17551  24.982  24.481   8.747
 1152POPC   C2B17552  24.854  24.345   8.337
 1152POPC   C3B17553  25.002  24.300   7.927
 1152POPC   C4B17554  24.906  24.655   7.673
 1153POPC   NC317555  34.042  15.662   9.335
 1153POPC   PO417556  34.031  16.341   9.461
 1153POPC   GL117557  33.730  16.145   9.174
 1153POPC   GL217558  33.534  15.836   9.202
 1153POPC   C1A17559  33.516  16.197   8.784
 1153POPC   D2A17560  33.731  16.076   8.405
 1153POPC   C3A17561  33.806  16.215   7.983
 1153POPC   C4A17562  33.798  16.145   7.508
 1153POPC   C1B17563  33.650  15.712   8.796
 1153POPC   C2B17564  33.612  15.566   8.391
 1153POPC   C3B17565  33.800  15.685   8.016
 1153POPC   C4B17566  33.660  15.661   7.603
 1154POPC   NC317567  28.481  16.444   9.446
 1154POPC   PO417568  28.100  17.035   9.559
 1154POPC   GL117569  28.233  16.865   9.200
 1154POPC   GL217570  28.586  16.996   9.249
 1154POPC   C1A17571  28.097  16.585   8.845
 1154POPC   D2A17572  28.201  16.285   8.492
 1154POPC   C3A17573  28.224  16.457   8.079
 1154POPC   C4A17574  27.906  16.593   7.780
 1154POPC   C1B17575  28.598  16.861   8.844
 1154POPC   C2B17576  28.456  16.753   8.470
 1154POPC   C3B17577  28.586  16.852   8.109
 1154POPC   C4B17578  28.358  16.858   7.774
 1155POPC   NC317579   5.091  37.593   9.671
 1155POPC   PO417580   5.391  38.246   9.795
 1155POPC   GL117581   5.209  38.052   9.347
 1155POPC   GL217582   5.114  37.692   9.179
 1155POPC   C1A17583   5.319  38.033   8.877
 1155POPC   D2A17584   5.146  37.773   8.568
 1155POPC   C3A17585   5.225  37.807   8.149
 1155POPC   C4A17586   5.134  37.871   7.736
 1155POPC   C1B17587   5.026  37.368   8.848
 1155POPC   C2B17588   4.912  37.268   8.403
 1155POPC   C3B17589   4.955  37.389   7.962
 1155POPC   C4B17590   5.286  37.316   7.675
 1156POPC   NC317591  43.100   4.598   9.481
 1156POPC   PO417592  42.708   4.062   9.487
 1156POPC   GL117593  43.059   4.158   9.176
 1156POPC   GL217594  43.037   4.473   9.014
 1156POPC   C1A17595  43.261   4.124   8.745
 1156POPC   D2A17596  43.297   4.311   8.312
 1156POPC   C3A17597  43.122   4.142   7.930
 1156POPC   C4A17598  42.870   4.309   7.593
 1156POPC   C1B17599  43.212   4.674   8.698
 1156POPC   C2B17600  43.003   4.767   8.332
 1156POPC   C3B17601  43.038   4.685   7.927
 1156POPC   C4B17602  43.388   4.529   7.692
 1157POPC   NC317603  37.467  37.238   9.802
 1157POPC   PO417604  37.203  37.708   9.442
 1157POPC   GL117605  36.870  37.765   9.130
 1157POPC   GL217606  36.747  37.458   9.033
 1157POPC   C1A17607  36.941  37.972   8.730
 1157POPC   D2A17608  37.127  37.792   8.364
 1157POPC   C3A17609  37.094  37.959   7.956
 1157POPC   C4A17610  36.733  37.817   7.704
 1157POPC   C1B17611  37.092  37.470   8.759
 1157POPC   C2B17612  37.128  37.275   8.378
 1157POPC   C3B17613  36.962  37.452   8.000
 1157POPC   C4B17614  37.182  37.581   7.599
 1158POPC   NC317615  11.174  16.509   9.481
 1158POPC   PO417616  11.603  16.988   9.756
 1158POPC   GL117617  11.508  16.797   9.252
 1158POPC   GL217618  11.219  16.661   9.017
 1158POPC   C1A17619  11.649  16.665   8.801
 1158POPC   D2A17620  11.238  16.719   8.528
 1158POPC   C3A17621  11.247  16.673   8.110
 1158POPC   C4A17622  11.447  16.811   7.753
 1158POPC   C1B17623  10.862  16.465   8.802
 1158POPC   C2B17624  10.944  16.314   8.389
 1158POPC   C3B17625  10.813  16.418   7.983
 1158POPC   C4B17626  11.160  16.359   7.711
 1159POPC   NC317627  37.395  18.132   9.390
 1159POPC   PO417628  38.073  18.360   9.511
 1159POPC   GL117629  37.881  18.224   9.161
 1159POPC   GL217630  37.661  18.543   9.170
 1159POPC   C1A17631  37.974  18.038   8.735
 1159POPC   D2A17632  38.050  18.255   8.333
 1159POPC   C3A17633  37.789  18.244   7.921
 1159POPC   C4A17634  37.802  18.112   7.440
 1159POPC   C1B17635  37.751  18.492   8.728
 1159POPC   C2B17636  37.577  18.505   8.330
 1159POPC   C3B17637  37.551  18.695   7.953
 1159POPC   C4B17638  37.387  18.520   7.629
 1160POPC   NC317639  30.109  44.251   9.866
 1160POPC   PO417640  30.149  43.688   9.498
 1160POPC   GL117641  30.059  43.914   9.125
 1160POPC   GL217642  30.180  44.267   9.050
 1160POPC   C1A17643  29.942  43.719   8.735
 1160POPC   D2A17644  29.603  43.745   8.447
 1160POPC   C3A17645  29.814  43.713   8.047
 1160POPC   C4A17646  29.773  43.889   7.628
 1160POPC   C1B17647  29.850  44.227   8.723
 1160POPC   C2B17648  29.818  44.177   8.292
 1160POPC   C3B17649  30.111  44.146   7.997
 1160POPC   C4B17650  30.344  44.287   7.690
 1161POPC   NC317651  26.733  44.139   9.624
 1161POPC   PO417652  26.769  43.476   9.699
 1161POPC   GL117653  26.744  43.822   9.233
 1161POPC   GL217654  26.452  43.985   9.148
 1161POPC   C1A17655  27.057  43.864   8.828
 1161POPC   D2A17656  27.196  44.041   8.430
 1161POPC   C3A17657  27.134  43.805   8.061
 1161POPC   C4A17658  27.039  44.000   7.630
 1161POPC   C1B17659  26.656  44.149   8.790
 1161POPC   C2B17660  26.714  43.951   8.386
 1161POPC   C3B17661  26.666  43.891   7.937
 1161POPC   C4B17662  26.704  43.649   7.479
 1162POPC   NC317663  24.133  40.137   9.531
 1162POPC   PO417664  24.602  39.647   9.669
 1162POPC   GL117665  24.531  39.916   9.268
 1162POPC   GL217666  24.834  39.849   9.082
 1162POPC   C1A17667  24.568  40.235   8.915
 1162POPC   D2A17668  24.509  40.321   8.447
 1162POPC   C3A17669  24.496  40.123   8.013
 1162POPC   C4A17670  24.236  39.982   7.653
 1162POPC   C1B17671  24.672  39.833   8.625
 1162POPC   C2B17672  24.753  39.714   8.190
 1162POPC   C3B17673  24.655  39.669   7.739
 1162POPC   C4B17674  24.528  39.736   7.286
 1163POPC   NC317675   1.836  34.302   9.398
 1163POPC   PO417676   2.432  34.510   9.542
 1163POPC   GL117677   2.252  34.562   9.181
 1163POPC   GL217678   1.954  34.801   9.142
 1163POPC   C1A17679   2.292  34.442   8.794
 1163POPC   D2A17680   2.180  34.763   8.549
 1163POPC   C3A17681   2.110  34.657   8.155
 1163POPC   C4A17682   2.346  34.501   7.833
 1163POPC   C1B17683   1.777  34.560   8.785
 1163POPC   C2B17684   1.645  34.648   8.372
 1163POPC   C3B17685   1.663  34.534   7.928
 1163POPC   C4B17686   1.877  34.829   7.721
 1164POPC   NC317687   2.087  14.585   9.542
 1164POPC   PO417688   2.613  14.959   9.607
 1164POPC   GL117689   2.411  14.702   9.168
 1164POPC   GL217690   2.310  14.298   9.173
 1164POPC   C1A17691   2.127  14.543   8.765
 1164POPC   D2A17692   1.839  14.737   8.431
 1164POPC   C3A17693   1.915  14.538   8.042
 1164POPC   C4A17694   2.074  14.068   8.046
 1164POPC   C1B17695   2.020  14.044   8.860
 1164POPC   C2B17696   1.768  14.174   8.478
 1164POPC   C3B17697   1.547  14.193   8.067
 1164POPC   C4B17698   1.750  14.215   7.674
 1165POPC   NC317699  35.875   9.986   9.472
 1165POPC   PO417700  36.452  10.149   9.366
 1165POPC   GL117701  36.159   9.906   9.035
 1165POPC   GL217702  35.954   9.600   9.058
 1165POPC   C1A17703  36.026   9.891   8.581
 1165POPC   D2A17704  36.193  10.072   8.194
 1165POPC   C3A17705  36.030  10.054   7.773
 1165POPC   C4A17706  36.053  10.084   7.308
 1165POPC   C1B17707  35.975   9.398   8.650
 1165POPC   C2B17708  36.033   9.557   8.190
 1165POPC   C3B17709  36.329   9.635   7.846
 1165POPC   C4B17710  36.426   9.757   7.417
 1166POPC   NC317711  31.843   1.721   9.591
 1166POPC   PO417712  32.343   1.203   9.472
 1166POPC   GL117713  32.064   1.248   9.149
 1166POPC   GL217714  32.243   1.469   8.974
 1166POPC   C1A17715  32.025   1.091   8.718
 1166POPC   D2A17716  32.124   1.400   8.373
 1166POPC   C3A17717  32.053   1.202   7.970
 1166POPC   C4A17718  31.942   0.970   7.613
 1166POPC   C1B17719  32.503   1.251   8.684
 1166POPC   C2B17720  32.660   1.313   8.293
 1166POPC   C3B17721  32.475   1.489   7.947
 1166POPC   C4B17722  32.355   1.250   7.545
 1167POPC   NC317723  32.105  18.240   9.311
 1167POPC   PO417724  31.405  18.305   9.464
 1167POPC   GL117725  31.459  18.255   9.068
 1167POPC   GL217726  31.260  18.499   8.976
 1167POPC   C1A17727  31.278  18.094   8.688
 1167POPC   D2A17728  31.511  18.103   8.336
 1167POPC   C3A17729  31.357  18.099   7.932
 1167POPC   C4A17730  31.697  18.310   7.758
 1167POPC   C1B17731  31.555  18.539   8.641
 1167POPC   C2B17732  31.521  18.666   8.233
 1167POPC   C3B17733  31.328  18.644   7.867
 1167POPC   C4B17734  31.287  18.457   7.441
 1168POPC   NC317735   3.775  40.600   9.607
 1168POPC   PO417736   3.627  41.268   9.636
 1168POPC   GL117737   3.536  40.847   9.246
 1168POPC   GL217738   3.751  40.604   9.099
 1168POPC   C1A17739   3.475  40.768   8.725
 1168POPC   D2A17740   3.208  40.766   8.333
 1168POPC   C3A17741   3.395  40.970   7.978
 1168POPC   C4A17742   3.674  41.320   7.939
 1168POPC   C1B17743   3.982  40.829   8.740
 1168POPC   C2B17744   3.910  41.071   8.339
 1168POPC   C3B17745   3.956  40.858   7.899
 1168POPC   C4B17746   3.865  40.583   7.503
 1169POPC   NC317747  24.021  33.278   9.576
 1169POPC   PO417748  24.633  33.312   9.670
 1169POPC   GL117749  24.451  33.323   9.220
 1169POPC   GL217750  24.115  33.407   9.112
 1169POPC   C1A17751  24.598  33.191   8.802
 1169POPC   D2A17752  24.513  32.947   8.428
 1169POPC   C3A17753  24.508  33.117   8.006
 1169POPC   C4A17754  24.381  32.864   7.661
 1169POPC   C1B17755  24.249  33.548   8.743
 1169POPC   C2B17756  24.285  33.405   8.374
 1169POPC   C3B17757  24.020  33.334   8.021
 1169POPC   C4B17758  24.194  33.359   7.646
 1170POPC   NC317759  22.137  30.216   9.550
 1170POPC   PO417760  21.729  30.844   9.510
 1170POPC   GL117761  22.176  30.714   9.367
 1170POPC   GL217762  22.469  30.920   9.406
 1170POPC   C1A17763  22.295  30.532   8.966
 1170POPC   D2A17764  21.962  30.467   8.653
 1170POPC   C3A17765  22.018  30.507   8.180
 1170POPC   C4A17766  21.874  30.375   7.765
 1170POPC   C1B17767  22.524  31.001   8.958
 1170POPC   C2B17768  22.490  30.805   8.552
 1170POPC   C3B17769  22.401  30.931   8.132
 1170POPC   C4B17770  22.140  30.860   7.776
 1171POPC   NC317771   7.688  25.698   9.473
 1171POPC   PO417772   7.411  26.365   9.476
 1171POPC   GL117773   7.320  26.197   9.080
 1171POPC   GL217774   7.320  25.888   9.130
 1171POPC   C1A17775   7.566  26.112   8.709
 1171POPC   D2A17776   7.942  25.943   8.505
 1171POPC   C3A17777   7.856  26.068   8.095
 1171POPC   C4A17778   7.779  25.997   7.669
 1171POPC   C1B17779   7.097  25.831   8.750
 1171POPC   C2B17780   7.148  26.033   8.377
 1171POPC   C3B17781   7.353  26.008   8.004
 1171POPC   C4B17782   7.333  26.274   7.673
 1172POPC   NC317783  31.045  12.833   9.513
 1172POPC   PO417784  30.389  12.581   9.494
 1172POPC   GL117785  30.449  12.908   9.122
 1172POPC   GL217786  30.783  13.025   9.112
 1172POPC   C1A17787  30.501  13.075   8.695
 1172POPC   D2A17788  30.686  12.753   8.460
 1172POPC   C3A17789  30.560  12.630   8.067
 1172POPC   C4A17790  30.653  12.674   7.660
 1172POPC   C1B17791  31.055  12.821   8.841
 1172POPC   C2B17792  31.185  12.976   8.456
 1172POPC   C3B17793  30.927  13.042   8.090
 1172POPC   C4B17794  30.992  13.071   7.650
 1173POPC   NC317795  24.137  11.247   9.414
 1173POPC   PO417796  24.817  11.190   9.680
 1173POPC   GL117797  24.729  11.227   9.203
 1173POPC   GL217798  24.577  11.545   9.163
 1173POPC   C1A17799  24.845  11.460   8.766
 1173POPC   D2A17800  24.546  11.611   8.410
 1173POPC   C3A17801  24.520  11.420   7.974
 1173POPC   C4A17802  24.674  11.473   7.531
 1173POPC   C1B17803  24.400  11.240   8.811
 1173POPC   C2B17804  24.132  11.281   8.469
 1173POPC   C3B17805  24.005  11.375   8.053
 1173POPC   C4B17806  24.076  11.145   7.676
 1174POPC   NC317807   4.728   0.910   9.399
 1174POPC   PO417808   5.130   1.245   9.838
 1174POPC   GL117809   5.205   1.255   9.342
 1174POPC   GL217810   5.245   0.928   9.162
 1174POPC   C1A17811   5.307   1.363   8.870
 1174POPC   D2A17812   5.455   1.170   8.471
 1174POPC   C3A17813   5.226   1.249   8.080
 1174POPC   C4A17814   5.064   1.591   7.857
 1174POPC   C1B17815   5.072   0.928   8.725
 1174POPC   C2B17816   4.931   1.301   8.489
 1174POPC   C3B17817   4.707   1.364   8.108
 1174POPC   C4B17818   4.692   1.058   7.817
 1175POPC   NC317819  17.343  21.773   9.528
 1175POPC   PO417820  17.458  22.422   9.437
 1175POPC   GL117821  17.208  22.132   9.134
 1175POPC   GL217822  17.242  21.756   9.036
 1175POPC   C1A17823  17.216  22.195   8.669
 1175POPC   D2A17824  17.349  22.523   8.333
 1175POPC   C3A17825  17.423  22.438   7.882
 1175POPC   C4A17826  17.720  22.245   7.546
 1175POPC   C1B17827  17.633  21.872   8.837
 1175POPC   C2B17828  17.715  22.120   8.454
 1175POPC   C3B17829  17.696  22.021   8.020
 1175POPC   C4B17830  17.767  21.754   7.674
 1176POPC   NC317831  23.640  25.003   9.570
 1176POPC   PO417832  23.938  25.552   9.508
 1176POPC   GL117833  23.803  25.293   9.168
 1176POPC   GL217834  23.450  25.272   9.160
 1176POPC   C1A17835  23.700  25.081   8.749
 1176POPC   D2A17836  23.375  24.922   8.419
 1176POPC   C3A17837  23.528  25.034   8.011
 1176POPC   C4A17838  23.915  25.063   7.807
 1176POPC   C1B17839  23.542  25.546   8.783
 1176POPC   C2B17840  23.424  25.428   8.358
 1176POPC   C3B17841  23.648  25.522   7.969
 1176POPC   C4B17842  23.780  25.641   7.580
 1177POPC   NC317843  21.491  41.357   9.689
 1177POPC   PO417844  21.310  41.878   9.692
 1177POPC   GL117845  21.366  41.644   9.251
 1177POPC   GL217846  21.616  41.351   9.171
 1177POPC   C1A17847  21.304  41.491   8.806
 1177POPC   D2A17848  21.381  41.727   8.422
 1177POPC   C3A17849  21.217  41.539   8.057
 1177POPC   C4A17850  21.344  41.726   7.682
 1177POPC   C1B17851  21.828  41.177   8.785
 1177POPC   C2B17852  21.761  41.016   8.350
 1177POPC   C3B17853  21.833  41.088   7.923
 1177POPC   C4B17854  21.490  41.237   7.683
 1178POPC   NC317855  34.258  21.679   9.519
 1178POPC   PO417856  34.857  21.356   9.450
 1178POPC   GL117857  34.564  21.350   9.129
 1178POPC   GL217858  34.522  21.698   9.077
 1178POPC   C1A17859  34.508  21.193   8.715
 1178POPC   D2A17860  34.473  20.951   8.325
 1178POPC   C3A17861  34.602  21.161   7.958
 1178POPC   C4A17862  34.991  21.178   7.825
 1178POPC   C1B17863  34.348  21.678   8.660
 1178POPC   C2B17864  34.430  21.586   8.227
 1178POPC   C3B17865  34.292  21.535   7.804
 1178POPC   C4B17866  34.337  21.803   7.465
 1179POPC   NC317867  29.444  37.128   9.286
 1179POPC   PO417868  29.855  36.676   9.583
 1179POPC   GL117869  29.904  36.732   9.163
 1179POPC   GL217870  29.937  37.075   9.122
 1179POPC   C1A17871  29.693  36.800   8.763
 1179POPC   D2A17872  29.873  36.731   8.388
 1179POPC   C3A17873  29.650  36.854   8.030
 1179POPC   C4A17874  29.797  36.675   7.651
 1179POPC   C1B17875  30.170  36.974   8.754
 1179POPC   C2B17876  30.252  37.175   8.402
 1179POPC   C3B17877  30.159  37.000   8.050
 1179POPC   C4B17878  30.137  37.056   7.647
 1180POPC   NC317879   7.937   3.398   9.529
 1180POPC   PO417880   8.560   3.651   9.686
 1180POPC   GL117881   8.419   3.599   9.258
 1180POPC   GL217882   8.274   3.878   9.121
 1180POPC   C1A17883   8.373   3.389   8.854
 1180POPC   D2A17884   8.123   3.457   8.473
 1180POPC   C3A17885   8.388   3.398   8.119
 1180POPC   C4A17886   8.357   3.190   7.740
 1180POPC   C1B17887   7.946   3.660   8.928
 1180POPC   C2B17888   7.684   3.747   8.589
 1180POPC   C3B17889   7.726   3.678   8.168
 1180POPC   C4B17890   8.067   3.720   7.873
 1181POPC   NC317891  19.015  32.585   9.459
 1181POPC   PO417892  19.084  31.959   9.397
 1181POPC   GL117893  18.885  32.193   9.131
 1181POPC   GL217894  19.219  32.335   9.013
 1181POPC   C1A17895  18.772  32.309   8.738
 1181POPC   D2A17896  18.905  32.337   8.346
 1181POPC   C3A17897  18.590  32.401   8.038
 1181POPC   C4A17898  18.789  32.568   7.736
 1181POPC   C1B17899  19.147  31.974   8.714
 1181POPC   C2B17900  19.176  31.878   8.267
 1181POPC   C3B17901  18.918  32.041   7.932
 1181POPC   C4B17902  19.081  32.183   7.518
 1182POPC   NC317903   8.496  41.276   9.249
 1182POPC   PO417904   8.312  41.862   9.487
 1182POPC   GL117905   8.088  41.620   9.172
 1182POPC   GL217906   7.899  41.854   8.995
 1182POPC   C1A17907   7.951  41.386   8.757
 1182POPC   D2A17908   8.140  41.147   8.376
 1182POPC   C3A17909   8.257  41.328   7.955
 1182POPC   C4A17910   8.001  41.313   7.594
 1182POPC   C1B17911   8.281  41.770   8.730
 1182POPC   C2B17912   8.305  41.653   8.353
 1182POPC   C3B17913   8.322  41.857   7.997
 1182POPC   C4B17914   8.215  42.029   7.628
 1183POPC   NC317915  23.932   3.231   9.319
 1183POPC   PO417916  23.433   2.899   9.614
 1183POPC   GL117917  23.465   2.733   9.209
 1183POPC   GL217918  23.445   3.062   9.062
 1183POPC   C1A17919  23.525   2.648   8.748
 1183POPC   D2A17920  23.826   2.705   8.376
 1183POPC   C3A17921  23.725   2.573   7.948
 1183POPC   C4A17922  23.368   2.401   7.706
 1183POPC   C1B17923  23.759   3.108   8.704
 1183POPC   C2B17924  23.957   3.186   8.301
 1183POPC   C3B17925  23.661   3.107   7.985
 1183POPC   C4B17926  23.663   3.140   7.536
 1184POPC   NC317927  19.299  37.147   9.504
 1184POPC   PO417928  18.873  37.560   9.618
 1184POPC   GL117929  19.055  37.518   9.231
 1184POPC   GL217930  19.157  37.870   9.209
 1184POPC   C1A17931  19.116  37.419   8.809
 1184POPC   D2A17932  19.006  37.658   8.440
 1184POPC   C3A17933  18.911  37.396   8.120
 1184POPC   C4A17934  19.074  37.386   7.730
 1184POPC   C1B17935  19.296  37.939   8.791
 1184POPC   C2B17936  19.532  37.928   8.397
 1184POPC   C3B17937  19.464  38.057   7.978
 1184POPC   C4B17938  19.056  37.861   7.958
 1185POPC   NC317939   1.332  42.740   9.577
 1185POPC   PO417940   1.054  42.131   9.480
 1185POPC   GL117941   1.251  42.171   9.124
 1185POPC   GL217942   1.227  42.507   9.131
 1185POPC   C1A17943   1.109  42.071   8.722
 1185POPC   D2A17944   1.272  42.217   8.353
 1185POPC   C3A17945   1.220  41.962   8.005
 1185POPC   C4A17946   1.105  41.942   7.584
 1185POPC   C1B17947   1.465  42.495   8.772
 1185POPC   C2B17948   1.541  42.680   8.382
 1185POPC   C3B17949   1.179  42.656   8.107
 1185POPC   C4B17950   1.257  42.447   7.747
 1186POPC   NC317951  10.244  20.517   9.498
 1186POPC   PO417952  10.774  20.857   9.578
 1186POPC   GL117953  10.739  20.633   9.186
 1186POPC   GL217954  10.418  20.699   9.063
 1186POPC   C1A17955  10.808  20.518   8.740
 1186POPC   D2A17956  10.668  20.662   8.328
 1186POPC   C3A17957  10.750  20.475   7.936
 1186POPC   C4A17958  10.728  20.546   7.490
 1186POPC   C1B17959  10.536  20.973   8.733
 1186POPC   C2B17960  10.420  21.131   8.313
 1186POPC   C3B17961  10.452  20.950   7.887
 1186POPC   C4B17962  10.311  20.877   7.428
 1187POPC   NC317963  44.227  10.896   9.492
 1187POPC   PO417964  44.666  11.390   9.752
 1187POPC   GL117965  44.699  11.503   9.270
 1187POPC   GL217966  44.568  11.227   9.204
 1187POPC   C1A17967  44.852  11.566   8.787
 1187POPC   D2A17968  44.627  11.322   8.421
 1187POPC   C3A17969  44.699  11.347   7.943
 1187POPC   C4A17970  44.912  11.640   7.648
 1187POPC   C1B17971  44.455  11.018   8.859
 1187POPC   C2B17972  44.389  10.877   8.462
 1187POPC   C3B17973  44.608  10.853   8.113
 1187POPC   C4B17974  44.540  10.885   7.709
 1188POPC   NC317975   8.986   3.761   9.818
 1188POPC   PO417976   9.296   3.322   9.530
 1188POPC   GL117977   9.190   3.570   9.214
 1188POPC   GL217978   8.916   3.779   9.305
 1188POPC   C1A17979   9.113   3.462   8.778
 1188POPC   D2A17980   9.142   3.684   8.395
 1188POPC   C3A17981   9.219   3.477   8.016
 1188POPC   C4A17982   8.846   3.347   7.856
 1188POPC   C1B17983   8.740   3.824   8.894
 1188POPC   C2B17984   8.652   3.639   8.499
 1188POPC   C3B17985   8.739   3.787   8.076
 1188POPC   C4B17986   8.531   3.715   7.689
 1189POPC   NC317987  37.708  17.349   9.690
 1189POPC   PO417988  37.510  16.849   9.370
 1189POPC   GL117989  37.645  16.702   9.039
 1189POPC   GL217990  37.928  16.543   9.121
 1189POPC   C1A17991  37.667  16.669   8.648
 1189POPC   D2A17992  37.828  16.658   8.306
 1189POPC   C3A17993  37.592  16.793   7.992
 1189POPC   C4A17994  37.983  16.970   7.841
 1189POPC   C1B17995  37.665  16.215   8.848
 1189POPC   C2B17996  37.792  16.162   8.458
 1189POPC   C3B17997  37.717  16.220   8.048
 1189POPC   C4B17998  37.904  16.446   7.741
 1190POPC   NC317999  29.722   8.613   9.488
 1190POPC   PO418000  29.743   9.211   9.845
 1190POPC   GL118001  29.633   9.075   9.295
 1190POPC   GL218002  29.484   8.847   9.081
 1190POPC   C1A18003  29.846   9.070   8.817
 1190POPC   D2A18004  29.977   8.831   8.398
 1190POPC   C3A18005  29.963   9.021   7.945
 1190POPC   C4A18006  30.009   9.041   7.456
 1190POPC   C1B18007  29.492   8.778   8.602
 1190POPC   C2B18008  29.502   8.890   8.140
 1190POPC   C3B18009  29.584   8.809   7.670
 1190POPC   C4B18010  29.626   8.746   7.211
 1191POPC   NC318011  31.390  10.811   9.410
 1191POPC   PO418012  31.679  10.280   9.560
 1191POPC   GL118013  31.508  10.363   9.135
 1191POPC   GL218014  31.650  10.686   8.991
 1191POPC   C1A18015  31.393  10.320   8.685
 1191POPC   D2A18016  31.229  10.450   8.274
 1191POPC   C3A18017  31.368  10.398   7.830
 1191POPC   C4A18018  31.334  10.620   7.423
 1191POPC   C1B18019  32.051  10.776   8.813
 1191POPC   C2B18020  32.072  10.896   8.371
 1191POPC   C3B18021  31.892  10.700   8.024
 1191POPC   C4B18022  31.800  10.571   7.616
 1192POPC   NC318023  42.723  16.600   9.252
 1192POPC   PO418024  43.191  16.893   9.562
 1192POPC   GL118025  43.215  16.756   9.138
 1192POPC   GL218026  43.084  16.469   8.970
 1192POPC   C1A18027  43.144  16.892   8.730
 1192POPC   D2A18028  43.391  16.758   8.395
 1192POPC   C3A18029  43.245  16.951   8.043
 1192POPC   C4A18030  42.925  16.834   7.800
 1192POPC   C1B18031  42.838  16.469   8.624
 1192POPC   C2B18032  42.585  16.291   8.362
 1192POPC   C3B18033  42.582  16.497   8.030
 1192POPC   C4B18034  42.762  16.375   7.656
 1193POPC   NC318035  40.094  44.863   9.332
 1193POPC   PO418036  39.979  44.274   9.576
 1193POPC   GL118037  39.847  44.426   9.171
 1193POPC   GL218038  40.202  44.405   9.104
 1193POPC   C1A18039  39.772  44.261   8.727
 1193POPC   D2A18040  39.657  44.215   8.284
 1193POPC   C3A18041  39.891  44.438   7.978
 1193POPC   C4A18042  39.906  44.862   7.884
 1193POPC   C1B18043  40.175  44.630   8.721
 1193POPC   C2B18044  40.279  44.590   8.294
 1193POPC   C3B18045  40.401  44.541   7.873
 1193POPC   C4B18046  40.390  44.939   7.676
 1194POPC   NC318047  37.161   2.368   9.927
 1194POPC   PO418048  36.973   1.792   9.618
 1194POPC   GL118049  37.150   2.054   9.292
 1194POPC   GL218050  36.852   2.201   9.207
 1194POPC   C1A18051  37.195   2.139   8.813
 1194POPC   D2A18052  37.012   1.921   8.404
 1194POPC   C3A18053  36.978   2.059   7.966
 1194POPC   C4A18054  37.218   2.066   7.576
 1194POPC   C1B18055  36.709   1.944   8.838
 1194POPC   C2B18056  36.427   2.082   8.504
 1194POPC   C3B18057  36.464   2.153   8.075
 1194POPC   C4B18058  36.542   2.040   7.705
 1195POPC   NC318059  42.059  10.194   9.605
 1195POPC   PO418060  42.209  10.769   9.304
 1195POPC   GL118061  42.260  10.370   9.150
 1195POPC   GL218062  42.597  10.336   9.229
 1195POPC   C1A18063  42.283  10.356   8.707
 1195POPC   D2A18064  42.313  10.643   8.378
 1195POPC   C3A18065  42.024  10.498   8.098
 1195POPC   C4A18066  41.990  10.676   7.741
 1195POPC   C1B18067  42.717  10.584   8.845
 1195POPC   C2B18068  42.744  10.370   8.469
 1195POPC   C3B18069  42.705  10.493   8.070
 1195POPC   C4B18070  42.419  10.420   7.806
 1196POPC   NC318071  27.263   0.816   9.322
 1196POPC   PO418072  27.004   0.214   9.466
 1196POPC   GL118073  26.795   0.173   9.132
 1196POPC   GL218074  26.837   0.533   9.113
 1196POPC   C1A18075  26.785   0.200   8.705
 1196POPC   D2A18076  26.901  44.976   8.367
 1196POPC   C3A18077  26.780   0.210   8.046
 1196POPC   C4A18078  26.539   0.102   7.716
 1196POPC   C1B18079  26.824   0.743   8.757
 1196POPC   C2B18080  26.694   0.865   8.362
 1196POPC   C3B18081  26.925   0.827   7.997
 1196POPC   C4B18082  26.715   0.613   7.682
 1197POPC   NC318083   3.022   6.638   9.603
 1197POPC   PO418084   2.520   6.130   9.596
 1197POPC   GL118085   2.631   6.545   9.295
 1197POPC   GL218086   2.952   6.759   9.122
 1197POPC   C1A18087   2.477   6.838   8.967
 1197POPC   D2A18088   2.288   6.705   8.588
 1197POPC   C3A18089   2.467   6.888   8.261
 1197POPC   C4A18090   2.461   6.788   7.838
 1197POPC   C1B18091   2.834   6.608   8.694
 1197POPC   C2B18092   2.759   6.495   8.241
 1197POPC   C3B18093   2.969   6.540   7.853
 1197POPC   C4B18094   3.156   6.357   7.456
 1198POPC   NC318095  12.791   3.920   9.489
 1198POPC   PO418096  12.456   3.304   9.527
 1198POPC   GL118097  12.710   3.496   9.200
 1198POPC   GL218098  13.092   3.491   9.216
 1198POPC   C1A18099  12.775   3.365   8.793
 1198POPC   D2A18100  12.952   3.240   8.416
 1198POPC   C3A18101  12.715   3.052   8.091
 1198POPC   C4A18102  12.838   3.156   7.683
 1198POPC   C1B18103  13.073   3.759   8.829
 1198POPC   C2B18104  12.812   3.732   8.443
 1198POPC   C3B18105  12.930   3.583   8.029
 1198POPC   C4B18106  12.732   3.657   7.649
 1199POPC   NC318107   6.211  40.485   9.515
 1199POPC   PO418108   6.895  40.777   9.450
 1199POPC   GL118109   6.696  40.838   9.078
 1199POPC   GL218110   6.350  40.916   9.119
 1199POPC   C1A18111   6.584  41.066   8.701
 1199POPC   D2A18112   6.617  40.757   8.417
 1199POPC   C3A18113   6.729  40.892   8.022
 1199POPC   C4A18114   6.625  40.893   7.576
 1199POPC   C1B18115   6.336  40.553   8.847
 1199POPC   C2B18116   6.202  40.435   8.431
 1199POPC   C3B18117   6.348  40.525   8.036
 1199POPC   C4B18118   6.356  40.446   7.616
 1200POPC   NC318119  37.391   2.536   9.424
 1200POPC   PO418120  37.873   3.072   9.554
 1200POPC   GL118121  37.696   2.929   9.181
 1200POPC   GL218122  37.485   3.204   9.068
 1200POPC   C1A18123  37.968   2.703   8.871
 1200POPC   D2A18124  38.039   2.708   8.423
 1200POPC   C3A18125  37.713   2.847   8.138
 1200POPC   C4A18126  37.838   2.701   7.737
 1200POPC   C1B18127  37.643   3.011   8.663
 1200POPC   C2B18128  37.534   2.575   8.536
 1200POPC   C3B18129  37.302   2.410   8.188
 1200POPC   C4B18130  37.310   2.535   7.760
 1201POPC   NC318131  44.340  26.517   9.446
 1201POPC   PO418132  44.476  25.832   9.435
 1201POPC   GL118133  44.588  26.148   9.151
 1201POPC   GL218134  44.944  26.278   9.201
 1201POPC   C1A18135  44.511  25.918   8.773
 1201POPC   D2A18136  44.698  25.792   8.409
 1201POPC   C3A18137  44.502  25.945   8.047
 1201POPC   C4A18138  44.732  25.853   7.704
 1201POPC   C1B18139  44.895  26.242   8.739
 1201POPC   C2B18140  44.720  26.313   8.318
 1201POPC   C3B18141  44.908  26.312   7.881
 1201POPC   C4B18142  44.908  26.249   7.407
 1202POPC   NC318143  18.506  26.755   9.326
 1202POPC   PO418144  17.941  27.044   9.444
 1202POPC   GL118145  18.092  26.919   9.077
 1202POPC   GL218146  18.113  26.544   9.039
 1202POPC   C1A18147  18.254  26.871   8.669
 1202POPC   D2A18148  18.428  26.990   8.318
 1202POPC   C3A18149  18.212  26.964   7.984
 1202POPC   C4A18150  18.335  26.735   7.684
 1202POPC   C1B18151  18.503  26.447   8.740
 1202POPC   C2B18152  18.729  26.545   8.348
 1202POPC   C3B18153  18.369  26.474   8.111
 1202POPC   C4B18154  18.018  26.360   7.854
 1203POPC   NC318155   0.231  24.693   9.530
 1203POPC   PO418156   0.861  24.453   9.535
 1203POPC   GL118157   0.559  24.512   9.148
 1203POPC   GL218158   0.194  24.366   9.135
 1203POPC   C1A18159   0.350  24.611   8.730
 1203POPC   D2A18160   0.305  24.863   8.359
 1203POPC   C3A18161   0.408  24.606   8.027
 1203POPC   C4A18162   0.490  24.180   8.169
 1203POPC   C1B18163  45.000  24.200   8.751
 1203POPC   C2B18164   0.043  24.399   8.330
 1203POPC   C3B18165   0.048  24.251   7.888
 1203POPC   C4B18166   0.081  24.180   7.461
 1204POPC   NC318167  23.726  10.961   9.658
 1204POPC   PO418168  23.893  11.569   9.682
 1204POPC   GL118169  23.650  11.367   9.279
 1204POPC   GL218170  23.609  11.015   9.170
 1204POPC   C1A18171  23.650  11.367   8.784
 1204POPC   D2A18172  23.404  11.602   8.464
 1204POPC   C3A18173  23.470  11.430   8.060
 1204POPC   C4A18174  23.706  11.540   7.663
 1204POPC   C1B18175  23.515  10.855   8.757
 1204POPC   C2B18176  23.702  11.020   8.356
 1204POPC   C3B18177  23.654  10.986   7.910
 1204POPC   C4B18178  23.240  10.874   7.751
 1205POPC   NC318179  40.209  15.000   9.488
 1205POPC   PO418180  39.937  15.610   9.598
 1205POPC   GL118181  40.139  15.442   9.189
 1205POPC   GL218182  40.217  15.095   9.003
 1205POPC   C1A18183  40.096  15.504   8.754
 1205POPC   D2A18184  40.130  15.218   8.422
 1205POPC   C3A18185  40.062  15.455   8.049
 1205POPC   C4A18186  40.112  15.327   7.646
 1205POPC   C1B18187  39.898  14.849   8.735
 1205POPC   C2B18188  39.727  14.829   8.331
 1205POPC   C3B18189  39.962  14.936   7.999
 1205POPC   C4B18190  39.901  14.826   7.616
 1206POPC   NC318191  26.364  43.264   9.458
 1206POPC   PO418192  25.936  42.707   9.670
 1206POPC   GL118193  25.864  42.707   9.211
 1206POPC   GL218194  25.957  43.074   9.148
 1206POPC   C1A18195  25.767  42.756   8.761
 1206POPC   D2A18196  25.559  42.810   8.362
 1206POPC   C3A18197  25.798  42.904   7.997
 1206POPC   C4A18198  26.128  43.081   7.783
 1206POPC   C1B18199  26.176  43.147   8.741
 1206POPC   C2B18200  26.100  43.204   8.281
 1206POPC   C3B18201  25.916  43.515   7.947
 1206POPC   C4B18202  25.839  43.624   7.506
 1207POPC   NC318203  14.224  17.398   9.618
 1207POPC   PO418204  14.766  17.675   9.404
 1207POPC   GL118205  14.408  17.552   9.173
 1207POPC   GL218206  14.302  17.249   9.113
 1207POPC   C1A18207  14.105  17.736   8.899
 1207POPC   D2A18208  14.031  17.679   8.450
 1207POPC   C3A18209  14.175  17.365   8.145
 1207POPC   C4A18210  14.225  17.221   7.702
 1207POPC   C1B18211  14.414  17.390   8.686
 1207POPC   C2B18212  14.638  17.536   8.317
 1207POPC   C3B18213  14.660  17.267   7.967
 1207POPC   C4B18214  14.719  17.133   7.556
 1208POPC   NC318215  29.700  38.745   9.582
 1208POPC   PO418216  30.077  38.237   9.667
 1208POPC   GL118217  29.937  38.390   9.277
 1208POPC   GL218218  30.253  38.342   9.149
 1208POPC   C1A18219  29.861  38.509   8.833
 1208POPC   D2A18220  29.979  38.788   8.480
 1208POPC   C3A18221  29.697  38.737   8.109
 1208POPC   C4A18222  29.752  38.597   7.672
 1208POPC   C1B18223  30.375  38.514   8.780
 1208POPC   C2B18224  30.201  38.332   8.447
 1208POPC   C3B18225  30.089  38.387   8.015
 1208POPC   C4B18226  29.983  38.160   7.610
 1209POPC   NC318227  31.495  27.125   9.655
 1209POPC   PO418228  31.063  26.705   9.464
 1209POPC   GL118229  31.518  26.713   9.316
 1209POPC   GL218230  31.660  27.049   9.187
 1209POPC   C1A18231  31.645  26.579   8.913
 1209POPC   D2A18232  31.466  26.673   8.512
 1209POPC   C3A18233  31.592  26.615   8.080
 1209POPC   C4A18234  31.179  26.650   7.925
 1209POPC   C1B18235  31.578  27.145   8.791
 1209POPC   C2B18236  31.706  27.097   8.384
 1209POPC   C3B18237  31.407  27.104   8.116
 1209POPC   C4B18238  31.504  27.018   7.740
 1210POPC   NC318239  41.105  12.941   9.505
 1210POPC   PO418240  40.423  12.715   9.514
 1210POPC   GL118241  40.722  12.873   9.177
 1210POPC   GL218242  40.942  12.608   9.106
 1210POPC   C1A18243  40.812  13.192   8.815
 1210POPC   D2A18244  40.908  13.209   8.392
 1210POPC   C3A18245  40.750  13.041   8.031
 1210POPC   C4A18246  40.760  13.070   7.629
 1210POPC   C1B18247  40.922  12.728   8.666
 1210POPC   C2B18248  41.174  12.788   8.315
 1210POPC   C3B18249  41.057  12.650   7.947
 1210POPC   C4B18250  40.721  12.581   7.730
 1211POPC   NC318251  37.465   3.321   9.565
 1211POPC   PO418252  37.691   3.974   9.566
 1211POPC   GL118253  37.638   3.702   9.203
 1211POPC   GL218254  37.883   3.496   9.253
 1211POPC   C1A18255  37.674   3.530   8.742
 1211POPC   D2A18256  37.691   3.388   8.326
 1211POPC   C3A18257  37.470   3.609   8.022
 1211POPC   C4A18258  37.283   3.429   7.708
 1211POPC   C1B18259  38.045   3.237   8.943
 1211POPC   C2B18260  38.147   3.166   8.557
 1211POPC   C3B18261  38.110   3.177   8.135
 1211POPC   C4B18262  37.762   3.251   7.815
 1212POPC   NC318263  31.920  15.506   9.506
 1212POPC   PO418264  32.322  16.164   9.552
 1212POPC   GL118265  32.154  15.900   9.286
 1212POPC   GL218266  31.938  16.114   9.197
 1212POPC   C1A18267  32.166  15.812   8.863
 1212POPC   D2A18268  32.271  15.726   8.456
 1212POPC   C3A18269  32.423  16.029   8.199
 1212POPC   C4A18270  32.264  16.021   7.790
 1212POPC   C1B18271  31.879  16.303   8.881
 1212POPC   C2B18272  32.077  16.256   8.512
 1212POPC   C3B18273  31.889  16.090   8.144
 1212POPC   C4B18274  31.786  16.324   7.777
 1213POPC   NC318275  39.375  14.621   9.163
 1213POPC   PO418276  39.003  14.140   9.467
 1213POPC   GL118277  39.150  14.113   9.057
 1213POPC   GL218278  39.510  14.005   9.084
 1213POPC   C1A18279  39.091  14.301   8.635
 1213POPC   D2A18280  38.994  14.171   8.203
 1213POPC   C3A18281  39.198  14.382   7.858
 1213POPC   C4A18282  39.121  14.522   7.430
 1213POPC   C1B18283  39.473  13.972   8.624
 1213POPC   C2B18284  39.530  14.291   8.305
 1213POPC   C3B18285  39.716  14.464   7.942
 1213POPC   C4B18286  39.623  14.410   7.492
 1214POPC   NC318287  42.897  21.041   9.611
 1214POPC   PO418288  43.284  21.529   9.618
 1214POPC   GL118289  43.329  21.560   9.209
 1214POPC   GL218290  43.009  21.418   9.159
 1214POPC   C1A18291  43.390  21.728   8.801
 1214POPC   D2A18292  43.366  21.581   8.342
 1214POPC   C3A18293  43.155  21.800   8.022
 1214POPC   C4A18294  43.188  21.616   7.603
 1214POPC   C1B18295  43.102  21.329   8.722
 1214POPC   C2B18296  42.889  21.444   8.350
 1214POPC   C3B18297  43.018  21.306   7.968
 1214POPC   C4B18298  42.911  21.149   7.584
 1215POPC   NC318299   0.248  34.056   9.442
 1215POPC   PO418300   0.551  34.643   9.386
 1215POPC   GL118301   0.222  34.512   9.147
 1215POPC   GL218302   0.430  34.257   9.022
 1215POPC   C1A18303   0.141  34.537   8.689
 1215POPC   D2A18304   0.268  34.686   8.273
 1215POPC   C3A18305   0.266  34.470   7.869
 1215POPC   C4A18306   0.210  34.654   7.431
 1215POPC   C1B18307   0.644  34.492   8.716
 1215POPC   C2B18308   0.769  34.548   8.326
 1215POPC   C3B18309   0.786  34.438   7.915
 1215POPC   C4B18310   0.681  34.776   7.643
 1216POPC   NC318311  26.874   5.956   9.587
 1216POPC   PO418312  26.189   5.658   9.663
 1216POPC   GL118313  25.851   5.709   9.315
 1216POPC   GL218314  25.914   6.046   9.204
 1216POPC   C1A18315  25.895   5.690   8.841
 1216POPC   D2A18316  25.811   5.768   8.370
 1216POPC   C3A18317  26.101   5.690   8.013
 1216POPC   C4A18318  26.045   5.437   7.639
 1216POPC   C1B18319  25.781   6.211   8.807
 1216POPC   C2B18320  25.937   6.271   8.386
 1216POPC   C3B18321  25.830   6.135   7.970
 1216POPC   C4B18322  25.695   6.263   7.538
 1217POPC   NC318323   8.725  24.342   9.645
 1217POPC   PO418324   9.280  24.771   9.821
 1217POPC   GL118325   8.999  24.727   9.370
 1217POPC   GL218326   8.642  24.643   9.240
 1217POPC   C1A18327   9.029  24.592   8.909
 1217POPC   D2A18328   8.898  24.608   8.448
 1217POPC   C3A18329   9.192  24.660   8.107
 1217POPC   C4A18330   9.291  24.447   7.738
 1217POPC   C1B18331   8.488  24.633   8.805
 1217POPC   C2B18332   8.406  24.442   8.405
 1217POPC   C3B18333   8.497  24.403   7.962
 1217POPC   C4B18334   8.790  24.631   7.745
 1218POPC   NC318335  32.514  22.884   9.492
 1218POPC   PO418336  32.075  23.208   9.494
 1218POPC   GL118337  32.113  22.889   9.158
 1218POPC   GL218338  32.324  23.119   9.029
 1218POPC   C1A18339  32.306  22.705   8.740
 1218POPC   D2A18340  32.564  22.810   8.368
 1218POPC   C3A18341  32.435  22.888   7.932
 1218POPC   C4A18342  32.192  22.575   7.707
 1218POPC   C1B18343  31.992  23.087   8.698
 1218POPC   C2B18344  32.071  23.047   8.254
 1218POPC   C3B18345  31.933  22.982   7.817
 1218POPC   C4B18346  31.893  23.298   7.480
 1219POPC   NC318347   3.810  43.508   9.808
 1219POPC   PO418348   3.422  42.983   9.467
 1219POPC   GL118349   3.504  43.261   9.196
 1219POPC   GL218350   3.815  43.081   9.096
 1219POPC   C1A18351   3.403  43.383   8.794
 1219POPC   D2A18352   3.580  43.445   8.399
 1219POPC   C3A18353   3.273  43.407   8.085
 1219POPC   C4A18354   3.221  43.187   7.730
 1219POPC   C1B18355   3.558  42.881   8.799
 1219POPC   C2B18356   3.546  42.905   8.369
 1219POPC   C3B18357   3.655  43.090   8.003
 1219POPC   C4B18358   3.597  42.803   7.726
 1220POPC   NC318359  39.873  24.766   9.413
 1220POPC   PO418360  39.683  24.036   9.435
 1220POPC   GL118361  39.821  24.160   9.053
 1220POPC   GL218362  40.017  24.427   9.090
 1220POPC   C1A18363  39.791  24.333   8.633
 1220POPC   D2A18364  39.873  24.473   8.235
 1220POPC   C3A18365  39.779  24.194   7.896
 1220POPC   C4A18366  39.969  24.207   7.478
 1220POPC   C1B18367  40.019  24.760   8.764
 1220POPC   C2B18368  40.203  24.853   8.402
 1220POPC   C3B18369  40.361  24.773   8.011
 1220POPC   C4B18370  40.097  24.638   7.702
 1221POPC   NC318371  27.763   6.486   9.911
 1221POPC   PO418372  27.563   6.686   9.280
 1221POPC   GL118373  27.554   6.554   8.911
 1221POPC   GL218374  27.199   6.447   8.853
 1221POPC   C1A18375  27.875   6.716   8.652
 1221POPC   D2A18376  27.879   6.998   8.353
 1221POPC   C3A18377  27.843   6.735   8.054
 1221POPC   C4A18378  27.556   6.822   7.748
 1221POPC   C1B18379  27.433   6.116   8.684
 1221POPC   C2B18380  27.622   6.363   8.398
 1221POPC   C3B18381  27.354   6.573   8.134
 1221POPC   C4B18382  27.307   6.380   7.738
 1222POPC   NC318383  35.845   4.474   9.465
 1222POPC   PO418384  36.371   4.086   9.688
 1222POPC   GL118385  36.232   4.153   9.269
 1222POPC   GL218386  36.296   4.515   9.203
 1222POPC   C1A18387  36.262   4.159   8.801
 1222POPC   D2A18388  36.108   4.258   8.373
 1222POPC   C3A18389  36.248   4.329   7.956
 1222POPC   C4A18390  36.071   4.127   7.610
 1222POPC   C1B18391  36.013   4.611   8.844
 1222POPC   C2B18392  36.007   4.765   8.442
 1222POPC   C3B18393  35.811   4.628   8.106
 1222POPC   C4B18394  35.762   4.599   7.669
 1223POPC   NC318395  20.149  35.767   9.451
 1223POPC   PO418396  19.537  36.167   9.445
 1223POPC   GL118397  19.654  36.219   9.029
 1223POPC   GL218398  19.937  36.120   9.129
 1223POPC   C1A18399  19.615  36.357   8.621
 1223POPC   D2A18400  19.478  36.580   8.256
 1223POPC   C3A18401  19.645  36.260   7.945
 1223POPC   C4A18402  19.579  36.084   7.522
 1223POPC   C1B18403  20.127  36.295   8.789
 1223POPC   C2B18404  20.117  36.152   8.394
 1223POPC   C3B18405  20.284  36.039   8.036
 1223POPC   C4B18406  20.247  36.177   7.636
 1224POPC   NC318407  22.559  35.483   9.758
 1224POPC   PO418408  22.903  36.055   9.620
 1224POPC   GL118409  22.974  35.995   9.183
 1224POPC   GL218410  22.635  36.018   9.048
 1224POPC   C1A18411  23.031  36.121   8.718
 1224POPC   D2A18412  23.249  35.998   8.333
 1224POPC   C3A18413  23.071  36.122   7.935
 1224POPC   C4A18414  22.655  36.213   7.721
 1224POPC   C1B18415  22.829  35.669   8.836
 1224POPC   C2B18416  22.856  35.685   8.439
 1224POPC   C3B18417  23.017  35.601   8.066
 1224POPC   C4B18418  22.832  35.724   7.719
 1225POPC   NC318419  10.205  43.783   9.455
 1225POPC   PO418420  10.762  44.196   9.409
 1225POPC   GL118421  10.653  44.101   9.059
 1225POPC   GL218422  10.314  44.154   9.012
 1225POPC   C1A18423  10.833  44.093   8.656
 1225POPC   D2A18424  10.801  43.814   8.280
 1225POPC   C3A18425  10.843  44.027   7.890
 1225POPC   C4A18426  10.460  44.155   7.665
 1225POPC   C1B18427  10.457  43.717   8.827
 1225POPC   C2B18428  10.366  43.578   8.425
 1225POPC   C3B18429  10.307  43.808   8.041
 1225POPC   C4B18430  10.032  43.866   7.671
 1226POPC   NC318431  38.724  15.026   9.396
 1226POPC   PO418432  38.430  15.578   9.625
 1226POPC   GL118433  38.457  15.427   9.199
 1226POPC   GL218434  38.209  15.161   9.246
 1226POPC   C1A18435  38.620  15.292   8.800
 1226POPC   D2A18436  38.600  15.091   8.411
 1226POPC   C3A18437  38.706  15.320   8.042
 1226POPC   C4A18438  38.545  15.321   7.660
 1226POPC   C1B18439  38.177  15.037   8.818
 1226POPC   C2B18440  38.119  15.261   8.415
 1226POPC   C3B18441  38.237  15.095   7.998
 1226POPC   C4B18442  38.239  14.917   7.556
 1227POPC   NC318443  37.786  19.470   9.663
 1227POPC   PO418444  37.501  20.063   9.635
 1227POPC   GL118445  37.711  19.912   9.261
 1227POPC   GL218446  37.399  19.953   9.101
 1227POPC   C1A18447  37.852  19.958   8.801
 1227POPC   D2A18448  37.862  20.148   8.360
 1227POPC   C3A18449  37.846  19.869   7.974
 1227POPC   C4A18450  37.581  19.568   7.721
 1227POPC   C1B18451  37.326  19.737   8.729
 1227POPC   C2B18452  37.518  19.738   8.336
 1227POPC   C3B18453  37.323  19.912   7.989
 1227POPC   C4B18454  36.909  19.938   7.871
 1228POPC   NC318455   6.765  37.990   9.516
 1228POPC   PO418456   6.127  38.081   9.590
 1228POPC   GL118457   6.375  37.694   9.339
 1228POPC   GL218458   6.144  37.429   9.213
 1228POPC   C1A18459   6.687  37.616   8.972
 1228POPC   D2A18460   6.715  37.912   8.597
 1228POPC   C3A18461   6.707  37.796   8.142
 1228POPC   C4A18462   6.822  37.920   7.733
 1228POPC   C1B18463   6.311  37.332   8.827
 1228POPC   C2B18464   6.518  37.435   8.470
 1228POPC   C3B18465   6.534  37.299   8.056
 1228POPC   C4B18466   6.670  37.449   7.687
 1229POPC   NC318467  43.451  26.179   9.586
 1229POPC   PO418468  42.780  25.870   9.517
 1229POPC   GL118469  42.946  25.915   9.158
 1229POPC   GL218470  43.266  25.893   9.183
 1229POPC   C1A18471  42.858  26.050   8.762
 1229POPC   D2A18472  42.634  25.917   8.404
 1229POPC   C3A18473  42.754  26.026   8.015
 1229POPC   C4A18474  42.966  25.989   7.644
 1229POPC   C1B18475  43.383  26.127   8.834
 1229POPC   C2B18476  43.172  26.326   8.477
 1229POPC   C3B18477  43.250  26.184   8.066
 1229POPC   C4B18478  43.309  26.369   7.681
 1230POPC   NC318479  34.042   6.322   9.840
 1230POPC   PO418480  33.561   6.781   9.618
 1230POPC   GL118481  33.595   6.831   9.177
 1230POPC   GL218482  33.910   6.665   9.198
 1230POPC   C1A18483  33.543   6.567   8.827
 1230POPC   D2A18484  33.625   6.380   8.445
 1230POPC   C3A18485  33.877   6.570   8.130
 1230POPC   C4A18486  33.768   6.402   7.752
 1230POPC   C1B18487  34.044   6.662   8.763
 1230POPC   C2B18488  34.210   6.904   8.407
 1230POPC   C3B18489  34.059   7.061   8.012
 1230POPC   C4B18490  33.743   6.906   7.729
 1231POPC   NC318491  15.314   7.802   9.460
 1231POPC   PO418492  15.538   7.145   9.475
 1231POPC   GL118493  15.174   7.302   9.166
 1231POPC   GL218494  15.149   7.605   9.022
 1231POPC   C1A18495  15.058   7.188   8.726
 1231POPC   D2A18496  15.256   6.937   8.378
 1231POPC   C3A18497  15.245   7.114   7.923
 1231POPC   C4A18498  15.018   7.480   7.694
 1231POPC   C1B18499  15.404   7.586   8.656
 1231POPC   C2B18500  15.499   7.423   8.259
 1231POPC   C3B18501  15.484   7.619   7.852
 1231POPC   C4B18502  15.461   7.477   7.423
 1232POPC   NC318503  38.844  32.060   9.425
 1232POPC   PO418504  39.486  32.182   9.423
 1232POPC   GL118505  39.225  32.325   9.101
 1232POPC   GL218506  38.901  32.496   9.161
 1232POPC   C1A18507  39.369  32.440   8.705
 1232POPC   D2A18508  39.431  32.187   8.355
 1232POPC   C3A18509  39.372  32.312   7.928
 1232POPC   C4A18510  39.371  31.936   7.732
 1232POPC   C1B18511  38.812  32.335   8.761
 1232POPC   C2B18512  38.973  32.435   8.389
 1232POPC   C3B18513  38.870  32.367   8.030
 1232POPC   C4B18514  38.892  32.097   7.737
 1233POPC   NC318515  13.815   2.527   9.521
 1233POPC   PO418516  13.343   3.026   9.511
 1233POPC   GL118517  13.452   2.736   9.212
 1233POPC   GL218518  13.795   2.884   9.178
 1233POPC   C1A18519  13.525   2.568   8.808
 1233POPC   D2A18520  13.754   2.501   8.429
 1233POPC   C3A18521  13.649   2.734   8.125
 1233POPC   C4A18522  13.447   2.621   7.741
 1233POPC   C1B18523  13.649   3.069   8.846
 1233POPC   C2B18524  13.796   3.120   8.475
 1233POPC   C3B18525  13.637   3.276   8.138
 1233POPC   C4B18526  13.687   3.091   7.767
 1234POPC   NC318527   7.957   8.227   9.639
 1234POPC   PO418528   7.304   8.336   9.593
 1234POPC   GL118529   7.441   8.113   9.212
 1234POPC   GL218530   7.710   7.891   9.278
 1234POPC   C1A18531   7.388   8.247   8.777
 1234POPC   D2A18532   7.101   8.425   8.469
 1234POPC   C3A18533   7.274   8.232   8.103
 1234POPC   C4A18534   7.427   8.329   7.705
 1234POPC   C1B18535   7.791   7.922   8.811
 1234POPC   C2B18536   7.703   8.070   8.356
 1234POPC   C3B18537   7.712   7.934   7.890
 1234POPC   C4B18538   7.571   7.951   7.414
 1235POPC   NC318539  32.624  22.177   9.519
 1235POPC   PO418540  31.996  22.078   9.501
 1235POPC   GL118541  32.222  22.179   9.153
 1235POPC   GL218542  32.409  22.476   9.174
 1235POPC   C1A18543  32.214  22.099   8.735
 1235POPC   D2A18544  32.263  22.352   8.382
 1235POPC   C3A18545  32.199  22.124   8.056
 1235POPC   C4A18546  31.954  22.053   7.727
 1235POPC   C1B18547  32.650  22.337   8.826
 1235POPC   C2B18548  32.760  22.337   8.376
 1235POPC   C3B18549  32.602  22.412   7.961
 1235POPC   C4B18550  32.436  22.138   7.591
 1236POPC   NC318551  37.457  23.623   9.682
 1236POPC   PO418552  38.063  23.833   9.483
 1236POPC   GL118553  37.885  23.590   9.132
 1236POPC   GL218554  37.541  23.619   9.152
 1236POPC   C1A18555  37.778  23.508   8.668
 1236POPC   D2A18556  37.937  23.886   8.403
 1236POPC   C3A18557  38.021  23.788   7.983
 1236POPC   C4A18558  37.892  23.361   7.944
 1236POPC   C1B18559  37.593  23.945   8.808
 1236POPC   C2B18560  37.431  23.931   8.434
 1236POPC   C3B18561  37.568  24.062   8.068
 1236POPC   C4B18562  37.553  23.763   7.772
 1237POPC   NC318563  38.041  15.637   9.391
 1237POPC   PO418564  38.330  16.284   9.457
 1237POPC   GL118565  38.370  15.963   9.176
 1237POPC   GL218566  38.049  16.047   9.110
 1237POPC   C1A18567  38.554  15.814   8.806
 1237POPC   D2A18568  38.494  15.621   8.412
 1237POPC   C3A18569  38.697  15.850   8.099
 1237POPC   C4A18570  38.678  15.822   7.678
 1237POPC   C1B18571  38.193  16.260   8.771
 1237POPC   C2B18572  38.335  16.118   8.390
 1237POPC   C3B18573  38.257  16.118   7.963
 1237POPC   C4B18574  38.278  16.149   7.536
 1238POPC   NC318575  35.861  23.867   9.442
 1238POPC   PO418576  36.371  23.452   9.531
 1238POPC   GL118577  36.230  23.619   9.154
 1238POPC   GL218578  36.373  23.904   9.127
 1238POPC   C1A18579  36.161  23.543   8.698
 1238POPC   D2A18580  36.020  23.733   8.360
 1238POPC   C3A18581  36.174  23.582   8.002
 1238POPC   C4A18582  35.989  23.736   7.616
 1238POPC   C1B18583  36.221  24.054   8.715
 1238POPC   C2B18584  36.380  24.252   8.338
 1238POPC   C3B18585  36.187  24.095   7.930
 1238POPC   C4B18586  36.215  24.196   7.482
 1239POPC   NC318587   8.267   9.175   9.710
 1239POPC   PO418588   8.061   8.636   9.448
 1239POPC   GL118589   8.277   8.933   9.156
 1239POPC   GL218590   8.259   9.289   9.191
 1239POPC   C1A18591   8.492   8.942   8.766
 1239POPC   D2A18592   8.558   8.677   8.403
 1239POPC   C3A18593   8.403   8.863   8.038
 1239POPC   C4A18594   8.241   8.699   7.645
 1239POPC   C1B18595   8.048   9.221   8.782
 1239POPC   C2B18596   8.046   8.941   8.442
 1239POPC   C3B18597   7.888   8.889   8.050
 1239POPC   C4B18598   7.994   9.141   7.708
 1240POPC   NC318599   6.206   1.483   9.409
 1240POPC   PO418600   5.989   0.833   9.534
 1240POPC   GL118601   5.997   1.068   9.144
 1240POPC   GL218602   5.711   1.269   9.167
 1240POPC   C1A18603   5.936   1.068   8.683
 1240POPC   D2A18604   6.213   1.184   8.385
 1240POPC   C3A18605   6.220   1.009   7.982
 1240POPC   C4A18606   6.137   1.138   7.570
 1240POPC   C1B18607   5.801   1.540   8.806
 1240POPC   C2B18608   5.824   1.522   8.386
 1240POPC   C3B18609   5.912   1.419   7.988
 1240POPC   C4B18610   5.559   1.572   7.867
 1241POPC   NC318611  29.738  21.901   9.401
 1241POPC   PO418612  30.193  22.362   9.404
 1241POPC   GL118613  30.049  22.146   9.030
 1241POPC   GL218614  29.731  21.993   8.917
 1241POPC   C1A18615  30.053  22.285   8.597
 1241POPC   D2A18616  30.304  22.472   8.269
 1241POPC   C3A18617  30.164  22.285   7.902
 1241POPC   C4A18618  29.755  22.390   7.756
 1241POPC   C1B18619  29.641  21.607   8.736
 1241POPC   C2B18620  29.828  21.725   8.402
 1241POPC   C3B18621  29.748  22.056   8.158
 1241POPC   C4B18622  29.767  21.892   7.780
 1242POPC   NC318623   6.390  33.965   9.454
 1242POPC   PO418624   6.634  33.368   9.520
 1242POPC   GL118625   6.700  33.653   9.167
 1242POPC   GL218626   6.869  33.996   9.251
 1242POPC   C1A18627   6.423  33.762   8.829
 1242POPC   D2A18628   6.251  33.747   8.442
 1242POPC   C3A18629   6.448  33.456   8.170
 1242POPC   C4A18630   6.683  33.525   7.763
 1242POPC   C1B18631   6.911  33.945   8.799
 1242POPC   C2B18632   6.790  33.766   8.417
 1242POPC   C3B18633   6.566  33.935   8.068
 1242POPC   C4B18634   6.429  33.980   7.686
 1243POPC   NC318635  10.961   1.810   9.450
 1243POPC   PO418636  11.488   2.272   9.383
 1243POPC   GL118637  11.403   1.873   9.170
 1243POPC   GL218638  11.625   1.615   9.287
 1243POPC   C1A18639  11.208   1.864   8.764
 1243POPC   D2A18640  11.081   2.199   8.454
 1243POPC   C3A18641  11.303   2.131   8.061
 1243POPC   C4A18642  11.168   2.193   7.656
 1243POPC   C1B18643  11.752   1.659   8.846
 1243POPC   C2B18644  11.570   1.639   8.443
 1243POPC   C3B18645  11.662   1.753   8.031
 1243POPC   C4B18646  11.449   1.747   7.700
 1244POPC   NC318647   8.489  38.334   9.693
 1244POPC   PO418648   7.853  38.182   9.507
 1244POPC   GL118649   8.085  38.486   9.232
 1244POPC   GL218650   8.482  38.477   9.210
 1244POPC   C1A18651   8.031  38.288   8.834
 1244POPC   D2A18652   8.100  38.418   8.444
 1244POPC   C3A18653   8.006  38.148   8.099
 1244POPC   C4A18654   7.924  38.357   7.714
 1244POPC   C1B18655   8.400  38.642   8.824
 1244POPC   C2B18656   8.557  38.656   8.431
 1244POPC   C3B18657   8.421  38.473   8.054
 1244POPC   C4B18658   8.741  38.448   7.798
 1245POPC   NC318659  35.103  26.891   9.459
 1245POPC   PO418660  35.765  26.615   9.398
 1245POPC   GL118661  35.531  26.896   9.156
 1245POPC   GL218662  35.287  26.659   9.044
 1245POPC   C1A18663  35.347  27.094   8.781
 1245POPC   D2A18664  35.270  26.877   8.410
 1245POPC   C3A18665  35.344  27.094   8.055
 1245POPC   C4A18666  35.411  27.046   7.639
 1245POPC   C1B18667  35.078  26.463   8.709
 1245POPC   C2B18668  34.993  26.449   8.287
 1245POPC   C3B18669  35.225  26.589   7.935
 1245POPC   C4B18670  34.956  26.631   7.589
 1246POPC   NC318671   8.051  21.009   9.557
 1246POPC   PO418672   8.316  20.401   9.442
 1246POPC   GL118673   8.373  20.744   9.150
 1246POPC   GL218674   8.012  20.755   9.127
 1246POPC   C1A18675   8.377  20.731   8.687
 1246POPC   D2A18676   8.343  20.309   8.468
 1246POPC   C3A18677   8.429  20.372   8.029
 1246POPC   C4A18678   8.278  20.667   7.772
 1246POPC   C1B18679   7.900  20.549   8.750
 1246POPC   C2B18680   7.998  20.694   8.334
 1246POPC   C3B18681   7.802  20.720   7.950
 1246POPC   C4B18682   7.837  20.814   7.535
 1247POPC   NC318683   5.998  18.012   9.556
 1247POPC   PO418684   5.848  18.641   9.498
 1247POPC   GL118685   6.108  18.373   9.190
 1247POPC   GL218686   5.818  18.212   9.099
 1247POPC   C1A18687   6.243  18.094   8.823
 1247POPC   D2A18688   6.160  17.950   8.395
 1247POPC   C3A18689   5.951  18.193   8.093
 1247POPC   C4A18690   5.809  18.195   7.644
 1247POPC   C1B18691   5.561  18.419   8.781
 1247POPC   C2B18692   5.675  18.611   8.386
 1247POPC   C3B18693   5.592  18.513   7.972
 1247POPC   C4B18694   5.361  18.452   7.620
 1248POPC   NC318695  38.758   7.937   9.469
 1248POPC   PO418696  38.103   8.135   9.546
 1248POPC   GL118697  38.377   8.187   9.228
 1248POPC   GL218698  38.344   7.847   9.116
 1248POPC   C1A18699  38.416   8.227   8.792
 1248POPC   D2A18700  38.523   8.411   8.432
 1248POPC   C3A18701  38.648   8.147   8.088
 1248POPC   C4A18702  38.815   8.175   7.646
 1248POPC   C1B18703  38.035   7.898   8.766
 1248POPC   C2B18704  38.127   8.092   8.362
 1248POPC   C3B18705  38.061   8.011   7.942
 1248POPC   C4B18706  38.315   8.241   7.686
 1249POPC   NC318707   9.555  28.977   9.512
 1249POPC   PO418708  10.107  29.192   9.773
 1249POPC   GL118709  10.011  29.263   9.313
 1249POPC   GL218710   9.678  29.387   9.216
 1249POPC   C1A18711   9.898  29.031   8.912
 1249POPC   D2A18712   9.792  29.111   8.475
 1249POPC   C3A18713   9.683  28.959   8.078
 1249POPC   C4A18714   9.958  28.875   7.742
 1249POPC   C1B18715   9.629  29.491   8.777
 1249POPC   C2B18716   9.469  29.480   8.325
 1249POPC   C3B18717   9.358  29.338   7.905
 1249POPC   C4B18718   9.511  29.524   7.486
 1250POPC   NC318719   5.072  33.305   9.666
 1250POPC   PO418720   4.883  32.690   9.662
 1250POPC   GL118721   5.034  32.758   9.236
 1250POPC   GL218722   4.702  32.620   9.147
 1250POPC   C1A18723   5.309  32.853   8.826
 1250POPC   D2A18724   5.523  32.777   8.386
 1250POPC   C3A18725   5.304  32.978   7.994
 1250POPC   C4A18726   4.962  33.295   7.874
 1250POPC   C1B18727   4.804  32.801   8.770
 1250POPC   C2B18728   4.983  32.694   8.386
 1250POPC   C3B18729   4.812  32.834   8.013
 1250POPC   C4B18730   4.978  32.788   7.622
 1251POPC   NC318731  11.370  41.371   9.505
 1251POPC   PO418732  11.325  42.065   9.367
 1251POPC   GL118733  11.256  41.681   9.122
 1251POPC   GL218734  11.558  41.634   9.127
 1251POPC   C1A18735  11.045  41.474   8.778
 1251POPC   D2A18736  10.897  41.662   8.387
 1251POPC   C3A18737  11.109  41.544   8.021
 1251POPC   C4A18738  11.228  41.640   7.624
 1251POPC   C1B18739  11.600  41.824   8.766
 1251POPC   C2B18740  11.482  41.722   8.365
 1251POPC   C3B18741  11.749  41.630   8.028
 1251POPC   C4B18742  11.737  41.609   7.606
 1252POPC   NC318743  14.483  40.512   9.702
 1252POPC   PO418744  14.548  41.087   9.429
 1252POPC   GL118745  14.593  40.722   9.209
 1252POPC   GL218746  14.245  40.675   9.112
 1252POPC   C1A18747  14.651  40.750   8.763
 1252POPC   D2A18748  14.399  40.925   8.405
 1252POPC   C3A18749  14.449  40.777   7.998
 1252POPC   C4A18750  14.713  40.908   7.690
 1252POPC   C1B18751  14.192  40.539   8.681
 1252POPC   C2B18752  13.970  40.662   8.298
 1252POPC   C3B18753  14.039  40.458   7.910
 1252POPC   C4B18754  14.455  40.262   7.890
 1253POPC   NC318755  10.957  35.909   9.635
 1253POPC   PO418756  10.482  35.484   9.473
 1253POPC   GL118757  10.467  35.590   9.028
 1253POPC   GL218758  10.101  35.628   8.971
 1253POPC   C1A18759  10.713  35.555   8.602
 1253POPC   D2A18760  10.619  35.189   8.299
 1253POPC   C3A18761  10.498  35.300   7.876
 1253POPC   C4A18762  10.516  35.738   7.703
 1253POPC   C1B18763  10.226  35.442   8.590
 1253POPC   C2B18764  10.367  35.648   8.215
 1253POPC   C3B18765  10.062  35.633   7.870
 1253POPC   C4B18766  10.085  35.351   7.548
 1254POPC   NC318767  24.833  30.482   9.592
 1254POPC   PO418768  24.377  31.025   9.657
 1254POPC   GL118769  24.453  30.867   9.208
 1254POPC   GL218770  24.638  30.599   9.155
 1254POPC   C1A18771  24.278  30.632   8.821
 1254POPC   D2A18772  24.396  30.345   8.476
 1254POPC   C3A18773  24.215  30.548   8.110
 1254POPC   C4A18774  24.336  30.790   7.734
 1254POPC   C1B18775  24.877  30.307   8.894
 1254POPC   C2B18776  25.015  30.336   8.485
 1254POPC   C3B18777  24.775  30.499   8.165
 1254POPC   C4B18778  24.855  30.591   7.738
 1255POPC   NC318779  41.049  44.688   9.522
 1255POPC   PO418780  40.597  44.276   9.420
 1255POPC   GL118781  40.707  44.563   9.092
 1255POPC   GL218782  41.047  44.629   9.026
 1255POPC   C1A18783  40.693  44.672   8.650
 1255POPC   D2A18784  40.454   0.044   8.507
 1255POPC   C3A18785  40.558   0.114   8.113
 1255POPC   C4A18786  40.900  44.994   7.849
 1255POPC   C1B18787  41.334  44.454   8.713
 1255POPC   C2B18788  41.177  44.295   8.305
 1255POPC   C3B18789  41.034  44.462   7.899
 1255POPC   C4B18790  41.131  44.341   7.452
 1256POPC   NC318791  42.602  14.714   9.625
 1256POPC   PO418792  42.237  15.321   9.672
 1256POPC   GL118793  42.253  15.115   9.235
 1256POPC   GL218794  42.591  14.934   9.167
 1256POPC   C1A18795  42.249  15.314   8.803
 1256POPC   D2A18796  42.026  15.405   8.416
 1256POPC   C3A18797  42.241  15.353   8.035
 1256POPC   C4A18798  42.235  15.017   7.763
 1256POPC   C1B18799  42.398  14.841   8.796
 1256POPC   C2B18800  42.409  14.934   8.372
 1256POPC   C3B18801  42.661  14.874   8.015
 1256POPC   C4B18802  42.602  14.532   7.715
 1257POPC   NC318803   1.831   0.037   9.496
 1257POPC   PO418804   2.074   0.662   9.746
 1257POPC   GL118805   2.033   0.458   9.287
 1257POPC   GL218806   2.326   0.580   9.162
 1257POPC   C1A18807   2.085   0.292   8.812
 1257POPC   D2A18808   2.325   0.081   8.480
 1257POPC   C3A18809   2.213   0.277   8.085
 1257POPC   C4A18810   2.013   0.362   7.719
 1257POPC   C1B18811   2.198   0.785   8.743
 1257POPC   C2B18812   2.008   0.696   8.321
 1257POPC   C3B18813   1.991   0.850   7.877
 1257POPC   C4B18814   2.230   0.775   7.476
 1258POPC   NC318815  31.202   4.363   9.796
 1258POPC   PO418816  31.709   4.429   9.301
 1258POPC   GL118817  31.688   4.073   8.999
 1258POPC   GL218818  31.442   4.214   8.814
 1258POPC   C1A18819  31.839   3.923   8.648
 1258POPC   D2A18820  31.739   4.187   8.325
 1258POPC   C3A18821  31.950   3.974   8.045
 1258POPC   C4A18822  31.947   4.015   7.640
 1258POPC   C1B18823  31.400   4.563   8.530
 1258POPC   C2B18824  31.273   4.798   8.188
 1258POPC   C3B18825  31.243   4.503   7.917
 1258POPC   C4B18826  31.574   4.301   7.814
 1259POPC   NC318827   8.620  15.940   9.352
 1259POPC   PO418828   9.178  16.337   9.512
 1259POPC   GL118829   9.050  16.097   9.140
 1259POPC   GL218830   9.188  15.804   9.253
 1259POPC   C1A18831   8.793  16.108   8.736
 1259POPC   D2A18832   8.875  16.245   8.314
 1259POPC   C3A18833   8.777  15.948   8.015
 1259POPC   C4A18834   9.114  15.806   7.840
 1259POPC   C1B18835   9.362  15.756   8.832
 1259POPC   C2B18836   9.222  15.521   8.454
 1259POPC   C3B18837   9.355  15.385   8.041
 1259POPC   C4B18838   9.574  15.592   7.745
 1260POPC   NC318839  31.820   3.374   9.512
 1260POPC   PO418840  32.378   3.753   9.414
 1260POPC   GL118841  32.460   3.635   9.048
 1260POPC   GL218842  32.357   3.260   9.041
 1260POPC   C1A18843  32.269   3.624   8.691
 1260POPC   D2A18844  32.067   3.565   8.356
 1260POPC   C3A18845  32.347   3.469   8.079
 1260POPC   C4A18846  32.316   3.680   7.773
 1260POPC   C1B18847  31.927   3.236   8.816
 1260POPC   C2B18848  31.766   3.161   8.376
 1260POPC   C3B18849  31.893   3.320   7.932
 1260POPC   C4B18850  32.270   3.182   7.644
 1261POPC   NC318851   8.527  44.044   9.457
 1261POPC   PO418852   8.064  43.607   9.557
 1261POPC   GL118853   8.191  43.783   9.159
 1261POPC   GL218854   7.996  44.057   9.213
 1261POPC   C1A18855   8.227  44.030   8.738
 1261POPC   D2A18856   8.461  44.185   8.362
 1261POPC   C3A18857   8.299  44.074   7.975
 1261POPC   C4A18858   8.524  43.738   7.793
 1261POPC   C1B18859   7.763  43.858   8.832
 1261POPC   C2B18860   7.880  43.599   8.500
 1261POPC   C3B18861   7.857  43.489   8.075
 1261POPC   C4B18862   8.012  43.720   7.727
 1262POPC   NC318863  26.001  41.393   9.622
 1262POPC   PO418864  26.239  41.949   9.825
 1262POPC   GL118865  26.095  41.711   9.259
 1262POPC   GL218866  25.866  41.456   9.143
 1262POPC   C1A18867  26.237  41.676   8.822
 1262POPC   D2A18868  26.157  41.927   8.440
 1262POPC   C3A18869  26.285  41.726   8.012
 1262POPC   C4A18870  26.148  41.480   7.646
 1262POPC   C1B18871  25.769  41.546   8.704
 1262POPC   C2B18872  25.907  41.502   8.296
 1262POPC   C3B18873  25.715  41.486   7.916
 1262POPC   C4B18874  25.667  41.556   7.486
 1263POPC   NC318875  33.464   1.321   9.512
 1263POPC   PO418876  34.126   1.168   9.471
 1263POPC   GL118877  33.924   1.374   9.120
 1263POPC   GL218878  33.599   1.564   9.114
 1263POPC   C1A18879  33.963   1.158   8.726
 1263POPC   D2A18880  33.957   0.980   8.324
 1263POPC   C3A18881  33.791   1.252   8.006
 1263POPC   C4A18882  34.008   1.389   7.607
 1263POPC   C1B18883  33.475   1.352   8.790
 1263POPC   C2B18884  33.668   1.489   8.431
 1263POPC   C3B18885  33.467   1.678   8.075
 1263POPC   C4B18886  33.497   1.466   7.674
 1264POPC   NC318887  18.601  25.074   9.472
 1264POPC   PO418888  19.283  24.995   9.469
 1264POPC   GL118889  19.064  25.242   9.187
 1264POPC   GL218890  18.863  25.514   9.254
 1264POPC   C1A18891  18.779  25.155   8.834
 1264POPC   D2A18892  18.612  25.154   8.407
 1264POPC   C3A18893  18.856  25.152   8.013
 1264POPC   C4A18894  18.988  24.916   7.637
 1264POPC   C1B18895  19.051  25.592   8.823
 1264POPC   C2B18896  18.863  25.630   8.408
 1264POPC   C3B18897  18.945  25.665   7.981
 1264POPC   C4B18898  19.182  25.426   7.711
 1265POPC   NC318899  41.801  26.509   9.512
 1265POPC   PO418900  41.365  26.973   9.555
 1265POPC   GL118901  41.556  26.975   9.171
 1265POPC   GL218902  41.911  26.964   9.252
 1265POPC   C1A18903  41.426  26.827   8.750
 1265POPC   D2A18904  41.579  26.670   8.383
 1265POPC   C3A18905  41.478  26.871   8.010
 1265POPC   C4A18906  41.677  26.705   7.617
 1265POPC   C1B18907  41.910  27.031   8.807
 1265POPC   C2B18908  41.772  27.175   8.420
 1265POPC   C3B18909  41.919  27.087   8.025
 1265POPC   C4B18910  41.782  27.192   7.619
 1266POPC   NC318911  15.553  38.590   9.542
 1266POPC   PO418912  14.896  38.582   9.577
 1266POPC   GL118913  15.081  38.485   9.196
 1266POPC   GL218914  15.264  38.181   9.169
 1266POPC   C1A18915  15.078  38.483   8.759
 1266POPC   D2A18916  15.119  38.165   8.504
 1266POPC   C3A18917  15.008  38.371   8.150
 1266POPC   C4A18918  15.062  38.563   7.740
 1266POPC   C1B18919  14.835  38.070   8.952
 1266POPC   C2B18920  14.690  37.924   8.531
 1266POPC   C3B18921  14.912  37.826   8.144
 1266POPC   C4B18922  14.995  38.064   7.752
 1267POPC   NC318923  16.602  35.595   9.502
 1267POPC   PO418924  16.736  34.922   9.372
 1267POPC   GL118925  16.633  35.285   9.056
 1267POPC   GL218926  16.768  35.622   9.030
 1267POPC   C1A18927  16.710  35.343   8.615
 1267POPC   D2A18928  16.927  35.385   8.228
 1267POPC   C3A18929  16.803  35.125   7.908
 1267POPC   C4A18930  16.636  35.140   7.472
 1267POPC   C1B18931  16.412  35.748   8.824
 1267POPC   C2B18932  16.319  35.627   8.413
 1267POPC   C3B18933  16.517  35.725   8.076
 1267POPC   C4B18934  16.684  35.603   7.717
 1268POPC   NC318935   7.950  34.195   9.463
 1268POPC   PO418936   7.594  34.847   9.439
 1268POPC   GL118937   7.546  34.681   9.041
 1268POPC   GL218938   7.621  34.356   9.077
 1268POPC   C1A18939   7.352  34.556   8.646
 1268POPC   D2A18940   7.087  34.607   8.281
 1268POPC   C3A18941   7.318  34.766   7.950
 1268POPC   C4A18942   7.297  34.651   7.531
 1268POPC   C1B18943   7.822  34.348   8.722
 1268POPC   C2B18944   7.698  34.229   8.325
 1268POPC   C3B18945   7.472  34.267   7.936
 1268POPC   C4B18946   7.557  34.212   7.503
 1269POPC   NC318947   9.357   2.105   9.853
 1269POPC   PO418948   9.670   1.794   9.369
 1269POPC   GL118949   9.812   1.833   9.016
 1269POPC   GL218950   9.946   2.137   9.085
 1269POPC   C1A18951   9.684   1.821   8.591
 1269POPC   D2A18952   9.652   1.894   8.152
 1269POPC   C3A18953   9.459   1.943   7.771
 1269POPC   C4A18954   9.641   1.748   7.459
 1269POPC   C1B18955   9.758   2.313   8.712
 1269POPC   C2B18956   9.941   2.277   8.297
 1269POPC   C3B18957   9.861   2.253   7.838
 1269POPC   C4B18958   9.651   2.252   7.398
 1270POPC   NC318959  43.030  40.990   9.512
 1270POPC   PO418960  43.188  40.374   9.818
 1270POPC   GL118961  43.041  40.418   9.339
 1270POPC   GL218962  42.854  40.657   9.165
 1270POPC   C1A18963  43.195  40.392   8.865
 1270POPC   D2A18964  43.068  40.253   8.420
 1270POPC   C3A18965  43.255  40.443   8.037
 1270POPC   C4A18966  43.631  40.430   7.752
 1270POPC   C1B18967  42.908  41.046   8.857
 1270POPC   C2B18968  42.844  41.199   8.412
 1270POPC   C3B18969  42.736  41.107   7.980
 1270POPC   C4B18970  42.864  40.828   7.607
 1271POPC   NC318971  19.101  28.598   9.472
 1271POPC   PO418972  18.634  28.111   9.321
 1271POPC   GL118973  18.870  28.291   9.004
 1271POPC   GL218974  19.210  28.440   9.003
 1271POPC   C1A18975  18.923  28.163   8.580
 1271POPC   D2A18976  19.279  28.058   8.322
 1271POPC   C3A18977  19.206  28.174   7.901
 1271POPC   C4A18978  19.137  27.987   7.512
 1271POPC   C1B18979  18.964  28.673   8.670
 1271POPC   C2B18980  18.961  28.557   8.235
 1271POPC   C3B18981  18.868  28.680   7.837
 1271POPC   C4B18982  19.110  28.521   7.517
 1272POPC   NC318983   1.736  16.848   9.579
 1272POPC   PO418984   2.425  17.056   9.611
 1272POPC   GL118985   2.285  16.933   9.190
 1272POPC   GL218986   1.944  16.766   9.120
 1272POPC   C1A18987   2.197  16.972   8.735
 1272POPC   D2A18988   1.844  17.150   8.499
 1272POPC   C3A18989   1.805  16.944   8.079
 1272POPC   C4A18990   2.207  16.777   7.914
 1272POPC   C1B18991   1.960  16.520   8.775
 1272POPC   C2B18992   2.061  16.588   8.373
 1272POPC   C3B18993   1.943  16.361   8.039
 1272POPC   C4B18994   1.842  16.408   7.662
 1273POPC   NC318995  44.809  37.169   9.635
 1273POPC   PO418996  44.443  36.632   9.490
 1273POPC   GL118997  44.705  36.811   9.178
 1273POPC   GL218998  44.643  37.163   9.150
 1273POPC   C1A18999  44.951  36.786   8.784
 1273POPC   D2A19000  44.884  36.554   8.377
 1273POPC   C3A19001  44.998  36.728   7.951
 1273POPC   C4A19002   0.050  36.979   7.531
 1273POPC   C1B19003  44.571  37.112   8.711
 1273POPC   C2B19004  44.765  37.069   8.302
 1273POPC   C3B19005  44.646  37.099   7.857
 1273POPC   C4B19006  44.534  37.048   7.436
 1274POPC   NC319007  44.027  36.825   9.509
 1274POPC   PO419008  43.576  37.205   9.271
 1274POPC   GL119009  43.835  36.888   9.004
 1274POPC   GL219010  44.207  36.895   9.041
 1274POPC   C1A19011  43.702  36.651   8.599
 1274POPC   D2A19012  43.928  36.663   8.168
 1274POPC   C3A19013  43.714  36.738   7.792
 1274POPC   C4A19014  43.458  36.431   7.653
 1274POPC   C1B19015  44.162  36.844   8.606
 1274POPC   C2B19016  44.269  37.030   8.213
 1274POPC   C3B19017  44.069  37.137   7.822
 1274POPC   C4B19018  44.029  36.991   7.360
 1275POPC   NC319019  40.048  23.756   9.510
 1275POPC   PO419020  39.509  23.328   9.477
 1275POPC   GL119021  39.786  23.522   9.130
 1275POPC   GL219022  40.157  23.403   9.145
 1275POPC   C1A19023  39.959  23.774   8.772
 1275POPC   D2A19024  40.011  23.957   8.367
 1275POPC   C3A19025  40.003  23.699   8.053
 1275POPC   C4A19026  40.014  23.735   7.663
 1275POPC   C1B19027  40.393  23.509   8.775
 1275POPC   C2B19028  40.571  23.424   8.357
 1275POPC   C3B19029  40.501  23.661   7.990
 1275POPC   C4B19030  40.448  23.503   7.579
 1276POPC   NC319031  14.712   2.672   9.522
 1276POPC   PO419032  14.108   3.129   9.502
 1276POPC   GL119033  14.334   2.867   9.231
 1276POPC   GL219034  14.216   2.523   9.200
 1276POPC   C1A19035  14.553   2.791   8.839
 1276POPC   D2A19036  14.750   2.687   8.435
 1276POPC   C3A19037  14.671   2.926   8.105
 1276POPC   C4A19038  14.465   2.731   7.804
 1276POPC   C1B19039  14.057   2.642   8.816
 1276POPC   C2B19040  14.258   2.569   8.435
 1276POPC   C3B19041  14.160   2.401   8.055
 1276POPC   C4B19042  13.957   2.650   7.746
 1277POPC   NC319043  34.729  40.418   9.518
 1277POPC   PO419044  34.388  39.845   9.491
 1277POPC   GL119045  34.680  39.877   9.172
 1277POPC   GL219046  34.525  40.192   9.119
 1277POPC   C1A19047  34.792  39.684   8.769
 1277POPC   D2A19048  34.651  39.906   8.418
 1277POPC   C3A19049  34.428  39.955   7.999
 1277POPC   C4A19050  34.676  39.912   7.609
 1277POPC   C1B19051  34.296  40.124   8.765
 1277POPC   C2B19052  34.384  40.316   8.383
 1277POPC   C3B19053  34.557  40.536   8.074
 1277POPC   C4B19054  34.577  40.395   7.665
 1278POPC   NC319055  13.482  22.411   9.370
 1278POPC   PO419056  13.605  21.869   9.745
 1278POPC   GL119057  13.902  22.049   9.293
 1278POPC   GL219058  13.813  22.309   9.002
 1278POPC   C1A19059  14.040  21.896   8.854
 1278POPC   D2A19060  14.113  22.081   8.393
 1278POPC   C3A19061  13.847  21.957   7.998
 1278POPC   C4A19062  13.706  22.126   7.587
 1278POPC   C1B19063  13.624  22.066   8.624
 1278POPC   C2B19064  13.423  21.901   8.276
 1278POPC   C3B19065  13.353  22.193   7.943
 1278POPC   C4B19066  13.143  21.932   7.722
 1279POPC   NC319067  41.972  21.037   9.393
 1279POPC   PO419068  41.694  21.560   9.748
 1279POPC   GL119069  41.704  21.562   9.281
 1279POPC   GL219070  41.585  21.248   9.140
 1279POPC   C1A19071  41.517  21.679   8.869
 1279POPC   D2A19072  41.494  21.397   8.521
 1279POPC   C3A19073  41.407  21.524   8.148
 1279POPC   C4A19074  41.423  21.511   7.750
 1279POPC   C1B19075  41.568  20.943   8.821
 1279POPC   C2B19076  41.714  20.934   8.429
 1279POPC   C3B19077  41.455  20.994   8.104
 1279POPC   C4B19078  41.683  21.076   7.775
 1280POPC   NC319079  27.103  41.191   9.599
 1280POPC   PO419080  26.433  41.250   9.458
 1280POPC   GL119081  26.787  41.048   9.200
 1280POPC   GL219082  26.798  40.679   9.096
 1280POPC   C1A19083  27.020  41.039   8.827
 1280POPC   D2A19084  27.076  40.779   8.455
 1280POPC   C3A19085  26.857  40.952   8.125
 1280POPC   C4A19086  26.652  40.746   7.794
 1280POPC   C1B19087  26.611  40.753   8.700
 1280POPC   C2B19088  26.576  40.548   8.317
 1280POPC   C3B19089  26.317  40.391   7.996
 1280POPC   C4B19090  26.429  40.306   7.572
 1281POPC   NC319091   3.136  44.031   9.535
 1281POPC   PO419092   2.706  43.548   9.415
 1281POPC   GL119093   2.729  43.691   9.060
 1281POPC   GL219094   2.896  43.964   9.094
 1281POPC   C1A19095   2.533  43.686   8.696
 1281POPC   D2A19096   2.722  43.951   8.406
 1281POPC   C3A19097   2.647  43.834   8.046
 1281POPC   C4A19098   2.635  43.992   7.709
 1281POPC   C1B19099   3.103  43.823   8.723
 1281POPC   C2B19100   3.261  43.870   8.302
 1281POPC   C3B19101   3.147  43.887   7.864
 1281POPC   C4B19102   2.954  43.601   7.567
 1282POPC   NC319103   0.350   9.610   9.385
 1282POPC   PO419104   0.025   9.311   8.946
 1282POPC   GL119105   0.218   9.738   8.891
 1282POPC   GL219106   0.316  10.049   9.090
 1282POPC   C1A19107   0.510   9.924   8.570
 1282POPC   D2A19108   0.626  10.005   8.103
 1282POPC   C3A19109   0.479   9.720   7.759
 1282POPC   C4A19110   0.291   9.755   7.316
 1282POPC   C1B19111   0.106  10.222   8.725
 1282POPC   C2B19112   0.090  10.035   8.293
 1282POPC   C3B19113   0.119  10.072   7.856
 1282POPC   C4B19114  44.994  10.181   7.429
 1283POPC   NC319115  30.268  24.702   9.577
 1283POPC   PO419116  29.795  24.186   9.553
 1283POPC   GL119117  29.974  24.186   9.149
 1283POPC   GL219118  30.111  24.517   9.129
 1283POPC   C1A19119  29.867  24.355   8.730
 1283POPC   D2A19120  30.090  24.528   8.402
 1283POPC   C3A19121  30.083  24.214   8.141
 1283POPC   C4A19122  29.728  24.172   7.872
 1283POPC   C1B19123  30.333  24.754   8.790
 1283POPC   C2B19124  30.460  24.892   8.369
 1283POPC   C3B19125  30.360  24.722   8.001
 1283POPC   C4B19126  29.954  24.675   7.876
 1284POPC   NC319127  25.443  43.718   9.611
 1284POPC   PO419128  25.585  44.329   9.501
 1284POPC   GL119129  25.416  44.037   9.163
 1284POPC   GL219130  25.229  43.710   9.159
 1284POPC   C1A19131  25.135  44.037   8.803
 1284POPC   D2A19132  24.957  44.231   8.450
 1284POPC   C3A19133  24.951  43.995   8.084
 1284POPC   C4A19134  25.107  44.117   7.680
 1284POPC   C1B19135  25.195  43.509   8.768
 1284POPC   C2B19136  25.255  43.723   8.379
 1284POPC   C3B19137  25.416  43.786   7.962
 1284POPC   C4B19138  25.332  43.593   7.553
 1285POPC   NC319139   5.476   8.224   9.529
 1285POPC   PO419140   4.845   8.432   9.390
 1285POPC   GL119141   5.083   8.182   9.117
 1285POPC   GL219142   5.358   7.958   9.113
 1285POPC   C1A19143   4.969   8.072   8.714
 1285POPC   D2A19144   4.821   8.266   8.364
 1285POPC   C3A19145   5.017   8.133   8.003
 1285POPC   C4A19146   4.847   8.079   7.559
 1285POPC   C1B19147   5.483   8.176   8.741
 1285POPC   C2B19148   5.329   8.355   8.387
 1285POPC   C3B19149   5.402   8.503   7.997
 1285POPC   C4B19150   5.089   8.520   7.709
 1286POPC   NC319151   6.797  10.351   9.774
 1286POPC   PO419152   6.167  10.408   9.704
 1286POPC   GL119153   6.383  10.401   9.280
 1286POPC   GL219154   6.766  10.472   9.221
 1286POPC   C1A19155   6.422  10.444   8.822
 1286POPC   D2A19156   6.563  10.287   8.403
 1286POPC   C3A19157   6.534  10.510   8.003
 1286POPC   C4A19158   6.179  10.545   7.750
 1286POPC   C1B19159   6.921  10.377   8.765
 1286POPC   C2B19160   7.072  10.451   8.353
 1286POPC   C3B19161   7.002  10.317   7.959
 1286POPC   C4B19162   6.868  10.440   7.550
 1287POPC   NC319163  32.772  29.954   9.621
 1287POPC   PO419164  33.293  29.516   9.412
 1287POPC   GL119165  32.969  29.634   9.056
 1287POPC   GL219166  32.925  30.024   8.964
 1287POPC   C1A19167  32.957  29.689   8.583
 1287POPC   D2A19168  33.004  30.018   8.259
 1287POPC   C3A19169  32.989  29.827   7.840
 1287POPC   C4A19170  32.893  29.698   7.378
 1287POPC   C1B19171  33.304  30.086   8.668
 1287POPC   C2B19172  33.514  29.744   8.503
 1287POPC   C3B19173  33.378  29.601   8.139
 1287POPC   C4B19174  33.527  29.705   7.742
 1288POPC   NC319175  17.018  21.160   9.733
 1288POPC   PO419176  17.693  21.459   9.568
 1288POPC   GL119177  17.570  21.318   9.184
 1288POPC   GL219178  17.235  21.280   9.271
 1288POPC   C1A19179  17.681  21.234   8.755
 1288POPC   D2A19180  17.798  21.059   8.342
 1288POPC   C3A19181  17.686  21.322   7.973
 1288POPC   C4A19182  17.331  21.644   8.013
 1288POPC   C1B19183  17.183  21.305   8.802
 1288POPC   C2B19184  17.303  21.235   8.341
 1288POPC   C3B19185  17.212  21.117   7.879
 1288POPC   C4B19186  17.130  21.085   7.413
 1289POPC   NC319187   7.117  36.219   9.440
 1289POPC   PO419188   7.637  35.846   9.406
 1289POPC   GL119189   7.388  35.984   9.082
 1289POPC   GL219190   7.472  36.368   9.085
 1289POPC   C1A19191   7.232  36.071   8.698
 1289POPC   D2A19192   7.509  36.078   8.350
 1289POPC   C3A19193   7.455  35.950   7.919
 1289POPC   C4A19194   7.463  35.876   7.490
 1289POPC   C1B19195   7.189  36.602   8.802
 1289POPC   C2B19196   7.103  36.470   8.400
 1289POPC   C3B19197   7.258  36.417   8.004
 1289POPC   C4B19198   7.033  36.489   7.623
 1290POPC   NC319199  14.671  12.928   9.299
 1290POPC   PO419200  14.166  12.471   9.496
 1290POPC   GL119201  14.186  12.778   9.202
 1290POPC   GL219202  14.433  12.555   9.025
 1290POPC   C1A19203  14.102  12.873   8.773
 1290POPC   D2A19204  14.292  12.689   8.409
 1290POPC   C3A19205  14.289  12.912   8.005
 1290POPC   C4A19206  14.295  13.027   7.536
 1290POPC   C1B19207  14.873  12.447   8.878
 1290POPC   C2B19208  14.908  12.519   8.462
 1290POPC   C3B19209  14.653  12.498   8.109
 1290POPC   C4B19210  14.661  12.693   7.747
 1291POPC   NC319211  16.446  29.896   9.690
 1291POPC   PO419212  15.775  30.000   9.582
 1291POPC   GL119213  15.896  30.005   9.148
 1291POPC   GL219214  16.262  29.994   9.142
 1291POPC   C1A19215  15.990  29.833   8.721
 1291POPC   D2A19216  15.855  29.723   8.312
 1291POPC   C3A19217  15.633  30.020   7.998
 1291POPC   C4A19218  15.644  29.791   7.674
 1291POPC   C1B19219  16.183  30.299   8.763
 1291POPC   C2B19220  16.153  30.159   8.309
 1291POPC   C3B19221  16.104  29.894   7.904
 1291POPC   C4B19222  16.123  29.961   7.477
 1292POPC   NC319223  31.091  24.699   9.530
 1292POPC   PO419224  30.513  24.292   9.616
 1292POPC   GL119225  30.564  24.251   9.191
 1292POPC   GL219226  30.616  24.602   9.182
 1292POPC   C1A19227  30.396  24.238   8.776
 1292POPC   D2A19228  30.601  24.422   8.431
 1292POPC   C3A19229  30.591  24.268   8.037
 1292POPC   C4A19230  30.680  24.457   7.680
 1292POPC   C1B19231  30.842  24.724   8.813
 1292POPC   C2B19232  31.086  24.634   8.454
 1292POPC   C3B19233  30.876  24.735   8.082
 1292POPC   C4B19234  30.739  24.972   7.706
 1293POPC   NC319235  16.160  17.138   9.435
 1293POPC   PO419236  16.194  17.751   9.782
 1293POPC   GL119237  15.861  17.544   9.391
 1293POPC   GL219238  15.964  17.838   9.158
 1293POPC   C1A19239  15.722  17.451   8.957
 1293POPC   D2A19240  15.856  17.280   8.549
 1293POPC   C3A19241  15.892  17.525   8.156
 1293POPC   C4A19242  15.850  17.281   7.767
 1293POPC   C1B19243  16.093  17.708   8.718
 1293POPC   C2B19244  16.265  17.895   8.375
 1293POPC   C3B19245  16.357  17.789   8.030
 1293POPC   C4B19246  16.258  17.545   7.704
 1294POPC   NC319247  44.636  29.680   9.644
 1294POPC   PO419248  44.851  30.321   9.520
 1294POPC   GL119249  44.796  29.993   9.262
 1294POPC   GL219250  44.439  29.981   9.278
 1294POPC   C1A19251  44.743  29.813   8.859
 1294POPC   D2A19252  44.652  29.703   8.427
 1294POPC   C3A19253  44.810  29.712   8.010
 1294POPC   C4A19254   0.023  30.067   7.839
 1294POPC   C1B19255  44.313  30.124   8.881
 1294POPC   C2B19256  44.342  30.144   8.448
 1294POPC   C3B19257  44.327  29.919   8.074
 1294POPC   C4B19258  44.468  30.014   7.659
 1295POPC   NC319259   6.592   8.610   9.359
 1295POPC   PO419260   6.703   7.921   9.448
 1295POPC   GL119261   6.605   7.982   9.083
 1295POPC   GL219262   6.325   8.191   9.128
 1295POPC   C1A19263   6.889   8.007   8.762
 1295POPC   D2A19264   6.669   7.969   8.423
 1295POPC   C3A19265   6.756   8.246   8.119
 1295POPC   C4A19266   6.931   8.186   7.725
 1295POPC   C1B19267   6.503   8.369   8.739
 1295POPC   C2B19268   6.365   8.532   8.354
 1295POPC   C3B19269   6.322   8.406   7.935
 1295POPC   C4B19270   6.491   8.332   7.502
 1296POPC   NC319271  39.456  31.751   9.611
 1296POPC   PO419272  38.786  31.474   9.321
 1296POPC   GL119273  39.218  31.476   9.227
 1296POPC   GL219274  39.247  31.817   9.149
 1296POPC   C1A19275  39.387  31.475   8.807
 1296POPC   D2A19276  39.409  31.660   8.395
 1296POPC   C3A19277  39.341  31.343   8.079
 1296POPC   C4A19278  39.483  31.452   7.684
 1296POPC   C1B19279  39.116  31.939   8.720
 1296POPC   C2B19280  38.970  31.904   8.263
 1296POPC   C3B19281  38.963  31.625   7.874
 1296POPC   C4B19282  39.009  31.708   7.410
 1297POPC   NC319283  18.081  33.277   9.551
 1297POPC   PO419284  18.604  32.835   9.402
 1297POPC   GL119285  18.254  32.962   9.183
 1297POPC   GL219286  18.353  33.292   9.108
 1297POPC   C1A19287  18.196  32.919   8.769
 1297POPC   D2A19288  18.555  33.087   8.510
 1297POPC   C3A19289  18.517  32.939   8.062
 1297POPC   C4A19290  18.477  33.127   7.647
 1297POPC   C1B19291  18.154  33.412   8.708
 1297POPC   C2B19292  18.108  33.202   8.310
 1297POPC   C3B19293  18.184  33.435   7.935
 1297POPC   C4B19294  17.887  33.563   7.642
 1298POPC   NC319295   3.845   1.015   9.600
 1298POPC   PO419296   3.250   1.242   9.686
 1298POPC   GL119297   3.460   1.009   9.275
 1298POPC   GL219298   3.122   1.044   9.151
 1298POPC   C1A19299   3.789   1.014   8.824
 1298POPC   D2A19300   3.771   1.087   8.294
 1298POPC   C3A19301   3.734   1.145   7.803
 1298POPC   C4A19302   3.696   1.579   7.568
 1298POPC   C1B19303   3.309   0.891   8.802
 1298POPC   C2B19304   3.303   0.934   8.379
 1298POPC   C3B19305   3.376   0.833   7.952
 1298POPC   C4B19306   3.226   1.113   7.605
 1299POPC   NC319307  36.050  41.178   9.573
 1299POPC   PO419308  36.340  41.784   9.656
 1299POPC   GL119309  36.282  41.569   9.258
 1299POPC   GL219310  35.944  41.475   9.162
 1299POPC   C1A19311  36.334  41.512   8.814
 1299POPC   D2A19312  36.178  41.673   8.401
 1299POPC   C3A19313  36.324  41.577   8.053
 1299POPC   C4A19314  36.408  41.355   7.708
 1299POPC   C1B19315  35.799  41.581   8.746
 1299POPC   C2B19316  35.670  41.582   8.313
 1299POPC   C3B19317  35.837  41.460   7.931
 1299POPC   C4B19318  35.944  41.240   7.554
 1300POPC   NC319319  13.004   6.044   9.440
 1300POPC   PO419320  12.440   5.609   9.496
 1300POPC   GL119321  12.673   5.843   9.096
 1300POPC   GL219322  12.967   5.695   8.991
 1300POPC   C1A19323  12.893   6.054   8.689
 1300POPC   D2A19324  12.738   6.208   8.304
 1300POPC   C3A19325  12.873   6.131   7.915
 1300POPC   C4A19326  12.501   6.191   7.680
 1300POPC   C1B19327  13.057   5.548   8.605
 1300POPC   C2B19328  13.073   5.775   8.221
 1300POPC   C3B19329  13.281   5.812   7.796
 1300POPC   C4B19330  13.264   5.766   7.319
 1301POPC   NC319331  30.462  12.080   9.425
 1301POPC   PO419332  30.911  11.704   9.757
 1301POPC   GL119333  30.891  11.856   9.204
 1301POPC   GL219334  30.531  11.917   8.962
 1301POPC   C1A19335  30.927  11.735   8.744
 1301POPC   D2A19336  30.605  11.842   8.425
 1301POPC   C3A19337  30.822  11.910   8.022
 1301POPC   C4A19338  31.085  11.877   7.643
 1301POPC   C1B19339  30.173  12.200   8.829
 1301POPC   C2B19340  30.291  12.341   8.431
 1301POPC   C3B19341  30.168  12.300   8.012
 1301POPC   C4B19342  30.485  12.160   7.728
 1302POPC   NC319343  19.397  11.986   9.195
 1302POPC   PO419344  19.998  11.957   9.553
 1302POPC   GL119345  20.077  12.075   9.171
 1302POPC   GL219346  19.797  12.307   9.163
 1302POPC   C1A19347  19.970  11.859   8.824
 1302POPC   D2A19348  19.696  11.946   8.499
 1302POPC   C3A19349  19.820  11.762   8.105
 1302POPC   C4A19350  19.961  12.052   7.809
 1302POPC   C1B19351  19.612  12.401   8.744
 1302POPC   C2B19352  19.363  12.336   8.400
 1302POPC   C3B19353  19.560  12.251   8.051
 1302POPC   C4B19354  19.724  12.557   7.775
 1303POPC   NC319355  12.775  39.589   9.818
 1303POPC   PO419356  13.110  40.086   9.491
 1303POPC   GL119357  12.955  40.089   9.127
 1303POPC   GL219358  12.769  40.372   9.146
 1303POPC   C1A19359  13.131  39.958   8.769
 1303POPC   D2A19360  12.914  39.872   8.412
 1303POPC   C3A19361  13.091  39.946   8.028
 1303POPC   C4A19362  12.837  39.756   7.722
 1303POPC   C1B19363  12.738  40.291   8.698
 1303POPC   C2B19364  12.688  40.349   8.286
 1303POPC   C3B19365  12.639  40.177   7.907
 1303POPC   C4B19366  12.890  40.244   7.513
 1304POPC   NC319367   8.226   5.839   9.939
 1304POPC   PO419368   8.100   5.541   9.398
 1304POPC   GL119369   8.218   5.679   9.040
 1304POPC   GL219370   8.097   6.007   8.989
 1304POPC   C1A19371   8.145   5.687   8.591
 1304POPC   D2A19372   8.218   6.009   8.281
 1304POPC   C3A19373   8.174   5.821   7.924
 1304POPC   C4A19374   8.404   5.765   7.579
 1304POPC   C1B19375   8.035   6.318   8.642
 1304POPC   C2B19376   7.763   6.248   8.282
 1304POPC   C3B19377   7.709   6.008   7.890
 1304POPC   C4B19378   7.937   5.932   7.469
 1305POPC   NC319379  13.158  21.936   9.606
 1305POPC   PO419380  12.787  22.459   9.495
 1305POPC   GL119381  12.881  22.164   9.205
 1305POPC   GL219382  12.716  21.866   9.327
 1305POPC   C1A19383  12.981  22.201   8.778
 1305POPC   D2A19384  13.159  22.314   8.397
 1305POPC   C3A19385  12.856  22.340   8.039
 1305POPC   C4A19386  12.777  22.236   7.600
 1305POPC   C1B19387  12.694  21.781   8.883
 1305POPC   C2B19388  12.892  21.820   8.439
 1305POPC   C3B19389  12.725  21.822   8.003
 1305POPC   C4B19390  12.527  21.594   7.658
 1306POPC   NC319391  15.164   1.319   9.522
 1306POPC   PO419392  14.667   0.937   9.195
 1306POPC   GL119393  15.102   0.985   9.122
 1306POPC   GL219394  15.176   1.313   9.020
 1306POPC   C1A19395  15.367   0.903   8.759
 1306POPC   D2A19396  15.448   1.172   8.381
 1306POPC   C3A19397  15.261   1.165   7.951
 1306POPC   C4A19398  15.160   1.166   7.491
 1306POPC   C1B19399  15.032   1.337   8.627
 1306POPC   C2B19400  14.900   1.064   8.297
 1306POPC   C3B19401  14.745   1.170   7.885
 1306POPC   C4B19402  14.746   1.458   7.505
 1307POPC   NC319403   4.010  12.754   9.475
 1307POPC   PO419404   4.574  12.703   9.566
 1307POPC   GL119405   4.385  12.886   9.157
 1307POPC   GL219406   4.053  13.060   9.072
 1307POPC   C1A19407   4.439  12.758   8.730
 1307POPC   D2A19408   4.694  12.863   8.374
 1307POPC   C3A19409   4.436  13.012   8.084
 1307POPC   C4A19410   4.232  12.761   7.766
 1307POPC   C1B19411   4.218  13.241   8.713
 1307POPC   C2B19412   4.035  13.292   8.327
 1307POPC   C3B19413   3.962  13.167   7.943
 1307POPC   C4B19414   4.284  13.262   7.651
 1308POPC   NC319415  31.630  28.820   9.490
 1308POPC   PO419416  31.038  29.114   9.457
 1308POPC   GL119417  31.278  29.255   9.068
 1308POPC   GL219418  31.495  29.016   9.055
 1308POPC   C1A19419  31.559  29.435   8.733
 1308POPC   D2A19420  31.692  29.287   8.304
 1308POPC   C3A19421  31.357  29.212   7.981
 1308POPC   C4A19422  31.292  29.360   7.534
 1308POPC   C1B19423  31.639  28.905   8.676
 1308POPC   C2B19424  31.564  28.710   8.282
 1308POPC   C3B19425  31.503  28.751   7.857
 1308POPC   C4B19426  31.676  29.025   7.518
 1309POPC   NC319427  10.011  23.690   9.376
 1309POPC   PO419428  10.678  23.602   9.493
 1309POPC   GL119429  10.513  23.534   9.121
 1309POPC   GL219430  10.779  23.296   9.020
 1309POPC   C1A19431  10.396  23.786   8.769
 1309POPC   D2A19432  10.515  23.958   8.361
 1309POPC   C3A19433  10.409  23.767   7.955
 1309POPC   C4A19434  10.502  23.880   7.529
 1309POPC   C1B19435  10.896  23.668   8.801
 1309POPC   C2B19436  10.999  23.793   8.411
 1309POPC   C3B19437  10.911  24.018   8.028
 1309POPC   C4B19438  10.942  24.139   7.607
 1310POPC   NC319439  41.119  35.840   9.467
 1310POPC   PO419440  41.736  36.326   9.449
 1310POPC   GL119441  41.465  36.326   9.105
 1310POPC   GL219442  41.160  36.149   9.078
 1310POPC   C1A19443  41.580  36.149   8.725
 1310POPC   D2A19444  41.823  35.950   8.424
 1310POPC   C3A19445  41.737  36.195   8.100
 1310POPC   C4A19446  41.789  36.275   7.727
 1310POPC   C1B19447  41.090  35.949   8.699
 1310POPC   C2B19448  41.302  36.022   8.302
 1310POPC   C3B19449  41.371  35.948   7.859
 1310POPC   C4B19450  41.144  35.725   7.524
 1311POPC   NC319451  22.923  10.973   9.468
 1311POPC   PO419452  22.900  11.604   9.545
 1311POPC   GL119453  22.834  11.370   9.134
 1311POPC   GL219454  23.090  11.084   9.006
 1311POPC   C1A19455  22.886  11.460   8.698
 1311POPC   D2A19456  23.003  11.312   8.320
 1311POPC   C3A19457  22.975  11.576   7.965
 1311POPC   C4A19458  23.200  11.414   7.631
 1311POPC   C1B19459  22.682  10.968   8.788
 1311POPC   C2B19460  22.596  10.993   8.328
 1311POPC   C3B19461  22.789  11.095   7.912
 1311POPC   C4B19462  22.643  10.887   7.574
 1312POPC   NC319463  23.021  30.880   9.508
 1312POPC   PO419464  22.597  30.356   9.597
 1312POPC   GL119465  22.770  30.537   9.199
 1312POPC   GL219466  23.099  30.421   9.174
 1312POPC   C1A19467  22.962  30.756   8.812
 1312POPC   D2A19468  22.948  30.616   8.374
 1312POPC   C3A19469  23.127  30.805   7.980
 1312POPC   C4A19470  22.777  31.009   7.796
 1312POPC   C1B19471  22.963  30.231   8.771
 1312POPC   C2B19472  23.073  30.104   8.345
 1312POPC   C3B19473  22.971  30.325   7.943
 1312POPC   C4B19474  23.116  30.494   7.510
 1313POPC   NC319475  25.500  30.243   9.401
 1313POPC   PO419476  25.222  30.761   9.642
 1313POPC   GL119477  25.144  30.675   9.221
 1313POPC   GL219478  24.981  30.986   9.147
 1313POPC   C1A19479  25.324  30.575   8.827
 1313POPC   D2A19480  25.506  30.515   8.429
 1313POPC   C3A19481  25.264  30.530   8.059
 1313POPC   C4A19482  25.371  30.615   7.674
 1313POPC   C1B19483  24.862  30.809   8.752
 1313POPC   C2B19484  25.118  30.867   8.404
 1313POPC   C3B19485  25.315  31.024   8.006
 1313POPC   C4B19486  25.101  31.030   7.618
 1314POPC   NC319487  28.228  35.811   9.588
 1314POPC   PO419488  28.784  35.358   9.542
 1314POPC   GL119489  28.583  35.488   9.190
 1314POPC   GL219490  28.228  35.603   9.129
 1314POPC   C1A19491  28.713  35.456   8.779
 1314POPC   D2A19492  28.766  35.223   8.434
 1314POPC   C3A19493  28.538  35.360   8.055
 1314POPC   C4A19494  28.624  35.164   7.671
 1314POPC   C1B19495  28.071  35.506   8.721
 1314POPC   C2B19496  28.087  35.654   8.296
 1314POPC   C3B19497  28.045  35.643   7.844
 1314POPC   C4B19498  28.082  35.459   7.437
 1315POPC   NC319499  18.672  10.547   9.593
 1315POPC   PO419500  18.097  10.235   9.663
 1315POPC   GL119501  18.035  10.484   9.246
 1315POPC   GL219502  18.343  10.604   9.143
 1315POPC   C1A19503  17.868  10.525   8.803
 1315POPC   D2A19504  18.074  10.689   8.407
 1315POPC   C3A19505  17.985  10.442   8.035
 1315POPC   C4A19506  17.956  10.524   7.587
 1315POPC   C1B19507  18.367  10.399   8.754
 1315POPC   C2B19508  18.509  10.324   8.345
 1315POPC   C3B19509  18.470  10.435   7.911
 1315POPC   C4B19510  18.413  10.340   7.478
 1316POPC   NC319511   8.963   7.090   9.454
 1316POPC   PO419512   9.233   7.697   9.548
 1316POPC   GL119513   9.132   7.659   9.108
 1316POPC   GL219514   8.977   7.327   8.982
 1316POPC   C1A19515   9.267   7.602   8.664
 1316POPC   D2A19516   9.072   7.281   8.394
 1316POPC   C3A19517   8.967   7.471   8.022
 1316POPC   C4A19518   9.234   7.773   7.770
 1316POPC   C1B19519   8.711   7.070   8.681
 1316POPC   C2B19520   8.742   6.793   8.316
 1316POPC   C3B19521   8.807   6.921   7.886
 1316POPC   C4B19522   9.180   7.050   7.829
 1317POPC   NC319523  29.723   6.885   9.511
 1317POPC   PO419524  29.715   7.522   9.712
 1317POPC   GL119525  29.847   7.363   9.305
 1317POPC   GL219526  30.218   7.288   9.239
 1317POPC   C1A19527  29.743   7.270   8.882
 1317POPC   D2A19528  29.718   7.418   8.462
 1317POPC   C3A19529  29.771   7.078   8.186
 1317POPC   C4A19530  30.055   7.105   7.865
 1317POPC   C1B19531  30.238   7.446   8.800
 1317POPC   C2B19532  30.243   7.329   8.354
 1317POPC   C3B19533  30.104   7.597   8.031
 1317POPC   C4B19534  30.001   7.554   7.601
 1318POPC   NC319535  21.585  36.534   9.535
 1318POPC   PO419536  21.319  35.952   9.517
 1318POPC   GL119537  21.326  36.008   9.103
 1318POPC   GL219538  21.640  35.851   9.109
 1318POPC   C1A19539  21.304  36.056   8.643
 1318POPC   D2A19540  21.172  35.772   8.302
 1318POPC   C3A19541  21.093  35.974   7.899
 1318POPC   C4A19542  21.173  36.341   7.637
 1318POPC   C1B19543  21.811  35.722   8.749
 1318POPC   C2B19544  21.686  35.832   8.369
 1318POPC   C3B19545  21.523  36.144   8.131
 1318POPC   C4B19546  21.662  36.149   7.723
 1319POPC   NC319547  23.301  21.360   9.587
 1319POPC   PO419548  22.795  21.698   9.725
 1319POPC   GL119549  22.883  21.608   9.259
 1319POPC   GL219550  23.028  21.273   9.136
 1319POPC   C1A19551  23.055  21.714   8.824
 1319POPC   D2A19552  23.060  21.458   8.465
 1319POPC   C3A19553  23.122  21.478   8.024
 1319POPC   C4A19554  23.018  21.411   7.599
 1319POPC   C1B19555  23.125  21.042   8.741
 1319POPC   C2B19556  23.166  20.994   8.278
 1319POPC   C3B19557  22.949  20.995   7.915
 1319POPC   C4B19558  22.935  20.922   7.450
 1320POPC   NC319559  43.473  27.016   9.467
 1320POPC   PO419560  44.162  26.959   9.421
 1320POPC   GL119561  43.941  26.648   9.146
 1320POPC   GL219562  43.604  26.471   9.191
 1320POPC   C1A19563  43.972  26.709   8.721
 1320POPC   D2A19564  43.965  27.013   8.406
 1320POPC   C3A19565  44.057  26.817   8.005
 1320POPC   C4A19566  44.077  27.039   7.596
 1320POPC   C1B19567  43.448  26.656   8.829
 1320POPC   C2B19568  43.578  26.621   8.417
 1320POPC   C3B19569  43.442  26.736   8.039
 1320POPC   C4B19570  43.679  26.731   7.668
 1321POPC   NC319571  31.184   9.016   9.596
 1321POPC   PO419572  31.869   8.828   9.480
 1321POPC   GL119573  31.527   8.945   9.231
 1321POPC   GL219574  31.254   8.743   9.094
 1321POPC   C1A19575  31.454   9.183   8.877
 1321POPC   D2A19576  31.542   9.054   8.465
 1321POPC   C3A19577  31.402   9.264   8.109
 1321POPC   C4A19578  31.308   9.174   7.714
 1321POPC   C1B19579  31.603   8.657   8.801
 1321POPC   C2B19580  31.568   8.559   8.368
 1321POPC   C3B19581  31.389   8.761   8.012
 1321POPC   C4B19582  31.467   8.704   7.590
 1322POPC   NC319583  14.751  31.958   9.596
 1322POPC   PO419584  15.351  32.226   9.845
 1322POPC   GL119585  15.301  32.180   9.345
 1322POPC   GL219586  15.032  32.361   9.198
 1322POPC   C1A19587  15.411  32.014   8.917
 1322POPC   D2A19588  15.255  31.899   8.503
 1322POPC   C3A19589  15.445  32.119   8.163
 1322POPC   C4A19590  15.553  32.112   7.770
 1322POPC   C1B19591  14.939  32.197   8.815
 1322POPC   C2B19592  15.098  32.371   8.448
 1322POPC   C3B19593  14.987  32.296   8.044
 1322POPC   C4B19594  14.898  32.453   7.680
 1323POPC   NC319595  22.258  41.985   9.559
 1323POPC   PO419596  22.051  42.535   9.836
 1323POPC   GL119597  22.386  42.398   9.349
 1323POPC   GL219598  22.165  42.193   9.108
 1323POPC   C1A19599  22.491  42.505   8.896
 1323POPC   D2A19600  22.469  42.281   8.497
 1323POPC   C3A19601  22.508  42.450   8.079
 1323POPC   C4A19602  22.298  42.563   7.689
 1323POPC   C1B19603  21.980  42.170   8.695
 1323POPC   C2B19604  21.881  42.027   8.277
 1323POPC   C3B19605  22.093  42.151   7.883
 1323POPC   C4B19606  22.171  42.147   7.382
 1324POPC   NC319607  40.204   2.562   9.521
 1324POPC   PO419608  39.554   2.883   9.596
 1324POPC   GL119609  39.812   2.772   9.240
 1324POPC   GL219610  40.111   2.970   9.209
 1324POPC   C1A19611  39.923   2.621   8.839
 1324POPC   D2A19612  39.774   2.754   8.439
 1324POPC   C3A19613  39.998   2.892   8.094
 1324POPC   C4A19614  39.876   2.706   7.719
 1324POPC   C1B19615  40.360   2.942   8.826
 1324POPC   C2B19616  40.308   2.673   8.477
 1324POPC   C3B19617  40.459   2.657   8.089
 1324POPC   C4B19618  40.368   2.809   7.700
 1325POPC   NC319619  18.537  17.497   9.510
 1325POPC   PO419620  17.895  17.677   9.519
 1325POPC   GL119621  18.136  17.476   9.195
 1325POPC   GL219622  18.397  17.708   9.078
 1325POPC   C1A19623  18.029  17.582   8.779
 1325POPC   D2A19624  18.015  17.421   8.410
 1325POPC   C3A19625  17.920  17.681   8.073
 1325POPC   C4A19626  18.069  17.458   7.730
 1325POPC   C1B19627  18.552  17.621   8.670
 1325POPC   C2B19628  18.446  17.663   8.240
 1325POPC   C3B19629  18.653  17.855   7.917
 1325POPC   C4B19630  18.567  17.524   7.668
 1326POPC   NC319631   4.743  28.988   9.632
 1326POPC   PO419632   4.290  28.689   9.172
 1326POPC   GL119633   4.303  29.081   9.011
 1326POPC   GL219634   4.242  29.380   9.213
 1326POPC   C1A19635   4.413  29.286   8.662
 1326POPC   D2A19636   4.312  29.246   8.266
 1326POPC   C3A19637   4.261  28.834   8.099
 1326POPC   C4A19638   4.209  28.692   7.668
 1326POPC   C1B19639   3.971  29.482   8.843
 1326POPC   C2B19640   4.009  29.644   8.427
 1326POPC   C3B19641   3.951  29.508   8.022
 1326POPC   C4B19642   4.184  29.217   7.773
 1327POPC   NC319643  40.685   0.542   9.221
 1327POPC   PO419644  41.065   0.128   9.656
 1327POPC   GL119645  41.039   0.148   9.178
 1327POPC   GL219646  40.748   0.113   8.925
 1327POPC   C1A19647  41.116   0.401   8.767
 1327POPC   D2A19648  41.009   0.188   8.389
 1327POPC   C3A19649  40.900   0.495   8.097
 1327POPC   C4A19650  41.046   0.470   7.692
 1327POPC   C1B19651  40.666   0.517   8.591
 1327POPC   C2B19652  40.682   0.934   8.317
 1327POPC   C3B19653  40.566   0.875   7.880
 1327POPC   C4B19654  40.522   0.462   7.717
 1328POPC   NC319655  19.551  25.461   9.496
 1328POPC   PO419656  20.259  25.186   9.473
 1328POPC   GL119657  19.953  25.308   9.185
 1328POPC   GL219658  19.683  25.062   9.152
 1328POPC   C1A19659  19.958  25.249   8.764
 1328POPC   D2A19660  19.740  25.147   8.427
 1328POPC   C3A19661  19.833  25.442   8.105
 1328POPC   C4A19662  20.098  25.440   7.747
 1328POPC   C1B19663  19.395  25.164   8.819
 1328POPC   C2B19664  19.152  25.215   8.470
 1328POPC   C3B19665  19.363  25.214   8.105
 1328POPC   C4B19666  19.633  25.148   7.725
 1329POPC   NC319667  14.252   7.584   9.463
 1329POPC   PO419668  14.868   7.881   9.373
 1329POPC   GL119669  14.649   7.509   9.136
 1329POPC   GL219670  14.681   7.125   9.081
 1329POPC   C1A19671  14.538   7.435   8.701
 1329POPC   D2A19672  14.780   7.661   8.416
 1329POPC   C3A19673  14.558   7.900   8.130
 1329POPC   C4A19674  14.536   7.596   7.823
 1329POPC   C1B19675  14.205   7.142   8.980
 1329POPC   C2B19676  14.021   7.154   8.571
 1329POPC   C3B19677  14.221   7.347   8.212
 1329POPC   C4B19678  14.213   7.214   7.787
 1330POPC   NC319679  26.571  23.052   9.649
 1330POPC   PO419680  26.946  22.571   9.471
 1330POPC   GL119681  26.822  22.927   9.190
 1330POPC   GL219682  26.460  23.050   9.159
 1330POPC   C1A19683  26.773  23.037   8.757
 1330POPC   D2A19684  26.846  23.264   8.415
 1330POPC   C3A19685  26.801  23.110   8.022
 1330POPC   C4A19686  26.862  23.318   7.636
 1330POPC   C1B19687  26.420  22.694   8.882
 1330POPC   C2B19688  26.487  22.767   8.438
 1330POPC   C3B19689  26.333  22.774   8.032
 1330POPC   C4B19690  26.473  22.577   7.636
 1331POPC   NC319691  13.201  29.481   9.474
 1331POPC   PO419692  13.749  29.238   9.187
 1331POPC   GL119693  13.677  28.913   8.949
 1331POPC   GL219694  14.020  28.901   8.895
 1331POPC   C1A19695  13.472  28.906   8.589
 1331POPC   D2A19696  13.328  29.186   8.322
 1331POPC   C3A19697  13.364  29.081   7.916
 1331POPC   C4A19698  13.170  29.259   7.571
 1331POPC   C1B19699  13.940  29.124   8.531
 1331POPC   C2B19700  13.800  28.946   8.182
 1331POPC   C3B19701  13.872  28.912   7.781
 1331POPC   C4B19702  13.942  28.910   7.312
 1332POPC   NC319703  31.021  23.173   9.512
 1332POPC   PO419704  30.503  22.730   9.676
 1332POPC   GL119705  30.592  22.649   9.197
 1332POPC   GL219706  30.818  22.901   9.113
 1332POPC   C1A19707  30.528  22.636   8.720
 1332POPC   D2A19708  30.720  22.810   8.288
 1332POPC   C3A19709  30.431  22.846   7.921
 1332POPC   C4A19710  30.394  22.680   7.510
 1332POPC   C1B19711  31.013  22.862   8.706
 1332POPC   C2B19712  31.210  23.177   8.447
 1332POPC   C3B19713  31.121  23.207   8.040
 1332POPC   C4B19714  30.903  23.004   7.707
 1333POPC   NC319715   8.407  11.801   9.512
 1333POPC   PO419716   7.920  12.361   9.453
 1333POPC   GL119717   8.123  12.062   9.171
 1333POPC   GL219718   8.449  12.204   9.166
 1333POPC   C1A19719   8.293  11.787   8.824
 1333POPC   D2A19720   8.461  11.805   8.385
 1333POPC   C3A19721   8.155  11.873   8.066
 1333POPC   C4A19722   8.170  11.982   7.630
 1333POPC   C1B19723   8.218  12.304   8.728
 1333POPC   C2B19724   8.295  12.332   8.280
 1333POPC   C3B19725   8.414  12.361   7.855
 1333POPC   C4B19726   8.416  12.362   7.400
 1334POPC   NC319727  20.236  44.984   9.430
 1334POPC   PO419728  20.663   0.506   9.532
 1334POPC   GL119729  20.912   0.326   9.187
 1334POPC   GL219730  20.608   0.170   9.128
 1334POPC   C1A19731  21.071   0.376   8.782
 1334POPC   D2A19732  20.871   0.586   8.420
 1334POPC   C3A19733  20.993   0.604   8.002
 1334POPC   C4A19734  20.905   0.489   7.566
 1334POPC   C1B19735  20.557   0.479   8.825
 1334POPC   C2B19736  20.416   0.341   8.429
 1334POPC   C3B19737  20.503   0.430   8.017
 1334POPC   C4B19738  20.452   0.140   7.690
 1335POPC   NC319739  36.487  36.910   9.528
 1335POPC   PO419740  35.892  36.692   9.711
 1335POPC   GL119741  36.056  36.816   9.239
 1335POPC   GL219742  36.202  37.148   9.179
 1335POPC   C1A19743  36.243  36.839   8.770
 1335POPC   D2A19744  36.154  36.795   8.307
 1335POPC   C3A19745  36.426  36.810   7.941
 1335POPC   C4A19746  36.486  36.542   7.545
 1335POPC   C1B19747  36.280  37.359   8.792
 1335POPC   C2B19748  36.199  37.296   8.358
 1335POPC   C3B19749  36.020  37.192   7.952
 1335POPC   C4B19750  35.819  37.128   7.543
 1336POPC   NC319751  42.932   9.858   9.568
 1336POPC   PO419752  42.787   9.182   9.501
 1336POPC   GL119753  42.934   9.232   9.116
 1336POPC   GL219754  43.098   9.551   9.162
 1336POPC   C1A19755  42.842   9.425   8.730
 1336POPC   D2A19756  42.827   9.646   8.341
 1336POPC   C3A19757  43.148   9.599   8.052
 1336POPC   C4A19758  43.066   9.422   7.657
 1336POPC   C1B19759  43.241   9.733   8.777
 1336POPC   C2B19760  43.102  10.031   8.501
 1336POPC   C3B19761  43.116  10.184   8.102
 1336POPC   C4B19762  43.235   9.995   7.747
 1337POPC   NC319763  33.809  13.247   9.623
 1337POPC   PO419764  33.813  12.621   9.560
 1337POPC   GL119765  33.734  12.726   9.152
 1337POPC   GL219766  33.748  12.362   9.106
 1337POPC   C1A19767  33.545  12.944   8.777
 1337POPC   D2A19768  33.321  12.804   8.380
 1337POPC   C3A19769  33.579  13.003   8.065
 1337POPC   C4A19770  34.061  13.059   8.075
 1337POPC   C1B19771  33.663  12.462   8.711
 1337POPC   C2B19772  33.832  12.708   8.389
 1337POPC   C3B19773  33.846  12.567   7.953
 1337POPC   C4B19774  33.688  12.517   7.534
 1338POPC   NC319775  29.381  20.392   9.891
 1338POPC   PO419776  29.494  20.625   9.347
 1338POPC   GL119777  29.179  20.587   9.127
 1338POPC   GL219778  29.062  20.295   9.250
 1338POPC   C1A19779  29.076  20.761   8.774
 1338POPC   D2A19780  29.269  20.755   8.393
 1338POPC   C3A19781  28.996  20.781   8.029
 1338POPC   C4A19782  29.207  20.917   7.664
 1338POPC   C1B19783  28.822  20.296   8.862
 1338POPC   C2B19784  28.887  20.419   8.433
 1338POPC   C3B19785  28.698  20.334   8.049
 1338POPC   C4B19786  28.653  20.407   7.641
 1339POPC   NC319787  35.930   9.159   9.398
 1339POPC   PO419788  36.455   8.903   9.474
 1339POPC   GL119789  36.209   8.837   9.093
 1339POPC   GL219790  36.278   9.178   9.027
 1339POPC   C1A19791  36.040   8.869   8.667
 1339POPC   D2A19792  36.241   8.718   8.284
 1339POPC   C3A19793  36.097   8.651   7.869
 1339POPC   C4A19794  36.380   8.827   7.567
 1339POPC   C1B19795  36.492   9.389   8.715
 1339POPC   C2B19796  36.373   9.217   8.355
 1339POPC   C3B19797  36.196   9.142   7.947
 1339POPC   C4B19798  35.818   9.258   7.794
 1340POPC   NC319799  31.378  34.137   9.378
 1340POPC   PO419800  31.400  33.579   9.803
 1340POPC   GL119801  31.495  33.514   9.311
 1340POPC   GL219802  31.175  33.527   9.084
 1340POPC   C1A19803  31.625  33.696   8.868
 1340POPC   D2A19804  31.384  33.538   8.464
 1340POPC   C3A19805  31.550  33.663   8.077
 1340POPC   C4A19806  31.823  34.017   7.966
 1340POPC   C1B19807  31.152  33.896   8.763
 1340POPC   C2B19808  31.127  33.985   8.323
 1340POPC   C3B19809  31.097  33.841   7.904
 1340POPC   C4B19810  31.047  33.726   7.465
 1341POPC   NC319811  41.521  12.261   9.645
 1341POPC   PO419812  41.567  12.953   9.594
 1341POPC   GL119813  41.561  12.805   9.199
 1341POPC   GL219814  41.296  13.008   9.034
 1341POPC   C1A19815  41.833  12.766   8.852
 1341POPC   D2A19816  41.810  12.992   8.488
 1341POPC   C3A19817  41.787  12.840   8.090
 1341POPC   C4A19818  41.624  12.731   7.649
 1341POPC   C1B19819  41.352  13.181   8.628
 1341POPC   C2B19820  41.425  13.223   8.186
 1341POPC   C3B19821  41.264  13.087   7.790
 1341POPC   C4B19822  41.146  12.780   7.446
 1342POPC   NC319823  19.553  27.912   9.632
 1342POPC   PO419824  19.823  27.326   9.537
 1342POPC   GL119825  19.680  27.589   9.219
 1342POPC   GL219826  19.960  27.793   9.120
 1342POPC   C1A19827  19.679  27.576   8.764
 1342POPC   D2A19828  19.764  27.837   8.430
 1342POPC   C3A19829  19.682  27.626   8.057
 1342POPC   C4A19830  19.572  27.831   7.693
 1342POPC   C1B19831  20.178  27.540   8.781
 1342POPC   C2B19832  20.238  27.644   8.345
 1342POPC   C3B19833  20.111  27.874   7.999
 1342POPC   C4B19834  20.063  27.653   7.662
 1343POPC   NC319835  18.398  40.589   9.835
 1343POPC   PO419836  18.015  41.098   9.494
 1343POPC   GL119837  18.244  40.797   9.249
 1343POPC   GL219838  18.144  40.466   9.250
 1343POPC   C1A19839  18.436  40.827   8.845
 1343POPC   D2A19840  18.347  41.058   8.491
 1343POPC   C3A19841  18.474  40.914   8.088
 1343POPC   C4A19842  18.310  40.994   7.680
 1343POPC   C1B19843  17.996  40.569   8.801
 1343POPC   C2B19844  18.028  40.506   8.332
 1343POPC   C3B19845  18.121  40.551   7.880
 1343POPC   C4B19846  18.042  40.407   7.444
 1344POPC   NC319847   0.806  42.525   9.435
 1344POPC   PO419848   0.133  42.503   9.359
 1344POPC   GL119849   0.444  42.436   9.064
 1344POPC   GL219850   0.728  42.169   9.090
 1344POPC   C1A19851   0.435  42.207   8.701
 1344POPC   D2A19852   0.228  42.021   8.443
 1344POPC   C3A19853   0.322  42.284   8.123
 1344POPC   C4A19854   0.375  42.190   7.709
 1344POPC   C1B19855   0.862  42.506   8.773
 1344POPC   C2B19856   0.791  42.399   8.357
 1344POPC   C3B19857   0.818  42.251   7.941
 1344POPC   C4B19858   0.778  42.358   7.486
 1345POPC   NC319859  18.841  36.628   9.600
 1345POPC   PO419860  18.164  36.856   9.628
 1345POPC   GL119861  18.314  36.924   9.173
 1345POPC   GL219862  18.248  37.289   9.075
 1345POPC   C1A19863  18.393  36.768   8.764
 1345POPC   D2A19864  18.288  36.460   8.465
 1345POPC   C3A19865  18.332  36.623   8.049
 1345POPC   C4A19866  18.229  36.848   7.659
 1345POPC   C1B19867  18.592  37.263   8.749
 1345POPC   C2B19868  18.552  37.069   8.332
 1345POPC   C3B19869  18.250  37.199   8.020
 1345POPC   C4B19870  18.261  37.381   7.591
 1346POPC   NC319871   5.708  38.204   9.456
 1346POPC   PO419872   6.223  38.555   9.790
 1346POPC   GL119873   6.039  38.553   9.297
 1346POPC   GL219874   6.175  38.309   9.099
 1346POPC   C1A19875   5.806  38.724   8.883
 1346POPC   D2A19876   5.810  38.555   8.454
 1346POPC   C3A19877   5.661  38.712   8.092
 1346POPC   C4A19878   5.608  38.593   7.698
 1346POPC   C1B19879   5.812  38.189   8.805
 1346POPC   C2B19880   5.647  38.055   8.396
 1346POPC   C3B19881   5.801  38.133   7.964
 1346POPC   C4B19882   5.567  38.116   7.543
 1347POPC   NC319883   2.358  17.466   9.389
 1347POPC   PO419884   2.902  17.261   9.732
 1347POPC   GL119885   2.842  17.308   9.249
 1347POPC   GL219886   2.774  17.674   9.151
 1347POPC   C1A19887   2.940  17.389   8.778
 1347POPC   D2A19888   3.007  17.246   8.358
 1347POPC   C3A19889   2.739  17.482   8.085
 1347POPC   C4A19890   2.838  17.651   7.704
 1347POPC   C1B19891   2.623  17.841   8.762
 1347POPC   C2B19892   2.441  17.819   8.355
 1347POPC   C3B19893   2.229  17.759   7.952
 1347POPC   C4B19894   2.296  17.692   7.503
 1348POPC   NC319895  38.324  44.473   9.683
 1348POPC   PO419896  38.604   0.170   9.663
 1348POPC   GL119897  38.521  44.958   9.229
 1348POPC   GL219898  38.448  44.583   9.165
 1348POPC   C1A19899  38.599  44.967   8.785
 1348POPC   D2A19900  38.462  44.598   8.571
 1348POPC   C3A19901  38.378  44.647   8.140
 1348POPC   C4A19902  38.328  44.404   7.760
 1348POPC   C1B19903  38.578  44.192   8.917
 1348POPC   C2B19904  38.730  44.158   8.485
 1348POPC   C3B19905  38.744  44.302   8.059
 1348POPC   C4B19906  38.850  44.287   7.638
 1349POPC   NC319907   5.462  36.031   9.385
 1349POPC   PO419908   4.861  36.224   9.635
 1349POPC   GL119909   5.066  36.373   9.284
 1349POPC   GL219910   4.882  36.144   9.076
 1349POPC   C1A19911   5.245  36.469   8.873
 1349POPC   D2A19912   5.108  36.190   8.536
 1349POPC   C3A19913   5.274  36.243   8.116
 1349POPC   C4A19914   5.283  36.369   7.656
 1349POPC   C1B19915   4.629  35.997   8.728
 1349POPC   C2B19916   4.640  36.151   8.308
 1349POPC   C3B19917   4.781  36.305   7.926
 1349POPC   C4B19918   5.014  35.959   7.767
 1350POPC   NC319919  18.501  30.774   9.532
 1350POPC   PO419920  17.869  31.052   9.499
 1350POPC   GL119921  18.138  30.806   9.173
 1350POPC   GL219922  18.379  30.562   9.079
 1350POPC   C1A19923  18.058  30.812   8.711
 1350POPC   D2A19924  18.111  31.042   8.318
 1350POPC   C3A19925  18.138  30.802   7.910
 1350POPC   C4A19926  18.144  30.398   7.706
 1350POPC   C1B19927  18.571  30.645   8.700
 1350POPC   C2B19928  18.514  30.684   8.267
 1350POPC   C3B19929  18.600  30.536   7.852
 1350POPC   C4B19930  18.912  30.639   7.528
 1351POPC   NC319931  40.694  30.855   9.668
 1351POPC   PO419932  40.631  30.074   9.563
 1351POPC   GL119933  40.657  30.491   9.300
 1351POPC   GL219934  40.972  30.715   9.231
 1351POPC   C1A19935  40.592  30.696   8.876
 1351POPC   D2A19936  40.559  30.925   8.491
 1351POPC   C3A19937  40.693  30.767   8.121
 1351POPC   C4A19938  40.777  30.410   7.870
 1351POPC   C1B19939  41.105  30.723   8.776
 1351POPC   C2B19940  41.085  30.984   8.389
 1351POPC   C3B19941  41.012  31.150   7.923
 1351POPC   C4B19942  40.999  31.028   7.380
 1352POPC   NC319943   6.332   6.691   9.387
 1352POPC   PO419944   5.734   6.314   9.511
 1352POPC   GL119945   5.885   6.550   9.175
 1352POPC   GL219946   5.622   6.726   9.082
 1352POPC   C1A19947   6.100   6.732   8.790
 1352POPC   D2A19948   6.399   6.583   8.493
 1352POPC   C3A19949   6.166   6.544   8.102
 1352POPC   C4A19950   6.080   6.903   7.822
 1352POPC   C1B19951   5.667   6.475   8.700
 1352POPC   C2B19952   5.721   6.702   8.303
 1352POPC   C3B19953   5.664   6.607   7.867
 1352POPC   C4B19954   5.601   6.291   7.548
 1353POPC   NC319955   8.085  28.723   9.652
 1353POPC   PO419956   8.363  29.294   9.487
 1353POPC   GL119957   8.134  29.051   9.271
 1353POPC   GL219958   8.408  28.807   9.218
 1353POPC   C1A19959   8.019  29.028   8.892
 1353POPC   D2A19960   8.169  28.813   8.561
 1353POPC   C3A19961   8.240  29.068   8.233
 1353POPC   C4A19962   8.096  29.074   7.853
 1353POPC   C1B19963   8.533  29.071   8.860
 1353POPC   C2B19964   8.723  29.035   8.447
 1353POPC   C3B19965   8.725  29.133   8.006
 1353POPC   C4B19966   8.499  29.280   7.631
 1354POPC   NC319967  33.313  29.959   9.274
 1354POPC   PO419968  33.931  30.077   9.501
 1354POPC   GL119969  33.789  29.916   9.118
 1354POPC   GL219970  33.710  30.239   8.983
 1354POPC   C1A19971  33.961  29.836   8.738
 1354POPC   D2A19972  33.902  30.118   8.417
 1354POPC   C3A19973  33.882  29.862   8.079
 1354POPC   C4A19974  34.052  29.713   7.706
 1354POPC   C1B19975  33.591  30.518   8.630
 1354POPC   C2B19976  33.308  30.471   8.279
 1354POPC   C3B19977  33.431  30.140   7.986
 1354POPC   C4B19978  33.769  30.159   7.658
 1355POPC   NC319979  27.386  39.539   9.562
 1355POPC   PO419980  27.673  40.185   9.655
 1355POPC   GL119981  27.710  40.094   9.258
 1355POPC   GL219982  27.759  39.758   9.248
 1355POPC   C1A19983  27.467  40.159   8.899
 1355POPC   D2A19984  27.423  39.957   8.510
 1355POPC   C3A19985  27.703  40.125   8.179
 1355POPC   C4A19986  27.503  40.173   7.770
 1355POPC   C1B19987  27.618  39.606   8.878
 1355POPC   C2B19988  27.727  39.563   8.467
 1355POPC   C3B19989  27.523  39.677   8.075
 1355POPC   C4B19990  27.658  39.674   7.680
 1356POPC   NC319991  31.606  35.797   9.486
 1356POPC   PO419992  31.260  35.177   9.558
 1356POPC   GL119993  31.160  35.209   9.128
 1356POPC   GL219994  31.231  35.580   9.111
 1356POPC   C1A19995  31.427  35.119   8.759
 1356POPC   D2A19996  31.467  34.992   8.314
 1356POPC   C3A19997  31.730  35.154   7.973
 1356POPC   C4A19998  31.641  35.151   7.489
 1356POPC   C1B19999  31.058  35.505   8.721
 1356POPC   C2B20000  30.952  35.475   8.295
 1356POPC   C3B20001  31.287  35.436   8.005
 1356POPC   C4B20002  31.376  35.601   7.615
 1357POPC   NC320003  11.832   9.686   9.523
 1357POPC   PO420004  12.466   9.842   9.498
 1357POPC   GL120005  12.137   9.711   9.118
 1357POPC   GL220006  11.720   9.740   9.043
 1357POPC   C1A20007  12.060   9.616   8.660
 1357POPC   D2A20008  11.840   9.606   8.223
 1357POPC   C3A20009  12.041   9.607   7.802
 1357POPC   C4A20010  12.455   9.600   7.618
 1357POPC   C1B20011  11.847  10.056   8.754
 1357POPC   C2B20012  12.043  10.061   8.364
 1357POPC   C3B20013  11.929  10.101   7.944
 1357POPC   C4B20014  11.741   9.991   7.568
 1358POPC   NC320015  13.143  12.748   9.503
 1358POPC   PO420016  12.676  13.319   9.409
 1358POPC   GL120017  12.942  13.072   9.082
 1358POPC   GL220018  13.082  12.698   9.021
 1358POPC   C1A20019  13.091  13.069   8.660
 1358POPC   D2A20020  13.010  13.278   8.288
 1358POPC   C3A20021  13.020  13.065   7.928
 1358POPC   C4A20022  13.085  13.096   7.503
 1358POPC   C1B20023  12.771  12.677   8.716
 1358POPC   C2B20024  12.836  12.737   8.290
 1358POPC   C3B20025  12.698  12.655   7.915
 1358POPC   C4B20026  12.866  12.654   7.514
 1359POPC   NC320027  19.389  15.247   9.456
 1359POPC   PO420028  20.034  14.964   9.484
 1359POPC   GL120029  19.814  15.142   9.163
 1359POPC   GL220030  19.547  14.883   9.131
 1359POPC   C1A20031  19.849  15.440   8.810
 1359POPC   D2A20032  19.617  15.468   8.414
 1359POPC   C3A20033  19.818  15.350   8.023
 1359POPC   C4A20034  20.023  15.038   7.797
 1359POPC   C1B20035  19.497  15.072   8.756
 1359POPC   C2B20036  19.494  14.800   8.419
 1359POPC   C3B20037  19.315  14.859   8.030
 1359POPC   C4B20038  19.355  15.251   7.817
 1360POPC   NC320039  15.193  27.937   9.549
 1360POPC   PO420040  15.195  28.555   9.608
 1360POPC   GL120041  15.127  28.328   9.224
 1360POPC   GL220042  14.813  28.312   9.140
 1360POPC   C1A20043  15.270  28.125   8.833
 1360POPC   D2A20044  15.388  28.375   8.461
 1360POPC   C3A20045  15.324  28.218   8.014
 1360POPC   C4A20046  15.454  28.095   7.574
 1360POPC   C1B20047  14.937  28.526   8.762
 1360POPC   C2B20048  14.759  28.637   8.366
 1360POPC   C3B20049  14.892  28.509   7.985
 1360POPC   C4B20050  14.926  28.208   7.687
 1361POPC   NC320051  18.980   8.651   9.811
 1361POPC   PO420052  18.967   8.086   9.434
 1361POPC   GL120053  19.339   8.173   9.155
 1361POPC   GL220054  19.045   8.122   8.931
 1361POPC   C1A20055  19.495   8.011   8.747
 1361POPC   D2A20056  19.132   7.988   8.446
 1361POPC   C3A20057  19.153   8.221   8.080
 1361POPC   C4A20058  18.841   8.201   7.780
 1361POPC   C1B20059  18.804   8.369   8.636
 1361POPC   C2B20060  18.683   8.420   8.226
 1361POPC   C3B20061  18.793   8.717   7.967
 1361POPC   C4B20062  18.834   8.648   7.535
 1362POPC   NC320063  42.088  23.361   9.326
 1362POPC   PO420064  42.428  23.010   9.786
 1362POPC   GL120065  42.436  23.005   9.225
 1362POPC   GL220066  42.138  23.046   8.943
 1362POPC   C1A20067  42.577  22.933   8.773
 1362POPC   D2A20068  42.457  23.177   8.411
 1362POPC   C3A20069  42.428  22.866   8.074
 1362POPC   C4A20070  42.060  22.780   7.856
 1362POPC   C1B20071  42.010  23.401   8.668
 1362POPC   C2B20072  41.930  23.317   8.250
 1362POPC   C3B20073  42.205  23.291   7.923
 1362POPC   C4B20074  42.335  23.099   7.532
 1363POPC   NC320075  35.620   2.959   9.496
 1363POPC   PO420076  35.202   2.352   9.506
 1363POPC   GL120077  35.400   2.598   9.194
 1363POPC   GL220078  35.767   2.565   9.195
 1363POPC   C1A20079  35.298   2.914   8.891
 1363POPC   D2A20080  35.327   3.252   8.597
 1363POPC   C3A20081  35.403   3.043   8.221
 1363POPC   C4A20082  35.315   2.836   7.838
 1363POPC   C1B20083  35.781   2.809   8.800
 1363POPC   C2B20084  35.874   2.831   8.346
 1363POPC   C3B20085  35.861   2.864   7.886
 1363POPC   C4B20086  35.662   2.835   7.458
 1364POPC   NC320087  42.645   8.683   9.485
 1364POPC   PO420088  42.072   9.002   9.685
 1364POPC   GL120089  42.292   8.993   9.271
 1364POPC   GL220090  41.995   9.184   9.192
 1364POPC   C1A20091  42.430   9.124   8.822
 1364POPC   D2A20092  42.614   9.169   8.363
 1364POPC   C3A20093  42.610   9.261   7.938
 1364POPC   C4A20094  42.589   8.878   7.752
 1364POPC   C1B20095  42.000   8.849   8.894
 1364POPC   C2B20096  42.007   9.012   8.487
 1364POPC   C3B20097  42.202   8.971   8.088
 1364POPC   C4B20098  42.068   8.937   7.680
 1365POPC   NC320099   1.073   0.764   9.497
 1365POPC   PO420100   1.403   0.197   9.533
 1365POPC   GL120101   1.213   0.369   9.204
 1365POPC   GL220102   1.533   0.451   9.082
 1365POPC   C1A20103   1.060   0.452   8.830
 1365POPC   D2A20104   1.211   0.348   8.434
 1365POPC   C3A20105   0.987   0.519   8.127
 1365POPC   C4A20106   1.067   0.426   7.735
 1365POPC   C1B20107   1.591   0.173   8.744
 1365POPC   C2B20108   1.787   0.211   8.367
 1365POPC   C3B20109   1.574   0.374   8.038
 1365POPC   C4B20110   1.523   0.676   7.728
 1366POPC   NC320111  19.691  26.173   9.666
 1366POPC   PO420112  20.034  25.648   9.561
 1366POPC   GL120113  20.007  25.874   9.158
 1366POPC   GL220114  19.694  25.913   9.205
 1366POPC   C1A20115  19.874  26.037   8.722
 1366POPC   D2A20116  19.628  26.195   8.349
 1366POPC   C3A20117  19.741  26.130   7.909
 1366POPC   C4A20118  19.522  26.157   7.473
 1366POPC   C1B20119  19.612  25.617   8.880
 1366POPC   C2B20120  19.464  25.611   8.463
 1366POPC   C3B20121  19.431  25.753   8.051
 1366POPC   C4B20122  19.645  25.672   7.657
 1367POPC   NC320123   8.151  26.462   9.512
 1367POPC   PO420124   8.148  25.792   9.458
 1367POPC   GL120125   7.967  25.847   9.070
 1367POPC   GL220126   7.810  26.152   9.195
 1367POPC   C1A20127   8.318  25.817   8.822
 1367POPC   D2A20128   8.550  25.939   8.538
 1367POPC   C3A20129   8.371  26.005   8.155
 1367POPC   C4A20130   8.168  25.745   7.865
 1367POPC   C1B20131   8.029  26.331   8.846
 1367POPC   C2B20132   7.986  26.462   8.414
 1367POPC   C3B20133   8.167  26.468   8.015
 1367POPC   C4B20134   8.236  26.217   7.682
 1368POPC   NC320135  19.431   1.774   9.433
 1368POPC   PO420136  18.814   2.146   9.403
 1368POPC   GL120137  19.052   1.962   9.087
 1368POPC   GL220138  18.790   2.046   8.886
 1368POPC   C1A20139  19.245   1.950   8.683
 1368POPC   D2A20140  19.037   2.102   8.308
 1368POPC   C3A20141  19.214   1.920   7.952
 1368POPC   C4A20142  19.305   2.003   7.548
 1368POPC   C1B20143  18.634   1.738   8.690
 1368POPC   C2B20144  18.571   1.559   8.329
 1368POPC   C3B20145  18.716   1.760   7.973
 1368POPC   C4B20146  18.840   1.750   7.564
 1369POPC   NC320147  40.797  42.184   9.466
 1369POPC   PO420148  40.686  42.846   9.592
 1369POPC   GL120149  40.863  42.683   9.199
 1369POPC   GL220150  41.160  42.474   9.207
 1369POPC   C1A20151  40.809  42.423   8.819
 1369POPC   D2A20152  40.620  42.334   8.430
 1369POPC   C3A20153  40.664  42.548   8.027
 1369POPC   C4A20154  40.419  42.316   7.744
 1369POPC   C1B20155  41.309  42.303   8.811
 1369POPC   C2B20156  41.120  42.227   8.429
 1369POPC   C3B20157  41.250  42.248   8.029
 1369POPC   C4B20158  41.080  42.495   7.704
 1370POPC   NC320159  35.614  42.596   9.601
 1370POPC   PO420160  35.199  43.144   9.450
 1370POPC   GL120161  35.322  43.074   9.089
 1370POPC   GL220162  35.651  42.948   9.202
 1370POPC   C1A20163  35.218  43.118   8.632
 1370POPC   D2A20164  35.335  43.227   8.198
 1370POPC   C3A20165  35.208  42.949   7.772
 1370POPC   C4A20166  35.190  42.921   7.263
 1370POPC   C1B20167  35.707  43.148   8.793
 1370POPC   C2B20168  35.664  42.911   8.427
 1370POPC   C3B20169  35.668  42.922   7.994
 1370POPC   C4B20170  35.824  43.327   7.866
 1371POPC   NC320171   0.482   5.439   9.347
 1371POPC   PO420172   0.842   4.993   9.860
 1371POPC   GL120173   0.792   4.984   9.369
 1371POPC   GL220174   0.431   4.933   9.261
 1371POPC   C1A20175   0.789   4.973   8.888
 1371POPC   D2A20176   0.547   4.879   8.508
 1371POPC   C3A20177   0.626   5.014   8.083
 1371POPC   C4A20178   0.300   5.263   7.868
 1371POPC   C1B20179   0.215   4.723   8.905
 1371POPC   C2B20180   0.138   4.549   8.476
 1371POPC   C3B20181   0.174   4.699   8.047
 1371POPC   C4B20182  44.934   4.943   7.746
 1372POPC   NC320183  35.539  40.782   9.691
 1372POPC   PO420184  36.287  40.788   9.590
 1372POPC   GL120185  36.100  40.785   9.198
 1372POPC   GL220186  36.301  41.073   9.123
 1372POPC   C1A20187  36.086  40.601   8.768
 1372POPC   D2A20188  36.300  40.676   8.381
 1372POPC   C3A20189  36.144  40.477   8.020
 1372POPC   C4A20190  36.376  40.326   7.682
 1372POPC   C1B20191  36.023  41.111   8.787
 1372POPC   C2B20192  36.006  41.212   8.380
 1372POPC   C3B20193  36.175  41.051   8.034
 1372POPC   C4B20194  36.219  40.826   7.663
 1373POPC   NC320195  35.265  28.808   9.821
 1373POPC   PO420196  35.595  28.300   9.448
 1373POPC   GL120197  35.548  28.376   9.029
 1373POPC   GL220198  35.202  28.508   8.951
 1373POPC   C1A20199  35.585  28.510   8.595
 1373POPC   D2A20200  35.501  28.343   8.200
 1373POPC   C3A20201  35.535  28.613   7.855
 1373POPC   C4A20202  35.208  28.930   7.861
 1373POPC   C1B20203  35.257  28.066   8.738
 1373POPC   C2B20204  35.079  27.833   8.379
 1373POPC   C3B20205  34.967  28.005   7.987
 1373POPC   C4B20206  35.074  28.427   7.875
 1374POPC   NC320207  35.160   1.038   9.510
 1374POPC   PO420208  35.680   1.504   9.533
 1374POPC   GL120209  35.512   1.219   9.179
 1374POPC   GL220210  35.470   0.847   9.147
 1374POPC   C1A20211  35.491   1.196   8.762
 1374POPC   D2A20212  35.684   1.290   8.410
 1374POPC   C3A20213  35.409   1.486   8.167
 1374POPC   C4A20214  35.671   1.454   7.862
 1374POPC   C1B20215  35.245   0.744   8.714
 1374POPC   C2B20216  35.199   1.021   8.327
 1374POPC   C3B20217  35.294   1.061   7.852
 1374POPC   C4B20218  35.231   0.987   7.384
 1375POPC   NC320219  35.448   7.690   9.415
 1375POPC   PO420220  35.047   7.128   9.261
 1375POPC   GL120221  35.423   7.299   9.097
 1375POPC   GL220222  35.276   7.607   8.951
 1375POPC   C1A20223  35.711   7.369   8.754
 1375POPC   D2A20224  35.492   7.200   8.412
 1375POPC   C3A20225  35.451   7.444   8.061
 1375POPC   C4A20226  35.637   7.645   7.740
 1375POPC   C1B20227  35.087   7.617   8.543
 1375POPC   C2B20228  34.946   7.578   8.128
 1375POPC   C3B20229  35.125   7.740   7.744
 1375POPC   C4B20230  35.041   7.719   7.270
 1376POPC   NC320231  32.665   3.389   9.447
 1376POPC   PO420232  33.362   3.197   9.437
 1376POPC   GL120233  33.093   3.556   9.191
 1376POPC   GL220234  32.892   3.843   9.338
 1376POPC   C1A20235  32.879   3.521   8.809
 1376POPC   D2A20236  32.694   3.471   8.442
 1376POPC   C3A20237  32.866   3.561   8.054
 1376POPC   C4A20238  32.727   3.400   7.693
 1376POPC   C1B20239  32.900   4.004   8.934
 1376POPC   C2B20240  32.935   3.938   8.485
 1376POPC   C3B20241  32.874   4.079   8.077
 1376POPC   C4B20242  32.847   3.925   7.673
 1377POPC   NC320243  32.045  13.890   9.810
 1377POPC   PO420244  32.430  14.376   9.571
 1377POPC   GL120245  32.203  14.441   9.210
 1377POPC   GL220246  32.540  14.394   9.053
 1377POPC   C1A20247  32.139  14.539   8.771
 1377POPC   D2A20248  32.501  14.560   8.487
 1377POPC   C3A20249  32.394  14.658   8.054
 1377POPC   C4A20250  32.105  14.393   7.817
 1377POPC   C1B20251  32.706  14.132   8.737
 1377POPC   C2B20252  32.559  14.037   8.316
 1377POPC   C3B20253  32.682  13.963   7.877
 1377POPC   C4B20254  32.545  14.280   7.575
 1378POPC   NC320255  40.450  25.194   9.338
 1378POPC   PO420256  41.012  25.548   9.477
 1378POPC   GL120257  40.890  25.373   9.088
 1378POPC   GL220258  40.890  25.010   9.069
 1378POPC   C1A20259  40.721  25.383   8.669
 1378POPC   D2A20260  40.525  25.224   8.287
 1378POPC   C3A20261  40.607  25.446   7.911
 1378POPC   C4A20262  40.339  25.587   7.573
 1378POPC   C1B20263  41.088  25.005   8.643
 1378POPC   C2B20264  41.031  25.248   8.244
 1378POPC   C3B20265  41.016  25.134   7.812
 1378POPC   C4B20266  41.110  24.849   7.472
 1379POPC   NC320267   6.594  31.185   9.474
 1379POPC   PO420268   6.339  31.806   9.593
 1379POPC   GL120269   6.655  31.763   9.210
 1379POPC   GL220270   6.693  31.414   9.039
 1379POPC   C1A20271   6.557  31.790   8.732
 1379POPC   D2A20272   6.491  31.500   8.364
 1379POPC   C3A20273   6.882  31.453   8.127
 1379POPC   C4A20274   7.004  31.727   7.788
 1379POPC   C1B20275   6.709  31.144   8.683
 1379POPC   C2B20276   6.505  30.857   8.396
 1379POPC   C3B20277   6.525  31.023   7.998
 1379POPC   C4B20278   6.315  31.052   7.616
 1380POPC   NC320279  29.867  30.285   9.385
 1380POPC   PO420280  29.934  29.608   9.518
 1380POPC   GL120281  30.058  29.848   9.166
 1380POPC   GL220282  29.714  29.873   9.108
 1380POPC   C1A20283  30.063  30.077   8.764
 1380POPC   D2A20284  30.068  29.971   8.302
 1380POPC   C3A20285  30.199  29.961   7.842
 1380POPC   C4A20286  30.008  29.883   7.416
 1380POPC   C1B20287  29.555  30.138   8.766
 1380POPC   C2B20288  29.405  30.171   8.342
 1380POPC   C3B20289  29.632  30.070   8.004
 1380POPC   C4B20290  29.569  29.903   7.636
 1381POPC   NC320291  43.364  36.824   9.159
 1381POPC   PO420292  42.808  37.150   9.465
 1381POPC   GL120293  42.898  37.005   9.082
 1381POPC   GL220294  42.883  36.626   9.109
 1381POPC   C1A20295  43.117  37.225   8.719
 1381POPC   D2A20296  43.268  37.029   8.359
 1381POPC   C3A20297  43.079  37.137   7.981
 1381POPC   C4A20298  43.193  37.025   7.619
 1381POPC   C1B20299  42.926  36.715   8.667
 1381POPC   C2B20300  42.744  36.883   8.316
 1381POPC   C3B20301  42.771  36.736   7.918
 1381POPC   C4B20302  42.983  36.555   7.607
 1382POPC   NC320303  27.827  10.412   9.623
 1382POPC   PO420304  28.512  10.370   9.616
 1382POPC   GL120305  28.464  10.512   9.213
 1382POPC   GL220306  28.121  10.561   9.226
 1382POPC   C1A20307  28.570  10.684   8.817
 1382POPC   D2A20308  28.721  10.676   8.412
 1382POPC   C3A20309  28.631  10.446   8.082
 1382POPC   C4A20310  28.560  10.603   7.663
 1382POPC   C1B20311  28.062  10.654   8.797
 1382POPC   C2B20312  28.201  10.499   8.392
 1382POPC   C3B20313  28.142  10.489   7.940
 1382POPC   C4B20314  28.173  10.289   7.529
 1383POPC   NC320315  26.301  34.348   9.834
 1383POPC   PO420316  25.768  34.619   9.596
 1383POPC   GL120317  26.009  34.490   9.255
 1383POPC   GL220318  25.821  34.181   9.233
 1383POPC   C1A20319  26.216  34.604   8.847
 1383POPC   D2A20320  26.039  34.558   8.420
 1383POPC   C3A20321  26.269  34.616   8.030
 1383POPC   C4A20322  26.168  34.405   7.654
 1383POPC   C1B20323  25.765  34.308   8.820
 1383POPC   C2B20324  25.790  34.095   8.443
 1383POPC   C3B20325  25.843  34.239   8.040
 1383POPC   C4B20326  25.757  34.062   7.652
 1384POPC   NC320327  30.435  29.724   9.503
 1384POPC   PO420328  31.097  30.036   9.552
 1384POPC   GL120329  30.878  30.116   9.155
 1384POPC   GL220330  30.539  30.046   9.054
 1384POPC   C1A20331  30.990  30.143   8.741
 1384POPC   D2A20332  30.972  30.042   8.291
 1384POPC   C3A20333  30.569  30.199   8.082
 1384POPC   C4A20334  30.546  30.404   7.696
 1384POPC   C1B20335  30.526  30.055   8.578
 1384POPC   C2B20336  30.551  29.725   8.262
 1384POPC   C3B20337  30.636  29.641   7.823
 1384POPC   C4B20338  30.523  29.900   7.448
 1385POPC   NC320339  29.999   2.382   9.540
 1385POPC   PO420340  30.247   3.022   9.478
 1385POPC   GL120341  29.930   2.898   9.180
 1385POPC   GL220342  29.779   2.552   9.115
 1385POPC   C1A20343  29.767   2.965   8.762
 1385POPC   D2A20344  29.859   3.120   8.368
 1385POPC   C3A20345  29.951   2.933   7.987
 1385POPC   C4A20346  30.190   2.888   7.580
 1385POPC   C1B20347  30.103   2.579   8.802
 1385POPC   C2B20348  29.983   2.518   8.401
 1385POPC   C3B20349  30.214   2.522   8.015
 1385POPC   C4B20350  30.249   2.366   7.669
 1386POPC   NC320351  39.620  42.369   9.511
 1386POPC   PO420352  40.311  42.182   9.337
 1386POPC   GL120353  39.914  42.143   9.124
 1386POPC   GL220354  39.806  42.464   9.023
 1386POPC   C1A20355  39.909  42.089   8.682
 1386POPC   D2A20356  40.123  42.210   8.320
 1386POPC   C3A20357  39.997  42.041   7.946
 1386POPC   C4A20358  39.939  42.255   7.592
 1386POPC   C1B20359  40.192  42.513   8.750
 1386POPC   C2B20360  40.266  42.695   8.345
 1386POPC   C3B20361  40.086  42.641   7.943
 1386POPC   C4B20362  39.686  42.650   7.769
 1387POPC   NC320363  18.276   0.201   9.475
 1387POPC   PO420364  18.164   0.858   9.641
 1387POPC   GL120365  18.259   0.768   9.183
 1387POPC   GL220366  18.302   0.401   9.025
 1387POPC   C1A20367  18.280   0.784   8.731
 1387POPC   D2A20368  18.151   0.424   8.500
 1387POPC   C3A20369  18.124   0.455   8.052
 1387POPC   C4A20370  18.161   0.555   7.606
 1387POPC   C1B20371  18.632   0.416   8.698
 1387POPC   C2B20372  18.686   0.592   8.276
 1387POPC   C3B20373  18.630   0.459   7.829
 1387POPC   C4B20374  18.487   0.213   7.426
 1388POPC   NC320375  22.191   1.700   9.464
 1388POPC   PO420376  22.439   2.206   9.161
 1388POPC   GL120377  22.313   1.839   8.984
 1388POPC   GL220378  21.955   1.860   9.058
 1388POPC   C1A20379  22.186   1.913   8.585
 1388POPC   D2A20380  22.243   2.163   8.244
 1388POPC   C3A20381  22.200   1.889   7.916
 1388POPC   C4A20382  22.182   2.144   7.582
 1388POPC   C1B20383  21.810   2.184   8.776
 1388POPC   C2B20384  21.748   2.112   8.335
 1388POPC   C3B20385  21.769   2.202   7.886
 1388POPC   C4B20386  21.522   2.233   7.512
 1389POPC   NC320387  24.298  25.088   9.498
 1389POPC   PO420388  24.899  25.310   9.492
 1389POPC   GL120389  24.569  25.394   9.159
 1389POPC   GL220390  24.289  25.153   9.011
 1389POPC   C1A20391  24.654  25.348   8.731
 1389POPC   D2A20392  24.696  25.558   8.411
 1389POPC   C3A20393  24.771  25.365   8.088
 1389POPC   C4A20394  24.721  25.266   7.705
 1389POPC   C1B20395  24.078  25.439   8.763
 1389POPC   C2B20396  23.946  25.334   8.341
 1389POPC   C3B20397  24.257  25.391   7.993
 1389POPC   C4B20398  24.248  25.351   7.552
 1390POPC   NC320399  32.640  38.783   9.535
 1390POPC   PO420400  33.037  38.180   9.671
 1390POPC   GL120401  32.926  38.370   9.273
 1390POPC   GL220402  33.152  38.581   9.103
 1390POPC   C1A20403  32.807  38.264   8.871
 1390POPC   D2A20404  33.052  38.235   8.495
 1390POPC   C3A20405  32.900  38.339   8.079
 1390POPC   C4A20406  33.107  38.166   7.735
 1390POPC   C1B20407  33.243  38.806   8.756
 1390POPC   C2B20408  33.225  38.671   8.353
 1390POPC   C3B20409  33.434  38.349   8.113
 1390POPC   C4B20410  33.609  38.476   7.693
 1391POPC   NC320411  41.321  16.992   9.554
 1391POPC   PO420412  41.673  16.450   9.574
 1391POPC   GL120413  41.540  16.640   9.220
 1391POPC   GL220414  41.725  16.933   9.192
 1391POPC   C1A20415  41.701  16.613   8.801
 1391POPC   D2A20416  41.780  16.790   8.421
 1391POPC   C3A20417  41.487  16.679   8.120
 1391POPC   C4A20418  41.608  16.681   7.729
 1391POPC   C1B20419  41.601  17.131   8.797
 1391POPC   C2B20420  41.391  17.119   8.398
 1391POPC   C3B20421  41.550  17.164   7.961
 1391POPC   C4B20422  41.307  17.070   7.600
 1392POPC   NC320423  34.388  31.105   9.723
 1392POPC   PO420424  34.747  30.519   9.614
 1392POPC   GL120425  34.493  30.614   9.219
 1392POPC   GL220426  34.338  30.927   9.213
 1392POPC   C1A20427  34.607  30.622   8.793
 1392POPC   D2A20428  34.369  30.723   8.391
 1392POPC   C3A20429  34.643  30.835   8.050
 1392POPC   C4A20430  34.748  30.508   7.776
 1392POPC   C1B20431  34.371  31.066   8.788
 1392POPC   C2B20432  34.388  31.217   8.357
 1392POPC   C3B20433  34.265  31.174   7.940
 1392POPC   C4B20434  34.448  30.956   7.571
 1393POPC   NC320435  38.847  34.642   9.504
 1393POPC   PO420436  39.470  34.518   9.560
 1393POPC   GL120437  39.249  34.610   9.194
 1393POPC   GL220438  39.061  34.293   9.164
 1393POPC   C1A20439  39.409  34.803   8.808
 1393POPC   D2A20440  39.448  34.679   8.359
 1393POPC   C3A20441  39.138  34.843   8.080
 1393POPC   C4A20442  39.308  34.945   7.715
 1393POPC   C1B20443  39.184  34.340   8.759
 1393POPC   C2B20444  38.976  34.498   8.425
 1393POPC   C3B20445  38.976  34.356   8.027
 1393POPC   C4B20446  39.322  34.446   7.804
 1394POPC   NC320447  18.747  13.304   9.617
 1394POPC   PO420448  18.226  12.771   9.609
 1394POPC   GL120449  18.179  12.805   9.193
 1394POPC   GL220450  18.522  12.887   9.158
 1394POPC   C1A20451  18.159  13.002   8.783
 1394POPC   D2A20452  17.963  12.854   8.418
 1394POPC   C3A20453  17.964  13.063   8.007
 1394POPC   C4A20454  18.008  12.839   7.614
 1394POPC   C1B20455  18.675  12.903   8.757
 1394POPC   C2B20456  18.464  12.902   8.358
 1394POPC   C3B20457  18.423  12.795   7.930
 1394POPC   C4B20458  18.522  13.198   7.811
 1395POPC   NC320459  10.488  23.158   9.465
 1395POPC   PO420460  10.767  22.572   9.529
 1395POPC   GL120461  10.744  22.796   9.110
 1395POPC   GL220462  10.397  22.884   9.031
 1395POPC   C1A20463  10.695  22.911   8.644
 1395POPC   D2A20464  10.351  22.904   8.350
 1395POPC   C3A20465  10.468  22.710   7.961
 1395POPC   C4A20466  10.883  22.841   7.907
 1395POPC   C1B20467  10.331  23.263   8.749
 1395POPC   C2B20468  10.603  23.425   8.426
 1395POPC   C3B20469  10.568  23.259   8.011
 1395POPC   C4B20470  10.150  23.286   7.840
 1396POPC   NC320471  38.093  31.496   9.456
 1396POPC   PO420472  38.731  31.742   9.747
 1396POPC   GL120473  38.433  31.801   9.281
 1396POPC   GL220474  38.375  31.474   9.047
 1396POPC   C1A20475  38.559  31.855   8.785
 1396POPC   D2A20476  38.264  31.735   8.411
 1396POPC   C3A20477  38.423  31.568   8.000
 1396POPC   C4A20478  38.525  31.779   7.602
 1396POPC   C1B20479  38.277  31.264   8.673
 1396POPC   C2B20480  38.419  30.973   8.351
 1396POPC   C3B20481  38.377  30.984   7.924
 1396POPC   C4B20482  38.002  31.236   7.856
 1397POPC   NC320483  21.668  25.085   9.817
 1397POPC   PO420484  22.217  25.325   9.562
 1397POPC   GL120485  22.348  25.384   9.179
 1397POPC   GL220486  22.458  25.026   9.185
 1397POPC   C1A20487  22.133  25.514   8.785
 1397POPC   D2A20488  21.893  25.355   8.389
 1397POPC   C3A20489  21.879  25.556   7.990
 1397POPC   C4A20490  21.969  25.394   7.561
 1397POPC   C1B20491  22.337  25.064   8.772
 1397POPC   C2B20492  22.400  25.263   8.399
 1397POPC   C3B20493  22.534  25.015   8.067
 1397POPC   C4B20494  22.383  25.031   7.638
 1398POPC   NC320495   2.493  28.491   9.744
 1398POPC   PO420496   2.969  28.045   9.568
 1398POPC   GL120497   2.752  28.384   9.277
 1398POPC   GL220498   2.487  28.548   9.220
 1398POPC   C1A20499   2.753  28.379   8.806
 1398POPC   D2A20500   2.681  28.183   8.399
 1398POPC   C3A20501   2.872  28.398   8.034
 1398POPC   C4A20502   2.933  28.306   7.563
 1398POPC   C1B20503   2.514  28.830   8.849
 1398POPC   C2B20504   2.463  28.672   8.440
 1398POPC   C3B20505   2.447  28.763   8.007
 1398POPC   C4B20506   2.478  28.476   7.690
 1399POPC   NC320507  38.856  31.065   9.519
 1399POPC   PO420508  38.557  30.462   9.426
 1399POPC   GL120509  38.530  30.839   9.204
 1399POPC   GL220510  38.259  31.033   9.293
 1399POPC   C1A20511  38.617  30.857   8.805
 1399POPC   D2A20512  38.540  30.477   8.595
 1399POPC   C3A20513  38.441  30.498   8.173
 1399POPC   C4A20514  38.365  30.464   7.761
 1399POPC   C1B20515  38.114  30.828   8.889
 1399POPC   C2B20516  38.023  30.653   8.471
 1399POPC   C3B20517  37.940  30.735   8.025
 1399POPC   C4B20518  38.028  30.794   7.578
 1400POPC   NC320519  44.189  31.572   9.387
 1400POPC   PO420520  43.757  31.116   9.705
 1400POPC   GL120521  43.700  31.396   9.299
 1400POPC   GL220522  43.943  31.299   9.023
 1400POPC   C1A20523  43.618  31.647   8.882
 1400POPC   D2A20524  43.707  31.408   8.478
 1400POPC   C3A20525  43.645  31.539   8.043
 1400POPC   C4A20526  43.710  31.269   7.696
 1400POPC   C1B20527  44.145  31.635   8.740
 1400POPC   C2B20528  44.379  31.543   8.381
 1400POPC   C3B20529  44.225  31.414   7.996
 1400POPC   C4B20530  44.038  31.635   7.675
 1401POPC   NC320531  17.903  38.100   9.458
 1401POPC   PO420532  18.510  38.433   9.472
 1401POPC   GL120533  18.216  38.385   9.160
 1401POPC   GL220534  18.445  38.201   8.974
 1401POPC   C1A20535  17.983  38.384   8.789
 1401POPC   D2A20536  18.031  38.571   8.398
 1401POPC   C3A20537  18.159  38.315   8.051
 1401POPC   C4A20538  18.141  38.382   7.596
 1401POPC   C1B20539  18.479  38.509   8.656
 1401POPC   C2B20540  18.621  38.477   8.233
 1401POPC   C3B20541  18.636  38.160   7.897
 1401POPC   C4B20542  18.589  38.115   7.443
 1402POPC   NC320543  18.800  21.845   9.495
 1402POPC   PO420544  19.185  22.382   9.531
 1402POPC   GL120545  19.119  22.128   9.174
 1402POPC   GL220546  18.787  22.263   9.160
 1402POPC   C1A20547  19.057  22.199   8.725
 1402POPC   D2A20548  18.934  22.417   8.338
 1402POPC   C3A20549  19.145  22.153   8.071
 1402POPC   C4A20550  19.322  22.229   7.691
 1402POPC   C1B20551  18.591  21.976   8.868
 1402POPC   C2B20552  18.711  21.954   8.424
 1402POPC   C3B20553  18.630  22.027   7.997
 1402POPC   C4B20554  18.601  21.726   7.679
 1403POPC   NC320555  28.157  39.122   9.945
 1403POPC   PO420556  28.676  39.054   9.493
 1403POPC   GL120557  28.491  39.291   9.139
 1403POPC   GL220558  28.216  39.486   9.297
 1403POPC   C1A20559  28.374  39.067   8.762
 1403POPC   D2A20560  28.566  38.983   8.358
 1403POPC   C3A20561  28.484  39.181   7.936
 1403POPC   C4A20562  28.748  39.249   7.560
 1403POPC   C1B20563  28.164  39.547   8.842
 1403POPC   C2B20564  28.171  39.360   8.410
 1403POPC   C3B20565  28.050  39.553   8.033
 1403POPC   C4B20566  28.401  39.669   7.794
 1404POPC   NC320567  13.175  13.464   9.402
 1404POPC   PO420568  12.787  14.042   9.429
 1404POPC   GL120569  13.027  13.909   9.139
 1404POPC   GL220570  12.883  13.597   8.985
 1404POPC   C1A20571  13.073  14.038   8.740
 1404POPC   D2A20572  12.951  13.743   8.481
 1404POPC   C3A20573  13.005  13.757   8.068
 1404POPC   C4A20574  13.213  13.530   7.772
 1404POPC   C1B20575  12.526  13.561   8.665
 1404POPC   C2B20576  12.532  13.527   8.176
 1404POPC   C3B20577  12.664  13.576   7.747
 1404POPC   C4B20578  12.514  13.819   7.358
 1405POPC   NC320579  26.615  13.790   9.463
 1405POPC   PO420580  27.114  13.528   9.405
 1405POPC   GL120581  26.809  13.521   9.073
 1405POPC   GL220582  26.420  13.503   9.100
 1405POPC   C1A20583  26.836  13.636   8.656
 1405POPC   D2A20584  26.989  13.813   8.299
 1405POPC   C3A20585  26.931  13.485   8.020
 1405POPC   C4A20586  27.112  13.144   7.843
 1405POPC   C1B20587  26.400  13.837   8.810
 1405POPC   C2B20588  26.356  13.855   8.379
 1405POPC   C3B20589  26.566  13.837   7.990
 1405POPC   C4B20590  26.847  13.895   7.654
 1406POPC   NC320591   9.744   7.640   9.643
 1406POPC   PO420592  10.008   7.106   9.327
 1406POPC   GL120593   9.626   7.357   9.207
 1406POPC   GL220594   9.645   7.748   9.157
 1406POPC   C1A20595   9.471   7.187   8.840
 1406POPC   D2A20596   9.674   7.222   8.455
 1406POPC   C3A20597   9.480   7.365   8.092
 1406POPC   C4A20598   9.528   7.356   7.631
 1406POPC   C1B20599   9.779   7.657   8.758
 1406POPC   C2B20600   9.870   7.662   8.319
 1406POPC   C3B20601   9.723   7.755   7.897
 1406POPC   C4B20602   9.659   7.834   7.450
 1407POPC   NC320603  21.437  29.081   9.580
 1407POPC   PO420604  21.145  28.587   9.546
 1407POPC   GL120605  21.270  28.863   9.145
 1407POPC   GL220606  21.354  29.265   9.127
 1407POPC   C1A20607  21.340  28.996   8.698
 1407POPC   D2A20608  21.481  29.156   8.304
 1407POPC   C3A20609  21.321  28.831   8.033
 1407POPC   C4A20610  21.420  28.764   7.617
 1407POPC   C1B20611  21.572  29.453   8.749
 1407POPC   C2B20612  21.726  29.636   8.347
 1407POPC   C3B20613  21.616  29.512   7.926
 1407POPC   C4B20614  21.290  29.268   7.771
 1408POPC   NC320615   6.168  36.530   9.389
 1408POPC   PO420616   6.328  37.116   9.552
 1408POPC   GL120617   6.544  37.042   9.170
 1408POPC   GL220618   6.570  36.679   9.080
 1408POPC   C1A20619   6.796  37.089   8.795
 1408POPC   D2A20620   6.688  36.931   8.403
 1408POPC   C3A20621   6.866  36.757   8.053
 1408POPC   C4A20622   6.864  36.951   7.693
 1408POPC   C1B20623   6.284  36.825   8.747
 1408POPC   C2B20624   6.196  36.853   8.321
 1408POPC   C3B20625   6.361  36.839   7.932
 1408POPC   C4B20626   6.429  36.573   7.635
 1409POPC   NC320627  39.240  27.242   9.450
 1409POPC   PO420628  38.994  27.957   9.506
 1409POPC   GL120629  39.051  27.795   9.113
 1409POPC   GL220630  39.047  27.476   9.044
 1409POPC   C1A20631  38.824  27.804   8.721
 1409POPC   D2A20632  38.875  27.586   8.329
 1409POPC   C3A20633  39.099  27.873   8.067
 1409POPC   C4A20634  39.442  27.859   7.792
 1409POPC   C1B20635  39.317  27.631   8.682
 1409POPC   C2B20636  39.403  27.512   8.241
 1409POPC   C3B20637  39.091  27.384   7.893
 1409POPC   C4B20638  39.088  27.153   7.476
 1410POPC   NC320639   9.938  14.587   9.494
 1410POPC   PO420640   9.392  14.187   9.404
 1410POPC   GL120641   9.691  14.332   9.144
 1410POPC   GL220642   9.538  14.659   9.195
 1410POPC   C1A20643   9.738  14.260   8.732
 1410POPC   D2A20644   9.462  14.070   8.436
 1410POPC   C3A20645   9.625  14.230   8.063
 1410POPC   C4A20646  10.069  14.293   8.012
 1410POPC   C1B20647   9.404  14.850   8.835
 1410POPC   C2B20648   9.505  14.643   8.449
 1410POPC   C3B20649   9.630  14.792   8.051
 1410POPC   C4B20650   9.791  14.606   7.679
 1411POPC   NC320651   5.556  35.105   9.352
 1411POPC   PO420652   5.972  35.512   9.758
 1411POPC   GL120653   6.044  35.461   9.279
 1411POPC   GL220654   6.024  35.145   9.153
 1411POPC   C1A20655   5.952  35.497   8.792
 1411POPC   D2A20656   5.781  35.301   8.421
 1411POPC   C3A20657   5.906  35.493   8.030
 1411POPC   C4A20658   5.810  35.537   7.607
 1411POPC   C1B20659   6.063  35.003   8.755
 1411POPC   C2B20660   6.149  34.817   8.389
 1411POPC   C3B20661   5.933  34.985   8.033
 1411POPC   C4B20662   5.905  35.024   7.621
 1412POPC   NC320663  24.682  13.704   9.491
 1412POPC   PO420664  24.174  14.120   9.396
 1412POPC   GL120665  24.462  13.869   9.071
 1412POPC   GL220666  24.467  13.477   9.090
 1412POPC   C1A20667  24.725  13.716   8.717
 1412POPC   D2A20668  24.541  13.599   8.315
 1412POPC   C3A20669  24.685  13.722   7.905
 1412POPC   C4A20670  24.478  13.936   7.556
 1412POPC   C1B20671  24.738  13.216   8.815
 1412POPC   C2B20672  24.910  13.206   8.398
 1412POPC   C3B20673  24.757  13.205   7.958
 1412POPC   C4B20674  24.506  13.369   7.576
 1413POPC   NC320675   4.384  39.095   9.508
 1413POPC   PO420676   4.115  39.772   9.390
 1413POPC   GL120677   4.240  39.409   9.142
 1413POPC   GL220678   4.026  39.051   9.171
 1413POPC   C1A20679   4.471  39.445   8.753
 1413POPC   D2A20680   4.239  39.568   8.403
 1413POPC   C3A20681   4.337  39.385   8.023
 1413POPC   C4A20682   4.114  39.368   7.670
 1413POPC   C1B20683   4.203  39.013   8.776
 1413POPC   C2B20684   4.049  39.077   8.375
 1413POPC   C3B20685   4.118  38.919   7.984
 1413POPC   C4B20686   4.208  38.885   7.557
 1414POPC   NC320687  22.824  28.162   9.505
 1414POPC   PO420688  22.720  28.792   9.478
 1414POPC   GL120689  22.827  28.546   9.157
 1414POPC   GL220690  23.122  28.585   9.054
 1414POPC   C1A20691  22.736  28.385   8.750
 1414POPC   D2A20692  22.465  28.256   8.480
 1414POPC   C3A20693  22.690  28.330   8.182
 1414POPC   C4A20694  22.735  28.326   7.795
 1414POPC   C1B20695  23.211  28.271   8.799
 1414POPC   C2B20696  23.108  28.116   8.417
 1414POPC   C3B20697  23.195  28.275   8.021
 1414POPC   C4B20698  23.175  28.556   7.709
 1415POPC   NC320699  18.875  44.401   9.483
 1415POPC   PO420700  19.463  44.767   9.617
 1415POPC   GL120701  19.203  44.749   9.216
 1415POPC   GL220702  19.452  44.561   9.090
 1415POPC   C1A20703  18.900  44.568   8.868
 1415POPC   D2A20704  18.708  44.693   8.494
 1415POPC   C3A20705  18.764  44.566   8.064
 1415POPC   C4A20706  18.890  44.351   7.715
 1415POPC   C1B20707  19.355  44.565   8.694
 1415POPC   C2B20708  19.209  44.702   8.338
 1415POPC   C3B20709  19.292  44.465   8.004
 1415POPC   C4B20710  19.225  44.735   7.710
 1416POPC   NC320711   4.771   0.971   9.975
 1416POPC   PO420712   4.285   1.062   9.496
 1416POPC   GL120713   4.377   1.042   9.051
 1416POPC   GL220714   4.722   1.223   8.979
 1416POPC   C1A20715   4.575   0.801   8.735
 1416POPC   D2A20716   4.614   0.915   8.315
 1416POPC   C3A20717   4.256   1.144   8.132
 1416POPC   C4A20718   4.233   1.272   7.730
 1416POPC   C1B20719   4.429   1.310   8.608
 1416POPC   C2B20720   4.335   1.652   8.307
 1416POPC   C3B20721   4.401   1.720   7.876
 1416POPC   C4B20722   4.660   1.516   7.539
 1417POPC   NC320723   7.522  21.822   9.314
 1417POPC   PO420724   7.047  22.240   9.550
 1417POPC   GL120725   7.360  22.326   9.196
 1417POPC   GL220726   7.751  22.246   9.102
 1417POPC   C1A20727   7.373  22.251   8.740
 1417POPC   D2A20728   7.184  22.000   8.411
 1417POPC   C3A20729   7.207  22.232   8.023
 1417POPC   C4A20730   7.509  22.367   7.712
 1417POPC   C1B20731   7.810  22.007   8.671
 1417POPC   C2B20732   7.651  21.941   8.212
 1417POPC   C3B20733   7.524  21.870   7.764
 1417POPC   C4B20734   7.513  22.012   7.282
 1418POPC   NC320735  18.707  39.694   9.516
 1418POPC   PO420736  19.419  39.887   9.415
 1418POPC   GL120737  19.030  39.877   9.137
 1418POPC   GL220738  19.162  40.165   8.987
 1418POPC   C1A20739  18.841  39.937   8.668
 1418POPC   D2A20740  18.976  40.227   8.322
 1418POPC   C3A20741  19.054  40.088   7.914
 1418POPC   C4A20742  18.918  39.799   7.610
 1418POPC   C1B20743  19.330  39.778   8.743
 1418POPC   C2B20744  19.240  39.664   8.323
 1418POPC   C3B20745  19.459  39.762   7.934
 1418POPC   C4B20746  19.379  39.608   7.529
 1419POPC   NC320747   0.072  27.885   9.802
 1419POPC   PO420748   0.458  27.426   9.390
 1419POPC   GL120749   0.537  27.743   9.065
 1419POPC   GL220750   0.291  27.508   8.902
 1419POPC   C1A20751   0.424  27.909   8.661
 1419POPC   D2A20752   0.368  27.570   8.375
 1419POPC   C3A20753   0.350  27.749   8.004
 1419POPC   C4A20754   0.531  27.809   7.619
 1419POPC   C1B20755   0.198  27.176   8.673
 1419POPC   C2B20756   0.175  27.039   8.310
 1419POPC   C3B20757   0.241  27.150   7.933
 1419POPC   C4B20758   0.324  27.372   7.619
 1420POPC   NC320759  39.354  21.942   9.645
 1420POPC   PO420760  38.931  22.461   9.409
 1420POPC   GL120761  39.104  22.119   9.173
 1420POPC   GL220762  39.476  22.093   9.173
 1420POPC   C1A20763  39.179  21.962   8.742
 1420POPC   D2A20764  39.323  21.955   8.285
 1420POPC   C3A20765  38.999  21.817   7.947
 1420POPC   C4A20766  39.071  21.822   7.490
 1420POPC   C1B20767  39.419  22.400   8.863
 1420POPC   C2B20768  39.524  22.532   8.473
 1420POPC   C3B20769  39.577  22.381   8.107
 1420POPC   C4B20770  39.360  22.129   7.795
 1421POPC   NC320771  22.011  27.627   9.324
 1421POPC   PO420772  22.406  27.160   9.658
 1421POPC   GL120773  22.482  27.451   9.267
 1421POPC   GL220774  22.497  27.832   9.223
 1421POPC   C1A20775  22.367  27.379   8.816
 1421POPC   D2A20776  22.461  27.272   8.381
 1421POPC   C3A20777  22.153  27.413   8.088
 1421POPC   C4A20778  21.988  27.632   7.743
 1421POPC   C1B20779  22.297  27.899   8.813
 1421POPC   C2B20780  22.136  27.864   8.401
 1421POPC   C3B20781  22.351  27.956   8.022
 1421POPC   C4B20782  22.506  27.628   7.790
 1422POPC   NC320783  13.111  41.120   9.524
 1422POPC   PO420784  12.816  41.688   9.581
 1422POPC   GL120785  12.741  41.710   9.164
 1422POPC   GL220786  12.766  41.351   9.184
 1422POPC   C1A20787  12.623  41.680   8.749
 1422POPC   D2A20788  12.927  41.643   8.402
 1422POPC   C3A20789  12.776  41.671   7.980
 1422POPC   C4A20790  12.965  41.704   7.575
 1422POPC   C1B20791  12.871  41.247   8.798
 1422POPC   C2B20792  12.699  41.203   8.424
 1422POPC   C3B20793  12.524  41.221   8.043
 1422POPC   C4B20794  12.715  41.233   7.665
 1423POPC   NC320795  40.558   4.546   9.615
 1423POPC   PO420796  41.103   4.592   9.241
 1423POPC   GL120797  40.761   4.346   9.088
 1423POPC   GL220798  40.469   4.161   9.265
 1423POPC   C1A20799  40.824   4.309   8.650
 1423POPC   D2A20800  41.056   4.599   8.393
 1423POPC   C3A20801  40.983   4.422   8.011
 1423POPC   C4A20802  40.636   4.481   7.729
 1423POPC   C1B20803  40.442   3.877   8.888
 1423POPC   C2B20804  40.548   3.869   8.463
 1423POPC   C3B20805  40.577   4.132   8.152
 1423POPC   C4B20806  40.367   4.056   7.793
 1424POPC   NC320807  32.175  24.590   9.701
 1424POPC   PO420808  31.515  24.495   9.681
 1424POPC   GL120809  31.392  24.379   9.197
 1424POPC   GL220810  31.077  24.402   9.125
 1424POPC   C1A20811  31.423  24.257   8.747
 1424POPC   D2A20812  31.502  24.316   8.301
 1424POPC   C3A20813  31.457  24.652   8.037
 1424POPC   C4A20814  31.210  24.798   7.712
 1424POPC   C1B20815  30.914  24.216   8.778
 1424POPC   C2B20816  31.033  24.124   8.374
 1424POPC   C3B20817  31.106  24.280   7.944
 1424POPC   C4B20818  31.112  24.303   7.473
 1425POPC   NC320819   9.104  26.431   9.488
 1425POPC   PO420820   9.049  25.675   9.463
 1425POPC   GL120821   9.109  25.881   9.090
 1425POPC   GL220822   8.753  25.996   9.066
 1425POPC   C1A20823   9.050  25.959   8.646
 1425POPC   D2A20824   8.922  26.046   8.242
 1425POPC   C3A20825   9.041  25.846   7.921
 1425POPC   C4A20826   9.059  26.141   7.641
 1425POPC   C1B20827   8.562  26.364   8.825
 1425POPC   C2B20828   8.537  26.461   8.368
 1425POPC   C3B20829   8.670  26.357   7.916
 1425POPC   C4B20830   8.653  26.394   7.447
 1426POPC   NC320831  20.957   2.860   9.474
 1426POPC   PO420832  20.306   2.885   9.379
 1426POPC   GL120833  20.634   2.754   9.086
 1426POPC   GL220834  20.902   2.492   9.093
 1426POPC   C1A20835  20.786   2.832   8.671
 1426POPC   D2A20836  20.583   2.940   8.327
 1426POPC   C3A20837  20.805   2.973   7.962
 1426POPC   C4A20838  20.780   2.799   7.586
 1426POPC   C1B20839  20.610   2.364   8.754
 1426POPC   C2B20840  20.442   2.460   8.382
 1426POPC   C3B20841  20.476   2.586   7.953
 1426POPC   C4B20842  20.264   2.496   7.583
 1427POPC   NC320843  38.149  41.263   9.547
 1427POPC   PO420844  38.578  41.780   9.593
 1427POPC   GL120845  38.392  41.641   9.247
 1427POPC   GL220846  38.744  41.598   9.110
 1427POPC   C1A20847  38.274  41.435   8.868
 1427POPC   D2A20848  38.424  41.303   8.473
 1427POPC   C3A20849  38.320  41.513   8.099
 1427POPC   C4A20850  38.220  41.820   7.800
 1427POPC   C1B20851  38.763  41.231   8.860
 1427POPC   C2B20852  38.953  41.130   8.480
 1427POPC   C3B20853  38.759  41.209   8.088
 1427POPC   C4B20854  38.742  41.510   7.783
 1428POPC   NC320855  17.149   8.515   9.597
 1428POPC   PO420856  16.553   8.218   9.685
 1428POPC   GL120857  16.693   8.231   9.264
 1428POPC   GL220858  16.837   8.564   9.205
 1428POPC   C1A20859  16.598   7.984   8.869
 1428POPC   D2A20860  16.486   8.045   8.442
 1428POPC   C3A20861  16.732   7.957   8.085
 1428POPC   C4A20862  16.442   8.210   7.793
 1428POPC   C1B20863  17.003   8.277   8.882
 1428POPC   C2B20864  17.008   8.262   8.455
 1428POPC   C3B20865  16.798   8.460   8.113
 1428POPC   C4B20866  16.932   8.308   7.724
 1429POPC   NC320867   9.512  22.946   9.516
 1429POPC   PO420868  10.169  22.821   9.480
 1429POPC   GL120869   9.921  23.025   9.135
 1429POPC   GL220870   9.563  23.030   9.027
 1429POPC   C1A20871   9.947  22.940   8.696
 1429POPC   D2A20872   9.898  23.163   8.297
 1429POPC   C3A20873   9.973  22.840   7.994
 1429POPC   C4A20874  10.055  22.764   7.545
 1429POPC   C1B20875   9.444  22.841   8.630
 1429POPC   C2B20876   9.445  22.916   8.182
 1429POPC   C3B20877   9.545  22.908   7.751
 1429POPC   C4B20878   9.355  23.171   7.464
 1430POPC   NC320879  34.850   7.535   9.310
 1430POPC   PO420880  34.180   7.458   9.399
 1430POPC   GL120881  34.423   7.446   9.051
 1430POPC   GL220882  34.534   7.123   9.140
 1430POPC   C1A20883  34.559   7.478   8.637
 1430POPC   D2A20884  34.283   7.443   8.290
 1430POPC   C3A20885  34.468   7.520   7.907
 1430POPC   C4A20886  34.833   7.353   7.659
 1430POPC   C1B20887  34.632   6.972   8.740
 1430POPC   C2B20888  34.789   7.106   8.341
 1430POPC   C3B20889  34.590   7.009   7.979
 1430POPC   C4B20890  34.386   7.127   7.611
 1431POPC   NC320891  24.343   6.377   9.366
 1431POPC   PO420892  24.849   6.734   9.526
 1431POPC   GL120893  24.762   6.607   9.131
 1431POPC   GL220894  24.545   6.935   9.128
 1431POPC   C1A20895  24.561   6.340   8.773
 1431POPC   D2A20896  24.156   6.278   8.545
 1431POPC   C3A20897  24.191   6.361   8.093
 1431POPC   C4A20898  24.526   6.485   7.820
 1431POPC   C1B20899  24.619   6.838   8.713
 1431POPC   C2B20900  24.540   6.651   8.343
 1431POPC   C3B20901  24.436   6.923   8.038
 1431POPC   C4B20902  24.622   6.955   7.678
 1432POPC   NC320903  16.254  41.976   9.505
 1432POPC   PO420904  16.013  42.624   9.532
 1432POPC   GL120905  16.025  42.369   9.141
 1432POPC   GL220906  15.800  42.076   9.049
 1432POPC   C1A20907  15.913  42.394   8.689
 1432POPC   D2A20908  15.797  42.050   8.439
 1432POPC   C3A20909  15.796  42.264   8.081
 1432POPC   C4A20910  16.001  42.318   7.737
 1432POPC   C1B20911  16.226  42.001   8.834
 1432POPC   C2B20912  16.394  41.965   8.413
 1432POPC   C3B20913  16.161  41.855   8.037
 1432POPC   C4B20914  16.206  41.877   7.600
 1433POPC   NC320915  26.654  33.939   9.498
 1433POPC   PO420916  27.288  33.582   9.597
 1433POPC   GL120917  27.080  33.760   9.200
 1433POPC   GL220918  26.755  33.842   9.027
 1433POPC   C1A20919  27.154  33.967   8.777
 1433POPC   D2A20920  26.856  33.961   8.453
 1433POPC   C3A20921  27.019  33.872   8.056
 1433POPC   C4A20922  26.682  33.777   7.830
 1433POPC   C1B20923  26.487  33.672   8.740
 1433POPC   C2B20924  26.552  33.580   8.315
 1433POPC   C3B20925  26.271  33.452   8.015
 1433POPC   C4B20926  26.279  33.474   7.611
 1434POPC   NC320927   1.328   5.960   9.463
 1434POPC   PO420928   0.897   5.460   9.538
 1434POPC   GL120929   0.944   5.778   9.166
 1434POPC   GL220930   0.944   6.138   9.105
 1434POPC   C1A20931   1.265   5.853   8.788
 1434POPC   D2A20932   1.405   5.593   8.402
 1434POPC   C3A20933   1.469   5.821   7.989
 1434POPC   C4A20934   1.415   6.277   7.831
 1434POPC   C1B20935   0.791   6.013   8.718
 1434POPC   C2B20936   0.966   5.867   8.324
 1434POPC   C3B20937   0.993   5.942   7.879
 1434POPC   C4B20938   0.890   6.143   7.494
 1435POPC   NC320939  16.783  18.674   9.594
 1435POPC   PO420940  16.780  19.266   9.304
 1435POPC   GL120941  16.713  18.869   9.117
 1435POPC   GL220942  17.052  18.709   9.161
 1435POPC   C1A20943  16.568  18.954   8.675
 1435POPC   D2A20944  16.863  19.229   8.453
 1435POPC   C3A20945  16.697  19.387   8.101
 1435POPC   C4A20946  16.490  19.224   7.790
 1435POPC   C1B20947  17.052  18.845   8.759
 1435POPC   C2B20948  16.959  18.701   8.367
 1435POPC   C3B20949  16.804  18.890   8.013
 1435POPC   C4B20950  16.952  19.105   7.622
 1436POPC   NC320951  30.204  26.461   9.662
 1436POPC   PO420952  30.622  25.935   9.531
 1436POPC   GL120953  30.736  25.970   9.093
 1436POPC   GL220954  30.960  26.243   8.993
 1436POPC   C1A20955  30.804  25.928   8.650
 1436POPC   D2A20956  30.672  26.045   8.263
 1436POPC   C3A20957  30.835  25.795   7.949
 1436POPC   C4A20958  30.749  26.138   7.716
 1436POPC   C1B20959  30.523  26.336   8.773
 1436POPC   C2B20960  30.294  26.402   8.362
 1436POPC   C3B20961  30.306  26.341   7.881
 1436POPC   C4B20962  30.405  26.422   7.422
 1437POPC   NC320963  20.147   2.455   9.199
 1437POPC   PO420964  19.631   2.179   9.591
 1437POPC   GL120965  19.884   1.949   9.225
 1437POPC   GL220966  20.151   1.690   9.177
 1437POPC   C1A20967  19.760   1.756   8.809
 1437POPC   D2A20968  19.586   1.728   8.365
 1437POPC   C3A20969  19.669   2.101   8.111
 1437POPC   C4A20970  19.782   2.417   7.826
 1437POPC   C1B20971  20.270   1.939   8.823
 1437POPC   C2B20972  20.084   2.091   8.448
 1437POPC   C3B20973  20.195   2.172   8.022
 1437POPC   C4B20974  20.168   1.988   7.623
 1438POPC   NC320975  28.287  20.781   9.540
 1438POPC   PO420976  28.961  20.501   9.718
 1438POPC   GL120977  28.754  20.701   9.366
 1438POPC   GL220978  28.549  20.438   9.267
 1438POPC   C1A20979  28.597  20.805   8.927
 1438POPC   D2A20980  28.668  20.883   8.475
 1438POPC   C3A20981  28.287  20.932   8.266
 1438POPC   C4A20982  28.333  20.717   7.896
 1438POPC   C1B20983  28.224  20.399   8.944
 1438POPC   C2B20984  28.087  20.518   8.527
 1438POPC   C3B20985  28.096  20.275   8.143
 1438POPC   C4B20986  28.172  20.283   7.713
 1439POPC   NC320987   3.698  15.286   9.538
 1439POPC   PO420988   3.164  15.529   9.457
 1439POPC   GL120989   3.383  15.304   9.130
 1439POPC   GL220990   3.355  14.955   9.113
 1439POPC   C1A20991   3.493  15.342   8.705
 1439POPC   D2A20992   3.244  15.341   8.343
 1439POPC   C3A20993   3.446  15.392   7.949
 1439POPC   C4A20994   3.338  15.625   7.580
 1439POPC   C1B20995   3.500  14.808   8.720
 1439POPC   C2B20996   3.623  14.971   8.289
 1439POPC   C3B20997   3.526  14.736   7.899
 1439POPC   C4B20998   3.517  14.774   7.424
 1440POPC   NC320999  12.830  10.091   9.609
 1440POPC   PO421000  13.176   9.531   9.434
 1440POPC   GL121001  12.929   9.824   9.160
 1440POPC   GL221002  12.658  10.104   9.125
 1440POPC   C1A21003  12.783   9.681   8.777
 1440POPC   D2A21004  12.713   9.322   8.492
 1440POPC   C3A21005  12.738   9.464   8.033
 1440POPC   C4A21006  12.860   9.878   7.801
 1440POPC   C1B21007  12.381  10.009   8.786
 1440POPC   C2B21008  12.461   9.760   8.395
 1440POPC   C3B21009  12.399   9.898   8.019
 1440POPC   C4B21010  12.424  10.143   7.665
 1441POPC   NC321011   3.952  25.871   9.547
 1441POPC   PO421012   3.446  26.336   9.499
 1441POPC   GL121013   3.684  26.173   9.183
 1441POPC   GL221014   3.681  25.841   9.136
 1441POPC   C1A21015   3.648  26.301   8.756
 1441POPC   D2A21016   3.813  26.280   8.344
 1441POPC   C3A21017   3.549  26.265   7.975
 1441POPC   C4A21018   3.222  26.173   7.634
 1441POPC   C1B21019   3.416  25.834   8.807
 1441POPC   C2B21020   3.512  25.874   8.381
 1441POPC   C3B21021   3.389  25.789   7.965
 1441POPC   C4B21022   3.646  25.886   7.614
 1442POPC   NC321023  20.987  20.415   9.342
 1442POPC   PO421024  21.517  20.429   9.802
 1442POPC   GL121025  21.522  20.490   9.289
 1442POPC   GL221026  21.808  20.286   9.171
 1442POPC   C1A21027  21.317  20.556   8.801
 1442POPC   D2A21028  21.072  20.628   8.399
 1442POPC   C3A21029  21.304  20.746   8.048
 1442POPC   C4A21030  21.157  20.773   7.643
 1442POPC   C1B21031  21.833  20.570   8.796
 1442POPC   C2B21032  21.902  20.582   8.358
 1442POPC   C3B21033  21.813  20.388   7.993
 1442POPC   C4B21034  21.693  20.674   7.721
 1443POPC   NC321035  36.157   2.704   9.780
 1443POPC   PO421036  36.230   3.230   9.414
 1443POPC   GL121037  36.205   2.860   9.148
 1443POPC   GL221038  36.497   2.623   9.221
 1443POPC   C1A21039  36.271   2.768   8.694
 1443POPC   D2A21040  36.327   2.571   8.307
 1443POPC   C3A21041  36.331   2.605   7.834
 1443POPC   C4A21042  36.179   2.808   7.466
 1443POPC   C1B21043  36.675   2.950   8.924
 1443POPC   C2B21044  36.717   2.947   8.483
 1443POPC   C3B21045  36.603   2.979   8.084
 1443POPC   C4B21046  36.596   3.022   7.658
 1444POPC   NC321047   8.944  38.747   9.334
 1444POPC   PO421048   8.750  38.092   9.409
 1444POPC   GL121049   9.003  38.264   9.128
 1444POPC   GL221050   8.900  38.525   8.891
 1444POPC   C1A21051   9.178  38.130   8.755
 1444POPC   D2A21052   8.894  38.232   8.436
 1444POPC   C3A21053   9.082  38.088   8.105
 1444POPC   C4A21054   9.227  38.279   7.771
 1444POPC   C1B21055   9.196  38.860   8.769
 1444POPC   C2B21056   9.013  38.902   8.436
 1444POPC   C3B21057   9.057  38.646   8.117
 1444POPC   C4B21058   9.185  38.791   7.723
 1445POPC   NC321059   4.803  28.049   9.540
 1445POPC   PO421060   5.276  28.586   9.630
 1445POPC   GL121061   5.110  28.449   9.271
 1445POPC   GL221062   5.251  28.728   9.101
 1445POPC   C1A21063   5.042  28.162   8.940
 1445POPC   D2A21064   5.068  28.073   8.527
 1445POPC   C3A21065   4.764  28.184   8.228
 1445POPC   C4A21066   4.955  28.321   7.849
 1445POPC   C1B21067   5.140  28.587   8.691
 1445POPC   C2B21068   5.230  28.568   8.270
 1445POPC   C3B21069   5.096  28.804   7.918
 1445POPC   C4B21070   5.073  28.685   7.488
 1446POPC   NC321071  17.878   1.115   9.388
 1446POPC   PO421072  18.472   1.381   9.649
 1446POPC   GL121073  18.333   1.285   9.205
 1446POPC   GL221074  18.036   1.402   9.022
 1446POPC   C1A21075  18.431   1.277   8.744
 1446POPC   D2A21076  18.407   1.066   8.328
 1446POPC   C3A21077  18.475   1.274   7.925
 1446POPC   C4A21078  18.495   0.922   7.674
 1446POPC   C1B21079  17.919   1.124   8.687
 1446POPC   C2B21080  17.932   0.862   8.334
 1446POPC   C3B21081  18.049   0.982   7.938
 1446POPC   C4B21082  17.959   1.398   7.755
 1447POPC   NC321083   1.726  38.588   9.445
 1447POPC   PO421084   2.208  38.166   9.439
 1447POPC   GL121085   2.338  38.426   9.097
 1447POPC   GL221086   2.045  38.642   9.059
 1447POPC   C1A21087   2.300  38.503   8.655
 1447POPC   D2A21088   2.024  38.408   8.318
 1447POPC   C3A21089   2.172  38.704   8.041
 1447POPC   C4A21090   2.450  38.723   7.695
 1447POPC   C1B21091   1.738  38.438   8.784
 1447POPC   C2B21092   1.620  38.122   8.482
 1447POPC   C3B21093   1.544  38.223   8.061
 1447POPC   C4B21094   1.777  38.484   7.790
 1448POPC   NC321095  30.650  22.280   9.555
 1448POPC   PO421096  30.515  21.618   9.628
 1448POPC   GL121097  30.479  21.934   9.228
 1448POPC   GL221098  30.825  22.066   9.137
 1448POPC   C1A21099  30.510  22.106   8.765
 1448POPC   D2A21100  30.758  22.298   8.426
 1448POPC   C3A21101  30.652  22.117   8.076
 1448POPC   C4A21102  30.605  21.778   7.860
 1448POPC   C1B21103  30.953  22.392   8.890
 1448POPC   C2B21104  31.254  22.400   8.521
 1448POPC   C3B21105  31.165  22.288   8.073
 1448POPC   C4B21106  30.858  22.523   7.837
 1449POPC   NC321107   9.238  32.896   9.437
 1449POPC   PO421108   8.536  32.953   9.355
 1449POPC   GL121109   8.820  33.155   9.184
 1449POPC   GL221110   8.938  32.854   9.028
 1449POPC   C1A21111   8.795  33.255   8.754
 1449POPC   D2A21112   8.925  32.916   8.468
 1449POPC   C3A21113   8.954  33.123   8.074
 1449POPC   C4A21114   8.557  33.132   7.864
 1449POPC   C1B21115   9.281  32.728   8.798
 1449POPC   C2B21116   9.406  32.754   8.389
 1449POPC   C3B21117   9.285  32.726   8.001
 1449POPC   C4B21118   9.254  32.904   7.612
 1450POPC   NC321119  14.140   4.305   9.432
 1450POPC   PO421120  14.670   4.751   9.558
 1450POPC   GL121121  14.434   4.677   9.177
 1450POPC   GL221122  14.518   4.329   9.075
 1450POPC   C1A21123  14.129   4.577   8.829
 1450POPC   D2A21124  14.174   4.257   8.499
 1450POPC   C3A21125  14.334   4.373   8.086
 1450POPC   C4A21126  14.247   4.543   7.700
 1450POPC   C1B21127  14.577   4.033   8.716
 1450POPC   C2B21128  14.443   3.871   8.277
 1450POPC   C3B21129  14.376   3.946   7.811
 1450POPC   C4B21130  14.641   4.078   7.434
 1451POPC   NC321131  42.071  13.103   9.659
 1451POPC   PO421132  42.603  12.613   9.534
 1451POPC   GL121133  42.333  12.739   9.177
 1451POPC   GL221134  42.135  13.051   9.155
 1451POPC   C1A21135  42.348  12.673   8.730
 1451POPC   D2A21136  42.672  12.709   8.417
 1451POPC   C3A21137  42.467  12.583   8.046
 1451POPC   C4A21138  42.100  12.622   7.763
 1451POPC   C1B21139  42.224  13.170   8.725
 1451POPC   C2B21140  42.292  13.027   8.267
 1451POPC   C3B21141  42.292  13.077   7.779
 1451POPC   C4B21142  42.071  12.997   7.368
 1452POPC   NC321143  11.688  38.761   9.503
 1452POPC   PO421144  11.211  38.298   9.473
 1452POPC   GL121145  11.208  38.494   9.085
 1452POPC   GL221146  11.309  38.827   9.186
 1452POPC   C1A21147  11.084  38.335   8.702
 1452POPC   D2A21148  11.016  38.141   8.306
 1452POPC   C3A21149  10.978  38.367   7.910
 1452POPC   C4A21150  11.292  38.245   7.608
 1452POPC   C1B21151  11.595  38.729   8.840
 1452POPC   C2B21152  11.405  38.627   8.450
 1452POPC   C3B21153  11.435  38.378   8.107
 1452POPC   C4B21154  11.719  38.489   7.803
 1453POPC   NC321155  16.428  13.701   9.504
 1453POPC   PO421156  15.782  13.460   9.503
 1453POPC   GL121157  16.035  13.626   9.157
 1453POPC   GL221158  16.162  13.993   9.135
 1453POPC   C1A21159  16.023  13.578   8.716
 1453POPC   D2A21160  15.991  13.651   8.294
 1453POPC   C3A21161  16.072  13.269   8.137
 1453POPC   C4A21162  16.042  13.358   7.751
 1453POPC   C1B21163  15.775  13.995   8.873
 1453POPC   C2B21164  15.672  14.057   8.437
 1453POPC   C3B21165  15.601  13.881   8.030
 1453POPC   C4B21166  15.933  13.857   7.749
 1454POPC   NC321167  30.431   9.510   9.522
 1454POPC   PO421168  30.842  10.059   9.461
 1454POPC   GL121169  30.455   9.948   9.256
 1454POPC   GL221170  30.340  10.208   9.045
 1454POPC   C1A21171  30.370   9.707   8.881
 1454POPC   D2A21172  30.689   9.616   8.578
 1454POPC   C3A21173  30.576   9.843   8.194
 1454POPC   C4A21174  30.629   9.640   7.788
 1454POPC   C1B21175  30.723  10.105   8.804
 1454POPC   C2B21176  31.017  10.007   8.468
 1454POPC   C3B21177  31.004  10.072   8.008
 1454POPC   C4B21178  30.678  10.134   7.688
 1455POPC   NC321179  20.896  36.162   9.453
 1455POPC   PO421180  20.205  36.237   9.555
 1455POPC   GL121181  20.426  36.098   9.188
 1455POPC   GL221182  20.549  36.339   9.093
 1455POPC   C1A21183  20.404  35.873   8.797
 1455POPC   D2A21184  20.617  35.943   8.428
 1455POPC   C3A21185  20.698  35.684   8.099
 1455POPC   C4A21186  20.634  35.871   7.707
 1455POPC   C1B21187  20.836  36.281   8.754
 1455POPC   C2B21188  20.962  36.293   8.291
 1455POPC   C3B21189  20.708  36.320   7.899
 1455POPC   C4B21190  20.697  36.336   7.426
 1456POPC   NC321191  40.340  30.376   9.749
 1456POPC   PO421192  40.264  30.970   9.505
 1456POPC   GL121193  40.179  30.900   9.095
 1456POPC   GL221194  40.157  30.578   9.108
 1456POPC   C1A21195  40.073  30.879   8.639
 1456POPC   D2A21196  40.137  31.022   8.184
 1456POPC   C3A21197  39.744  30.994   7.959
 1456POPC   C4A21198  39.673  30.627   7.725
 1456POPC   C1B21199  40.221  30.346   8.712
 1456POPC   C2B21200  40.007  30.068   8.408
 1456POPC   C3B21201  39.896  30.254   8.002
 1456POPC   C4B21202  40.245  30.551   7.868
 1457POPC   NC321203  44.533   4.998   9.536
 1457POPC   PO421204   0.032   5.393   9.431
 1457POPC   GL121205  44.890   5.052   9.136
 1457POPC   GL221206  44.508   4.991   9.048
 1457POPC   C1A21207  44.941   5.105   8.692
 1457POPC   D2A21208  44.714   5.429   8.468
 1457POPC   C3A21209  44.813   5.400   8.014
 1457POPC   C4A21210  44.622   5.331   7.632
 1457POPC   C1B21211  44.446   5.041   8.642
 1457POPC   C2B21212  44.543   5.023   8.227
 1457POPC   C3B21213  44.382   4.938   7.838
 1457POPC   C4B21214  44.562   4.789   7.446
 1458POPC   NC321215  33.788  36.962   9.731
 1458POPC   PO421216  34.222  37.257   9.469
 1458POPC   GL121217  33.957  36.991   9.207
 1458POPC   GL221218  33.718  37.192   9.221
 1458POPC   C1A21219  33.635  36.885   8.807
 1458POPC   D2A21220  33.627  36.759   8.315
 1458POPC   C3A21221  33.936  36.927   7.986
 1458POPC   C4A21222  34.050  36.835   7.556
 1458POPC   C1B21223  33.888  37.325   8.816
 1458POPC   C2B21224  33.639  37.260   8.436
 1458POPC   C3B21225  33.503  37.186   8.020
 1458POPC   C4B21226  33.610  37.319   7.621
 1459POPC   NC321227  27.838  12.565   9.591
 1459POPC   PO421228  27.895  13.122   9.291
 1459POPC   GL121229  27.719  12.783   9.124
 1459POPC   GL221230  28.028  12.769   8.945
 1459POPC   C1A21231  27.585  12.512   8.775
 1459POPC   D2A21232  27.639  12.292   8.366
 1459POPC   C3A21233  27.498  12.479   7.978
 1459POPC   C4A21234  27.445  12.801   7.654
 1459POPC   C1B21235  27.754  13.014   8.645
 1459POPC   C2B21236  27.652  12.906   8.231
 1459POPC   C3B21237  27.897  12.826   7.867
 1459POPC   C4B21238  27.850  13.071   7.447
 1460POPC   NC321239  16.924   5.245   9.466
 1460POPC   PO421240  16.916   4.648   9.685
 1460POPC   GL121241  16.640   4.872   9.254
 1460POPC   GL221242  16.478   5.219   9.156
 1460POPC   C1A21243  16.811   5.009   8.791
 1460POPC   D2A21244  17.011   4.836   8.400
 1460POPC   C3A21245  16.811   4.807   7.985
 1460POPC   C4A21246  16.872   4.954   7.540
 1460POPC   C1B21247  16.324   5.061   8.726
 1460POPC   C2B21248  16.404   5.001   8.256
 1460POPC   C3B21249  16.443   5.120   7.779
 1460POPC   C4B21250  16.561   5.363   7.376
 1461POPC   NC321251   6.306  18.683   9.540
 1461POPC   PO421252   6.934  19.059   9.518
 1461POPC   GL121253   6.674  18.981   9.171
 1461POPC   GL221254   6.628  18.647   9.136
 1461POPC   C1A21255   6.585  19.143   8.761
 1461POPC   D2A21256   6.564  18.921   8.343
 1461POPC   C3A21257   6.531  19.014   7.909
 1461POPC   C4A21258   6.390  19.305   7.608
 1461POPC   C1B21259   6.920  18.740   8.759
 1461POPC   C2B21260   6.906  18.532   8.349
 1461POPC   C3B21261   6.819  18.576   7.888
 1461POPC   C4B21262   6.987  18.822   7.540
 1462POPC   NC321263  16.767   7.017   9.601
 1462POPC   PO421264  16.872   6.347   9.555
 1462POPC   GL121265  16.688   6.593   9.267
 1462POPC   GL221266  16.953   6.815   9.175
 1462POPC   C1A21267  16.449   6.711   8.922
 1462POPC   D2A21268  16.533   6.966   8.563
 1462POPC   C3A21269  16.553   6.804   8.151
 1462POPC   C4A21270  16.499   6.648   7.735
 1462POPC   C1B21271  16.949   6.702   8.787
 1462POPC   C2B21272  17.019   6.879   8.398
 1462POPC   C3B21273  17.042   6.800   7.993
 1462POPC   C4B21274  16.933   6.854   7.576
 1463POPC   NC321275  25.697  39.013   9.497
 1463POPC   PO421276  26.211  38.524   9.619
 1463POPC   GL121277  26.246  38.453   9.194
 1463POPC   GL221278  25.924  38.267   9.088
 1463POPC   C1A21279  26.421  38.764   8.875
 1463POPC   D2A21280  26.459  38.848   8.430
 1463POPC   C3A21281  26.149  38.734   8.151
 1463POPC   C4A21282  25.984  38.543   7.775
 1463POPC   C1B21283  25.987  38.349   8.640
 1463POPC   C2B21284  25.848  38.322   8.219
 1463POPC   C3B21285  25.759  38.108   7.843
 1463POPC   C4B21286  25.712  38.269   7.413
 1464POPC   NC321287   5.156  18.044   9.717
 1464POPC   PO421288   4.895  18.613   9.799
 1464POPC   GL121289   4.968  18.302   9.343
 1464POPC   GL221290   5.312  18.197   9.235
 1464POPC   C1A21291   4.990  18.294   8.843
 1464POPC   D2A21292   5.160  18.213   8.440
 1464POPC   C3A21293   5.090  18.412   8.065
 1464POPC   C4A21294   4.871  18.387   7.667
 1464POPC   C1B21295   5.360  17.948   8.834
 1464POPC   C2B21296   5.577  17.967   8.379
 1464POPC   C3B21297   5.426  18.005   7.924
 1464POPC   C4B21298   5.423  17.903   7.445
 1465POPC   NC321299  33.209   6.455   9.562
 1465POPC   PO421300  32.598   6.781   9.530
 1465POPC   GL121301  32.906   6.747   9.240
 1465POPC   GL221302  32.767   7.009   9.103
 1465POPC   C1A21303  33.044   6.531   8.866
 1465POPC   D2A21304  33.195   6.679   8.442
 1465POPC   C3A21305  33.331   6.511   8.040
 1465POPC   C4A21306  33.146   6.622   7.658
 1465POPC   C1B21307  32.771   7.145   8.752
 1465POPC   C2B21308  32.737   6.934   8.409
 1465POPC   C3B21309  32.575   6.936   8.038
 1465POPC   C4B21310  32.691   7.079   7.623
 1466POPC   NC321311   6.087   5.106   9.473
 1466POPC   PO421312   5.421   4.698   9.510
 1466POPC   GL121313   5.647   4.871   9.136
 1466POPC   GL221314   5.754   5.218   9.110
 1466POPC   C1A21315   5.794   4.896   8.698
 1466POPC   D2A21316   5.657   5.021   8.297
 1466POPC   C3A21317   5.895   4.917   7.926
 1466POPC   C4A21318   5.831   5.122   7.521
 1466POPC   C1B21319   5.952   5.418   8.763
 1466POPC   C2B21320   6.090   5.253   8.388
 1466POPC   C3B21321   6.238   5.337   8.000
 1466POPC   C4B21322   6.315   5.547   7.623
 1467POPC   NC321323  16.155  25.827   9.429
 1467POPC   PO421324  15.686  26.313   9.594
 1467POPC   GL121325  15.775  26.147   9.183
 1467POPC   GL221326  15.821  25.791   9.066
 1467POPC   C1A21327  15.829  26.172   8.741
 1467POPC   D2A21328  15.841  25.891   8.372
 1467POPC   C3A21329  15.795  26.091   7.967
 1467POPC   C4A21330  15.950  26.203   7.526
 1467POPC   C1B21331  16.204  25.838   8.749
 1467POPC   C2B21332  16.336  25.897   8.302
 1467POPC   C3B21333  16.213  25.846   7.839
 1467POPC   C4B21334  16.194  25.783   7.359
 1468POPC   NC321335  25.325  19.507   9.598
 1468POPC   PO421336  24.762  19.836   9.426
 1468POPC   GL121337  25.140  19.664   9.132
 1468POPC   GL221338  25.535  19.610   9.161
 1468POPC   C1A21339  25.238  19.686   8.675
 1468POPC   D2A21340  25.012  19.684   8.268
 1468POPC   C3A21341  25.127  20.006   8.012
 1468POPC   C4A21342  25.278  20.267   7.737
 1468POPC   C1B21343  25.667  19.927   8.891
 1468POPC   C2B21344  25.717  19.815   8.466
 1468POPC   C3B21345  25.674  19.512   8.129
 1468POPC   C4B21346  25.316  19.534   7.855
 1469POPC   NC321347  15.430  30.469   9.505
 1469POPC   PO421348  14.947  30.904   9.506
 1469POPC   GL121349  15.122  30.777   9.138
 1469POPC   GL221350  15.023  30.441   9.131
 1469POPC   C1A21351  15.186  30.683   8.693
 1469POPC   D2A21352  15.434  30.897   8.408
 1469POPC   C3A21353  15.354  30.912   8.012
 1469POPC   C4A21354  15.500  30.654   7.710
 1469POPC   C1B21355  14.717  30.479   8.796
 1469POPC   C2B21356  14.778  30.619   8.331
 1469POPC   C3B21357  15.048  30.506   7.956
 1469POPC   C4B21358  14.982  30.508   7.485
 1470POPC   NC321359  17.006   4.220   9.494
 1470POPC   PO421360  17.696   4.209   9.555
 1470POPC   GL121361  17.513   4.329   9.211
 1470POPC   GL221362  17.741   4.578   9.134
 1470POPC   C1A21363  17.483   4.294   8.780
 1470POPC   D2A21364  17.272   4.258   8.391
 1470POPC   C3A21365  17.382   4.593   8.120
 1470POPC   C4A21366  17.618   4.583   7.754
 1470POPC   C1B21367  17.926   4.556   8.740
 1470POPC   C2B21368  17.784   4.321   8.345
 1470POPC   C3B21369  17.985   4.269   7.944
 1470POPC   C4B21370  17.919   4.193   7.504
 1471POPC   NC321371  34.819   6.743   9.372
 1471POPC   PO421372  34.402   6.242   9.561
 1471POPC   GL121373  34.650   6.310   9.162
 1471POPC   GL221374  34.419   6.601   9.101
 1471POPC   C1A21375  34.988   6.455   8.800
 1471POPC   D2A21376  35.039   6.300   8.355
 1471POPC   C3A21377  34.970   6.592   7.990
 1471POPC   C4A21378  34.752   6.716   7.592
 1471POPC   C1B21379  34.503   6.474   8.706
 1471POPC   C2B21380  34.632   6.611   8.363
 1471POPC   C3B21381  34.403   6.529   8.038
 1471POPC   C4B21382  34.203   6.675   7.693
 1472POPC   NC321383  17.182  10.918   9.423
 1472POPC   PO421384  17.542  11.541   9.497
 1472POPC   GL121385  17.308  11.383   9.182
 1472POPC   GL221386  17.546  11.128   9.128
 1472POPC   C1A21387  17.235  11.251   8.753
 1472POPC   D2A21388  17.348  11.480   8.398
 1472POPC   C3A21389  17.105  11.332   8.118
 1472POPC   C4A21390  17.227  11.043   7.853
 1472POPC   C1B21391  17.730  11.401   8.839
 1472POPC   C2B21392  17.759  11.151   8.481
 1472POPC   C3B21393  17.720  11.270   8.071
 1472POPC   C4B21394  17.471  11.501   7.822
 1473POPC   NC321395  11.515  11.728   9.503
 1473POPC   PO421396  11.191  12.271   9.455
 1473POPC   GL121397  11.494  12.114   9.144
 1473POPC   GL221398  11.402  11.780   9.027
 1473POPC   C1A21399  11.491  12.276   8.758
 1473POPC   D2A21400  11.216  12.254   8.440
 1473POPC   C3A21401  11.422  12.157   8.100
 1473POPC   C4A21402  11.218  12.249   7.745
 1473POPC   C1B21403  11.082  11.897   8.788
 1473POPC   C2B21404  11.116  11.764   8.386
 1473POPC   C3B21405  11.066  11.834   8.001
 1473POPC   C4B21406  11.297  11.731   7.689
 1474POPC   NC321407  33.542  27.099   9.401
 1474POPC   PO421408  32.978  26.863   9.642
 1474POPC   GL121409  32.899  26.908   9.172
 1474POPC   GL221410  32.665  27.209   9.082
 1474POPC   C1A21411  32.957  26.636   8.792
 1474POPC   D2A21412  33.187  26.540   8.395
 1474POPC   C3A21413  33.043  26.676   8.009
 1474POPC   C4A21414  32.810  26.496   7.676
 1474POPC   C1B21415  32.965  27.134   8.704
 1474POPC   C2B21416  33.102  27.139   8.254
 1474POPC   C3B21417  33.398  27.092   7.928
 1474POPC   C4B21418  33.255  26.845   7.583
 1475POPC   NC321419  34.114  22.669   9.456
 1475POPC   PO421420  34.715  22.972   9.652
 1475POPC   GL121421  34.735  22.922   9.243
 1475POPC   GL221422  34.391  23.030   9.214
 1475POPC   C1A21423  34.714  22.998   8.794
 1475POPC   D2A21424  34.530  22.834   8.404
 1475POPC   C3A21425  34.673  22.991   7.990
 1475POPC   C4A21426  34.553  22.678   7.695
 1475POPC   C1B21427  34.223  23.197   8.846
 1475POPC   C2B21428  34.059  23.111   8.453
 1475POPC   C3B21429  34.227  23.228   8.082
 1475POPC   C4B21430  34.109  22.977   7.737
 1476POPC   NC321431  36.468  42.233   9.719
 1476POPC   PO421432  35.896  42.324   9.317
 1476POPC   GL121433  36.113  42.304   8.982
 1476POPC   GL221434  36.380  42.071   9.163
 1476POPC   C1A21435  36.064  42.555   8.604
 1476POPC   D2A21436  35.803  42.473   8.246
 1476POPC   C3A21437  36.065  42.461   7.943
 1476POPC   C4A21438  36.188  42.427   7.545
 1476POPC   C1B21439  36.381  42.000   8.710
 1476POPC   C2B21440  36.340  42.171   8.303
 1476POPC   C3B21441  36.387  42.068   7.890
 1476POPC   C4B21442  36.108  41.830   7.660
 1477POPC   NC321443  15.479  10.491   9.453
 1477POPC   PO421444  14.739  10.400   9.646
 1477POPC   GL121445  15.065  10.293   9.240
 1477POPC   GL221446  15.124  10.656   9.116
 1477POPC   C1A21447  15.158  10.295   8.758
 1477POPC   D2A21448  15.177  10.624   8.441
 1477POPC   C3A21449  14.985  10.615   8.041
 1477POPC   C4A21450  14.988  10.440   7.666
 1477POPC   C1B21451  15.502  10.755   8.840
 1477POPC   C2B21452  15.687  10.617   8.436
 1477POPC   C3B21453  15.500  10.453   8.059
 1477POPC   C4B21454  15.447  10.657   7.694
 1478POPC   NC321455   8.694  44.849   9.535
 1478POPC   PO421456   9.257  44.480   9.459
 1478POPC   GL121457   8.877  44.416   9.270
 1478POPC   GL221458   8.901  44.710   9.101
 1478POPC   C1A21459   8.875  44.172   8.900
 1478POPC   D2A21460   8.957  44.181   8.461
 1478POPC   C3A21461   9.146  44.454   8.180
 1478POPC   C4A21462   9.213  44.542   7.772
 1478POPC   C1B21463   9.106  44.638   8.721
 1478POPC   C2B21464   8.985  44.880   8.389
 1478POPC   C3B21465   8.908  44.940   7.956
 1478POPC   C4B21466   9.118  44.984   7.532
 1479POPC   NC321467  24.754  32.127   9.525
 1479POPC   PO421468  24.169  31.918   9.518
 1479POPC   GL121469  24.350  32.171   9.188
 1479POPC   GL221470  24.579  32.480   9.200
 1479POPC   C1A21471  24.423  32.118   8.765
 1479POPC   D2A21472  24.364  31.921   8.346
 1479POPC   C3A21473  24.479  32.141   7.948
 1479POPC   C4A21474  24.507  32.374   7.565
 1479POPC   C1B21475  24.777  32.493   8.798
 1479POPC   C2B21476  24.568  32.432   8.391
 1479POPC   C3B21477  24.658  32.616   8.027
 1479POPC   C4B21478  24.878  32.695   7.686
 1480POPC   NC321479  28.416  12.650   9.319
 1480POPC   PO421480  28.213  13.089   9.706
 1480POPC   GL121481  28.364  13.103   9.173
 1480POPC   GL221482  28.588  13.259   9.036
 1480POPC   C1A21483  28.503  12.878   8.733
 1480POPC   D2A21484  28.640  13.131   8.390
 1480POPC   C3A21485  28.524  12.890   7.972
 1480POPC   C4A21486  28.310  12.831   7.541
 1480POPC   C1B21487  28.200  13.270   8.726
 1480POPC   C2B21488  28.145  13.085   8.296
 1480POPC   C3B21489  28.176  13.232   7.843
 1480POPC   C4B21490  28.579  13.254   7.592
 1481POPC   NC321491  14.249   1.627   9.482
 1481POPC   PO421492  14.463   2.257   9.555
 1481POPC   GL121493  14.580   2.135   9.165
 1481POPC   GL221494  14.301   1.934   9.074
 1481POPC   C1A21495  14.723   2.296   8.757
 1481POPC   D2A21496  14.616   2.218   8.307
 1481POPC   C3A21497  14.823   2.367   7.962
 1481POPC   C4A21498  14.649   2.354   7.527
 1481POPC   C1B21499  14.385   1.929   8.649
 1481POPC   C2B21500  14.466   1.727   8.238
 1481POPC   C3B21501  14.436   1.977   7.882
 1481POPC   C4B21502  14.422   1.858   7.463
 1482POPC   NC321503  28.550  31.246   9.609
 1482POPC   PO421504  27.949  31.132   9.535
 1482POPC   GL121505  28.158  31.418   9.217
 1482POPC   GL221506  28.535  31.413   9.141
 1482POPC   C1A21507  28.221  31.433   8.753
 1482POPC   D2A21508  28.337  31.281   8.347
 1482POPC   C3A21509  28.202  31.439   7.981
 1482POPC   C4A21510  28.308  31.516   7.590
 1482POPC   C1B21511  28.709  31.654   8.805
 1482POPC   C2B21512  28.806  31.487   8.419
 1482POPC   C3B21513  28.711  31.442   7.988
 1482POPC   C4B21514  28.979  31.197   7.775
 1483POPC   NC321515   4.440  27.371   9.632
 1483POPC   PO421516   3.937  27.806   9.483
 1483POPC   GL121517   4.201  27.633   9.163
 1483POPC   GL221518   4.489  27.751   9.291
 1483POPC   C1A21519   4.282  27.496   8.711
 1483POPC   D2A21520   4.144  27.261   8.318
 1483POPC   C3A21521   4.157  27.428   7.910
 1483POPC   C4A21522   4.532  27.417   7.667
 1483POPC   C1B21523   4.633  27.832   8.882
 1483POPC   C2B21524   4.703  27.678   8.463
 1483POPC   C3B21525   4.540  27.743   8.062
 1483POPC   C4B21526   4.725  27.897   7.697
 1484POPC   NC321527  16.729  28.357  10.090
 1484POPC   PO421528  16.712  28.448   9.468
 1484POPC   GL121529  16.684  28.318   9.090
 1484POPC   GL221530  16.462  28.048   9.017
 1484POPC   C1A21531  16.875  28.497   8.789
 1484POPC   D2A21532  16.799  28.717   8.452
 1484POPC   C3A21533  16.751  28.470   8.127
 1484POPC   C4A21534  17.010  28.378   7.788
 1484POPC   C1B21535  16.525  28.140   8.616
 1484POPC   C2B21536  16.317  28.228   8.264
 1484POPC   C3B21537  16.442  28.134   7.883
 1484POPC   C4B21538  16.363  28.228   7.484
 1485POPC   NC321539   0.527   6.946   9.525
 1485POPC   PO421540   0.289   7.535   9.467
 1485POPC   GL121541   0.665   7.405   9.253
 1485POPC   GL221542   0.440   7.213   9.079
 1485POPC   C1A21543   0.777   7.491   8.825
 1485POPC   D2A21544   0.582   7.268   8.478
 1485POPC   C3A21545   0.464   7.430   8.078
 1485POPC   C4A21546   0.106   7.532   7.824
 1485POPC   C1B21547   0.163   7.090   8.751
 1485POPC   C2B21548   0.208   6.964   8.316
 1485POPC   C3B21549   0.048   7.022   7.921
 1485POPC   C4B21550   0.049   7.087   7.459
 1486POPC   NC321551  13.576  38.182   9.610
 1486POPC   PO421552  12.945  38.142   9.712
 1486POPC   GL121553  13.216  38.329   9.295
 1486POPC   GL221554  13.535  38.172   9.104
 1486POPC   C1A21555  13.281  38.502   8.839
 1486POPC   D2A21556  13.454  38.223   8.502
 1486POPC   C3A21557  13.352  38.304   8.049
 1486POPC   C4A21558  13.522  38.688   7.851
 1486POPC   C1B21559  13.812  38.480   8.834
 1486POPC   C2B21560  13.852  38.720   8.414
 1486POPC   C3B21561  13.966  38.914   7.982
 1486POPC   C4B21562  13.951  38.742   7.545
 1487POPC   NC321563  41.426  25.337   9.502
 1487POPC   PO421564  41.683  24.732   9.419
 1487POPC   GL121565  41.728  25.127   9.101
 1487POPC   GL221566  41.383  25.245   9.017
 1487POPC   C1A21567  41.705  25.276   8.637
 1487POPC   D2A21568  41.499  25.055   8.287
 1487POPC   C3A21569  41.702  25.117   7.912
 1487POPC   C4A21570  41.866  25.467   8.103
 1487POPC   C1B21571  41.221  25.493   8.687
 1487POPC   C2B21572  41.404  25.612   8.302
 1487POPC   C3B21573  41.385  25.504   7.888
 1487POPC   C4B21574  41.389  25.298   7.486
 1488POPC   NC321575  35.148  44.378   9.509
 1488POPC   PO421576  35.694  44.711   9.507
 1488POPC   GL121577  35.479  44.516   9.129
 1488POPC   GL221578  35.135  44.675   9.078
 1488POPC   C1A21579  35.409  44.504   8.665
 1488POPC   D2A21580  35.174  44.673   8.365
 1488POPC   C3A21581  35.307  44.733   7.982
 1488POPC   C4A21582  35.552  44.803   7.635
 1488POPC   C1B21583  35.027  44.258   8.892
 1488POPC   C2B21584  35.047  44.185   8.457
 1488POPC   C3B21585  35.028  44.305   8.025
 1488POPC   C4B21586  35.265  44.369   7.641
 1489POPC   NC321587  21.708  24.201   9.590
 1489POPC   PO421588  21.215  24.629   9.652
 1489POPC   GL121589  21.192  24.580   9.181
 1489POPC   GL221590  21.476  24.413   9.179
 1489POPC   C1A21591  21.400  24.721   8.764
 1489POPC   D2A21592  21.485  24.826   8.319
 1489POPC   C3A21593  21.290  24.533   8.084
 1489POPC   C4A21594  21.373  24.441   7.708
 1489POPC   C1B21595  21.751  24.346   8.870
 1489POPC   C2B21596  21.788  24.446   8.462
 1489POPC   C3B21597  21.815  24.524   8.043
 1489POPC   C4B21598  21.860  24.304   7.686
 1490POPC   NC321599  12.150  16.579   9.621
 1490POPC   PO421600  11.899  17.082   9.275
 1490POPC   GL121601  12.058  16.683   9.124
 1490POPC   GL221602  12.418  16.709   9.192
 1490POPC   C1A21603  12.269  16.449   8.788
 1490POPC   D2A21604  12.310  16.541   8.370
 1490POPC   C3A21605  11.925  16.640   8.171
 1490POPC   C4A21606  11.912  16.618   7.738
 1490POPC   C1B21607  12.395  16.972   8.808
 1490POPC   C2B21608  12.185  17.048   8.408
 1490POPC   C3B21609  12.311  16.911   7.996
 1490POPC   C4B21610  12.674  17.009   7.808
 1491POPC   NC321611   0.946  26.482   9.587
 1491POPC   PO421612   1.331  27.032   9.467
 1491POPC   GL121613   1.092  26.788   9.195
 1491POPC   GL221614   1.046  27.095   9.052
 1491POPC   C1A21615   1.042  26.599   8.780
 1491POPC   D2A21616   1.151  26.715   8.368
 1491POPC   C3A21617   0.926  26.524   8.015
 1491POPC   C4A21618   0.994  26.725   7.629
 1491POPC   C1B21619   1.352  27.061   8.752
 1491POPC   C2B21620   1.333  27.255   8.355
 1491POPC   C3B21621   1.218  27.066   7.968
 1491POPC   C4B21622   1.335  27.089   7.519
 1492POPC   NC321623  37.681  21.250   9.649
 1492POPC   PO421624  38.287  21.596   9.511
 1492POPC   GL121625  37.891  21.654   9.219
 1492POPC   GL221626  37.663  21.338   9.144
 1492POPC   C1A21627  37.640  21.703   8.807
 1492POPC   D2A21628  37.513  21.443   8.449
 1492POPC   C3A21629  37.659  21.634   8.048
 1492POPC   C4A21630  37.795  21.571   7.599
 1492POPC   C1B21631  37.406  21.021   8.882
 1492POPC   C2B21632  37.518  20.788   8.489
 1492POPC   C3B21633  37.685  21.034   8.155
 1492POPC   C4B21634  37.480  21.224   7.813
 1493POPC   NC321635  22.924  20.436   9.512
 1493POPC   PO421636  23.377  20.926   9.470
 1493POPC   GL121637  23.139  20.737   9.147
 1493POPC   GL221638  23.166  20.397   9.069
 1493POPC   C1A21639  22.769  20.663   8.886
 1493POPC   D2A21640  22.740  20.790   8.465
 1493POPC   C3A21641  22.525  20.531   8.167
 1493POPC   C4A21642  22.697  20.583   7.790
 1493POPC   C1B21643  23.205  20.551   8.638
 1493POPC   C2B21644  23.081  20.485   8.215
 1493POPC   C3B21645  23.224  20.572   7.843
 1493POPC   C4B21646  23.509  20.286   7.690
 1494POPC   NC321647  27.909  34.198   9.446
 1494POPC   PO421648  28.465  33.794   9.561
 1494POPC   GL121649  28.398  33.980   9.212
 1494POPC   GL221650  28.780  33.963   9.183
 1494POPC   C1A21651  28.182  33.883   8.835
 1494POPC   D2A21652  28.300  33.651   8.479
 1494POPC   C3A21653  28.280  33.861   8.117
 1494POPC   C4A21654  28.178  33.723   7.730
 1494POPC   C1B21655  28.682  33.693   8.829
 1494POPC   C2B21656  28.786  33.492   8.407
 1494POPC   C3B21657  28.603  33.468   7.980
 1494POPC   C4B21658  28.657  33.841   7.720
 1495POPC   NC321659   6.305   7.690   9.419
 1495POPC   PO421660   5.945   8.222   9.480
 1495POPC   GL121661   5.792   8.273   9.119
 1495POPC   GL221662   5.873   7.945   9.015
 1495POPC   C1A21663   5.989   8.380   8.744
 1495POPC   D2A21664   5.832   8.505   8.369
 1495POPC   C3A21665   5.824   8.204   8.061
 1495POPC   C4A21666   5.871   8.550   7.803
 1495POPC   C1B21667   6.214   7.895   8.719
 1495POPC   C2B21668   6.205   7.888   8.268
 1495POPC   C3B21669   6.396   7.920   7.839
 1495POPC   C4B21670   6.050   8.125   7.592
 1496POPC   NC321671   0.121  27.746   9.315
 1496POPC   PO421672  44.559  27.624   9.751
 1496POPC   GL121673  44.602  27.691   9.316
 1496POPC   GL221674  44.465  27.378   9.264
 1496POPC   C1A21675  44.632  27.817   8.882
 1496POPC   D2A21676  44.911  27.806   8.556
 1496POPC   C3A21677  44.573  27.823   8.286
 1496POPC   C4A21678  44.494  27.723   7.884
 1496POPC   C1B21679  44.769  27.323   8.936
 1496POPC   C2B21680  44.725  27.313   8.486
 1496POPC   C3B21681  44.913  27.484   8.124
 1496POPC   C4B21682  44.811  27.365   7.730
 1497POPC   NC321683  29.401  13.200   9.559
 1497POPC   PO421684  28.814  12.897   9.405
 1497POPC   GL121685  29.107  13.036   9.148
 1497POPC   GL221686  29.279  12.745   9.036
 1497POPC   C1A21687  29.021  13.212   8.763
 1497POPC   D2A21688  29.195  13.158   8.376
 1497POPC   C3A21689  28.957  13.205   8.003
 1497POPC   C4A21690  29.191  13.221   7.674
 1497POPC   C1B21691  28.992  12.702   8.698
 1497POPC   C2B21692  28.926  12.729   8.252
 1497POPC   C3B21693  29.221  12.743   7.936
 1497POPC   C4B21694  29.235  12.517   7.563
 1498POPC   NC321695  38.222  17.774   9.285
 1498POPC   PO421696  38.777  17.663   9.650
 1498POPC   GL121697  38.655  17.493   9.221
 1498POPC   GL221698  38.706  17.806   9.117
 1498POPC   C1A21699  38.690  17.261   8.803
 1498POPC   D2A21700  38.674  17.370   8.349
 1498POPC   C3A21701  38.445  17.160   8.032
 1498POPC   C4A21702  38.655  17.046   7.681
 1498POPC   C1B21703  38.564  17.773   8.693
 1498POPC   C2B21704  38.335  17.750   8.309
 1498POPC   C3B21705  38.448  17.657   7.880
 1498POPC   C4B21706  38.250  17.877   7.534
 1499POPC   NC321707   6.821  17.826   9.573
 1499POPC   PO421708   6.776  17.188   9.556
 1499POPC   GL121709   6.661  17.303   9.140
 1499POPC   GL221710   6.313  17.279   9.133
 1499POPC   C1A21711   6.738  17.295   8.682
 1499POPC   D2A21712   6.915  17.478   8.280
 1499POPC   C3A21713   6.921  17.252   7.887
 1499POPC   C4A21714   6.630  17.406   7.519
 1499POPC   C1B21715   6.270  17.528   8.752
 1499POPC   C2B21716   6.368  17.469   8.326
 1499POPC   C3B21717   6.490  17.666   7.960
 1499POPC   C4B21718   6.206  17.885   7.673
 1500POPC   NC321719  28.823   8.420   9.752
 1500POPC   PO421720  28.570   7.968   9.324
 1500POPC   GL121721  28.348   8.166   9.015
 1500POPC   GL221722  28.567   8.306   8.807
 1500POPC   C1A21723  28.151   8.053   8.663
 1500POPC   D2A21724  28.233   8.312   8.353
 1500POPC   C3A21725  28.107   8.099   7.986
 1500POPC   C4A21726  28.180   7.952   7.528
 1500POPC   C1B21727  28.618   8.699   8.629
 1500POPC   C2B21728  28.548   8.703   8.227
 1500POPC   C3B21729  28.514   8.404   7.938
 1500POPC   C4B21730  28.337   8.413   7.535
 1501POPC   NC321731  18.691  22.581   9.555
 1501POPC   PO421732  19.069  23.160   9.447
 1501POPC   GL121733  19.086  22.797   9.196
 1501POPC   GL221734  18.748  22.837   9.131
 1501POPC   C1A21735  19.094  22.709   8.745
 1501POPC   D2A21736  19.337  22.850   8.363
 1501POPC   C3A21737  19.216  22.746   7.957
 1501POPC   C4A21738  19.093  22.905   7.546
 1501POPC   C1B21739  18.644  22.969   8.759
 1501POPC   C2B21740  18.805  22.929   8.364
 1501POPC   C3B21741  18.721  22.914   7.955
 1501POPC   C4B21742  18.655  23.165   7.632
 1502POPC   NC321743   2.728  27.673   9.431
 1502POPC   PO421744   2.308  28.146   9.511
 1502POPC   GL121745   2.556  27.977   9.062
 1502POPC   GL221746   2.971  27.978   9.062
 1502POPC   C1A21747   2.765  27.718   8.685
 1502POPC   D2A21748   2.972  27.473   8.339
 1502POPC   C3A21749   2.744  27.553   7.968
 1502POPC   C4A21750   2.597  27.985   7.878
 1502POPC   C1B21751   3.232  27.957   8.667
 1502POPC   C2B21752   3.144  28.007   8.233
 1502POPC   C3B21753   3.171  27.777   7.856
 1502POPC   C4B21754   3.220  27.305   7.855
 1503POPC   NC321755   7.891  24.100   9.439
 1503POPC   PO421756   8.307  23.527   9.662
 1503POPC   GL121757   8.196  23.695   9.234
 1503POPC   GL221758   7.843  23.676   9.172
 1503POPC   C1A21759   8.353  23.841   8.817
 1503POPC   D2A21760   8.458  23.929   8.379
 1503POPC   C3A21761   8.345  23.609   8.080
 1503POPC   C4A21762   8.292  23.572   7.676
 1503POPC   C1B21763   7.838  23.748   8.748
 1503POPC   C2B21764   7.890  23.689   8.304
 1503POPC   C3B21765   7.829  23.721   7.849
 1503POPC   C4B21766   7.769  24.006   7.531
 1504POPC   NC321767  21.267   3.813   9.803
 1504POPC   PO421768  21.267   3.202   9.464
 1504POPC   GL121769  21.412   3.181   9.093
 1504POPC   GL221770  21.072   3.068   9.011
 1504POPC   C1A21771  21.621   3.427   8.761
 1504POPC   D2A21772  21.425   3.555   8.381
 1504POPC   C3A21773  21.683   3.560   8.034
 1504POPC   C4A21774  21.560   3.535   7.653
 1504POPC   C1B21775  21.205   3.155   8.632
 1504POPC   C2B21776  21.184   3.069   8.261
 1504POPC   C3B21777  21.150   3.375   7.965
 1504POPC   C4B21778  21.089   3.235   7.602
 1505POPC   NC321779   9.382  28.108   9.820
 1505POPC   PO421780   8.765  28.258   9.508
 1505POPC   GL121781   8.817  28.390   9.082
 1505POPC   GL221782   9.173  28.392   9.046
 1505POPC   C1A21783   8.596  28.521   8.663
 1505POPC   D2A21784   8.577  28.614   8.213
 1505POPC   C3A21785   8.930  28.462   7.946
 1505POPC   C4A21786   8.881  28.486   7.477
 1505POPC   C1B21787   8.996  28.106   8.710
 1505POPC   C2B21788   9.043  28.066   8.299
 1505POPC   C3B21789   8.889  27.922   7.929
 1505POPC   C4B21790   9.034  28.002   7.554
 1506POPC   NC321791  33.849   7.778   9.369
 1506POPC   PO421792  33.440   8.289   9.373
 1506POPC   GL121793  33.789   8.214   9.106
 1506POPC   GL221794  33.641   7.893   8.939
 1506POPC   C1A21795  34.106   8.431   8.839
 1506POPC   D2A21796  34.361   8.391   8.440
 1506POPC   C3A21797  34.181   8.381   8.012
 1506POPC   C4A21798  34.196   7.983   7.752
 1506POPC   C1B21799  33.972   7.985   8.662
 1506POPC   C2B21800  34.078   7.947   8.257
 1506POPC   C3B21801  33.746   8.052   7.976
 1506POPC   C4B21802  33.429   8.198   7.694
 1507POPC   NC321803  29.286  43.847   9.404
 1507POPC   PO421804  28.625  43.494   9.460
 1507POPC   GL121805  28.938  43.648   9.124
 1507POPC   GL221806  28.985  44.023   9.033
 1507POPC   C1A21807  29.135  43.609   8.701
 1507POPC   D2A21808  28.993  43.782   8.292
 1507POPC   C3A21809  29.325  43.874   7.968
 1507POPC   C4A21810  29.267  43.763   7.511
 1507POPC   C1B21811  29.299  44.219   8.793
 1507POPC   C2B21812  29.320  44.188   8.377
 1507POPC   C3B21813  29.377  44.409   8.009
 1507POPC   C4B21814  29.376  44.235   7.613
 1508POPC   NC321815  37.810  39.566   9.958
 1508POPC   PO421816  38.357  39.234   9.600
 1508POPC   GL121817  38.330  39.109   9.167
 1508POPC   GL221818  38.433  38.773   9.047
 1508POPC   C1A21819  38.514  39.200   8.752
 1508POPC   D2A21820  38.690  39.441   8.417
 1508POPC   C3A21821  38.404  39.431   8.063
 1508POPC   C4A21822  38.336  39.261   7.676
 1508POPC   C1B21823  38.857  38.818   8.827
 1508POPC   C2B21824  38.903  38.955   8.373
 1508POPC   C3B21825  38.846  39.161   7.936
 1508POPC   C4B21826  38.828  39.386   7.513
 1509POPC   NC321827  12.124   6.329   9.323
 1509POPC   PO421828  12.408   6.966   9.387
 1509POPC   GL121829  12.116   6.814   9.050
 1509POPC   GL221830  11.808   6.592   9.034
 1509POPC   C1A21831  11.959   6.977   8.630
 1509POPC   D2A21832  11.732   7.210   8.326
 1509POPC   C3A21833  11.614   6.944   8.018
 1509POPC   C4A21834  11.890   6.759   7.753
 1509POPC   C1B21835  12.041   6.471   8.673
 1509POPC   C2B21836  12.010   6.614   8.244
 1509POPC   C3B21837  12.053   6.314   7.912
 1509POPC   C4B21838  11.766   6.244   7.573
 1510POPC   NC321839  33.059   7.950   9.373
 1510POPC   PO421840  32.617   8.412   9.604
 1510POPC   GL121841  32.799   8.404   9.153
 1510POPC   GL221842  32.818   8.051   8.945
 1510POPC   C1A21843  32.939   8.485   8.705
 1510POPC   D2A21844  32.830   8.118   8.420
 1510POPC   C3A21845  32.875   8.240   8.002
 1510POPC   C4A21846  32.933   8.649   7.860
 1510POPC   C1B21847  33.244   8.098   8.733
 1510POPC   C2B21848  33.346   8.177   8.299
 1510POPC   C3B21849  33.245   7.842   8.019
 1510POPC   C4B21850  33.312   7.693   7.613
 1511POPC   NC321851  10.338  11.330   9.482
 1511POPC   PO421852  10.791  11.000   9.813
 1511POPC   GL121853  10.784  11.178   9.300
 1511POPC   GL221854  10.758  11.543   9.230
 1511POPC   C1A21855  10.612  11.189   8.836
 1511POPC   D2A21856  10.208  11.323   8.574
 1511POPC   C3A21857  10.204  11.328   8.094
 1511POPC   C4A21858  10.566  11.190   7.821
 1511POPC   C1B21859  10.591  11.695   8.823
 1511POPC   C2B21860  10.689  11.490   8.435
 1511POPC   C3B21861  10.633  11.618   8.052
 1511POPC   C4B21862  10.788  11.631   7.615
 1512POPC   NC321863  12.680  38.807   9.381
 1512POPC   PO421864  12.562  38.118   9.273
 1512POPC   GL121865  12.781  38.350   9.051
 1512POPC   GL221866  12.999  38.091   8.863
 1512POPC   C1A21867  12.783  38.592   8.717
 1512POPC   D2A21868  12.972  38.423   8.379
 1512POPC   C3A21869  12.818  38.642   8.021
 1512POPC   C4A21870  13.074  38.906   7.786
 1512POPC   C1B21871  12.608  38.082   8.632
 1512POPC   C2B21872  12.516  38.236   8.277
 1512POPC   C3B21873  12.775  38.148   7.967
 1512POPC   C4B21874  12.677  37.961   7.600
 1513POPC   NC321875  26.741  31.682   9.499
 1513POPC   PO421876  27.106  31.198   9.725
 1513POPC   GL121877  26.909  31.162   9.258
 1513POPC   GL221878  26.840  31.435   9.091
 1513POPC   C1A21879  26.925  31.092   8.762
 1513POPC   D2A21880  26.907  31.342   8.400
 1513POPC   C3A21881  26.861  31.223   7.955
 1513POPC   C4A21882  27.138  31.364   7.629
 1513POPC   C1B21883  26.830  31.744   8.793
 1513POPC   C2B21884  26.875  31.839   8.406
 1513POPC   C3B21885  27.005  31.715   8.018
 1513POPC   C4B21886  27.083  31.876   7.649
 1514POPC   NC321887   5.952  30.147   9.486
 1514POPC   PO421888   5.744  29.466   9.545
 1514POPC   GL121889   5.605  29.781   9.182
 1514POPC   GL221890   5.665  30.154   9.082
 1514POPC   C1A21891   5.692  29.844   8.708
 1514POPC   D2A21892   5.829  29.657   8.359
 1514POPC   C3A21893   5.690  29.814   7.995
 1514POPC   C4A21894   5.369  29.962   7.778
 1514POPC   C1B21895   5.957  30.273   8.773
 1514POPC   C2B21896   5.856  30.189   8.350
 1514POPC   C3B21897   5.805  30.315   7.941
 1514POPC   C4B21898   6.091  30.092   7.779
 1515POPC   NC321899   9.217  12.389  10.011
 1515POPC   PO421900   8.757  12.802   9.619
 1515POPC   GL121901   8.745  12.704   9.183
 1515POPC   GL221902   9.066  12.873   9.087
 1515POPC   C1A21903   8.837  12.580   8.746
 1515POPC   D2A21904   8.619  12.710   8.398
 1515POPC   C3A21905   8.826  12.617   8.015
 1515POPC   C4A21906   8.873  12.492   7.581
 1515POPC   C1B21907   8.953  13.056   8.656
 1515POPC   C2B21908   9.168  12.804   8.358
 1515POPC   C3B21909   9.338  12.676   7.975
 1515POPC   C4B21910   9.071  12.983   7.749
 1516POPC   NC321911  24.709  20.292   9.551
 1516POPC   PO421912  24.180  20.643   9.393
 1516POPC   GL121913  24.364  20.608   9.061
 1516POPC   GL221914  24.728  20.674   9.150
 1516POPC   C1A21915  24.197  20.468   8.678
 1516POPC   D2A21916  24.358  20.364   8.307
 1516POPC   C3A21917  24.300  20.627   7.969
 1516POPC   C4A21918  24.537  20.699   7.597
 1516POPC   C1B21919  24.697  20.622   8.695
 1516POPC   C2B21920  24.620  20.808   8.316
 1516POPC   C3B21921  24.811  20.504   8.014
 1516POPC   C4B21922  24.765  20.207   7.681
 1517POPC   NC321923   8.760  39.698   9.585
 1517POPC   PO421924   8.779  40.383   9.534
 1517POPC   GL121925   8.818  40.031   9.203
 1517POPC   GL221926   8.585  39.754   9.119
 1517POPC   C1A21927   9.087  39.892   8.861
 1517POPC   D2A21928   9.068  40.195   8.536
 1517POPC   C3A21929   9.031  40.096   8.120
 1517POPC   C4A21930   9.152  40.178   7.727
 1517POPC   C1B21931   8.600  39.936   8.734
 1517POPC   C2B21932   8.781  39.728   8.469
 1517POPC   C3B21933   8.883  39.613   8.140
 1517POPC   C4B21934   8.803  39.796   7.731
 1518POPC   NC321935  42.299   9.392   9.577
 1518POPC   PO421936  42.517  10.032   9.676
 1518POPC   GL121937  42.523   9.834   9.247
 1518POPC   GL221938  42.306   9.579   9.091
 1518POPC   C1A21939  42.601   9.883   8.798
 1518POPC   D2A21940  42.350   9.577   8.555
 1518POPC   C3A21941  42.360   9.673   8.124
 1518POPC   C4A21942  42.671   9.959   7.910
 1518POPC   C1B21943  42.075   9.933   8.876
 1518POPC   C2B21944  41.760  10.077   8.557
 1518POPC   C3B21945  41.817  10.017   8.127
 1518POPC   C4B21946  42.103   9.992   7.823
 1519POPC   NC321947  31.257   0.232   9.340
 1519POPC   PO421948  31.644  44.726   9.646
 1519POPC   GL121949  31.606  44.726   9.184
 1519POPC   GL221950  31.452  44.412   9.093
 1519POPC   C1A21951  31.412  44.898   8.784
 1519POPC   D2A21952  31.232  44.848   8.360
 1519POPC   C3A21953  31.532  44.711   8.007
 1519POPC   C4A21954  31.633  44.760   7.551
 1519POPC   C1B21955  31.166  44.453   8.721
 1519POPC   C2B21956  31.181  44.353   8.274
 1519POPC   C3B21957  31.126  44.472   7.846
 1519POPC   C4B21958  31.155  44.512   7.377
 1520POPC   NC321959  40.320  29.714   9.427
 1520POPC   PO421960  39.941  30.360   9.519
 1520POPC   GL121961  40.041  30.077   9.166
 1520POPC   GL221962  40.383  30.108   9.118
 1520POPC   C1A21963  39.939  29.762   8.838
 1520POPC   D2A21964  39.702  29.581   8.498
 1520POPC   C3A21965  39.717  29.776   8.109
 1520POPC   C4A21966  39.964  29.783   7.758
 1520POPC   C1B21967  40.434  29.862   8.756
 1520POPC   C2B21968  40.258  29.604   8.428
 1520POPC   C3B21969  40.422  29.667   8.046
 1520POPC   C4B21970  40.362  30.063   7.934
 1521POPC   NC321971  34.113  26.885   9.596
 1521POPC   PO421972  33.439  26.658   9.483
 1521POPC   GL121973  33.713  26.613   9.183
 1521POPC   GL221974  33.893  26.909   9.111
 1521POPC   C1A21975  33.562  26.661   8.765
 1521POPC   D2A21976  33.528  26.908   8.405
 1521POPC   C3A21977  33.601  26.637   8.057
 1521POPC   C4A21978  33.798  26.760   7.704
 1521POPC   C1B21979  34.073  27.173   8.842
 1521POPC   C2B21980  33.978  27.341   8.486
 1521POPC   C3B21981  33.877  27.139   8.112
 1521POPC   C4B21982  34.055  27.176   7.736
 1522POPC   NC321983   3.653  35.519   9.541
 1522POPC   PO421984   3.226  35.066   9.787
 1522POPC   GL121985   3.486  35.118   9.273
 1522POPC   GL221986   3.761  35.294   9.088
 1522POPC   C1A21987   3.337  35.186   8.783
 1522POPC   D2A21988   3.440  35.341   8.359
 1522POPC   C3A21989   3.231  35.245   7.958
 1522POPC   C4A21990   3.159  35.085   7.543
 1522POPC   C1B21991   4.045  35.188   8.766
 1522POPC   C2B21992   3.953  35.165   8.324
 1522POPC   C3B21993   3.750  35.282   7.932
 1522POPC   C4B21994   3.692  35.153   7.572
 1523POPC   NC321995   1.002  44.985   9.474
 1523POPC   PO421996   1.431  44.515   9.500
 1523POPC   GL121997   1.229  44.623   9.161
 1523POPC   GL221998   1.422  44.902   9.117
 1523POPC   C1A21999   1.049  44.423   8.809
 1523POPC   D2A22000   1.271  44.411   8.466
 1523POPC   C3A22001   1.081  44.313   8.083
 1523POPC   C4A22002   1.347  44.492   7.782
 1523POPC   C1B22003   1.111  44.944   8.767
 1523POPC   C2B22004   1.058  44.849   8.318
 1523POPC   C3B22005   1.237  44.976   7.913
 1523POPC   C4B22006   1.118   0.003   7.446
 1524POPC   NC322007  28.027  39.903   9.654
 1524POPC   PO422008  28.658  40.054   9.523
 1524POPC   GL122009  28.549  39.832   9.168
 1524POPC   GL222010  28.223  39.983   9.172
 1524POPC   C1A22011  28.513  39.975   8.746
 1524POPC   D2A22012  28.494  40.367   8.511
 1524POPC   C3A22013  28.730  40.381   8.138
 1524POPC   C4A22014  28.658  40.112   7.769
 1524POPC   C1B22015  27.958  40.004   8.816
 1524POPC   C2B22016  28.099  39.906   8.441
 1524POPC   C3B22017  28.260  40.073   8.110
 1524POPC   C4B22018  28.015  40.021   7.772
 1525POPC   NC322019  19.582  30.105   9.391
 1525POPC   PO422020  20.138  29.654   9.335
 1525POPC   GL122021  19.849  29.802   9.076
 1525POPC   GL222022  20.002  30.138   9.055
 1525POPC   C1A22023  19.735  29.586   8.734
 1525POPC   D2A22024  19.967  29.538   8.386
 1525POPC   C3A22025  19.822  29.749   8.080
 1525POPC   C4A22026  19.983  29.649   7.704
 1525POPC   C1B22027  19.786  30.121   8.647
 1525POPC   C2B22028  19.803  30.298   8.229
 1525POPC   C3B22029  20.026  30.163   7.850
 1525POPC   C4B22030  20.226  30.047   7.482
 1526POPC   NC322031  31.139   5.100   9.568
 1526POPC   PO422032  30.440   5.177   9.551
 1526POPC   GL122033  30.695   5.002   9.238
 1526POPC   GL222034  30.547   4.745   9.111
 1526POPC   C1A22035  30.716   5.119   8.782
 1526POPC   D2A22036  30.847   5.001   8.364
 1526POPC   C3A22037  30.719   5.215   7.981
 1526POPC   C4A22038  30.857   5.554   7.726
 1526POPC   C1B22039  30.330   4.780   8.735
 1526POPC   C2B22040  30.436   4.680   8.335
 1526POPC   C3B22041  30.276   4.679   7.930
 1526POPC   C4B22042  30.456   4.975   7.607
 1527POPC   NC322043   5.911  19.500   9.515
 1527POPC   PO422044   5.442  19.776   9.335
 1527POPC   GL122045   5.833  19.727   9.069
 1527POPC   GL222046   5.914  19.362   9.000
 1527POPC   C1A22047   5.967  19.869   8.665
 1527POPC   D2A22048   6.105  19.747   8.237
 1527POPC   C3A22049   5.895  19.985   7.924
 1527POPC   C4A22050   6.020  20.246   7.550
 1527POPC   C1B22051   5.534  19.509   8.737
 1527POPC   C2B22052   5.409  19.651   8.321
 1527POPC   C3B22053   5.656  19.481   8.020
 1527POPC   C4B22054   5.907  19.438   7.683
 1528POPC   NC322055  29.436   2.039   9.722
 1528POPC   PO422056  28.986   1.636   9.486
 1528POPC   GL122057  29.019   1.883   9.162
 1528POPC   GL222058  29.138   2.217   9.237
 1528POPC   C1A22059  29.049   1.660   8.790
 1528POPC   D2A22060  29.155   1.835   8.427
 1528POPC   C3A22061  29.106   1.667   8.052
 1528POPC   C4A22062  29.025   1.998   7.790
 1528POPC   C1B22063  29.193   2.379   8.791
 1528POPC   C2B22064  29.033   2.345   8.365
 1528POPC   C3B22065  29.244   2.447   8.006
 1528POPC   C4B22066  29.698   2.466   7.975
 1529POPC   NC322067   0.063  10.392   9.414
 1529POPC   PO422068  44.368  10.460   9.534
 1529POPC   GL122069  44.518  10.422   9.157
 1529POPC   GL222070  44.727  10.725   9.194
 1529POPC   C1A22071  44.458  10.227   8.752
 1529POPC   D2A22072  44.354  10.385   8.405
 1529POPC   C3A22073  44.482  10.340   8.033
 1529POPC   C4A22074  44.793  10.457   7.804
 1529POPC   C1B22075  44.759  10.625   8.752
 1529POPC   C2B22076  44.862  10.482   8.349
 1529POPC   C3B22077   0.214  10.546   8.068
 1529POPC   C4B22078   0.240  10.613   7.616
 1530POPC   NC322079  32.643   5.410   9.391
 1530POPC   PO422080  32.933   6.065   9.507
 1530POPC   GL122081  33.112   5.993   9.132
 1530POPC   GL222082  33.045   5.649   9.073
 1530POPC   C1A22083  32.948   6.018   8.732
 1530POPC   D2A22084  33.154   6.152   8.382
 1530POPC   C3A22085  33.000   5.982   8.020
 1530POPC   C4A22086  33.227   6.012   7.667
 1530POPC   C1B22087  33.171   5.390   8.746
 1530POPC   C2B22088  33.401   5.543   8.404
 1530POPC   C3B22089  33.428   5.475   7.990
 1530POPC   C4B22090  33.060   5.505   7.779
 1531POPC   NC322091   0.942  28.050   9.496
 1531POPC   PO422092   1.446  28.482   9.430
 1531POPC   GL122093   1.315  28.367   9.066
 1531POPC   GL222094   1.274  28.031   9.052
 1531POPC   C1A22095   1.135  28.440   8.683
 1531POPC   D2A22096   1.183  28.189   8.337
 1531POPC   C3A22097   1.022  28.429   8.010
 1531POPC   C4A22098   1.108  28.394   7.598
 1531POPC   C1B22099   0.927  27.967   8.793
 1531POPC   C2B22100   0.852  27.793   8.399
 1531POPC   C3B22101   0.821  27.973   7.996
 1531POPC   C4B22102   1.016  27.895   7.605
 1532POPC   NC322103  27.721   4.375   9.778
 1532POPC   PO422104  27.691   5.066   9.545
 1532POPC   GL122105  27.697   5.246   9.113
 1532POPC   GL222106  27.432   5.027   9.066
 1532POPC   C1A22107  27.544   5.276   8.633
 1532POPC   D2A22108  27.268   5.182   8.244
 1532POPC   C3A22109  27.507   5.041   7.889
 1532POPC   C4A22110  27.891   5.281   7.765
 1532POPC   C1B22111  27.736   4.822   8.793
 1532POPC   C2B22112  27.596   4.785   8.361
 1532POPC   C3B22113  27.801   4.628   7.981
 1532POPC   C4B22114  27.857   4.740   7.529
 1533POPC   NC322115  33.645   4.275   9.673
 1533POPC   PO422116  33.163   4.766   9.592
 1533POPC   GL122117  33.551   4.611   9.304
 1533POPC   GL222118  33.819   4.281   9.202
 1533POPC   C1A22119  33.594   4.520   8.854
 1533POPC   D2A22120  33.748   4.291   8.513
 1533POPC   C3A22121  33.689   4.577   8.207
 1533POPC   C4A22122  33.570   4.618   7.796
 1533POPC   C1B22123  34.124   4.403   8.853
 1533POPC   C2B22124  34.232   4.402   8.395
 1533POPC   C3B22125  34.003   4.166   8.064
 1533POPC   C4B22126  34.121   4.141   7.621
 1534POPC   NC322127  12.668   9.402   9.406
 1534POPC   PO422128  12.921   8.857   9.817
 1534POPC   GL122129  12.893   8.876   9.340
 1534POPC   GL222130  13.069   9.130   9.148
 1534POPC   C1A22131  12.756   8.781   8.918
 1534POPC   D2A22132  12.854   8.712   8.476
 1534POPC   C3A22133  12.640   8.923   8.155
 1534POPC   C4A22134  12.885   9.020   7.805
 1534POPC   C1B22135  13.177   9.045   8.714
 1534POPC   C2B22136  13.108   9.123   8.262
 1534POPC   C3B22137  13.280   9.306   7.912
 1534POPC   C4B22138  13.280   9.098   7.479
 1535POPC   NC322139   0.425  18.877   9.594
 1535POPC   PO422140   0.435  19.527   9.362
 1535POPC   GL122141   0.282  19.311   9.023
 1535POPC   GL222142   0.251  18.946   9.110
 1535POPC   C1A22143   0.631  19.232   8.737
 1535POPC   D2A22144   0.785  18.995   8.384
 1535POPC   C3A22145   0.680  19.259   8.018
 1535POPC   C4A22146   0.723  19.533   7.654
 1535POPC   C1B22147   0.478  18.738   8.782
 1535POPC   C2B22148   0.312  18.644   8.358
 1535POPC   C3B22149   0.331  18.852   7.945
 1535POPC   C4B22150   0.629  18.967   7.620
 1536POPC   NC322151   2.286  26.265   9.388
 1536POPC   PO422152   1.995  25.593   9.429
 1536POPC   GL122153   1.923  25.874   9.100
 1536POPC   GL222154   1.802  26.211   9.169
 1536POPC   C1A22155   1.915  25.799   8.680
 1536POPC   D2A22156   2.056  26.021   8.352
 1536POPC   C3A22157   2.015  25.878   7.964
 1536POPC   C4A22158   2.137  26.095   7.601
 1536POPC   C1B22159   2.059  26.285   8.795
 1536POPC   C2B22160   2.024  26.525   8.450
 1536POPC   C3B22161   1.933  26.398   8.032
 1536POPC   C4B22162   2.090  26.594   7.720
 1537POPC   NC322163  28.479  44.276   9.401
 1537POPC   PO422164  28.311  44.932   9.439
 1537POPC   GL122165  28.426  44.700   9.102
 1537POPC   GL222166  28.709  44.473   8.984
 1537POPC   C1A22167  28.232  44.545   8.765
 1537POPC   D2A22168  28.367  44.369   8.398
 1537POPC   C3A22169  28.165  44.527   8.051
 1537POPC   C4A22170  28.003  44.804   7.744
 1537POPC   C1B22171  28.663  44.821   8.670
 1537POPC   C2B22172  28.551  44.817   8.237
 1537POPC   C3B22173  28.519  44.764   7.770
 1537POPC   C4B22174  28.719  44.818   7.333
 1538POPC   NC322175  16.421  20.339   9.577
 1538POPC   PO422176  16.383  20.996   9.499
 1538POPC   GL122177  16.364  20.761   9.078
 1538POPC   GL222178  16.485  20.436   9.082
 1538POPC   C1A22179  16.518  20.787   8.654
 1538POPC   D2A22180  16.927  20.695   8.437
 1538POPC   C3A22181  16.779  20.864   8.059
 1538POPC   C4A22182  16.808  20.789   7.653
 1538POPC   C1B22183  16.708  20.320   8.717
 1538POPC   C2B22184  16.580  20.344   8.287
 1538POPC   C3B22185  16.763  20.349   7.887
 1538POPC   C4B22186  16.592  20.363   7.463
 1539POPC   NC322187  27.381  38.891   9.589
 1539POPC   PO422188  27.870  39.457   9.676
 1539POPC   GL122189  27.773  39.253   9.271
 1539POPC   GL222190  27.472  39.193   9.180
 1539POPC   C1A22191  27.860  39.142   8.839
 1539POPC   D2A22192  27.748  39.028   8.436
 1539POPC   C3A22193  27.997  39.022   8.051
 1539POPC   C4A22194  27.884  39.214   7.678
 1539POPC   C1B22195  27.340  39.173   8.765
 1539POPC   C2B22196  27.318  39.309   8.364
 1539POPC   C3B22197  27.495  39.184   7.994
 1539POPC   C4B22198  27.315  39.296   7.594
 1540POPC   NC322199  38.159  32.727   9.434
 1540POPC   PO422200  38.338  33.406   9.489
 1540POPC   GL122201  38.476  33.177   9.129
 1540POPC   GL222202  38.789  33.017   9.174
 1540POPC   C1A22203  38.502  33.155   8.683
 1540POPC   D2A22204  38.524  33.260   8.245
 1540POPC   C3A22205  38.201  33.139   7.911
 1540POPC   C4A22206  38.258  32.834   7.549
 1540POPC   C1B22207  38.962  33.328   8.861
 1540POPC   C2B22208  39.025  33.457   8.406
 1540POPC   C3B22209  38.949  33.348   7.959
 1540POPC   C4B22210  38.680  33.034   7.767
 1541POPC   NC322211  24.040  44.854   9.714
 1541POPC   PO422212  23.420  44.616   9.406
 1541POPC   GL122213  23.556  44.676   9.023
 1541POPC   GL222214  23.860  44.793   9.075
 1541POPC   C1A22215  23.612  44.794   8.601
 1541POPC   D2A22216  23.718  44.539   8.259
 1541POPC   C3A22217  23.532  44.673   7.896
 1541POPC   C4A22218  23.509  44.504   7.516
 1541POPC   C1B22219  24.086  44.687   8.690
 1541POPC   C2B22220  24.057  44.939   8.316
 1541POPC   C3B22221  24.032  44.777   7.910
 1541POPC   C4B22222  23.999  44.599   7.494
 1542POPC   NC322223  31.256  11.930   9.534
 1542POPC   PO422224  31.426  11.262   9.474
 1542POPC   GL122225  31.684  11.231   9.104
 1542POPC   GL222226  31.796  11.587   9.049
 1542POPC   C1A22227  31.742  11.160   8.683
 1542POPC   D2A22228  31.571  10.796   8.452
 1542POPC   C3A22229  31.397  10.874   8.025
 1542POPC   C4A22230  31.580  11.032   7.639
 1542POPC   C1B22231  31.405  11.553   8.811
 1542POPC   C2B22232  31.355  11.325   8.407
 1542POPC   C3B22233  31.586  11.341   8.050
 1542POPC   C4B22234  31.266  11.416   7.787
 1543POPC   NC322235  20.347  22.320   9.537
 1543POPC   PO422236  20.747  21.837   9.338
 1543POPC   GL122237  20.775  22.160   9.070
 1543POPC   GL222238  20.472  22.289   9.034
 1543POPC   C1A22239  20.719  22.059   8.641
 1543POPC   D2A22240  20.369  21.926   8.390
 1543POPC   C3A22241  20.505  22.131   8.042
 1543POPC   C4A22242  20.825  22.071   7.728
 1543POPC   C1B22243  20.449  22.512   8.635
 1543POPC   C2B22244  20.134  22.458   8.325
 1543POPC   C3B22245  20.137  22.557   7.920
 1543POPC   C4B22246  20.513  22.495   7.699
 1544POPC   NC322247   1.548  17.801   9.534
 1544POPC   PO422248   1.459  17.190   9.388
 1544POPC   GL122249   1.340  17.491   9.085
 1544POPC   GL222250   1.388  17.869   9.066
 1544POPC   C1A22251   1.263  17.375   8.677
 1544POPC   D2A22252   0.955  17.247   8.350
 1544POPC   C3A22253   1.069  17.322   7.894
 1544POPC   C4A22254   0.972  17.202   7.450
 1544POPC   C1B22255   1.159  17.861   8.696
 1544POPC   C2B22256   1.264  17.693   8.281
 1544POPC   C3B22257   1.305  17.810   7.873
 1544POPC   C4B22258   1.000  18.025   7.669
 1545POPC   NC322259   9.667   6.785   9.365
 1545POPC   PO422260   9.975   6.520   9.944
 1545POPC   GL122261  10.101   6.562   9.404
 1545POPC   GL222262   9.895   6.324   9.233
 1545POPC   C1A22263  10.029   6.650   8.867
 1545POPC   D2A22264   9.669   6.728   8.554
 1545POPC   C3A22265   9.759   6.840   8.106
 1545POPC   C4A22266  10.141   6.793   7.865
 1545POPC   C1B22267   9.659   6.275   8.819
 1545POPC   C2B22268   9.716   6.264   8.346
 1545POPC   C3B22269   9.773   6.366   7.873
 1545POPC   C4B22270   9.540   6.330   7.455
 1546POPC   NC322271  25.670  35.085   9.587
 1546POPC   PO422272  26.207  35.517   9.594
 1546POPC   GL122273  25.932  35.402   9.221
 1546POPC   GL222274  25.947  35.025   9.165
 1546POPC   C1A22275  25.947  35.354   8.749
 1546POPC   D2A22276  26.228  35.507   8.417
 1546POPC   C3A22277  26.131  35.503   7.941
 1546POPC   C4A22278  25.831  35.484   7.562
 1546POPC   C1B22279  26.355  35.100   8.961
 1546POPC   C2B22280  26.358  35.001   8.522
 1546POPC   C3B22281  26.036  35.052   8.233
 1546POPC   C4B22282  26.005  35.015   7.811
 1547POPC   NC322283  11.566  32.833   9.465
 1547POPC   PO422284  10.973  33.093   9.560
 1547POPC   GL122285  11.119  32.897   9.204
 1547POPC   GL222286  11.340  33.185   9.204
 1547POPC   C1A22287  10.953  32.752   8.817
 1547POPC   D2A22288  10.870  33.035   8.472
 1547POPC   C3A22289  10.975  32.934   8.087
 1547POPC   C4A22290  11.208  33.157   7.812
 1547POPC   C1B22291  11.261  33.156   8.789
 1547POPC   C2B22292  11.363  32.931   8.423
 1547POPC   C3B22293  11.586  32.953   8.065
 1547POPC   C4B22294  11.752  32.746   7.726
 1548POPC   NC322295  21.961  29.549   9.561
 1548POPC   PO422296  21.666  30.139   9.455
 1548POPC   GL122297  22.026  29.892   9.181
 1548POPC   GL222298  22.223  29.552   9.128
 1548POPC   C1A22299  22.245  30.022   8.821
 1548POPC   D2A22300  22.058  30.038   8.411
 1548POPC   C3A22301  22.250  30.044   8.038
 1548POPC   C4A22302  21.990  29.840   7.822
 1548POPC   C1B22303  22.071  29.553   8.730
 1548POPC   C2B22304  22.313  29.600   8.384
 1548POPC   C3B22305  22.379  29.509   7.987
 1548POPC   C4B22306  22.443  29.724   7.607
 1549POPC   NC322307   3.000  29.338   9.580
 1549POPC   PO422308   2.652  28.876   9.575
 1549POPC   GL122309   2.832  28.964   9.218
 1549POPC   GL222310   2.606  29.248   9.193
 1549POPC   C1A22311   2.986  29.145   8.841
 1549POPC   D2A22312   2.749  29.113   8.461
 1549POPC   C3A22313   2.812  29.155   8.037
 1549POPC   C4A22314   2.903  28.809   7.732
 1549POPC   C1B22315   2.523  29.427   8.789
 1549POPC   C2B22316   2.468  29.616   8.347
 1549POPC   C3B22317   2.416  29.517   7.894
 1549POPC   C4B22318   2.528  29.155   7.614
 1550POPC   NC322319  14.173  10.463   9.602
 1550POPC   PO422320  14.627  10.488   9.137
 1550POPC   GL122321  14.343  10.665   8.907
 1550POPC   GL222322  14.109  10.720   9.168
 1550POPC   C1A22323  14.340  10.416   8.539
 1550POPC   D2A22324  14.736  10.254   8.380
 1550POPC   C3A22325  14.649  10.187   7.958
 1550POPC   C4A22326  14.488  10.549   7.730
 1550POPC   C1B22327  13.873  10.767   8.791
 1550POPC   C2B22328  14.008  10.777   8.375
 1550POPC   C3B22329  14.095  10.461   8.073
 1550POPC   C4B22330  13.959  10.559   7.670
 1551POPC   NC322331  17.748   8.343   9.508
 1551POPC   PO422332  17.149   8.056   9.513
 1551POPC   GL122333  17.412   8.118   9.186
 1551POPC   GL222334  17.395   8.456   9.154
 1551POPC   C1A22335  17.464   8.111   8.744
 1551POPC   D2A22336  17.642   8.275   8.391
 1551POPC   C3A22337  17.421   8.247   8.007
 1551POPC   C4A22338  17.578   8.077   7.617
 1551POPC   C1B22339  17.249   8.709   8.826
 1551POPC   C2B22340  17.318   8.693   8.392
 1551POPC   C3B22341  17.210   8.717   7.962
 1551POPC   C4B22342  17.350   8.536   7.551
 1552POPC   NC322343  33.273  23.176   9.325
 1552POPC   PO422344  32.854  22.585   9.425
 1552POPC   GL122345  32.997  22.816   9.069
 1552POPC   GL222346  33.166  23.141   8.849
 1552POPC   C1A22347  32.972  22.703   8.682
 1552POPC   D2A22348  33.069  22.961   8.367
 1552POPC   C3A22349  32.950  22.791   8.026
 1552POPC   C4A22350  33.011  22.747   7.630
 1552POPC   C1B22351  32.732  23.153   8.749
 1552POPC   C2B22352  32.519  23.314   8.406
 1552POPC   C3B22353  32.749  23.287   8.036
 1552POPC   C4B22354  32.730  23.296   7.588
 1553POPC   NC322355   5.818  10.173   9.891
 1553POPC   PO422356   5.749  10.699   9.421
 1553POPC   GL122357   5.990  10.727   9.077
 1553POPC   GL222358   5.684  10.717   8.893
 1553POPC   C1A22359   6.146  10.824   8.667
 1553POPC   D2A22360   6.141  10.577   8.322
 1553POPC   C3A22361   5.808  10.737   8.129
 1553POPC   C4A22362   5.778  10.957   7.764
 1553POPC   C1B22363   5.904  10.347   8.741
 1553POPC   C2B22364   5.769  10.160   8.401
 1553POPC   C3B22365   5.906  10.179   8.002
 1553POPC   C4B22366   5.676  10.458   7.730
 1554POPC   NC322367  35.985  32.309  10.104
 1554POPC   PO422368  35.806  32.001   9.564
 1554POPC   GL122369  36.202  32.032   9.233
 1554POPC   GL222370  36.404  31.688   9.259
 1554POPC   C1A22371  36.119  32.184   8.747
 1554POPC   D2A22372  35.888  32.141   8.280
 1554POPC   C3A22373  35.889  32.337   7.822
 1554POPC   C4A22374  35.698  32.702   7.589
 1554POPC   C1B22375  36.459  31.818   8.812
 1554POPC   C2B22376  36.515  32.113   8.434
 1554POPC   C3B22377  36.357  32.261   8.028
 1554POPC   C4B22378  36.336  32.154   7.579
 1555POPC   NC322379  29.285  18.559   9.387
 1555POPC   PO422380  28.859  17.976   9.477
 1555POPC   GL122381  28.875  18.230   9.133
 1555POPC   GL222382  29.239  18.173   9.064
 1555POPC   C1A22383  28.921  18.590   8.845
 1555POPC   D2A22384  29.138  18.611   8.446
 1555POPC   C3A22385  28.946  18.531   8.005
 1555POPC   C4A22386  28.947  18.448   7.544
 1555POPC   C1B22387  29.078  18.131   8.659
 1555POPC   C2B22388  29.092  18.094   8.231
 1555POPC   C3B22389  28.892  18.020   7.853
 1555POPC   C4B22390  28.917  17.713   7.557
 1556POPC   NC322391  41.182   1.100   9.354
 1556POPC   PO422392  41.823   1.368   9.442
 1556POPC   GL122393  41.639   1.260   9.105
 1556POPC   GL222394  41.405   1.546   9.148
 1556POPC   C1A22395  41.399   1.255   8.724
 1556POPC   D2A22396  41.245   1.081   8.364
 1556POPC   C3A22397  41.411   1.353   8.068
 1556POPC   C4A22398  41.399   1.247   7.642
 1556POPC   C1B22399  41.694   1.670   8.808
 1556POPC   C2B22400  41.510   1.692   8.440
 1556POPC   C3B22401  41.635   1.832   8.095
 1556POPC   C4B22402  41.743   1.613   7.744
 1557POPC   NC322403  15.200  32.599   9.630
 1557POPC   PO422404  14.886  33.209   9.675
 1557POPC   GL122405  15.018  33.030   9.258
 1557POPC   GL222406  15.296  32.809   9.170
 1557POPC   C1A22407  15.142  33.162   8.818
 1557POPC   D2A22408  15.204  32.979   8.384
 1557POPC   C3A22409  15.079  33.236   8.011
 1557POPC   C4A22410  14.743  33.335   7.717
 1557POPC   C1B22411  15.426  32.558   8.810
 1557POPC   C2B22412  15.539  32.594   8.348
 1557POPC   C3B22413  15.345  32.640   7.910
 1557POPC   C4B22414  15.532  32.859   7.533
 1558POPC   NC322415  30.599  40.369   9.599
 1558POPC   PO422416  30.286  39.763   9.450
 1558POPC   GL122417  30.505  40.081   9.139
 1558POPC   GL222418  30.776  40.271   9.127
 1558POPC   C1A22419  30.493  40.234   8.704
 1558POPC   D2A22420  30.531  39.883   8.423
 1558POPC   C3A22421  30.543  39.979   7.975
 1558POPC   C4A22422  30.920  39.894   7.716
 1558POPC   C1B22423  31.008  40.186   8.754
 1558POPC   C2B22424  30.952  40.132   8.314
 1558POPC   C3B22425  30.897  40.341   7.943
 1558POPC   C4B22426  31.054  40.351   7.530
 1559POPC   NC322427  15.968  22.483   9.576
 1559POPC   PO422428  15.951  21.874   9.365
 1559POPC   GL122429  16.007  22.274   9.117
 1559POPC   GL222430  15.710  22.558   9.150
 1559POPC   C1A22431  16.155  22.224   8.691
 1559POPC   D2A22432  15.974  21.892   8.442
 1559POPC   C3A22433  16.082  22.028   8.049
 1559POPC   C4A22434  16.182  22.448   7.887
 1559POPC   C1B22435  15.672  22.388   8.740
 1559POPC   C2B22436  15.822  22.373   8.314
 1559POPC   C3B22437  15.677  22.298   7.909
 1559POPC   C4B22438  15.507  21.871   7.846
 1560POPC   NC322439  43.214  14.012   9.586
 1560POPC   PO422440  43.224  13.374   9.346
 1560POPC   GL122441  43.114  13.721   9.121
 1560POPC   GL222442  42.806  13.879   9.216
 1560POPC   C1A22443  43.121  13.595   8.710
 1560POPC   D2A22444  43.406  13.609   8.413
 1560POPC   C3A22445  43.256  13.397   8.072
 1560POPC   C4A22446  42.887  13.549   7.860
 1560POPC   C1B22447  42.826  14.002   8.779
 1560POPC   C2B22448  42.823  13.777   8.344
 1560POPC   C3B22449  42.816  14.062   7.994
 1560POPC   C4B22450  42.930  14.173   7.567
 1561POPC   NC322451  38.703  39.733   9.540
 1561POPC   PO422452  38.124  40.013   9.274
 1561POPC   GL122453  38.486  39.974   9.105
 1561POPC   GL222454  38.494  39.603   9.103
 1561POPC   C1A22455  38.546  40.178   8.713
 1561POPC   D2A22456  38.430  40.357   8.317
 1561POPC   C3A22457  38.619  40.186   7.967
 1561POPC   C4A22458  38.551  40.205   7.522
 1561POPC   C1B22459  38.302  39.678   8.708
 1561POPC   C2B22460  38.366  39.861   8.325
 1561POPC   C3B22461  38.204  39.900   7.926
 1561POPC   C4B22462  38.437  39.741   7.611
 1562POPC   NC322463  23.079   8.815   9.393
 1562POPC   PO422464  22.545   9.261   9.447
 1562POPC   GL122465  22.699   9.054   9.080
 1562POPC   GL222466  23.062   9.086   8.950
 1562POPC   C1A22467  22.625   9.075   8.638
 1562POPC   D2A22468  22.786   8.865   8.288
 1562POPC   C3A22469  22.988   9.179   8.033
 1562POPC   C4A22470  23.112   9.037   7.646
 1562POPC   C1B22471  22.982   8.689   8.738
 1562POPC   C2B22472  23.163   8.480   8.365
 1562POPC   C3B22473  23.229   8.654   7.942
 1562POPC   C4B22474  23.321   8.586   7.448
 1563POPC   NC322475  34.802  20.083   9.527
 1563POPC   PO422476  34.316  19.583   9.687
 1563POPC   GL122477  34.563  19.627   9.284
 1563POPC   GL222478  34.663  19.930   9.089
 1563POPC   C1A22479  34.668  19.461   8.849
 1563POPC   D2A22480  34.415  19.399   8.451
 1563POPC   C3A22481  34.594  19.569   8.063
 1563POPC   C4A22482  34.690  19.742   7.646
 1563POPC   C1B22483  34.824  20.169   8.759
 1563POPC   C2B22484  34.721  19.974   8.388
 1563POPC   C3B22485  34.615  20.088   8.003
 1563POPC   C4B22486  34.708  20.291   7.620
 1564POPC   NC322487  44.092  37.784   9.532
 1564POPC   PO422488  43.463  37.823   9.671
 1564POPC   GL122489  43.665  37.906   9.243
 1564POPC   GL222490  43.912  37.631   9.082
 1564POPC   C1A22491  43.773  38.028   8.802
 1564POPC   D2A22492  43.975  37.755   8.478
 1564POPC   C3A22493  43.796  37.636   8.124
 1564POPC   C4A22494  43.810  37.664   7.716
 1564POPC   C1B22495  44.042  37.324   8.749
 1564POPC   C2B22496  43.792  37.151   8.385
 1564POPC   C3B22497  43.587  37.192   7.975
 1564POPC   C4B22498  43.636  37.234   7.521
 1565POPC   NC322499  32.032  27.328   9.435
 1565POPC   PO422500  32.574  27.693   9.480
 1565POPC   GL122501  32.350  27.677   9.103
 1565POPC   GL222502  31.984  27.718   9.119
 1565POPC   C1A22503  32.388  27.720   8.656
 1565POPC   D2A22504  32.552  27.337   8.472
 1565POPC   C3A22505  32.534  27.309   8.040
 1565POPC   C4A22506  32.391  27.666   7.757
 1565POPC   C1B22507  32.042  27.371   8.772
 1565POPC   C2B22508  32.061  27.462   8.314
 1565POPC   C3B22509  31.819  27.400   7.931
 1565POPC   C4B22510  31.786  27.338   7.484
 1566POPC   NC322511  11.329  36.550   9.527
 1566POPC   PO422512  11.399  35.867   9.586
 1566POPC   GL122513  11.218  36.123   9.231
 1566POPC   GL222514  11.133  35.838   9.035
 1566POPC   C1A22515  11.134  36.335   8.800
 1566POPC   D2A22516  11.065  36.557   8.401
 1566POPC   C3A22517  11.167  36.304   8.016
 1566POPC   C4A22518  11.290  35.867   7.838
 1566POPC   C1B22519  11.135  35.882   8.546
 1566POPC   C2B22520  11.489  36.022   8.286
 1566POPC   C3B22521  11.824  35.812   8.043
 1566POPC   C4B22522  11.739  35.644   7.641
 1567POPC   NC322523   9.510  25.734   9.523
 1567POPC   PO422524   9.553  26.355   9.620
 1567POPC   GL122525   9.483  26.219   9.218
 1567POPC   GL222526   9.662  25.949   9.100
 1567POPC   C1A22527   9.438  26.282   8.794
 1567POPC   D2A22528   9.468  26.106   8.398
 1567POPC   C3A22529   9.328  26.277   8.047
 1567POPC   C4A22530   9.558  26.268   7.667
 1567POPC   C1B22531   9.817  25.883   8.705
 1567POPC   C2B22532   9.846  25.775   8.278
 1567POPC   C3B22533  10.015  25.886   7.885
 1567POPC   C4B22534  10.351  25.910   7.595
 1568POPC   NC322535  20.981   4.795   9.506
 1568POPC   PO422536  21.708   4.835   9.472
 1568POPC   GL122537  21.400   4.789   9.172
 1568POPC   GL222538  21.250   5.133   9.152
 1568POPC   C1A22539  21.527   4.920   8.768
 1568POPC   D2A22540  21.660   5.073   8.377
 1568POPC   C3A22541  21.545   4.887   7.973
 1568POPC   C4A22542  21.424   4.958   7.539
 1568POPC   C1B22543  21.373   5.431   8.796
 1568POPC   C2B22544  21.578   5.585   8.404
 1568POPC   C3B22545  21.489   5.395   8.009
 1568POPC   C4B22546  21.131   5.288   7.807
 1569POPC   NC322547  24.824   7.089   9.842
 1569POPC   PO422548  25.278   7.496   9.413
 1569POPC   GL122549  25.406   7.536   9.063
 1569POPC   GL222550  25.322   7.198   8.993
 1569POPC   C1A22551  25.223   7.631   8.693
 1569POPC   D2A22552  25.204   7.435   8.342
 1569POPC   C3A22553  25.316   7.681   8.040
 1569POPC   C4A22554  25.128   7.534   7.686
 1569POPC   C1B22555  25.465   7.098   8.599
 1569POPC   C2B22556  25.456   7.040   8.138
 1569POPC   C3B22557  25.226   7.045   7.746
 1569POPC   C4B22558  25.397   7.166   7.336
 1570POPC   NC322559   8.706  27.091   9.620
 1570POPC   PO422560   9.309  26.873   9.592
 1570POPC   GL122561   9.081  26.958   9.247
 1570POPC   GL222562   9.399  26.997   9.071
 1570POPC   C1A22563   8.946  26.723   8.880
 1570POPC   D2A22564   9.018  26.455   8.543
 1570POPC   C3A22565   8.996  26.668   8.172
 1570POPC   C4A22566   9.068  26.644   7.741
 1570POPC   C1B22567   9.146  27.184   8.772
 1570POPC   C2B22568   9.231  27.095   8.363
 1570POPC   C3B22569   9.106  27.143   7.964
 1570POPC   C4B22570   9.182  27.125   7.543
 1571POPC   NC322571  38.594   5.327   9.573
 1571POPC   PO422572  38.139   4.923   9.289
 1571POPC   GL122573  38.565   4.925   9.131
 1571POPC   GL222574  38.628   5.260   9.065
 1571POPC   C1A22575  38.795   4.897   8.742
 1571POPC   D2A22576  38.800   5.081   8.342
 1571POPC   C3A22577  38.610   4.810   8.037
 1571POPC   C4A22578  38.257   4.896   7.788
 1571POPC   C1B22579  38.346   5.204   8.692
 1571POPC   C2B22580  38.382   5.423   8.288
 1571POPC   C3B22581  38.543   5.308   7.896
 1571POPC   C4B22582  38.780   5.366   7.518
 1572POPC   NC322583  32.320  28.878   9.493
 1572POPC   PO422584  31.735  29.309   9.480
 1572POPC   GL122585  31.998  29.160   9.172
 1572POPC   GL222586  31.992  28.843   9.104
 1572POPC   C1A22587  32.111  29.226   8.761
 1572POPC   D2A22588  32.198  29.435   8.387
 1572POPC   C3A22589  32.355  29.229   8.037
 1572POPC   C4A22590  32.650  29.393   7.727
 1572POPC   C1B22591  32.104  28.707   8.722
 1572POPC   C2B22592  32.045  28.916   8.341
 1572POPC   C3B22593  31.995  28.808   7.923
 1572POPC   C4B22594  32.141  28.833   7.501
 1573POPC   NC322595  41.355  21.209   9.799
 1573POPC   PO422596  40.722  21.409   9.570
 1573POPC   GL122597  40.824  21.507   9.179
 1573POPC   GL222598  41.173  21.541   9.238
 1573POPC   C1A22599  40.635  21.342   8.802
 1573POPC   D2A22600  40.442  21.179   8.445
 1573POPC   C3A22601  40.535  21.417   8.091
 1573POPC   C4A22602  40.433  21.352   7.677
 1573POPC   C1B22603  41.141  21.283   8.840
 1573POPC   C2B22604  40.976  21.362   8.399
 1573POPC   C3B22605  41.006  21.241   7.952
 1573POPC   C4B22606  40.950  21.450   7.532
 1574POPC   NC322607  36.834   4.056   9.812
 1574POPC   PO422608  37.092   3.539   9.388
 1574POPC   GL122609  36.973   3.409   9.041
 1574POPC   GL222610  37.222   3.636   8.922
 1574POPC   C1A22611  36.882   3.429   8.624
 1574POPC   D2A22612  36.647   3.495   8.323
 1574POPC   C3A22613  36.824   3.435   7.937
 1574POPC   C4A22614  36.684   3.539   7.527
 1574POPC   C1B22615  37.114   3.937   8.693
 1574POPC   C2B22616  37.091   3.842   8.305
 1574POPC   C3B22617  37.251   4.070   8.010
 1574POPC   C4B22618  37.026   3.879   7.732
 1575POPC   NC322619  13.818  42.575   9.477
 1575POPC   PO422620  13.700  42.001   9.233
 1575POPC   GL122621  13.538  42.387   9.095
 1575POPC   GL222622  13.240  42.263   9.042
 1575POPC   C1A22623  13.692  42.623   8.740
 1575POPC   D2A22624  14.013  42.467   8.441
 1575POPC   C3A22625  14.147  42.665   8.058
 1575POPC   C4A22626  13.881  42.689   7.712
 1575POPC   C1B22627  13.457  42.170   8.648
 1575POPC   C2B22628  13.530  42.408   8.282
 1575POPC   C3B22629  13.629  42.239   7.913
 1575POPC   C4B22630  13.415  41.975   7.610
 1576POPC   NC322631   2.301  37.715   9.387
 1576POPC   PO422632   1.648  37.514   9.437
 1576POPC   GL122633   1.835  37.726   9.134
 1576POPC   GL222634   1.786  38.088   9.154
 1576POPC   C1A22635   1.875  37.568   8.742
 1576POPC   D2A22636   1.653  37.618   8.383
 1576POPC   C3A22637   1.888  37.468   8.047
 1576POPC   C4A22638   1.705  37.556   7.676
 1576POPC   C1B22639   2.091  38.041   8.792
 1576POPC   C2B22640   2.137  37.841   8.392
 1576POPC   C3B22641   1.983  37.974   8.030
 1576POPC   C4B22642   2.244  38.244   7.804
 1577POPC   NC322643   5.445  33.540   9.299
 1577POPC   PO422644   5.950  33.888   9.534
 1577POPC   GL122645   5.898  33.911   9.140
 1577POPC   GL222646   5.617  34.133   9.175
 1577POPC   C1A22647   5.828  33.736   8.762
 1577POPC   D2A22648   5.739  33.862   8.367
 1577POPC   C3A22649   5.916  33.559   8.112
 1577POPC   C4A22650   6.153  33.539   7.742
 1577POPC   C1B22651   5.715  34.231   8.752
 1577POPC   C2B22652   5.452  34.286   8.399
 1577POPC   C3B22653   5.495  34.123   7.977
 1577POPC   C4B22654   5.721  33.851   7.745
 1578POPC   NC322655  37.449  41.974   9.564
 1578POPC   PO422656  37.937  42.486   9.584
 1578POPC   GL122657  37.756  42.247   9.253
 1578POPC   GL222658  37.387  42.330   9.206
 1578POPC   C1A22659  37.740  42.221   8.813
 1578POPC   D2A22660  37.742  42.010   8.422
 1578POPC   C3A22661  37.813  42.303   8.117
 1578POPC   C4A22662  37.786  42.101   7.753
 1578POPC   C1B22663  37.242  42.124   8.840
 1578POPC   C2B22664  37.338  42.290   8.465
 1578POPC   C3B22665  37.332  42.177   8.061
 1578POPC   C4B22666  37.360  42.395   7.704
 1579POPC   NC322667  26.490   7.649   9.567
 1579POPC   PO422668  27.072   7.372   9.571
 1579POPC   GL122669  26.869   7.485   9.182
 1579POPC   GL222670  26.534   7.511   9.094
 1579POPC   C1A22671  27.038   7.472   8.761
 1579POPC   D2A22672  27.090   7.698   8.404
 1579POPC   C3A22673  26.931   7.508   8.047
 1579POPC   C4A22674  27.031   7.571   7.645
 1579POPC   C1B22675  26.631   7.173   8.851
 1579POPC   C2B22676  26.582   7.028   8.479
 1579POPC   C3B22677  26.621   7.069   8.064
 1579POPC   C4B22678  26.478   6.818   7.772
 1580POPC   NC322679  25.408  31.871   9.357
 1580POPC   PO422680  25.043  32.479   9.457
 1580POPC   GL122681  25.245  32.319   9.157
 1580POPC   GL222682  24.992  32.076   9.073
 1580POPC   C1A22683  25.287  32.417   8.735
 1580POPC   D2A22684  25.060  32.306   8.377
 1580POPC   C3A22685  25.235  32.451   8.025
 1580POPC   C4A22686  25.618  32.286   7.839
 1580POPC   C1B22687  25.034  31.850   8.691
 1580POPC   C2B22688  25.315  31.840   8.333
 1580POPC   C3B22689  25.244  31.942   7.920
 1580POPC   C4B22690  24.931  32.171   7.721
 1581POPC   NC322691  11.848  18.118   9.583
 1581POPC   PO422692  12.473  18.103   9.293
 1581POPC   GL122693  12.228  18.427   9.164
 1581POPC   GL222694  11.958  18.249   9.117
 1581POPC   C1A22695  11.951  18.672   8.854
 1581POPC   D2A22696  11.938  18.483   8.479
 1581POPC   C3A22697  11.958  18.662   8.071
 1581POPC   C4A22698  11.853  18.494   7.676
 1581POPC   C1B22699  12.094  18.001   8.771
 1581POPC   C2B22700  12.210  18.085   8.338
 1581POPC   C3B22701  12.163  17.939   7.936
 1581POPC   C4B22702  12.168  18.119   7.530
 1582POPC   NC322703  16.288  10.252   9.678
 1582POPC   PO422704  16.794  10.738   9.607
 1582POPC   GL122705  16.860  10.511   9.249
 1582POPC   GL222706  16.520  10.416   9.235
 1582POPC   C1A22707  16.876  10.371   8.831
 1582POPC   D2A22708  17.079  10.219   8.463
 1582POPC   C3A22709  16.879  10.426   8.115
 1582POPC   C4A22710  16.943  10.619   7.714
 1582POPC   C1B22711  16.409  10.130   8.909
 1582POPC   C2B22712  16.577  10.072   8.503
 1582POPC   C3B22713  16.434  10.115   8.089
 1582POPC   C4B22714  16.455  10.432   7.794
 1583POPC   NC322715  29.967   5.354   9.517
 1583POPC   PO422716  29.702   4.695   9.493
 1583POPC   GL122717  29.785   5.005   9.165
 1583POPC   GL222718  30.147   5.066   9.147
 1583POPC   C1A22719  29.854   4.951   8.725
 1583POPC   D2A22720  29.958   4.830   8.338
 1583POPC   C3A22721  29.719   4.934   7.994
 1583POPC   C4A22722  29.951   4.903   7.601
 1583POPC   C1B22723  30.205   5.302   8.802
 1583POPC   C2B22724  30.369   5.206   8.388
 1583POPC   C3B22725  30.169   5.182   7.983
 1583POPC   C4B22726  29.778   5.374   7.751
 1584POPC   NC322727   1.006  34.708   9.444
 1584POPC   PO422728   1.430  34.190   9.232
 1584POPC   GL122729   1.372  34.589   9.090
 1584POPC   GL222730   1.045  34.495   8.995
 1584POPC   C1A22731   1.388  34.897   8.765
 1584POPC   D2A22732   1.095  34.938   8.439
 1584POPC   C3A22733   1.203  34.668   8.116
 1584POPC   C4A22734   1.185  34.731   7.713
 1584POPC   C1B22735   1.225  34.441   8.587
 1584POPC   C2B22736   1.408  34.200   8.233
 1584POPC   C3B22737   1.259  34.235   7.787
 1584POPC   C4B22738   1.417  34.141   7.378
 1585POPC   NC322739  42.122  18.782   9.416
 1585POPC   PO422740  42.256  19.454   9.598
 1585POPC   GL122741  42.353  19.223   9.244
 1585POPC   GL222742  42.018  19.335   9.136
 1585POPC   C1A22743  42.536  19.160   8.826
 1585POPC   D2A22744  42.532  18.973   8.408
 1585POPC   C3A22745  42.470  19.212   7.999
 1585POPC   C4A22746  42.605  19.398   7.608
 1585POPC   C1B22747  42.028  19.047   8.828
 1585POPC   C2B22748  42.033  19.073   8.436
 1585POPC   C3B22749  42.098  18.891   8.088
 1585POPC   C4B22750  41.970  18.995   7.705
 1586POPC   NC322751   8.066  39.229   9.551
 1586POPC   PO422752   8.619  38.807   9.658
 1586POPC   GL122753   8.364  38.963   9.240
 1586POPC   GL222754   8.312  39.324   9.127
 1586POPC   C1A22755   8.028  38.985   8.883
 1586POPC   D2A22756   8.175  39.027   8.470
 1586POPC   C3A22757   8.121  39.121   8.035
 1586POPC   C4A22758   8.235  38.811   7.708
 1586POPC   C1B22759   8.370  39.477   8.719
 1586POPC   C2B22760   8.237  39.570   8.317
 1586POPC   C3B22761   8.430  39.516   7.931
 1586POPC   C4B22762   8.411  39.291   7.547
 1587POPC   NC322763   8.475  21.700   9.246
 1587POPC   PO422764   8.316  22.324   9.471
 1587POPC   GL122765   8.368  22.431   9.048
 1587POPC   GL222766   8.253  22.108   9.003
 1587POPC   C1A22767   8.157  22.420   8.626
 1587POPC   D2A22768   8.120  22.146   8.257
 1587POPC   C3A22769   8.065  22.399   7.904
 1587POPC   C4A22770   8.489  22.470   7.793
 1587POPC   C1B22771   8.301  21.865   8.657
 1587POPC   C2B22772   8.612  21.778   8.412
 1587POPC   C3B22773   8.454  21.726   8.019
 1587POPC   C4B22774   8.283  21.987   7.724
 1588POPC   NC322775  30.252  30.780   9.525
 1588POPC   PO422776  29.606  30.656   9.467
 1588POPC   GL122777  29.902  30.763   9.149
 1588POPC   GL222778  30.136  31.053   9.121
 1588POPC   C1A22779  30.046  30.613   8.775
 1588POPC   D2A22780  29.840  30.434   8.423
 1588POPC   C3A22781  30.053  30.419   8.038
 1588POPC   C4A22782  29.893  30.325   7.647
 1588POPC   C1B22783  29.870  31.117   8.768
 1588POPC   C2B22784  29.772  30.952   8.379
 1588POPC   C3B22785  29.959  30.919   7.979
 1588POPC   C4B22786  30.146  30.759   7.562
 1589POPC   NC322787  16.256   7.957   9.456
 1589POPC   PO422788  16.295   8.541   9.250
 1589POPC   GL122789  15.980   8.233   9.096
 1589POPC   GL222790  16.143   8.258   8.787
 1589POPC   C1A22791  15.686   8.007   8.795
 1589POPC   D2A22792  15.734   7.870   8.352
 1589POPC   C3A22793  15.968   8.060   8.025
 1589POPC   C4A22794  15.679   8.081   7.697
 1589POPC   C1B22795  15.756   8.490   8.650
 1589POPC   C2B22796  15.504   8.341   8.292
 1589POPC   C3B22797  15.574   8.529   7.895
 1589POPC   C4B22798  15.929   8.543   7.647
 1590POPC   NC322799  37.363  25.555   9.259
 1590POPC   PO422800  36.860  25.180   9.631
 1590POPC   GL122801  36.853  25.307   9.193
 1590POPC   GL222802  36.677  25.595   9.049
 1590POPC   C1A22803  36.731  25.121   8.797
 1590POPC   D2A22804  36.954  25.073   8.416
 1590POPC   C3A22805  36.785  25.109   8.026
 1590POPC   C4A22806  36.963  25.282   7.692
 1590POPC   C1B22807  36.998  25.566   8.697
 1590POPC   C2B22808  37.226  25.560   8.293
 1590POPC   C3B22809  37.068  25.763   7.907
 1590POPC   C4B22810  36.630  25.648   7.879
 1591POPC   NC322811   5.506  41.163   9.723
 1591POPC   PO422812   6.041  40.909   9.507
 1591POPC   GL122813   5.815  40.636   9.191
 1591POPC   GL222814   5.878  40.820   8.923
 1591POPC   C1A22815   5.535  40.491   8.805
 1591POPC   D2A22816   5.721  40.623   8.445
 1591POPC   C3A22817   5.574  40.490   8.053
 1591POPC   C4A22818   5.873  40.532   7.776
 1591POPC   C1B22819   6.111  40.938   8.585
 1591POPC   C2B22820   6.264  41.022   8.192
 1591POPC   C3B22821   6.165  40.940   7.788
 1591POPC   C4B22822   5.767  41.003   7.582
 1592POPC   NC322823  12.376  41.780   9.556
 1592POPC   PO422824  11.853  41.432   9.499
 1592POPC   GL122825  11.982  41.390   9.066
 1592POPC   GL222826  12.281  41.508   9.119
 1592POPC   C1A22827  11.953  41.425   8.598
 1592POPC   D2A22828  12.304  41.527   8.379
 1592POPC   C3A22829  12.278  41.783   8.039
 1592POPC   C4A22830  12.161  41.885   7.659
 1592POPC   C1B22831  12.369  41.206   8.813
 1592POPC   C2B22832  12.228  41.001   8.443
 1592POPC   C3B22833  11.999  41.182   8.098
 1592POPC   C4B22834  12.168  41.377   7.719
 1593POPC   NC322835  39.842   0.707   9.478
 1593POPC   PO422836  40.345   0.226   9.236
 1593POPC   GL122837  40.097   0.524   9.060
 1593POPC   GL222838  39.766   0.349   9.112
 1593POPC   C1A22839  40.130   0.599   8.624
 1593POPC   D2A22840  40.328   0.571   8.227
 1593POPC   C3A22841  40.099   0.336   7.978
 1593POPC   C4A22842  40.013   0.246   7.575
 1593POPC   C1B22843  39.619   0.633   8.778
 1593POPC   C2B22844  39.697   0.748   8.316
 1593POPC   C3B22845  39.631   0.523   7.880
 1593POPC   C4B22846  39.528   0.129   7.592
 1594POPC   NC322847  43.315  18.798   9.491
 1594POPC   PO422848  44.015  18.997   9.646
 1594POPC   GL122849  44.053  18.948   9.200
 1594POPC   GL222850  44.286  19.214   9.160
 1594POPC   C1A22851  43.931  18.803   8.751
 1594POPC   D2A22852  43.828  18.995   8.335
 1594POPC   C3A22853  43.801  18.854   7.869
 1594POPC   C4A22854  43.663  18.734   7.453
 1594POPC   C1B22855  44.020  19.343   8.830
 1594POPC   C2B22856  44.015  19.476   8.397
 1594POPC   C3B22857  44.060  19.297   7.988
 1594POPC   C4B22858  44.321  19.311   7.650
 1595POPC   NC322859  27.337  20.582   9.501
 1595POPC   PO422860  27.955  20.961   9.269
 1595POPC   GL122861  27.645  20.766   9.142
 1595POPC   GL222862  27.790  20.432   9.279
 1595POPC   C1A22863  27.364  20.833   8.785
 1595POPC   D2A22864  27.262  20.587   8.414
 1595POPC   C3A22865  27.414  20.705   7.993
 1595POPC   C4A22866  27.250  20.437   7.664
 1595POPC   C1B22867  27.664  20.362   8.849
 1595POPC   C2B22868  27.457  20.060   8.605
 1595POPC   C3B22869  27.586  20.068   8.186
 1595POPC   C4B22870  27.692  20.286   7.821
 1596POPC   NC322871   5.694  34.260   9.662
 1596POPC   PO422872   5.954  34.920   9.592
 1596POPC   GL122873   5.834  34.630   9.275
 1596POPC   GL222874   6.074  34.358   9.325
 1596POPC   C1A22875   5.677  34.712   8.868
 1596POPC   D2A22876   5.623  34.794   8.441
 1596POPC   C3A22877   5.818  34.509   8.144
 1596POPC   C4A22878   5.656  34.589   7.774
 1596POPC   C1B22879   6.234  34.262   8.889
 1596POPC   C2B22880   6.150  34.256   8.451
 1596POPC   C3B22881   6.076  34.073   8.052
 1596POPC   C4B22882   6.027  34.265   7.663
 1597POPC   NC322883   8.252   4.000   9.616
 1597POPC   PO422884   8.489   4.638   9.584
 1597POPC   GL122885   8.360   4.391   9.243
 1597POPC   GL222886   8.008   4.315   9.263
 1597POPC   C1A22887   8.413   4.257   8.809
 1597POPC   D2A22888   8.268   3.962   8.481
 1597POPC   C3A22889   8.342   4.135   8.053
 1597POPC   C4A22890   8.479   4.523   7.820
 1597POPC   C1B22891   7.905   4.160   8.852
 1597POPC   C2B22892   7.859   4.248   8.422
 1597POPC   C3B22893   7.797   4.154   8.006
 1597POPC   C4B22894   8.036   4.287   7.650
 1598POPC   NC322895  14.810  42.455   9.454
 1598POPC   PO422896  14.138  42.126   9.624
 1598POPC   GL122897  14.321  42.340   9.259
 1598POPC   GL222898  14.046  42.339   9.028
 1598POPC   C1A22899  14.522  42.575   8.886
 1598POPC   D2A22900  14.484  42.652   8.473
 1598POPC   C3A22901  14.676  42.617   8.106
 1598POPC   C4A22902  14.517  42.416   7.778
 1598POPC   C1B22903  14.300  42.150   8.718
 1598POPC   C2B22904  14.406  42.136   8.283
 1598POPC   C3B22905  14.137  42.163   7.950
 1598POPC   C4B22906  14.167  42.058   7.567
 1599POPC   NC322907  19.270   7.732   9.415
 1599POPC   PO422908  19.081   7.092   9.457
 1599POPC   GL122909  18.864   7.241   9.108
 1599POPC   GL222910  18.881   7.618   9.092
 1599POPC   C1A22911  18.817   7.161   8.682
 1599POPC   D2A22912  18.856   7.491   8.392
 1599POPC   C3A22913  18.965   7.304   8.020
 1599POPC   C4A22914  19.176   7.371   7.621
 1599POPC   C1B22915  19.204   7.525   8.776
 1599POPC   C2B22916  19.360   7.552   8.349
 1599POPC   C3B22917  19.247   7.751   7.926
 1599POPC   C4B22918  19.421   7.760   7.451
 1600POPC   NC322919  16.584  44.359   9.586
 1600POPC   PO422920  16.937  44.945   9.543
 1600POPC   GL122921  16.947  44.758   9.170
 1600POPC   GL222922  17.057  44.406   9.257
 1600POPC   C1A22923  16.588  44.872   8.883
 1600POPC   D2A22924  16.449   0.001   8.469
 1600POPC   C3A22925  16.674  44.711   8.155
 1600POPC   C4A22926  16.500  44.534   7.783
 1600POPC   C1B22927  16.714  44.361   8.928
 1600POPC   C2B22928  16.753  44.280   8.481
 1600POPC   C3B22929  16.924  44.126   8.106
 1600POPC   C4B22930  16.985  44.398   7.750
 1601POPC   NC322931  38.885  36.511   9.485
 1601POPC   PO422932  38.770  35.817   9.527
 1601POPC   GL122933  38.811  36.069   9.159
 1601POPC   GL222934  38.477  36.252   9.174
 1601POPC   C1A22935  38.709  36.235   8.736
 1601POPC   D2A22936  38.491  36.098   8.370
 1601POPC   C3A22937  38.717  36.131   7.970
 1601POPC   C4A22938  38.586  36.121   7.549
 1601POPC   C1B22939  38.292  36.516   8.798
 1601POPC   C2B22940  38.134  36.464   8.369
 1601POPC   C3B22941  38.228  36.287   7.929
 1601POPC   C4B22942  38.303  36.553   7.541
 1602POPC   NC322943  18.732  16.826   9.560
 1602POPC   PO422944  19.266  17.166   9.571
 1602POPC   GL122945  19.268  16.792   9.194
 1602POPC   GL222946  18.941  16.736   9.128
 1602POPC   C1A22947  19.131  16.494   8.762
 1602POPC   D2A22948  19.055  16.729   8.371
 1602POPC   C3A22949  19.233  16.634   7.972
 1602POPC   C4A22950  19.194  16.878   7.612
 1602POPC   C1B22951  18.674  16.732   8.772
 1602POPC   C2B22952  18.544  16.572   8.384
 1602POPC   C3B22953  18.718  16.614   7.988
 1602POPC   C4B22954  18.891  16.483   7.597
 1603POPC   NC322955  29.677  17.255   9.390
 1603POPC   PO422956  30.107  17.616   9.712
 1603POPC   GL122957  30.175  17.538   9.218
 1603POPC   GL222958  30.113  17.817   8.982
 1603POPC   C1A22959  30.376  17.391   8.796
 1603POPC   D2A22960  30.329  17.521   8.343
 1603POPC   C3A22961  30.077  17.231   8.056
 1603POPC   C4A22962  29.759  17.353   7.759
 1603POPC   C1B22963  29.887  17.503   8.700
 1603POPC   C2B22964  29.668  17.452   8.323
 1603POPC   C3B22965  29.534  17.828   8.127
 1603POPC   C4B22966  29.608  17.857   7.699
 1604POPC   NC322967  30.184  37.071   9.565
 1604POPC   PO422968  30.786  36.644   9.394
 1604POPC   GL122969  30.488  36.763   9.107
 1604POPC   GL222970  30.460  37.114   9.130
 1604POPC   C1A22971  30.677  36.731   8.685
 1604POPC   D2A22972  30.934  36.511   8.363
 1604POPC   C3A22973  30.929  36.727   7.988
 1604POPC   C4A22974  30.580  36.860   7.798
 1604POPC   C1B22975  30.639  37.229   8.740
 1604POPC   C2B22976  30.755  37.108   8.293
 1604POPC   C3B22977  30.930  37.214   7.877
 1604POPC   C4B22978  30.596  37.307   7.557
 1605POPC   NC322979  18.764   5.762   9.364
 1605POPC   PO422980  19.361   5.961   9.640
 1605POPC   GL122981  19.272   5.927   9.184
 1605POPC   GL222982  19.198   5.576   9.018
 1605POPC   C1A22983  19.142   5.990   8.736
 1605POPC   D2A22984  19.035   5.769   8.342
 1605POPC   C3A22985  18.978   5.996   7.978
 1605POPC   C4A22986  19.249   6.066   7.666
 1605POPC   C1B22987  18.778   5.562   8.743
 1605POPC   C2B22988  18.536   5.605   8.328
 1605POPC   C3B22989  18.688   5.579   7.885
 1605POPC   C4B22990  18.938   5.670   7.468
 1606POPC   NC322991   1.716  28.044   9.302
 1606POPC   PO422992   2.012  28.573   9.699
 1606POPC   GL122993   1.981  28.469   9.260
 1606POPC   GL222994   1.759  28.646   9.070
 1606POPC   C1A22995   2.175  28.413   8.852
 1606POPC   D2A22996   2.164  28.150   8.527
 1606POPC   C3A22997   2.236  28.295   8.122
 1606POPC   C4A22998   2.023  28.205   7.749
 1606POPC   C1B22999   1.673  28.379   8.691
 1606POPC   C2B23000   1.716  28.203   8.268
 1606POPC   C3B23001   1.499  28.240   7.886
 1606POPC   C4B23002   1.599  28.391   7.455
 1607POPC   NC323003  44.823  25.556   9.547
 1607POPC   PO423004  44.218  25.209   9.664
 1607POPC   GL123005  44.526  25.145   9.285
 1607POPC   GL223006  44.918  25.153   9.236
 1607POPC   C1A23007  44.530  25.122   8.813
 1607POPC   D2A23008  44.388  25.380   8.433
 1607POPC   C3A23009  44.629  25.414   8.010
 1607POPC   C4A23010  44.741  25.147   7.631
 1607POPC   C1B23011   0.073  25.080   8.817
 1607POPC   C2B23012  44.896  25.164   8.407
 1607POPC   C3B23013   0.145  25.246   8.042
 1607POPC   C4B23014   0.095  25.485   7.700
 1608POPC   NC323015  25.577  43.006   9.524
 1608POPC   PO423016  25.025  43.487   9.562
 1608POPC   GL123017  25.169  43.161   9.237
 1608POPC   GL223018  25.472  43.267   9.121
 1608POPC   C1A23019  25.247  42.954   8.803
 1608POPC   D2A23020  25.184  43.147   8.407
 1608POPC   C3A23021  25.143  42.911   8.039
 1608POPC   C4A23022  25.132  43.132   7.633
 1608POPC   C1B23023  25.678  43.277   8.756
 1608POPC   C2B23024  25.631  43.382   8.359
 1608POPC   C3B23025  25.463  43.290   7.980
 1608POPC   C4B23026  25.656  43.179   7.596
 1609POPC   NC323027  21.415  16.883   9.580
 1609POPC   PO423028  20.890  16.423   9.707
 1609POPC   GL123029  21.023  16.513   9.228
 1609POPC   GL223030  20.789  16.559   8.935
 1609POPC   C1A23031  21.277  16.521   8.796
 1609POPC   D2A23032  21.308  16.701   8.319
 1609POPC   C3A23033  21.602  16.666   7.950
 1609POPC   C4A23034  21.951  16.508   7.680
 1609POPC   C1B23035  20.934  16.876   8.612
 1609POPC   C2B23036  20.959  17.057   8.181
 1609POPC   C3B23037  21.048  16.915   7.762
 1609POPC   C4B23038  20.966  16.996   7.309
 1610POPC   NC323039   5.265  15.712   9.587
 1610POPC   PO423040   4.633  15.920   9.641
 1610POPC   GL123041   4.964  16.112   9.282
 1610POPC   GL223042   5.148  15.854   9.117
 1610POPC   C1A23043   5.272  16.276   8.876
 1610POPC   D2A23044   5.263  16.377   8.417
 1610POPC   C3A23045   4.976  16.252   8.073
 1610POPC   C4A23046   5.092  16.074   7.676
 1610POPC   C1B23047   5.305  15.822   8.687
 1610POPC   C2B23048   5.181  15.795   8.279
 1610POPC   C3B23049   5.343  15.713   7.898
 1610POPC   C4B23050   5.306  15.619   7.458
 1611POPC   NC323051  39.874  40.631   9.507
 1611POPC   PO423052  40.070  41.214   9.259
 1611POPC   GL123053  39.898  40.863   9.061
 1611POPC   GL223054  40.189  40.627   9.094
 1611POPC   C1A23055  39.787  40.691   8.686
 1611POPC   D2A23056  40.093  40.655   8.353
 1611POPC   C3A23057  40.024  41.003   8.109
 1611POPC   C4A23058  39.621  40.980   7.899
 1611POPC   C1B23059  40.377  40.897   8.755
 1611POPC   C2B23060  40.535  40.926   8.320
 1611POPC   C3B23061  40.511  40.588   8.002
 1611POPC   C4B23062  40.114  40.620   7.782
 1612POPC   NC323063  21.091  27.410   9.540
 1612POPC   PO423064  21.740  27.665   9.709
 1612POPC   GL123065  21.535  27.457   9.303
 1612POPC   GL223066  21.356  27.706   9.082
 1612POPC   C1A23067  21.570  27.345   8.833
 1612POPC   D2A23068  21.655  27.632   8.488
 1612POPC   C3A23069  21.619  27.464   8.084
 1612POPC   C4A23070  21.491  27.721   7.765
 1612POPC   C1B23071  21.133  27.608   8.651
 1612POPC   C2B23072  21.203  27.758   8.211
 1612POPC   C3B23073  21.030  27.882   7.798
 1612POPC   C4B23074  21.028  27.432   7.784
 1613POPC   NC323075  44.148   9.003   9.580
 1613POPC   PO423076  43.439   9.247   9.417
 1613POPC   GL123077  43.709   9.135   9.089
 1613POPC   GL223078  44.006   8.935   9.111
 1613POPC   C1A23079  43.836   9.097   8.664
 1613POPC   D2A23080  43.734   8.878   8.303
 1613POPC   C3A23081  44.043   9.080   8.077
 1613POPC   C4A23082  44.092   9.205   7.668
 1613POPC   C1B23083  44.183   8.651   8.811
 1613POPC   C2B23084  44.188   8.649   8.377
 1613POPC   C3B23085  44.387   8.718   7.981
 1613POPC   C4B23086  44.386   8.785   7.552
 1614POPC   NC323087  43.737  25.070   9.616
 1614POPC   PO423088  43.548  25.677   9.543
 1614POPC   GL123089  43.634  25.405   9.194
 1614POPC   GL223090  43.599  25.030   9.117
 1614POPC   C1A23091  43.555  25.410   8.762
 1614POPC   D2A23092  43.737  25.543   8.406
 1614POPC   C3A23093  43.588  25.406   8.026
 1614POPC   C4A23094  43.775  25.363   7.625
 1614POPC   C1B23095  43.954  25.093   8.811
 1614POPC   C2B23096  43.981  25.057   8.353
 1614POPC   C3B23097  44.111  25.314   8.003
 1614POPC   C4B23098  44.248  25.197   7.555
 1615POPC   NC323099  36.741  41.654   9.500
 1615POPC   PO423100  37.338  41.520   9.546
 1615POPC   GL123101  37.138  41.757   9.206
 1615POPC   GL223102  36.991  41.409   9.130
 1615POPC   C1A23103  36.839  41.818   8.846
 1615POPC   D2A23104  36.692  41.636   8.468
 1615POPC   C3A23105  36.801  41.754   8.066
 1615POPC   C4A23106  36.904  41.490   7.740
 1615POPC   C1B23107  36.942  41.247   8.728
 1615POPC   C2B23108  37.153  41.296   8.345
 1615POPC   C3B23109  37.177  41.116   7.963
 1615POPC   C4B23110  37.020  41.052   7.546
 1616POPC   NC323111  31.719  12.378   9.488
 1616POPC   PO423112  31.092  12.354   9.367
 1616POPC   GL123113  31.263  12.281   8.990
 1616POPC   GL223114  31.478  12.034   9.080
 1616POPC   C1A23115  31.375  12.231   8.543
 1616POPC   D2A23116  31.746  12.183   8.253
 1616POPC   C3A23117  31.489  12.268   7.913
 1616POPC   C4A23118  31.057  12.395   7.824
 1616POPC   C1B23119  31.757  11.989   8.745
 1616POPC   C2B23120  31.724  11.693   8.427
 1616POPC   C3B23121  31.398  11.800   8.130
 1616POPC   C4B23122  31.584  11.807   7.729
 1617POPC   NC323123  44.876   7.290   9.381
 1617POPC   PO423124  44.461   7.756   9.579
 1617POPC   GL123125  44.489   7.559   9.151
 1617POPC   GL223126  44.227   7.727   8.994
 1617POPC   C1A23127  44.690   7.333   8.762
 1617POPC   D2A23128  44.957   7.433   8.385
 1617POPC   C3A23129  44.681   7.342   8.039
 1617POPC   C4A23130  44.583   7.171   7.626
 1617POPC   C1B23131  44.582   7.816   8.708
 1617POPC   C2B23132  44.574   7.797   8.267
 1617POPC   C3B23133  44.547   7.792   7.836
 1617POPC   C4B23134  44.335   7.591   7.531
 1618POPC   NC323135   6.403  34.803   9.617
 1618POPC   PO423136   6.865  35.318   9.636
 1618POPC   GL123137   6.849  35.245   9.216
 1618POPC   GL223138   6.529  35.150   9.246
 1618POPC   C1A23139   6.966  35.179   8.785
 1618POPC   D2A23140   6.843  35.369   8.419
 1618POPC   C3A23141   6.971  35.198   8.067
 1618POPC   C4A23142   6.783  35.297   7.736
 1618POPC   C1B23143   6.446  35.368   8.875
 1618POPC   C2B23144   6.327  35.317   8.436
 1618POPC   C3B23145   6.428  35.527   8.054
 1618POPC   C4B23146   6.280  35.375   7.671
 1619POPC   NC323147  36.368  29.443   9.351
 1619POPC   PO423148  36.857  29.160   9.559
 1619POPC   GL123149  37.054  29.134   9.189
 1619POPC   GL223150  36.723  29.141   9.029
 1619POPC   C1A23151  37.172  29.322   8.799
 1619POPC   D2A23152  37.236  29.085   8.417
 1619POPC   C3A23153  36.951  29.073   8.069
 1619POPC   C4A23154  36.939  29.174   7.639
 1619POPC   C1B23155  36.633  28.790   8.740
 1619POPC   C2B23156  36.689  28.675   8.304
 1619POPC   C3B23157  36.492  28.877   7.929
 1619POPC   C4B23158  36.584  28.856   7.499
 1620POPC   NC323159   1.100  35.554   9.465
 1620POPC   PO423160   1.475  34.889   9.492
 1620POPC   GL123161   1.251  35.135   9.184
 1620POPC   GL223162   1.468  35.401   9.122
 1620POPC   C1A23163   1.140  35.343   8.762
 1620POPC   D2A23164   1.425  35.334   8.391
 1620POPC   C3A23165   1.254  35.164   7.990
 1620POPC   C4A23166   1.438  35.124   7.553
 1620POPC   C1B23167   1.550  35.681   8.770
 1620POPC   C2B23168   1.400  35.850   8.393
 1620POPC   C3B23169   1.338  35.691   7.972
 1620POPC   C4B23170   0.940  35.518   7.822
 1621POPC   NC323171  36.714  27.021   9.376
 1621POPC   PO423172  37.147  27.459   9.650
 1621POPC   GL123173  36.910  27.502   9.267
 1621POPC   GL223174  36.578  27.645   9.235
 1621POPC   C1A23175  37.042  27.594   8.861
 1621POPC   D2A23176  37.138  27.510   8.458
 1621POPC   C3A23177  37.014  27.772   8.146
 1621POPC   C4A23178  36.932  27.654   7.686
 1621POPC   C1B23179  36.588  27.385   8.837
 1621POPC   C2B23180  36.587  27.578   8.441
 1621POPC   C3B23181  36.538  27.613   8.018
 1621POPC   C4B23182  36.370  27.886   7.730
 1622POPC   NC323183  39.707   9.304   9.514
 1622POPC   PO423184  39.803  10.037   9.519
 1622POPC   GL123185  39.996   9.946   9.096
 1622POPC   GL223186  40.354  10.044   9.020
 1622POPC   C1A23187  40.050   9.693   8.725
 1622POPC   D2A23188  40.242   9.512   8.359
 1622POPC   C3A23189  40.209   9.617   7.921
 1622POPC   C4A23190  39.874   9.624   7.655
 1622POPC   C1B23191  40.240  10.155   8.628
 1622POPC   C2B23192  40.235  10.030   8.204
 1622POPC   C3B23193  39.981  10.087   7.859
 1622POPC   C4B23194  39.726  10.067   7.497
 1623POPC   NC323195   1.726  25.182   9.506
 1623POPC   PO423196   2.259  24.877   9.532
 1623POPC   GL123197   2.104  25.143   9.142
 1623POPC   GL223198   1.792  25.047   8.995
 1623POPC   C1A23199   2.122  25.332   8.712
 1623POPC   D2A23200   1.975  25.464   8.271
 1623POPC   C3A23201   2.194  25.190   7.932
 1623POPC   C4A23202   2.408  24.858   7.670
 1623POPC   C1B23203   1.595  25.364   8.702
 1623POPC   C2B23204   1.472  25.255   8.296
 1623POPC   C3B23205   1.679  25.121   7.931
 1623POPC   C4B23206   1.824  25.476   7.718
 1624POPC   NC323207  36.918   1.312   9.571
 1624POPC   PO423208  36.935   0.665   9.507
 1624POPC   GL123209  37.068   1.040   9.167
 1624POPC   GL223210  37.110   1.482   9.156
 1624POPC   C1A23211  36.966   1.193   8.754
 1624POPC   D2A23212  36.688   1.023   8.458
 1624POPC   C3A23213  36.795   1.190   8.102
 1624POPC   C4A23214  36.614   1.193   7.718
 1624POPC   C1B23215  37.258   1.621   8.759
 1624POPC   C2B23216  37.310   1.472   8.329
 1624POPC   C3B23217  37.116   1.558   7.936
 1624POPC   C4B23218  36.834   1.652   7.615
 1625POPC   NC323219  11.046   9.180   9.544
 1625POPC   PO423220  11.468   8.599   9.593
 1625POPC   GL123221  11.318   8.765   9.166
 1625POPC   GL223222  11.368   9.104   9.136
 1625POPC   C1A23223  11.086   8.684   8.755
 1625POPC   D2A23224  11.280   8.678   8.315
 1625POPC   C3A23225  11.172   8.871   7.934
 1625POPC   C4A23226  10.931   8.872   7.557
 1625POPC   C1B23227  11.520   8.953   8.713
 1625POPC   C2B23228  11.536   9.139   8.306
 1625POPC   C3B23229  11.488   9.265   7.899
 1625POPC   C4B23230  11.388   9.057   7.495
 1626POPC   NC323231  28.865   6.618   9.508
 1626POPC   PO423232  29.362   7.146   9.423
 1626POPC   GL123233  29.416   6.864   9.069
 1626POPC   GL223234  29.255   6.534   9.174
 1626POPC   C1A23235  29.419   6.956   8.604
 1626POPC   D2A23236  29.274   7.222   8.245
 1626POPC   C3A23237  29.089   6.999   7.908
 1626POPC   C4A23238  29.351   6.665   7.797
 1626POPC   C1B23239  29.009   6.680   8.792
 1626POPC   C2B23240  29.017   6.657   8.327
 1626POPC   C3B23241  28.862   6.517   7.914
 1626POPC   C4B23242  28.896   6.687   7.493
 1627POPC   NC323243  28.965  35.847   9.567
 1627POPC   PO423244  29.245  36.472   9.648
 1627POPC   GL123245  29.066  36.250   9.274
 1627POPC   GL223246  29.379  36.086   9.159
 1627POPC   C1A23247  28.816  36.330   8.895
 1627POPC   D2A23248  28.772  36.449   8.447
 1627POPC   C3A23249  28.891  36.133   8.145
 1627POPC   C4A23250  28.821  36.109   7.685
 1627POPC   C1B23251  29.292  36.157   8.726
 1627POPC   C2B23252  29.493  35.985   8.368
 1627POPC   C3B23253  29.494  35.727   8.003
 1627POPC   C4B23254  29.311  36.064   7.828
 1628POPC   NC323255  31.738  28.066   9.447
 1628POPC   PO423256  31.231  28.466   9.589
 1628POPC   GL123257  31.312  28.412   9.154
 1628POPC   GL223258  31.643  28.469   9.102
 1628POPC   C1A23259  31.366  28.456   8.695
 1628POPC   D2A23260  31.477  28.196   8.382
 1628POPC   C3A23261  31.265  28.342   8.045
 1628POPC   C4A23262  31.291  28.377   7.576
 1628POPC   C1B23263  31.850  28.261   8.760
 1628POPC   C2B23264  31.973  28.373   8.325
 1628POPC   C3B23265  31.760  28.295   7.922
 1628POPC   C4B23266  31.776  28.492   7.512
 1629POPC   NC323267  35.092   4.307   9.421
 1629POPC   PO423268  35.707   4.050   9.648
 1629POPC   GL123269  35.511   4.025   9.222
 1629POPC   GL223270  35.758   4.188   9.069
 1629POPC   C1A23271  35.232   4.146   8.817
 1629POPC   D2A23272  35.103   4.512   8.568
 1629POPC   C3A23273  34.963   4.319   8.187
 1629POPC   C4A23274  35.058   4.050   7.816
 1629POPC   C1B23275  35.712   4.224   8.678
 1629POPC   C2B23276  35.490   4.241   8.322
 1629POPC   C3B23277  35.700   4.155   7.979
 1629POPC   C4B23278  35.547   4.133   7.622
 1630POPC   NC323279  19.628  41.801   9.282
 1630POPC   PO423280  20.162  41.493   9.568
 1630POPC   GL123281  20.004  41.468   9.114
 1630POPC   GL223282  19.648  41.534   8.864
 1630POPC   C1A23283  20.087  41.386   8.688
 1630POPC   D2A23284  19.793  41.428   8.344
 1630POPC   C3A23285  19.985  41.678   8.032
 1630POPC   C4A23286  20.162  41.822   7.642
 1630POPC   C1B23287  19.291  41.297   8.641
 1630POPC   C2B23288  19.243  41.244   8.192
 1630POPC   C3B23289  19.502  41.401   7.886
 1630POPC   C4B23290  19.859  41.349   7.657
 1631POPC   NC323291  19.889  43.362   9.585
 1631POPC   PO423292  19.794  42.718   9.814
 1631POPC   GL123293  19.817  42.813   9.301
 1631POPC   GL223294  19.904  43.116   9.117
 1631POPC   C1A23295  19.703  42.700   8.888
 1631POPC   D2A23296  19.509  42.744   8.489
 1631POPC   C3A23297  19.722  43.005   8.142
 1631POPC   C4A23298  20.034  43.030   7.756
 1631POPC   C1B23299  19.700  43.211   8.711
 1631POPC   C2B23300  19.688  43.471   8.339
 1631POPC   C3B23301  19.846  43.464   7.912
 1631POPC   C4B23302  19.890  43.498   7.439
 1632POPC   NC323303  43.410   3.881   9.459
 1632POPC   PO423304  44.035   3.630   9.470
 1632POPC   GL123305  43.712   3.490   9.186
 1632POPC   GL223306  43.573   3.124   9.242
 1632POPC   C1A23307  43.818   3.682   8.778
 1632POPC   D2A23308  44.112   3.687   8.413
 1632POPC   C3A23309  43.941   3.693   7.986
 1632POPC   C4A23310  44.076   3.531   7.581
 1632POPC   C1B23311  43.635   3.190   8.781
 1632POPC   C2B23312  43.714   3.360   8.369
 1632POPC   C3B23313  43.687   3.219   7.948
 1632POPC   C4B23314  43.592   3.263   7.500
 1633POPC   NC323315  17.378  19.341   9.822
 1633POPC   PO423316  17.479  19.855   9.478
 1633POPC   GL123317  17.434  19.959   9.085
 1633POPC   GL223318  17.777  20.096   9.123
 1633POPC   C1A23319  17.326  19.722   8.680
 1633POPC   D2A23320  17.584  19.512   8.346
 1633POPC   C3A23321  17.529  19.672   7.919
 1633POPC   C4A23322  17.157  19.620   7.649
 1633POPC   C1B23323  17.801  19.872   8.749
 1633POPC   C2B23324  17.621  20.034   8.363
 1633POPC   C3B23325  17.751  20.169   7.969
 1633POPC   C4B23326  17.865  19.930   7.598
 1634POPC   NC323327   3.529  36.921   9.562
 1634POPC   PO423328   4.146  36.668   9.505
 1634POPC   GL123329   3.832  36.762   9.153
 1634POPC   GL223330   3.632  37.101   9.099
 1634POPC   C1A23331   3.518  36.723   8.778
 1634POPC   D2A23332   3.200  36.792   8.438
 1634POPC   C3A23333   3.413  36.715   8.048
 1634POPC   C4A23334   3.703  36.905   7.781
 1634POPC   C1B23335   3.240  37.203   8.820
 1634POPC   C2B23336   3.085  37.290   8.347
 1634POPC   C3B23337   3.247  37.168   7.890
 1634POPC   C4B23338   3.293  36.961   7.469
 1635POPC   NC323339  22.523  22.746   9.500
 1635POPC   PO423340  21.880  22.905   9.656
 1635POPC   GL123341  21.928  22.969   9.200
 1635POPC   GL223342  22.243  22.875   9.115
 1635POPC   C1A23343  21.950  22.989   8.727
 1635POPC   D2A23344  22.141  22.935   8.315
 1635POPC   C3A23345  21.833  22.815   8.025
 1635POPC   C4A23346  21.817  22.990   7.626
 1635POPC   C1B23347  22.461  22.830   8.736
 1635POPC   C2B23348  22.681  22.760   8.370
 1635POPC   C3B23349  22.617  22.929   7.972
 1635POPC   C4B23350  22.269  22.808   7.772
 1636POPC   NC323351   1.686  15.286   9.606
 1636POPC   PO423352   1.024  15.058   9.504
 1636POPC   GL123353   1.120  15.225   9.116
 1636POPC   GL223354   1.060  15.560   9.164
 1636POPC   C1A23355   1.023  15.223   8.670
 1636POPC   D2A23356   0.958  15.355   8.224
 1636POPC   C3A23357   1.130  15.057   7.887
 1636POPC   C4A23358   1.427  15.100   7.518
 1636POPC   C1B23359   1.267  15.664   8.797
 1636POPC   C2B23360   1.516  15.605   8.440
 1636POPC   C3B23361   1.440  15.507   8.051
 1636POPC   C4B23362   1.153  15.561   7.762
 1637POPC   NC323363   7.924  17.138   9.470
 1637POPC   PO423364   8.002  17.856   9.579
 1637POPC   GL123365   7.966  17.607   9.183
 1637POPC   GL223366   8.164  17.330   9.063
 1637POPC   C1A23367   8.114  17.667   8.722
 1637POPC   D2A23368   8.440  17.678   8.453
 1637POPC   C3A23369   8.298  17.788   8.063
 1637POPC   C4A23370   7.936  17.638   7.879
 1637POPC   C1B23371   7.957  17.154   8.722
 1637POPC   C2B23372   7.957  17.357   8.317
 1637POPC   C3B23373   7.890  17.132   7.938
 1637POPC   C4B23374   7.827  17.166   7.514
 1638POPC   NC323375  30.911  20.356   9.496
 1638POPC   PO423376  30.561  20.902   9.851
 1638POPC   GL123377  30.520  20.692   9.351
 1638POPC   GL223378  30.413  20.333   9.283
 1638POPC   C1A23379  30.635  20.818   8.853
 1638POPC   D2A23380  30.925  20.778   8.450
 1638POPC   C3A23381  30.624  20.787   8.070
 1638POPC   C4A23382  30.795  20.714   7.659
 1638POPC   C1B23383  30.645  20.317   8.909
 1638POPC   C2B23384  30.645  20.361   8.484
 1638POPC   C3B23385  30.850  20.341   8.084
 1638POPC   C4B23386  30.512  20.336   7.821
 1639POPC   NC323387  33.501  26.103   9.479
 1639POPC   PO423388  34.033  26.436   9.584
 1639POPC   GL123389  33.953  26.155   9.218
 1639POPC   GL223390  33.991  25.782   9.220
 1639POPC   C1A23391  33.744  26.089   8.819
 1639POPC   D2A23392  33.736  26.287   8.418
 1639POPC   C3A23393  33.624  26.071   8.022
 1639POPC   C4A23394  33.797  26.251   7.622
 1639POPC   C1B23395  33.959  25.634   8.794
 1639POPC   C2B23396  33.976  25.798   8.364
 1639POPC   C3B23397  34.006  25.713   7.923
 1639POPC   C4B23398  33.778  25.767   7.547
 1640POPC   NC323399   5.847  27.530   9.542
 1640POPC   PO423400   5.168  27.741   9.415
 1640POPC   GL123401   5.597  27.685   9.131
 1640POPC   GL223402   6.031  27.734   9.136
 1640POPC   C1A23403   5.749  27.578   8.732
 1640POPC   D2A23404   5.695  27.375   8.359
 1640POPC   C3A23405   5.554  27.629   8.053
 1640POPC   C4A23406   5.761  27.945   7.857
 1640POPC   C1B23407   6.257  27.611   8.761
 1640POPC   C2B23408   6.114  27.719   8.357
 1640POPC   C3B23409   6.047  27.494   8.005
 1640POPC   C4B23410   6.147  27.421   7.599
 1641POPC   NC323411  41.574  17.946   9.393
 1641POPC   PO423412  41.720  17.284   9.551
 1641POPC   GL123413  41.544  17.446   9.191
 1641POPC   GL223414  41.214  17.460   9.330
 1641POPC   C1A23415  41.605  17.671   8.762
 1641POPC   D2A23416  41.506  17.613   8.311
 1641POPC   C3A23417  41.829  17.675   8.022
 1641POPC   C4A23418  41.909  17.496   7.642
 1641POPC   C1B23419  41.149  17.464   8.867
 1641POPC   C2B23420  41.012  17.473   8.446
 1641POPC   C3B23421  41.108  17.392   8.018
 1641POPC   C4B23422  41.382  17.602   7.724
 1642POPC   NC323423  11.888  44.022   9.611
 1642POPC   PO423424  12.129  43.519   9.288
 1642POPC   GL123425  12.125  43.900   9.159
 1642POPC   GL223426  12.335  44.097   9.329
 1642POPC   C1A23427  12.042  44.054   8.768
 1642POPC   D2A23428  11.910  44.116   8.356
 1642POPC   C3A23429  12.241  44.003   8.089
 1642POPC   C4A23430  12.232  43.754   7.757
 1642POPC   C1B23431  12.437  44.332   8.965
 1642POPC   C2B23432  12.485  44.311   8.527
 1642POPC   C3B23433  12.471  44.452   8.117
 1642POPC   C4B23434  12.599  44.245   7.751
 1643POPC   NC323435  12.707  17.804   9.556
 1643POPC   PO423436  13.135  17.287   9.452
 1643POPC   GL123437  12.827  17.371   9.106
 1643POPC   GL223438  12.706  17.704   9.056
 1643POPC   C1A23439  12.904  17.438   8.656
 1643POPC   D2A23440  13.112  17.625   8.299
 1643POPC   C3A23441  12.892  17.477   7.942
 1643POPC   C4A23442  13.026  17.292   7.587
 1643POPC   C1B23443  12.573  17.844   8.647
 1643POPC   C2B23444  12.624  17.807   8.233
 1643POPC   C3B23445  12.666  17.947   7.833
 1643POPC   C4B23446  12.449  17.699   7.588
 1644POPC   NC323447  36.931   4.767   9.417
 1644POPC   PO423448  37.231   5.331   9.383
 1644POPC   GL123449  36.877   5.190   9.155
 1644POPC   GL223450  36.706   5.502   9.128
 1644POPC   C1A23451  36.936   4.904   8.775
 1644POPC   D2A23452  37.194   4.884   8.412
 1644POPC   C3A23453  36.955   4.799   8.078
 1644POPC   C4A23454  36.844   4.930   7.651
 1644POPC   C1B23455  36.910   5.425   8.731
 1644POPC   C2B23456  36.831   5.237   8.388
 1644POPC   C3B23457  36.997   5.297   8.025
 1644POPC   C4B23458  36.751   5.480   7.757
 1645POPC   NC323459  19.520  31.819   9.443
 1645POPC   PO423460  20.020  31.322   9.413
 1645POPC   GL123461  19.964  31.608   9.113
 1645POPC   GL223462  19.617  31.568   9.020
 1645POPC   C1A23463  19.984  31.669   8.680
 1645POPC   D2A23464  19.846  31.363   8.364
 1645POPC   C3A23465  19.971  31.480   7.975
 1645POPC   C4A23466  19.742  31.212   7.773
 1645POPC   C1B23467  19.478  31.603   8.602
 1645POPC   C2B23468  19.682  31.844   8.269
 1645POPC   C3B23469  19.640  31.834   7.866
 1645POPC   C4B23470  19.643  31.660   7.519
 1646POPC   NC323471   4.968  10.610   9.596
 1646POPC   PO423472   5.452  10.110   9.598
 1646POPC   GL123473   5.344  10.425   9.264
 1646POPC   GL223474   5.034  10.298   9.190
 1646POPC   C1A23475   5.163  10.707   8.902
 1646POPC   D2A23476   5.120  10.889   8.449
 1646POPC   C3A23477   5.288  10.628   8.091
 1646POPC   C4A23478   5.164  10.429   7.713
 1646POPC   C1B23479   4.864  10.116   8.820
 1646POPC   C2B23480   4.677  10.238   8.433
 1646POPC   C3B23481   4.765  10.544   8.148
 1646POPC   C4B23482   4.672  10.559   7.707
 1647POPC   NC323483  40.975  30.078   9.871
 1647POPC   PO423484  40.916  29.501   9.532
 1647POPC   GL123485  40.829  29.827   9.168
 1647POPC   GL223486  41.116  30.075   9.185
 1647POPC   C1A23487  40.801  30.225   8.842
 1647POPC   D2A23488  40.908  30.381   8.425
 1647POPC   C3A23489  40.819  29.996   8.192
 1647POPC   C4A23490  40.810  29.908   7.758
 1647POPC   C1B23491  41.119  29.794   8.762
 1647POPC   C2B23492  41.254  29.571   8.361
 1647POPC   C3B23493  41.201  29.658   7.945
 1647POPC   C4B23494  41.168  29.638   7.487
 1648POPC   NC323495  36.248  21.503   9.513
 1648POPC   PO423496  36.078  20.926   9.718
 1648POPC   GL123497  36.029  21.158   9.212
 1648POPC   GL223498  36.210  21.432   9.034
 1648POPC   C1A23499  35.805  21.200   8.788
 1648POPC   D2A23500  35.960  21.115   8.349
 1648POPC   C3A23501  35.931  21.341   7.951
 1648POPC   C4A23502  36.336  21.242   7.785
 1648POPC   C1B23503  36.317  21.340   8.660
 1648POPC   C2B23504  36.228  21.579   8.301
 1648POPC   C3B23505  36.493  21.774   8.016
 1648POPC   C4B23506  36.625  21.622   7.623
 1649POPC   NC323507  11.545   4.084   9.544
 1649POPC   PO423508  10.921   4.429   9.554
 1649POPC   GL123509  11.180   4.299   9.175
 1649POPC   GL223510  11.362   4.552   8.992
 1649POPC   C1A23511  11.019   4.336   8.707
 1649POPC   D2A23512  11.255   4.422   8.362
 1649POPC   C3A23513  11.056   4.553   8.010
 1649POPC   C4A23514  11.022   4.469   7.592
 1649POPC   C1B23515  11.573   4.244   8.737
 1649POPC   C2B23516  11.778   4.328   8.363
 1649POPC   C3B23517  11.570   4.290   7.963
 1649POPC   C4B23518  11.683   3.909   7.757
 1650POPC   NC323519  36.075  31.666   9.691
 1650POPC   PO423520  36.333  31.145   9.429
 1650POPC   GL123521  36.037  31.314   9.166
 1650POPC   GL223522  35.894  31.657   9.139
 1650POPC   C1A23523  36.169  31.397   8.777
 1650POPC   D2A23524  35.943  31.253   8.453
 1650POPC   C3A23525  36.107  31.320   8.054
 1650POPC   C4A23526  35.977  31.185   7.679
 1650POPC   C1B23527  35.855  31.762   8.666
 1650POPC   C2B23528  36.179  31.729   8.344
 1650POPC   C3B23529  36.076  31.824   7.902
 1650POPC   C4B23530  35.871  31.928   7.489
 1651POPC   NC323531   2.281   0.259   9.729
 1651POPC   PO423532   2.988   0.288   9.588
 1651POPC   GL123533   2.748   0.305   9.220
 1651POPC   GL223534   2.871   0.600   9.088
 1651POPC   C1A23535   2.821   0.053   8.849
 1651POPC   D2A23536   2.952   0.112   8.392
 1651POPC   C3A23537   2.768   0.276   8.016
 1651POPC   C4A23538   2.523   0.296   7.662
 1651POPC   C1B23539   2.591   0.467   8.745
 1651POPC   C2B23540   2.521   0.567   8.344
 1651POPC   C3B23541   2.482   0.730   7.912
 1651POPC   C4B23542   2.673   1.047   7.565
 1652POPC   NC323543  18.001  41.504   9.754
 1652POPC   PO423544  17.336  41.743   9.809
 1652POPC   GL123545  17.300  41.650   9.355
 1652POPC   GL223546  17.495  41.900   9.272
 1652POPC   C1A23547  17.235  41.579   8.876
 1652POPC   D2A23548  17.565  41.394   8.614
 1652POPC   C3A23549  17.560  41.295   8.152
 1652POPC   C4A23550  17.479  41.420   7.713
 1652POPC   C1B23551  17.680  41.816   8.898
 1652POPC   C2B23552  17.511  41.873   8.467
 1652POPC   C3B23553  17.380  41.792   8.066
 1652POPC   C4B23554  17.663  41.901   7.750
 1653POPC   NC323555  24.950   7.170   9.352
 1653POPC   PO423556  24.300   7.315   9.546
 1653POPC   GL123557  24.533   7.475   9.191
 1653POPC   GL223558  24.876   7.585   9.080
 1653POPC   C1A23559  24.428   7.387   8.803
 1653POPC   D2A23560  24.334   7.571   8.420
 1653POPC   C3A23561  24.337   7.903   8.155
 1653POPC   C4A23562  24.173   7.729   7.794
 1653POPC   C1B23563  24.901   7.258   8.734
 1653POPC   C2B23564  24.697   7.222   8.376
 1653POPC   C3B23565  24.830   7.280   8.005
 1653POPC   C4B23566  24.569   7.449   7.685
 1654POPC   NC323567  44.428  43.666   9.764
 1654POPC   PO423568  44.729  44.249   9.520
 1654POPC   GL123569  44.637  43.999   9.134
 1654POPC   GL223570  44.845  43.698   8.971
 1654POPC   C1A23571  44.753  44.147   8.757
 1654POPC   D2A23572  44.526  44.343   8.456
 1654POPC   C3A23573  44.640  44.047   8.181
 1654POPC   C4A23574  44.771  44.004   7.768
 1654POPC   C1B23575  44.490  43.624   8.701
 1654POPC   C2B23576  44.507  43.543   8.278
 1654POPC   C3B23577  44.886  43.586   8.068
 1654POPC   C4B23578  44.910  43.505   7.663
 1655POPC   NC323579  31.865   0.081   9.847
 1655POPC   PO423580  31.607   0.526   9.445
 1655POPC   GL123581  31.659   0.563   9.035
 1655POPC   GL223582  31.665   0.928   9.075
 1655POPC   C1A23583  31.368   0.425   8.684
 1655POPC   D2A23584  31.293   0.556   8.258
 1655POPC   C3A23585  31.348   0.182   7.997
 1655POPC   C4A23586  31.162  44.954   7.648
 1655POPC   C1B23587  31.557   0.899   8.653
 1655POPC   C2B23588  31.815   0.743   8.287
 1655POPC   C3B23589  31.657   0.634   7.877
 1655POPC   C4B23590  31.236   0.577   7.714
 1656POPC   NC323591  26.914  44.772   9.539
 1656POPC   PO423592  26.321  44.340   9.470
 1656POPC   GL123593  26.637  44.499   9.193
 1656POPC   GL223594  26.946  44.344   9.195
 1656POPC   C1A23595  26.751  44.686   8.800
 1656POPC   D2A23596  26.788  44.460   8.394
 1656POPC   C3A23597  26.713  44.671   7.987
 1656POPC   C4A23598  26.491  44.615   7.604
 1656POPC   C1B23599  27.175  44.402   8.807
 1656POPC   C2B23600  27.292  44.545   8.391
 1656POPC   C3B23601  27.128  44.354   8.004
 1656POPC   C4B23602  27.011  44.486   7.580
 1657POPC   NC323603  31.802   5.900   9.419
 1657POPC   PO423604  31.495   5.380   9.524
 1657POPC   GL123605  31.426   5.671   9.135
 1657POPC   GL223606  31.356   6.066   9.148
 1657POPC   C1A23607  31.459   5.642   8.663
 1657POPC   D2A23608  31.164   5.607   8.295
 1657POPC   C3A23609  31.328   5.735   7.897
 1657POPC   C4A23610  31.778   5.707   7.769
 1657POPC   C1B23611  31.174   6.061   8.721
 1657POPC   C2B23612  31.445   6.061   8.342
 1657POPC   C3B23613  31.617   6.156   7.950
 1657POPC   C4B23614  31.252   6.263   7.762
 1658POPC   NC323615  38.553  21.512   9.884
 1658POPC   PO423616  38.804  21.419   9.278
 1658POPC   GL123617  38.458  21.522   9.029
 1658POPC   GL223618  38.193  21.282   9.046
 1658POPC   C1A23619  38.517  21.466   8.588
 1658POPC   D2A23620  38.702  21.175   8.289
 1658POPC   C3A23621  38.660  21.395   7.899
 1658POPC   C4A23622  38.613  21.428   7.459
 1658POPC   C1B23623  38.026  21.427   8.695
 1658POPC   C2B23624  38.095  21.645   8.321
 1658POPC   C3B23625  38.150  21.432   7.925
 1658POPC   C4B23626  38.145  21.232   7.490
 1659POPC   NC323627   7.726  12.771   9.333
 1659POPC   PO423628   7.119  12.959   9.453
 1659POPC   GL123629   7.248  12.696   9.108
 1659POPC   GL223630   7.496  12.935   8.915
 1659POPC   C1A23631   7.094  12.705   8.682
 1659POPC   D2A23632   7.156  13.006   8.348
 1659POPC   C3A23633   7.144  12.900   7.904
 1659POPC   C4A23634   7.310  13.152   7.526
 1659POPC   C1B23635   7.581  12.533   8.692
 1659POPC   C2B23636   7.456  12.568   8.270
 1659POPC   C3B23637   7.633  12.804   7.934
 1659POPC   C4B23638   7.589  12.744   7.500
 1660POPC   NC323639  38.976  42.753   9.447
 1660POPC   PO423640  39.210  42.163   9.611
 1660POPC   GL123641  39.234  42.248   9.153
 1660POPC   GL223642  38.994  42.476   9.017
 1660POPC   C1A23643  39.406  42.404   8.703
 1660POPC   D2A23644  39.723  42.503   8.396
 1660POPC   C3A23645  39.558  42.275   8.057
 1660POPC   C4A23646  39.257  42.392   7.764
 1660POPC   C1B23647  38.977  42.111   8.718
 1660POPC   C2B23648  39.072  42.133   8.251
 1660POPC   C3B23649  39.099  41.916   7.827
 1660POPC   C4B23650  39.124  41.983   7.351
 1661POPC   NC323651  27.154   5.025   9.500
 1661POPC   PO423652  26.414   4.759   9.553
 1661POPC   GL123653  26.639   5.028   9.241
 1661POPC   GL223654  26.933   4.884   9.080
 1661POPC   C1A23655  26.691   5.312   8.860
 1661POPC   D2A23656  26.851   5.505   8.460
 1661POPC   C3A23657  26.841   5.398   8.002
 1661POPC   C4A23658  27.102   5.300   7.655
 1661POPC   C1B23659  27.062   5.007   8.681
 1661POPC   C2B23660  26.822   4.943   8.288
 1661POPC   C3B23661  26.983   4.861   7.870
 1661POPC   C4B23662  27.002   4.845   7.408
 1662POPC   NC323663   6.276  13.580   9.497
 1662POPC   PO423664   6.945  13.741   9.432
 1662POPC   GL123665   6.725  13.559   9.116
 1662POPC   GL223666   6.383  13.413   9.037
 1662POPC   C1A23667   6.886  13.713   8.751
 1662POPC   D2A23668   6.930  13.945   8.395
 1662POPC   C3A23669   6.743  13.802   8.037
 1662POPC   C4A23670   6.797  13.986   7.652
 1662POPC   C1B23671   6.362  13.796   8.849
 1662POPC   C2B23672   6.442  13.784   8.451
 1662POPC   C3B23673   6.316  13.509   8.120
 1662POPC   C4B23674   6.462  13.530   7.691
 1663POPC   NC323675   6.603  38.636   9.560
 1663POPC   PO423676   6.920  38.233   9.150
 1663POPC   GL123677   6.748  38.562   8.919
 1663POPC   GL223678   6.469  38.746   9.085
 1663POPC   C1A23679   6.678  38.442   8.488
 1663POPC   D2A23680   6.364  38.187   8.277
 1663POPC   C3A23681   6.512  38.300   7.900
 1663POPC   C4A23682   6.962  38.384   7.909
 1663POPC   C1B23683   6.264  38.631   8.702
 1663POPC   C2B23684   6.275  38.688   8.262
 1663POPC   C3B23685   6.570  38.807   7.937
 1663POPC   C4B23686   6.468  38.692   7.526
 1664POPC   NC323687   0.968  17.064   9.504
 1664POPC   PO423688   1.355  16.627   9.759
 1664POPC   GL123689   1.262  16.680   9.299
 1664POPC   GL223690   1.533  16.462   9.245
 1664POPC   C1A23691   1.119  16.917   8.872
 1664POPC   D2A23692   1.378  16.942   8.462
 1664POPC   C3A23693   1.168  16.861   8.101
 1664POPC   C4A23694   1.015  16.752   7.725
 1664POPC   C1B23695   1.474  16.580   8.818
 1664POPC   C2B23696   1.562  16.474   8.359
 1664POPC   C3B23697   1.430  16.490   7.904
 1664POPC   C4B23698   1.369  16.452   7.426
 1665POPC   NC323699  23.501   9.644   9.662
 1665POPC   PO423700  23.457   9.107   9.320
 1665POPC   GL123701  23.622   9.503   9.140
 1665POPC   GL223702  23.525   9.884   9.185
 1665POPC   C1A23703  23.594   9.556   8.720
 1665POPC   D2A23704  23.497   9.861   8.440
 1665POPC   C3A23705  23.581   9.680   8.047
 1665POPC   C4A23706  23.843   9.700   7.698
 1665POPC   C1B23707  23.899   9.933   8.892
 1665POPC   C2B23708  23.965  10.041   8.470
 1665POPC   C3B23709  23.837  10.143   8.047
 1665POPC   C4B23710  24.008  10.176   7.624
 1666POPC   NC323711  36.974  44.161   9.947
 1666POPC   PO423712  36.817  43.544   9.611
 1666POPC   GL123713  37.040  43.627   9.195
 1666POPC   GL223714  37.054  43.991   9.036
 1666POPC   C1A23715  36.884  43.595   8.775
 1666POPC   D2A23716  36.717  43.885   8.492
 1666POPC   C3A23717  36.810  43.682   8.098
 1666POPC   C4A23718  36.637  43.697   7.713
 1666POPC   C1B23719  37.218  44.003   8.592
 1666POPC   C2B23720  37.053  44.123   8.176
 1666POPC   C3B23721  36.903  44.143   7.758
 1666POPC   C4B23722  37.099  44.067   7.325
 1667POPC   NC323723   5.082   0.131   9.532
 1667POPC   PO423724   4.886  44.478   9.491
 1667POPC   GL123725   5.063  44.664   9.119
 1667POPC   GL223726   4.888  44.994   9.095
 1667POPC   C1A23727   5.123  44.440   8.708
 1667POPC   D2A23728   5.279  44.371   8.277
 1667POPC   C3A23729   5.121  44.678   7.988
 1667POPC   C4A23730   5.234  44.798   7.563
 1667POPC   C1B23731   4.687  44.780   8.783
 1667POPC   C2B23732   4.637  44.528   8.484
 1667POPC   C3B23733   4.674  44.445   8.080
 1667POPC   C4B23734   4.654  44.774   7.783
 1668POPC   NC323735   6.484  39.602   9.871
 1668POPC   PO423736   6.660  39.109   9.510
 1668POPC   GL123737   6.554  39.261   9.138
 1668POPC   GL223738   6.572  39.620   9.193
 1668POPC   C1A23739   6.623  39.076   8.739
 1668POPC   D2A23740   6.454  39.152   8.359
 1668POPC   C3A23741   6.782  39.251   8.094
 1668POPC   C4A23742   6.874  39.170   7.668
 1668POPC   C1B23743   6.409  39.562   8.749
 1668POPC   C2B23744   6.502  39.667   8.305
 1668POPC   C3B23745   6.303  39.443   7.968
 1668POPC   C4B23746   6.374  39.261   7.555
 1669POPC   NC323747  20.281  10.191   9.425
 1669POPC   PO423748  20.741  10.666   9.513
 1669POPC   GL123749  20.601  10.499   9.149
 1669POPC   GL223750  20.327  10.657   8.979
 1669POPC   C1A23751  20.760  10.503   8.760
 1669POPC   D2A23752  20.750  10.290   8.433
 1669POPC   C3A23753  20.942  10.519   8.120
 1669POPC   C4A23754  20.812  10.528   7.711
 1669POPC   C1B23755  20.317  10.232   8.766
 1669POPC   C2B23756  20.312  10.074   8.349
 1669POPC   C3B23757  20.456  10.284   8.019
 1669POPC   C4B23758  20.426  10.152   7.640
 1670POPC   NC323759  44.474  12.824   9.542
 1670POPC   PO423760   0.002  13.175   9.369
 1670POPC   GL123761  44.822  12.826   9.163
 1670POPC   GL223762  44.496  13.032   9.083
 1670POPC   C1A23763  44.685  12.713   8.748
 1670POPC   D2A23764  44.422  12.942   8.455
 1670POPC   C3A23765  44.400  12.771   8.043
 1670POPC   C4A23766  44.685  12.523   7.821
 1670POPC   C1B23767  44.739  13.249   8.759
 1670POPC   C2B23768  44.922  13.142   8.357
 1670POPC   C3B23769  44.856  13.059   7.908
 1670POPC   C4B23770   0.090  13.196   7.539
 1671POPC   NC323771  11.063   8.432   9.437
 1671POPC   PO423772  11.637   8.341   9.163
 1671POPC   GL123773  11.278   8.252   8.975
 1671POPC   GL223774  11.050   7.993   9.136
 1671POPC   C1A23775  11.362   8.231   8.534
 1671POPC   D2A23776  11.033   8.203   8.256
 1671POPC   C3A23777  11.084   8.360   7.856
 1671POPC   C4A23778  11.516   8.486   7.861
 1671POPC   C1B23779  11.012   7.905   8.696
 1671POPC   C2B23780  10.991   7.688   8.287
 1671POPC   C3B23781  10.950   7.856   7.889
 1671POPC   C4B23782  11.067   7.988   7.435
 1672POPC   NC323783  13.300  31.097   9.453
 1672POPC   PO423784  13.986  31.173   9.421
 1672POPC   GL123785  13.733  30.769   9.267
 1672POPC   GL223786  13.449  30.843   9.055
 1672POPC   C1A23787  13.752  30.464   8.888
 1672POPC   D2A23788  13.787  30.589   8.452
 1672POPC   C3A23789  13.395  30.622   8.193
 1672POPC   C4A23790  13.530  30.562   7.767
 1672POPC   C1B23791  13.763  30.995   8.783
 1672POPC   C2B23792  13.681  31.081   8.366
 1672POPC   C3B23793  13.625  31.027   7.945
 1672POPC   C4B23794  13.288  31.019   7.669
 1673POPC   NC323795  36.646  18.025   9.318
 1673POPC   PO423796  37.097  18.506   9.419
 1673POPC   GL123797  37.017  18.326   9.070
 1673POPC   GL223798  36.682  18.431   8.974
 1673POPC   C1A23799  37.182  18.471   8.694
 1673POPC   D2A23800  37.036  18.462   8.276
 1673POPC   C3A23801  37.258  18.199   7.995
 1673POPC   C4A23802  37.106  18.096   7.564
 1673POPC   C1B23803  36.782  18.132   8.657
 1673POPC   C2B23804  36.934  17.888   8.325
 1673POPC   C3B23805  36.780  18.026   7.951
 1673POPC   C4B23806  36.480  17.878   7.707
 1674POPC   NC323807  23.351  19.717   9.438
 1674POPC   PO423808  22.737  20.017   9.475
 1674POPC   GL123809  22.983  19.906   9.137
 1674POPC   GL223810  22.916  19.556   9.174
 1674POPC   C1A23811  23.085  20.048   8.727
 1674POPC   D2A23812  22.752  20.235   8.510
 1674POPC   C3A23813  22.764  20.049   8.118
 1674POPC   C4A23814  23.070  20.076   7.834
 1674POPC   C1B23815  22.908  19.574   8.731
 1674POPC   C2B23816  23.136  19.672   8.351
 1674POPC   C3B23817  22.976  19.539   7.969
 1674POPC   C4B23818  22.814  19.706   7.605
 1675POPC   NC323819   1.498  32.932   9.884
 1675POPC   PO423820   1.043  33.333   9.569
 1675POPC   GL123821   1.167  33.121   9.151
 1675POPC   GL223822   1.411  32.841   9.130
 1675POPC   C1A23823   0.964  32.852   8.818
 1675POPC   D2A23824   1.001  32.624   8.427
 1675POPC   C3A23825   1.080  32.845   8.070
 1675POPC   C4A23826   0.853  32.975   7.700
 1675POPC   C1B23827   1.445  33.002   8.681
 1675POPC   C2B23828   1.223  33.250   8.350
 1675POPC   C3B23829   1.191  33.293   7.890
 1675POPC   C4B23830   1.252  33.163   7.429
 1676POPC   NC323831  39.728  13.641   9.482
 1676POPC   PO423832  39.092  13.523   9.758
 1676POPC   GL123833  39.223  13.641   9.326
 1676POPC   GL223834  38.999  13.507   9.138
 1676POPC   C1A23835  39.440  13.530   8.889
 1676POPC   D2A23836  39.320  13.514   8.441
 1676POPC   C3A23837  39.441  13.775   8.103
 1676POPC   C4A23838  39.539  13.544   7.720
 1676POPC   C1B23839  38.978  13.746   8.744
 1676POPC   C2B23840  38.866  13.684   8.302
 1676POPC   C3B23841  38.982  13.514   7.889
 1676POPC   C4B23842  38.812  13.208   7.571
 1677POPC   NC323843  32.565  21.493   9.469
 1677POPC   PO423844  33.073  21.137   9.679
 1677POPC   GL123845  33.061  21.364   9.283
 1677POPC   GL223846  32.819  21.172   9.171
 1677POPC   C1A23847  33.021  21.527   8.831
 1677POPC   D2A23848  32.910  21.358   8.391
 1677POPC   C3A23849  33.014  21.484   7.978
 1677POPC   C4A23850  33.230  21.841   7.811
 1677POPC   C1B23851  32.979  21.017   8.817
 1677POPC   C2B23852  32.954  20.846   8.441
 1677POPC   C3B23853  33.214  20.885   8.105
 1677POPC   C4B23854  33.083  20.995   7.706
 1678POPC   NC323855  10.606  19.586   9.539
 1678POPC   PO423856  10.191  20.057   9.432
 1678POPC   GL123857  10.482  20.167   9.129
 1678POPC   GL223858  10.780  19.954   9.200
 1678POPC   C1A23859  10.369  20.234   8.698
 1678POPC   D2A23860  10.565  20.155   8.322
 1678POPC   C3A23861  10.479  19.852   8.022
 1678POPC   C4A23862  10.490  20.103   7.697
 1678POPC   C1B23863  10.838  19.982   8.751
 1678POPC   C2B23864  10.786  19.689   8.406
 1678POPC   C3B23865  10.844  19.484   7.993
 1678POPC   C4B23866  10.685  19.638   7.573
 1679POPC   NC323867   4.821   7.469   9.544
 1679POPC   PO423868   5.421   7.686   9.535
 1679POPC   GL123869   5.171   7.443   9.182
 1679POPC   GL223870   4.922   7.666   9.033
 1679POPC   C1A23871   4.991   7.212   8.789
 1679POPC   D2A23872   5.062   6.989   8.378
 1679POPC   C3A23873   4.978   7.153   7.958
 1679POPC   C4A23874   4.734   7.086   7.598
 1679POPC   C1B23875   5.321   7.645   8.725
 1679POPC   C2B23876   5.616   7.786   8.363
 1679POPC   C3B23877   5.432   7.814   7.930
 1679POPC   C4B23878   5.003   7.652   7.847
 1680POPC   NC323879  31.366   7.682   9.641
 1680POPC   PO423880  31.872   7.267   9.428
 1680POPC   GL123881  31.577   7.393   9.130
 1680POPC   GL223882  31.207   7.521   9.139
 1680POPC   C1A23883  31.518   7.358   8.696
 1680POPC   D2A23884  31.359   7.575   8.352
 1680POPC   C3A23885  31.183   7.324   8.023
 1680POPC   C4A23886  31.463   7.411   7.703
 1680POPC   C1B23887  31.070   7.786   8.748
 1680POPC   C2B23888  30.965   7.896   8.270
 1680POPC   C3B23889  31.246   7.813   7.883
 1680POPC   C4B23890  31.242   7.779   7.377
 1681POPC   NC323891  31.858  38.559   9.557
 1681POPC   PO423892  32.492  38.346   9.516
 1681POPC   GL123893  32.320  38.541   9.177
 1681POPC   GL223894  32.052  38.744   9.101
 1681POPC   C1A23895  32.291  38.355   8.789
 1681POPC   D2A23896  32.547  38.362   8.442
 1681POPC   C3A23897  32.407  38.546   8.048
 1681POPC   C4A23898  32.653  38.586   7.692
 1681POPC   C1B23899  32.218  38.866   8.764
 1681POPC   C2B23900  32.102  38.724   8.407
 1681POPC   C3B23901  32.003  38.927   8.037
 1681POPC   C4B23902  32.083  38.735   7.675
 1682POPC   NC323903   3.776  42.660   9.504
 1682POPC   PO423904   3.431  42.144   9.840
 1682POPC   GL123905   3.420  42.118   9.299
 1682POPC   GL223906   3.478  42.442   9.152
 1682POPC   C1A23907   3.506  42.063   8.799
 1682POPC   D2A23908   3.632  42.325   8.382
 1682POPC   C3A23909   3.644  42.213   7.912
 1682POPC   C4A23910   3.501  42.378   7.499
 1682POPC   C1B23911   3.837  42.460   8.846
 1682POPC   C2B23912   4.084  42.605   8.494
 1682POPC   C3B23913   3.958  42.663   8.076
 1682POPC   C4B23914   3.976  42.489   7.641
 1683POPC   NC323915  43.697  35.898   9.333
 1683POPC   PO423916  43.604  36.580   9.468
 1683POPC   GL123917  43.711  36.388   9.107
 1683POPC   GL223918  44.077  36.398   9.096
 1683POPC   C1A23919  43.726  36.144   8.743
 1683POPC   D2A23920  43.931  36.213   8.406
 1683POPC   C3A23921  43.703  36.180   8.055
 1683POPC   C4A23922  43.913  36.155   7.703
 1683POPC   C1B23923  44.226  36.037   8.828
 1683POPC   C2B23924  44.248  35.818   8.436
 1683POPC   C3B23925  44.314  36.054   8.038
 1683POPC   C4B23926  44.403  36.200   7.619
 1684POPC   NC323927  39.833  36.735   9.418
 1684POPC   PO423928  39.185  36.967   9.605
 1684POPC   GL123929  39.318  37.124   9.183
 1684POPC   GL223930  39.424  36.798   9.138
 1684POPC   C1A23931  39.310  37.016   8.694
 1684POPC   D2A23932  39.118  36.771   8.368
 1684POPC   C3A23933  39.238  36.923   7.975
 1684POPC   C4A23934  39.174  37.237   7.658
 1684POPC   C1B23935  39.638  36.635   8.794
 1684POPC   C2B23936  39.521  36.458   8.421
 1684POPC   C3B23937  39.624  36.608   8.069
 1684POPC   C4B23938  39.660  36.792   7.685
 1685POPC   NC323939  17.197   5.946   9.513
 1685POPC   PO423940  16.590   5.579   9.522
 1685POPC   GL123941  16.836   5.676   9.214
 1685POPC   GL223942  16.777   6.004   9.181
 1685POPC   C1A23943  16.749   5.514   8.826
 1685POPC   D2A23944  16.556   5.443   8.456
 1685POPC   C3A23945  16.784   5.342   8.101
 1685POPC   C4A23946  16.612   5.625   7.806
 1685POPC   C1B23947  16.706   6.250   8.827
 1685POPC   C2B23948  16.794   6.398   8.415
 1685POPC   C3B23949  16.837   6.327   8.012
 1685POPC   C4B23950  16.607   6.125   7.750
 1686POPC   NC323951  40.058  11.625   9.773
 1686POPC   PO423952  39.833  11.012   9.486
 1686POPC   GL123953  39.904  11.000   9.057
 1686POPC   GL223954  40.223  11.120   9.058
 1686POPC   C1A23955  39.986  11.158   8.612
 1686POPC   D2A23956  40.097  10.943   8.246
 1686POPC   C3A23957  40.305  11.039   7.860
 1686POPC   C4A23958  40.023  10.959   7.482
 1686POPC   C1B23959  40.476  11.314   8.746
 1686POPC   C2B23960  40.423  11.344   8.286
 1686POPC   C3B23961  40.191  11.532   7.937
 1686POPC   C4B23962  40.370  11.818   7.617
 1687POPC   NC323963  34.753   2.465   9.556
 1687POPC   PO423964  34.348   3.030   9.434
 1687POPC   GL123965  34.557   2.730   9.157
 1687POPC   GL223966  34.910   2.840   9.242
 1687POPC   C1A23967  34.506   2.702   8.697
 1687POPC   D2A23968  34.469   3.064   8.389
 1687POPC   C3A23969  34.374   2.919   7.974
 1687POPC   C4A23970  34.455   2.510   7.730
 1687POPC   C1B23971  34.820   3.074   8.856
 1687POPC   C2B23972  34.957   2.920   8.476
 1687POPC   C3B23973  34.892   3.044   8.079
 1687POPC   C4B23974  34.820   2.891   7.701
 1688POPC   NC323975  30.458   3.782   9.663
 1688POPC   PO423976  31.082   3.866   9.588
 1688POPC   GL123977  30.799   3.672   9.252
 1688POPC   GL223978  30.601   3.904   9.083
 1688POPC   C1A23979  30.803   3.560   8.778
 1688POPC   D2A23980  30.965   3.644   8.355
 1688POPC   C3A23981  30.739   3.490   8.001
 1688POPC   C4A23982  30.402   3.770   7.898
 1688POPC   C1B23983  30.963   4.055   8.753
 1688POPC   C2B23984  31.222   4.093   8.356
 1688POPC   C3B23985  31.041   4.002   7.962
 1688POPC   C4B23986  30.921   3.759   7.585
 1689POPC   NC323987  42.173  29.545   9.576
 1689POPC   PO423988  42.616  28.987   9.472
 1689POPC   GL123989  42.434  29.192   9.130
 1689POPC   GL223990  42.101  29.200   9.186
 1689POPC   C1A23991  42.545  29.116   8.727
 1689POPC   D2A23992  42.589  28.752   8.475
 1689POPC   C3A23993  42.635  28.964   8.110
 1689POPC   C4A23994  42.427  29.059   7.714
 1689POPC   C1B23995  42.053  29.369   8.783
 1689POPC   C2B23996  42.193  29.289   8.367
 1689POPC   C3B23997  42.087  29.480   7.968
 1689POPC   C4B23998  42.423  29.569   7.701
 1690POPC   NC323999  36.443  14.541   9.295
 1690POPC   PO424000  36.020  14.157   9.662
 1690POPC   GL124001  35.950  14.344   9.169
 1690POPC   GL224002  35.979  14.671   9.053
 1690POPC   C1A24003  36.039  14.315   8.701
 1690POPC   D2A24004  36.154  14.039   8.368
 1690POPC   C3A24005  36.084  14.188   7.958
 1690POPC   C4A24006  36.141  14.109   7.532
 1690POPC   C1B24007  36.287  14.757   8.689
 1690POPC   C2B24008  36.298  14.613   8.247
 1690POPC   C3B24009  36.152  14.778   7.831
 1690POPC   C4B24010  36.392  14.871   7.433
 1691POPC   NC324011  17.170  25.319   9.334
 1691POPC   PO424012  17.853  25.433   9.587
 1691POPC   GL124013  17.644  25.390   9.166
 1691POPC   GL224014  17.517  25.019   9.104
 1691POPC   C1A24015  17.517  25.349   8.705
 1691POPC   D2A24016  17.203  25.384   8.361
 1691POPC   C3A24017  17.434  25.414   7.966
 1691POPC   C4A24018  17.655  25.366   7.567
 1691POPC   C1B24019  17.259  24.904   8.746
 1691POPC   C2B24020  17.049  24.868   8.357
 1691POPC   C3B24021  17.003  25.086   7.984
 1691POPC   C4B24022  17.280  25.034   7.660
 1692POPC   NC324023   0.745  31.294   9.606
 1692POPC   PO424024   1.330  31.568   9.635
 1692POPC   GL124025   1.257  31.480   9.188
 1692POPC   GL224026   0.956  31.356   9.164
 1692POPC   C1A24027   1.332  31.252   8.795
 1692POPC   D2A24028   1.186  31.435   8.398
 1692POPC   C3A24029   1.260  31.323   7.995
 1692POPC   C4A24030   1.597  31.554   7.829
 1692POPC   C1B24031   0.918  31.566   8.802
 1692POPC   C2B24032   0.695  31.553   8.406
 1692POPC   C3B24033   0.785  31.544   7.992
 1692POPC   C4B24034   1.009  31.644   7.618
 1693POPC   NC324035  42.068  24.980   9.468
 1693POPC   PO424036  42.651  25.238   9.486
 1693POPC   GL124037  42.502  25.453   9.153
 1693POPC   GL224038  42.166  25.466   9.118
 1693POPC   C1A24039  42.585  25.580   8.787
 1693POPC   D2A24040  42.639  25.284   8.452
 1693POPC   C3A24041  42.634  25.473   8.049
 1693POPC   C4A24042  42.661  25.290   7.626
 1693POPC   C1B24043  42.201  25.217   8.784
 1693POPC   C2B24044  42.119  25.084   8.385
 1693POPC   C3B24045  42.372  24.998   8.042
 1693POPC   C4B24046  42.192  25.272   7.776
 1694POPC   NC324047  35.944   1.148   9.413
 1694POPC   PO424048  36.530   1.470   9.381
 1694POPC   GL124049  36.382   1.048   9.176
 1694POPC   GL224050  36.590   0.890   8.943
 1694POPC   C1A24051  36.118   0.978   8.768
 1694POPC   D2A24052  36.224   1.188   8.342
 1694POPC   C3A24053  36.281   0.922   8.005
 1694POPC   C4A24054  35.851   0.974   7.990
 1694POPC   C1B24055  36.466   1.351   8.770
 1694POPC   C2B24056  36.604   1.595   8.440
 1694POPC   C3B24057  36.535   1.622   8.017
 1694POPC   C4B24058  36.170   1.415   7.840
 1695POPC   NC324059  31.796   6.811   9.406
 1695POPC   PO424060  31.112   6.917   9.432
 1695POPC   GL124061  31.362   6.665   9.126
 1695POPC   GL224062  31.583   6.904   8.973
 1695POPC   C1A24063  31.546   6.444   8.745
 1695POPC   D2A24064  31.761   6.498   8.322
 1695POPC   C3A24065  31.477   6.638   8.042
 1695POPC   C4A24066  31.408   6.714   7.619
 1695POPC   C1B24067  31.788   6.929   8.612
 1695POPC   C2B24068  31.598   7.088   8.246
 1695POPC   C3B24069  31.737   7.017   7.830
 1695POPC   C4B24070  31.808   6.962   7.353
 1696POPC   NC324071  29.212  35.114   9.524
 1696POPC   PO424072  29.489  35.746   9.557
 1696POPC   GL124073  29.198  35.532   9.233
 1696POPC   GL224074  29.014  35.755   9.062
 1696POPC   C1A24075  29.158  35.218   8.871
 1696POPC   D2A24076  29.303  35.249   8.419
 1696POPC   C3A24077  29.067  35.129   8.040
 1696POPC   C4A24078  29.082  34.949   7.650
 1696POPC   C1B24079  29.307  35.667   8.738
 1696POPC   C2B24080  29.087  35.692   8.356
 1696POPC   C3B24081  28.951  35.650   7.945
 1696POPC   C4B24082  29.094  35.719   7.539
 1697POPC   NC324083   3.066   4.979   9.595
 1697POPC   PO424084   3.654   5.187   9.566
 1697POPC   GL124085   3.633   5.264   9.094
 1697POPC   GL224086   3.692   5.619   8.958
 1697POPC   C1A24087   3.634   5.167   8.637
 1697POPC   D2A24088   3.629   5.235   8.187
 1697POPC   C3A24089   3.425   4.924   7.891
 1697POPC   C4A24090   3.596   4.729   7.475
 1697POPC   C1B24091   3.262   5.469   8.808
 1697POPC   C2B24092   3.162   5.308   8.378
 1697POPC   C3B24093   3.196   5.393   7.917
 1697POPC   C4B24094   3.256   5.192   7.491
 1698POPC   NC324095  20.916  22.079   9.689
 1698POPC   PO424096  21.460  22.452   9.569
 1698POPC   GL124097  21.202  22.408   9.217
 1698POPC   GL224098  21.244  22.040   9.248
 1698POPC   C1A24099  21.254  22.378   8.754
 1698POPC   D2A24100  21.626  22.451   8.465
 1698POPC   C3A24101  21.528  22.386   8.054
 1698POPC   C4A24102  21.093  22.414   7.969
 1698POPC   C1B24103  21.548  21.986   8.884
 1698POPC   C2B24104  21.398  21.971   8.445
 1698POPC   C3B24105  21.290  21.913   8.025
 1698POPC   C4B24106  21.126  21.672   7.708
 1699POPC   NC324107  42.295  39.406   9.749
 1699POPC   PO424108  42.209  38.839   9.366
 1699POPC   GL124109  42.353  39.166   9.138
 1699POPC   GL224110  42.053  39.225   8.954
 1699POPC   C1A24111  42.527  39.199   8.743
 1699POPC   D2A24112  42.514  39.364   8.354
 1699POPC   C3A24113  42.371  39.084   8.072
 1699POPC   C4A24114  42.543  38.959   7.689
 1699POPC   C1B24115  42.169  39.582   8.675
 1699POPC   C2B24116  42.220  39.852   8.360
 1699POPC   C3B24117  42.121  39.584   8.048
 1699POPC   C4B24118  42.240  39.379   7.691
 1700POPC   NC324119  39.076   1.342   9.376
 1700POPC   PO424120  39.768   1.277   9.478
 1700POPC   GL124121  39.523   1.144   9.105
 1700POPC   GL224122  39.214   0.923   9.137
 1700POPC   C1A24123  39.393   1.082   8.660
 1700POPC   D2A24124  39.166   1.316   8.301
 1700POPC   C3A24125  39.340   1.343   7.883
 1700POPC   C4A24126  39.629   1.030   7.718
 1700POPC   C1B24127  38.918   1.115   8.795
 1700POPC   C2B24128  38.751   1.030   8.369
 1700POPC   C3B24129  38.791   1.139   7.918
 1700POPC   C4B24130  38.854   1.391   7.547
 1701POPC   NC324131  11.761  42.291   9.493
 1701POPC   PO424132  12.479  42.211   9.456
 1701POPC   GL124133  12.166  42.212   9.167
 1701POPC   GL224134  11.974  41.910   9.221
 1701POPC   C1A24135  12.158  42.392   8.756
 1701POPC   D2A24136  12.228  42.331   8.309
 1701POPC   C3A24137  12.031  42.620   8.015
 1701POPC   C4A24138  12.365  42.821   7.832
 1701POPC   C1B24139  12.128  41.866   8.797
 1701POPC   C2B24140  11.956  41.914   8.409
 1701POPC   C3B24141  11.818  42.139   8.056
 1701POPC   C4B24142  11.733  42.122   7.640
 1702POPC   NC324143  32.379  19.955   9.469
 1702POPC   PO424144  31.749  20.272   9.560
 1702POPC   GL124145  32.019  20.523   9.232
 1702POPC   GL224146  31.982  20.897   9.112
 1702POPC   C1A24147  31.990  20.533   8.766
 1702POPC   D2A24148  31.830  20.670   8.364
 1702POPC   C3A24149  32.147  20.716   8.055
 1702POPC   C4A24150  32.360  20.492   7.724
 1702POPC   C1B24151  32.068  21.050   8.692
 1702POPC   C2B24152  31.976  21.194   8.285
 1702POPC   C3B24153  32.051  21.176   7.839
 1702POPC   C4B24154  32.019  20.834   7.565
 1703POPC   NC324155  38.827  17.221   9.612
 1703POPC   PO424156  39.437  17.548   9.634
 1703POPC   GL124157  39.175  17.596   9.274
 1703POPC   GL224158  39.478  17.503   9.091
 1703POPC   C1A24159  39.065  17.627   8.810
 1703POPC   D2A24160  39.163  17.345   8.471
 1703POPC   C3A24161  39.254  17.376   8.056
 1703POPC   C4A24162  38.928  17.469   7.758
 1703POPC   C1B24163  39.536  17.846   8.807
 1703POPC   C2B24164  39.604  17.778   8.376
 1703POPC   C3B24165  39.716  17.883   7.984
 1703POPC   C4B24166  39.334  17.870   7.786
 1704POPC   NC324167  38.014  14.565   9.579
 1704POPC   PO424168  38.347  14.031   9.584
 1704POPC   GL124169  38.083  14.248   9.171
 1704POPC   GL224170  37.885  14.613   9.109
 1704POPC   C1A24171  37.811  14.265   8.743
 1704POPC   D2A24172  37.834  14.404   8.286
 1704POPC   C3A24173  37.553  14.171   7.956
 1704POPC   C4A24174  37.351  13.839   7.664
 1704POPC   C1B24175  37.725  14.774   8.752
 1704POPC   C2B24176  37.722  14.939   8.374
 1704POPC   C3B24177  37.781  14.826   7.972
 1704POPC   C4B24178  37.720  14.549   7.639
 1705POPC   NC324179  30.745  39.692   9.383
 1705POPC   PO424180  30.235  39.185   9.387
 1705POPC   GL124181  30.522  39.336   9.088
 1705POPC   GL224182  30.813  39.072   8.964
 1705POPC   C1A24183  30.703  39.515   8.740
 1705POPC   D2A24184  30.792  39.305   8.381
 1705POPC   C3A24185  30.734  39.511   8.002
 1705POPC   C4A24186  30.843  39.368   7.584
 1705POPC   C1B24187  30.449  39.023   8.691
 1705POPC   C2B24188  30.332  39.117   8.284
 1705POPC   C3B24189  30.613  39.030   7.941
 1705POPC   C4B24190  30.512  38.994   7.512
 1706POPC   NC324191  34.627   8.243   9.550
 1706POPC   PO424192  34.953   8.846   9.554
 1706POPC   GL124193  34.884   8.499   9.186
 1706POPC   GL224194  34.553   8.309   9.066
 1706POPC   C1A24195  34.913   8.390   8.736
 1706POPC   D2A24196  34.827   8.644   8.397
 1706POPC   C3A24197  34.702   8.463   8.007
 1706POPC   C4A24198  34.487   8.372   7.599
 1706POPC   C1B24199  34.481   7.990   8.764
 1706POPC   C2B24200  34.583   7.902   8.332
 1706POPC   C3B24201  34.684   7.971   7.909
 1706POPC   C4B24202  34.588   7.813   7.487
 1707POPC   NC324203  40.261  38.264   9.404
 1707POPC   PO424204  39.631  38.715   9.473
 1707POPC   GL124205  39.867  38.541   9.193
 1707POPC   GL224206  40.172  38.679   9.113
 1707POPC   C1A24207  39.823  38.319   8.813
 1707POPC   D2A24208  39.632  38.441   8.436
 1707POPC   C3A24209  39.707  38.279   7.994
 1707POPC   C4A24210  39.798  38.378   7.558
 1707POPC   C1B24211  40.285  38.542   8.702
 1707POPC   C2B24212  40.121  38.389   8.306
 1707POPC   C3B24213  40.211  38.532   7.895
 1707POPC   C4B24214  40.598  38.385   7.738
 1708POPC   NC324215   7.150  10.133   9.292
 1708POPC   PO424216   7.110  10.683   9.617
 1708POPC   GL124217   7.309  10.639   9.175
 1708POPC   GL224218   7.594  10.384   9.059
 1708POPC   C1A24219   7.365  10.638   8.719
 1708POPC   D2A24220   7.635  10.504   8.410
 1708POPC   C3A24221   7.436  10.647   8.035
 1708POPC   C4A24222   7.169  10.791   7.743
 1708POPC   C1B24223   7.504  10.093   8.716
 1708POPC   C2B24224   7.721   9.980   8.331
 1708POPC   C3B24225   7.674  10.217   7.952
 1708POPC   C4B24226   7.349  10.111   7.670
 1709POPC   NC324227  24.231  31.115  10.078
 1709POPC   PO424228  23.854  31.347   9.579
 1709POPC   GL124229  23.733  31.285   9.213
 1709POPC   GL224230  24.056  31.217   9.102
 1709POPC   C1A24231  23.532  31.345   8.849
 1709POPC   D2A24232  23.585  31.480   8.454
 1709POPC   C3A24233  23.622  31.718   8.114
 1709POPC   C4A24234  23.656  31.604   7.714
 1709POPC   C1B24235  24.002  31.573   8.856
 1709POPC   C2B24236  24.092  31.492   8.459
 1709POPC   C3B24237  24.087  31.521   8.049
 1709POPC   C4B24238  24.050  31.892   7.840
 1710POPC   NC324239  19.761  42.018  10.197
 1710POPC   PO424240  19.775  42.212   9.481
 1710POPC   GL124241  20.046  42.249   9.170
 1710POPC   GL224242  20.272  41.977   9.262
 1710POPC   C1A24243  20.051  42.340   8.739
 1710POPC   D2A24244  19.853  42.148   8.396
 1710POPC   C3A24245  19.767  42.490   8.126
 1710POPC   C4A24246  19.677  42.695   7.739
 1710POPC   C1B24247  20.163  41.866   8.834
 1710POPC   C2B24248  20.325  41.952   8.405
 1710POPC   C3B24249  20.178  42.162   8.020
 1710POPC   C4B24250  19.882  42.242   7.711
 1711POPC   NC324251  26.570   0.402   9.557
 1711POPC   PO424252  25.963   0.731   9.440
 1711POPC   GL124253  26.040   0.395   9.148
 1711POPC   GL224254  26.340   0.421   9.114
 1711POPC   C1A24255  25.886   0.290   8.750
 1711POPC   D2A24256  25.655   0.271   8.372
 1711POPC   C3A24257  25.916   0.193   8.055
 1711POPC   C4A24258  25.827   0.369   7.688
 1711POPC   C1B24259  26.372   0.515   8.720
 1711POPC   C2B24260  26.372   0.333   8.334
 1711POPC   C3B24261  26.283   0.528   7.938
 1711POPC   C4B24262  26.272   0.447   7.486
 1712POPC   NC324263  35.284  29.765   9.533
 1712POPC   PO424264  35.976  29.650   9.493
 1712POPC   GL124265  35.633  29.750   9.185
 1712POPC   GL224266  35.517  30.080   9.136
 1712POPC   C1A24267  35.348  29.727   8.821
 1712POPC   D2A24268  35.386  30.039   8.509
 1712POPC   C3A24269  35.389  29.887   8.092
 1712POPC   C4A24270  35.517  29.883   7.671
 1712POPC   C1B24271  35.076  30.139   8.956
 1712POPC   C2B24272  34.875  30.110   8.532
 1712POPC   C3B24273  34.989  30.192   8.096
 1712POPC   C4B24274  35.004  29.965   7.692
 1713POPC   NC324275  41.842  28.795   9.382
 1713POPC   PO424276  41.738  29.465   9.438
 1713POPC   GL124277  41.615  29.376   9.070
 1713POPC   GL224278  41.459  29.089   9.147
 1713POPC   C1A24279  41.505  29.307   8.700
 1713POPC   D2A24280  41.721  29.113   8.411
 1713POPC   C3A24281  41.599  29.291   8.075
 1713POPC   C4A24282  41.611  29.472   7.713
 1713POPC   C1B24283  41.543  28.811   8.791
 1713POPC   C2B24284  41.541  28.646   8.386
 1713POPC   C3B24285  41.455  28.808   7.962
 1713POPC   C4B24286  41.199  29.172   7.785
 1714POPC   NC324287  22.824  31.940   9.777
 1714POPC   PO424288  22.814  31.300   9.460
 1714POPC   GL124289  23.091  31.441   9.111
 1714POPC   GL224290  23.344  31.721   9.179
 1714POPC   C1A24291  23.091  31.493   8.636
 1714POPC   D2A24292  23.180  31.216   8.275
 1714POPC   C3A24293  23.198  31.323   7.825
 1714POPC   C4A24294  22.832  31.434   7.535
 1714POPC   C1B24295  23.404  31.893   8.747
 1714POPC   C2B24296  23.201  31.909   8.312
 1714POPC   C3B24297  23.178  31.839   7.822
 1714POPC   C4B24298  23.274  31.635   7.402
 1715POPC   NC324299  25.910   4.511   9.605
 1715POPC   PO424300  26.201   3.901   9.558
 1715POPC   GL124301  25.960   4.087   9.247
 1715POPC   GL224302  26.089   4.385   9.161
 1715POPC   C1A24303  25.886   4.101   8.778
 1715POPC   D2A24304  26.100   4.221   8.363
 1715POPC   C3A24305  25.880   4.046   8.011
 1715POPC   C4A24306  25.530   3.869   7.780
 1715POPC   C1B24307  26.127   4.560   8.761
 1715POPC   C2B24308  26.025   4.748   8.356
 1715POPC   C3B24309  25.981   4.557   7.945
 1715POPC   C4B24310  26.037   4.613   7.499
 1716POPC   NC324311  33.443  33.077   9.506
 1716POPC   PO424312  32.758  32.912   9.513
 1716POPC   GL124313  32.811  32.733   9.096
 1716POPC   GL224314  33.155  32.712   9.057
 1716POPC   C1A24315  32.581  32.728   8.734
 1716POPC   D2A24316  32.590  32.921   8.340
 1716POPC   C3A24317  32.957  33.048   8.134
 1716POPC   C4A24318  32.897  32.752   7.843
 1716POPC   C1B24319  33.086  32.802   8.600
 1716POPC   C2B24320  33.227  32.617   8.206
 1716POPC   C3B24321  33.460  32.826   7.868
 1716POPC   C4B24322  33.649  33.175   7.594
 1717POPC   NC324323   4.099  33.929   9.446
 1717POPC   PO424324   4.684  33.453   9.443
 1717POPC   GL124325   4.434  33.674   9.152
 1717POPC   GL224326   4.476  34.040   9.133
 1717POPC   C1A24327   4.313  33.633   8.726
 1717POPC   D2A24328   4.107  33.590   8.319
 1717POPC   C3A24329   4.316  33.808   7.982
 1717POPC   C4A24330   4.553  33.559   7.705
 1717POPC   C1B24331   4.195  34.130   8.786
 1717POPC   C2B24332   4.104  34.112   8.342
 1717POPC   C3B24333   4.024  34.268   7.913
 1717POPC   C4B24334   4.287  34.227   7.543
 1718POPC   NC324335   7.027  39.381   9.350
 1718POPC   PO424336   7.656  39.032   9.434
 1718POPC   GL124337   7.512  39.292   9.095
 1718POPC   GL224338   7.535  39.635   9.102
 1718POPC   C1A24339   7.396  39.262   8.662
 1718POPC   D2A24340   7.604  39.086   8.298
 1718POPC   C3A24341   7.286  38.980   7.966
 1718POPC   C4A24342   7.390  38.997   7.533
 1718POPC   C1B24343   7.293  39.768   8.742
 1718POPC   C2B24344   7.043  39.634   8.364
 1718POPC   C3B24345   7.216  39.510   7.962
 1718POPC   C4B24346   7.622  39.382   7.868
 1719POPC   NC324347  10.754  10.696   9.475
 1719POPC   PO424348  11.451  10.550   9.650
 1719POPC   GL124349  11.556  10.571   9.232
 1719POPC   GL224350  11.674  10.893   9.153
 1719POPC   C1A24351  11.510  10.484   8.808
 1719POPC   D2A24352  11.125  10.481   8.554
 1719POPC   C3A24353  11.196  10.446   8.099
 1719POPC   C4A24354  11.201  10.658   7.689
 1719POPC   C1B24355  11.491  11.031   8.845
 1719POPC   C2B24356  11.500  10.861   8.455
 1719POPC   C3B24357  11.502  10.877   8.047
 1719POPC   C4B24358  11.711  10.756   7.685
 1720POPC   NC324359  10.655  41.153   9.568
 1720POPC   PO424360  10.152  40.680   9.537
 1720POPC   GL124361  10.542  40.625   9.280
 1720POPC   GL224362  10.461  40.894   9.134
 1720POPC   C1A24363  10.779  40.561   8.854
 1720POPC   D2A24364  10.853  40.384   8.395
 1720POPC   C3A24365  10.702  40.570   8.009
 1720POPC   C4A24366  10.654  41.005   7.828
 1720POPC   C1B24367  10.269  40.608   8.830
 1720POPC   C2B24368  10.394  40.663   8.414
 1720POPC   C3B24369  10.222  40.762   7.979
 1720POPC   C4B24370  10.425  40.631   7.565
 1721POPC   NC324371  23.513   4.047   9.591
 1721POPC   PO424372  24.013   4.519   9.531
 1721POPC   GL124373  23.832   4.279   9.155
 1721POPC   GL224374  23.574   4.026   9.105
 1721POPC   C1A24375  23.625   4.431   8.788
 1721POPC   D2A24376  23.475   4.675   8.485
 1721POPC   C3A24377  23.678   4.523   8.186
 1721POPC   C4A24378  23.717   4.569   7.787
 1721POPC   C1B24379  23.791   3.955   8.726
 1721POPC   C2B24380  23.560   4.017   8.367
 1721POPC   C3B24381  23.688   4.068   7.970
 1721POPC   C4B24382  24.020   3.940   7.751
 1722POPC   NC324383  34.522  23.348   9.853
 1722POPC   PO424384  34.503  23.928   9.446
 1722POPC   GL124385  34.727  23.794   9.115
 1722POPC   GL224386  34.928  24.044   9.033
 1722POPC   C1A24387  34.546  23.632   8.740
 1722POPC   D2A24388  34.605  23.337   8.419
 1722POPC   C3A24389  34.687  23.534   8.040
 1722POPC   C4A24390  34.422  23.825   7.825
 1722POPC   C1B24391  34.838  24.034   8.583
 1722POPC   C2B24392  34.785  24.066   8.128
 1722POPC   C3B24393  34.922  24.029   7.690
 1722POPC   C4B24394  34.843  24.277   7.309
 1723POPC   NC324395  10.210  41.934   9.617
 1723POPC   PO424396  10.832  41.596   9.444
 1723POPC   GL124397  10.572  41.409   9.113
 1723POPC   GL224398  10.225  41.335   9.233
 1723POPC   C1A24399  10.525  41.168   8.716
 1723POPC   D2A24400  10.356  41.172   8.301
 1723POPC   C3A24401  10.569  41.468   8.025
 1723POPC   C4A24402  10.733  41.472   7.597
 1723POPC   C1B24403  10.130  41.524   8.810
 1723POPC   C2B24404  10.210  41.679   8.374
 1723POPC   C3B24405  10.231  41.829   7.938
 1723POPC   C4B24406  10.210  41.523   7.622
 1724POPC   NC324407  10.661  37.143   9.748
 1724POPC   PO424408  10.761  36.633   9.223
 1724POPC   GL124409  10.406  36.827   8.988
 1724POPC   GL224410  10.423  37.151   8.844
 1724POPC   C1A24411  10.300  36.729   8.566
 1724POPC   D2A24412  10.566  36.605   8.211
 1724POPC   C3A24413  10.374  36.643   7.808
 1724POPC   C4A24414  10.410  36.514   7.375
 1724POPC   C1B24415  10.770  36.959   8.626
 1724POPC   C2B24416  10.907  37.045   8.262
 1724POPC   C3B24417  10.754  37.012   7.894
 1724POPC   C4B24418  10.363  37.150   7.678
 1725POPC   NC324419  34.100  28.659   9.566
 1725POPC   PO424420  33.683  28.270   9.763
 1725POPC   GL124421  33.590  28.439   9.317
 1725POPC   GL224422  33.897  28.455   9.134
 1725POPC   C1A24423  33.489  28.317   8.859
 1725POPC   D2A24424  33.425  28.433   8.406
 1725POPC   C3A24425  33.611  28.548   8.036
 1725POPC   C4A24426  33.744  28.397   7.646
 1725POPC   C1B24427  33.994  28.263   8.733
 1725POPC   C2B24428  33.990  28.360   8.312
 1725POPC   C3B24429  34.133  28.261   7.925
 1725POPC   C4B24430  33.998  27.946   7.669
 1726POPC   NC324431  17.498  10.178   9.774
 1726POPC   PO424432  17.596  10.696   9.403
 1726POPC   GL124433  17.373  10.467   9.112
 1726POPC   GL224434  17.319  10.097   9.201
 1726POPC   C1A24435  17.312  10.636   8.708
 1726POPC   D2A24436  17.264  10.750   8.284
 1726POPC   C3A24437  17.607  10.761   8.010
 1726POPC   C4A24438  17.449  10.640   7.608
 1726POPC   C1B24439  17.506  10.094   8.768
 1726POPC   C2B24440  17.587  10.330   8.388
 1726POPC   C3B24441  17.382  10.293   8.007
 1726POPC   C4B24442  17.677  10.141   7.724
 1727POPC   NC324443  19.248  13.131   9.268
 1727POPC   PO424444  19.216  13.690   9.636
 1727POPC   GL124445  18.958  13.544   9.210
 1727POPC   GL224446  18.647  13.393   9.111
 1727POPC   C1A24447  18.969  13.323   8.727
 1727POPC   D2A24448  19.237  13.602   8.486
 1727POPC   C3A24449  19.241  13.386   8.122
 1727POPC   C4A24450  19.353  13.525   7.747
 1727POPC   C1B24451  18.767  13.766   8.807
 1727POPC   C2B24452  18.732  13.587   8.349
 1727POPC   C3B24453  18.829  13.618   7.904
 1727POPC   C4B24454  18.687  13.962   7.680
 1728POPC   NC324455  41.229   5.636   9.875
 1728POPC   PO424456  41.691   6.172   9.640
 1728POPC   GL124457  41.517   5.979   9.194
 1728POPC   GL224458  41.605   5.601   9.078
 1728POPC   C1A24459  41.443   5.940   8.759
 1728POPC   D2A24460  41.628   6.111   8.398
 1728POPC   C3A24461  41.519   5.911   8.013
 1728POPC   C4A24462  41.834   5.985   7.718
 1728POPC   C1B24463  41.506   5.424   8.679
 1728POPC   C2B24464  41.730   5.358   8.309
 1728POPC   C3B24465  41.737   5.457   7.860
 1728POPC   C4B24466  41.464   5.557   7.491
 1729POPC   NC324467   5.555   0.678   9.567
 1729POPC   PO424468   4.957   0.513   9.307
 1729POPC   GL124469   5.324   0.410   9.150
 1729POPC   GL224470   5.393   0.065   9.089
 1729POPC   C1A24471   5.298   0.439   8.726
 1729POPC   D2A24472   5.249   0.345   8.313
 1729POPC   C3A24473   5.045   0.684   8.131
 1729POPC   C4A24474   5.306   0.822   7.841
 1729POPC   C1B24475   5.158  44.961   8.674
 1729POPC   C2B24476   4.877  44.985   8.326
 1729POPC   C3B24477   4.936   0.184   7.924
 1729POPC   C4B24478   4.874   0.206   7.483
 1730POPC   NC324479  38.110  25.702   9.451
 1730POPC   PO424480  38.443  26.331   9.683
 1730POPC   GL124481  38.406  26.171   9.252
 1730POPC   GL224482  38.413  25.812   9.060
 1730POPC   C1A24483  38.649  26.257   8.907
 1730POPC   D2A24484  38.683  26.011   8.550
 1730POPC   C3A24485  38.572  26.167   8.141
 1730POPC   C4A24486  38.615  26.249   7.712
 1730POPC   C1B24487  38.156  26.017   8.786
 1730POPC   C2B24488  38.048  26.026   8.344
 1730POPC   C3B24489  38.094  26.251   7.971
 1730POPC   C4B24490  38.112  26.049   7.611
 1731POPC   NC324491  15.896  39.381  10.048
 1731POPC   PO424492  16.129  39.457   9.445
 1731POPC   GL124493  16.038  39.287   9.104
 1731POPC   GL224494  15.766  39.065   9.207
 1731POPC   C1A24495  16.190  39.354   8.683
 1731POPC   D2A24496  16.074  39.563   8.310
 1731POPC   C3A24497  16.002  39.342   7.930
 1731POPC   C4A24498  15.740  39.392   7.583
 1731POPC   C1B24499  15.904  38.922   8.793
 1731POPC   C2B24500  15.917  39.030   8.364
 1731POPC   C3B24501  15.886  38.812   7.988
 1731POPC   C4B24502  16.028  38.956   7.576
 1732POPC   NC324503  14.106  18.379   9.470
 1732POPC   PO424504  14.739  18.449   9.589
 1732POPC   GL124505  14.556  18.359   9.188
 1732POPC   GL224506  14.443  18.048   9.219
 1732POPC   C1A24507  14.283  18.322   8.809
 1732POPC   D2A24508  14.281  18.579   8.441
 1732POPC   C3A24509  14.278  18.365   8.054
 1732POPC   C4A24510  14.469  18.240   7.730
 1732POPC   C1B24511  14.580  17.869   8.802
 1732POPC   C2B24512  14.444  18.013   8.406
 1732POPC   C3B24513  14.297  17.851   8.022
 1732POPC   C4B24514  14.496  17.662   7.690
 1733POPC   NC324515  44.715   9.469   9.245
 1733POPC   PO424516  44.616   8.942   9.640
 1733POPC   GL124517  44.522   8.972   9.201
 1733POPC   GL224518  44.863   8.872   9.138
 1733POPC   C1A24519  44.376   9.137   8.781
 1733POPC   D2A24520  44.609   9.375   8.467
 1733POPC   C3A24521  44.555   9.205   8.056
 1733POPC   C4A24522  44.759   9.122   7.667
 1733POPC   C1B24523  44.726   8.674   8.808
 1733POPC   C2B24524  44.661   8.823   8.417
 1733POPC   C3B24525  44.896   8.802   8.048
 1733POPC   C4B24526  44.837   8.596   7.699
 1734POPC   NC324527  18.087   1.263   9.861
 1734POPC   PO424528  17.440   1.117   9.576
 1734POPC   GL124529  17.492   1.386   9.187
 1734POPC   GL224530  17.525   1.102   9.015
 1734POPC   C1A24531  17.631   1.537   8.725
 1734POPC   D2A24532  17.664   1.807   8.342
 1734POPC   C3A24533  17.521   1.631   7.938
 1734POPC   C4A24534  17.552   1.563   7.465
 1734POPC   C1B24535  17.397   1.061   8.605
 1734POPC   C2B24536  17.596   1.247   8.278
 1734POPC   C3B24537  17.563   1.125   7.894
 1734POPC   C4B24538  17.225   0.863   7.751
 1735POPC   NC324539  10.351  34.017   9.663
 1735POPC   PO424540  10.863  33.856   9.274
 1735POPC   GL124541  10.488  33.848   9.025
 1735POPC   GL224542  10.190  34.011   9.165
 1735POPC   C1A24543  10.488  33.894   8.582
 1735POPC   D2A24544  10.787  33.772   8.268
 1735POPC   C3A24545  10.544  33.810   7.945
 1735POPC   C4A24546  10.635  34.145   7.685
 1735POPC   C1B24547   9.989  33.992   8.748
 1735POPC   C2B24548  10.025  33.964   8.286
 1735POPC   C3B24549  10.091  34.013   7.822
 1735POPC   C4B24550  10.105  33.954   7.336
 1736POPC   NC324551  27.178  42.127   9.737
 1736POPC   PO424552  26.900  42.693   9.921
 1736POPC   GL124553  26.909  42.496   9.455
 1736POPC   GL224554  27.244  42.423   9.304
 1736POPC   C1A24555  26.849  42.411   8.969
 1736POPC   D2A24556  26.893  42.516   8.520
 1736POPC   C3A24557  26.639  42.427   8.170
 1736POPC   C4A24558  26.793  42.509   7.769
 1736POPC   C1B24559  27.168  42.028   9.030
 1736POPC   C2B24560  27.117  42.046   8.556
 1736POPC   C3B24561  27.084  42.145   8.101
 1736POPC   C4B24562  26.935  42.027   7.682
 1737POPC   NC324563  44.416  34.607   9.372
 1737POPC   PO424564  43.758  34.821   9.398
 1737POPC   GL124565  43.691  34.585   9.030
 1737POPC   GL224566  44.008  34.481   9.087
 1737POPC   C1A24567  43.710  34.470   8.644
 1737POPC   D2A24568  44.052  34.732   8.466
 1737POPC   C3A24569  44.030  34.753   8.024
 1737POPC   C4A24570  43.887  34.387   7.807
 1737POPC   C1B24571  44.169  34.262   8.728
 1737POPC   C2B24572  44.376  34.154   8.312
 1737POPC   C3B24573  44.391  34.398   7.922
 1737POPC   C4B24574  44.276  34.385   7.486
 1738POPC   NC324575  42.466  20.610   9.792
 1738POPC   PO424576  42.117  20.012   9.720
 1738POPC   GL124577  42.584  20.282   9.438
 1738POPC   GL224578  42.450  20.671   9.284
 1738POPC   C1A24579  42.742  20.445   8.963
 1738POPC   D2A24580  42.493  20.536   8.580
 1738POPC   C3A24581  42.616  20.362   8.181
 1738POPC   C4A24582  42.372  20.327   7.801
 1738POPC   C1B24583  42.370  20.954   8.883
 1738POPC   C2B24584  42.237  20.981   8.440
 1738POPC   C3B24585  42.335  20.789   8.059
 1738POPC   C4B24586  42.124  20.871   7.668
 1739POPC   NC324587  42.597   5.382   9.844
 1739POPC   PO424588  43.075   5.083   9.466
 1739POPC   GL124589  43.270   5.057   9.143
 1739POPC   GL224590  43.490   4.797   9.176
 1739POPC   C1A24591  43.150   5.287   8.816
 1739POPC   D2A24592  42.822   5.229   8.528
 1739POPC   C3A24593  42.887   5.412   8.141
 1739POPC   C4A24594  42.912   5.306   7.710
 1739POPC   C1B24595  43.605   4.997   8.776
 1739POPC   C2B24596  43.381   5.087   8.416
 1739POPC   C3B24597  43.327   5.185   8.035
 1739POPC   C4B24598  43.361   5.035   7.661
 1740POPC   NC324599  15.383   3.027   9.433
 1740POPC   PO424600  15.151   2.403   9.627
 1740POPC   GL124601  15.149   2.570   9.222
 1740POPC   GL224602  15.088   2.235   9.118
 1740POPC   C1A24603  15.071   2.775   8.817
 1740POPC   D2A24604  15.058   3.072   8.455
 1740POPC   C3A24605  15.183   2.973   8.028
 1740POPC   C4A24606  14.974   2.767   7.672
 1740POPC   C1B24607  15.242   2.270   8.697
 1740POPC   C2B24608  15.230   2.521   8.327
 1740POPC   C3B24609  15.429   2.542   7.929
 1740POPC   C4B24610  15.622   2.536   7.523
 1741POPC   NC324611   7.196  24.269   9.347
 1741POPC   PO424612   7.728  24.582   9.480
 1741POPC   GL124613   7.632  24.475   9.075
 1741POPC   GL224614   7.568  24.133   8.996
 1741POPC   C1A24615   7.569  24.626   8.659
 1741POPC   D2A24616   7.367  24.540   8.280
 1741POPC   C3A24617   7.629  24.689   7.978
 1741POPC   C4A24618   7.907  24.452   7.771
 1741POPC   C1B24619   7.187  24.275   8.710
 1741POPC   C2B24620   7.077  24.083   8.300
 1741POPC   C3B24621   7.085  24.293   7.916
 1741POPC   C4B24622   7.146  24.727   7.828
 1742POPC   NC324623  34.736  12.872   9.588
 1742POPC   PO424624  34.269  13.374   9.550
 1742POPC   GL124625  34.339  13.090   9.207
 1742POPC   GL224626  34.242  12.765   9.313
 1742POPC   C1A24627  34.335  13.192   8.763
 1742POPC   D2A24628  34.640  13.399   8.495
 1742POPC   C3A24629  34.613  13.333   8.030
 1742POPC   C4A24630  34.465  12.997   7.764
 1742POPC   C1B24631  34.197  12.697   8.859
 1742POPC   C2B24632  34.345  12.775   8.422
 1742POPC   C3B24633  34.353  12.575   8.016
 1742POPC   C4B24634  34.202  12.549   7.573
 1743POPC   NC324635  33.121  19.931   9.434
 1743POPC   PO424636  32.731  19.364   9.413
 1743POPC   GL124637  32.993  19.568   9.078
 1743POPC   GL224638  33.370  19.702   9.043
 1743POPC   C1A24639  33.051  19.707   8.661
 1743POPC   D2A24640  32.806  20.034   8.485
 1743POPC   C3A24641  32.596  19.984   8.114
 1743POPC   C4A24642  32.750  20.166   7.767
 1743POPC   C1B24643  33.370  20.115   8.861
 1743POPC   C2B24644  33.361  20.078   8.461
 1743POPC   C3B24645  33.205  19.804   8.163
 1743POPC   C4B24646  33.200  19.886   7.744
 1744POPC   NC324647  31.126  40.827   9.642
 1744POPC   PO424648  31.838  40.704   9.539
 1744POPC   GL124649  31.519  40.774   9.239
 1744POPC   GL224650  31.479  41.155   9.225
 1744POPC   C1A24651  31.234  40.865   8.875
 1744POPC   D2A24652  31.168  41.137   8.480
 1744POPC   C3A24653  31.352  41.036   8.026
 1744POPC   C4A24654  31.306  41.007   7.558
 1744POPC   C1B24655  31.705  41.020   8.820
 1744POPC   C2B24656  31.582  40.816   8.445
 1744POPC   C3B24657  31.758  40.578   8.101
 1744POPC   C4B24658  31.381  40.544   7.866
 1745POPC   NC324659  12.764  28.587   9.578
 1745POPC   PO424660  13.164  28.083   9.600
 1745POPC   GL124661  13.014  28.334   9.216
 1745POPC   GL224662  13.107  28.709   9.212
 1745POPC   C1A24663  12.686  28.406   8.854
 1745POPC   D2A24664  12.629  28.350   8.376
 1745POPC   C3A24665  12.656  28.200   7.925
 1745POPC   C4A24666  12.544  28.485   7.569
 1745POPC   C1B24667  13.172  28.572   8.805
 1745POPC   C2B24668  13.084  28.594   8.402
 1745POPC   C3B24669  13.134  28.346   8.068
 1745POPC   C4B24670  13.164  28.556   7.733
 1746POPC   NC324671  33.600  32.112   9.482
 1746POPC   PO424672  33.743  32.751   9.447
 1746POPC   GL124673  33.591  32.448   9.076
 1746POPC   GL224674  33.375  32.140   9.040
 1746POPC   C1A24675  33.503  32.437   8.615
 1746POPC   D2A24676  33.740  32.534   8.211
 1746POPC   C3A24677  33.954  32.244   7.882
 1746POPC   C4A24678  34.216  32.354   7.504
 1746POPC   C1B24679  33.661  31.942   8.736
 1746POPC   C2B24680  33.744  32.021   8.305
 1746POPC   C3B24681  33.683  31.799   7.909
 1746POPC   C4B24682  33.742  31.803   7.458
 1747POPC   NC324683  29.830  39.730   9.674
 1747POPC   PO424684  30.160  40.313   9.430
 1747POPC   GL124685  30.014  40.015   9.075
 1747POPC   GL224686  29.683  39.929   8.997
 1747POPC   C1A24687  30.056  39.976   8.634
 1747POPC   D2A24688  30.172  40.210   8.265
 1747POPC   C3A24689  30.037  40.058   7.872
 1747POPC   C4A24690  29.958  39.710   7.610
 1747POPC   C1B24691  29.655  39.645   8.647
 1747POPC   C2B24692  29.763  39.807   8.252
 1747POPC   C3B24693  29.539  39.933   7.929
 1747POPC   C4B24694  29.434  39.675   7.615
 1748POPC   NC324695  22.250  24.430   9.346
 1748POPC   PO424696  21.720  24.683   9.539
 1748POPC   GL124697  21.928  24.755   9.137
 1748POPC   GL224698  21.903  25.112   9.144
 1748POPC   C1A24699  22.207  24.576   8.737
 1748POPC   D2A24700  22.295  24.376   8.328
 1748POPC   C3A24701  22.302  24.564   7.895
 1748POPC   C4A24702  22.319  24.339   7.473
 1748POPC   C1B24703  21.845  24.951   8.693
 1748POPC   C2B24704  22.088  24.866   8.327
 1748POPC   C3B24705  21.976  25.031   7.953
 1748POPC   C4B24706  21.587  24.908   7.777
 1749POPC   NC324707  25.345  40.644   9.528
 1749POPC   PO424708  24.885  41.154   9.530
 1749POPC   GL124709  25.163  40.999   9.213
 1749POPC   GL224710  25.512  41.094   9.328
 1749POPC   C1A24711  25.297  40.718   8.867
 1749POPC   D2A24712  25.199  40.949   8.493
 1749POPC   C3A24713  25.120  40.726   8.140
 1749POPC   C4A24714  25.341  40.599   7.804
 1749POPC   C1B24715  25.549  41.142   8.893
 1749POPC   C2B24716  25.682  41.089   8.469
 1749POPC   C3B24717  25.514  41.035   8.059
 1749POPC   C4B24718  25.679  40.979   7.658
 1750POPC   NC324719   9.226  40.745   9.392
 1750POPC   PO424720   8.788  41.179   9.592
 1750POPC   GL124721   8.909  41.033   9.153
 1750POPC   GL224722   8.740  40.757   9.185
 1750POPC   C1A24723   9.039  40.965   8.734
 1750POPC   D2A24724   9.340  40.797   8.429
 1750POPC   C3A24725   9.207  40.951   8.023
 1750POPC   C4A24726   8.997  40.792   7.683
 1750POPC   C1B24727   8.697  40.441   8.875
 1750POPC   C2B24728   8.606  40.393   8.461
 1750POPC   C3B24729   8.789  40.549   8.110
 1750POPC   C4B24730   8.685  40.396   7.737
 1751POPC   NC324731  17.508  20.322   9.493
 1751POPC   PO424732  16.997  20.742   9.519
 1751POPC   GL124733  17.255  20.784   9.124
 1751POPC   GL224734  17.503  20.524   9.044
 1751POPC   C1A24735  17.378  20.827   8.672
 1751POPC   D2A24736  17.468  20.547   8.348
 1751POPC   C3A24737  17.225  20.607   8.002
 1751POPC   C4A24738  17.275  20.541   7.583
 1751POPC   C1B24739  17.792  20.392   8.714
 1751POPC   C2B24740  17.998  20.579   8.360
 1751POPC   C3B24741  17.787  20.699   7.960
 1751POPC   C4B24742  17.821  20.478   7.566
 1752POPC   NC324743  36.347   3.629   9.649
 1752POPC   PO424744  35.892   3.169   9.809
 1752POPC   GL124745  35.928   3.606   9.339
 1752POPC   GL224746  36.291   3.645   9.155
 1752POPC   C1A24747  35.929   3.767   8.874
 1752POPC   D2A24748  36.192   3.718   8.502
 1752POPC   C3A24749  36.061   3.820   8.103
 1752POPC   C4A24750  35.847   3.694   7.764
 1752POPC   C1B24751  36.384   3.350   8.793
 1752POPC   C2B24752  36.258   3.188   8.388
 1752POPC   C3B24753  36.290   3.372   7.965
 1752POPC   C4B24754  36.102   3.289   7.586
 1753POPC   NC324755  32.697  20.886   9.584
 1753POPC   PO424756  32.736  20.236   9.404
 1753POPC   GL124757  32.832  20.620   9.157
 1753POPC   GL224758  32.482  20.787   9.142
 1753POPC   C1A24759  33.268  20.632   8.962
 1753POPC   D2A24760  33.404  20.593   8.533
 1753POPC   C3A24761  33.085  20.403   8.214
 1753POPC   C4A24762  33.176  20.440   7.794
 1753POPC   C1B24763  32.504  20.735   8.717
 1753POPC   C2B24764  32.558  20.523   8.314
 1753POPC   C3B24765  32.746  20.703   7.956
 1753POPC   C4B24766  32.800  20.615   7.497
 1754POPC   NC324767  44.206  14.611   9.822
 1754POPC   PO424768  43.664  14.264   9.476
 1754POPC   GL124769  43.699  14.367   9.049
 1754POPC   GL224770  43.714  14.693   9.069
 1754POPC   C1A24771  44.013  14.513   8.714
 1754POPC   D2A24772  44.355  14.307   8.495
 1754POPC   C3A24773  44.179  14.290   8.092
 1754POPC   C4A24774  43.987  14.408   7.731
 1754POPC   C1B24775  43.456  14.678   8.726
 1754POPC   C2B24776  43.651  14.612   8.342
 1754POPC   C3B24777  43.543  14.698   7.942
 1754POPC   C4B24778  43.459  14.325   7.734
 1755POPC   NC324779  14.858   2.016   9.603
 1755POPC   PO424780  15.490   1.677   9.628
 1755POPC   GL124781  15.366   1.790   9.236
 1755POPC   GL224782  15.028   1.738   9.231
 1755POPC   C1A24783  15.331   1.751   8.784
 1755POPC   D2A24784  15.389   1.686   8.340
 1755POPC   C3A24785  15.297   2.034   8.055
 1755POPC   C4A24786  15.604   2.070   7.714
 1755POPC   C1B24787  14.835   1.805   8.878
 1755POPC   C2B24788  14.912   1.827   8.467
 1755POPC   C3B24789  14.944   1.619   8.068
 1755POPC   C4B24790  14.905   1.885   7.715
 1756POPC   NC324791  15.645  34.275   9.614
 1756POPC   PO424792  15.806  33.594   9.604
 1756POPC   GL124793  16.020  33.643   9.223
 1756POPC   GL224794  15.756  33.870   9.143
 1756POPC   C1A24795  16.015  33.447   8.804
 1756POPC   D2A24796  16.195  33.349   8.394
 1756POPC   C3A24797  15.914  33.489   8.077
 1756POPC   C4A24798  15.839  33.802   7.771
 1756POPC   C1B24799  15.774  34.042   8.725
 1756POPC   C2B24800  15.736  33.965   8.268
 1756POPC   C3B24801  15.719  34.262   7.921
 1756POPC   C4B24802  15.760  34.231   7.454
 1757POPC   NC324803  33.509  31.278   9.475
 1757POPC   PO424804  33.893  31.763   9.397
 1757POPC   GL124805  33.733  31.496   9.080
 1757POPC   GL224806  33.878  31.155   9.016
 1757POPC   C1A24807  33.553  31.432   8.710
 1757POPC   D2A24808  33.497  31.568   8.340
 1757POPC   C3A24809  33.726  31.307   8.050
 1757POPC   C4A24810  33.571  31.364   7.659
 1757POPC   C1B24811  34.059  31.459   8.683
 1757POPC   C2B24812  34.045  31.617   8.283
 1757POPC   C3B24813  34.187  31.689   7.875
 1757POPC   C4B24814  34.058  31.426   7.530
 1758POPC   NC324815  20.818  26.540   9.519
 1758POPC   PO424816  20.395  27.071   9.623
 1758POPC   GL124817  20.429  26.823   9.213
 1758POPC   GL224818  20.795  26.815   9.101
 1758POPC   C1A24819  20.333  26.702   8.760
 1758POPC   D2A24820  20.592  26.833   8.394
 1758POPC   C3A24821  20.418  26.867   7.990
 1758POPC   C4A24822  20.465  26.761   7.547
 1758POPC   C1B24823  20.817  26.549   8.762
 1758POPC   C2B24824  20.923  26.442   8.342
 1758POPC   C3B24825  20.755  26.474   7.935
 1758POPC   C4B24826  20.932  26.508   7.522
 1759POPC   NC324827  29.662  36.214   9.563
 1759POPC   PO424828  30.242  35.834   9.439
 1759POPC   GL124829  29.996  36.091   9.193
 1759POPC   GL224830  30.244  36.049   8.947
 1759POPC   C1A24831  29.770  36.305   8.870
 1759POPC   D2A24832  29.920  36.229   8.453
 1759POPC   C3A24833  29.727  36.340   8.069
 1759POPC   C4A24834  29.801  36.150   7.699
 1759POPC   C1B24835  30.258  36.456   8.746
 1759POPC   C2B24836  30.367  36.595   8.305
 1759POPC   C3B24837  30.220  36.517   7.872
 1759POPC   C4B24838  30.194  36.437   7.420
 1760POPC   NC324839  14.547   6.282   9.588
 1760POPC   PO424840  14.561   6.942   9.532
 1760POPC   GL124841  14.287   6.681   9.228
 1760POPC   GL224842  14.370   6.337   9.107
 1760POPC   C1A24843  14.314   6.701   8.760
 1760POPC   D2A24844  14.445   6.901   8.356
 1760POPC   C3A24845  14.355   6.713   7.927
 1760POPC   C4A24846  14.057   6.387   7.824
 1760POPC   C1B24847  14.524   6.227   8.730
 1760POPC   C2B24848  14.384   6.376   8.356
 1760POPC   C3B24849  14.496   6.226   8.014
 1760POPC   C4B24850  14.736   6.397   7.755
 1761POPC   NC324851   1.657  41.223   9.772
 1761POPC   PO424852   1.986  41.769   9.461
 1761POPC   GL124853   1.850  41.383   9.221
 1761POPC   GL224854   1.913  41.632   8.970
 1761POPC   C1A24855   1.867  41.194   8.768
 1761POPC   D2A24856   1.965  41.503   8.449
 1761POPC   C3A24857   1.930  41.279   8.086
 1761POPC   C4A24858   1.903  41.152   7.688
 1761POPC   C1B24859   2.214  41.887   8.754
 1761POPC   C2B24860   2.322  42.003   8.364
 1761POPC   C3B24861   2.078  41.890   8.056
 1761POPC   C4B24862   2.006  41.654   7.741
 1762POPC   NC324863  39.935  12.592   9.552
 1762POPC   PO424864  39.924  13.247   9.330
 1762POPC   GL124865  39.962  12.865   9.091
 1762POPC   GL224866  40.236  12.623   9.069
 1762POPC   C1A24867  39.955  12.804   8.634
 1762POPC   D2A24868  40.041  13.144   8.366
 1762POPC   C3A24869  39.776  13.215   8.046
 1762POPC   C4A24870  39.780  12.935   7.708
 1762POPC   C1B24871  40.400  12.913   8.808
 1762POPC   C2B24872  40.481  12.907   8.427
 1762POPC   C3B24873  40.269  12.801   8.049
 1762POPC   C4B24874  40.275  12.804   7.636
 1763POPC   NC324875  14.953  24.441   9.551
 1763POPC   PO424876  15.515  24.136   9.476
 1763POPC   GL124877  15.311  24.343   9.147
 1763POPC   GL224878  15.454  24.624   9.140
 1763POPC   C1A24879  15.238  24.399   8.698
 1763POPC   D2A24880  15.421  24.280   8.315
 1763POPC   C3A24881  15.227  24.246   7.880
 1763POPC   C4A24882  14.858  24.441   7.745
 1763POPC   C1B24883  15.119  24.844   8.928
 1763POPC   C2B24884  15.154  24.948   8.491
 1763POPC   C3B24885  15.169  24.710   8.126
 1763POPC   C4B24886  15.260  24.780   7.726
 1764POPC   NC324887  25.239   2.211   9.460
 1764POPC   PO424888  24.791   1.703   9.438
 1764POPC   GL124889  25.020   1.904   9.115
 1764POPC   GL224890  25.387   1.815   9.174
 1764POPC   C1A24891  25.148   2.221   8.795
 1764POPC   D2A24892  25.293   2.025   8.426
 1764POPC   C3A24893  25.037   2.003   8.057
 1764POPC   C4A24894  24.999   1.997   7.599
 1764POPC   C1B24895  25.637   2.114   8.927
 1764POPC   C2B24896  25.735   2.318   8.548
 1764POPC   C3B24897  25.695   2.147   8.139
 1764POPC   C4B24898  25.479   1.960   7.780
 1765POPC   NC324899  21.283  25.921   9.633
 1765POPC   PO424900  21.830  26.242   9.455
 1765POPC   GL124901  21.413  26.319   9.239
 1765POPC   GL224902  21.283  25.995   9.135
 1765POPC   C1A24903  21.295  26.367   8.786
 1765POPC   D2A24904  21.364  26.192   8.371
 1765POPC   C3A24905  21.288  26.397   7.969
 1765POPC   C4A24906  21.414  26.269   7.577
 1765POPC   C1B24907  21.301  25.766   8.768
 1765POPC   C2B24908  21.239  25.705   8.338
 1765POPC   C3B24909  21.328  25.860   7.929
 1765POPC   C4B24910  21.236  25.814   7.461
 1766POPC   NC324911  29.961  20.938   9.527
 1766POPC   PO424912  29.802  20.277   9.666
 1766POPC   GL124913  29.935  20.479   9.198
 1766POPC   GL224914  30.107  20.792   9.074
 1766POPC   C1A24915  29.705  20.651   8.763
 1766POPC   D2A24916  29.821  20.816   8.383
 1766POPC   C3A24917  29.590  20.750   8.002
 1766POPC   C4A24918  29.783  20.837   7.624
 1766POPC   C1B24919  30.200  20.515   8.750
 1766POPC   C2B24920  30.115  20.392   8.332
 1766POPC   C3B24921  30.074  20.578   7.946
 1766POPC   C4B24922  30.109  20.427   7.495
 1767POPC   NC324923  13.806  14.229   9.531
 1767POPC   PO424924  13.378  14.779   9.511
 1767POPC   GL124925  13.565  14.543   9.158
 1767POPC   GL224926  13.446  14.208   9.126
 1767POPC   C1A24927  13.801  14.472   8.734
 1767POPC   D2A24928  13.821  14.247   8.297
 1767POPC   C3A24929  13.883  14.575   7.960
 1767POPC   C4A24930  13.807  14.617   7.517
 1767POPC   C1B24931  13.575  14.015   8.725
 1767POPC   C2B24932  13.413  13.917   8.341
 1767POPC   C3B24933  13.427  14.018   7.915
 1767POPC   C4B24934  13.566  14.123   7.487
 1768POPC   NC324935  37.053  37.271   9.403
 1768POPC   PO424936  36.804  36.614   9.360
 1768POPC   GL124937  37.128  36.724   9.056
 1768POPC   GL224938  37.082  37.028   8.978
 1768POPC   C1A24939  37.092  36.741   8.569
 1768POPC   D2A24940  36.709  36.573   8.377
 1768POPC   C3A24941  36.753  36.423   7.966
 1768POPC   C4A24942  37.014  36.566   7.618
 1768POPC   C1B24943  36.712  37.068   8.727
 1768POPC   C2B24944  36.663  37.079   8.316
 1768POPC   C3B24945  36.971  36.897   8.057
 1768POPC   C4B24946  36.848  37.050   7.714
 1769POPC   NC324947  25.814  40.410   9.917
 1769POPC   PO424948  26.358  40.257   9.539
 1769POPC   GL124949  26.261  40.128   9.128
 1769POPC   GL224950  25.958  40.274   9.026
 1769POPC   C1A24951  26.384  40.286   8.735
 1769POPC   D2A24952  26.063  40.401   8.457
 1769POPC   C3A24953  25.919  40.076   8.198
 1769POPC   C4A24954  26.004  40.042   7.772
 1769POPC   C1B24955  25.972  39.959   8.711
 1769POPC   C2B24956  26.165  39.679   8.436
 1769POPC   C3B24957  26.263  39.641   7.994
 1769POPC   C4B24958  26.420  39.795   7.615
 1770POPC   NC324959  16.460   4.447   9.501
 1770POPC   PO424960  17.041   4.571   9.185
 1770POPC   GL124961  16.818   4.190   9.030
 1770POPC   GL224962  17.132   3.983   9.046
 1770POPC   C1A24963  16.502   4.221   8.705
 1770POPC   D2A24964  16.546   4.537   8.396
 1770POPC   C3A24965  16.440   4.390   7.979
 1770POPC   C4A24966  16.607   4.494   7.598
 1770POPC   C1B24967  16.982   3.882   8.631
 1770POPC   C2B24968  16.804   4.103   8.272
 1770POPC   C3B24969  16.879   4.092   7.818
 1770POPC   C4B24970  17.067   3.973   7.390
 1771POPC   NC324971  17.044  34.708   9.639
 1771POPC   PO424972  16.589  34.212   9.542
 1771POPC   GL124973  16.767  34.388   9.170
 1771POPC   GL224974  16.982  34.156   9.066
 1771POPC   C1A24975  16.820  34.605   8.758
 1771POPC   D2A24976  16.804  34.853   8.394
 1771POPC   C3A24977  16.751  34.632   8.011
 1771POPC   C4A24978  16.400  34.802   7.794
 1771POPC   C1B24979  16.772  34.090   8.693
 1771POPC   C2B24980  16.695  34.160   8.268
 1771POPC   C3B24981  16.677  34.147   7.847
 1771POPC   C4B24982  16.983  34.336   7.611
 1772POPC   NC324983  41.092  32.194   9.604
 1772POPC   PO424984  40.587  31.909   9.392
 1772POPC   GL124985  40.717  32.082   9.010
 1772POPC   GL224986  41.073  32.067   9.085
 1772POPC   C1A24987  40.519  32.348   8.667
 1772POPC   D2A24988  40.706  32.550   8.309
 1772POPC   C3A24989  40.812  32.238   8.031
 1772POPC   C4A24990  40.690  32.087   7.667
 1772POPC   C1B24991  41.187  32.392   8.805
 1772POPC   C2B24992  41.266  32.370   8.377
 1772POPC   C3B24993  41.164  32.609   8.056
 1772POPC   C4B24994  40.874  32.620   7.707
 1773POPC   NC324995  27.233  10.206   9.355
 1773POPC   PO424996  27.625  10.821   9.513
 1773POPC   GL124997  27.611  10.530   9.162
 1773POPC   GL224998  27.300  10.674   9.121
 1773POPC   C1A24999  27.761  10.229   8.814
 1773POPC   D2A25000  27.694  10.222   8.331
 1773POPC   C3A25001  27.645  10.520   7.972
 1773POPC   C4A25002  27.814  10.662   7.561
 1773POPC   C1B25003  27.313  10.454   8.732
 1773POPC   C2B25004  27.326  10.650   8.355
 1773POPC   C3B25005  27.276  10.865   8.003
 1773POPC   C4B25006  27.291  10.648   7.613
 1774POPC   NC325007  40.391  16.580   9.532
 1774POPC   PO425008  40.869  17.084   9.572
 1774POPC   GL125009  40.918  16.807   9.222
 1774POPC   GL225010  41.185  16.989   9.059
 1774POPC   C1A25011  40.678  16.575   8.871
 1774POPC   D2A25012  40.497  16.719   8.468
 1774POPC   C3A25013  40.413  16.548   8.068
 1774POPC   C4A25014  40.594  16.733   7.709
 1774POPC   C1B25015  41.192  16.573   8.848
 1774POPC   C2B25016  40.996  16.459   8.468
 1774POPC   C3B25017  40.913  16.747   8.142
 1774POPC   C4B25018  41.092  16.645   7.771
 1775POPC   NC325019  29.656   4.165   9.472
 1775POPC   PO425020  28.947   4.053   9.357
 1775POPC   GL125021  29.209   4.386   9.196
 1775POPC   GL225022  29.389   4.135   9.018
 1775POPC   C1A25023  29.132   4.530   8.769
 1775POPC   D2A25024  29.003   4.324   8.357
 1775POPC   C3A25025  29.227   4.405   7.963
 1775POPC   C4A25026  29.162   4.665   7.611
 1775POPC   C1B25027  29.132   3.877   8.721
 1775POPC   C2B25028  28.962   3.777   8.291
 1775POPC   C3B25029  28.882   4.022   7.918
 1775POPC   C4B25030  29.055   4.176   7.493
 1776POPC   NC325031  41.314  39.782   9.377
 1776POPC   PO425032  41.912  39.680   9.697
 1776POPC   GL125033  41.828  40.000   9.271
 1776POPC   GL225034  41.515  40.218   9.200
 1776POPC   C1A25035  41.827  39.939   8.790
 1776POPC   D2A25036  41.707  39.738   8.389
 1776POPC   C3A25037  41.818  39.991   8.020
 1776POPC   C4A25038  41.917  39.772   7.621
 1776POPC   C1B25039  41.360  40.090   8.800
 1776POPC   C2B25040  41.416  40.173   8.378
 1776POPC   C3B25041  41.322  40.102   7.939
 1776POPC   C4B25042  41.447  39.701   7.826
 1777POPC   NC325043  13.851  20.832   9.473
 1777POPC   PO425044  13.417  20.341   9.398
 1777POPC   GL125045  13.505  20.672   9.133
 1777POPC   GL225046  13.836  20.548   9.025
 1777POPC   C1A25047  13.538  20.788   8.709
 1777POPC   D2A25048  13.675  20.676   8.311
 1777POPC   C3A25049  13.385  20.971   8.139
 1777POPC   C4A25050  13.334  21.092   7.734
 1777POPC   C1B25051  14.008  20.303   8.674
 1777POPC   C2B25052  14.000  20.266   8.220
 1777POPC   C3B25053  13.939  20.504   7.895
 1777POPC   C4B25054  13.541  20.614   7.798
 1778POPC   NC325055   1.472  18.765   9.383
 1778POPC   PO425056   0.879  19.024   9.663
 1778POPC   GL125057   1.013  18.991   9.228
 1778POPC   GL225058   1.075  19.332   9.130
 1778POPC   C1A25059   1.019  18.765   8.819
 1778POPC   D2A25060   1.256  18.738   8.431
 1778POPC   C3A25061   1.101  18.840   7.990
 1778POPC   C4A25062   1.362  18.801   7.569
 1778POPC   C1B25063   1.197  19.225   8.723
 1778POPC   C2B25064   1.462  19.211   8.373
 1778POPC   C3B25065   1.417  19.225   7.954
 1778POPC   C4B25066   1.099  19.210   7.639
 1779POPC   NC325067   2.408  40.724   9.340
 1779POPC   PO425068   1.709  40.834   9.526
 1779POPC   GL125069   1.961  40.858   9.136
 1779POPC   GL225070   2.017  40.511   9.061
 1779POPC   C1A25071   2.240  40.831   8.716
 1779POPC   D2A25072   2.296  40.990   8.286
 1779POPC   C3A25073   2.057  40.753   7.964
 1779POPC   C4A25074   2.146  40.713   7.504
 1779POPC   C1B25075   1.736  40.658   8.724
 1779POPC   C2B25076   1.653  40.769   8.310
 1779POPC   C3B25077   1.582  40.552   7.937
 1779POPC   C4B25078   1.663  40.719   7.579
 1780POPC   NC325079  21.264  18.560   9.394
 1780POPC   PO425080  21.784  18.151   9.307
 1780POPC   GL125081  21.476  18.229   9.011
 1780POPC   GL225082  21.490  18.571   8.945
 1780POPC   C1A25083  21.355  18.258   8.556
 1780POPC   D2A25084  20.997  18.178   8.325
 1780POPC   C3A25085  21.182  18.004   7.962
 1780POPC   C4A25086  21.596  18.167   7.810
 1780POPC   C1B25087  21.044  18.583   8.780
 1780POPC   C2B25088  21.019  18.700   8.352
 1780POPC   C3B25089  21.308  18.518   8.069
 1780POPC   C4B25090  21.473  18.666   7.690
 1781POPC   NC325091   8.752  15.892   9.808
 1781POPC   PO425092   8.214  16.158   9.315
 1781POPC   GL125093   8.056  15.946   9.090
 1781POPC   GL225094   7.782  16.166   9.039
 1781POPC   C1A25095   8.273  15.766   8.751
 1781POPC   D2A25096   8.388  15.994   8.388
 1781POPC   C3A25097   8.271  15.808   8.000
 1781POPC   C4A25098   8.306  15.934   7.588
 1781POPC   C1B25099   8.000  16.205   8.666
 1781POPC   C2B25100   8.001  16.414   8.325
 1781POPC   C3B25101   7.930  16.185   8.003
 1781POPC   C4B25102   7.930  16.287   7.614
 1782POPC   NC325103  39.432  21.177   9.544
 1782POPC   PO425104  38.984  21.668   9.760
 1782POPC   GL125105  39.254  21.616   9.275
 1782POPC   GL225106  39.573  21.604   9.094
 1782POPC   C1A25107  39.212  21.451   8.793
 1782POPC   D2A25108  39.005  21.578   8.419
 1782POPC   C3A25109  39.141  21.351   8.077
 1782POPC   C4A25110  39.102  21.345   7.642
 1782POPC   C1B25111  39.642  21.717   8.677
 1782POPC   C2B25112  39.582  21.519   8.306
 1782POPC   C3B25113  39.512  21.641   7.886
 1782POPC   C4B25114  39.614  21.359   7.601
 1783POPC   NC325115  35.602  43.492   9.420
 1783POPC   PO425116  35.058  43.916   9.512
 1783POPC   GL125117  35.245  43.781   9.168
 1783POPC   GL225118  35.514  44.011   9.307
 1783POPC   C1A25119  35.330  43.609   8.742
 1783POPC   D2A25120  35.213  43.732   8.314
 1783POPC   C3A25121  35.401  43.673   7.933
 1783POPC   C4A25122  35.205  43.857   7.607
 1783POPC   C1B25123  35.533  44.069   8.876
 1783POPC   C2B25124  35.587  44.043   8.452
 1783POPC   C3B25125  35.528  44.194   8.051
 1783POPC   C4B25126  35.663  44.064   7.649
 1784POPC   NC325127   4.929   8.973   9.452
 1784POPC   PO425128   5.539   8.668   9.686
 1784POPC   GL125129   5.417   8.639   9.234
 1784POPC   GL225130   5.370   8.988   9.147
 1784POPC   C1A25131   5.196   8.612   8.830
 1784POPC   D2A25132   4.932   8.841   8.563
 1784POPC   C3A25133   4.976   8.734   8.158
 1784POPC   C4A25134   5.203   8.976   7.866
 1784POPC   C1B25135   5.361   9.202   8.743
 1784POPC   C2B25136   5.301   9.355   8.321
 1784POPC   C3B25137   5.348   9.461   7.905
 1784POPC   C4B25138   5.098   9.339   7.535
 1785POPC   NC325139  43.954  32.947   9.510
 1785POPC   PO425140  44.257  33.447   9.306
 1785POPC   GL125141  43.903  33.281   9.055
 1785POPC   GL225142  43.734  32.945   9.060
 1785POPC   C1A25143  43.533  33.358   8.824
 1785POPC   D2A25144  43.415  33.241   8.454
 1785POPC   C3A25145  43.696  33.167   8.136
 1785POPC   C4A25146  43.641  33.272   7.708
 1785POPC   C1B25147  43.799  32.927   8.640
 1785POPC   C2B25148  43.911  32.592   8.375
 1785POPC   C3B25149  44.074  32.631   8.022
 1785POPC   C4B25150  44.068  32.995   7.781
 1786POPC   NC325151   9.449  29.702   9.536
 1786POPC   PO425152  10.078  29.910   9.565
 1786POPC   GL125153   9.951  29.810   9.128
 1786POPC   GL225154   9.615  29.922   9.092
 1786POPC   C1A25155   9.915  29.927   8.668
 1786POPC   D2A25156  10.284  30.015   8.427
 1786POPC   C3A25157  10.259  30.290   8.076
 1786POPC   C4A25158   9.963  30.293   7.715
 1786POPC   C1B25159   9.406  30.241   8.821
 1786POPC   C2B25160   9.472  30.310   8.417
 1786POPC   C3B25161   9.752  30.066   8.148
 1786POPC   C4B25162   9.725  29.686   7.914
 1787POPC   NC325163  20.697   6.475   9.542
 1787POPC   PO425164  20.391   7.087   9.417
 1787POPC   GL125165  20.632   6.827   9.161
 1787POPC   GL225166  20.428   6.536   9.091
 1787POPC   C1A25167  20.826   6.672   8.822
 1787POPC   D2A25168  20.524   6.613   8.516
 1787POPC   C3A25169  20.714   6.520   8.160
 1787POPC   C4A25170  20.794   6.537   7.738
 1787POPC   C1B25171  20.211   6.890   8.818
 1787POPC   C2B25172  20.224   7.026   8.396
 1787POPC   C3B25173  20.388   6.888   8.013
 1787POPC   C4B25174  20.393   6.837   7.557
 1788POPC   NC325175   4.696  43.068   9.578
 1788POPC   PO425176   4.035  43.192   9.559
 1788POPC   GL125177   4.327  43.128   9.220
 1788POPC   GL225178   4.650  43.278   9.123
 1788POPC   C1A25179   4.271  43.035   8.808
 1788POPC   D2A25180   3.983  43.132   8.499
 1788POPC   C3A25181   4.116  43.266   8.108
 1788POPC   C4A25182   4.098  43.017   7.733
 1788POPC   C1B25183   4.782  43.165   8.731
 1788POPC   C2B25184   4.546  43.107   8.369
 1788POPC   C3B25185   4.573  43.114   7.934
 1788POPC   C4B25186   4.707  43.287   7.537
 1789POPC   NC325187  19.771  38.458   9.630
 1789POPC   PO425188  19.570  38.913   9.248
 1789POPC   GL125189  19.768  38.522   9.125
 1789POPC   GL225190  19.591  38.185   9.217
 1789POPC   C1A25191  19.970  38.583   8.749
 1789POPC   D2A25192  19.818  38.776   8.357
 1789POPC   C3A25193  19.973  38.625   7.991
 1789POPC   C4A25194  19.765  38.434   7.639
 1789POPC   C1B25195  19.788  38.098   8.806
 1789POPC   C2B25196  19.901  38.262   8.365
 1789POPC   C3B25197  20.019  38.103   7.957
 1789POPC   C4B25198  20.181  38.107   7.528
 1790POPC   NC325199  17.907  22.628   9.419
 1790POPC   PO425200  17.538  23.232   9.667
 1790POPC   GL125201  17.506  22.917   9.263
 1790POPC   GL225202  17.727  23.050   9.137
 1790POPC   C1A25203  17.595  22.749   8.767
 1790POPC   D2A25204  17.762  22.918   8.345
 1790POPC   C3A25205  17.563  22.935   7.932
 1790POPC   C4A25206  17.679  22.744   7.506
 1790POPC   C1B25207  17.675  23.288   8.773
 1790POPC   C2B25208  17.896  23.415   8.427
 1790POPC   C3B25209  17.780  23.433   7.982
 1790POPC   C4B25210  17.761  23.236   7.562
 1791POPC   NC325211   0.899  27.250   9.531
 1791POPC   PO425212   1.359  27.835   9.534
 1791POPC   GL125213   1.348  27.532   9.212
 1791POPC   GL225214   1.003  27.599   9.177
 1791POPC   C1A25215   1.293  27.590   8.762
 1791POPC   D2A25216   1.502  27.754   8.405
 1791POPC   C3A25217   1.263  27.740   8.079
 1791POPC   C4A25218   1.308  27.520   7.767
 1791POPC   C1B25219   0.802  27.442   8.782
 1791POPC   C2B25220   0.811  27.272   8.390
 1791POPC   C3B25221   0.786  27.468   8.000
 1791POPC   C4B25222   0.865  27.328   7.626
 1792POPC   NC325223  37.227  14.869   9.501
 1792POPC   PO425224  36.838  15.351   9.591
 1792POPC   GL125225  36.840  15.294   9.184
 1792POPC   GL225226  36.677  14.995   9.228
 1792POPC   C1A25227  36.957  15.432   8.757
 1792POPC   D2A25228  37.063  15.505   8.342
 1792POPC   C3A25229  36.861  15.310   8.001
 1792POPC   C4A25230  37.112  15.415   7.637
 1792POPC   C1B25231  36.752  14.976   8.802
 1792POPC   C2B25232  36.673  14.992   8.388
 1792POPC   C3B25233  36.808  14.764   8.039
 1792POPC   C4B25234  36.919  14.898   7.636
 1793POPC   NC325235  33.039  11.769   9.382
 1793POPC   PO425236  32.835  12.432   9.469
 1793POPC   GL125237  33.041  12.232   9.145
 1793POPC   GL225238  32.734  12.089   9.075
 1793POPC   C1A25239  33.186  12.160   8.725
 1793POPC   D2A25240  33.032  12.333   8.344
 1793POPC   C3A25241  33.020  12.150   7.954
 1793POPC   C4A25242  33.117  11.858   7.656
 1793POPC   C1B25243  32.665  11.906   8.720
 1793POPC   C2B25244  32.721  11.889   8.314
 1793POPC   C3B25245  32.706  11.714   7.941
 1793POPC   C4B25246  32.569  12.064   7.711
 1794POPC   NC325247  40.723  24.254   9.541
 1794POPC   PO425248  40.368  24.747   9.322
 1794POPC   GL125249  40.563  24.358   9.084
 1794POPC   GL225250  40.345  24.029   9.148
 1794POPC   C1A25251  40.772  24.335   8.661
 1794POPC   D2A25252  40.728  24.718   8.398
 1794POPC   C3A25253  40.873  24.674   7.997
 1794POPC   C4A25254  41.058  24.375   7.754
 1794POPC   C1B25255  40.266  24.221   8.725
 1794POPC   C2B25256  40.352  24.352   8.322
 1794POPC   C3B25257  40.280  24.146   7.951
 1794POPC   C4B25258  40.540  24.338   7.731
 1795POPC   NC325259  14.030  32.294   9.653
 1795POPC   PO425260  14.710  32.489   9.563
 1795POPC   GL125261  14.507  32.232   9.216
 1795POPC   GL225262  14.165  32.277   9.165
 1795POPC   C1A25263  14.460  32.380   8.764
 1795POPC   D2A25264  14.620  32.195   8.391
 1795POPC   C3A25265  14.482  32.401   8.021
 1795POPC   C4A25266  14.413  32.365   7.599
 1795POPC   C1B25267  14.040  32.082   8.733
 1795POPC   C2B25268  14.096  32.214   8.303
 1795POPC   C3B25269  14.030  32.097   7.864
 1795POPC   C4B25270  13.985  32.208   7.404
 1796POPC   NC325271   5.696  16.510   9.492
 1796POPC   PO425272   5.851  17.167   9.533
 1796POPC   GL125273   5.867  16.869   9.165
 1796POPC   GL225274   5.980  16.515   9.068
 1796POPC   C1A25275   5.610  16.691   8.803
 1796POPC   D2A25276   5.746  16.533   8.396
 1796POPC   C3A25277   6.122  16.724   8.220
 1796POPC   C4A25278   6.074  16.783   7.801
 1796POPC   C1B25279   6.189  16.486   8.680
 1796POPC   C2B25280   6.153  16.201   8.316
 1796POPC   C3B25281   5.942  16.326   7.952
 1796POPC   C4B25282   5.498  16.299   7.933
 1797POPC   NC325283  38.406   7.004   9.554
 1797POPC   PO425284  37.878   6.517   9.567
 1797POPC   GL125285  38.216   6.569   9.283
 1797POPC   GL225286  38.531   6.400   9.251
 1797POPC   C1A25287  38.189   6.589   8.851
 1797POPC   D2A25288  38.385   6.857   8.558
 1797POPC   C3A25289  38.295   6.767   8.144
 1797POPC   C4A25290  38.479   6.721   7.768
 1797POPC   C1B25291  38.720   6.599   8.880
 1797POPC   C2B25292  38.872   6.405   8.509
 1797POPC   C3B25293  38.773   6.410   8.080
 1797POPC   C4B25294  38.663   6.234   7.660
 1798POPC   NC325295  23.491  25.678   9.454
 1798POPC   PO425296  23.696  26.292   9.570
 1798POPC   GL125297  23.657  26.126   9.170
 1798POPC   GL225298  23.842  25.833   9.105
 1798POPC   C1A25299  23.520  26.065   8.751
 1798POPC   D2A25300  23.698  25.861   8.385
 1798POPC   C3A25301  23.551  26.032   8.012
 1798POPC   C4A25302  23.805  26.171   7.706
 1798POPC   C1B25303  24.024  25.953   8.756
 1798POPC   C2B25304  24.214  25.757   8.389
 1798POPC   C3B25305  24.048  25.841   8.007
 1798POPC   C4B25306  24.237  25.871   7.626
 1799POPC   NC325307  36.088  29.375   9.847
 1799POPC   PO425308  35.883  28.930   9.466
 1799POPC   GL125309  35.998  29.113   9.115
 1799POPC   GL225310  36.025  29.475   8.989
 1799POPC   C1A25311  35.887  28.887   8.761
 1799POPC   D2A25312  35.778  29.051   8.359
 1799POPC   C3A25313  36.116  29.219   8.101
 1799POPC   C4A25314  36.121  29.149   7.639
 1799POPC   C1B25315  36.299  29.191   8.721
 1799POPC   C2B25316  36.551  29.190   8.362
 1799POPC   C3B25317  36.570  29.400   7.935
 1799POPC   C4B25318  36.522  29.396   7.483
 1800POPC   NC325319  15.736  32.135   9.599
 1800POPC   PO425320  16.440  32.110   9.610
 1800POPC   GL125321  16.131  32.159   9.234
 1800POPC   GL225322  15.789  32.299   9.116
 1800POPC   C1A25323  16.015  31.918   8.847
 1800POPC   D2A25324  16.202  31.980   8.430
 1800POPC   C3A25325  15.970  32.124   8.082
 1800POPC   C4A25326  16.096  32.061   7.663
 1800POPC   C1B25327  16.018  32.430   8.743
 1800POPC   C2B25328  16.055  32.582   8.323
 1800POPC   C3B25329  15.853  32.608   7.919
 1800POPC   C4B25330  15.808  32.449   7.492
 1801POPC   NC325331  24.903  35.417   9.682
 1801POPC   PO425332  25.508  35.578   9.486
 1801POPC   GL125333  25.376  35.369   9.139
 1801POPC   GL225334  25.019  35.318   9.174
 1801POPC   C1A25335  25.252  35.576   8.740
 1801POPC   D2A25336  24.924  35.527   8.403
 1801POPC   C3A25337  25.054  35.485   7.977
 1801POPC   C4A25338  25.485  35.621   7.890
 1801POPC   C1B25339  25.016  35.125   8.736
 1801POPC   C2B25340  25.176  35.070   8.276
 1801POPC   C3B25341  25.097  34.914   7.824
 1801POPC   C4B25342  25.110  34.961   7.318
 1802POPC   NC325343  19.126  26.366   9.481
 1802POPC   PO425344  18.901  26.995   9.372
 1802POPC   GL125345  19.135  26.767   9.121
 1802POPC   GL225346  18.877  26.515   9.069
 1802POPC   C1A25347  19.158  26.958   8.715
 1802POPC   D2A25348  18.834  27.209   8.512
 1802POPC   C3A25349  18.874  27.155   8.056
 1802POPC   C4A25350  18.969  27.047   7.622
 1802POPC   C1B25351  19.091  26.455   8.706
 1802POPC   C2B25352  19.319  26.604   8.347
 1802POPC   C3B25353  19.181  26.740   7.970
 1802POPC   C4B25354  18.796  26.581   7.806
 1803POPC   NC325355  23.860   5.940   9.446
 1803POPC   PO425356  23.396   5.539   9.254
 1803POPC   GL125357  23.594   5.846   9.016
 1803POPC   GL225358  23.291   6.041   8.913
 1803POPC   C1A25359  24.002   5.838   8.787
 1803POPC   D2A25360  24.162   5.688   8.411
 1803POPC   C3A25361  23.978   5.890   8.088
 1803POPC   C4A25362  23.842   5.836   7.711
 1803POPC   C1B25363  23.358   5.683   8.608
 1803POPC   C2B25364  23.642   5.529   8.307
 1803POPC   C3B25365  23.509   5.484   7.913
 1803POPC   C4B25366  23.353   5.818   7.791
 1804POPC   NC325367  18.873  19.383   9.401
 1804POPC   PO425368  19.179  18.798   9.408
 1804POPC   GL125369  19.064  19.042   9.066
 1804POPC   GL225370  18.863  19.382   8.899
 1804POPC   C1A25371  19.148  18.923   8.689
 1804POPC   D2A25372  19.039  19.192   8.417
 1804POPC   C3A25373  19.098  19.029   8.016
 1804POPC   C4A25374  19.087  18.970   7.563
 1804POPC   C1B25375  19.293  19.427   8.820
 1804POPC   C2B25376  19.530  19.235   8.490
 1804POPC   C3B25377  19.387  19.441   8.105
 1804POPC   C4B25378  19.240  19.440   7.717
 1805POPC   NC325379  22.044  18.522   9.411
 1805POPC   PO425380  22.005  17.900   9.752
 1805POPC   GL125381  22.287  18.070   9.359
 1805POPC   GL225382  22.520  18.331   9.252
 1805POPC   C1A25383  22.201  18.188   8.878
 1805POPC   D2A25384  21.849  18.161   8.643
 1805POPC   C3A25385  21.898  18.244   8.218
 1805POPC   C4A25386  22.088  18.064   7.893
 1805POPC   C1B25387  22.635  18.356   8.753
 1805POPC   C2B25388  22.370  18.348   8.380
 1805POPC   C3B25389  22.279  18.529   7.953
 1805POPC   C4B25390  22.227  18.367   7.486
 1806POPC   NC325391  16.185  19.563   9.473
 1806POPC   PO425392  15.561  19.798   9.267
 1806POPC   GL125393  15.859  19.980   9.026
 1806POPC   GL225394  16.172  20.039   9.204
 1806POPC   C1A25395  15.930  19.678   8.688
 1806POPC   D2A25396  15.713  19.383   8.419
 1806POPC   C3A25397  15.792  19.624   8.076
 1806POPC   C4A25398  15.837  20.038   7.859
 1806POPC   C1B25399  16.303  20.021   8.758
 1806POPC   C2B25400  16.157  20.021   8.296
 1806POPC   C3B25401  16.352  20.025   7.860
 1806POPC   C4B25402  16.318  19.928   7.373
 1807POPC   NC325403  35.252  21.581   9.562
 1807POPC   PO425404  35.459  20.967   9.571
 1807POPC   GL125405  35.281  21.230   9.170
 1807POPC   GL225406  35.094  21.621   9.087
 1807POPC   C1A25407  35.300  21.349   8.718
 1807POPC   D2A25408  35.547  21.416   8.372
 1807POPC   C3A25409  35.495  21.075   8.105
 1807POPC   C4A25410  35.490  21.155   7.701
 1807POPC   C1B25411  34.860  21.618   8.690
 1807POPC   C2B25412  34.975  21.470   8.272
 1807POPC   C3B25413  35.295  21.557   7.940
 1807POPC   C4B25414  35.166  21.500   7.460
 1808POPC   NC325415  26.987   8.515   9.511
 1808POPC   PO425416  26.425   8.120   9.588
 1808POPC   GL125417  26.718   7.989   9.247
 1808POPC   GL225418  26.882   8.252   9.094
 1808POPC   C1A25419  26.713   7.870   8.797
 1808POPC   D2A25420  26.737   8.081   8.408
 1808POPC   C3A25421  26.583   7.932   8.029
 1808POPC   C4A25422  26.749   7.983   7.614
 1808POPC   C1B25423  26.931   8.489   8.711
 1808POPC   C2B25424  26.897   8.564   8.266
 1808POPC   C3B25425  26.866   8.453   7.830
 1808POPC   C4B25426  26.989   8.351   7.387
 1809POPC   NC325427  17.475  28.895   9.697
 1809POPC   PO425428  17.857  29.320   9.581
 1809POPC   GL125429  17.728  29.049   9.232
 1809POPC   GL225430  17.412  28.966   9.189
 1809POPC   C1A25431  17.732  28.870   8.821
 1809POPC   D2A25432  17.551  29.004   8.430
 1809POPC   C3A25433  17.771  28.932   8.040
 1809POPC   C4A25434  17.593  29.083   7.665
 1809POPC   C1B25435  17.161  28.965   8.790
 1809POPC   C2B25436  17.072  29.143   8.372
 1809POPC   C3B25437  17.147  28.979   7.954
 1809POPC   C4B25438  17.163  28.849   7.503
 1810POPC   NC325439  30.658  38.997   9.454
 1810POPC   PO425440  30.741  38.336   9.338
 1810POPC   GL125441  30.866  38.442   8.955
 1810POPC   GL225442  30.992  38.118   8.927
 1810POPC   C1A25443  30.840  38.691   8.607
 1810POPC   D2A25444  30.547  38.665   8.303
 1810POPC   C3A25445  30.569  38.535   7.901
 1810POPC   C4A25446  30.280  38.551   7.562
 1810POPC   C1B25447  31.183  38.323   8.566
 1810POPC   C2B25448  31.055  38.471   8.162
 1810POPC   C3B25449  30.924  38.172   7.847
 1810POPC   C4B25450  30.907  38.071   7.382
 1811POPC   NC325451   6.819   4.523   9.464
 1811POPC   PO425452   6.248   4.323   9.739
 1811POPC   GL125453   6.452   4.270   9.247
 1811POPC   GL225454   6.593   4.607   9.033
 1811POPC   C1A25455   6.755   4.153   8.897
 1811POPC   D2A25456   6.862   4.066   8.477
 1811POPC   C3A25457   6.582   4.258   8.222
 1811POPC   C4A25458   6.556   4.094   7.827
 1811POPC   C1B25459   6.709   4.607   8.612
 1811POPC   C2B25460   6.928   4.650   8.254
 1811POPC   C3B25461   6.828   4.528   7.840
 1811POPC   C4B25462   6.463   4.511   7.584
 1812POPC   NC325463  12.115  31.562   9.653
 1812POPC   PO425464  12.060  30.949   9.656
 1812POPC   GL125465  11.928  31.227   9.293
 1812POPC   GL225466  12.254  31.173   9.225
 1812POPC   C1A25467  12.055  31.486   8.886
 1812POPC   D2A25468  12.276  31.644   8.492
 1812POPC   C3A25469  12.093  31.540   8.072
 1812POPC   C4A25470  11.905  31.821   7.757
 1812POPC   C1B25471  12.307  31.038   8.833
 1812POPC   C2B25472  12.136  31.159   8.454
 1812POPC   C3B25473  12.422  31.151   8.124
 1812POPC   C4B25474  12.338  31.242   7.695
 1813POPC   NC325475  42.110  16.385   9.464
 1813POPC   PO425476  42.530  16.943   9.477
 1813POPC   GL125477  42.250  16.756   9.131
 1813POPC   GL225478  42.121  16.969   8.857
 1813POPC   C1A25479  42.320  16.532   8.727
 1813POPC   D2A25480  42.279  16.781   8.376
 1813POPC   C3A25481  42.087  16.655   8.009
 1813POPC   C4A25482  42.220  16.348   7.725
 1813POPC   C1B25483  42.590  16.975   8.737
 1813POPC   C2B25484  42.774  16.885   8.326
 1813POPC   C3B25485  42.506  17.011   7.991
 1813POPC   C4B25486  42.440  16.788   7.621
 1814POPC   NC325487   9.024  19.370   9.474
 1814POPC   PO425488   9.204  20.100   9.497
 1814POPC   GL125489   9.184  19.815   9.206
 1814POPC   GL225490   8.832  19.806   9.206
 1814POPC   C1A25491   9.150  19.636   8.810
 1814POPC   D2A25492   9.136  19.462   8.429
 1814POPC   C3A25493   9.152  19.731   8.100
 1814POPC   C4A25494   8.988  19.723   7.681
 1814POPC   C1B25495   8.646  19.956   8.845
 1814POPC   C2B25496   8.827  19.949   8.453
 1814POPC   C3B25497   8.680  19.934   8.043
 1814POPC   C4B25498   8.625  20.099   7.608
 1815POPC   NC325499  17.920  13.857   9.516
 1815POPC   PO425500  18.559  13.708   9.504
 1815POPC   GL125501  18.300  13.781   9.116
 1815POPC   GL225502  17.917  13.733   9.043
 1815POPC   C1A25503  18.294  13.719   8.671
 1815POPC   D2A25504  18.247  13.381   8.372
 1815POPC   C3A25505  18.276  13.664   8.071
 1815POPC   C4A25506  18.310  13.646   7.684
 1815POPC   C1B25507  17.884  13.455   8.714
 1815POPC   C2B25508  17.774  13.616   8.278
 1815POPC   C3B25509  17.828  13.584   7.821
 1815POPC   C4B25510  17.918  13.660   7.353
 1816POPC   NC325511  16.434   8.871   9.529
 1816POPC   PO425512  17.095   9.053   9.562
 1816POPC   GL125513  16.991   9.090   9.152
 1816POPC   GL225514  16.645   9.043   9.104
 1816POPC   C1A25515  16.932   9.272   8.753
 1816POPC   D2A25516  17.082   9.156   8.354
 1816POPC   C3A25517  17.016   9.428   7.979
 1816POPC   C4A25518  16.889   9.329   7.549
 1816POPC   C1B25519  16.730   8.775   8.754
 1816POPC   C2B25520  16.603   8.865   8.358
 1816POPC   C3B25521  16.700   9.046   8.001
 1816POPC   C4B25522  16.803   8.817   7.670
 1817POPC   NC325523   3.376  14.052   9.422
 1817POPC   PO425524   3.594  14.794   9.517
 1817POPC   GL125525   3.628  14.479   9.196
 1817POPC   GL225526   3.317  14.350   9.019
 1817POPC   C1A25527   3.770  14.347   8.797
 1817POPC   D2A25528   3.690  14.457   8.351
 1817POPC   C3A25529   3.824  14.251   7.953
 1817POPC   C4A25530   3.545  14.302   7.595
 1817POPC   C1B25531   3.379  14.024   8.650
 1817POPC   C2B25532   3.462  13.962   8.185
 1817POPC   C3B25533   3.246  13.935   7.773
 1817POPC   C4B25534   3.314  13.957   7.304
 1818POPC   NC325535  16.937  12.552   9.507
 1818POPC   PO425536  16.570  13.247   9.428
 1818POPC   GL125537  16.661  12.920   9.148
 1818POPC   GL225538  17.007  12.884   9.130
 1818POPC   C1A25539  16.731  12.803   8.705
 1818POPC   D2A25540  16.661  12.599   8.344
 1818POPC   C3A25541  16.610  12.919   8.050
 1818POPC   C4A25542  16.523  13.283   7.870
 1818POPC   C1B25543  17.147  13.058   8.739
 1818POPC   C2B25544  17.095  12.949   8.273
 1818POPC   C3B25545  17.038  13.065   7.818
 1818POPC   C4B25546  17.209  13.075   7.370
 1819POPC   NC325547  21.822  22.475   9.837
 1819POPC   PO425548  22.407  22.222   9.619
 1819POPC   GL125549  22.269  22.344   9.218
 1819POPC   GL225550  21.960  22.478   9.347
 1819POPC   C1A25551  22.085  22.065   8.883
 1819POPC   D2A25552  21.910  21.991   8.467
 1819POPC   C3A25553  22.176  21.883   8.120
 1819POPC   C4A25554  22.346  22.084   7.728
 1819POPC   C1B25555  21.837  22.525   8.930
 1819POPC   C2B25556  22.120  22.482   8.564
 1819POPC   C3B25557  22.127  22.406   8.113
 1819POPC   C4B25558  21.916  22.414   7.700
 1820POPC   NC325559  31.010  16.048   9.393
 1820POPC   PO425560  31.704  15.931   9.618
 1820POPC   GL125561  31.573  15.782   9.208
 1820POPC   GL225562  31.434  16.073   9.125
 1820POPC   C1A25563  31.656  15.854   8.731
 1820POPC   D2A25564  31.524  16.259   8.511
 1820POPC   C3A25565  31.370  16.249   8.103
 1820POPC   C4A25566  31.432  15.860   7.930
 1820POPC   C1B25567  31.167  16.033   8.775
 1820POPC   C2B25568  31.211  15.837   8.403
 1820POPC   C3B25569  30.943  15.820   8.051
 1820POPC   C4B25570  31.031  15.836   7.621
 1821POPC   NC325571  27.040  43.116   9.795
 1821POPC   PO425572  26.748  43.326   9.199
 1821POPC   GL125573  27.072  43.225   8.972
 1821POPC   GL225574  27.023  42.878   9.109
 1821POPC   C1A25575  27.164  43.403   8.548
 1821POPC   D2A25576  26.816  43.450   8.261
 1821POPC   C3A25577  26.927  43.364   7.855
 1821POPC   C4A25578  26.699  43.139   7.562
 1821POPC   C1B25579  26.642  42.848   8.808
 1821POPC   C2B25580  26.550  42.988   8.410
 1821POPC   C3B25581  26.563  42.916   7.994
 1821POPC   C4B25582  26.312  42.622   7.736
 1822POPC   NC325583  37.382  34.279   9.475
 1822POPC   PO425584  37.874  33.862   9.602
 1822POPC   GL125585  37.945  33.678   9.197
 1822POPC   GL225586  37.820  33.992   9.081
 1822POPC   C1A25587  37.716  33.469   8.846
 1822POPC   D2A25588  37.525  33.617   8.456
 1822POPC   C3A25589  37.688  33.436   8.081
 1822POPC   C4A25590  37.671  33.568   7.671
 1822POPC   C1B25591  37.621  34.242   8.747
 1822POPC   C2B25592  37.431  34.170   8.343
 1822POPC   C3B25593  37.438  33.908   7.997
 1822POPC   C4B25594  37.564  34.091   7.637
 1823POPC   NC325595  25.886  35.863   9.536
 1823POPC   PO425596  26.494  36.332   9.451
 1823POPC   GL125597  26.062  36.248   9.231
 1823POPC   GL225598  25.825  35.967   9.061
 1823POPC   C1A25599  25.916  36.418   8.852
 1823POPC   D2A25600  26.156  36.496   8.498
 1823POPC   C3A25601  25.914  36.405   8.119
 1823POPC   C4A25602  26.088  36.463   7.724
 1823POPC   C1B25603  25.915  35.868   8.639
 1823POPC   C2B25604  25.884  35.873   8.193
 1823POPC   C3B25605  25.968  35.967   7.762
 1823POPC   C4B25606  26.219  35.835   7.388
 1824POPC   NC325607   9.906  42.639   9.474
 1824POPC   PO425608   9.426  42.192   9.502
 1824POPC   GL125609   9.691  42.262   9.176
 1824POPC   GL225610  10.045  42.168   9.174
 1824POPC   C1A25611   9.753  42.359   8.753
 1824POPC   D2A25612   9.577  42.230   8.371
 1824POPC   C3A25613   9.438  42.429   8.002
 1824POPC   C4A25614   9.486  42.204   7.614
 1824POPC   C1B25615  10.183  42.039   8.746
 1824POPC   C2B25616  10.088  42.198   8.318
 1824POPC   C3B25617   9.906  42.256   7.898
 1824POPC   C4B25618   9.989  42.143   7.450
 1825POPC   NC325619   2.744  44.869   9.463
 1825POPC   PO425620   2.143  44.789   9.779
 1825POPC   GL125621   2.308  44.516   9.326
 1825POPC   GL225622   2.692  44.432   9.217
 1825POPC   C1A25623   2.404  44.662   8.842
 1825POPC   D2A25624   2.744  44.672   8.547
 1825POPC   C3A25625   2.628  44.787   8.159
 1825POPC   C4A25626   2.789  44.816   7.760
 1825POPC   C1B25627   3.021  44.392   8.872
 1825POPC   C2B25628   3.071  44.311   8.456
 1825POPC   C3B25629   2.843  44.328   8.084
 1825POPC   C4B25630   3.017  44.366   7.717
 1826POPC   NC325631  36.387  42.570   9.310
 1826POPC   PO425632  36.867  42.101   9.527
 1826POPC   GL125633  36.856  42.258   9.149
 1826POPC   GL225634  36.928  42.577   9.188
 1826POPC   C1A25635  36.721  42.350   8.747
 1826POPC   D2A25636  36.839  42.139   8.409
 1826POPC   C3A25637  36.842  42.276   7.990
 1826POPC   C4A25638  37.037  41.992   7.672
 1826POPC   C1B25639  37.129  42.626   8.819
 1826POPC   C2B25640  36.997  42.640   8.405
 1826POPC   C3B25641  37.089  42.726   7.997
 1826POPC   C4B25642  36.963  42.733   7.573
 1827POPC   NC325643  30.463  13.806   9.477
 1827POPC   PO425644  30.954  13.340   9.467
 1827POPC   GL125645  30.804  13.585   9.129
 1827POPC   GL225646  30.472  13.430   9.144
 1827POPC   C1A25647  30.895  13.468   8.698
 1827POPC   D2A25648  31.118  13.481   8.294
 1827POPC   C3A25649  30.882  13.544   7.930
 1827POPC   C4A25650  30.739  13.937   7.709
 1827POPC   C1B25651  30.393  13.585   8.759
 1827POPC   C2B25652  30.521  13.481   8.337
 1827POPC   C3B25653  30.400  13.725   8.007
 1827POPC   C4B25654  30.199  13.851   7.667
 1828POPC   NC325655  23.795  34.183   9.843
 1828POPC   PO425656  23.381  34.550   9.506
 1828POPC   GL125657  23.448  34.326   9.142
 1828POPC   GL225658  23.323  34.654   8.992
 1828POPC   C1A25659  23.721  34.383   8.772
 1828POPC   D2A25660  23.902  34.631   8.432
 1828POPC   C3A25661  23.794  34.443   8.054
 1828POPC   C4A25662  23.945  34.299   7.655
 1828POPC   C1B25663  23.507  34.943   8.719
 1828POPC   C2B25664  23.590  35.028   8.299
 1828POPC   C3B25665  23.657  34.919   7.892
 1828POPC   C4B25666  23.375  34.922   7.559
 1829POPC   NC325667  41.365  11.791   9.251
 1829POPC   PO425668  41.904  12.019   9.490
 1829POPC   GL125669  41.697  12.201   9.114
 1829POPC   GL225670  41.355  12.309   9.153
 1829POPC   C1A25671  41.510  12.072   8.698
 1829POPC   D2A25672  41.662  12.017   8.314
 1829POPC   C3A25673  41.397  11.929   7.999
 1829POPC   C4A25674  41.517  11.845   7.610
 1829POPC   C1B25675  41.370  12.549   8.798
 1829POPC   C2B25676  41.583  12.526   8.447
 1829POPC   C3B25677  41.499  12.437   8.046
 1829POPC   C4B25678  41.320  12.320   7.670
 1830POPC   NC325679  17.710  27.451   9.517
 1830POPC   PO425680  17.098  27.917   9.544
 1830POPC   GL125681  17.375  27.695   9.232
 1830POPC   GL225682  17.753  27.769   9.110
 1830POPC   C1A25683  17.366  27.489   8.847
 1830POPC   D2A25684  17.203  27.666   8.456
 1830POPC   C3A25685  17.448  27.671   8.101
 1830POPC   C4A25686  17.795  27.800   7.835
 1830POPC   C1B25687  17.886  27.377   8.867
 1830POPC   C2B25688  17.897  27.176   8.458
 1830POPC   C3B25689  17.905  27.354   8.065
 1830POPC   C4B25690  17.561  27.311   7.775
 1831POPC   NC325691  12.548  43.635   9.460
 1831POPC   PO425692  12.793  44.216   9.559
 1831POPC   GL125693  12.825  44.021   9.172
 1831POPC   GL225694  12.597  43.810   8.983
 1831POPC   C1A25695  12.942  44.190   8.801
 1831POPC   D2A25696  13.132  44.044   8.451
 1831POPC   C3A25697  12.818  44.002   8.155
 1831POPC   C4A25698  12.976  43.884   7.767
 1831POPC   C1B25699  12.919  43.659   8.729
 1831POPC   C2B25700  13.066  43.551   8.312
 1831POPC   C3B25701  13.180  43.410   7.904
 1831POPC   C4B25702  12.975  43.410   7.492
 1832POPC   NC325703  42.813  23.027   9.541
 1832POPC   PO425704  43.438  23.207   9.477
 1832POPC   GL125705  43.175  23.014   9.138
 1832POPC   GL225706  42.885  23.168   9.070
 1832POPC   C1A25707  43.063  22.744   8.772
 1832POPC   D2A25708  42.869  22.864   8.351
 1832POPC   C3A25709  42.916  22.688   7.937
 1832POPC   C4A25710  43.310  22.661   7.706
 1832POPC   C1B25711  43.035  23.255   8.664
 1832POPC   C2B25712  42.903  23.398   8.253
 1832POPC   C3B25713  42.757  23.223   7.893
 1832POPC   C4B25714  43.092  23.281   7.638
 1833POPC   NC325715  30.161  41.028   9.513
 1833POPC   PO425716  30.719  40.743   9.841
 1833POPC   GL125717  30.738  40.763   9.319
 1833POPC   GL225718  30.416  40.690   9.214
 1833POPC   C1A25719  30.758  40.693   8.835
 1833POPC   D2A25720  31.038  40.619   8.477
 1833POPC   C3A25721  30.921  40.799   8.139
 1833POPC   C4A25722  30.901  40.804   7.738
 1833POPC   C1B25723  30.274  40.878   8.839
 1833POPC   C2B25724  30.162  40.703   8.429
 1833POPC   C3B25725  30.413  40.631   8.055
 1833POPC   C4B25726  30.484  41.030   7.908
 1834POPC   NC325727  14.976  27.235   9.422
 1834POPC   PO425728  14.736  27.890   9.602
 1834POPC   GL125729  14.910  27.803   9.158
 1834POPC   GL225730  15.002  27.486   8.980
 1834POPC   C1A25731  14.775  27.983   8.776
 1834POPC   D2A25732  14.932  28.154   8.403
 1834POPC   C3A25733  14.946  27.853   8.118
 1834POPC   C4A25734  15.079  27.705   7.748
 1834POPC   C1B25735  15.122  27.661   8.600
 1834POPC   C2B25736  15.404  27.870   8.369
 1834POPC   C3B25737  15.505  27.741   7.995
 1834POPC   C4B25738  15.528  27.311   7.851
 1835POPC   NC325739  35.460  18.718   9.753
 1835POPC   PO425740  35.330  18.099   9.524
 1835POPC   GL125741  35.361  18.252   9.122
 1835POPC   GL225742  35.691  18.156   9.129
 1835POPC   C1A25743  35.145  18.426   8.761
 1835POPC   D2A25744  35.149  18.670   8.391
 1835POPC   C3A25745  35.151  18.451   7.984
 1835POPC   C4A25746  35.094  18.397   7.571
 1835POPC   C1B25747  35.646  18.343   8.716
 1835POPC   C2B25748  35.383  18.209   8.355
 1835POPC   C3B25749  35.487  18.071   7.937
 1835POPC   C4B25750  35.565  18.199   7.514
 1836POPC   NC325751  22.684  25.297   9.591
 1836POPC   PO425752  23.206  24.872   9.546
 1836POPC   GL125753  22.983  25.084   9.196
 1836POPC   GL225754  22.877  25.390   9.141
 1836POPC   C1A25755  23.129  25.208   8.765
 1836POPC   D2A25756  22.896  25.147   8.420
 1836POPC   C3A25757  23.054  25.196   8.024
 1836POPC   C4A25758  22.822  25.277   7.677
 1836POPC   C1B25759  22.660  25.489   8.798
 1836POPC   C2B25760  22.727  25.695   8.451
 1836POPC   C3B25761  22.697  25.549   8.096
 1836POPC   C4B25762  22.360  25.454   7.894
 1837POPC   NC325763  10.787  21.294   9.459
 1837POPC   PO425764  10.083  21.050   9.405
 1837POPC   GL125765  10.383  21.235   9.159
 1837POPC   GL225766  10.133  21.350   8.978
 1837POPC   C1A25767  10.575  21.485   8.793
 1837POPC   D2A25768  10.746  21.558   8.379
 1837POPC   C3A25769  10.674  21.398   7.938
 1837POPC   C4A25770  10.763  21.131   7.531
 1837POPC   C1B25771  10.058  21.662   8.662
 1837POPC   C2B25772   9.912  21.547   8.254
 1837POPC   C3B25773  10.172  21.409   7.909
 1837POPC   C4B25774  10.331  21.391   7.497
 1838POPC   NC325775  25.628  23.378   9.573
 1838POPC   PO425776  25.414  22.781   9.765
 1838POPC   GL125777  25.417  22.830   9.327
 1838POPC   GL225778  25.275  23.166   9.249
 1838POPC   C1A25779  25.422  22.750   8.883
 1838POPC   D2A25780  25.583  22.539   8.489
 1838POPC   C3A25781  25.365  22.683   8.137
 1838POPC   C4A25782  25.373  22.793   7.707
 1838POPC   C1B25783  25.378  23.287   8.815
 1838POPC   C2B25784  25.466  23.062   8.464
 1838POPC   C3B25785  25.499  23.157   8.027
 1838POPC   C4B25786  25.536  23.244   7.579
 1839POPC   NC325787  42.010  40.943   9.415
 1839POPC   PO425788  42.492  40.477   9.534
 1839POPC   GL125789  42.303  40.606   9.166
 1839POPC   GL225790  42.428  40.932   9.091
 1839POPC   C1A25791  42.096  40.729   8.758
 1839POPC   D2A25792  42.298  40.882   8.357
 1839POPC   C3A25793  42.043  40.823   7.980
 1839POPC   C4A25794  42.049  40.487   7.687
 1839POPC   C1B25795  42.599  40.679   8.728
 1839POPC   C2B25796  42.774  40.680   8.298
 1839POPC   C3B25797  42.510  40.669   7.928
 1839POPC   C4B25798  42.356  40.933   7.585
 1840POPC   NC325799   4.697  16.532   9.520
 1840POPC   PO425800   5.328  16.836   9.527
 1840POPC   GL125801   4.963  16.925   9.261
 1840POPC   GL225802   5.009  16.608   9.124
 1840POPC   C1A25803   4.930  17.004   8.807
 1840POPC   D2A25804   5.276  16.923   8.501
 1840POPC   C3A25805   5.291  16.776   8.073
 1840POPC   C4A25806   5.559  16.951   7.785
 1840POPC   C1B25807   4.855  16.514   8.697
 1840POPC   C2B25808   4.848  16.713   8.310
 1840POPC   C3B25809   4.778  16.709   7.866
 1840POPC   C4B25810   4.781  16.429   7.528
 1841POPC   NC325811  29.371  11.516   9.493
 1841POPC   PO425812  28.672  11.341   9.438
 1841POPC   GL125813  29.049  11.314   9.116
 1841POPC   GL225814  29.443  11.313   9.046
 1841POPC   C1A25815  29.107  11.289   8.667
 1841POPC   D2A25816  28.809  11.199   8.377
 1841POPC   C3A25817  28.971  11.272   7.970
 1841POPC   C4A25818  28.781  11.084   7.638
 1841POPC   C1B25819  29.598  11.026   8.751
 1841POPC   C2B25820  29.549  11.154   8.358
 1841POPC   C3B25821  29.549  11.025   7.943
 1841POPC   C4B25822  29.410  11.284   7.630
 1842POPC   NC325823  15.812  17.955   9.630
 1842POPC   PO425824  16.343  18.434   9.574
 1842POPC   GL125825  16.220  18.299   9.190
 1842POPC   GL225826  15.880  18.353   9.106
 1842POPC   C1A25827  16.243  18.196   8.775
 1842POPC   D2A25828  16.342  18.439   8.395
 1842POPC   C3A25829  16.143  18.271   8.049
 1842POPC   C4A25830  16.094  18.054   7.697
 1842POPC   C1B25831  15.733  18.070   8.786
 1842POPC   C2B25832  15.773  18.009   8.359
 1842POPC   C3B25833  15.649  18.086   7.964
 1842POPC   C4B25834  15.388  18.387   7.751
 1843POPC   NC325835  31.506  42.040   9.520
 1843POPC   PO425836  31.713  42.716   9.539
 1843POPC   GL125837  31.746  42.412   9.215
 1843POPC   GL225838  31.389  42.379   9.142
 1843POPC   C1A25839  31.737  42.206   8.786
 1843POPC   D2A25840  31.662  42.151   8.329
 1843POPC   C3A25841  31.454  42.446   8.053
 1843POPC   C4A25842  31.747  42.414   7.767
 1843POPC   C1B25843  31.204  42.070   8.844
 1843POPC   C2B25844  31.116  42.133   8.392
 1843POPC   C3B25845  31.247  41.993   8.002
 1843POPC   C4B25846  31.329  41.984   7.568
 1844POPC   NC325847  41.912  43.485   9.346
 1844POPC   PO425848  41.664  42.982   9.752
 1844POPC   GL125849  41.653  43.046   9.297
 1844POPC   GL225850  41.332  42.949   9.257
 1844POPC   C1A25851  41.639  43.121   8.818
 1844POPC   D2A25852  41.747  43.011   8.359
 1844POPC   C3A25853  41.727  43.141   7.969
 1844POPC   C4A25854  41.664  43.423   7.671
 1844POPC   C1B25855  41.224  42.817   8.832
 1844POPC   C2B25856  41.251  43.021   8.447
 1844POPC   C3B25857  41.175  42.848   8.070
 1844POPC   C4B25858  41.338  42.940   7.685
 1845POPC   NC325859  24.463  29.760   9.522
 1845POPC   PO425860  24.281  30.444   9.530
 1845POPC   GL125861  24.491  30.120   9.179
 1845POPC   GL225862  24.766  29.806   9.120
 1845POPC   C1A25863  24.418  29.914   8.774
 1845POPC   D2A25864  24.206  29.797   8.405
 1845POPC   C3A25865  24.277  30.006   8.055
 1845POPC   C4A25866  24.499  30.245   7.826
 1845POPC   C1B25867  24.923  29.831   8.669
 1845POPC   C2B25868  24.733  29.977   8.268
 1845POPC   C3B25869  24.659  29.738   7.863
 1845POPC   C4B25870  24.672  29.531   7.464
 1846POPC   NC325871   3.366  20.097   9.435
 1846POPC   PO425872   3.689  19.547   9.415
 1846POPC   GL125873   3.472  19.704   9.094
 1846POPC   GL225874   3.715  19.967   9.075
 1846POPC   C1A25875   3.369  19.814   8.666
 1846POPC   D2A25876   3.671  19.800   8.301
 1846POPC   C3A25877   3.498  19.832   7.856
 1846POPC   C4A25878   3.185  20.113   7.616
 1846POPC   C1B25879   3.755  20.158   8.701
 1846POPC   C2B25880   3.980  20.374   8.407
 1846POPC   C3B25881   3.951  20.155   8.035
 1846POPC   C4B25882   4.019  19.683   7.924
 1847POPC   NC325883  10.477   3.133   9.371
 1847POPC   PO425884  10.839   3.755   9.413
 1847POPC   GL125885  10.472   3.611   9.213
 1847POPC   GL225886  10.349   3.870   9.112
 1847POPC   C1A25887  10.277   3.470   8.796
 1847POPC   D2A25888  10.244   3.295   8.383
 1847POPC   C3A25889  10.597   3.344   8.106
 1847POPC   C4A25890  10.403   3.370   7.704
 1847POPC   C1B25891  10.695   3.787   8.781
 1847POPC   C2B25892  10.719   3.874   8.344
 1847POPC   C3B25893  10.414   3.802   8.020
 1847POPC   C4B25894  10.254   3.867   7.628
 1848POPC   NC325895   9.041  38.811   9.878
 1848POPC   PO425896   9.185  39.471   9.592
 1848POPC   GL125897   9.033  39.493   9.175
 1848POPC   GL225898   8.812  39.236   9.193
 1848POPC   C1A25899   9.071  39.379   8.724
 1848POPC   D2A25900   9.369  39.272   8.397
 1848POPC   C3A25901   9.170  39.180   8.044
 1848POPC   C4A25902   8.871  39.292   7.766
 1848POPC   C1B25903   8.665  39.072   8.788
 1848POPC   C2B25904   8.632  39.211   8.341
 1848POPC   C3B25905   8.638  38.932   7.990
 1848POPC   C4B25906   8.713  38.887   7.510
 1849POPC   NC325907  29.323  44.661   9.717
 1849POPC   PO425908  28.944  44.162   9.506
 1849POPC   GL125909  29.163  44.527   9.233
 1849POPC   GL225910  29.441  44.833   9.233
 1849POPC   C1A25911  29.152  44.726   8.822
 1849POPC   D2A25912  29.070  44.645   8.408
 1849POPC   C3A25913  29.008  44.875   8.048
 1849POPC   C4A25914  28.992  44.593   7.723
 1849POPC   C1B25915  29.456   0.127   8.830
 1849POPC   C2B25916  29.365   0.084   8.365
 1849POPC   C3B25917  29.479  44.964   7.892
 1849POPC   C4B25918  29.440  44.710   7.485
 1850POPC   NC325919  29.914  35.534   9.545
 1850POPC   PO425920  29.683  34.921   9.495
 1850POPC   GL125921  29.629  35.260   9.187
 1850POPC   GL225922  29.698  35.651   9.115
 1850POPC   C1A25923  29.677  35.302   8.764
 1850POPC   D2A25924  29.796  35.094   8.410
 1850POPC   C3A25925  29.797  35.243   8.008
 1850POPC   C4A25926  30.233  35.267   7.865
 1850POPC   C1B25927  29.822  35.808   8.755
 1850POPC   C2B25928  29.846  35.617   8.383
 1850POPC   C3B25929  30.027  35.708   8.038
 1850POPC   C4B25930  29.897  35.625   7.661
 1851POPC   NC325931  10.790   1.120   9.760
 1851POPC   PO425932  10.341   1.560   9.530
 1851POPC   GL125933  10.413   1.252   9.197
 1851POPC   GL225934  10.710   1.046   9.216
 1851POPC   C1A25935  10.541   1.352   8.789
 1851POPC   D2A25936  10.600   1.634   8.448
 1851POPC   C3A25937  10.456   1.430   8.079
 1851POPC   C4A25938  10.743   1.282   7.800
 1851POPC   C1B25939  10.524   0.830   8.814
 1851POPC   C2B25940  10.387   0.985   8.386
 1851POPC   C3B25941  10.542   0.854   7.956
 1851POPC   C4B25942  10.497   0.924   7.479
 1852POPC   NC325943  23.129   4.898   9.659
 1852POPC   PO425944  22.577   5.327   9.523
 1852POPC   GL125945  22.887   5.130   9.253
 1852POPC   GL225946  22.926   4.783   9.207
 1852POPC   C1A25947  23.027   5.182   8.849
 1852POPC   D2A25948  22.822   5.211   8.463
 1852POPC   C3A25949  23.091   5.172   8.096
 1852POPC   C4A25950  22.927   5.092   7.681
 1852POPC   C1B25951  23.054   4.678   8.786
 1852POPC   C2B25952  22.985   4.701   8.320
 1852POPC   C3B25953  23.178   4.693   7.902
 1852POPC   C4B25954  23.079   4.617   7.477
 1853POPC   NC325955   7.598  43.621   9.380
 1853POPC   PO425956   7.343  43.079   9.787
 1853POPC   GL125957   7.322  43.191   9.271
 1853POPC   GL225958   7.034  43.222   9.076
 1853POPC   C1A25959   7.483  43.034   8.847
 1853POPC   D2A25960   7.686  43.102   8.424
 1853POPC   C3A25961   7.620  42.801   8.071
 1853POPC   C4A25962   7.402  42.881   7.696
 1853POPC   C1B25963   7.306  43.512   8.785
 1853POPC   C2B25964   7.386  43.608   8.337
 1853POPC   C3B25965   7.377  43.294   7.998
 1853POPC   C4B25966   7.173  43.335   7.577
 1854POPC   NC325967  15.914  28.612   9.569
 1854POPC   PO425968  16.125  28.008   9.571
 1854POPC   GL125969  16.087  28.319   9.200
 1854POPC   GL225970  16.289  28.649   9.209
 1854POPC   C1A25971  15.831  28.569   8.882
 1854POPC   D2A25972  15.771  28.720   8.437
 1854POPC   C3A25973  15.820  28.359   8.158
 1854POPC   C4A25974  15.925  28.245   7.743
 1854POPC   C1B25975  16.336  28.573   8.767
 1854POPC   C2B25976  16.280  28.732   8.346
 1854POPC   C3B25977  16.272  28.609   7.894
 1854POPC   C4B25978  16.252  28.705   7.429
 1855POPC   NC325979  18.529  20.320   9.350
 1855POPC   PO425980  17.929  20.515   9.424
 1855POPC   GL125981  17.976  20.741   9.035
 1855POPC   GL225982  18.249  20.552   8.911
 1855POPC   C1A25983  18.146  21.030   8.736
 1855POPC   D2A25984  18.435  20.975   8.444
 1855POPC   C3A25985  18.232  20.984   8.072
 1855POPC   C4A25986  18.288  20.592   7.910
 1855POPC   C1B25987  18.596  20.346   8.714
 1855POPC   C2B25988  18.886  20.377   8.415
 1855POPC   C3B25989  18.770  20.292   7.998
 1855POPC   C4B25990  18.735  20.166   7.554
 1856POPC   NC325991   0.623   5.402   9.901
 1856POPC   PO425992   0.473   5.900   9.494
 1856POPC   GL125993   0.446   5.896   9.091
 1856POPC   GL225994   0.419   6.231   9.079
 1856POPC   C1A25995   0.423   5.639   8.722
 1856POPC   D2A25996   0.421   5.380   8.376
 1856POPC   C3A25997   0.625   5.597   8.037
 1856POPC   C4A25998   0.537   5.672   7.628
 1856POPC   C1B25999   0.286   6.139   8.683
 1856POPC   C2B26000   0.472   5.999   8.329
 1856POPC   C3B26001   0.521   6.101   7.957
 1856POPC   C4B26002   0.385   6.160   7.587
 1857POPC   NC326003  27.321  14.086   9.424
 1857POPC   PO426004  27.362  14.816   9.445
 1857POPC   GL126005  27.542  14.576   9.093
 1857POPC   GL226006  27.747  14.285   9.171
 1857POPC   C1A26007  27.878  14.520   8.744
 1857POPC   D2A26008  27.728  14.472   8.337
 1857POPC   C3A26009  27.962  14.394   7.985
 1857POPC   C4A26010  27.763  14.447   7.593
 1857POPC   C1B26011  27.503  14.172   8.779
 1857POPC   C2B26012  27.499  14.007   8.371
 1857POPC   C3B26013  27.508  14.150   7.933
 1857POPC   C4B26014  27.285  14.146   7.517
 1858POPC   NC326015  34.486  26.331   9.524
 1858POPC   PO426016  34.548  26.958   9.719
 1858POPC   GL126017  34.410  26.931   9.208
 1858POPC   GL226018  34.270  26.585   9.159
 1858POPC   C1A26019  34.438  26.825   8.746
 1858POPC   D2A26020  34.784  26.853   8.515
 1858POPC   C3A26021  34.851  26.934   8.060
 1858POPC   C4A26022  34.897  27.136   7.633
 1858POPC   C1B26023  34.049  26.502   8.816
 1858POPC   C2B26024  34.006  26.761   8.463
 1858POPC   C3B26025  34.165  26.717   8.061
 1858POPC   C4B26026  34.455  26.825   7.767
 1859POPC   NC326027  14.452  13.879   9.516
 1859POPC   PO426028  14.325  13.224   9.456
 1859POPC   GL126029  14.242  13.561   9.129
 1859POPC   GL226030  14.019  13.857   9.228
 1859POPC   C1A26031  14.468  13.633   8.721
 1859POPC   D2A26032  14.688  13.743   8.342
 1859POPC   C3A26033  14.494  13.444   8.193
 1859POPC   C4A26034  14.509  13.344   7.844
 1859POPC   C1B26035  14.071  14.028   8.820
 1859POPC   C2B26036  14.299  14.046   8.451
 1859POPC   C3B26037  14.291  13.919   8.032
 1859POPC   C4B26038  14.008  14.123   7.738
 1860POPC   NC326039  38.460  21.155   9.437
 1860POPC   PO426040  38.328  20.451   9.479
 1860POPC   GL126041  38.114  20.383   9.131
 1860POPC   GL226042  38.289  20.691   9.023
 1860POPC   C1A26043  38.300  20.236   8.771
 1860POPC   D2A26044  38.619  20.363   8.481
 1860POPC   C3A26045  38.430  20.426   8.101
 1860POPC   C4A26046  38.601  20.456   7.703
 1860POPC   C1B26047  38.407  20.969   8.699
 1860POPC   C2B26048  38.191  21.097   8.337
 1860POPC   C3B26049  38.363  20.962   7.971
 1860POPC   C4B26050  38.245  20.776   7.654
 1861POPC   NC326051  31.979  36.996   9.591
 1861POPC   PO426052  32.446  36.684   9.846
 1861POPC   GL126053  32.347  36.873   9.305
 1861POPC   GL226054  32.245  36.605   9.084
 1861POPC   C1A26055  32.094  37.051   8.908
 1861POPC   D2A26056  32.199  37.184   8.495
 1861POPC   C3A26057  32.014  37.147   8.101
 1861POPC   C4A26058  32.202  36.956   7.774
 1861POPC   C1B26059  32.543  36.830   8.780
 1861POPC   C2B26060  32.775  36.726   8.425
 1861POPC   C3B26061  32.637  36.823   8.035
 1861POPC   C4B26062  32.575  36.644   7.648
 1862POPC   NC326063   5.356   3.566   9.748
 1862POPC   PO426064   6.028   3.647   9.582
 1862POPC   GL126065   5.937   3.668   9.183
 1862POPC   GL226066   5.612   3.824   9.253
 1862POPC   C1A26067   6.122   3.507   8.798
 1862POPC   D2A26068   6.258   3.341   8.408
 1862POPC   C3A26069   6.028   3.403   8.041
 1862POPC   C4A26070   5.766   3.533   7.691
 1862POPC   C1B26071   5.677   3.846   8.794
 1862POPC   C2B26072   5.870   3.729   8.406
 1862POPC   C3B26073   5.859   3.929   7.997
 1862POPC   C4B26074   5.587   3.998   7.654
 1863POPC   NC326075  44.912  39.663   9.405
 1863POPC   PO426076   0.578  39.867   9.496
 1863POPC   GL126077   0.485  39.977   9.113
 1863POPC   GL226078   0.126  39.954   9.042
 1863POPC   C1A26079   0.627  39.917   8.733
 1863POPC   D2A26080   0.484  40.010   8.359
 1863POPC   C3A26081   0.741  40.016   8.024
 1863POPC   C4A26082   0.609  39.988   7.593
 1863POPC   C1B26083   0.241  40.260   8.755
 1863POPC   C2B26084   0.206  40.480   8.378
 1863POPC   C3B26085   0.276  40.282   7.975
 1863POPC   C4B26086   0.046  39.992   7.747
 1864POPC   NC326087  29.454   1.417   9.455
 1864POPC   PO426088  29.886   1.941   9.653
 1864POPC   GL126089  29.802   2.018   9.248
 1864POPC   GL226090  29.525   1.870   9.240
 1864POPC   C1A26091  29.923   2.114   8.842
 1864POPC   D2A26092  29.923   1.901   8.492
 1864POPC   C3A26093  30.018   2.075   8.149
 1864POPC   C4A26094  29.890   2.031   7.741
 1864POPC   C1B26095  29.451   1.964   8.826
 1864POPC   C2B26096  29.535   2.215   8.447
 1864POPC   C3B26097  29.501   2.006   8.079
 1864POPC   C4B26098  29.489   1.739   7.750
 1865POPC   NC326099  30.437   0.249   9.669
 1865POPC   PO426100  30.770   0.778   9.440
 1865POPC   GL126101  30.705   0.536   9.118
 1865POPC   GL226102  30.387   0.443   9.167
 1865POPC   C1A26103  30.834   0.567   8.689
 1865POPC   D2A26104  30.897   0.230   8.419
 1865POPC   C3A26105  30.892   0.336   8.020
 1865POPC   C4A26106  30.779   0.284   7.647
 1865POPC   C1B26107  30.472   0.205   8.785
 1865POPC   C2B26108  30.408   0.063   8.362
 1865POPC   C3B26109  30.411   0.386   8.063
 1865POPC   C4B26110  30.349   0.572   7.668
 1866POPC   NC326111   5.208  11.579   9.544
 1866POPC   PO426112   4.850  11.053   9.642
 1866POPC   GL126113   5.103  11.160   9.243
 1866POPC   GL226114   4.968  11.497   9.112
 1866POPC   C1A26115   5.304  11.241   8.819
 1866POPC   D2A26116   5.461  11.432   8.414
 1866POPC   C3A26117   5.401  11.135   8.062
 1866POPC   C4A26118   5.300  10.916   7.652
 1866POPC   C1B26119   4.884  11.525   8.672
 1866POPC   C2B26120   4.973  11.397   8.262
 1866POPC   C3B26121   5.095  11.486   7.845
 1866POPC   C4B26122   5.089  11.305   7.431
 1867POPC   NC326123  25.193   4.631   9.556
 1867POPC   PO426124  25.628   4.147   9.643
 1867POPC   GL126125  25.522   4.364   9.268
 1867POPC   GL226126  25.167   4.290   9.193
 1867POPC   C1A26127  25.525   4.494   8.848
 1867POPC   D2A26128  25.621   4.427   8.420
 1867POPC   C3A26129  25.357   4.188   8.154
 1867POPC   C4A26130  25.521   4.377   7.797
 1867POPC   C1B26131  25.018   4.543   8.905
 1867POPC   C2B26132  25.069   4.551   8.488
 1867POPC   C3B26133  25.106   4.625   8.079
 1867POPC   C4B26134  25.026   4.379   7.744
 1868POPC   NC326135  16.482  43.406   9.841
 1868POPC   PO426136  16.873  43.025   9.644
 1868POPC   GL126137  16.756  43.029   9.206
 1868POPC   GL226138  17.055  42.978   9.117
 1868POPC   C1A26139  16.553  42.833   8.843
 1868POPC   D2A26140  16.514  43.016   8.425
 1868POPC   C3A26141  16.885  43.159   8.186
 1868POPC   C4A26142  16.743  43.152   7.787
 1868POPC   C1B26143  17.000  43.023   8.677
 1868POPC   C2B26144  16.922  42.696   8.373
 1868POPC   C3B26145  16.820  42.652   7.936
 1868POPC   C4B26146  16.716  42.758   7.480
 1869POPC   NC326147  32.295  40.865   9.529
 1869POPC   PO426148  32.690  40.293   9.561
 1869POPC   GL126149  32.498  40.522   9.202
 1869POPC   GL226150  32.111  40.490   9.162
 1869POPC   C1A26151  32.417  40.669   8.777
 1869POPC   D2A26152  32.614  40.498   8.416
 1869POPC   C3A26153  32.367  40.553   8.046
 1869POPC   C4A26154  32.243  40.872   7.806
 1869POPC   C1B26155  31.928  40.547   8.735
 1869POPC   C2B26156  32.082  40.851   8.395
 1869POPC   C3B26157  31.869  41.076   8.053
 1869POPC   C4B26158  31.763  40.862   7.667
 1870POPC   NC326159   8.704  41.620   9.651
 1870POPC   PO426160   9.314  41.219   9.448
 1870POPC   GL126161   9.002  41.519   9.225
 1870POPC   GL226162   8.705  41.735   9.151
 1870POPC   C1A26163   9.057  41.534   8.808
 1870POPC   D2A26164   8.775  41.497   8.468
 1870POPC   C3A26165   8.918  41.500   8.043
 1870POPC   C4A26166   8.743  41.298   7.677
 1870POPC   C1B26167   8.770  41.962   8.780
 1870POPC   C2B26168   8.667  42.036   8.387
 1870POPC   C3B26169   8.816  42.055   8.001
 1870POPC   C4B26170   8.717  41.825   7.683
 1871POPC   NC326171   9.609   6.215   9.729
 1871POPC   PO426172   9.969   5.621   9.505
 1871POPC   GL126173   9.730   5.847   9.237
 1871POPC   GL226174   9.975   5.804   9.024
 1871POPC   C1A26175   9.468   5.811   8.884
 1871POPC   D2A26176   9.505   5.800   8.446
 1871POPC   C3A26177   9.374   6.017   8.065
 1871POPC   C4A26178   9.543   5.881   7.670
 1871POPC   C1B26179   9.918   5.537   8.702
 1871POPC   C2B26180  10.009   5.795   8.380
 1871POPC   C3B26181   9.907   5.893   8.022
 1871POPC   C4B26182  10.068   5.985   7.660
 1872POPC   NC326183  37.664  27.211   9.623
 1872POPC   PO426184  37.497  26.576   9.899
 1872POPC   GL126185  37.422  26.757   9.389
 1872POPC   GL226186  37.629  26.990   9.171
 1872POPC   C1A26187  37.399  26.662   8.901
 1872POPC   D2A26188  37.598  26.880   8.584
 1872POPC   C3A26189  37.376  26.946   8.201
 1872POPC   C4A26190  37.599  27.046   7.800
 1872POPC   C1B26191  37.977  27.117   8.926
 1872POPC   C2B26192  38.118  26.979   8.547
 1872POPC   C3B26193  38.001  27.014   8.120
 1872POPC   C4B26194  38.105  27.149   7.701
 1873POPC   NC326195  22.553   9.714   9.641
 1873POPC   PO426196  23.183   9.977   9.730
 1873POPC   GL126197  23.013   9.776   9.363
 1873POPC   GL226198  22.695   9.905   9.190
 1873POPC   C1A26199  23.119   9.591   8.969
 1873POPC   D2A26200  22.984   9.457   8.547
 1873POPC   C3A26201  23.065   9.729   8.196
 1873POPC   C4A26202  23.140   9.744   7.756
 1873POPC   C1B26203  22.620  10.208   8.852
 1873POPC   C2B26204  22.688  10.049   8.449
 1873POPC   C3B26205  22.694  10.024   8.023
 1873POPC   C4B26206  22.635   9.649   7.742
 1874POPC   NC326207  41.519  32.669   9.397
 1874POPC   PO426208  41.911  33.138   9.459
 1874POPC   GL126209  41.756  33.004   9.093
 1874POPC   GL226210  41.384  33.094   9.115
 1874POPC   C1A26211  41.695  33.095   8.684
 1874POPC   D2A26212  41.585  32.826   8.349
 1874POPC   C3A26213  41.715  33.093   8.063
 1874POPC   C4A26214  41.747  32.926   7.676
 1874POPC   C1B26215  41.215  32.960   8.719
 1874POPC   C2B26216  41.254  33.210   8.329
 1874POPC   C3B26217  41.240  33.076   7.909
 1874POPC   C4B26218  41.251  33.012   7.467
 1875POPC   NC326219   4.216  20.556   9.691
 1875POPC   PO426220   4.782  20.359   9.644
 1875POPC   GL126221   4.586  20.582   9.255
 1875POPC   GL226222   4.250  20.611   9.167
 1875POPC   C1A26223   4.567  20.433   8.799
 1875POPC   D2A26224   4.444  20.641   8.392
 1875POPC   C3A26225   4.314  20.525   7.973
 1875POPC   C4A26226   4.354  20.767   7.581
 1875POPC   C1B26227   4.114  20.766   8.736
 1875POPC   C2B26228   3.991  20.854   8.259
 1875POPC   C3B26229   3.953  21.024   7.822
 1875POPC   C4B26230   3.715  20.961   7.419
 1876POPC   NC326231  18.577  37.244   9.451
 1876POPC   PO426232  17.968  37.592   9.468
 1876POPC   GL126233  18.207  37.798   9.165
 1876POPC   GL226234  18.556  37.721   9.229
 1876POPC   C1A26235  18.302  37.694   8.746
 1876POPC   D2A26236  18.090  37.422   8.460
 1876POPC   C3A26237  17.965  37.620   8.054
 1876POPC   C4A26238  18.196  37.885   7.768
 1876POPC   C1B26239  18.780  37.827   8.869
 1876POPC   C2B26240  18.615  38.002   8.478
 1876POPC   C3B26241  18.494  37.710   8.155
 1876POPC   C4B26242  18.648  37.653   7.732
 1877POPC   NC326243  32.828  17.187   9.453
 1877POPC   PO426244  33.243  17.671   9.539
 1877POPC   GL126245  33.049  17.543   9.183
 1877POPC   GL226246  32.760  17.684   9.129
 1877POPC   C1A26247  33.120  17.514   8.763
 1877POPC   D2A26248  33.046  17.689   8.375
 1877POPC   C3A26249  32.873  17.508   8.019
 1877POPC   C4A26250  33.103  17.607   7.668
 1877POPC   C1B26251  32.705  17.880   8.705
 1877POPC   C2B26252  32.594  17.945   8.244
 1877POPC   C3B26253  32.871  18.045   7.883
 1877POPC   C4B26254  32.970  18.001   7.392
 1878POPC   NC326255  31.825  33.412   9.902
 1878POPC   PO426256  32.374  33.757   9.662
 1878POPC   GL126257  32.187  33.630   9.263
 1878POPC   GL226258  32.006  33.336   9.386
 1878POPC   C1A26259  32.239  33.717   8.795
 1878POPC   D2A26260  32.434  33.940   8.434
 1878POPC   C3A26261  32.357  33.944   7.975
 1878POPC   C4A26262  32.323  33.668   7.615
 1878POPC   C1B26263  32.009  33.281   8.918
 1878POPC   C2B26264  31.916  33.472   8.481
 1878POPC   C3B26265  32.047  33.551   8.036
 1878POPC   C4B26266  31.841  33.503   7.622
 1879POPC   NC326267  17.942  11.003   9.424
 1879POPC   PO426268  18.567  10.973   9.394
 1879POPC   GL126269  18.306  11.198   9.107
 1879POPC   GL226270  18.064  10.985   8.916
 1879POPC   C1A26271  18.279  11.407   8.711
 1879POPC   D2A26272  18.242  11.192   8.324
 1879POPC   C3A26273  18.211  11.447   7.961
 1879POPC   C4A26274  18.494  11.721   7.727
 1879POPC   C1B26275  18.488  10.902   8.712
 1879POPC   C2B26276  18.617  10.818   8.278
 1879POPC   C3B26277  18.344  10.917   7.910
 1879POPC   C4B26278  17.975  11.014   7.716
 1880POPC   NC326279  39.781   5.804   9.425
 1880POPC   PO426280  40.509   5.637   9.402
 1880POPC   GL126281  40.227   5.810   9.122
 1880POPC   GL226282  39.960   5.586   8.988
 1880POPC   C1A26283  40.326   5.905   8.720
 1880POPC   D2A26284  40.202   6.210   8.420
 1880POPC   C3A26285  40.228   5.924   8.091
 1880POPC   C4A26286  40.158   5.896   7.676
 1880POPC   C1B26287  39.836   6.033   8.823
 1880POPC   C2B26288  39.698   6.201   8.447
 1880POPC   C3B26289  39.706   6.052   8.045
 1880POPC   C4B26290  39.642   6.011   7.606
 1881POPC   NC326291  17.564  24.609   9.411
 1881POPC   PO426292  17.072  24.206   9.544
 1881POPC   GL126293  17.198  24.484   9.074
 1881POPC   GL226294  17.603  24.499   8.941
 1881POPC   C1A26295  17.257  24.412   8.622
 1881POPC   D2A26296  17.593  24.451   8.316
 1881POPC   C3A26297  17.420  24.541   7.905
 1881POPC   C4A26298  17.367  24.315   7.482
 1881POPC   C1B26299  17.760  24.829   8.673
 1881POPC   C2B26300  17.557  24.985   8.284
 1881POPC   C3B26301  17.738  24.970   7.877
 1881POPC   C4B26302  17.653  24.728   7.490
 1882POPC   NC326303  38.420   3.024   9.538
 1882POPC   PO426304  38.574   2.459   9.834
 1882POPC   GL126305  38.344   2.562   9.343
 1882POPC   GL226306  38.136   2.324   9.236
 1882POPC   C1A26307  38.441   2.866   8.897
 1882POPC   D2A26308  38.552   2.823   8.416
 1882POPC   C3A26309  38.537   2.963   7.953
 1882POPC   C4A26310  38.199   3.085   7.651
 1882POPC   C1B26311  38.386   2.359   8.851
 1882POPC   C2B26312  38.482   2.310   8.416
 1882POPC   C3B26313  38.305   2.491   8.030
 1882POPC   C4B26314  38.339   2.611   7.584
 1883POPC   NC326315   2.401  25.304   9.517
 1883POPC   PO426316   3.062  25.468   9.614
 1883POPC   GL126317   2.839  25.427   9.254
 1883POPC   GL226318   2.650  25.725   9.300
 1883POPC   C1A26319   2.676  25.364   8.828
 1883POPC   D2A26320   2.848  25.437   8.396
 1883POPC   C3A26321   2.722  25.175   8.006
 1883POPC   C4A26322   2.957  24.898   7.698
 1883POPC   C1B26323   2.397  25.785   8.933
 1883POPC   C2B26324   2.412  25.705   8.511
 1883POPC   C3B26325   2.451  25.605   8.112
 1883POPC   C4B26326   2.389  25.645   7.707
 1884POPC   NC326327  20.991  40.856   9.341
 1884POPC   PO426328  21.005  40.204   9.607
 1884POPC   GL126329  20.870  40.426   9.135
 1884POPC   GL226330  20.557  40.693   9.132
 1884POPC   C1A26331  20.799  40.660   8.706
 1884POPC   D2A26332  20.706  41.017   8.399
 1884POPC   C3A26333  20.811  40.876   7.976
 1884POPC   C4A26334  20.525  40.587   7.795
 1884POPC   C1B26335  20.347  40.955   8.787
 1884POPC   C2B26336  20.169  40.997   8.337
 1884POPC   C3B26337  20.365  41.107   7.908
 1884POPC   C4B26338  20.325  40.888   7.447
 1885POPC   NC326339  32.737   0.174   9.371
 1885POPC   PO426340  33.207   0.776   9.500
 1885POPC   GL126341  33.114   0.485   9.183
 1885POPC   GL226342  32.784   0.596   9.085
 1885POPC   C1A26343  33.123   0.444   8.730
 1885POPC   D2A26344  33.322   0.298   8.347
 1885POPC   C3A26345  33.166   0.498   8.053
 1885POPC   C4A26346  33.042   0.531   7.673
 1885POPC   C1B26347  32.654   0.283   8.756
 1885POPC   C2B26348  32.824   0.176   8.369
 1885POPC   C3B26349  32.895   0.062   7.959
 1885POPC   C4B26350  32.920   0.072   7.548
 1886POPC   NC326351  32.035  32.522   9.873
 1886POPC   PO426352  32.374  32.054   9.571
 1886POPC   GL126353  32.300  32.260   9.205
 1886POPC   GL226354  31.973  32.324   9.278
 1886POPC   C1A26355  32.486  32.230   8.813
 1886POPC   D2A26356  32.548  31.971   8.448
 1886POPC   C3A26357  32.425  32.240   8.085
 1886POPC   C4A26358  32.283  32.132   7.723
 1886POPC   C1B26359  31.948  32.152   8.867
 1886POPC   C2B26360  32.101  32.252   8.475
 1886POPC   C3B26361  31.903  32.266   8.094
 1886POPC   C4B26362  31.907  32.473   7.736
 1887POPC   NC326363  14.203  43.400   9.502
 1887POPC   PO426364  14.654  42.925   9.426
 1887POPC   GL126365  14.386  43.091   9.129
 1887POPC   GL226366  14.165  42.822   9.148
 1887POPC   C1A26367  14.499  43.309   8.755
 1887POPC   D2A26368  14.482  43.604   8.390
 1887POPC   C3A26369  14.211  43.496   8.061
 1887POPC   C4A26370  14.270  43.349   7.668
 1887POPC   C1B26371  14.110  42.926   8.716
 1887POPC   C2B26372  14.276  43.088   8.337
 1887POPC   C3B26373  14.572  43.109   7.995
 1887POPC   C4B26374  14.417  42.874   7.630
 1888POPC   NC326375   3.478  29.576   9.304
 1888POPC   PO426376   3.270  28.993   9.465
 1888POPC   GL126377   3.478  29.126   9.100
 1888POPC   GL226378   3.809  29.091   9.137
 1888POPC   C1A26379   3.471  29.264   8.676
 1888POPC   D2A26380   3.256  28.964   8.417
 1888POPC   C3A26381   3.305  29.026   7.999
 1888POPC   C4A26382   3.504  29.379   7.821
 1888POPC   C1B26383   3.851  28.928   8.711
 1888POPC   C2B26384   3.785  29.060   8.283
 1888POPC   C3B26385   3.777  28.894   7.876
 1888POPC   C4B26386   3.815  29.084   7.480
 1889POPC   NC326387  24.635  37.167   9.394
 1889POPC   PO426388  24.251  36.712   9.327
 1889POPC   GL126389  24.541  36.507   9.053
 1889POPC   GL226390  24.760  36.786   9.027
 1889POPC   C1A26391  24.636  36.531   8.597
 1889POPC   D2A26392  24.676  36.842   8.292
 1889POPC   C3A26393  24.450  36.783   7.917
 1889POPC   C4A26394  24.279  36.848   7.504
 1889POPC   C1B26395  24.921  37.083   8.723
 1889POPC   C2B26396  25.019  37.225   8.316
 1889POPC   C3B26397  24.984  36.982   7.909
 1889POPC   C4B26398  25.010  37.139   7.476
 1890POPC   NC326399  14.937  43.304   9.444
 1890POPC   PO426400  15.279  42.694   9.543
 1890POPC   GL126401  15.117  42.846   9.190
 1890POPC   GL226402  15.316  43.156   9.099
 1890POPC   C1A26403  15.047  42.790   8.771
 1890POPC   D2A26404  15.248  43.085   8.495
 1890POPC   C3A26405  15.206  42.975   8.069
 1890POPC   C4A26406  14.936  42.840   7.717
 1890POPC   C1B26407  15.255  43.524   8.797
 1890POPC   C2B26408  15.446  43.567   8.390
 1890POPC   C3B26409  15.462  43.421   7.966
 1890POPC   C4B26410  15.111  43.342   7.726
 1891POPC   NC326411  12.541   1.404   9.527
 1891POPC   PO426412  12.989   0.960   9.648
 1891POPC   GL126413  12.753   1.044   9.235
 1891POPC   GL226414  12.814   1.377   9.043
 1891POPC   C1A26415  12.615   1.008   8.785
 1891POPC   D2A26416  12.995   1.132   8.569
 1891POPC   C3A26417  12.989   1.199   8.159
 1891POPC   C4A26418  12.767   1.179   7.777
 1891POPC   C1B26419  13.033   1.632   8.708
 1891POPC   C2B26420  13.130   1.683   8.283
 1891POPC   C3B26421  12.970   1.640   7.870
 1891POPC   C4B26422  12.876   1.634   7.408
 1892POPC   NC326423   2.496  31.005   9.405
 1892POPC   PO426424   2.785  30.388   9.470
 1892POPC   GL126425   2.795  30.634   9.145
 1892POPC   GL226426   3.150  30.618   9.120
 1892POPC   C1A26427   2.829  30.862   8.765
 1892POPC   D2A26428   2.863  31.023   8.352
 1892POPC   C3A26429   2.479  31.019   8.143
 1892POPC   C4A26430   2.634  30.876   7.797
 1892POPC   C1B26431   3.034  30.369   8.762
 1892POPC   C2B26432   2.964  30.510   8.376
 1892POPC   C3B26433   3.101  30.692   8.022
 1892POPC   C4B26434   2.906  30.475   7.748
 1893POPC   NC326435  41.750  38.889   9.491
 1893POPC   PO426436  41.677  39.517   9.247
 1893POPC   GL126437  41.548  39.122   9.049
 1893POPC   GL226438  41.248  38.901   9.110
 1893POPC   C1A26439  41.652  39.229   8.639
 1893POPC   D2A26440  41.990  39.210   8.394
 1893POPC   C3A26441  41.702  39.285   8.087
 1893POPC   C4A26442  41.749  39.296   7.700
 1893POPC   C1B26443  41.304  38.809   8.696
 1893POPC   C2B26444  41.178  38.732   8.299
 1893POPC   C3B26445  41.343  38.916   7.950
 1893POPC   C4B26446  41.240  39.266   7.713
 1894POPC   NC326447   0.960  24.849   9.328
 1894POPC   PO426448   1.084  25.504   9.360
 1894POPC   GL126449   0.971  25.285   9.079
 1894POPC   GL226450   1.311  25.163   9.085
 1894POPC   C1A26451   1.022  25.396   8.696
 1894POPC   D2A26452   1.140  25.643   8.451
 1894POPC   C3A26453   1.022  25.448   8.116
 1894POPC   C4A26454   1.292  25.410   7.807
 1894POPC   C1B26455   1.248  24.958   8.727
 1894POPC   C2B26456   1.038  24.991   8.362
 1894POPC   C3B26457   1.164  24.924   7.941
 1894POPC   C4B26458   1.428  24.848   7.572
 1895POPC   NC326459   2.519  30.013   9.530
 1895POPC   PO426460   3.098  29.777   9.476
 1895POPC   GL126461   2.842  29.740   9.123
 1895POPC   GL226462   2.736  30.093   9.060
 1895POPC   C1A26463   2.880  29.794   8.669
 1895POPC   D2A26464   2.680  30.085   8.390
 1895POPC   C3A26465   2.677  29.964   7.986
 1895POPC   C4A26466   3.021  29.656   7.920
 1895POPC   C1B26467   2.530  30.413   8.748
 1895POPC   C2B26468   2.441  30.515   8.256
 1895POPC   C3B26469   2.387  30.419   7.773
 1895POPC   C4B26470   2.487  30.105   7.377
 1896POPC   NC326471   6.008   8.621   9.694
 1896POPC   PO426472   6.181   9.190   9.395
 1896POPC   GL126473   5.880   8.908   9.221
 1896POPC   GL226474   6.107   8.663   9.176
 1896POPC   C1A26475   5.693   8.798   8.792
 1896POPC   D2A26476   5.450   8.856   8.373
 1896POPC   C3A26477   5.696   9.001   7.986
 1896POPC   C4A26478   5.616   9.204   7.580
 1896POPC   C1B26479   6.241   8.898   8.803
 1896POPC   C2B26480   6.299   9.048   8.392
 1896POPC   C3B26481   6.239   8.911   7.992
 1896POPC   C4B26482   6.253   8.788   7.582
 1897POPC   NC326483  30.629  43.521   9.420
 1897POPC   PO426484  30.741  42.898   9.658
 1897POPC   GL126485  30.835  42.899   9.221
 1897POPC   GL226486  30.524  43.055   9.155
 1897POPC   C1A26487  30.794  42.868   8.756
 1897POPC   D2A26488  30.658  43.061   8.365
 1897POPC   C3A26489  30.854  42.916   8.017
 1897POPC   C4A26490  30.686  42.954   7.638
 1897POPC   C1B26491  30.510  43.327   8.778
 1897POPC   C2B26492  30.297  43.442   8.374
 1897POPC   C3B26493  30.417  43.301   7.928
 1897POPC   C4B26494  30.431  43.331   7.438
 1898POPC   NC326495  43.183  39.185   9.347
 1898POPC   PO426496  42.606  39.543   9.401
 1898POPC   GL126497  42.908  39.473   9.041
 1898POPC   GL226498  43.338  39.507   9.013
 1898POPC   C1A26499  42.999  39.356   8.658
 1898POPC   D2A26500  43.059  39.470   8.288
 1898POPC   C3A26501  42.878  39.212   7.998
 1898POPC   C4A26502  43.067  39.094   7.632
 1898POPC   C1B26503  43.440  39.106   8.776
 1898POPC   C2B26504  43.273  39.016   8.403
 1898POPC   C3B26505  43.392  39.191   8.018
 1898POPC   C4B26506  43.680  39.015   7.777
 1899POPC   NC326507   3.811  19.112   9.505
 1899POPC   PO426508   3.142  18.941   9.503
 1899POPC   GL126509   3.311  19.169   9.143
 1899POPC   GL226510   3.653  19.190   9.032
 1899POPC   C1A26511   3.287  18.938   8.751
 1899POPC   D2A26512   3.522  18.829   8.373
 1899POPC   C3A26513   3.370  18.873   7.951
 1899POPC   C4A26514   3.729  18.817   7.680
 1899POPC   C1B26515   3.583  19.354   8.629
 1899POPC   C2B26516   3.446  19.329   8.201
 1899POPC   C3B26517   3.634  19.321   7.785
 1899POPC   C4B26518   3.469  19.355   7.364
 1900POPC   NC326519  21.299   1.426   9.570
 1900POPC   PO426520  21.564   0.814   9.563
 1900POPC   GL126521  21.413   1.037   9.195
 1900POPC   GL226522  21.108   1.240   9.145
 1900POPC   C1A26523  21.541   1.205   8.804
 1900POPC   D2A26524  21.762   1.126   8.432
 1900POPC   C3A26525  21.565   1.236   8.070
 1900POPC   C4A26526  21.471   1.222   7.636
 1900POPC   C1B26527  21.084   1.456   8.731
 1900POPC   C2B26528  21.144   1.548   8.280
 1900POPC   C3B26529  21.018   1.689   7.872
 1900POPC   C4B26530  21.066   1.461   7.467
 1901POPC   NC326531  44.457  19.157   9.666
 1901POPC   PO426532  44.966  18.809   9.543
 1901POPC   GL126533  44.779  19.082   9.273
 1901POPC   GL226534  44.539  18.793   9.272
 1901POPC   C1A26535  44.699  19.093   8.849
 1901POPC   D2A26536  44.368  19.101   8.519
 1901POPC   C3A26537  44.556  19.194   8.110
 1901POPC   C4A26538  44.872  19.060   7.821
 1901POPC   C1B26539  44.412  18.671   8.875
 1901POPC   C2B26540  44.298  18.552   8.461
 1901POPC   C3B26541  44.245  18.780   8.108
 1901POPC   C4B26542  44.418  18.826   7.726
 1902POPC   NC326543  28.014  22.312   9.804
 1902POPC   PO426544  28.516  21.947   9.521
 1902POPC   GL126545  28.158  22.125   9.251
 1902POPC   GL226546  28.422  22.151   9.032
 1902POPC   C1A26547  27.998  22.209   8.782
 1902POPC   D2A26548  28.298  22.359   8.471
 1902POPC   C3A26549  28.340  22.326   8.011
 1902POPC   C4A26550  27.993  22.166   7.756
 1902POPC   C1B26551  28.627  22.019   8.669
 1902POPC   C2B26552  28.435  21.866   8.302
 1902POPC   C3B26553  28.512  21.677   7.912
 1902POPC   C4B26554  28.448  21.982   7.602
 1903POPC   NC326555   5.794  44.654   9.638
 1903POPC   PO426556   6.276  44.985   9.442
 1903POPC   GL126557   6.058  44.627   9.210
 1903POPC   GL226558   5.669  44.532   9.165
 1903POPC   C1A26559   6.069  44.587   8.800
 1903POPC   D2A26560   6.321  44.702   8.499
 1903POPC   C3A26561   6.112  44.573   8.155
 1903POPC   C4A26562   6.079  44.766   7.786
 1903POPC   C1B26563   5.578  44.703   8.770
 1903POPC   C2B26564   5.622  44.796   8.329
 1903POPC   C3B26565   5.608  44.620   7.915
 1903POPC   C4B26566   5.398  44.225   7.758
 1904POPC   NC326567   7.590  10.663   9.611
 1904POPC   PO426568   8.326  10.615   9.585
 1904POPC   GL126569   8.273  10.701   9.195
 1904POPC   GL226570   7.936  10.716   9.242
 1904POPC   C1A26571   8.391  10.552   8.795
 1904POPC   D2A26572   8.600  10.542   8.410
 1904POPC   C3A26573   8.393  10.620   8.063
 1904POPC   C4A26574   8.140  10.462   7.720
 1904POPC   C1B26575   7.875  10.774   8.835
 1904POPC   C2B26576   8.099  10.822   8.466
 1904POPC   C3B26577   7.918  10.787   8.086
 1904POPC   C4B26578   8.093  10.966   7.780
 1905POPC   NC326579  30.450  44.473   9.443
 1905POPC   PO426580  29.801  44.600   9.715
 1905POPC   GL126581  29.953  44.736   9.292
 1905POPC   GL226582  30.248  44.941   9.224
 1905POPC   C1A26583  29.795  44.720   8.866
 1905POPC   D2A26584  29.580  44.618   8.478
 1905POPC   C3A26585  29.821  44.638   8.088
 1905POPC   C4A26586  29.854  44.440   7.679
 1905POPC   C1B26587  30.319  44.715   8.814
 1905POPC   C2B26588  30.221  44.511   8.419
 1905POPC   C3B26589  30.319  44.669   8.014
 1905POPC   C4B26590  30.385  45.000   7.736
 1906POPC   NC326591  39.570  25.339   9.789
 1906POPC   PO426592  40.221  25.534   9.555
 1906POPC   GL126593  40.182  25.587   9.101
 1906POPC   GL226594  39.842  25.536   8.977
 1906POPC   C1A26595  40.209  25.310   8.714
 1906POPC   D2A26596  39.997  25.320   8.326
 1906POPC   C3A26597  40.144  25.236   7.909
 1906POPC   C4A26598  39.870  25.413   7.600
 1906POPC   C1B26599  39.699  25.165   8.752
 1906POPC   C2B26600  39.664  24.930   8.387
 1906POPC   C3B26601  39.673  25.090   7.983
 1906POPC   C4B26602  39.691  24.934   7.566
 1907POPC   NC326603  16.525  29.124   9.482
 1907POPC   PO426604  17.065  28.709   9.782
 1907POPC   GL126605  16.931  28.860   9.290
 1907POPC   GL226606  16.972  29.238   9.201
 1907POPC   C1A26607  16.657  28.962   8.881
 1907POPC   D2A26608  16.583  29.205   8.486
 1907POPC   C3A26609  16.602  29.007   8.072
 1907POPC   C4A26610  16.715  28.777   7.732
 1907POPC   C1B26611  16.899  29.471   8.806
 1907POPC   C2B26612  16.933  29.644   8.393
 1907POPC   C3B26613  16.781  29.477   8.046
 1907POPC   C4B26614  16.340  29.455   7.999
 1908POPC   NC326615  14.782  22.194   9.430
 1908POPC   PO426616  15.515  22.359   9.611
 1908POPC   GL126617  15.260  22.265   9.201
 1908POPC   GL226618  15.024  21.981   9.061
 1908POPC   C1A26619  15.162  22.382   8.771
 1908POPC   D2A26620  15.334  22.489   8.357
 1908POPC   C3A26621  15.183  22.371   7.974
 1908POPC   C4A26622  14.868  22.412   7.707
 1908POPC   C1B26623  14.996  21.917   8.658
 1908POPC   C2B26624  15.196  21.948   8.256
 1908POPC   C3B26625  14.984  21.917   7.844
 1908POPC   C4B26626  14.900  21.639   7.423
 1909POPC   NC326627  33.986  22.139   9.927
 1909POPC   PO426628  33.578  22.625   9.558
 1909POPC   GL126629  33.823  22.380   9.173
 1909POPC   GL226630  33.957  22.609   8.903
 1909POPC   C1A26631  34.110  22.128   8.834
 1909POPC   D2A26632  34.001  21.934   8.390
 1909POPC   C3A26633  34.087  22.000   7.919
 1909POPC   C4A26634  33.897  22.068   7.468
 1909POPC   C1B26635  33.633  22.291   8.701
 1909POPC   C2B26636  33.490  22.001   8.356
 1909POPC   C3B26637  33.604  22.163   7.963
 1909POPC   C4B26638  33.434  22.285   7.583
 1910POPC   NC326639  27.130  34.818   9.530
 1910POPC   PO426640  26.732  34.346   9.682
 1910POPC   GL126641  26.938  34.285   9.245
 1910POPC   GL226642  27.010  34.599   9.108
 1910POPC   C1A26643  26.741  34.294   8.814
 1910POPC   D2A26644  26.558  34.467   8.432
 1910POPC   C3A26645  26.653  34.251   8.037
 1910POPC   C4A26646  26.701  34.404   7.633
 1910POPC   C1B26647  26.772  34.797   8.797
 1910POPC   C2B26648  26.832  34.910   8.382
 1910POPC   C3B26649  26.807  34.732   8.023
 1910POPC   C4B26650  26.987  34.821   7.669
 1911POPC   NC326651  39.698  15.863   9.899
 1911POPC   PO426652  40.097  16.199   9.487
 1911POPC   GL126653  40.114  15.970   9.146
 1911POPC   GL226654  39.797  15.835   9.155
 1911POPC   C1A26655  40.288  15.975   8.752
 1911POPC   D2A26656  40.065  15.882   8.382
 1911POPC   C3A26657  40.208  16.022   8.008
 1911POPC   C4A26658  40.203  15.829   7.618
 1911POPC   C1B26659  39.766  16.076   8.775
 1911POPC   C2B26660  39.566  16.023   8.378
 1911POPC   C3B26661  39.679  15.836   7.977
 1911POPC   C4B26662  39.738  16.072   7.620
 1912POPC   NC326663  33.878  43.649   9.452
 1912POPC   PO426664  33.526  44.203   9.396
 1912POPC   GL126665  33.939  44.168   9.189
 1912POPC   GL226666  34.043  43.851   9.011
 1912POPC   C1A26667  33.790  44.229   8.785
 1912POPC   D2A26668  33.693  44.051   8.401
 1912POPC   C3A26669  33.913  44.140   8.037
 1912POPC   C4A26670  33.593  44.234   7.716
 1912POPC   C1B26671  33.710  43.676   8.759
 1912POPC   C2B26672  33.641  43.535   8.325
 1912POPC   C3B26673  33.832  43.644   7.934
 1912POPC   C4B26674  33.694  43.764   7.539
 1913POPC   NC326675   9.177  43.322   9.529
 1913POPC   PO426676   8.731  42.871   9.438
 1913POPC   GL126677   8.904  43.139   9.124
 1913POPC   GL226678   9.265  43.058   9.121
 1913POPC   C1A26679   8.901  43.296   8.681
 1913POPC   D2A26680   8.856  43.029   8.274
 1913POPC   C3A26681   8.872  43.078   7.785
 1913POPC   C4A26682   8.783  42.883   7.348
 1913POPC   C1B26683   9.234  42.900   8.744
 1913POPC   C2B26684   9.389  42.759   8.390
 1913POPC   C3B26685   9.296  42.940   8.012
 1913POPC   C4B26686   9.361  43.203   7.673
 1914POPC   NC326687  28.956  14.032   9.594
 1914POPC   PO426688  29.184  14.667   9.441
 1914POPC   GL126689  29.076  14.402   9.107
 1914POPC   GL226690  29.170  14.043   9.152
 1914POPC   C1A26691  29.005  14.512   8.685
 1914POPC   D2A26692  29.274  14.593   8.337
 1914POPC   C3A26693  29.016  14.543   8.003
 1914POPC   C4A26694  29.068  14.252   7.703
 1914POPC   C1B26695  29.444  14.014   8.833
 1914POPC   C2B26696  29.231  14.097   8.452
 1914POPC   C3B26697  29.395  14.113   8.050
 1914POPC   C4B26698  29.370  13.856   7.658
 1915POPC   NC326699  37.916  18.912   9.473
 1915POPC   PO426700  37.328  19.291   9.605
 1915POPC   GL126701  37.496  19.118   9.237
 1915POPC   GL226702  37.531  19.450   9.088
 1915POPC   C1A26703  37.660  18.972   8.823
 1915POPC   D2A26704  37.803  18.984   8.381
 1915POPC   C3A26705  37.540  19.185   8.055
 1915POPC   C4A26706  37.682  19.094   7.595
 1915POPC   C1B26707  37.767  19.458   8.689
 1915POPC   C2B26708  38.049  19.450   8.366
 1915POPC   C3B26709  38.010  19.340   7.951
 1915POPC   C4B26710  38.096  19.582   7.618
 1916POPC   NC326711  16.898  26.082   9.546
 1916POPC   PO426712  16.273  26.240   9.270
 1916POPC   GL126713  16.630  26.075   9.099
 1916POPC   GL226714  16.939  26.304   9.090
 1916POPC   C1A26715  16.699  25.983   8.679
 1916POPC   D2A26716  16.875  25.828   8.317
 1916POPC   C3A26717  16.672  26.013   7.949
 1916POPC   C4A26718  16.482  26.167   7.558
 1916POPC   C1B26719  17.177  26.132   8.764
 1916POPC   C2B26720  17.110  26.295   8.356
 1916POPC   C3B26721  17.163  26.114   7.946
 1916POPC   C4B26722  16.971  25.970   7.551
 1917POPC   NC326723  13.122  31.896   9.788
 1917POPC   PO426724  12.602  32.153   9.435
 1917POPC   GL126725  12.870  32.353   9.154
 1917POPC   GL226726  13.226  32.269   9.274
 1917POPC   C1A26727  12.717  32.316   8.721
 1917POPC   D2A26728  12.663  31.983   8.426
 1917POPC   C3A26729  12.741  32.113   8.027
 1917POPC   C4A26730  12.789  32.181   7.587
 1917POPC   C1B26731  13.220  32.243   8.798
 1917POPC   C2B26732  13.092  32.424   8.372
 1917POPC   C3B26733  13.027  32.539   7.922
 1917POPC   C4B26734  13.185  32.479   7.493
 1918POPC   NC326735  42.180   2.807   9.426
 1918POPC   PO426736  42.817   2.585   9.495
 1918POPC   GL126737  42.575   2.738   9.097
 1918POPC   GL226738  42.235   2.615   8.952
 1918POPC   C1A26739  42.583   2.837   8.639
 1918POPC   D2A26740  42.227   2.616   8.418
 1918POPC   C3A26741  42.256   2.479   7.985
 1918POPC   C4A26742  42.400   2.735   7.625
 1918POPC   C1B26743  42.099   2.986   8.771
 1918POPC   C2B26744  42.227   3.159   8.414
 1918POPC   C3B26745  42.446   2.995   8.074
 1918POPC   C4B26746  42.199   3.176   7.708
 1919POPC   NC326747  22.500  44.586   9.474
 1919POPC   PO426748  21.956  44.926   9.491
 1919POPC   GL126749  22.041  44.678   9.183
 1919POPC   GL226750  22.098  44.327   9.268
 1919POPC   C1A26751  22.276  44.855   8.842
 1919POPC   D2A26752  22.246   0.067   8.469
 1919POPC   C3A26753  22.142  44.840   8.113
 1919POPC   C4A26754  21.922   0.032   7.750
 1919POPC   C1B26755  22.160  44.354   8.819
 1919POPC   C2B26756  22.329  44.330   8.411
 1919POPC   C3B26757  22.105  44.300   8.045
 1919POPC   C4B26758  22.014  44.536   7.700
 1920POPC   NC326759  32.503  23.856   9.459
 1920POPC   PO426760  31.963  24.174   9.505
 1920POPC   GL126761  32.105  23.892   9.158
 1920POPC   GL226762  32.042  23.539   9.106
 1920POPC   C1A26763  32.400  23.956   8.805
 1920POPC   D2A26764  32.544  23.831   8.388
 1920POPC   C3A26765  32.349  24.066   8.073
 1920POPC   C4A26766  32.253  23.891   7.652
 1920POPC   C1B26767  32.126  23.568   8.640
 1920POPC   C2B26768  32.115  23.591   8.179
 1920POPC   C3B26769  32.274  23.402   7.802
 1920POPC   C4B26770  32.344  23.521   7.322
 1921POPC   NC326771   8.067  35.921   9.544
 1921POPC   PO426772   8.207  36.612   9.548
 1921POPC   GL126773   8.168  36.416   9.157
 1921POPC   GL226774   8.484  36.260   9.098
 1921POPC   C1A26775   7.925  36.340   8.777
 1921POPC   D2A26776   8.019  36.215   8.352
 1921POPC   C3A26777   7.796  36.313   7.994
 1921POPC   C4A26778   7.901  36.053   7.675
 1921POPC   C1B26779   8.434  36.246   8.665
 1921POPC   C2B26780   8.524  36.107   8.248
 1921POPC   C3B26781   8.327  35.852   7.920
 1921POPC   C4B26782   8.376  35.968   7.490
 1922POPC   NC326783  42.083  35.990   9.467
 1922POPC   PO426784  42.702  36.391   9.521
 1922POPC   GL126785  42.423  36.275   9.189
 1922POPC   GL226786  42.467  35.907   9.158
 1922POPC   C1A26787  42.167  36.149   8.808
 1922POPC   D2A26788  42.353  36.104   8.407
 1922POPC   C3A26789  42.205  36.050   7.975
 1922POPC   C4A26790  42.266  36.313   7.596
 1922POPC   C1B26791  42.548  35.746   8.788
 1922POPC   C2B26792  42.824  35.844   8.470
 1922POPC   C3B26793  42.636  35.797   8.097
 1922POPC   C4B26794  42.753  35.753   7.715
 1923POPC   NC326795  19.681  13.662   9.591
 1923POPC   PO426796  19.442  13.491   9.089
 1923POPC   GL126797  19.876  13.581   9.108
 1923POPC   GL226798  19.841  13.912   9.175
 1923POPC   C1A26799  20.043  13.513   8.720
 1923POPC   D2A26800  19.732  13.297   8.455
 1923POPC   C3A26801  19.747  13.478   8.073
 1923POPC   C4A26802  19.833  13.431   7.679
 1923POPC   C1B26803  19.760  13.970   8.754
 1923POPC   C2B26804  19.878  13.878   8.358
 1923POPC   C3B26805  19.935  14.010   7.943
 1923POPC   C4B26806  20.088  13.836   7.567
 1924POPC   NC326807  36.722  30.910   9.592
 1924POPC   PO426808  37.271  30.483   9.571
 1924POPC   GL126809  37.197  30.462   9.141
 1924POPC   GL226810  36.882  30.614   9.197
 1924POPC   C1A26811  37.057  30.464   8.699
 1924POPC   D2A26812  36.968  30.833   8.449
 1924POPC   C3A26813  36.798  30.794   8.047
 1924POPC   C4A26814  36.995  31.049   7.752
 1924POPC   C1B26815  36.669  30.797   8.865
 1924POPC   C2B26816  36.485  30.616   8.476
 1924POPC   C3B26817  36.374  30.338   8.126
 1924POPC   C4B26818  36.591  30.434   7.743
 1925POPC   NC326819   5.198  44.093   9.525
 1925POPC   PO426820   4.791  43.538   9.545
 1925POPC   GL126821   5.004  43.712   9.193
 1925POPC   GL226822   5.389  43.683   9.248
 1925POPC   C1A26823   4.862  43.853   8.786
 1925POPC   D2A26824   4.854  44.088   8.414
 1925POPC   C3A26825   5.003  43.979   8.021
 1925POPC   C4A26826   4.920  43.790   7.641
 1925POPC   C1B26827   5.372  43.969   8.879
 1925POPC   C2B26828   5.333  43.869   8.437
 1925POPC   C3B26829   5.484  43.744   8.035
 1925POPC   C4B26830   5.410  43.695   7.599
 1926POPC   NC326831   7.003  26.154   9.558
 1926POPC   PO426832   6.491  25.682   9.500
 1926POPC   GL126833   6.483  26.004   9.183
 1926POPC   GL226834   6.818  26.110   9.101
 1926POPC   C1A26835   6.476  26.074   8.733
 1926POPC   D2A26836   6.673  25.818   8.427
 1926POPC   C3A26837   6.440  25.767   8.063
 1926POPC   C4A26838   6.282  26.021   7.717
 1926POPC   C1B26839   6.920  26.346   8.747
 1926POPC   C2B26840   6.723  26.337   8.353
 1926POPC   C3B26841   6.828  26.115   7.972
 1926POPC   C4B26842   6.963  25.736   7.804
 1927POPC   NC326843  18.624   0.954   9.512
 1927POPC   PO426844  19.296   1.269   9.372
 1927POPC   GL126845  18.884   1.209   9.161
 1927POPC   GL226846  18.755   1.554   9.147
 1927POPC   C1A26847  18.799   0.939   8.786
 1927POPC   D2A26848  18.912   1.109   8.376
 1927POPC   C3A26849  18.917   0.952   7.956
 1927POPC   C4A26850  18.955   1.080   7.506
 1927POPC   C1B26851  19.050   1.472   8.763
 1927POPC   C2B26852  19.083   1.587   8.321
 1927POPC   C3B26853  19.122   1.421   7.882
 1927POPC   C4B26854  19.249   1.489   7.433
 1928POPC   NC326855   8.032   6.735   9.542
 1928POPC   PO426856   8.364   6.135   9.588
 1928POPC   GL126857   8.263   6.426   9.210
 1928POPC   GL226858   7.917   6.513   9.085
 1928POPC   C1A26859   8.340   6.732   8.880
 1928POPC   D2A26860   8.266   6.873   8.483
 1928POPC   C3A26861   8.208   6.558   8.178
 1928POPC   C4A26862   8.292   6.814   7.838
 1928POPC   C1B26863   7.836   6.860   8.759
 1928POPC   C2B26864   7.818   7.060   8.286
 1928POPC   C3B26865   7.797   7.008   7.799
 1928POPC   C4B26866   8.041   6.795   7.406
 1929POPC   NC326867  19.542  12.664   9.601
 1929POPC   PO426868  18.921  12.894   9.494
 1929POPC   GL126869  19.018  12.684   9.138
 1929POPC   GL226870  19.407  12.665   9.119
 1929POPC   C1A26871  19.093  12.593   8.739
 1929POPC   D2A26872  18.891  12.616   8.367
 1929POPC   C3A26873  18.895  12.968   8.084
 1929POPC   C4A26874  18.906  12.700   7.721
 1929POPC   C1B26875  19.530  12.900   8.757
 1929POPC   C2B26876  19.301  12.948   8.416
 1929POPC   C3B26877  19.333  12.732   8.048
 1929POPC   C4B26878  19.509  13.044   7.818
 1930POPC   NC326879   7.077  44.122   9.490
 1930POPC   PO426880   7.457  44.754   9.642
 1930POPC   GL126881   7.217  44.744   9.285
 1930POPC   GL226882   7.489  44.930   9.149
 1930POPC   C1A26883   7.300  44.538   8.886
 1930POPC   D2A26884   7.582  44.702   8.541
 1930POPC   C3A26885   7.492  44.532   8.113
 1930POPC   C4A26886   7.608  44.818   7.808
 1930POPC   C1B26887   7.196   0.042   8.846
 1930POPC   C2B26888   7.183   0.128   8.433
 1930POPC   C3B26889   7.192  44.995   8.031
 1930POPC   C4B26890   6.901  44.866   7.728
 1931POPC   NC326891  33.224  41.232   9.468
 1931POPC   PO426892  32.980  41.834   9.358
 1931POPC   GL126893  32.961  41.557   9.064
 1931POPC   GL226894  33.255  41.697   8.911
 1931POPC   C1A26895  32.781  41.512   8.661
 1931POPC   D2A26896  32.967  41.303   8.320
 1931POPC   C3A26897  32.906  41.499   7.941
 1931POPC   C4A26898  33.005  41.927   7.916
 1931POPC   C1B26899  33.278  41.246   8.781
 1931POPC   C2B26900  33.441  41.126   8.400
 1931POPC   C3B26901  33.356  41.206   7.986
 1931POPC   C4B26902  33.409  41.618   7.773
 1932POPC   NC326903  26.418   6.814   9.451
 1932POPC   PO426904  25.803   6.436   9.536
 1932POPC   GL126905  26.042   6.551   9.185
 1932POPC   GL226906  25.996   6.891   9.215
 1932POPC   C1A26907  26.247   6.436   8.795
 1932POPC   D2A26908  26.313   6.620   8.359
 1932POPC   C3A26909  26.278   6.393   7.968
 1932POPC   C4A26910  26.064   6.586   7.588
 1932POPC   C1B26911  26.180   6.939   8.819
 1932POPC   C2B26912  25.967   7.029   8.452
 1932POPC   C3B26913  26.087   7.017   8.041
 1932POPC   C4B26914  26.137   7.174   7.629
 1933POPC   NC326915   7.134   7.791   9.547
 1933POPC   PO426916   7.631   7.365   9.387
 1933POPC   GL126917   7.232   7.431   9.162
 1933POPC   GL226918   7.025   7.102   9.077
 1933POPC   C1A26919   7.313   7.672   8.793
 1933POPC   D2A26920   7.636   7.554   8.467
 1933POPC   C3A26921   7.515   7.445   8.046
 1933POPC   C4A26922   7.645   7.499   7.638
 1933POPC   C1B26923   7.320   6.991   8.805
 1933POPC   C2B26924   7.302   7.149   8.418
 1933POPC   C3B26925   7.055   7.196   8.063
 1933POPC   C4B26926   7.240   7.174   7.649
 1934POPC   NC326927   0.809  13.859   9.627
 1934POPC   PO426928   0.246  13.718   9.475
 1934POPC   GL126929   0.359  13.653   9.077
 1934POPC   GL226930   0.695  13.740   9.131
 1934POPC   C1A26931   0.275  13.410   8.736
 1934POPC   D2A26932   0.447  13.146   8.418
 1934POPC   C3A26933   0.319  13.339   8.038
 1934POPC   C4A26934   0.153  13.667   7.805
 1934POPC   C1B26935   0.778  13.534   8.740
 1934POPC   C2B26936   0.731  13.592   8.287
 1934POPC   C3B26937   0.782  13.613   7.881
 1934POPC   C4B26938   0.560  13.392   7.580
 1935POPC   NC326939  43.751  16.091   9.577
 1935POPC   PO426940  44.271  15.771   9.228
 1935POPC   GL126941  43.909  15.959   9.094
 1935POPC   GL226942  43.960  16.299   9.146
 1935POPC   C1A26943  43.849  16.000   8.670
 1935POPC   D2A26944  44.094  15.939   8.302
 1935POPC   C3A26945  43.812  15.711   8.036
 1935POPC   C4A26946  43.798  15.734   7.565
 1935POPC   C1B26947  43.979  16.494   8.756
 1935POPC   C2B26948  43.821  16.405   8.303
 1935POPC   C3B26949  43.830  16.172   7.863
 1935POPC   C4B26950  44.076  16.145   7.413
 1936POPC   NC326951  41.293  23.616   9.591
 1936POPC   PO426952  41.894  23.744   9.772
 1936POPC   GL126953  41.587  23.860   9.281
 1936POPC   GL226954  41.250  23.761   9.114
 1936POPC   C1A26955  41.653  23.784   8.799
 1936POPC   D2A26956  41.552  23.975   8.399
 1936POPC   C3A26957  41.700  23.754   8.089
 1936POPC   C4A26958  41.831  23.752   7.707
 1936POPC   C1B26959  41.186  23.977   8.742
 1936POPC   C2B26960  41.024  23.731   8.420
 1936POPC   C3B26961  41.192  23.751   8.034
 1936POPC   C4B26962  41.377  23.983   7.723
 1937POPC   NC326963  13.018  19.394   9.507
 1937POPC   PO426964  12.512  19.747   9.493
 1937POPC   GL126965  12.904  19.829   9.239
 1937POPC   GL226966  12.700  20.052   9.071
 1937POPC   C1A26967  13.092  19.879   8.791
 1937POPC   D2A26968  12.932  20.101   8.404
 1937POPC   C3A26969  13.094  19.910   8.028
 1937POPC   C4A26970  13.212  19.577   7.755
 1937POPC   C1B26971  12.631  19.640   8.841
 1937POPC   C2B26972  12.730  19.609   8.414
 1937POPC   C3B26973  12.594  19.799   8.052
 1937POPC   C4B26974  12.747  19.740   7.650
 1938POPC   NC326975  15.876   1.414   9.568
 1938POPC   PO426976  15.408   0.893   9.578
 1938POPC   GL126977  15.596   1.109   9.237
 1938POPC   GL226978  15.938   1.031   9.221
 1938POPC   C1A26979  15.650   1.334   8.838
 1938POPC   D2A26980  15.866   1.493   8.458
 1938POPC   C3A26981  15.867   1.183   8.096
 1938POPC   C4A26982  15.697   1.220   7.672
 1938POPC   C1B26983  16.144   1.181   8.852
 1938POPC   C2B26984  16.302   1.197   8.448
 1938POPC   C3B26985  16.364   0.990   8.078
 1938POPC   C4B26986  16.215   1.070   7.707
 1939POPC   NC326987  10.123  21.510   9.524
 1939POPC   PO426988   9.430  21.495   9.623
 1939POPC   GL126989   9.690  21.471   9.236
 1939POPC   GL226990   9.906  21.774   9.156
 1939POPC   C1A26991   9.657  21.354   8.778
 1939POPC   D2A26992   9.384  21.120   8.463
 1939POPC   C3A26993   9.590  21.072   8.053
 1939POPC   C4A26994   9.934  20.966   7.797
 1939POPC   C1B26995   9.579  21.871   8.899
 1939POPC   C2B26996   9.504  21.780   8.480
 1939POPC   C3B26997   9.539  21.893   8.048
 1939POPC   C4B26998   9.710  21.555   7.772
 1940POPC   NC326999  39.799  30.827   9.472
 1940POPC   PO427000  39.120  30.685   9.615
 1940POPC   GL127001  39.023  30.671   9.184
 1940POPC   GL227002  38.839  30.422   9.028
 1940POPC   C1A27003  39.112  30.782   8.751
 1940POPC   D2A27004  38.933  30.670   8.332
 1940POPC   C3A27005  39.263  30.636   8.031
 1940POPC   C4A27006  39.294  30.966   7.699
 1940POPC   C1B27007  39.033  30.285   8.677
 1940POPC   C2B27008  38.896  30.151   8.309
 1940POPC   C3B27009  38.858  30.316   7.912
 1940POPC   C4B27010  38.822  30.740   7.794
 1941POPC   NC327011  28.760  20.103   9.605
 1941POPC   PO427012  28.178  20.255   9.617
 1941POPC   GL127013  28.374  19.965   9.299
 1941POPC   GL227014  28.634  19.687   9.283
 1941POPC   C1A27015  28.434  19.929   8.865
 1941POPC   D2A27016  28.462  20.142   8.482
 1941POPC   C3A27017  28.455  19.882   8.108
 1941POPC   C4A27018  28.483  19.890   7.685
 1941POPC   C1B27019  28.707  19.501   8.854
 1941POPC   C2B27020  28.638  19.470   8.388
 1941POPC   C3B27021  28.599  19.395   7.914
 1941POPC   C4B27022  28.800  19.523   7.507
 1942POPC   NC327023   1.654  19.677   9.365
 1942POPC   PO427024   2.264  19.583   9.665
 1942POPC   GL127025   2.212  19.602   9.152
 1942POPC   GL227026   1.920  19.432   8.994
 1942POPC   C1A27027   2.117  19.774   8.683
 1942POPC   D2A27028   2.078  19.713   8.220
 1942POPC   C3A27029   2.117  19.994   7.885
 1942POPC   C4A27030   2.329  19.943   7.520
 1942POPC   C1B27031   1.589  19.584   8.714
 1942POPC   C2B27032   1.547  19.710   8.292
 1942POPC   C3B27033   1.707  19.661   7.883
 1942POPC   C4B27034   1.812  19.861   7.496
 1943POPC   NC327035  43.791  19.415   9.561
 1943POPC   PO427036  43.816  20.136   9.650
 1943POPC   GL127037  43.913  19.836   9.238
 1943POPC   GL227038  44.177  19.708   9.167
 1943POPC   C1A27039  43.833  19.828   8.738
 1943POPC   D2A27040  43.603  19.792   8.354
 1943POPC   C3A27041  43.638  20.129   8.088
 1943POPC   C4A27042  43.666  19.985   7.694
 1943POPC   C1B27043  44.315  19.788   8.721
 1943POPC   C2B27044  44.119  20.034   8.367
 1943POPC   C3B27045  44.039  19.812   7.976
 1943POPC   C4B27046  44.108  19.751   7.506
 1944POPC   NC327047   6.185  29.332   9.488
 1944POPC   PO427048   6.789  29.212   9.410
 1944POPC   GL127049   6.687  29.063   9.051
 1944POPC   GL227050   6.374  29.184   9.050
 1944POPC   C1A27051   6.754  29.236   8.644
 1944POPC   D2A27052   6.999  29.072   8.299
 1944POPC   C3A27053   6.758  29.038   7.924
 1944POPC   C4A27054   6.662  29.443   7.771
 1944POPC   C1B27055   6.263  29.069   8.670
 1944POPC   C2B27056   6.401  29.236   8.255
 1944POPC   C3B27057   6.235  29.164   7.837
 1944POPC   C4B27058   6.313  29.210   7.371
 1945POPC   NC327059  30.344   1.781   9.591
 1945POPC   PO427060  30.864   1.583   9.164
 1945POPC   GL127061  30.638   1.946   9.018
 1945POPC   GL227062  30.308   1.985   9.127
 1945POPC   C1A27063  30.419   2.149   8.653
 1945POPC   D2A27064  30.550   2.251   8.256
 1945POPC   C3A27065  30.980   2.218   8.133
 1945POPC   C4A27066  31.054   2.137   7.709
 1945POPC   C1B27067  30.266   1.688   8.778
 1945POPC   C2B27068  30.340   1.658   8.287
 1945POPC   C3B27069  30.414   1.922   7.875
 1945POPC   C4B27070  30.253   1.893   7.419
 1946POPC   NC327071  28.099   8.058   9.428
 1946POPC   PO427072  27.411   8.312   9.583
 1946POPC   GL127073  27.433   8.143   9.216
 1946POPC   GL227074  27.222   7.853   9.209
 1946POPC   C1A27075  27.702   8.155   8.887
 1946POPC   D2A27076  27.736   8.353   8.493
 1946POPC   C3A27077  27.631   8.269   8.060
 1946POPC   C4A27078  27.807   8.306   7.646
 1946POPC   C1B27079  27.205   8.034   8.779
 1946POPC   C2B27080  27.238   8.203   8.385
 1946POPC   C3B27081  27.096   8.046   8.001
 1946POPC   C4B27082  27.344   8.036   7.637
 1947POPC   NC327083  15.402  22.832   9.618
 1947POPC   PO427084  14.830  22.647   9.341
 1947POPC   GL127085  15.229  22.807   9.132
 1947POPC   GL227086  15.443  23.131   9.206
 1947POPC   C1A27087  15.260  22.871   8.699
 1947POPC   D2A27088  14.939  22.828   8.344
 1947POPC   C3A27089  15.038  22.848   7.885
 1947POPC   C4A27090  15.032  22.837   7.405
 1947POPC   C1B27091  15.349  23.357   8.810
 1947POPC   C2B27092  15.205  23.275   8.402
 1947POPC   C3B27093  15.047  23.326   8.015
 1947POPC   C4B27094  15.252  23.251   7.646
 1948POPC   NC327095  35.120  10.609   9.690
 1948POPC   PO427096  35.468  10.177   9.541
 1948POPC   GL127097  35.292  10.218   9.131
 1948POPC   GL227098  35.047  10.380   9.220
 1948POPC   C1A27099  35.314  10.401   8.694
 1948POPC   D2A27100  35.326  10.553   8.248
 1948POPC   C3A27101  35.402  10.244   7.896
 1948POPC   C4A27102  35.691  10.383   7.538
 1948POPC   C1B27103  34.878  10.585   8.880
 1948POPC   C2B27104  34.770  10.497   8.467
 1948POPC   C3B27105  34.845  10.747   8.128
 1948POPC   C4B27106  35.084  10.622   7.807
 1949POPC   NC327107  38.306   0.445   9.914
 1949POPC   PO427108  37.865   0.447   9.382
 1949POPC   GL127109  37.525   0.405   9.114
 1949POPC   GL227110  37.689   0.129   8.991
 1949POPC   C1A27111  37.504   0.483   8.667
 1949POPC   D2A27112  37.379   0.354   8.242
 1949POPC   C3A27113  37.416   0.667   7.902
 1949POPC   C4A27114  37.786   0.666   7.658
 1949POPC   C1B27115  37.653  44.997   8.603
 1949POPC   C2B27116  37.569  44.863   8.239
 1949POPC   C3B27117  37.327  44.938   7.934
 1949POPC   C4B27118  37.627   0.205   7.762
 1950POPC   NC327119  31.038  26.204   9.484
 1950POPC   PO427120  31.681  25.922   9.474
 1950POPC   GL127121  31.432  26.063   9.136
 1950POPC   GL227122  31.207  25.792   9.186
 1950POPC   C1A27123  31.400  26.185   8.691
 1950POPC   D2A27124  31.770  26.250   8.395
 1950POPC   C3A27125  31.691  26.102   7.963
 1950POPC   C4A27126  31.265  26.161   7.793
 1950POPC   C1B27127  31.247  25.695   8.754
 1950POPC   C2B27128  31.190  25.853   8.327
 1950POPC   C3B27129  31.361  25.696   7.961
 1950POPC   C4B27130  31.548  25.629   7.578
 1951POPC   NC327131  42.474  41.820   9.536
 1951POPC   PO427132  41.993  41.420   9.374
 1951POPC   GL127133  42.395  41.437   9.167
 1951POPC   GL227134  42.528  41.744   9.051
 1951POPC   C1A27135  42.456  41.314   8.740
 1951POPC   D2A27136  42.442  41.516   8.339
 1951POPC   C3A27137  42.241  41.298   7.999
 1951POPC   C4A27138  42.485  41.417   7.658
 1951POPC   C1B27139  42.219  41.832   8.781
 1951POPC   C2B27140  42.097  41.899   8.366
 1951POPC   C3B27141  42.173  41.806   7.937
 1951POPC   C4B27142  41.846  41.791   7.639
 1952POPC   NC327143  10.131  37.553   9.501
 1952POPC   PO427144   9.473  37.530   9.420
 1952POPC   GL127145   9.795  37.717   9.131
 1952POPC   GL227146  10.035  37.440   9.035
 1952POPC   C1A27147   9.710  37.990   8.748
 1952POPC   D2A27148   9.539  38.163   8.346
 1952POPC   C3A27149   9.576  37.909   7.982
 1952POPC   C4A27150   9.547  37.983   7.536
 1952POPC   C1B27151   9.760  37.461   8.695
 1952POPC   C2B27152   9.869  37.620   8.321
 1952POPC   C3B27153  10.031  37.442   7.966
 1952POPC   C4B27154   9.635  37.439   7.767
 1953POPC   NC327155  42.167   4.480   9.740
 1953POPC   PO427156  42.217   3.799   9.730
 1953POPC   GL127157  42.204   4.155   9.313
 1953POPC   GL227158  42.070   4.515   9.237
 1953POPC   C1A27159  42.500   4.279   8.903
 1953POPC   D2A27160  42.804   4.323   8.537
 1953POPC   C3A27161  42.637   4.340   8.091
 1953POPC   C4A27162  42.385   4.286   7.696
 1953POPC   C1B27163  41.996   4.293   8.842
 1953POPC   C2B27164  42.191   4.344   8.448
 1953POPC   C3B27165  42.102   4.494   8.050
 1953POPC   C4B27166  41.846   4.302   7.747
 1954POPC   NC327167   6.902  23.580   9.428
 1954POPC   PO427168   6.273  23.771   9.618
 1954POPC   GL127169   6.381  23.770   9.151
 1954POPC   GL227170   6.517  23.473   9.064
 1954POPC   C1A27171   6.385  23.870   8.694
 1954POPC   D2A27172   6.624  23.842   8.335
 1954POPC   C3A27173   6.445  23.580   8.044
 1954POPC   C4A27174   6.310  23.702   7.664
 1954POPC   C1B27175   6.825  23.574   8.747
 1954POPC   C2B27176   6.995  23.463   8.369
 1954POPC   C3B27177   6.946  23.594   7.976
 1954POPC   C4B27178   6.758  23.920   7.747
 1955POPC   NC327179  35.915  27.033   9.514
 1955POPC   PO427180  36.507  26.691   9.659
 1955POPC   GL127181  36.381  26.713   9.191
 1955POPC   GL227182  36.058  26.800   9.041
 1955POPC   C1A27183  36.482  26.851   8.765
 1955POPC   D2A27184  36.153  26.828   8.459
 1955POPC   C3A27185  36.140  26.523   8.132
 1955POPC   C4A27186  36.254  26.901   7.909
 1955POPC   C1B27187  35.731  26.753   8.727
 1955POPC   C2B27188  35.677  26.606   8.327
 1955POPC   C3B27189  35.734  26.747   7.896
 1955POPC   C4B27190  35.932  26.846   7.494
 1956POPC   NC327191  31.700  20.845   9.521
 1956POPC   PO427192  31.042  20.789   9.352
 1956POPC   GL127193  31.172  20.628   8.961
 1956POPC   GL227194  31.525  20.554   9.071
 1956POPC   C1A27195  31.373  20.437   8.572
 1956POPC   D2A27196  31.662  20.171   8.290
 1956POPC   C3A27197  31.671  20.414   7.904
 1956POPC   C4A27198  31.252  20.563   7.794
 1956POPC   C1B27199  31.562  20.907   8.766
 1956POPC   C2B27200  31.474  21.047   8.329
 1956POPC   C3B27201  31.604  20.940   7.883
 1956POPC   C4B27202  31.649  21.154   7.439
 1957POPC   NC327203   1.661  13.866   9.487
 1957POPC   PO427204   2.212  13.483   9.698
 1957POPC   GL127205   2.180  13.428   9.259
 1957POPC   GL227206   1.879  13.580   9.118
 1957POPC   C1A27207   2.225  13.382   8.809
 1957POPC   D2A27208   2.140  13.668   8.457
 1957POPC   C3A27209   2.103  13.520   8.022
 1957POPC   C4A27210   2.384  13.580   7.674
 1957POPC   C1B27211   1.664  13.676   8.703
 1957POPC   C2B27212   1.671  13.716   8.235
 1957POPC   C3B27213   1.703  13.714   7.784
 1957POPC   C4B27214   1.569  13.861   7.336
 1958POPC   NC327215  11.984   7.122   9.440
 1958POPC   PO427216  11.750   7.647   9.709
 1958POPC   GL127217  12.080   7.715   9.377
 1958POPC   GL227218  12.336   7.460   9.281
 1958POPC   C1A27219  12.103   7.708   8.921
 1958POPC   D2A27220  12.083   7.531   8.493
 1958POPC   C3A27221  11.904   7.654   8.093
 1958POPC   C4A27222  12.199   7.690   7.775
 1958POPC   C1B27223  12.329   7.249   8.844
 1958POPC   C2B27224  12.448   7.192   8.421
 1958POPC   C3B27225  12.198   7.088   8.100
 1958POPC   C4B27226  12.367   7.182   7.732
 1959POPC   NC327227  41.801   5.744   9.516
 1959POPC   PO427228  42.465   5.874   9.431
 1959POPC   GL127229  42.115   5.885   9.126
 1959POPC   GL227230  42.127   5.543   9.143
 1959POPC   C1A27231  41.940   5.774   8.687
 1959POPC   D2A27232  41.996   5.785   8.213
 1959POPC   C3A27233  42.297   6.045   7.986
 1959POPC   C4A27234  42.325   6.025   7.548
 1959POPC   C1B27235  42.429   5.612   8.775
 1959POPC   C2B27236  42.499   5.689   8.320
 1959POPC   C3B27237  42.519   5.619   7.837
 1959POPC   C4B27238  42.548   5.597   7.381
 1960POPC   NC327239  39.000  28.478   9.582
 1960POPC   PO427240  38.327  28.294   9.520
 1960POPC   GL127241  38.351  28.265   9.135
 1960POPC   GL227242  38.643  28.088   9.137
 1960POPC   C1A27243  38.240  28.475   8.741
 1960POPC   D2A27244  38.095  28.243   8.367
 1960POPC   C3A27245  38.205  28.408   7.934
 1960POPC   C4A27246  38.408  28.217   7.548
 1960POPC   C1B27247  38.712  28.316   8.770
 1960POPC   C2B27248  38.577  28.418   8.344
 1960POPC   C3B27249  38.687  28.192   7.974
 1960POPC   C4B27250  38.973  28.092   7.632
 1961POPC   NC327251  34.857  20.886   9.411
 1961POPC   PO427252  34.183  21.100   9.418
 1961POPC   GL127253  34.458  20.813   9.112
 1961POPC   GL227254  34.644  20.468   9.163
 1961POPC   C1A27255  34.719  20.713   8.731
 1961POPC   D2A27256  34.952  20.567   8.376
 1961POPC   C3A27257  34.702  20.608   8.016
 1961POPC   C4A27258  34.286  20.771   7.865
 1961POPC   C1B27259  34.362  20.338   8.814
 1961POPC   C2B27260  34.409  20.399   8.393
 1961POPC   C3B27261  34.169  20.314   8.033
 1961POPC   C4B27262  33.944  20.427   7.700
 1962POPC   NC327263   7.610  42.714   9.580
 1962POPC   PO427264   7.312  42.077   9.494
 1962POPC   GL127265   7.234  42.361   9.184
 1962POPC   GL227266   7.149  42.710   9.289
 1962POPC   C1A27267   7.496  42.508   8.868
 1962POPC   D2A27268   7.594  42.423   8.440
 1962POPC   C3A27269   7.432  42.130   8.149
 1962POPC   C4A27270   7.448  42.288   7.726
 1962POPC   C1B27271   7.031  42.765   8.836
 1962POPC   C2B27272   7.188  42.811   8.399
 1962POPC   C3B27273   7.124  42.559   8.015
 1962POPC   C4B27274   7.055  42.554   7.553
 1963POPC   NC327275  19.251  38.846   9.569
 1963POPC   PO427276  18.883  39.321   9.724
 1963POPC   GL127277  19.056  39.360   9.282
 1963POPC   GL227278  19.051  39.030   9.118
 1963POPC   C1A27279  18.942  39.447   8.834
 1963POPC   D2A27280  18.919  39.248   8.400
 1963POPC   C3A27281  18.837  39.504   8.044
 1963POPC   C4A27282  18.885  39.309   7.656
 1963POPC   C1B27283  19.290  39.079   8.719
 1963POPC   C2B27284  19.489  39.209   8.360
 1963POPC   C3B27285  19.313  39.267   7.952
 1963POPC   C4B27286  19.392  39.112   7.532
 1964POPC   NC327287  18.721  31.683   9.487
 1964POPC   PO427288  19.359  31.328   9.458
 1964POPC   GL127289  19.102  31.535   9.094
 1964POPC   GL227290  18.767  31.407   9.077
 1964POPC   C1A27291  18.989  31.472   8.631
 1964POPC   D2A27292  19.184  31.199   8.327
 1964POPC   C3A27293  19.372  31.435   8.036
 1964POPC   C4A27294  19.164  31.672   7.727
 1964POPC   C1B27295  18.654  31.806   8.848
 1964POPC   C2B27296  18.697  31.861   8.420
 1964POPC   C3B27297  18.810  31.556   8.103
 1964POPC   C4B27298  18.606  31.509   7.703
 1965POPC   NC327299  44.958  43.765   9.448
 1965POPC   PO427300   0.659  43.948   9.418
 1965POPC   GL127301   0.346  43.837   9.118
 1965POPC   GL227302   0.132  44.138   9.150
 1965POPC   C1A27303   0.215  43.902   8.684
 1965POPC   D2A27304   0.337  43.661   8.344
 1965POPC   C3A27305   0.666  43.878   8.133
 1965POPC   C4A27306   0.825  43.797   7.745
 1965POPC   C1B27307   0.268  44.412   8.829
 1965POPC   C2B27308   0.101  44.387   8.434
 1965POPC   C3B27309   0.164  44.097   8.110
 1965POPC   C4B27310   0.291  44.051   7.694
 1966POPC   NC327311  20.447  23.077   9.534
 1966POPC   PO427312  20.714  22.504   9.756
 1966POPC   GL127313  20.717  22.655   9.313
 1966POPC   GL227314  20.399  22.780   9.130
 1966POPC   C1A27315  20.869  22.691   8.887
 1966POPC   D2A27316  20.776  22.949   8.528
 1966POPC   C3A27317  20.690  22.706   8.150
 1966POPC   C4A27318  20.862  22.852   7.750
 1966POPC   C1B27319  20.342  23.074   8.772
 1966POPC   C2B27320  20.269  22.963   8.324
 1966POPC   C3B27321  20.365  23.024   7.867
 1966POPC   C4B27322  20.216  23.010   7.444
 1967POPC   NC327323  37.927  26.424   9.789
 1967POPC   PO427324  37.593  25.858   9.533
 1967POPC   GL127325  37.679  25.993   9.112
 1967POPC   GL227326  37.722  26.364   9.204
 1967POPC   C1A27327  37.659  25.872   8.645
 1967POPC   D2A27328  37.521  25.986   8.245
 1967POPC   C3A27329  37.731  25.836   7.900
 1967POPC   C4A27330  37.524  25.804   7.493
 1967POPC   C1B27331  37.779  26.362   8.743
 1967POPC   C2B27332  37.896  26.541   8.359
 1967POPC   C3B27333  37.700  26.582   7.988
 1967POPC   C4B27334  37.598  26.291   7.667
 1968POPC   NC327335  23.243  28.746   9.512
 1968POPC   PO427336  23.113  29.506   9.490
 1968POPC   GL127337  23.007  29.389   9.104
 1968POPC   GL227338  22.969  29.070   9.138
 1968POPC   C1A27339  23.019  29.354   8.690
 1968POPC   D2A27340  22.832  29.528   8.359
 1968POPC   C3A27341  22.957  29.309   8.026
 1968POPC   C4A27342  22.726  29.298   7.659
 1968POPC   C1B27343  22.826  28.882   8.756
 1968POPC   C2B27344  23.015  28.687   8.392
 1968POPC   C3B27345  22.837  28.801   7.993
 1968POPC   C4B27346  22.757  28.800   7.546
 1969POPC   NC327347  22.828   6.578   9.582
 1969POPC   PO427348  23.290   6.992   9.415
 1969POPC   GL127349  22.909   6.779   9.127
 1969POPC   GL227350  22.612   6.475   9.143
 1969POPC   C1A27351  22.961   6.875   8.689
 1969POPC   D2A27352  23.276   6.708   8.395
 1969POPC   C3A27353  23.208   6.791   7.977
 1969POPC   C4A27354  22.862   7.042   7.818
 1969POPC   C1B27355  22.535   6.593   8.728
 1969POPC   C2B27356  22.753   6.576   8.328
 1969POPC   C3B27357  22.735   6.530   7.899
 1969POPC   C4B27358  22.552   6.138   7.735
 1970POPC   NC327359  22.610  32.528   9.322
 1970POPC   PO427360  22.752  33.195   9.493
 1970POPC   GL127361  23.143  33.120   9.241
 1970POPC   GL227362  23.313  32.779   9.269
 1970POPC   C1A27363  23.176  33.325   8.833
 1970POPC   D2A27364  22.921  33.381   8.408
 1970POPC   C3A27365  23.113  33.325   7.984
 1970POPC   C4A27366  23.165  33.191   7.555
 1970POPC   C1B27367  23.096  32.745   8.875
 1970POPC   C2B27368  23.247  32.713   8.445
 1970POPC   C3B27369  23.027  32.846   8.093
 1970POPC   C4B27370  22.907  32.724   7.691
 1971POPC   NC327371  32.931  13.485   9.580
 1971POPC   PO427372  33.243  13.984   9.414
 1971POPC   GL127373  33.004  13.687   9.116
 1971POPC   GL227374  32.809  13.322   9.108
 1971POPC   C1A27375  33.150  13.595   8.737
 1971POPC   D2A27376  33.008  13.802   8.401
 1971POPC   C3A27377  33.287  13.717   8.098
 1971POPC   C4A27378  33.095  13.638   7.740
 1971POPC   C1B27379  32.655  13.475   8.674
 1971POPC   C2B27380  32.589  13.538   8.214
 1971POPC   C3B27381  32.653  13.418   7.790
 1971POPC   C4B27382  32.748  13.508   7.332
 1972POPC   NC327383  10.925  31.057   9.991
 1972POPC   PO427384  11.199  30.690   9.497
 1972POPC   GL127385  11.088  30.559   9.123
 1972POPC   GL227386  11.414  30.628   9.020
 1972POPC   C1A27387  11.043  30.653   8.678
 1972POPC   D2A27388  11.395  30.659   8.442
 1972POPC   C3A27389  11.228  30.645   8.026
 1972POPC   C4A27390  11.258  30.701   7.586
 1972POPC   C1B27391  11.676  30.337   8.882
 1972POPC   C2B27392  11.826  30.284   8.497
 1972POPC   C3B27393  11.629  30.281   8.130
 1972POPC   C4B27394  11.695  30.534   7.832
 1973POPC   NC327395  43.592   9.672   9.347
 1973POPC   PO427396  44.246   9.480   9.402
 1973POPC   GL127397  44.009   9.555   9.068
 1973POPC   GL227398  43.957   9.922   9.048
 1973POPC   C1A27399  43.744   9.617   8.705
 1973POPC   D2A27400  43.570   9.879   8.391
 1973POPC   C3A27401  43.681   9.717   8.021
 1973POPC   C4A27402  43.867   9.673   7.659
 1973POPC   C1B27403  43.938  10.142   8.659
 1973POPC   C2B27404  44.042  10.034   8.230
 1973POPC   C3B27405  44.077  10.121   7.793
 1973POPC   C4B27406  44.135  10.006   7.324
 1974POPC   NC327407  21.695   4.362   9.517
 1974POPC   PO427408  22.366   4.549   9.572
 1974POPC   GL127409  22.197   4.283   9.281
 1974POPC   GL227410  21.970   4.539   9.101
 1974POPC   C1A27411  22.286   4.151   8.872
 1974POPC   D2A27412  22.198   4.359   8.477
 1974POPC   C3A27413  22.093   4.161   8.085
 1974POPC   C4A27414  22.415   4.038   7.828
 1974POPC   C1B27415  22.032   4.799   8.699
 1974POPC   C2B27416  22.051   4.783   8.208
 1974POPC   C3B27417  21.948   4.627   7.778
 1974POPC   C4B27418  21.745   4.607   7.335
 1975POPC   NC327419   2.078   6.274   9.570
 1975POPC   PO427420   1.901   6.916   9.583
 1975POPC   GL127421   1.810   6.684   9.226
 1975POPC   GL227422   2.118   6.550   9.138
 1975POPC   C1A27423   1.820   6.800   8.795
 1975POPC   D2A27424   1.791   6.621   8.399
 1975POPC   C3A27425   1.760   6.859   8.045
 1975POPC   C4A27426   1.868   6.584   7.783
 1975POPC   C1B27427   2.428   6.320   8.895
 1975POPC   C2B27428   2.427   6.196   8.481
 1975POPC   C3B27429   2.240   6.394   8.132
 1975POPC   C4B27430   2.304   6.311   7.698
 1976POPC   NC327431  41.316  29.646   9.369
 1976POPC   PO427432  41.620  30.211   9.520
 1976POPC   GL127433  41.649  30.035   9.140
 1976POPC   GL227434  41.714  30.360   9.007
 1976POPC   C1A27435  41.628  29.811   8.766
 1976POPC   D2A27436  41.781  29.627   8.420
 1976POPC   C3A27437  41.675  29.819   8.077
 1976POPC   C4A27438  41.590  29.963   7.678
 1976POPC   C1B27439  41.361  30.268   8.754
 1976POPC   C2B27440  41.318  30.068   8.368
 1976POPC   C3B27441  41.236  30.172   7.965
 1976POPC   C4B27442  41.175  30.173   7.514
 1977POPC   NC327443  14.799  16.277   9.504
 1977POPC   PO427444  15.352  15.890   9.532
 1977POPC   GL127445  15.117  15.919   9.165
 1977POPC   GL227446  14.930  15.605   9.142
 1977POPC   C1A27447  15.256  16.058   8.766
 1977POPC   D2A27448  15.466  15.853   8.451
 1977POPC   C3A27449  15.435  15.969   8.038
 1977POPC   C4A27450  15.372  15.897   7.621
 1977POPC   C1B27451  14.845  15.771   8.709
 1977POPC   C2B27452  14.965  15.919   8.300
 1977POPC   C3B27453  15.009  15.655   7.938
 1977POPC   C4B27454  14.952  15.593   7.506
 1978POPC   NC327455   8.452  43.283   9.434
 1978POPC   PO427456   7.769  43.141   9.458
 1978POPC   GL127457   8.037  43.158   9.143
 1978POPC   GL227458   7.861  43.395   8.986
 1978POPC   C1A27459   8.192  42.918   8.774
 1978POPC   D2A27460   8.031  42.678   8.421
 1978POPC   C3A27461   8.144  42.833   8.048
 1978POPC   C4A27462   8.437  42.820   7.725
 1978POPC   C1B27463   8.285  43.450   8.798
 1978POPC   C2B27464   8.466  43.374   8.403
 1978POPC   C3B27465   8.436  43.270   7.997
 1978POPC   C4B27466   8.109  43.222   7.715
 1979POPC   NC327467  26.539   4.238   9.539
 1979POPC   PO427468  27.152   4.550   9.509
 1979POPC   GL127469  26.904   4.369   9.162
 1979POPC   GL227470  26.575   4.524   9.121
 1979POPC   C1A27471  27.004   4.117   8.780
 1979POPC   D2A27472  26.958   3.821   8.415
 1979POPC   C3A27473  26.969   4.101   8.064
 1979POPC   C4A27474  26.905   4.345   7.681
 1979POPC   C1B27475  26.676   4.631   8.713
 1979POPC   C2B27476  26.628   4.447   8.304
 1979POPC   C3B27477  26.536   4.627   7.909
 1979POPC   C4B27478  26.528   4.631   7.437
 1980POPC   NC327479  20.423  18.022   9.448
 1980POPC   PO427480  21.102  18.112   9.378
 1980POPC   GL127481  20.745  18.273   9.096
 1980POPC   GL227482  20.461  18.504   9.223
 1980POPC   C1A27483  20.596  18.267   8.656
 1980POPC   D2A27484  20.475  18.127   8.219
 1980POPC   C3A27485  20.771  18.280   7.869
 1980POPC   C4A27486  20.943  18.702   7.724
 1980POPC   C1B27487  20.388  18.748   8.847
 1980POPC   C2B27488  20.276  18.625   8.463
 1980POPC   C3B27489  20.549  18.644   8.137
 1980POPC   C4B27490  20.444  18.628   7.712
 1981POPC   NC327491  27.260   6.322   9.331
 1981POPC   PO427492  27.114   5.549   9.476
 1981POPC   GL127493  26.841   5.731   9.121
 1981POPC   GL227494  26.889   6.089   9.056
 1981POPC   C1A27495  26.465   5.876   8.863
 1981POPC   D2A27496  26.414   6.084   8.458
 1981POPC   C3A27497  26.626   5.873   8.138
 1981POPC   C4A27498  26.658   6.028   7.754
 1981POPC   C1B27499  26.921   6.025   8.604
 1981POPC   C2B27500  27.076   6.141   8.188
 1981POPC   C3B27501  27.135   5.897   7.804
 1981POPC   C4B27502  26.974   5.733   7.422
 1982POPC   NC327503  44.034  42.560   9.614
 1982POPC   PO427504  43.569  42.167   9.458
 1982POPC   GL127505  43.803  42.033   9.126
 1982POPC   GL227506  44.178  42.138   9.166
 1982POPC   C1A27507  43.689  42.158   8.723
 1982POPC   D2A27508  43.620  42.522   8.499
 1982POPC   C3A27509  43.691  42.366   8.089
 1982POPC   C4A27510  43.489  42.362   7.712
 1982POPC   C1B27511  44.109  42.420   8.829
 1982POPC   C2B27512  44.115  42.543   8.380
 1982POPC   C3B27513  44.194  42.438   7.966
 1982POPC   C4B27514  44.260  42.643   7.561
 1983POPC   NC327515   7.796  40.919   9.456
 1983POPC   PO427516   7.784  40.320   9.475
 1983POPC   GL127517   7.483  40.614   9.209
 1983POPC   GL227518   7.172  40.616   9.047
 1983POPC   C1A27519   7.538  40.915   8.841
 1983POPC   D2A27520   7.486  40.714   8.413
 1983POPC   C3A27521   7.775  40.800   8.086
 1983POPC   C4A27522   7.639  40.998   7.718
 1983POPC   C1B27523   7.059  40.907   8.693
 1983POPC   C2B27524   7.158  41.064   8.272
 1983POPC   C3B27525   7.217  40.817   7.897
 1983POPC   C4B27526   7.121  40.813   7.447
 1984POPC   NC327527  30.022  17.998   9.454
 1984POPC   PO427528  29.739  18.683   9.390
 1984POPC   GL127529  30.001  18.423   9.134
 1984POPC   GL227530  29.754  18.179   9.068
 1984POPC   C1A27531  30.152  18.292   8.723
 1984POPC   D2A27532  30.074  18.003   8.402
 1984POPC   C3A27533  29.886  18.202   8.040
 1984POPC   C4A27534  30.071  18.131   7.685
 1984POPC   C1B27535  29.647  17.983   8.696
 1984POPC   C2B27536  29.554  18.269   8.432
 1984POPC   C3B27537  29.448  18.450   8.088
 1984POPC   C4B27538  29.339  18.260   7.780
 1985POPC   NC327539   0.001  19.649   9.342
 1985POPC   PO427540   0.633  19.990   9.601
 1985POPC   GL127541   0.442  20.040   9.180
 1985POPC   GL227542   0.097  20.093   9.122
 1985POPC   C1A27543   0.434  19.834   8.779
 1985POPC   D2A27544   0.334  19.628   8.399
 1985POPC   C3A27545   0.590  19.798   8.083
 1985POPC   C4A27546   0.497  20.008   7.696
 1985POPC   C1B27547  44.947  19.971   8.700
 1985POPC   C2B27548  44.870  19.983   8.252
 1985POPC   C3B27549   0.082  19.793   7.890
 1985POPC   C4B27550   0.091  19.871   7.401
 1986POPC   NC327551   6.837  42.110   9.474
 1986POPC   PO427552   6.669  42.754   9.499
 1986POPC   GL127553   6.725  42.455   9.108
 1986POPC   GL227554   6.455  42.213   9.035
 1986POPC   C1A27555   6.900  42.058   8.828
 1986POPC   D2A27556   6.654  41.861   8.457
 1986POPC   C3A27557   6.692  42.113   8.057
 1986POPC   C4A27558   6.803  42.137   7.591
 1986POPC   C1B27559   6.600  42.412   8.607
 1986POPC   C2B27560   6.663  42.683   8.230
 1986POPC   C3B27561   6.596  42.551   7.802
 1986POPC   C4B27562   6.597  42.667   7.371
 1987POPC   NC327563  43.153  36.450   9.622
 1987POPC   PO427564  43.291  35.741   9.491
 1987POPC   GL127565  43.253  36.132   9.231
 1987POPC   GL227566  42.933  36.096   9.164
 1987POPC   C1A27567  43.238  36.286   8.794
 1987POPC   D2A27568  43.325  36.058   8.407
 1987POPC   C3A27569  43.175  36.163   7.994
 1987POPC   C4A27570  43.174  36.005   7.574
 1987POPC   C1B27571  42.728  36.234   8.779
 1987POPC   C2B27572  42.800  36.338   8.312
 1987POPC   C3B27573  42.685  36.238   7.863
 1987POPC   C4B27574  42.733  36.152   7.392
 1988POPC   NC327575  26.416  37.400   9.561
 1988POPC   PO427576  25.874  37.002   9.363
 1988POPC   GL127577  26.009  36.952   8.987
 1988POPC   GL227578  26.293  37.210   9.049
 1988POPC   C1A27579  25.813  36.863   8.593
 1988POPC   D2A27580  26.043  36.897   8.190
 1988POPC   C3A27581  25.846  36.902   7.803
 1988POPC   C4A27582  25.820  36.784   7.386
 1988POPC   C1B27583  26.351  37.047   8.623
 1988POPC   C2B27584  26.553  36.783   8.307
 1988POPC   C3B27585  26.469  36.775   7.885
 1988POPC   C4B27586  26.302  36.867   7.493
 1989POPC   NC327587  32.225   8.527   9.383
 1989POPC   PO427588  32.467   9.165   9.487
 1989POPC   GL127589  32.234   9.017   9.145
 1989POPC   GL227590  31.936   9.215   9.071
 1989POPC   C1A27591  32.101   8.844   8.747
 1989POPC   D2A27592  32.002   8.802   8.313
 1989POPC   C3A27593  32.297   8.869   8.004
 1989POPC   C4A27594  32.558   8.910   7.671
 1989POPC   C1B27595  31.915   9.368   8.662
 1989POPC   C2B27596  31.897   9.320   8.217
 1989POPC   C3B27597  31.805   9.038   7.859
 1989POPC   C4B27598  31.711   9.085   7.391
 1990POPC   NC327599   7.782   1.059   9.804
 1990POPC   PO427600   7.156   1.277   9.580
 1990POPC   GL127601   7.491   1.211   9.249
 1990POPC   GL227602   7.519   0.899   9.068
 1990POPC   C1A27603   7.374   1.268   8.783
 1990POPC   D2A27604   7.136   1.010   8.502
 1990POPC   C3A27605   7.257   1.102   8.082
 1990POPC   C4A27606   7.388   1.432   7.789
 1990POPC   C1B27607   7.774   0.775   8.794
 1990POPC   C2B27608   7.635   0.917   8.440
 1990POPC   C3B27609   7.671   0.797   8.066
 1990POPC   C4B27610   7.619   0.977   7.721
 1991POPC   NC327611  18.511   8.080   9.530
 1991POPC   PO427612  17.897   7.913   9.450
 1991POPC   GL127613  18.139   8.188   9.153
 1991POPC   GL227614  18.531   8.252   9.068
 1991POPC   C1A27615  18.126   8.051   8.721
 1991POPC   D2A27616  18.176   8.292   8.352
 1991POPC   C3A27617  17.980   8.201   7.992
 1991POPC   C4A27618  18.356   8.070   7.840
 1991POPC   C1B27619  18.324   8.519   8.782
 1991POPC   C2B27620  18.417   8.768   8.461
 1991POPC   C3B27621  18.252   8.730   8.087
 1991POPC   C4B27622  18.367   8.559   7.760
 1992POPC   NC327623  18.215  32.546   9.473
 1992POPC   PO427624  18.331  31.922   9.669
 1992POPC   GL127625  18.347  32.060   9.231
 1992POPC   GL227626  17.983  32.057   9.229
 1992POPC   C1A27627  18.294  32.378   8.865
 1992POPC   D2A27628  18.424  32.580   8.474
 1992POPC   C3A27629  18.104  32.520   8.157
 1992POPC   C4A27630  18.102  32.300   7.766
 1992POPC   C1B27631  17.982  31.985   8.802
 1992POPC   C2B27632  18.230  32.063   8.407
 1992POPC   C3B27633  18.385  31.925   7.988
 1992POPC   C4B27634  18.169  31.789   7.614
 1993POPC   NC327635  17.004  41.443   9.708
 1993POPC   PO427636  16.379  41.475   9.528
 1993POPC   GL127637  16.586  41.702   9.217
 1993POPC   GL227638  16.843  41.473   9.193
 1993POPC   C1A27639  16.730  41.798   8.787
 1993POPC   D2A27640  16.961  41.770   8.403
 1993POPC   C3A27641  16.688  41.714   8.034
 1993POPC   C4A27642  16.704  41.831   7.610
 1993POPC   C1B27643  16.827  41.280   8.777
 1993POPC   C2B27644  17.109  41.274   8.424
 1993POPC   C3B27645  17.048  41.308   7.989
 1993POPC   C4B27646  16.709  41.101   7.775
 1994POPC   NC327647  44.739  15.169   9.618
 1994POPC   PO427648  44.291  15.643   9.735
 1994POPC   GL127649  44.385  15.287   9.292
 1994POPC   GL227650  44.747  15.178   9.123
 1994POPC   C1A27651  44.362  15.113   8.821
 1994POPC   D2A27652  44.626  15.121   8.444
 1994POPC   C3A27653  44.483  15.082   8.024
 1994POPC   C4A27654  44.500  15.163   7.582
 1994POPC   C1B27655   0.091  15.163   8.812
 1994POPC   C2B27656   0.134  15.368   8.440
 1994POPC   C3B27657  44.988  15.211   8.089
 1994POPC   C4B27658  44.885  14.884   7.813
 1995POPC   NC327659  14.809  21.217   9.489
 1995POPC   PO427660  14.044  21.277   9.574
 1995POPC   GL127661  14.135  21.467   9.179
 1995POPC   GL227662  14.462  21.355   9.152
 1995POPC   C1A27663  14.218  21.445   8.726
 1995POPC   D2A27664  14.400  21.315   8.367
 1995POPC   C3A27665  14.158  21.426   8.028
 1995POPC   C4A27666  14.233  21.298   7.627
 1995POPC   C1B27667  14.780  21.452   8.839
 1995POPC   C2B27668  14.927  21.220   8.504
 1995POPC   C3B27669  14.822  21.209   8.087
 1995POPC   C4B27670  14.752  21.180   7.670
 1996POPC   NC327671  21.946  10.497   9.510
 1996POPC   PO427672  22.508  10.194   9.578
 1996POPC   GL127673  22.256  10.231   9.205
 1996POPC   GL227674  22.282  10.598   9.071
 1996POPC   C1A27675  22.044  10.263   8.799
 1996POPC   D2A27676  22.257  10.390   8.430
 1996POPC   C3A27677  22.101  10.239   8.042
 1996POPC   C4A27678  22.312  10.070   7.686
 1996POPC   C1B27679  22.068  10.829   8.728
 1996POPC   C2B27680  22.092  10.866   8.278
 1996POPC   C3B27681  22.374  10.679   7.980
 1996POPC   C4B27682  22.245  10.569   7.583
 1997POPC   NC327683  29.697   0.956  10.086
 1997POPC   PO427684  29.820   1.089   9.418
 1997POPC   GL127685  30.042   1.189   9.083
 1997POPC   GL227686  30.080   1.530   9.221
 1997POPC   C1A27687  30.056   1.236   8.640
 1997POPC   D2A27688  29.872   1.089   8.276
 1997POPC   C3A27689  30.118   1.099   7.894
 1997POPC   C4A27690  30.028   0.931   7.487
 1997POPC   C1B27691  29.765   1.579   8.892
 1997POPC   C2B27692  29.590   1.528   8.479
 1997POPC   C3B27693  29.839   1.581   8.096
 1997POPC   C4B27694  29.921   1.503   7.671
 1998POPC   NC327695  39.759  10.506   9.498
 1998POPC   PO427696  40.392  10.394   9.428
 1998POPC   GL127697  40.147  10.539   9.098
 1998POPC   GL227698  39.844  10.447   9.004
 1998POPC   C1A27699  40.168  10.668   8.674
 1998POPC   D2A27700  39.960  10.443   8.310
 1998POPC   C3A27701  40.081  10.583   7.888
 1998POPC   C4A27702  40.073  10.444   7.473
 1998POPC   C1B27703  39.660  10.729   8.662
 1998POPC   C2B27704  39.595  10.765   8.190
 1998POPC   C3B27705  39.587  10.436   7.855
 1998POPC   C4B27706  39.562  10.523   7.407
 1999POPC   NC327707   8.518  42.287   9.494
 1999POPC   PO427708   7.891  42.345   9.565
 1999POPC   GL127709   8.090  42.327   9.172
 1999POPC   GL227710   8.361  42.117   9.057
 1999POPC   C1A27711   7.982  42.292   8.760
 1999POPC   D2A27712   8.190  42.175   8.423
 1999POPC   C3A27713   7.942  42.187   8.114
 1999POPC   C4A27714   7.930  42.435   7.807
 1999POPC   C1B27715   8.497  42.430   8.784
 1999POPC   C2B27716   8.542  42.569   8.366
 1999POPC   C3B27717   8.420  42.379   7.988
 1999POPC   C4B27718   8.659  42.370   7.611
 2000POPC   NC327719  37.898  33.409   9.633
 2000POPC   PO427720  37.627  32.745   9.590
 2000POPC   GL127721  37.719  32.845   9.199
 2000POPC   GL227722  37.948  33.135   9.166
 2000POPC   C1A27723  37.538  32.889   8.833
 2000POPC   D2A27724  37.622  33.075   8.466
 2000POPC   C3A27725  37.479  32.833   8.161
 2000POPC   C4A27726  37.449  33.041   7.822
 2000POPC   C1B27727  38.031  32.922   8.744
 2000POPC   C2B27728  37.984  32.727   8.310
 2000POPC   C3B27729  37.868  32.744   7.853
 2000POPC   C4B27730  37.850  32.615   7.378
 2001POPC   NC327731   3.041  42.199   9.616
 2001POPC   PO427732   2.562  42.575   9.598
 2001POPC   GL127733   2.598  42.401   9.179
 2001POPC   GL227734   2.950  42.333   9.125
 2001POPC   C1A27735   2.524  42.312   8.738
 2001POPC   D2A27736   2.761  42.270   8.344
 2001POPC   C3A27737   2.567  42.442   7.969
 2001POPC   C4A27738   2.149  42.319   7.817
 2001POPC   C1B27739   3.172  42.473   8.745
 2001POPC   C2B27740   3.152  42.593   8.332
 2001POPC   C3B27741   3.224  42.483   7.927
 2001POPC   C4B27742   2.972  42.308   7.600
 2002POPC   NC327743  19.345  17.626   9.489
 2002POPC   PO427744  18.677  17.934   9.436
 2002POPC   GL127745  18.887  17.587   9.139
 2002POPC   GL227746  19.113  17.303   9.130
 2002POPC   C1A27747  19.090  17.563   8.704
 2002POPC   D2A27748  18.889  17.379   8.315
 2002POPC   C3A27749  19.074  17.577   7.939
 2002POPC   C4A27750  19.033  17.579   7.490
 2002POPC   C1B27751  19.081  17.069   8.766
 2002POPC   C2B27752  19.356  17.220   8.423
 2002POPC   C3B27753  19.326  17.145   8.023
 2002POPC   C4B27754  19.432  17.306   7.642
 2003POPC   NC327755  18.681  27.691   9.498
 2003POPC   PO427756  18.067  27.820   9.529
 2003POPC   GL127757  18.212  27.465   9.276
 2003POPC   GL227758  18.356  27.724   9.115
 2003POPC   C1A27759  18.394  27.303   8.862
 2003POPC   D2A27760  18.297  27.485   8.468
 2003POPC   C3A27761  18.464  27.444   8.063
 2003POPC   C4A27762  18.496  27.235   7.650
 2003POPC   C1B27763  18.251  27.917   8.782
 2003POPC   C2B27764  18.465  27.960   8.421
 2003POPC   C3B27765  18.225  27.908   8.092
 2003POPC   C4B27766  18.312  27.778   7.709
 2004POPC   NC327767  23.309  35.787   9.526
 2004POPC   PO427768  23.901  35.989   9.643
 2004POPC   GL127769  23.614  36.110   9.241
 2004POPC   GL227770  23.490  35.833   9.061
 2004POPC   C1A27771  23.543  36.218   8.745
 2004POPC   D2A27772  23.738  36.119   8.325
 2004POPC   C3A27773  23.584  36.066   7.887
 2004POPC   C4A27774  23.401  36.401   7.622
 2004POPC   C1B27775  23.756  35.746   8.711
 2004POPC   C2B27776  23.945  35.658   8.303
 2004POPC   C3B27777  24.054  35.843   7.915
 2004POPC   C4B27778  23.885  35.748   7.501
 2005POPC   NC327779   6.422   3.908   9.614
 2005POPC   PO427780   6.749   3.321   9.603
 2005POPC   GL127781   6.729   3.606   9.300
 2005POPC   GL227782   7.021   3.496   9.129
 2005POPC   C1A27783   6.601   3.678   8.902
 2005POPC   D2A27784   6.387   3.902   8.605
 2005POPC   C3A27785   6.333   3.791   8.164
 2005POPC   C4A27786   6.234   3.740   7.701
 2005POPC   C1B27787   7.017   3.394   8.726
 2005POPC   C2B27788   6.733   3.564   8.416
 2005POPC   C3B27789   6.802   3.675   8.003
 2005POPC   C4B27790   6.919   3.466   7.647
 2006POPC   NC327791  21.194  10.732   9.480
 2006POPC   PO427792  21.557  10.140   9.573
 2006POPC   GL127793  21.497  10.403   9.220
 2006POPC   GL227794  21.133  10.404   9.101
 2006POPC   C1A27795  21.541  10.507   8.799
 2006POPC   D2A27796  21.574  10.767   8.473
 2006POPC   C3A27797  21.503  10.537   8.110
 2006POPC   C4A27798  21.756  10.482   7.744
 2006POPC   C1B27799  21.128  10.839   8.844
 2006POPC   C2B27800  21.009  10.971   8.413
 2006POPC   C3B27801  20.913  10.984   7.964
 2006POPC   C4B27802  21.266  10.788   7.736
 2007POPC   NC327803   7.979  35.112   9.327
 2007POPC   PO427804   8.583  35.183   9.552
 2007POPC   GL127805   8.406  35.431   9.204
 2007POPC   GL227806   8.084  35.588   9.172
 2007POPC   C1A27807   8.285  35.327   8.767
 2007POPC   D2A27808   7.924  35.281   8.473
 2007POPC   C3A27809   8.090  35.256   8.060
 2007POPC   C4A27810   8.165  34.984   7.713
 2007POPC   C1B27811   8.143  35.844   8.830
 2007POPC   C2B27812   8.192  35.731   8.413
 2007POPC   C3B27813   7.859  35.721   8.126
 2007POPC   C4B27814   7.798  35.553   7.721
 2008POPC   NC327815  35.382  24.816   9.678
 2008POPC   PO427816  35.595  24.247   9.466
 2008POPC   GL127817  35.283  24.399   9.175
 2008POPC   GL227818  35.213  24.747   9.172
 2008POPC   C1A27819  35.288  24.244   8.740
 2008POPC   D2A27820  35.425  24.419   8.352
 2008POPC   C3A27821  35.256  24.262   7.991
 2008POPC   C4A27822  35.256  24.460   7.575
 2008POPC   C1B27823  35.300  24.764   8.760
 2008POPC   C2B27824  35.057  24.751   8.409
 2008POPC   C3B27825  35.172  24.786   7.984
 2008POPC   C4B27826  35.015  24.929   7.601
 2009POPC   NC327827  36.139  30.282   9.581
 2009POPC   PO427828  36.442  29.672   9.754
 2009POPC   GL127829  36.347  29.924   9.287
 2009POPC   GL227830  36.040  30.033   9.156
 2009POPC   C1A27831  36.349  29.859   8.803
 2009POPC   D2A27832  36.198  29.609   8.470
 2009POPC   C3A27833  36.257  29.774   8.093
 2009POPC   C4A27834  36.126  29.667   7.698
 2009POPC   C1B27835  35.848  29.905   8.769
 2009POPC   C2B27836  35.906  30.047   8.372
 2009POPC   C3B27837  35.869  30.074   7.963
 2009POPC   C4B27838  36.166  30.186   7.677
 2010POPC   NC327839   3.328  25.132   9.802
 2010POPC   PO427840   3.831  25.430   9.513
 2010POPC   GL127841   3.735  25.332   9.113
 2010POPC   GL227842   3.381  25.432   9.210
 2010POPC   C1A27843   3.840  25.519   8.709
 2010POPC   D2A27844   4.007  25.344   8.291
 2010POPC   C3A27845   3.713  25.396   7.929
 2010POPC   C4A27846   3.449  25.071   7.691
 2010POPC   C1B27847   3.331  25.318   8.794
 2010POPC   C2B27848   3.461  25.368   8.390
 2010POPC   C3B27849   3.217  25.304   8.063
 2010POPC   C4B27850   3.089  25.470   7.694
 2011POPC   NC327851   3.317  37.769   9.361
 2011POPC   PO427852   3.816  37.383   9.636
 2011POPC   GL127853   3.830  37.576   9.220
 2011POPC   GL227854   3.874  37.919   9.107
 2011POPC   C1A27855   3.805  37.464   8.781
 2011POPC   D2A27856   3.589  37.229   8.466
 2011POPC   C3A27857   3.527  37.481   8.136
 2011POPC   C4A27858   3.682  37.556   7.759
 2011POPC   C1B27859   3.573  37.919   8.764
 2011POPC   C2B27860   3.757  37.845   8.376
 2011POPC   C3B27861   3.725  38.020   7.970
 2011POPC   C4B27862   3.418  38.248   7.767
 2012POPC   NC327863  20.756  28.339   9.439
 2012POPC   PO427864  20.071  28.039   9.550
 2012POPC   GL127865  20.371  28.105   9.175
 2012POPC   GL227866  20.125  28.294   9.022
 2012POPC   C1A27867  20.596  28.300   8.764
 2012POPC   D2A27868  20.641  28.561   8.369
 2012POPC   C3A27869  20.731  28.333   7.976
 2012POPC   C4A27870  21.051  28.407   7.688
 2012POPC   C1B27871  20.151  28.038   8.703
 2012POPC   C2B27872  20.341  28.157   8.341
 2012POPC   C3B27873  20.215  28.372   7.981
 2012POPC   C4B27874  20.246  28.204   7.571
 2013POPC   NC327875  16.654  14.274   9.936
 2013POPC   PO427876  17.148  14.618   9.554
 2013POPC   GL127877  17.023  14.362   9.156
 2013POPC   GL227878  16.662  14.197   9.209
 2013POPC   C1A27879  16.987  14.060   8.818
 2013POPC   D2A27880  16.733  13.990   8.446
 2013POPC   C3A27881  16.911  14.092   8.069
 2013POPC   C4A27882  16.721  14.357   7.791
 2013POPC   C1B27883  16.553  14.357   8.818
 2013POPC   C2B27884  16.436  14.496   8.412
 2013POPC   C3B27885  16.620  14.775   8.114
 2013POPC   C4B27886  16.860  14.846   7.734
 2014POPC   NC327887  21.283  43.730   9.753
 2014POPC   PO427888  21.764  44.175   9.624
 2014POPC   GL127889  21.527  43.932   9.335
 2014POPC   GL227890  21.604  43.595   9.367
 2014POPC   C1A27891  21.284  43.933   8.954
 2014POPC   D2A27892  21.395  43.882   8.498
 2014POPC   C3A27893  21.206  44.091   8.147
 2014POPC   C4A27894  21.275  43.990   7.725
 2014POPC   C1B27895  21.613  43.539   8.915
 2014POPC   C2B27896  21.631  43.429   8.462
 2014POPC   C3B27897  21.398  43.515   8.057
 2014POPC   C4B27898  21.606  43.598   7.665
 2015POPC   NC327899  22.026  43.789   9.618
 2015POPC   PO427900  22.553  44.124   9.489
 2015POPC   GL127901  22.358  43.839   9.172
 2015POPC   GL227902  21.995  43.849   9.128
 2015POPC   C1A27903  22.324  43.883   8.717
 2015POPC   D2A27904  22.478  43.825   8.298
 2015POPC   C3A27905  22.262  43.841   7.893
 2015POPC   C4A27906  22.484  43.688   7.519
 2015POPC   C1B27907  21.792  44.005   8.803
 2015POPC   C2B27908  21.920  43.877   8.404
 2015POPC   C3B27909  21.729  43.909   8.046
 2015POPC   C4B27910  21.827  44.058   7.670
 2016POPC   NC327911  39.540  43.288   9.582
 2016POPC   PO427912  39.427  42.703   9.261
 2016POPC   GL127913  39.251  42.943   9.020
 2016POPC   GL227914  39.122  43.183   9.216
 2016POPC   C1A27915  39.163  42.906   8.607
 2016POPC   D2A27916  39.252  42.649   8.250
 2016POPC   C3A27917  39.262  42.894   7.893
 2016POPC   C4A27918  38.960  42.915   7.573
 2016POPC   C1B27919  39.160  43.410   8.841
 2016POPC   C2B27920  39.349  43.358   8.416
 2016POPC   C3B27921  39.164  43.379   8.005
 2016POPC   C4B27922  39.282  43.312   7.583
 2017POPC   NC327923  20.471  29.278   9.413
 2017POPC   PO427924  20.454  28.639   9.248
 2017POPC   GL127925  20.535  29.006   8.972
 2017POPC   GL227926  20.847  29.157   9.057
 2017POPC   C1A27927  20.589  29.308   8.612
 2017POPC   D2A27928  20.459  29.538   8.238
 2017POPC   C3A27929  20.209  29.238   7.995
 2017POPC   C4A27930  20.442  28.834   7.946
 2017POPC   C1B27931  21.053  29.448   8.765
 2017POPC   C2B27932  21.029  29.446   8.318
 2017POPC   C3B27933  20.798  29.211   7.982
 2017POPC   C4B27934  20.924  28.911   7.668
 2018POPC   NC327935  37.250   7.366   9.601
 2018POPC   PO427936  37.972   7.223   9.617
 2018POPC   GL127937  37.829   7.385   9.146
 2018POPC   GL227938  37.512   7.396   9.162
 2018POPC   C1A27939  37.727   7.482   8.687
 2018POPC   D2A27940  37.900   7.657   8.335
 2018POPC   C3A27941  37.819   7.529   7.937
 2018POPC   C4A27942  37.624   7.619   7.547
 2018POPC   C1B27943  37.370   7.155   8.831
 2018POPC   C2B27944  37.487   7.026   8.433
 2018POPC   C3B27945  37.437   7.188   8.028
 2018POPC   C4B27946  37.436   6.935   7.671
 2019POPC   NC327947   3.484  24.322  10.049
 2019POPC   PO427948   3.927  24.438   9.593
 2019POPC   GL127949   3.946  24.490   9.119
 2019POPC   GL227950   3.957  24.841   9.027
 2019POPC   C1A27951   3.751  24.519   8.664
 2019POPC   D2A27952   3.789  24.412   8.223
 2019POPC   C3A27953   3.455  24.187   7.961
 2019POPC   C4A27954   3.501  23.815   7.683
 2019POPC   C1B27955   3.770  25.021   8.628
 2019POPC   C2B27956   3.629  24.927   8.163
 2019POPC   C3B27957   3.703  24.644   7.765
 2019POPC   C4B27958   3.393  24.661   7.387
 2020POPC   NC327959  37.410   1.653   9.576
 2020POPC   PO427960  37.600   2.250   9.742
 2020POPC   GL127961  37.675   2.101   9.311
 2020POPC   GL227962  37.581   1.807   9.133
 2020POPC   C1A27963  37.723   2.270   8.901
 2020POPC   D2A27964  37.980   2.225   8.525
 2020POPC   C3A27965  37.810   2.337   8.131
 2020POPC   C4A27966  37.717   2.207   7.722
 2020POPC   C1B27967  37.732   1.808   8.742
 2020POPC   C2B27968  37.530   2.001   8.440
 2020POPC   C3B27969  37.458   1.930   8.060
 2020POPC   C4B27970  37.575   1.694   7.752
 2021POPC   NC327971  17.092  35.121   9.157
 2021POPC   PO427972  17.500  34.624   9.525
 2021POPC   GL127973  17.536  34.625   9.116
 2021POPC   GL227974  17.213  34.621   9.076
 2021POPC   C1A27975  17.715  34.938   8.827
 2021POPC   D2A27976  17.645  35.137   8.414
 2021POPC   C3A27977  17.749  34.912   8.066
 2021POPC   C4A27978  18.102  34.888   7.789
 2021POPC   C1B27979  17.267  34.364   8.694
 2021POPC   C2B27980  17.173  34.394   8.255
 2021POPC   C3B27981  17.408  34.499   7.861
 2021POPC   C4B27982  17.423  34.449   7.400
 2022POPC   NC327983  15.027   6.954   9.488
 2022POPC   PO427984  15.017   6.296   9.561
 2022POPC   GL127985  15.130   6.526   9.207
 2022POPC   GL227986  14.792   6.614   9.194
 2022POPC   C1A27987  15.355   6.576   8.804
 2022POPC   D2A27988  15.387   6.270   8.462
 2022POPC   C3A27989  15.310   6.502   8.108
 2022POPC   C4A27990  15.174   6.641   7.702
 2022POPC   C1B27991  14.834   6.682   8.788
 2022POPC   C2B27992  14.889   6.491   8.415
 2022POPC   C3B27993  14.859   6.750   8.086
 2022POPC   C4B27994  14.718   7.073   7.836
 2023POPC   NC327995   4.725  28.775   9.167
 2023POPC   PO427996   5.148  29.128   9.438
 2023POPC   GL127997   5.034  29.204   9.072
 2023POPC   GL227998   4.749  29.318   9.066
 2023POPC   C1A27999   5.150  29.090   8.657
 2023POPC   D2A28000   5.402  29.055   8.275
 2023POPC   C3A28001   5.241  29.301   7.923
 2023POPC   C4A28002   5.038  29.173   7.543
 2023POPC   C1B28003   4.861  29.526   8.656
 2023POPC   C2B28004   4.853  29.274   8.282
 2023POPC   C3B28005   4.680  29.154   7.897
 2023POPC   C4B28006   4.584  29.375   7.512
 2024POPC   NC328007   0.941  25.355   9.771
 2024POPC   PO428008   0.306  25.285   9.544
 2024POPC   GL128009   0.477  25.052   9.191
 2024POPC   GL228010   0.447  25.378   9.048
 2024POPC   C1A28011   0.658  25.020   8.751
 2024POPC   D2A28012   0.604  25.282   8.394
 2024POPC   C3A28013   0.665  25.076   8.024
 2024POPC   C4A28014   0.503  25.113   7.652
 2024POPC   C1B28015   0.593  25.651   8.752
 2024POPC   C2B28016   0.666  25.789   8.335
 2024POPC   C3B28017   0.545  25.611   7.960
 2024POPC   C4B28018   0.816  25.525   7.647
 2025POPC   NC328019  15.533   2.140   9.732
 2025POPC   PO428020  16.195   2.334   9.554
 2025POPC   GL128021  15.909   2.018   9.363
 2025POPC   GL228022  16.115   2.170   9.089
 2025POPC   C1A28023  15.820   1.796   8.964
 2025POPC   D2A28024  15.715   2.045   8.599
 2025POPC   C3A28025  15.809   1.964   8.174
 2025POPC   C4A28026  15.918   1.639   7.913
 2025POPC   C1B28027  16.259   2.027   8.709
 2025POPC   C2B28028  16.246   2.197   8.295
 2025POPC   C3B28029  16.404   2.293   7.888
 2025POPC   C4B28030  16.189   1.994   7.659
 2026POPC   NC328031  17.394   4.750   9.458
 2026POPC   PO428032  17.341   5.476   9.485
 2026POPC   GL128033  17.383   5.334   9.143
 2026POPC   GL228034  17.624   5.088   9.081
 2026POPC   C1A28035  17.240   5.317   8.756
 2026POPC   D2A28036  17.440   5.190   8.422
 2026POPC   C3A28037  17.305   5.353   8.079
 2026POPC   C4A28038  17.281   5.011   7.829
 2026POPC   C1B28039  17.853   5.081   8.702
 2026POPC   C2B28040  17.814   4.839   8.322
 2026POPC   C3B28041  18.008   4.836   7.938
 2026POPC   C4B28042  17.750   5.033   7.624
 2027POPC   NC328043  10.259  40.242   9.455
 2027POPC   PO428044  10.922  40.032   9.442
 2027POPC   GL128045  10.618  40.118   9.110
 2027POPC   GL228046  10.335  39.874   9.076
 2027POPC   C1A28047  10.506  40.151   8.688
 2027POPC   D2A28048  10.413  39.844   8.389
 2027POPC   C3A28049  10.667  39.937   8.073
 2027POPC   C4A28050  10.479  40.166   7.751
 2027POPC   C1B28051  10.070  39.661   8.758
 2027POPC   C2B28052   9.914  39.688   8.316
 2027POPC   C3B28053  10.134  39.823   7.921
 2027POPC   C4B28054  10.114  39.744   7.449
 2028POPC   NC328055  24.810  21.863   9.516
 2028POPC   PO428056  25.381  22.213   9.472
 2028POPC   GL128057  25.143  22.039   9.166
 2028POPC   GL228058  24.889  22.283   9.193
 2028POPC   C1A28059  25.141  21.906   8.752
 2028POPC   D2A28060  25.331  21.797   8.323
 2028POPC   C3A28061  25.182  21.976   7.972
 2028POPC   C4A28062  25.373  22.307   7.807
 2028POPC   C1B28063  25.010  22.438   8.804
 2028POPC   C2B28064  25.128  22.316   8.398
 2028POPC   C3B28065  24.929  22.444   8.022
 2028POPC   C4B28066  24.845  22.211   7.652
 2029POPC   NC328067  32.407  40.035   9.809
 2029POPC   PO428068  31.872  39.759   9.537
 2029POPC   GL128069  32.054  39.809   9.165
 2029POPC   GL228070  32.333  40.029   9.236
 2029POPC   C1A28071  32.032  39.989   8.762
 2029POPC   D2A28072  32.176  40.224   8.403
 2029POPC   C3A28073  32.113  40.068   7.976
 2029POPC   C4A28074  31.828  40.270   7.690
 2029POPC   C1B28075  32.526  40.160   8.816
 2029POPC   C2B28076  32.653  39.992   8.374
 2029POPC   C3B28077  32.645  40.139   7.930
 2029POPC   C4B28078  32.414  40.202   7.545
 2030POPC   NC328079   1.499  25.691   9.324
 2030POPC   PO428080   0.992  26.007   9.637
 2030POPC   GL128081   1.017  26.093   9.184
 2030POPC   GL228082   1.292  26.279   9.103
 2030POPC   C1A28083   0.931  26.044   8.734
 2030POPC   D2A28084   1.102  26.131   8.297
 2030POPC   C3A28085   1.036  25.911   7.904
 2030POPC   C4A28086   1.245  25.784   7.474
 2030POPC   C1B28087   1.445  25.993   8.729
 2030POPC   C2B28088   1.573  25.837   8.275
 2030POPC   C3B28089   1.553  26.014   7.839
 2030POPC   C4B28090   1.698  26.348   7.508
 2031POPC   NC328091  30.912  35.475   9.504
 2031POPC   PO428092  30.605  34.907   9.527
 2031POPC   GL128093  30.431  35.063   9.143
 2031POPC   GL228094  30.177  35.335   9.153
 2031POPC   C1A28095  30.654  35.183   8.787
 2031POPC   D2A28096  30.965  34.995   8.530
 2031POPC   C3A28097  30.777  34.982   8.118
 2031POPC   C4A28098  30.945  35.141   7.748
 2031POPC   C1B28099  30.175  35.403   8.712
 2031POPC   C2B28100  30.431  35.395   8.329
 2031POPC   C3B28101  30.556  35.643   7.944
 2031POPC   C4B28102  30.364  35.577   7.471
 2032POPC   NC328103  22.384  21.756   9.530
 2032POPC   PO428104  21.847  21.388   9.651
 2032POPC   GL128105  22.020  21.322   9.243
 2032POPC   GL228106  22.405  21.361   9.153
 2032POPC   C1A28107  21.940  21.525   8.847
 2032POPC   D2A28108  22.207  21.482   8.503
 2032POPC   C3A28109  22.148  21.367   8.092
 2032POPC   C4A28110  22.150  21.586   7.694
 2032POPC   C1B28111  22.635  21.288   8.726
 2032POPC   C2B28112  22.649  21.258   8.239
 2032POPC   C3B28113  22.537  21.239   7.771
 2032POPC   C4B28114  22.384  21.183   7.354
 2033POPC   NC328115  42.477  36.792   9.451
 2033POPC   PO428116  42.137  37.257   9.558
 2033POPC   GL128117  42.107  37.143   9.168
 2033POPC   GL228118  42.434  37.211   9.118
 2033POPC   C1A28119  42.167  36.891   8.798
 2033POPC   D2A28120  42.420  36.585   8.585
 2033POPC   C3A28121  42.345  36.539   8.127
 2033POPC   C4A28122  42.284  36.817   7.764
 2033POPC   C1B28123  42.614  37.249   8.718
 2033POPC   C2B28124  42.803  37.396   8.323
 2033POPC   C3B28125  42.583  37.227   7.948
 2033POPC   C4B28126  42.687  37.073   7.548
 2034POPC   NC328127  40.894  38.968   9.489
 2034POPC   PO428128  40.889  39.605   9.485
 2034POPC   GL128129  40.696  39.307   9.175
 2034POPC   GL228130  40.418  39.126   9.296
 2034POPC   C1A28131  40.905  39.146   8.806
 2034POPC   D2A28132  41.180  39.245   8.450
 2034POPC   C3A28133  40.928  39.279   8.112
 2034POPC   C4A28134  40.720  39.263   7.714
 2034POPC   C1B28135  40.388  39.039   8.838
 2034POPC   C2B28136  40.482  39.044   8.393
 2034POPC   C3B28137  40.304  39.105   7.973
 2034POPC   C4B28138  40.288  39.574   7.869
 2035POPC   NC328139  34.107  41.775   9.579
 2035POPC   PO428140  33.670  41.280   9.575
 2035POPC   GL128141  33.816  41.300   9.161
 2035POPC   GL228142  34.148  41.118   9.210
 2035POPC   C1A28143  33.725  41.507   8.727
 2035POPC   D2A28144  33.604  41.597   8.272
 2035POPC   C3A28145  33.918  41.654   7.930
 2035POPC   C4A28146  33.825  41.838   7.519
 2035POPC   C1B28147  34.108  41.156   8.772
 2035POPC   C2B28148  34.015  41.270   8.365
 2035POPC   C3B28149  33.865  41.134   8.002
 2035POPC   C4B28150  33.768  41.281   7.567
 2036POPC   NC328151  36.193  19.523   9.583
 2036POPC   PO428152  35.794  18.987   9.580
 2036POPC   GL128153  36.183  19.085   9.263
 2036POPC   GL228154  36.404  18.800   9.210
 2036POPC   C1A28155  36.344  19.208   8.813
 2036POPC   D2A28156  36.382  19.457   8.424
 2036POPC   C3A28157  36.203  19.314   8.037
 2036POPC   C4A28158  36.249  19.128   7.675
 2036POPC   C1B28159  36.274  18.715   8.783
 2036POPC   C2B28160  36.209  18.932   8.397
 2036POPC   C3B28161  36.074  18.783   8.021
 2036POPC   C4B28162  35.861  18.451   7.832
 2037POPC   NC328163   4.716  21.440   9.586
 2037POPC   PO428164   4.258  20.994   9.558
 2037POPC   GL128165   4.396  21.158   9.214
 2037POPC   GL228166   4.751  21.097   9.194
 2037POPC   C1A28167   4.239  21.286   8.797
 2037POPC   D2A28168   4.149  21.329   8.354
 2037POPC   C3A28169   4.444  21.511   8.076
 2037POPC   C4A28170   4.316  21.378   7.690
 2037POPC   C1B28171   4.604  20.942   8.825
 2037POPC   C2B28172   4.620  21.115   8.415
 2037POPC   C3B28173   4.489  21.015   8.000
 2037POPC   C4B28174   4.702  21.112   7.550
 2038POPC   NC328175  17.512   2.025   9.576
 2038POPC   PO428176  18.003   1.569   9.505
 2038POPC   GL128177  17.782   1.812   9.181
 2038POPC   GL228178  17.806   2.162   9.172
 2038POPC   C1A28179  17.388   1.897   8.966
 2038POPC   D2A28180  17.179   1.981   8.615
 2038POPC   C3A28181  17.195   2.022   8.170
 2038POPC   C4A28182  17.380   2.082   7.762
 2038POPC   C1B28183  17.878   2.094   8.750
 2038POPC   C2B28184  18.017   2.219   8.348
 2038POPC   C3B28185  17.841   2.201   7.974
 2038POPC   C4B28186  17.858   1.928   7.638
 2039POPC   NC328187   8.483  37.645   9.433
 2039POPC   PO428188   7.803  37.460   9.514
 2039POPC   GL128189   7.951  37.779   9.186
 2039POPC   GL228190   8.258  38.015   9.202
 2039POPC   C1A28191   8.200  37.707   8.803
 2039POPC   D2A28192   8.346  37.474   8.437
 2039POPC   C3A28193   8.237  37.650   8.057
 2039POPC   C4A28194   8.122  37.512   7.661
 2039POPC   C1B28195   8.517  38.134   8.816
 2039POPC   C2B28196   8.423  38.013   8.409
 2039POPC   C3B28197   8.593  37.997   8.006
 2039POPC   C4B28198   8.298  38.019   7.685
 2040POPC   NC328199   1.713  31.544   9.382
 2040POPC   PO428200   2.132  31.108   9.703
 2040POPC   GL128201   2.224  31.539   9.235
 2040POPC   GL228202   1.923  31.506   8.942
 2040POPC   C1A28203   2.359  31.617   8.770
 2040POPC   D2A28204   2.153  31.811   8.421
 2040POPC   C3A28205   2.111  31.571   8.024
 2040POPC   C4A28206   2.368  31.324   7.737
 2040POPC   C1B28207   1.624  31.654   8.646
 2040POPC   C2B28208   1.659  31.867   8.252
 2040POPC   C3B28209   1.865  32.008   7.871
 2040POPC   C4B28210   1.810  31.864   7.432
 2041POPC   NC328211  13.094  11.723   9.518
 2041POPC   PO428212  12.899  12.347   9.481
 2041POPC   GL128213  12.763  12.278   9.071
 2041POPC   GL228214  12.798  11.941   9.155
 2041POPC   C1A28215  12.690  12.187   8.631
 2041POPC   D2A28216  12.941  11.995   8.363
 2041POPC   C3A28217  12.917  12.216   8.038
 2041POPC   C4A28218  12.685  12.196   7.695
 2041POPC   C1B28219  12.838  11.738   8.816
 2041POPC   C2B28220  12.609  11.605   8.475
 2041POPC   C3B28221  12.760  11.593   8.053
 2041POPC   C4B28222  13.070  11.801   7.801
 2042POPC   NC328223  38.581  26.813   9.595
 2042POPC   PO428224  37.900  26.810   9.549
 2042POPC   GL128225  38.213  26.674   9.268
 2042POPC   GL228226  38.475  26.935   9.110
 2042POPC   C1A28227  38.213  26.563   8.871
 2042POPC   D2A28228  38.351  26.409   8.518
 2042POPC   C3A28229  38.395  26.687   8.211
 2042POPC   C4A28230  38.347  26.681   7.793
 2042POPC   C1B28231  38.646  26.788   8.709
 2042POPC   C2B28232  38.854  26.517   8.417
 2042POPC   C3B28233  38.855  26.596   8.010
 2042POPC   C4B28234  38.744  27.013   7.884
 2043POPC   NC328235  19.677  14.662   9.566
 2043POPC   PO428236  20.087  14.173   9.550
 2043POPC   GL128237  19.887  14.411   9.186
 2043POPC   GL228238  20.024  14.682   9.054
 2043POPC   C1A28239  19.630  14.476   8.816
 2043POPC   D2A28240  19.853  14.395   8.439
 2043POPC   C3A28241  19.613  14.433   8.054
 2043POPC   C4A28242  19.638  14.294   7.633
 2043POPC   C1B28243  19.981  14.926   8.707
 2043POPC   C2B28244  19.972  14.872   8.276
 2043POPC   C3B28245  20.112  14.526   8.005
 2043POPC   C4B28246  20.070  14.577   7.584
 2044POPC   NC328247  37.385  31.920   9.468
 2044POPC   PO428248  36.955  31.459   9.766
 2044POPC   GL128249  36.857  31.397   9.319
 2044POPC   GL228250  37.199  31.499   9.179
 2044POPC   C1A28251  36.694  31.344   8.876
 2044POPC   D2A28252  36.519  31.143   8.491
 2044POPC   C3A28253  36.622  31.282   8.094
 2044POPC   C4A28254  36.489  31.151   7.724
 2044POPC   C1B28255  37.216  31.336   8.725
 2044POPC   C2B28256  37.096  31.307   8.272
 2044POPC   C3B28257  37.097  31.524   7.839
 2044POPC   C4B28258  37.252  31.329   7.408
 2045POPC   NC328259  32.469   6.287   9.460
 2045POPC   PO428260  32.172   5.598   9.352
 2045POPC   GL128261  32.256   5.958   9.143
 2045POPC   GL228262  32.601   5.885   9.151
 2045POPC   C1A28263  32.416   6.130   8.755
 2045POPC   D2A28264  32.558   5.950   8.368
 2045POPC   C3A28265  32.250   5.943   8.031
 2045POPC   C4A28266  32.545   6.093   7.744
 2045POPC   C1B28267  32.621   5.602   8.771
 2045POPC   C2B28268  32.504   5.416   8.365
 2045POPC   C3B28269  32.626   5.611   7.977
 2045POPC   C4B28270  32.615   5.640   7.505
 2046POPC   NC328271   7.007  40.305   9.428
 2046POPC   PO428272   6.383  39.973   9.600
 2046POPC   GL128273   6.479  40.137   9.166
 2046POPC   GL228274   6.829  40.055   9.018
 2046POPC   C1A28275   6.431  40.064   8.701
 2046POPC   D2A28276   6.659  40.172   8.324
 2046POPC   C3A28277   6.528  40.060   7.953
 2046POPC   C4A28278   6.297  39.844   7.670
 2046POPC   C1B28279   6.843  40.418   8.725
 2046POPC   C2B28280   7.031  40.505   8.272
 2046POPC   C3B28281   6.864  40.453   7.816
 2046POPC   C4B28282   7.126  40.323   7.477
 2047POPC   NC328283  13.423   1.577   9.434
 2047POPC   PO428284  13.470   2.230   9.442
 2047POPC   GL128285  13.805   2.107   9.173
 2047POPC   GL228286  13.812   1.727   9.102
 2047POPC   C1A28287  13.776   2.104   8.738
 2047POPC   D2A28288  13.531   2.002   8.359
 2047POPC   C3A28289  13.677   2.230   7.983
 2047POPC   C4A28290  13.590   2.204   7.521
 2047POPC   C1B28291  13.970   1.650   8.656
 2047POPC   C2B28292  14.015   1.927   8.277
 2047POPC   C3B28293  13.944   1.827   7.854
 2047POPC   C4B28294  13.841   1.457   7.668
 2048POPC   NC328295   8.643   5.018   9.813
 2048POPC   PO428296   9.001   5.384   9.414
 2048POPC   GL128297   8.964   5.209   9.072
 2048POPC   GL228298   9.231   5.013   9.129
 2048POPC   C1A28299   8.724   5.263   8.730
 2048POPC   D2A28300   8.817   5.174   8.331
 2048POPC   C3A28301   8.553   5.004   8.009
 2048POPC   C4A28302   8.656   5.400   7.830
 2048POPC   C1B28303   9.150   4.814   8.753
 2048POPC   C2B28304   8.983   4.697   8.359
 2048POPC   C3B28305   9.048   4.902   7.957
 2048POPC   C4B28306   9.256   5.267   7.821
 2049POPC   NC328307  21.435  13.235   9.868
 2049POPC   PO428308  21.571  13.790   9.497
 2049POPC   GL128309  21.262  13.712   9.191
 2049POPC   GL228310  21.548  13.644   9.004
 2049POPC   C1A28311  21.082  13.554   8.814
 2049POPC   D2A28312  21.273  13.351   8.445
 2049POPC   C3A28313  21.271  13.582   8.078
 2049POPC   C4A28314  21.054  13.719   7.758
 2049POPC   C1B28315  21.744  13.430   8.693
 2049POPC   C2B28316  21.920  13.506   8.317
 2049POPC   C3B28317  21.748  13.480   7.920
 2049POPC   C4B28318  21.725  13.384   7.496
 2050POPC   NC328319  13.877  31.643   9.509
 2050POPC   PO428320  13.213  31.556   9.481
 2050POPC   GL128321  13.487  31.481   9.143
 2050POPC   GL228322  13.805  31.450   9.042
 2050POPC   C1A28323  13.419  31.363   8.720
 2050POPC   D2A28324  13.521  31.569   8.354
 2050POPC   C3A28325  13.321  31.428   7.996
 2050POPC   C4A28326  13.424  31.508   7.566
 2050POPC   C1B28327  13.980  31.532   8.650
 2050POPC   C2B28328  14.013  31.428   8.203
 2050POPC   C3B28329  13.991  31.318   7.767
 2050POPC   C4B28330  13.786  31.234   7.355
 2051POPC   NC328331  19.156   9.501   9.319
 2051POPC   PO428332  18.905  10.124   9.616
 2051POPC   GL128333  19.026  10.002   9.219
 2051POPC   GL228334  18.771   9.771   9.102
 2051POPC   C1A28335  19.099  10.027   8.786
 2051POPC   D2A28336  18.910   9.991   8.402
 2051POPC   C3A28337  19.203   9.993   8.090
 2051POPC   C4A28338  19.092   9.925   7.687
 2051POPC   C1B28339  18.933   9.533   8.736
 2051POPC   C2B28340  19.135   9.521   8.376
 2051POPC   C3B28341  18.929   9.540   8.008
 2051POPC   C4B28342  18.736   9.512   7.643
 2052POPC   NC328343   4.567  42.145   9.601
 2052POPC   PO428344   3.905  42.208   9.437
 2052POPC   GL128345   4.275  42.278   9.189
 2052POPC   GL228346   4.478  42.607   9.192
 2052POPC   C1A28347   4.265  42.196   8.780
 2052POPC   D2A28348   4.413  42.171   8.405
 2052POPC   C3A28349   4.126  42.177   8.086
 2052POPC   C4A28350   4.273  42.076   7.689
 2052POPC   C1B28351   4.576  42.633   8.721
 2052POPC   C2B28352   4.576  42.615   8.236
 2052POPC   C3B28353   4.429  42.610   7.811
 2052POPC   C4B28354   4.469  42.870   7.407
 2053POPC   NC328355  40.485  35.056   9.554
 2053POPC   PO428356  40.844  35.527   9.676
 2053POPC   GL128357  40.842  35.446   9.221
 2053POPC   GL228358  40.569  35.278   9.107
 2053POPC   C1A28359  41.006  35.420   8.797
 2053POPC   D2A28360  40.909  35.155   8.434
 2053POPC   C3A28361  40.943  35.280   8.005
 2053POPC   C4A28362  40.824  35.324   7.581
 2053POPC   C1B28363  40.480  35.254   8.680
 2053POPC   C2B28364  40.466  34.919   8.332
 2053POPC   C3B28365  40.481  35.054   7.900
 2053POPC   C4B28366  40.451  35.517   7.893
 2054POPC   NC328367  30.506  10.364   9.545
 2054POPC   PO428368  30.958  10.778   9.561
 2054POPC   GL128369  30.749  10.622   9.171
 2054POPC   GL228370  30.332  10.688   9.206
 2054POPC   C1A28371  30.923  10.578   8.708
 2054POPC   D2A28372  30.712  10.421   8.306
 2054POPC   C3A28373  30.880  10.568   7.875
 2054POPC   C4A28374  30.826  10.568   7.405
 2054POPC   C1B28375  30.435  10.653   8.782
 2054POPC   C2B28376  30.560  10.922   8.444
 2054POPC   C3B28377  30.446  10.795   8.040
 2054POPC   C4B28378  30.571  10.963   7.654
 2055POPC   NC328379  28.266   2.882   9.497
 2055POPC   PO428380  28.870   3.136   9.270
 2055POPC   GL128381  28.535   3.076   9.064
 2055POPC   GL228382  28.407   2.751   9.024
 2055POPC   C1A28383  28.528   3.101   8.654
 2055POPC   D2A28384  28.297   2.863   8.418
 2055POPC   C3A28385  28.526   2.664   8.146
 2055POPC   C4A28386  28.470   2.823   7.769
 2055POPC   C1B28387  28.341   2.412   8.724
 2055POPC   C2B28388  28.229   2.281   8.339
 2055POPC   C3B28389  28.190   2.327   7.903
 2055POPC   C4B28390  28.393   2.387   7.526
 2056POPC   NC328391  40.593  18.134   9.442
 2056POPC   PO428392  40.809  18.760   9.615
 2056POPC   GL128393  40.844  18.457   9.176
 2056POPC   GL228394  41.151  18.355   9.055
 2056POPC   C1A28395  40.746  18.161   8.796
 2056POPC   D2A28396  40.757  18.288   8.350
 2056POPC   C3A28397  40.498  18.179   7.986
 2056POPC   C4A28398  40.624  18.169   7.542
 2056POPC   C1B28399  41.098  18.533   8.674
 2056POPC   C2B28400  41.205  18.493   8.252
 2056POPC   C3B28401  41.012  18.270   7.901
 2056POPC   C4B28402  41.089  18.400   7.489
 2057POPC   NC328403  18.219  35.895   9.852
 2057POPC   PO428404  18.117  35.292   9.528
 2057POPC   GL128405  18.041  35.363   9.113
 2057POPC   GL228406  17.985  35.710   9.098
 2057POPC   C1A28407  18.269  35.405   8.722
 2057POPC   D2A28408  18.470  35.562   8.359
 2057POPC   C3A28409  18.342  35.296   8.035
 2057POPC   C4A28410  18.517  35.189   7.638
 2057POPC   C1B28411  17.768  35.561   8.728
 2057POPC   C2B28412  17.927  35.540   8.314
 2057POPC   C3B28413  17.904  35.791   7.974
 2057POPC   C4B28414  18.236  35.616   7.657
 2058POPC   NC328415  25.281  17.918   9.594
 2058POPC   PO428416  25.115  18.472   9.430
 2058POPC   GL128417  25.397  18.272   9.178
 2058POPC   GL228418  25.141  18.137   9.001
 2058POPC   C1A28419  25.554  18.343   8.755
 2058POPC   D2A28420  25.357  18.433   8.356
 2058POPC   C3A28421  25.336  18.185   7.995
 2058POPC   C4A28422  25.372  18.336   7.562
 2058POPC   C1B28423  24.948  18.406   8.678
 2058POPC   C2B28424  24.827  18.380   8.252
 2058POPC   C3B28425  24.744  18.262   7.869
 2058POPC   C4B28426  25.029  17.973   7.646
 2059POPC   NC328427  16.121  31.219   9.539
 2059POPC   PO428428  15.652  31.611   9.448
 2059POPC   GL128429  15.953  31.448   9.107
 2059POPC   GL228430  16.330  31.262   9.089
 2059POPC   C1A28431  15.741  31.486   8.717
 2059POPC   D2A28432  15.740  31.781   8.394
 2059POPC   C3A28433  15.758  31.664   7.944
 2059POPC   C4A28434  15.949  31.587   7.525
 2059POPC   C1B28435  16.171  31.219   8.697
 2059POPC   C2B28436  16.131  31.439   8.333
 2059POPC   C3B28437  16.120  31.305   7.928
 2059POPC   C4B28438  16.365  31.295   7.573
 2060POPC   NC328439  18.155   6.189   9.359
 2060POPC   PO428440  18.337   5.545   9.431
 2060POPC   GL128441  18.117   5.745   9.115
 2060POPC   GL228442  18.422   5.866   8.990
 2060POPC   C1A28443  18.035   5.936   8.694
 2060POPC   D2A28444  18.240   6.027   8.341
 2060POPC   C3A28445  18.152   5.811   7.978
 2060POPC   C4A28446  18.017   6.190   7.755
 2060POPC   C1B28447  18.647   6.067   8.657
 2060POPC   C2B28448  18.684   6.287   8.283
 2060POPC   C3B28449  18.502   6.166   7.913
 2060POPC   C4B28450  18.443   5.930   7.539
 2061POPC   NC328451  43.265   2.740   9.499
 2061POPC   PO428452  43.142   2.116   9.300
 2061POPC   GL128453  43.112   2.524   9.049
 2061POPC   GL228454  43.050   2.922   9.083
 2061POPC   C1A28455  43.419   2.730   8.786
 2061POPC   D2A28456  43.455   2.898   8.356
 2061POPC   C3A28457  43.009   2.884   8.208
 2061POPC   C4A28458  42.850   2.859   7.786
 2061POPC   C1B28459  43.128   3.127   8.681
 2061POPC   C2B28460  43.194   3.354   8.308
 2061POPC   C3B28461  43.189   3.227   7.862
 2061POPC   C4B28462  43.090   3.187   7.398
 2062POPC   NC328463  38.972  40.696   9.524
 2062POPC   PO428464  38.312  40.846   9.703
 2062POPC   GL128465  38.496  40.707   9.254
 2062POPC   GL228466  38.271  40.476   9.060
 2062POPC   C1A28467  38.705  40.686   8.809
 2062POPC   D2A28468  38.557  40.832   8.384
 2062POPC   C3A28469  38.667  40.711   7.977
 2062POPC   C4A28470  38.700  40.674   7.535
 2062POPC   C1B28471  38.185  40.789   8.727
 2062POPC   C2B28472  37.996  41.029   8.398
 2062POPC   C3B28473  38.190  40.932   7.994
 2062POPC   C4B28474  38.233  40.532   7.767
 2063POPC   NC328475   7.262  13.415   9.474
 2063POPC   PO428476   7.487  14.059   9.565
 2063POPC   GL128477   7.466  13.798   9.200
 2063POPC   GL228478   7.798  13.647   9.211
 2063POPC   C1A28479   7.399  13.506   8.832
 2063POPC   D2A28480   7.262  13.522   8.413
 2063POPC   C3A28481   7.396  13.346   8.025
 2063POPC   C4A28482   7.099  13.556   7.763
 2063POPC   C1B28483   7.787  13.836   8.798
 2063POPC   C2B28484   7.771  13.649   8.399
 2063POPC   C3B28485   7.754  13.709   7.979
 2063POPC   C4B28486   7.562  13.660   7.584
 2064POPC   NC328487  27.839  23.824   9.498
 2064POPC   PO428488  27.303  23.405   9.537
 2064POPC   GL128489  27.470  23.633   9.215
 2064POPC   GL228490  27.740  23.409   9.171
 2064POPC   C1A28491  27.407  23.794   8.823
 2064POPC   D2A28492  27.235  23.601   8.483
 2064POPC   C3A28493  27.394  23.706   8.093
 2064POPC   C4A28494  27.355  23.317   7.884
 2064POPC   C1B28495  27.878  23.627   8.806
 2064POPC   C2B28496  27.760  23.927   8.463
 2064POPC   C3B28497  27.870  23.896   8.033
 2064POPC   C4B28498  27.758  23.580   7.712
 2065POPC   NC328499  32.679  26.565   9.469
 2065POPC   PO428500  32.014  26.865   9.507
 2065POPC   GL128501  32.165  26.930   9.114
 2065POPC   GL228502  32.366  26.639   9.071
 2065POPC   C1A28503  32.014  26.844   8.704
 2065POPC   D2A28504  32.195  26.964   8.324
 2065POPC   C3A28505  31.998  26.922   7.938
 2065POPC   C4A28506  32.235  27.168   7.660
 2065POPC   C1B28507  32.515  26.882   8.732
 2065POPC   C2B28508  32.694  26.839   8.346
 2065POPC   C3B28509  32.511  26.801   7.943
 2065POPC   C4B28510  32.352  26.658   7.545
 2066POPC   NC328511  14.051  21.743   9.652
 2066POPC   PO428512  14.315  22.315   9.510
 2066POPC   GL128513  14.368  22.220   9.094
 2066POPC   GL228514  14.497  21.878   9.100
 2066POPC   C1A28515  14.655  22.318   8.771
 2066POPC   D2A28516  14.836  22.309   8.356
 2066POPC   C3A28517  14.558  22.164   8.060
 2066POPC   C4A28518  14.169  22.356   7.932
 2066POPC   C1B28519  14.505  21.848   8.632
 2066POPC   C2B28520  14.748  21.687   8.275
 2066POPC   C3B28521  14.594  21.620   7.866
 2066POPC   C4B28522  14.280  21.866   7.738
 2067POPC   NC328523  12.328  22.480   9.491
 2067POPC   PO428524  12.115  21.848   9.591
 2067POPC   GL128525  11.971  22.125   9.276
 2067POPC   GL228526  12.295  22.113   9.125
 2067POPC   C1A28527  11.811  22.230   8.863
 2067POPC   D2A28528  11.956  22.371   8.435
 2067POPC   C3A28529  11.930  22.044   8.175
 2067POPC   C4A28530  11.894  21.969   7.778
 2067POPC   C1B28531  12.447  22.252   8.734
 2067POPC   C2B28532  12.439  22.158   8.296
 2067POPC   C3B28533  12.350  22.149   7.851
 2067POPC   C4B28534  12.383  21.997   7.386
 2068POPC   NC328535  41.789  24.276   9.511
 2068POPC   PO428536  41.122  24.032   9.518
 2068POPC   GL128537  41.250  24.293   9.146
 2068POPC   GL228538  41.599  24.334   9.048
 2068POPC   C1A28539  41.272  24.488   8.700
 2068POPC   D2A28540  41.212  24.354   8.269
 2068POPC   C3A28541  41.406  24.656   7.982
 2068POPC   C4A28542  41.575  24.723   7.581
 2068POPC   C1B28543  41.906  24.232   8.744
 2068POPC   C2B28544  41.991  24.228   8.304
 2068POPC   C3B28545  41.755  24.245   7.950
 2068POPC   C4B28546  41.824  24.273   7.540
 2069POPC   NC328547  13.408  18.498   9.722
 2069POPC   PO428548  13.828  18.007   9.500
 2069POPC   GL128549  13.584  18.156   9.150
 2069POPC   GL228550  13.400  18.469   9.207
 2069POPC   C1A28551  13.756  18.314   8.772
 2069POPC   D2A28552  13.954  18.187   8.410
 2069POPC   C3A28553  13.777  18.393   8.070
 2069POPC   C4A28554  13.545  18.192   7.791
 2069POPC   C1B28555  13.259  18.402   8.779
 2069POPC   C2B28556  13.356  18.505   8.339
 2069POPC   C3B28557  13.321  18.625   7.876
 2069POPC   C4B28558  13.413  18.494   7.406
 2070POPC   NC328559  25.151   7.935   9.401
 2070POPC   PO428560  25.581   8.523   9.583
 2070POPC   GL128561  25.609   8.326   9.184
 2070POPC   GL228562  25.707   7.950   9.239
 2070POPC   C1A28563  25.321   8.419   8.819
 2070POPC   D2A28564  25.112   8.108   8.548
 2070POPC   C3A28565  25.112   8.161   8.117
 2070POPC   C4A28566  25.041   8.436   7.774
 2070POPC   C1B28567  25.570   7.975   8.807
 2070POPC   C2B28568  25.638   7.991   8.347
 2070POPC   C3B28569  25.595   8.189   7.929
 2070POPC   C4B28570  25.277   8.013   7.647
 2071POPC   NC328571  10.892  30.328   9.791
 2071POPC   PO428572  10.404  30.841   9.726
 2071POPC   GL128573  10.518  30.645   9.265
 2071POPC   GL228574  10.684  30.837   8.961
 2071POPC   C1A28575  10.323  30.577   8.790
 2071POPC   D2A28576  10.340  30.902   8.482
 2071POPC   C3A28577  10.535  30.854   8.095
 2071POPC   C4A28578  10.359  30.641   7.729
 2071POPC   C1B28579  10.787  31.167   8.660
 2071POPC   C2B28580  11.023  31.075   8.303
 2071POPC   C3B28581  11.021  31.135   7.884
 2071POPC   C4B28582  10.784  30.902   7.652
 2072POPC   NC328583  23.135  43.245   9.526
 2072POPC   PO428584  22.713  42.824   9.452
 2072POPC   GL128585  22.964  43.004   9.119
 2072POPC   GL228586  22.952  43.402   9.086
 2072POPC   C1A28587  22.852  43.014   8.717
 2072POPC   D2A28588  22.584  42.803   8.450
 2072POPC   C3A28589  22.796  42.902   8.098
 2072POPC   C4A28590  22.972  42.847   7.712
 2072POPC   C1B28591  22.614  43.462   8.806
 2072POPC   C2B28592  22.578  43.318   8.383
 2072POPC   C3B28593  22.637  43.436   7.959
 2072POPC   C4B28594  22.702  43.232   7.548
 2073POPC   NC328595  30.706   2.898   9.503
 2073POPC   PO428596  30.503   2.219   9.527
 2073POPC   GL128597  30.563   2.460   9.096
 2073POPC   GL228598  30.454   2.806   9.074
 2073POPC   C1A28599  30.603   2.623   8.631
 2073POPC   D2A28600  30.335   2.875   8.365
 2073POPC   C3A28601  30.507   2.953   7.960
 2073POPC   C4A28602  30.726   2.564   7.811
 2073POPC   C1B28603  30.750   3.061   8.847
 2073POPC   C2B28604  30.759   3.156   8.421
 2073POPC   C3B28605  30.987   2.947   8.102
 2073POPC   C4B28606  30.985   3.019   7.678
 2074POPC   NC328607   2.196  18.146   9.578
 2074POPC   PO428608   1.820  18.687   9.677
 2074POPC   GL128609   1.893  18.453   9.264
 2074POPC   GL228610   1.858  18.094   9.188
 2074POPC   C1A28611   1.930  18.479   8.807
 2074POPC   D2A28612   1.788  18.605   8.357
 2074POPC   C3A28613   1.950  18.391   7.956
 2074POPC   C4A28614   2.245  18.488   7.630
 2074POPC   C1B28615   2.120  17.993   8.841
 2074POPC   C2B28616   2.041  18.146   8.422
 2074POPC   C3B28617   1.696  18.012   8.147
 2074POPC   C4B28618   1.796  17.945   7.704
 2075POPC   NC328619  26.085   8.915   9.671
 2075POPC   PO428620  25.774   9.504   9.600
 2075POPC   GL128621  25.942   9.198   9.257
 2075POPC   GL228622  25.868   8.801   9.239
 2075POPC   C1A28623  26.113   9.172   8.846
 2075POPC   D2A28624  26.288   9.342   8.436
 2075POPC   C3A28625  26.165   9.160   8.031
 2075POPC   C4A28626  25.793   9.103   7.773
 2075POPC   C1B28627  26.036   8.642   8.864
 2075POPC   C2B28628  26.044   8.847   8.457
 2075POPC   C3B28629  25.890   8.706   8.084
 2075POPC   C4B28630  26.021   8.617   7.672
 2076POPC   NC328631  41.522   0.123   9.575
 2076POPC   PO428632  41.136   0.644   9.379
 2076POPC   GL128633  41.466   0.418   9.140
 2076POPC   GL228634  41.777   0.553   9.124
 2076POPC   C1A28635  41.602   0.393   8.685
 2076POPC   D2A28636  41.384   0.573   8.331
 2076POPC   C3A28637  41.547   0.393   7.966
 2076POPC   C4A28638  41.411   0.022   7.845
 2076POPC   C1B28639  41.745   0.878   8.770
 2076POPC   C2B28640  41.765   1.089   8.355
 2076POPC   C3B28641  41.596   0.898   7.986
 2076POPC   C4B28642  41.721   0.736   7.607
 2077POPC   NC328643  39.796  25.711   9.453
 2077POPC   PO428644  40.247  26.192   9.460
 2077POPC   GL128645  39.943  26.102   9.147
 2077POPC   GL228646  39.585  25.968   9.091
 2077POPC   C1A28647  39.954  25.976   8.749
 2077POPC   D2A28648  39.826  25.802   8.383
 2077POPC   C3A28649  40.144  25.773   8.055
 2077POPC   C4A28650  39.993  25.937   7.673
 2077POPC   C1B28651  39.570  26.319   8.843
 2077POPC   C2B28652  39.734  26.325   8.439
 2077POPC   C3B28653  39.885  26.255   8.068
 2077POPC   C4B28654  39.652  26.308   7.725
 2078POPC   NC328655  17.969  20.995   9.471
 2078POPC   PO428656  18.500  21.449   9.484
 2078POPC   GL128657  18.248  21.301   9.172
 2078POPC   GL228658  18.451  20.979   9.137
 2078POPC   C1A28659  18.072  21.554   8.829
 2078POPC   D2A28660  17.833  21.601   8.420
 2078POPC   C3A28661  18.100  21.658   8.069
 2078POPC   C4A28662  18.160  21.425   7.723
 2078POPC   C1B28663  18.604  21.300   8.815
 2078POPC   C2B28664  18.412  21.479   8.441
 2078POPC   C3B28665  18.571  21.359   8.042
 2078POPC   C4B28666  18.561  21.140   7.657
 2079POPC   NC328667  13.413  10.599   9.599
 2079POPC   PO428668  13.936  10.991   9.586
 2079POPC   GL128669  13.619  10.875   9.232
 2079POPC   GL228670  13.627  10.516   9.148
 2079POPC   C1A28671  13.356  10.808   8.864
 2079POPC   D2A28672  13.506  10.736   8.441
 2079POPC   C3A28673  13.584  10.653   7.998
 2079POPC   C4A28674  13.621  10.924   7.612
 2079POPC   C1B28675  13.581  10.310   8.745
 2079POPC   C2B28676  13.526  10.236   8.296
 2079POPC   C3B28677  13.725  10.152   7.899
 2079POPC   C4B28678  13.748  10.170   7.424
 2080POPC   NC328679  13.817  13.219   9.401
 2080POPC   PO428680  13.547  13.833   9.477
 2080POPC   GL128681  13.491  13.672   9.075
 2080POPC   GL228682  13.742  13.484   8.989
 2080POPC   C1A28683  13.355  13.512   8.673
 2080POPC   D2A28684  13.516  13.410   8.255
 2080POPC   C3A28685  13.816  13.707   8.104
 2080POPC   C4A28686  13.713  13.686   7.690
 2080POPC   C1B28687  13.918  13.557   8.609
 2080POPC   C2B28688  14.019  13.250   8.298
 2080POPC   C3B28689  13.995  13.292   7.860
 2080POPC   C4B28690  13.898  13.318   7.420
 2081POPC   NC328691   8.534  25.545   9.413
 2081POPC   PO428692   7.851  25.228   9.505
 2081POPC   GL128693   8.111  25.338   9.181
 2081POPC   GL228694   8.322  25.067   9.221
 2081POPC   C1A28695   8.029  25.405   8.743
 2081POPC   D2A28696   8.285  25.520   8.391
 2081POPC   C3A28697   8.188  25.281   8.052
 2081POPC   C4A28698   7.907  25.104   7.776
 2081POPC   C1B28699   8.455  25.144   8.782
 2081POPC   C2B28700   8.577  25.026   8.337
 2081POPC   C3B28701   8.637  25.099   7.880
 2081POPC   C4B28702   8.398  25.392   7.576
 2082POPC   NC328703   0.192  20.113   9.627
 2082POPC   PO428704   0.617  20.657   9.701
 2082POPC   GL128705   0.586  20.542   9.238
 2082POPC   GL228706   0.218  20.587   9.161
 2082POPC   C1A28707   0.675  20.713   8.791
 2082POPC   D2A28708   0.467  20.686   8.350
 2082POPC   C3A28709   0.663  20.789   7.928
 2082POPC   C4A28710   0.717  20.898   7.462
 2082POPC   C1B28711   0.330  20.353   8.766
 2082POPC   C2B28712   0.324  20.169   8.362
 2082POPC   C3B28713   0.242  20.367   7.969
 2082POPC   C4B28714   0.265  20.666   7.621
 2083POPC   NC328715  18.037  18.756   9.148
 2083POPC   PO428716  17.749  19.258   9.548
 2083POPC   GL128717  18.012  19.268   9.129
 2083POPC   GL228718  18.405  19.230   9.145
 2083POPC   C1A28719  18.183  19.146   8.680
 2083POPC   D2A28720  18.529  19.280   8.422
 2083POPC   C3A28721  18.356  19.327   8.054
 2083POPC   C4A28722  18.198  19.048   7.749
 2083POPC   C1B28723  18.628  18.941   8.828
 2083POPC   C2B28724  18.713  18.812   8.398
 2083POPC   C3B28725  18.625  18.883   7.977
 2083POPC   C4B28726  18.620  18.796   7.547
 2084POPC   NC328727  23.260  35.001   9.489
 2084POPC   PO428728  23.697  35.505   9.428
 2084POPC   GL128729  23.663  35.341   9.037
 2084POPC   GL228730  23.329  35.342   9.112
 2084POPC   C1A28731  23.912  35.258   8.649
 2084POPC   D2A28732  24.125  35.088   8.286
 2084POPC   C3A28733  24.009  35.294   7.915
 2084POPC   C4A28734  23.792  35.256   7.508
 2084POPC   C1B28735  23.295  35.515   8.717
 2084POPC   C2B28736  23.457  35.519   8.331
 2084POPC   C3B28737  23.516  35.456   7.909
 2084POPC   C4B28738  23.382  35.697   7.561
 2085POPC   NC328739  27.228  33.144   9.420
 2085POPC   PO428740  26.575  32.897   9.510
 2085POPC   GL128741  26.775  33.058   9.178
 2085POPC   GL228742  26.634  33.395   9.215
 2085POPC   C1A28743  26.947  32.788   8.859
 2085POPC   D2A28744  27.102  32.656   8.462
 2085POPC   C3A28745  26.823  32.711   8.151
 2085POPC   C4A28746  26.835  32.809   7.732
 2085POPC   C1B28747  26.933  33.401   8.841
 2085POPC   C2B28748  26.965  33.152   8.480
 2085POPC   C3B28749  27.016  33.210   8.067
 2085POPC   C4B28750  26.715  33.287   7.798
 2086POPC   NC328751  12.212  33.429   9.524
 2086POPC   PO428752  12.026  32.842   9.456
 2086POPC   GL128753  11.836  33.060   9.090
 2086POPC   GL228754  12.079  33.297   9.022
 2086POPC   C1A28755  11.805  33.061   8.627
 2086POPC   D2A28756  12.044  32.841   8.288
 2086POPC   C3A28757  12.188  32.973   7.888
 2086POPC   C4A28758  12.164  33.118   7.456
 2086POPC   C1B28759  12.309  33.130   8.642
 2086POPC   C2B28760  12.394  33.309   8.229
 2086POPC   C3B28761  12.357  33.464   7.800
 2086POPC   C4B28762  12.589  33.412   7.376
 2087POPC   NC328763  32.338  14.869   9.551
 2087POPC   PO428764  31.723  15.062   9.510
 2087POPC   GL128765  32.033  15.104   9.172
 2087POPC   GL228766  32.280  15.387   9.153
 2087POPC   C1A28767  32.141  15.097   8.721
 2087POPC   D2A28768  31.982  15.322   8.342
 2087POPC   C3A28769  32.172  15.256   7.932
 2087POPC   C4A28770  32.031  14.889   7.747
 2087POPC   C1B28771  32.545  15.414   8.790
 2087POPC   C2B28772  32.517  15.282   8.356
 2087POPC   C3B28773  32.595  15.559   8.020
 2087POPC   C4B28774  32.721  15.467   7.623
 2088POPC   NC328775  43.464   1.770   9.360
 2088POPC   PO428776  42.681   1.595   9.445
 2088POPC   GL128777  42.781   1.808   9.047
 2088POPC   GL228778  43.128   1.793   8.914
 2088POPC   C1A28779  42.727   1.870   8.590
 2088POPC   D2A28780  42.958   1.971   8.215
 2088POPC   C3A28781  43.133   1.639   7.970
 2088POPC   C4A28782  42.953   1.874   7.634
 2088POPC   C1B28783  43.166   2.171   8.656
 2088POPC   C2B28784  43.239   2.415   8.300
 2088POPC   C3B28785  43.199   2.338   7.865
 2088POPC   C4B28786  43.122   2.299   7.433
 2089POPC   NC328787  13.474  17.071   9.225
 2089POPC   PO428788  13.556  16.525   9.539
 2089POPC   GL128789  13.704  16.624   9.119
 2089POPC   GL228790  14.021  16.799   9.108
 2089POPC   C1A28791  13.587  16.751   8.679
 2089POPC   D2A28792  13.642  16.478   8.331
 2089POPC   C3A28793  13.586  16.580   7.912
 2089POPC   C4A28794  13.621  16.426   7.486
 2089POPC   C1B28795  13.967  17.109   8.750
 2089POPC   C2B28796  13.900  16.980   8.348
 2089POPC   C3B28797  13.814  17.042   7.939
 2089POPC   C4B28798  13.909  16.814   7.595
 2090POPC   NC328799  26.302  12.431   9.603
 2090POPC   PO428800  25.813  11.967   9.757
 2090POPC   GL128801  25.937  11.991   9.299
 2090POPC   GL228802  26.320  12.060   9.245
 2090POPC   C1A28803  25.780  11.963   8.851
 2090POPC   D2A28804  26.061  11.983   8.476
 2090POPC   C3A28805  25.845  11.913   8.072
 2090POPC   C4A28806  25.916  12.057   7.678
 2090POPC   C1B28807  26.108  12.335   8.931
 2090POPC   C2B28808  26.011  12.484   8.503
 2090POPC   C3B28809  26.069  12.375   8.083
 2090POPC   C4B28810  26.015  12.555   7.687
 2091POPC   NC328811  29.567   0.725   9.543
 2091POPC   PO428812  29.210   0.119   9.617
 2091POPC   GL128813  29.078   0.190   9.198
 2091POPC   GL228814  29.229   0.493   9.216
 2091POPC   C1A28815  28.964   0.346   8.789
 2091POPC   D2A28816  28.743   0.281   8.401
 2091POPC   C3A28817  29.020   0.456   8.110
 2091POPC   C4A28818  28.906   0.669   7.746
 2091POPC   C1B28819  29.421   0.670   8.861
 2091POPC   C2B28820  29.580   0.673   8.429
 2091POPC   C3B28821  29.535   0.449   8.057
 2091POPC   C4B28822  29.357   0.476   7.675
 2092POPC   NC328823  12.789   5.375   9.309
 2092POPC   PO428824  13.200   4.901   9.587
 2092POPC   GL128825  13.115   4.934   9.135
 2092POPC   GL228826  12.752   4.898   9.123
 2092POPC   C1A28827  12.988   5.031   8.690
 2092POPC   D2A28828  12.558   5.194   8.556
 2092POPC   C3A28829  12.520   5.318   8.125
 2092POPC   C4A28830  12.902   5.459   7.855
 2092POPC   C1B28831  12.529   4.638   8.819
 2092POPC   C2B28832  12.657   4.724   8.408
 2092POPC   C3B28833  12.862   4.953   8.089
 2092POPC   C4B28834  12.642   5.060   7.698
 2093POPC   NC328835  30.747  33.361   9.399
 2093POPC   PO428836  30.961  32.665   9.650
 2093POPC   GL128837  30.804  32.640   9.156
 2093POPC   GL228838  30.542  32.932   9.173
 2093POPC   C1A28839  30.749  32.800   8.727
 2093POPC   D2A28840  30.606  33.065   8.405
 2093POPC   C3A28841  30.789  32.897   8.072
 2093POPC   C4A28842  30.993  32.855   7.707
 2093POPC   C1B28843  30.405  33.261   8.835
 2093POPC   C2B28844  30.300  33.465   8.417
 2093POPC   C3B28845  30.374  33.298   8.008
 2093POPC   C4B28846  30.528  33.079   7.649
 2094POPC   NC328847  17.113  39.874   9.556
 2094POPC   PO428848  17.629  40.263   9.364
 2094POPC   GL128849  17.869  40.087   9.042
 2094POPC   GL228850  17.655  39.808   8.999
 2094POPC   C1A28851  17.825  40.097   8.624
 2094POPC   D2A28852  17.524  40.032   8.351
 2094POPC   C3A28853  17.705  40.207   8.038
 2094POPC   C4A28854  18.071  40.043   7.872
 2094POPC   C1B28855  17.272  39.757   8.727
 2094POPC   C2B28856  17.163  39.645   8.295
 2094POPC   C3B28857  17.304  39.845   7.887
 2094POPC   C4B28858  17.243  39.853   7.403
 2095POPC   NC328859  19.345  20.257   9.334
 2095POPC   PO428860  18.840  20.662   9.391
 2095POPC   GL128861  19.165  20.695   9.142
 2095POPC   GL228862  19.031  20.408   8.958
 2095POPC   C1A28863  19.360  20.804   8.783
 2095POPC   D2A28864  19.475  20.857   8.369
 2095POPC   C3A28865  19.209  20.626   8.096
 2095POPC   C4A28866  19.178  20.427   7.700
 2095POPC   C1B28867  18.837  20.803   8.763
 2095POPC   C2B28868  18.958  20.971   8.394
 2095POPC   C3B28869  18.734  20.831   8.049
 2095POPC   C4B28870  18.732  20.669   7.651
 2096POPC   NC328871   7.306   0.200   9.614
 2096POPC   PO428872   7.599   0.744   9.520
 2096POPC   GL128873   7.653   0.418   9.229
 2096POPC   GL228874   7.300   0.430   9.139
 2096POPC   C1A28875   7.703   0.239   8.800
 2096POPC   D2A28876   7.844   0.443   8.411
 2096POPC   C3A28877   7.764   0.275   8.009
 2096POPC   C4A28878   7.873   0.503   7.662
 2096POPC   C1B28879   7.325   0.568   8.698
 2096POPC   C2B28880   7.218   0.592   8.234
 2096POPC   C3B28881   7.338   0.502   7.815
 2096POPC   C4B28882   7.302   0.169   7.530
 2097POPC   NC328883  10.280   2.539   9.507
 2097POPC   PO428884  10.853   2.948   9.584
 2097POPC   GL128885  10.711   2.643   9.210
 2097POPC   GL228886  10.380   2.730   9.060
 2097POPC   C1A28887  10.763   2.579   8.727
 2097POPC   D2A28888  10.691   2.954   8.458
 2097POPC   C3A28889  10.621   2.850   8.018
 2097POPC   C4A28890  10.865   2.579   7.737
 2097POPC   C1B28891  10.264   2.436   8.756
 2097POPC   C2B28892  10.312   2.610   8.360
 2097POPC   C3B28893  10.356   2.423   7.949
 2097POPC   C4B28894  10.224   2.477   7.519
 2098POPC   NC328895  30.467  42.561   9.413
 2098POPC   PO428896  31.052  42.248   9.519
 2098POPC   GL128897  30.847  42.346   9.136
 2098POPC   GL228898  30.511  42.178   9.108
 2098POPC   C1A28899  30.752  42.339   8.699
 2098POPC   D2A28900  30.508  42.535   8.395
 2098POPC   C3A28901  30.690  42.414   8.025
 2098POPC   C4A28902  31.029  42.485   7.738
 2098POPC   C1B28903  30.270  42.167   8.732
 2098POPC   C2B28904  30.313  42.060   8.292
 2098POPC   C3B28905  30.293  41.878   7.873
 2098POPC   C4B28906  30.393  42.018   7.435
 2099POPC   NC328907  44.132   3.215   9.645
 2099POPC   PO428908  43.744   2.678   9.544
 2099POPC   GL128909  43.995   2.811   9.194
 2099POPC   GL228910  44.119   3.141   9.147
 2099POPC   C1A28911  43.947   2.762   8.766
 2099POPC   D2A28912  43.993   2.928   8.376
 2099POPC   C3A28913  44.097   2.698   8.011
 2099POPC   C4A28914  43.721   2.722   7.807
 2099POPC   C1B28915  44.138   3.278   8.736
 2099POPC   C2B28916  44.377   3.244   8.351
 2099POPC   C3B28917  44.184   3.197   7.978
 2099POPC   C4B28918  44.056   3.032   7.593
 2100POPC   NC328919  15.238  26.358   9.694
 2100POPC   PO428920  15.003  25.762   9.573
 2100POPC   GL128921  15.291  26.003   9.309
 2100POPC   GL228922  15.323  25.749   9.069
 2100POPC   C1A28923  15.355  26.241   8.899
 2100POPC   D2A28924  15.492  26.434   8.461
 2100POPC   C3A28925  15.312  26.270   8.068
 2100POPC   C4A28926  15.385  26.088   7.650
 2100POPC   C1B28927  15.409  25.804   8.604
 2100POPC   C2B28928  15.419  25.744   8.113
 2100POPC   C3B28929  15.075  25.687   7.820
 2100POPC   C4B28930  14.664  25.755   7.597
 2101POPC   NC328931  28.787  10.110   9.330
 2101POPC   PO428932  29.272   9.794   9.671
 2101POPC   GL128933  29.335   9.731   9.239
 2101POPC   GL228934  29.007   9.683   9.119
 2101POPC   C1A28935  29.390   9.864   8.788
 2101POPC   D2A28936  29.176   9.816   8.369
 2101POPC   C3A28937  29.327   9.794   7.918
 2101POPC   C4A28938  29.106   9.886   7.488
 2101POPC   C1B28939  28.745   9.473   8.790
 2101POPC   C2B28940  28.560   9.612   8.379
 2101POPC   C3B28941  28.808   9.735   8.005
 2101POPC   C4B28942  28.983   9.444   7.718
 2102POPC   NC328943  36.710  17.303   9.658
 2102POPC   PO428944  37.116  17.748   9.317
 2102POPC   GL128945  36.864  17.398   9.180
 2102POPC   GL228946  36.567  17.522   9.180
 2102POPC   C1A28947  36.934  17.176   8.799
 2102POPC   D2A28948  37.174  17.398   8.487
 2102POPC   C3A28949  37.180  17.300   8.062
 2102POPC   C4A28950  37.115  17.581   7.700
 2102POPC   C1B28951  36.702  17.630   8.758
 2102POPC   C2B28952  36.647  17.404   8.392
 2102POPC   C3B28953  36.712  17.518   7.982
 2102POPC   C4B28954  36.558  17.393   7.543
 2103POPC   NC328955   9.613  40.142   9.859
 2103POPC   PO428956  10.010  39.769   9.458
 2103POPC   GL128957   9.802  39.942   9.099
 2103POPC   GL228958   9.965  40.258   9.037
 2103POPC   C1A28959   9.538  40.120   8.751
 2103POPC   D2A28960   9.533  40.308   8.325
 2103POPC   C3A28961   9.654  40.036   8.002
 2103POPC   C4A28962   9.667  40.002   7.555
 2103POPC   C1B28963  10.014  40.167   8.597
 2103POPC   C2B28964  10.155  40.262   8.193
 2103POPC   C3B28965  10.006  40.334   7.787
 2103POPC   C4B28966  10.130  40.255   7.371
 2104POPC   NC328967   5.104   5.022   9.635
 2104POPC   PO428968   5.078   5.645   9.482
 2104POPC   GL128969   5.250   5.297   9.203
 2104POPC   GL228970   5.128   4.930   9.140
 2104POPC   C1A28971   5.392   5.234   8.767
 2104POPC   D2A28972   5.184   5.142   8.384
 2104POPC   C3A28973   5.145   5.420   8.034
 2104POPC   C4A28974   4.909   5.361   7.672
 2104POPC   C1B28975   4.884   5.131   8.818
 2104POPC   C2B28976   4.687   5.196   8.383
 2104POPC   C3B28977   4.840   4.977   8.009
 2104POPC   C4B28978   4.653   4.840   7.610
 2105POPC   NC328979   6.026  23.395   9.692
 2105POPC   PO428980   5.934  22.733   9.652
 2105POPC   GL128981   6.001  22.935   9.264
 2105POPC   GL228982   6.124  22.640   9.157
 2105POPC   C1A28983   5.868  22.968   8.808
 2105POPC   D2A28984   5.876  23.160   8.377
 2105POPC   C3A28985   5.676  22.985   7.986
 2105POPC   C4A28986   5.637  23.178   7.527
 2105POPC   C1B28987   6.018  22.456   8.761
 2105POPC   C2B28988   5.988  22.649   8.358
 2105POPC   C3B28989   6.171  22.938   8.035
 2105POPC   C4B28990   6.053  22.894   7.611
 2106POPC   NC328991  15.663  39.567   9.363
 2106POPC   PO428992  15.205  39.331   9.807
 2106POPC   GL128993  15.226  39.280   9.335
 2106POPC   GL228994  15.257  38.948   9.321
 2106POPC   C1A28995  15.109  39.154   8.873
 2106POPC   D2A28996  15.034  39.194   8.410
 2106POPC   C3A28997  15.206  39.281   7.975
 2106POPC   C4A28998  14.903  39.032   7.667
 2106POPC   C1B28999  15.434  38.782   8.941
 2106POPC   C2B29000  15.454  38.823   8.521
 2106POPC   C3B29001  15.316  38.811   8.110
 2106POPC   C4B29002  15.481  38.939   7.709
 2107POPC   NC329003   8.763  22.559   9.513
 2107POPC   PO429004   8.774  21.822   9.578
 2107POPC   GL129005   8.978  21.975   9.198
 2107POPC   GL229006   8.899  22.328   9.075
 2107POPC   C1A29007   9.090  21.971   8.753
 2107POPC   D2A29008   9.106  22.077   8.331
 2107POPC   C3A29009   8.942  21.845   8.034
 2107POPC   C4A29010   8.768  21.886   7.622
 2107POPC   C1B29011   8.665  22.250   8.678
 2107POPC   C2B29012   8.641  22.281   8.238
 2107POPC   C3B29013   8.972  22.338   7.901
 2107POPC   C4B29014   8.922  22.345   7.452
 2108POPC   NC329015  25.953   1.187   9.500
 2108POPC   PO429016  26.471   1.630   9.501
 2108POPC   GL129017  26.373   1.255   9.176
 2108POPC   GL229018  26.020   1.223   9.015
 2108POPC   C1A29019  26.374   1.034   8.745
 2108POPC   D2A29020  26.045   1.197   8.475
 2108POPC   C3A29021  26.104   1.197   8.043
 2108POPC   C4A29022  26.240   1.534   7.755
 2108POPC   C1B29023  25.936   0.811   8.805
 2108POPC   C2B29024  25.997   0.677   8.411
 2108POPC   C3B29025  25.812   0.721   8.070
 2108POPC   C4B29026  25.866   0.861   7.707
 2109POPC   NC329027  14.665  30.516   9.528
 2109POPC   PO429028  14.109  30.594   9.955
 2109POPC   GL129029  14.224  30.726   9.427
 2109POPC   GL229030  14.545  30.906   9.206
 2109POPC   C1A29031  14.182  30.735   8.932
 2109POPC   D2A29032  14.295  30.581   8.519
 2109POPC   C3A29033  14.331  30.791   8.112
 2109POPC   C4A29034  14.576  30.583   7.804
 2109POPC   C1B29035  14.768  30.986   8.793
 2109POPC   C2B29036  14.929  31.105   8.358
 2109POPC   C3B29037  14.855  31.006   7.912
 2109POPC   C4B29038  14.716  30.956   7.473
 2110POPC   NC329039  13.640   9.636   9.424
 2110POPC   PO429040  13.748  10.287   9.576
 2110POPC   GL129041  13.794  10.039   9.156
 2110POPC   GL229042  13.439   9.915   9.054
 2110POPC   C1A29043  13.844   9.753   8.781
 2110POPC   D2A29044  13.620   9.750   8.407
 2110POPC   C3A29045  13.803   9.594   8.064
 2110POPC   C4A29046  13.870   9.739   7.655
 2110POPC   C1B29047  13.288   9.575   8.760
 2110POPC   C2B29048  13.135   9.637   8.317
 2110POPC   C3B29049  13.352   9.795   7.916
 2110POPC   C4B29050  13.414   9.579   7.505
 2111POPC   NC329051  29.419   5.952   9.317
 2111POPC   PO429052  30.049   5.846   9.547
 2111POPC   GL129053  30.115   5.702   9.139
 2111POPC   GL229054  29.787   5.639   9.109
 2111POPC   C1A29055  30.021   5.795   8.688
 2111POPC   D2A29056  29.866   6.156   8.459
 2111POPC   C3A29057  30.138   6.190   8.127
 2111POPC   C4A29058  30.224   6.163   7.677
 2111POPC   C1B29059  29.668   5.418   8.762
 2111POPC   C2B29060  29.880   5.334   8.387
 2111POPC   C3B29061  30.091   5.645   8.191
 2111POPC   C4B29062  29.854   5.857   7.898
 2112POPC   NC329063  11.936  20.778   9.420
 2112POPC   PO429064  12.554  20.455   9.518
 2112POPC   GL129065  12.221  20.456   9.182
 2112POPC   GL229066  12.410  20.472   9.016
 2112POPC   C1A29067  11.937  20.395   8.810
 2112POPC   D2A29068  11.866  20.668   8.455
 2112POPC   C3A29069  11.769  20.515   8.039
 2112POPC   C4A29070  11.731  20.724   7.629
 2112POPC   C1B29071  12.323  20.746   8.712
 2112POPC   C2B29072  12.319  20.387   8.445
 2112POPC   C3B29073  12.240  20.255   8.058
 2112POPC   C4B29074  12.205  20.534   7.736
 2113POPC   NC329075  10.743  22.123   9.517
 2113POPC   PO429076  11.441  22.168   9.503
 2113POPC   GL129077  11.292  22.172   9.135
 2113POPC   GL229078  11.004  22.350   9.129
 2113POPC   C1A29079  11.363  21.981   8.768
 2113POPC   D2A29080  11.478  22.159   8.393
 2113POPC   C3A29081  11.401  21.960   8.023
 2113POPC   C4A29082  11.442  22.167   7.681
 2113POPC   C1B29083  11.049  22.381   8.705
 2113POPC   C2B29084  10.975  22.031   8.407
 2113POPC   C3B29085  10.901  21.852   8.013
 2113POPC   C4B29086  10.987  21.974   7.621
 2114POPC   NC329087  13.909  30.335   9.601
 2114POPC   PO429088  13.356  29.934   9.564
 2114POPC   GL129089  13.493  30.065   9.153
 2114POPC   GL229090  13.352  30.362   9.179
 2114POPC   C1A29091  13.766  29.913   8.795
 2114POPC   D2A29092  13.650  29.539   8.539
 2114POPC   C3A29093  13.734  29.452   8.096
 2114POPC   C4A29094  13.969  29.681   7.765
 2114POPC   C1B29095  13.236  30.440   8.767
 2114POPC   C2B29096  13.484  30.196   8.485
 2114POPC   C3B29097  13.684  29.959   8.193
 2114POPC   C4B29098  13.664  30.075   7.776
 2115POPC   NC329099  43.157   8.888   9.479
 2115POPC   PO429100  42.792   8.256   9.294
 2115POPC   GL129101  42.905   8.678   9.059
 2115POPC   GL229102  43.258   8.850   9.001
 2115POPC   C1A29103  42.886   8.894   8.686
 2115POPC   D2A29104  43.208   8.890   8.373
 2115POPC   C3A29105  43.078   9.069   8.009
 2115POPC   C4A29106  43.076   8.916   7.561
 2115POPC   C1B29107  43.326   9.221   8.755
 2115POPC   C2B29108  43.480   9.347   8.353
 2115POPC   C3B29109  43.568   9.215   7.933
 2115POPC   C4B29110  43.545   9.178   7.511
 2116POPC   NC329111  39.288  22.765   9.441
 2116POPC   PO429112  38.792  23.160   9.605
 2116POPC   GL129113  38.934  23.060   9.159
 2116POPC   GL229114  39.064  22.744   8.991
 2116POPC   C1A29115  39.109  23.188   8.741
 2116POPC   D2A29116  39.125  22.868   8.433
 2116POPC   C3A29117  38.997  22.966   8.010
 2116POPC   C4A29118  39.296  23.177   7.722
 2116POPC   C1B29119  39.500  22.901   8.856
 2116POPC   C2B29120  39.663  23.037   8.480
 2116POPC   C3B29121  39.521  22.898   8.091
 2116POPC   C4B29122  39.316  22.647   7.774
 2117POPC   NC329123   5.690  28.648   9.399
 2117POPC   PO429124   5.717  27.977   9.559
 2117POPC   GL129125   5.780  28.186   9.141
 2117POPC   GL229126   5.917  28.517   8.967
 2117POPC   C1A29127   5.992  28.060   8.750
 2117POPC   D2A29128   6.171  28.368   8.509
 2117POPC   C3A29129   6.054  28.281   8.122
 2117POPC   C4A29130   6.246  27.950   7.908
 2117POPC   C1B29131   5.568  28.323   8.688
 2117POPC   C2B29132   5.518  28.150   8.253
 2117POPC   C3B29133   5.478  28.383   7.833
 2117POPC   C4B29134   5.562  28.531   7.414
 2118POPC   NC329135   0.260  30.261   9.781
 2118POPC   PO429136   0.092  29.589   9.666
 2118POPC   GL129137   0.242  29.708   9.236
 2118POPC   GL229138   0.610  29.755   9.129
 2118POPC   C1A29139   0.237  29.714   8.777
 2118POPC   D2A29140   0.129  29.942   8.407
 2118POPC   C3A29141   0.317  29.722   8.097
 2118POPC   C4A29142   0.261  29.628   7.670
 2118POPC   C1B29143   0.654  30.032   8.743
 2118POPC   C2B29144   0.654  30.098   8.278
 2118POPC   C3B29145   0.640  29.978   7.822
 2118POPC   C4B29146   0.754  29.568   7.709
 2119POPC   NC329147   1.789   8.752   9.618
 2119POPC   PO429148   1.743   9.383   9.547
 2119POPC   GL129149   1.873   9.079   9.184
 2119POPC   GL229150   1.825   8.717   9.123
 2119POPC   C1A29151   2.102   9.023   8.751
 2119POPC   D2A29152   2.113   9.300   8.357
 2119POPC   C3A29153   1.921   9.253   7.947
 2119POPC   C4A29154   2.015   9.422   7.528
 2119POPC   C1B29155   1.860   8.551   8.701
 2119POPC   C2B29156   1.965   8.770   8.315
 2119POPC   C3B29157   2.068   8.771   7.884
 2119POPC   C4B29158   1.780   8.947   7.536
 2120POPC   NC329159  19.527   5.555   9.468
 2120POPC   PO429160  19.826   4.956   9.631
 2120POPC   GL129161  19.799   5.016   9.219
 2120POPC   GL229162  20.095   4.873   9.117
 2120POPC   C1A29163  19.629   5.231   8.852
 2120POPC   D2A29164  19.629   5.032   8.467
 2120POPC   C3A29165  19.753   5.198   8.120
 2120POPC   C4A29166  19.689   5.025   7.744
 2120POPC   C1B29167  20.079   5.048   8.719
 2120POPC   C2B29168  20.111   4.847   8.319
 2120POPC   C3B29169  20.181   5.012   7.896
 2120POPC   C4B29170  20.107   4.886   7.460
 2121POPC   NC329171  28.208  38.990   9.407
 2121POPC   PO429172  28.004  38.385   9.566
 2121POPC   GL129173  28.223  38.504   9.199
 2121POPC   GL229174  28.557  38.665   9.182
 2121POPC   C1A29175  28.053  38.664   8.831
 2121POPC   D2A29176  28.147  38.699   8.413
 2121POPC   C3A29177  28.131  38.318   8.175
 2121POPC   C4A29178  28.277  38.239   7.772
 2121POPC   C1B29179  28.567  38.581   8.739
 2121POPC   C2B29180  28.632  38.456   8.313
 2121POPC   C3B29181  28.444  38.676   7.965
 2121POPC   C4B29182  28.595  38.739   7.545
 2122POPC   NC329183  38.127  34.924   9.305
 2122POPC   PO429184  37.554  34.809   9.595
 2122POPC   GL129185  37.746  34.604   9.195
 2122POPC   GL229186  38.036  34.405   9.293
 2122POPC   C1A29187  37.795  34.741   8.738
 2122POPC   D2A29188  37.549  34.674   8.333
 2122POPC   C3A29189  37.479  34.830   7.889
 2122POPC   C4A29190  37.569  34.589   7.475
 2122POPC   C1B29191  38.127  34.348   8.846
 2122POPC   C2B29192  37.977  34.398   8.401
 2122POPC   C3B29193  37.791  34.384   7.974
 2122POPC   C4B29194  38.009  34.362   7.549
 2123POPC   NC329195  10.545   4.115   9.533
 2123POPC   PO429196  10.095   4.629   9.494
 2123POPC   GL129197  10.400   4.464   9.170
 2123POPC   GL229198  10.692   4.224   9.075
 2123POPC   C1A29199  10.610   4.634   8.812
 2123POPC   D2A29200  10.690   4.618   8.371
 2123POPC   C3A29201  10.374   4.691   8.026
 2123POPC   C4A29202  10.533   4.579   7.599
 2123POPC   C1B29203  10.381   4.179   8.714
 2123POPC   C2B29204  10.334   4.252   8.282
 2123POPC   C3B29205  10.645   4.248   7.965
 2123POPC   C4B29206  10.693   4.087   7.553
 2124POPC   NC329207  19.020  10.999   9.412
 2124POPC   PO429208  19.230  11.617   9.411
 2124POPC   GL129209  19.196  11.348   9.063
 2124POPC   GL229210  18.826  11.272   9.010
 2124POPC   C1A29211  19.173  11.391   8.617
 2124POPC   D2A29212  18.741  11.295   8.458
 2124POPC   C3A29213  18.730  11.258   8.017
 2124POPC   C4A29214  19.142  11.376   7.924
 2124POPC   C1B29215  19.020  10.931   8.752
 2124POPC   C2B29216  19.132  10.953   8.304
 2124POPC   C3B29217  19.191  10.851   7.885
 2124POPC   C4B29218  19.243  10.959   7.461
 2125POPC   NC329219  31.646  18.699   9.562
 2125POPC   PO429220  31.488  19.410   9.496
 2125POPC   GL129221  31.602  19.106   9.227
 2125POPC   GL229222  31.278  18.966   9.162
 2125POPC   C1A29223  31.656  19.009   8.808
 2125POPC   D2A29224  31.494  19.158   8.413
 2125POPC   C3A29225  31.795  19.202   8.072
 2125POPC   C4A29226  31.667  19.256   7.676
 2125POPC   C1B29227  31.141  18.903   8.709
 2125POPC   C2B29228  31.038  18.960   8.273
 2125POPC   C3B29229  31.233  19.155   7.935
 2125POPC   C4B29230  31.260  19.033   7.493
 2126POPC   NC329231  34.888  22.450   9.610
 2126POPC   PO429232  34.249  22.207   9.551
 2126POPC   GL129233  34.575  22.207   9.230
 2126POPC   GL229234  34.450  22.511   9.090
 2126POPC   C1A29235  34.631  22.102   8.770
 2126POPC   D2A29236  34.456  22.189   8.343
 2126POPC   C3A29237  34.594  22.013   7.937
 2126POPC   C4A29238  34.806  21.661   7.813
 2126POPC   C1B29239  34.874  22.531   8.926
 2126POPC   C2B29240  34.904  22.454   8.482
 2126POPC   C3B29241  34.927  22.535   8.054
 2126POPC   C4B29242  34.905  22.315   7.654
 2127POPC   NC329243  19.715  19.333   9.430
 2127POPC   PO429244  19.972  18.742   9.335
 2127POPC   GL129245  19.972  19.054   9.073
 2127POPC   GL229246  19.603  19.062   9.011
 2127POPC   C1A29247  19.979  19.028   8.651
 2127POPC   D2A29248  19.853  18.882   8.283
 2127POPC   C3A29249  19.857  19.288   8.093
 2127POPC   C4A29250  19.898  19.343   7.682
 2127POPC   C1B29251  19.627  18.677   8.767
 2127POPC   C2B29252  19.430  18.566   8.404
 2127POPC   C3B29253  19.469  18.677   8.011
 2127POPC   C4B29254  19.549  19.008   7.759
 2128POPC   NC329255  43.857  28.878   9.546
 2128POPC   PO429256  43.885  28.136   9.550
 2128POPC   GL129257  43.899  28.289   9.126
 2128POPC   GL229258  43.987  28.648   9.106
 2128POPC   C1A29259  43.935  28.002   8.775
 2128POPC   D2A29260  44.127  28.050   8.388
 2128POPC   C3A29261  44.046  27.987   7.963
 2128POPC   C4A29262  43.718  28.088   7.654
 2128POPC   C1B29263  43.819  28.738   8.662
 2128POPC   C2B29264  43.791  28.675   8.226
 2128POPC   C3B29265  43.904  28.482   7.926
 2128POPC   C4B29266  44.274  28.462   7.791
 2129POPC   NC329267  25.588  18.628   9.501
 2129POPC   PO429268  25.081  19.112   9.586
 2129POPC   GL129269  25.217  19.137   9.168
 2129POPC   GL229270  25.319  18.796   9.078
 2129POPC   C1A29271  25.443  19.228   8.775
 2129POPC   D2A29272  25.292  19.270   8.353
 2129POPC   C3A29273  25.417  19.057   7.957
 2129POPC   C4A29274  25.644  19.141   7.576
 2129POPC   C1B29275  25.062  18.900   8.705
 2129POPC   C2B29276  25.062  18.830   8.268
 2129POPC   C3B29277  25.103  18.635   7.872
 2129POPC   C4B29278  24.896  18.483   7.449
 2130POPC   NC329279  30.859  43.590   9.877
 2130POPC   PO429280  30.575  44.218   9.804
 2130POPC   GL129281  30.558  44.007   9.316
 2130POPC   GL229282  30.846  43.886   9.146
 2130POPC   C1A29283  30.465  43.853   8.835
 2130POPC   D2A29284  30.288  43.973   8.444
 2130POPC   C3A29285  30.508  43.814   8.068
 2130POPC   C4A29286  30.308  43.769   7.694
 2130POPC   C1B29287  30.956  43.596   8.827
 2130POPC   C2B29288  30.798  43.587   8.427
 2130POPC   C3B29289  30.890  43.433   8.033
 2130POPC   C4B29290  30.844  43.566   7.645
 2131POPC   NC329291  27.137  30.776   9.475
 2131POPC   PO429292  27.687  30.384   9.709
 2131POPC   GL129293  27.609  30.466   9.274
 2131POPC   GL229294  27.677  30.823   9.192
 2131POPC   C1A29295  27.722  30.314   8.882
 2131POPC   D2A29296  27.916  30.380   8.503
 2131POPC   C3A29297  27.714  30.617   8.184
 2131POPC   C4A29298  27.694  30.343   7.815
 2131POPC   C1B29299  27.636  30.842   8.720
 2131POPC   C2B29300  27.336  31.019   8.435
 2131POPC   C3B29301  27.340  31.018   8.001
 2131POPC   C4B29302  27.627  30.839   7.696
 2132POPC   NC329303  15.343  15.439   9.669
 2132POPC   PO429304  14.828  15.039   9.566
 2132POPC   GL129305  15.193  15.156   9.246
 2132POPC   GL229306  15.476  15.420   9.183
 2132POPC   C1A29307  15.150  15.028   8.811
 2132POPC   D2A29308  14.784  14.963   8.526
 2132POPC   C3A29309  14.928  15.025   8.116
 2132POPC   C4A29310  15.098  15.180   7.767
 2132POPC   C1B29311  15.292  15.514   8.784
 2132POPC   C2B29312  15.231  15.421   8.327
 2132POPC   C3B29313  15.484  15.461   7.916
 2132POPC   C4B29314  15.424  15.424   7.441
 2133POPC   NC329315   7.697  44.408   9.865
 2133POPC   PO429316   8.302  44.578   9.541
 2133POPC   GL129317   8.365  44.736   9.143
 2133POPC   GL229318   8.395  44.378   9.063
 2133POPC   C1A29319   8.117  44.736   8.762
 2133POPC   D2A29320   8.041  44.441   8.440
 2133POPC   C3A29321   8.003  44.515   8.031
 2133POPC   C4A29322   8.103  44.808   7.738
 2133POPC   C1B29323   8.592  44.545   8.711
 2133POPC   C2B29324   8.505  44.712   8.339
 2133POPC   C3B29325   8.519  44.560   7.944
 2133POPC   C4B29326   8.604  44.756   7.567
 2134POPC   NC329327  14.923  44.091   9.562
 2134POPC   PO429328  15.366  43.574   9.473
 2134POPC   GL129329  15.286  43.910   9.229
 2134POPC   GL229330  14.972  43.763   9.169
 2134POPC   C1A29331  15.188  44.070   8.830
 2134POPC   D2A29332  15.396  44.073   8.434
 2134POPC   C3A29333  15.220  44.125   8.061
 2134POPC   C4A29334  15.156  43.856   7.748
 2134POPC   C1B29335  14.736  43.772   8.819
 2134POPC   C2B29336  14.900  43.899   8.440
 2134POPC   C3B29337  14.963  43.613   8.141
 2134POPC   C4B29338  14.685  43.633   7.788
 2135POPC   NC329339  40.751   1.794   9.510
 2135POPC   PO429340  41.285   2.204   9.546
 2135POPC   GL129341  40.964   2.209   9.192
 2135POPC   GL229342  40.604   2.282   9.296
 2135POPC   C1A29343  40.721   1.985   8.834
 2135POPC   D2A29344  40.492   2.070   8.441
 2135POPC   C3A29345  40.586   1.815   8.114
 2135POPC   C4A29346  40.741   1.802   7.725
 2135POPC   C1B29347  40.567   2.468   8.881
 2135POPC   C2B29348  40.806   2.473   8.495
 2135POPC   C3B29349  40.814   2.281   8.084
 2135POPC   C4B29350  40.454   2.225   7.805
 2136POPC   NC329351  18.021  25.838   9.385
 2136POPC   PO429352  18.573  26.302   9.444
 2136POPC   GL129353  18.390  26.119   9.122
 2136POPC   GL229354  18.457  25.811   9.129
 2136POPC   C1A29355  18.180  26.013   8.743
 2136POPC   D2A29356  18.032  26.143   8.351
 2136POPC   C3A29357  18.216  25.928   8.027
 2136POPC   C4A29358  18.045  25.769   7.674
 2136POPC   C1B29359  18.516  25.587   8.797
 2136POPC   C2B29360  18.331  25.600   8.414
 2136POPC   C3B29361  18.462  25.478   8.026
 2136POPC   C4B29362  18.552  25.673   7.642
 2137POPC   NC329363  40.307   9.902   9.496
 2137POPC   PO429364  41.016   9.928   9.605
 2137POPC   GL129365  40.801   9.846   9.224
 2137POPC   GL229366  40.594   9.549   9.226
 2137POPC   C1A29367  40.841   9.968   8.796
 2137POPC   D2A29368  40.657   9.861   8.407
 2137POPC   C3A29369  40.823   9.940   8.012
 2137POPC   C4A29370  41.120   9.715   7.740
 2137POPC   C1B29371  40.549   9.525   8.779
 2137POPC   C2B29372  40.718   9.331   8.375
 2137POPC   C3B29373  40.685   9.439   7.928
 2137POPC   C4B29374  40.472   9.450   7.481
 2138POPC   NC329375  28.764  43.816   9.750
 2138POPC   PO429376  28.132  44.035   9.604
 2138POPC   GL129377  28.213  43.811   9.213
 2138POPC   GL229378  28.492  43.853   9.123
 2138POPC   C1A29379  28.179  44.015   8.765
 2138POPC   D2A29380  28.332  43.861   8.359
 2138POPC   C3A29381  28.443  44.054   7.979
 2138POPC   C4A29382  28.421  43.833   7.588
 2138POPC   C1B29383  28.665  43.824   8.723
 2138POPC   C2B29384  28.825  44.198   8.546
 2138POPC   C3B29385  28.873  44.286   8.114
 2138POPC   C4B29386  28.906  44.055   7.735
 2139POPC   NC329387   1.598  37.011   9.482
 2139POPC   PO429388   2.282  37.069   9.500
 2139POPC   GL129389   2.025  36.882   9.166
 2139POPC   GL229390   1.862  37.181   9.079
 2139POPC   C1A29391   1.905  36.658   8.768
 2139POPC   D2A29392   1.878  36.832   8.364
 2139POPC   C3A29393   1.962  36.553   8.026
 2139POPC   C4A29394   1.967  36.711   7.623
 2139POPC   C1B29395   2.158  37.120   8.737
 2139POPC   C2B29396   2.266  37.260   8.355
 2139POPC   C3B29397   2.191  37.035   8.000
 2139POPC   C4B29398   2.106  37.208   7.616
 2140POPC   NC329399  16.762  21.013   9.238
 2140POPC   PO429400  16.919  21.594   9.578
 2140POPC   GL129401  16.795  21.518   9.188
 2140POPC   GL229402  16.471  21.575   9.202
 2140POPC   C1A29403  16.690  21.432   8.757
 2140POPC   D2A29404  16.803  21.191   8.460
 2140POPC   C3A29405  16.848  21.406   8.111
 2140POPC   C4A29406  16.733  21.292   7.706
 2140POPC   C1B29407  16.294  21.735   8.817
 2140POPC   C2B29408  16.483  21.770   8.404
 2140POPC   C3B29409  16.441  21.680   7.965
 2140POPC   C4B29410  16.505  22.074   7.769
 2141POPC   NC329411  10.182   8.678   9.568
 2141POPC   PO429412  10.569   9.278   9.537
 2141POPC   GL129413  10.693   9.010   9.196
 2141POPC   GL229414  10.419   8.779   9.084
 2141POPC   C1A29415  10.864   9.161   8.809
 2141POPC   D2A29416  11.026   9.169   8.371
 2141POPC   C3A29417  10.711   9.035   8.048
 2141POPC   C4A29418  10.589   8.650   7.834
 2141POPC   C1B29419  10.197   8.557   8.733
 2141POPC   C2B29420  10.237   8.616   8.293
 2141POPC   C3B29421  10.109   8.473   7.911
 2141POPC   C4B29422  10.280   8.459   7.477
 2142POPC   NC329423   6.823  32.935   9.540
 2142POPC   PO429424   6.268  32.698   9.501
 2142POPC   GL129425   6.482  33.022   9.148
 2142POPC   GL229426   6.843  33.156   9.102
 2142POPC   C1A29427   6.508  33.195   8.706
 2142POPC   D2A29428   6.609  32.924   8.356
 2142POPC   C3A29429   6.647  33.050   7.960
 2142POPC   C4A29430   6.654  32.736   7.687
 2142POPC   C1B29431   6.995  33.404   8.772
 2142POPC   C2B29432   6.949  33.286   8.344
 2142POPC   C3B29433   7.118  33.334   7.945
 2142POPC   C4B29434   6.959  33.118   7.558
 2143POPC   NC329435  20.828   8.235   9.428
 2143POPC   PO429436  20.199   8.347   9.716
 2143POPC   GL129437  20.350   8.261   9.214
 2143POPC   GL229438  20.637   8.473   9.025
 2143POPC   C1A29439  20.573   8.025   8.841
 2143POPC   D2A29440  20.786   8.268   8.479
 2143POPC   C3A29441  20.897   8.297   7.983
 2143POPC   C4A29442  20.655   8.188   7.582
 2143POPC   C1B29443  20.344   8.478   8.730
 2143POPC   C2B29444  20.143   8.387   8.397
 2143POPC   C3B29445  20.170   8.607   8.057
 2143POPC   C4B29446  20.468   8.640   7.724
 2144POPC   NC329447  41.745  38.267   9.710
 2144POPC   PO429448  41.242  38.671   9.556
 2144POPC   GL129449  41.411  38.383   9.273
 2144POPC   GL229450  41.661  38.568   9.106
 2144POPC   C1A29451  41.285  38.331   8.847
 2144POPC   D2A29452  41.272  38.212   8.423
 2144POPC   C3A29453  41.502  38.387   8.103
 2144POPC   C4A29454  41.442  38.488   7.678
 2144POPC   C1B29455  41.809  38.770   8.735
 2144POPC   C2B29456  41.716  38.800   8.299
 2144POPC   C3B29457  41.852  38.730   7.855
 2144POPC   C4B29458  41.851  38.522   7.381
 2145POPC   NC329459  31.267  17.006   9.256
 2145POPC   PO429460  31.381  16.484   9.662
 2145POPC   GL129461  31.533  16.564   9.209
 2145POPC   GL229462  31.166  16.505   9.163
 2145POPC   C1A29463  31.594  16.718   8.722
 2145POPC   D2A29464  31.776  16.609   8.258
 2145POPC   C3A29465  31.503  16.777   7.911
 2145POPC   C4A29466  31.570  16.930   7.460
 2145POPC   C1B29467  31.084  16.556   8.742
 2145POPC   C2B29468  31.210  16.699   8.336
 2145POPC   C3B29469  31.023  16.599   7.925
 2145POPC   C4B29470  31.188  16.586   7.511
 2146POPC   NC329471  23.402  44.166   9.370
 2146POPC   PO429472  23.988  44.412   9.587
 2146POPC   GL129473  23.869  44.274   9.160
 2146POPC   GL229474  23.749  43.904   9.103
 2146POPC   C1A29475  23.738  44.282   8.720
 2146POPC   D2A29476  23.957  44.079   8.356
 2146POPC   C3A29477  24.153  44.288   8.001
 2146POPC   C4A29478  23.805  44.190   7.755
 2146POPC   C1B29479  23.431  43.785   8.756
 2146POPC   C2B29480  23.429  43.626   8.285
 2146POPC   C3B29481  23.488  43.644   7.804
 2146POPC   C4B29482  23.365  43.566   7.313
 2147POPC   NC329483  43.376  32.153   9.323
 2147POPC   PO429484  44.053  32.006   9.357
 2147POPC   GL129485  43.877  32.120   9.026
 2147POPC   GL229486  43.944  32.473   9.077
 2147POPC   C1A29487  44.014  32.149   8.613
 2147POPC   D2A29488  44.201  31.988   8.230
 2147POPC   C3A29489  43.968  32.097   7.884
 2147POPC   C4A29490  43.561  31.958   7.731
 2147POPC   C1B29491  43.611  32.470   8.778
 2147POPC   C2B29492  43.519  32.245   8.405
 2147POPC   C3B29493  43.562  32.399   7.985
 2147POPC   C4B29494  43.596  32.784   7.820
 2148POPC   NC329495   8.199  27.231   9.340
 2148POPC   PO429496   8.608  26.653   9.490
 2148POPC   GL129497   8.546  26.913   9.147
 2148POPC   GL229498   8.220  26.767   9.093
 2148POPC   C1A29499   8.481  26.934   8.697
 2148POPC   D2A29500   8.250  26.916   8.320
 2148POPC   C3A29501   8.532  26.858   7.998
 2148POPC   C4A29502   8.686  27.037   7.639
 2148POPC   C1B29503   7.932  26.838   8.759
 2148POPC   C2B29504   7.727  26.934   8.341
 2148POPC   C3B29505   7.914  26.881   7.916
 2148POPC   C4B29506   7.821  26.509   7.611
 2149POPC   NC329507  16.113  38.124   9.204
 2149POPC   PO429508  15.994  38.772   9.553
 2149POPC   GL129509  16.129  38.651   9.186
 2149POPC   GL229510  15.813  38.502   9.083
 2149POPC   C1A29511  16.271  38.562   8.757
 2149POPC   D2A29512  15.959  38.517   8.452
 2149POPC   C3A29513  15.974  38.273   8.077
 2149POPC   C4A29514  16.177  38.475   7.734
 2149POPC   C1B29515  15.577  38.294   8.743
 2149POPC   C2B29516  15.512  38.371   8.286
 2149POPC   C3B29517  15.549  38.434   7.844
 2149POPC   C4B29518  15.744  38.555   7.458
 2150POPC   NC329519  17.389  44.841   9.510
 2150POPC   PO429520  17.689  44.235   9.655
 2150POPC   GL129521  17.598  44.424   9.231
 2150POPC   GL229522  17.476  44.741   9.023
 2150POPC   C1A29523  17.753  44.364   8.803
 2150POPC   D2A29524  17.780  44.491   8.384
 2150POPC   C3A29525  17.443  44.323   8.140
 2150POPC   C4A29526  17.485  44.337   7.724
 2150POPC   C1B29527  17.817  44.964   8.739
 2150POPC   C2B29528  17.956  44.975   8.273
 2150POPC   C3B29529  17.696  44.745   7.938
 2150POPC   C4B29530  17.264  44.839   7.790
 2151POPC   NC329531  21.575  44.669   9.571
 2151POPC   PO429532  20.907  44.536   9.518
 2151POPC   GL129533  21.251  44.640   9.188
 2151POPC   GL229534  21.572  44.408   9.137
 2151POPC   C1A29535  21.267  44.880   8.785
 2151POPC   D2A29536  21.560  44.838   8.442
 2151POPC   C3A29537  21.347  44.850   8.071
 2151POPC   C4A29538  21.073  44.535   7.889
 2151POPC   C1B29539  21.416  44.380   8.715
 2151POPC   C2B29540  21.637  44.330   8.329
 2151POPC   C3B29541  21.561  44.415   7.892
 2151POPC   C4B29542  21.451  44.365   7.430
 2152POPC   NC329543  41.276  40.664   9.426
 2152POPC   PO429544  41.872  40.476   9.450
 2152POPC   GL129545  41.684  40.701   9.113
 2152POPC   GL229546  41.362  40.917   8.989
 2152POPC   C1A29547  41.599  40.535   8.760
 2152POPC   D2A29548  41.465  40.673   8.420
 2152POPC   C3A29549  41.675  40.494   8.091
 2152POPC   C4A29550  41.553  40.524   7.708
 2152POPC   C1B29551  41.728  41.089   8.794
 2152POPC   C2B29552  41.815  41.025   8.390
 2152POPC   C3B29553  41.568  40.997   8.021
 2152POPC   C4B29554  41.711  41.344   7.821
 2153POPC   NC329555  19.571  18.546   9.443
 2153POPC   PO429556  20.209  18.366   9.672
 2153POPC   GL129557  19.994  18.245   9.279
 2153POPC   GL229558  19.740  18.009   9.264
 2153POPC   C1A29559  20.108  18.304   8.844
 2153POPC   D2A29560  19.903  18.256   8.444
 2153POPC   C3A29561  20.062  18.411   8.044
 2153POPC   C4A29562  19.921  18.651   7.709
 2153POPC   C1B29563  19.622  18.151   8.862
 2153POPC   C2B29564  19.388  18.071   8.477
 2153POPC   C3B29565  19.591  18.156   8.061
 2153POPC   C4B29566  19.480  18.325   7.665
 2154POPC   NC329567  22.322  40.745  10.105
 2154POPC   PO429568  21.903  40.585   9.653
 2154POPC   GL129569  22.008  40.581   9.127
 2154POPC   GL229570  22.231  40.912   9.032
 2154POPC   C1A29571  21.997  40.676   8.645
 2154POPC   D2A29572  22.204  40.786   8.207
 2154POPC   C3A29573  22.101  40.651   7.773
 2154POPC   C4A29574  21.886  40.302   7.528
 2154POPC   C1B29575  22.382  41.039   8.631
 2154POPC   C2B29576  22.321  41.281   8.274
 2154POPC   C3B29577  22.354  41.143   7.826
 2154POPC   C4B29578  22.512  40.854   7.474
 2155POPC   NC329579  12.928  31.856   9.272
 2155POPC   PO429580  12.565  31.388   9.566
 2155POPC   GL129581  12.649  31.457   9.088
 2155POPC   GL229582  13.000  31.422   9.010
 2155POPC   C1A29583  12.682  31.330   8.622
 2155POPC   D2A29584  12.884  31.513   8.267
 2155POPC   C3A29585  12.771  31.440   7.885
 2155POPC   C4A29586  12.545  31.719   7.674
 2155POPC   C1B29587  13.087  31.751   8.661
 2155POPC   C2B29588  13.186  31.938   8.243
 2155POPC   C3B29589  13.088  31.827   7.802
 2155POPC   C4B29590  12.956  31.528   7.428
 2156POPC   NC329591  35.472  28.798   9.311
 2156POPC   PO429592  35.171  29.252   9.739
 2156POPC   GL129593  35.179  29.282   9.306
 2156POPC   GL229594  35.518  29.278   9.217
 2156POPC   C1A29595  35.114  29.208   8.872
 2156POPC   D2A29596  35.280  28.978   8.516
 2156POPC   C3A29597  35.310  29.300   8.200
 2156POPC   C4A29598  35.215  29.469   7.790
 2156POPC   C1B29599  35.611  29.309   8.773
 2156POPC   C2B29600  35.683  29.582   8.418
 2156POPC   C3B29601  35.736  29.531   7.997
 2156POPC   C4B29602  35.669  29.115   7.867
 2157POPC   NC329603  19.238  23.881   9.444
 2157POPC   PO429604  19.775  23.514   9.438
 2157POPC   GL129605  19.858  23.665   9.073
 2157POPC   GL229606  19.628  23.920   9.113
 2157POPC   C1A29607  19.974  23.636   8.645
 2157POPC   D2A29608  19.846  23.846   8.298
 2157POPC   C3A29609  19.676  23.559   8.024
 2157POPC   C4A29610  19.455  23.632   7.652
 2157POPC   C1B29611  19.694  24.100   8.755
 2157POPC   C2B29612  20.015  24.264   8.544
 2157POPC   C3B29613  20.187  24.233   8.129
 2157POPC   C4B29614  19.954  23.991   7.795
 2158POPC   NC329615  35.755  25.475   9.457
 2158POPC   PO429616  35.214  25.171   9.455
 2158POPC   GL129617  35.254  25.286   9.080
 2158POPC   GL229618  34.953  25.144   8.922
 2158POPC   C1A29619  35.467  25.248   8.713
 2158POPC   D2A29620  35.328  25.178   8.309
 2158POPC   C3A29621  35.638  24.965   8.077
 2158POPC   C4A29622  35.776  25.270   7.832
 2158POPC   C1B29623  35.039  25.547   8.698
 2158POPC   C2B29624  35.031  25.659   8.277
 2158POPC   C3B29625  35.285  25.569   7.910
 2158POPC   C4B29626  35.318  25.336   7.537
 2159POPC   NC329627   2.182   5.440   9.530
 2159POPC   PO429628   1.781   5.926   9.502
 2159POPC   GL129629   1.822   6.136   9.131
 2159POPC   GL229630   2.166   5.991   9.157
 2159POPC   C1A29631   1.960   6.228   8.707
 2159POPC   D2A29632   1.969   5.952   8.333
 2159POPC   C3A29633   1.900   6.066   7.887
 2159POPC   C4A29634   1.828   5.765   7.542
 2159POPC   C1B29635   2.311   5.800   8.798
 2159POPC   C2B29636   2.407   5.683   8.368
 2159POPC   C3B29637   2.216   5.665   7.947
 2159POPC   C4B29638   2.293   5.512   7.505
 2160POPC   NC329639  15.734  14.695   9.624
 2160POPC   PO429640  16.376  14.406   9.605
 2160POPC   GL129641  16.126  14.514   9.214
 2160POPC   GL229642  15.752  14.518   9.148
 2160POPC   C1A29643  16.050  14.404   8.764
 2160POPC   D2A29644  16.198  14.050   8.553
 2160POPC   C3A29645  16.102  14.152   8.150
 2160POPC   C4A29646  16.210  14.296   7.741
 2160POPC   C1B29647  15.545  14.571   8.748
 2160POPC   C2B29648  15.676  14.542   8.317
 2160POPC   C3B29649  15.718  14.382   7.911
 2160POPC   C4B29650  15.709  14.429   7.477
 2161POPC   NC329651  15.479  11.488   9.378
 2161POPC   PO429652  16.101  11.385   9.683
 2161POPC   GL129653  15.980  11.294   9.259
 2161POPC   GL229654  16.308  11.432   9.160
 2161POPC   C1A29655  15.747  11.266   8.830
 2161POPC   D2A29656  15.903  11.456   8.449
 2161POPC   C3A29657  15.703  11.450   8.039
 2161POPC   C4A29658  15.768  11.010   7.899
 2161POPC   C1B29659  16.264  11.165   8.795
 2161POPC   C2B29660  16.402  11.227   8.358
 2161POPC   C3B29661  16.216  11.393   7.983
 2161POPC   C4B29662  16.249  11.254   7.567
 2162POPC   NC329663   5.566  30.951   9.398
 2162POPC   PO429664   6.266  30.847   9.482
 2162POPC   GL129665   6.105  30.587   9.180
 2162POPC   GL229666   5.782  30.656   9.056
 2162POPC   C1A29667   6.135  30.802   8.747
 2162POPC   D2A29668   5.957  30.677   8.385
 2162POPC   C3A29669   6.006  30.846   7.993
 2162POPC   C4A29670   5.765  30.736   7.651
 2162POPC   C1B29671   5.630  30.947   8.706
 2162POPC   C2B29672   5.270  30.979   8.421
 2162POPC   C3B29673   5.404  31.011   7.974
 2162POPC   C4B29674   5.364  31.041   7.521
 2163POPC   NC329675  42.008  11.535   9.472
 2163POPC   PO429676  42.378  11.040   9.728
 2163POPC   GL129677  42.473  11.180   9.219
 2163POPC   GL229678  42.225  11.367   9.053
 2163POPC   C1A29679  42.392  11.014   8.743
 2163POPC   D2A29680  42.589  11.085   8.355
 2163POPC   C3A29681  42.438  10.944   7.949
 2163POPC   C4A29682  42.159  11.130   7.652
 2163POPC   C1B29683  42.600  11.509   8.828
 2163POPC   C2B29684  42.638  11.620   8.406
 2163POPC   C3B29685  42.439  11.476   8.038
 2163POPC   C4B29686  42.496  11.717   7.680
 2164POPC   NC329687   6.212   0.430   9.526
 2164POPC   PO429688   5.556   0.209   9.615
 2164POPC   GL129689   5.825   0.294   9.234
 2164POPC   GL229690   6.059   0.559   9.080
 2164POPC   C1A29691   5.818   0.187   8.798
 2164POPC   D2A29692   6.012   0.122   8.405
 2164POPC   C3A29693   5.757   0.289   8.090
 2164POPC   C4A29694   5.998   0.262   7.752
 2164POPC   C1B29695   5.689   0.695   8.909
 2164POPC   C2B29696   5.659   0.680   8.460
 2164POPC   C3B29697   5.736   0.925   8.108
 2164POPC   C4B29698   5.832   0.733   7.725
 2165POPC   NC329699  27.774  16.691   9.446
 2165POPC   PO429700  27.266  16.274   9.465
 2165POPC   GL129701  27.472  16.515   9.076
 2165POPC   GL229702  27.436  16.880   9.095
 2165POPC   C1A29703  27.590  16.753   8.633
 2165POPC   D2A29704  27.422  17.019   8.259
 2165POPC   C3A29705  27.453  16.906   7.791
 2165POPC   C4A29706  27.395  16.552   7.518
 2165POPC   C1B29707  27.817  17.115   8.950
 2165POPC   C2B29708  28.042  17.028   8.585
 2165POPC   C3B29709  27.971  16.903   8.187
 2165POPC   C4B29710  27.933  17.113   7.800
 2166POPC   NC329711  25.618   7.173   9.455
 2166POPC   PO429712  26.245   7.252   9.473
 2166POPC   GL129713  26.027   7.461   9.121
 2166POPC   GL229714  25.816   7.265   8.945
 2166POPC   C1A29715  26.228   7.448   8.692
 2166POPC   D2A29716  26.564   7.539   8.422
 2166POPC   C3A29717  26.339   7.473   8.045
 2166POPC   C4A29718  26.387   7.614   7.657
 2166POPC   C1B29719  25.732   7.532   8.605
 2166POPC   C2B29720  25.775   7.446   8.180
 2166POPC   C3B29721  25.657   7.428   7.728
 2166POPC   C4B29722  25.827   7.452   7.291
 2167POPC   NC329723  25.708  20.338   9.562
 2167POPC   PO429724  25.154  20.703   9.612
 2167POPC   GL129725  25.399  20.721   9.233
 2167POPC   GL229726  25.199  20.988   9.164
 2167POPC   C1A29727  25.413  20.539   8.802
 2167POPC   D2A29728  25.630  20.621   8.388
 2167POPC   C3A29729  25.402  20.665   8.014
 2167POPC   C4A29730  25.112  20.725   7.631
 2167POPC   C1B29731  25.043  20.995   8.772
 2167POPC   C2B29732  25.110  20.772   8.416
 2167POPC   C3B29733  24.997  20.982   8.032
 2167POPC   C4B29734  24.798  21.126   7.659
 2168POPC   NC329735  14.428  15.591   9.353
 2168POPC   PO429736  14.206  15.106   9.772
 2168POPC   GL129737  14.268  15.088   9.288
 2168POPC   GL229738  14.137  15.345   8.999
 2168POPC   C1A29739  14.150  14.851   8.898
 2168POPC   D2A29740  14.186  15.060   8.492
 2168POPC   C3A29741  14.427  14.930   8.123
 2168POPC   C4A29742  14.203  15.010   7.761
 2168POPC   C1B29743  14.522  15.373   8.733
 2168POPC   C2B29744  14.688  15.454   8.306
 2168POPC   C3B29745  14.603  15.347   7.862
 2168POPC   C4B29746  14.515  15.346   7.402
 2169POPC   NC329747  44.313  16.917   9.582
 2169POPC   PO429748  44.889  16.467   9.592
 2169POPC   GL129749  44.661  16.700   9.312
 2169POPC   GL229750  44.410  16.457   9.325
 2169POPC   C1A29751  44.724  16.967   8.931
 2169POPC   D2A29752  44.806  16.744   8.565
 2169POPC   C3A29753  44.768  16.806   8.151
 2169POPC   C4A29754  44.582  16.788   7.755
 2169POPC   C1B29755  44.483  16.485   8.873
 2169POPC   C2B29756  44.342  16.593   8.443
 2169POPC   C3B29757  44.320  16.424   8.063
 2169POPC   C4B29758  44.107  16.554   7.747
 2170POPC   NC329759   8.013   4.980   9.473
 2170POPC   PO429760   8.410   5.421   9.844
 2170POPC   GL129761   8.471   5.201   9.344
 2170POPC   GL229762   8.566   4.901   9.166
 2170POPC   C1A29763   8.254   5.181   8.882
 2170POPC   D2A29764   8.290   5.047   8.451
 2170POPC   C3A29765   8.222   5.364   8.148
 2170POPC   C4A29766   8.104   5.360   7.715
 2170POPC   C1B29767   8.632   4.746   8.744
 2170POPC   C2B29768   8.467   4.549   8.364
 2170POPC   C3B29769   8.089   4.621   8.133
 2170POPC   C4B29770   8.097   4.843   7.745
 2171POPC   NC329771  25.213  24.964   9.496
 2171POPC   PO429772  25.524  25.627   9.452
 2171POPC   GL129773  25.334  25.419   9.134
 2171POPC   GL229774  25.057  25.230   9.025
 2171POPC   C1A29775  25.448  25.426   8.712
 2171POPC   D2A29776  25.254  25.354   8.325
 2171POPC   C3A29777  25.487  25.388   7.958
 2171POPC   C4A29778  25.179  25.477   7.706
 2171POPC   C1B29779  25.083  24.998   8.648
 2171POPC   C2B29780  24.901  24.861   8.275
 2171POPC   C3B29781  25.100  25.020   7.946
 2171POPC   C4B29782  25.401  24.950   7.703
 2172POPC   NC329783  23.742  13.989   9.463
 2172POPC   PO429784  23.645  13.284   9.536
 2172POPC   GL129785  23.622  13.562   9.180
 2172POPC   GL229786  23.979  13.661   9.139
 2172POPC   C1A29787  23.613  13.500   8.721
 2172POPC   D2A29788  23.425  13.665   8.327
 2172POPC   C3A29789  23.667  13.644   7.951
 2172POPC   C4A29790  23.740  13.312   7.697
 2172POPC   C1B29791  24.148  13.661   8.710
 2172POPC   C2B29792  24.022  13.484   8.319
 2172POPC   C3B29793  24.170  13.619   7.914
 2172POPC   C4B29794  23.985  13.989   7.706
 2173POPC   NC329795  40.793   0.617   9.709
 2173POPC   PO429796  40.790   1.328   9.477
 2173POPC   GL129797  40.718   1.043   9.131
 2173POPC   GL229798  40.470   0.870   8.907
 2173POPC   C1A29799  40.886   1.169   8.732
 2173POPC   D2A29800  41.014   1.536   8.465
 2173POPC   C3A29801  40.908   1.372   8.046
 2173POPC   C4A29802  41.072   0.949   7.896
 2173POPC   C1B29803  40.393   1.296   8.821
 2173POPC   C2B29804  40.519   1.450   8.458
 2173POPC   C3B29805  40.372   1.360   8.054
 2173POPC   C4B29806  40.542   1.344   7.686
 2174POPC   NC329807  29.112  17.584   9.449
 2174POPC   PO429808  29.698  17.708   9.285
 2174POPC   GL129809  29.368  17.659   8.994
 2174POPC   GL229810  28.994  17.738   8.989
 2174POPC   C1A29811  29.251  17.654   8.565
 2174POPC   D2A29812  28.831  17.702   8.449
 2174POPC   C3A29813  28.878  17.516   8.059
 2174POPC   C4A29814  29.269  17.475   7.859
 2174POPC   C1B29815  28.855  17.334   8.862
 2174POPC   C2B29816  28.923  17.087   8.503
 2174POPC   C3B29817  29.080  17.038   8.098
 2174POPC   C4B29818  28.949  16.817   7.760
 2175POPC   NC329819  40.076   8.720   9.377
 2175POPC   PO429820  40.185   9.420   9.511
 2175POPC   GL129821  39.973   9.326   9.084
 2175POPC   GL229822  39.751   8.991   9.086
 2175POPC   C1A29823  39.848   9.203   8.646
 2175POPC   D2A29824  40.027   8.837   8.436
 2175POPC   C3A29825  40.247   9.057   8.107
 2175POPC   C4A29826  40.079   9.166   7.707
 2175POPC   C1B29827  39.700   8.565   8.853
 2175POPC   C2B29828  39.605   8.389   8.435
 2175POPC   C3B29829  39.818   8.535   8.055
 2175POPC   C4B29830  39.674   8.867   7.740
 2176POPC   NC329831  29.153  23.320   9.553
 2176POPC   PO429832  29.032  23.973   9.554
 2176POPC   GL129833  29.218  23.768   9.242
 2176POPC   GL229834  29.477  23.547   9.236
 2176POPC   C1A29835  29.130  23.751   8.842
 2176POPC   D2A29836  29.373  23.830   8.530
 2176POPC   C3A29837  29.177  23.937   8.159
 2176POPC   C4A29838  29.132  23.839   7.737
 2176POPC   C1B29839  29.461  23.342   8.857
 2176POPC   C2B29840  29.196  23.346   8.499
 2176POPC   C3B29841  29.226  23.386   8.060
 2176POPC   C4B29842  29.618  23.263   7.843
 2177POPC   NC329843  29.541   5.949   9.812
 2177POPC   PO429844  28.981   6.103   9.413
 2177POPC   GL129845  29.043   5.860   9.028
 2177POPC   GL229846  29.024   6.162   8.880
 2177POPC   C1A29847  29.399   5.879   8.686
 2177POPC   D2A29848  29.592   5.738   8.341
 2177POPC   C3A29849  29.382   5.556   8.018
 2177POPC   C4A29850  29.427   5.767   7.637
 2177POPC   C1B29851  28.886   5.852   8.565
 2177POPC   C2B29852  29.093   5.917   8.224
 2177POPC   C3B29853  29.018   6.005   7.828
 2177POPC   C4B29854  29.176   6.261   7.556
 2178POPC   NC329855   8.251  13.553   9.489
 2178POPC   PO429856   8.521  14.030   9.185
 2178POPC   GL129857   8.262  13.743   8.991
 2178POPC   GL229858   8.261  13.396   9.011
 2178POPC   C1A29859   8.247  13.649   8.579
 2178POPC   D2A29860   8.516  13.547   8.285
 2178POPC   C3A29861   8.281  13.542   7.903
 2178POPC   C4A29862   8.065  13.724   7.566
 2178POPC   C1B29863   7.881  13.319   8.794
 2178POPC   C2B29864   7.673  13.140   8.454
 2178POPC   C3B29865   7.904  13.218   8.094
 2178POPC   C4B29866   7.819  13.234   7.676
 2179POPC   NC329867   4.527  17.523   9.531
 2179POPC   PO429868   3.859  17.437   9.502
 2179POPC   GL129869   4.165  17.464   9.150
 2179POPC   GL229870   4.392  17.175   9.137
 2179POPC   C1A29871   4.128  17.643   8.721
 2179POPC   D2A29872   4.324  17.964   8.437
 2179POPC   C3A29873   4.386  17.831   8.015
 2179POPC   C4A29874   4.041  17.854   7.746
 2179POPC   C1B29875   4.578  17.397   8.809
 2179POPC   C2B29876   4.488  17.469   8.379
 2179POPC   C3B29877   4.347  17.317   7.982
 2179POPC   C4B29878   4.625  17.192   7.712
 2180POPC   NC329879  32.737   4.921   9.739
 2180POPC   PO429880  33.130   5.322   9.431
 2180POPC   GL129881  33.122   5.006   9.154
 2180POPC   GL229882  32.791   4.864   9.215
 2180POPC   C1A29883  33.254   4.872   8.780
 2180POPC   D2A29884  33.480   5.032   8.424
 2180POPC   C3A29885  33.296   4.956   8.046
 2180POPC   C4A29886  33.378   5.099   7.641
 2180POPC   C1B29887  32.746   5.069   8.814
 2180POPC   C2B29888  32.911   4.964   8.419
 2180POPC   C3B29889  32.820   5.127   8.051
 2180POPC   C4B29890  32.666   5.157   7.673
 2181POPC   NC329891  16.151   5.403   9.525
 2181POPC   PO429892  16.114   4.763   9.508
 2181POPC   GL129893  15.998   5.006   9.153
 2181POPC   GL229894  15.771   5.289   9.204
 2181POPC   C1A29895  15.822   5.021   8.738
 2181POPC   D2A29896  15.802   4.865   8.356
 2181POPC   C3A29897  15.962   5.058   8.035
 2181POPC   C4A29898  15.772   5.024   7.680
 2181POPC   C1B29899  16.044   5.460   8.885
 2181POPC   C2B29900  16.026   5.444   8.465
 2181POPC   C3B29901  15.865   5.574   8.104
 2181POPC   C4B29902  16.059   5.453   7.737
 2182POPC   NC329903   5.167  23.897   9.586
 2182POPC   PO429904   4.528  23.752   9.474
 2182POPC   GL129905   4.853  23.853   9.131
 2182POPC   GL229906   5.205  23.965   9.097
 2182POPC   C1A29907   5.020  23.620   8.757
 2182POPC   D2A29908   5.075  23.737   8.329
 2182POPC   C3A29909   4.941  23.678   7.914
 2182POPC   C4A29910   5.179  23.692   7.554
 2182POPC   C1B29911   5.061  24.133   8.715
 2182POPC   C2B29912   4.797  24.180   8.389
 2182POPC   C3B29913   4.988  24.199   8.004
 2182POPC   C4B29914   4.988  24.149   7.555
 2183POPC   NC329915   8.540  17.640   9.525
 2183POPC   PO429916   9.092  17.240   9.702
 2183POPC   GL129917   8.897  17.368   9.279
 2183POPC   GL229918   9.128  17.506   9.023
 2183POPC   C1A29919   8.662  17.461   8.867
 2183POPC   D2A29920   8.942  17.495   8.481
 2183POPC   C3A29921   8.833  17.790   8.146
 2183POPC   C4A29922   8.663  17.648   7.740
 2183POPC   C1B29923   9.394  17.304   8.694
 2183POPC   C2B29924   9.283  17.147   8.277
 2183POPC   C3B29925   9.005  17.295   7.937
 2183POPC   C4B29926   9.115  17.522   7.540
 2184POPC   NC329927   7.480  21.196   9.790
 2184POPC   PO429928   7.131  21.573   9.366
 2184POPC   GL129929   7.387  21.386   9.093
 2184POPC   GL229930   7.531  21.134   9.290
 2184POPC   C1A29931   7.376  21.507   8.641
 2184POPC   D2A29932   7.437  21.468   8.198
 2184POPC   C3A29933   7.122  21.383   7.907
 2184POPC   C4A29934   7.024  21.793   7.863
 2184POPC   C1B29935   7.681  21.043   8.887
 2184POPC   C2B29936   7.628  21.041   8.485
 2184POPC   C3B29937   7.822  21.170   8.153
 2184POPC   C4B29938   7.625  21.237   7.749
 2185POPC   NC329939  10.362  44.447   9.423
 2185POPC   PO429940  10.728   0.059   9.483
 2185POPC   GL129941  10.587  44.807   9.139
 2185POPC   GL229942  10.813  44.571   9.018
 2185POPC   C1A29943  10.371  44.634   8.741
 2185POPC   D2A29944  10.084  44.638   8.362
 2185POPC   C3A29945  10.268  44.825   8.010
 2185POPC   C4A29946  10.411  44.662   7.554
 2185POPC   C1B29947  10.816  44.916   8.709
 2185POPC   C2B29948  10.681  44.873   8.294
 2185POPC   C3B29949  10.703  44.536   7.978
 2185POPC   C4B29950  10.885  44.466   7.572
 2186POPC   NC329951   5.522  17.339   9.822
 2186POPC   PO429952   4.970  17.628   9.644
 2186POPC   GL129953   5.110  17.717   9.261
 2186POPC   GL229954   4.805  17.847   9.162
 2186POPC   C1A29955   5.083  17.516   8.850
 2186POPC   D2A29956   4.989  17.370   8.445
 2186POPC   C3A29957   5.228  17.556   8.116
 2186POPC   C4A29958   5.091  17.461   7.695
 2186POPC   C1B29959   4.732  17.880   8.726
 2186POPC   C2B29960   4.823  17.855   8.306
 2186POPC   C3B29961   4.908  17.924   7.897
 2186POPC   C4B29962   4.901  17.877   7.478
 2187POPC   NC329963  41.453  36.722   9.463
 2187POPC   PO429964  41.420  37.304   9.116
 2187POPC   GL129965  41.347  36.865   8.994
 2187POPC   GL229966  41.047  36.652   9.116
 2187POPC   C1A29967  41.666  36.649   8.766
 2187POPC   D2A29968  41.936  36.477   8.461
 2187POPC   C3A29969  41.857  36.701   8.068
 2187POPC   C4A29970  41.594  37.063   7.924
 2187POPC   C1B29971  41.160  36.480   8.686
 2187POPC   C2B29972  41.392  36.541   8.295
 2187POPC   C3B29973  41.406  36.576   7.830
 2187POPC   C4B29974  41.339  36.630   7.370
 2188POPC   NC329975   6.083  14.303   9.193
 2188POPC   PO429976   5.833  13.764   9.515
 2188POPC   GL129977   5.889  13.531   9.131
 2188POPC   GL229978   5.866  13.867   8.979
 2188POPC   C1A29979   5.985  13.480   8.666
 2188POPC   D2A29980   5.947  13.840   8.361
 2188POPC   C3A29981   5.875  13.747   7.939
 2188POPC   C4A29982   5.954  13.328   7.775
 2188POPC   C1B29983   5.546  13.777   8.665
 2188POPC   C2B29984   5.319  13.799   8.292
 2188POPC   C3B29985   5.359  13.893   7.872
 2188POPC   C4B29986   5.556  13.700   7.532
 2189POPC   NC329987  12.295  19.326   9.500
 2189POPC   PO429988  12.016  18.646   9.590
 2189POPC   GL129989  12.159  18.922   9.240
 2189POPC   GL229990  11.870  19.134   9.148
 2189POPC   C1A29991  12.383  18.945   8.812
 2189POPC   D2A29992  12.144  19.009   8.406
 2189POPC   C3A29993  12.352  19.004   7.972
 2189POPC   C4A29994  12.325  19.400   7.715
 2189POPC   C1B29995  11.971  19.370   8.783
 2189POPC   C2B29996  11.787  19.472   8.377
 2189POPC   C3B29997  11.891  19.276   7.988
 2189POPC   C4B29998  11.951  18.990   7.659
 2190POPC   NC329999  27.629  18.917   9.590
 2190POPC   PO430000  27.590  19.537   9.722
 2190POPC   GL130001  27.632  19.352   9.200
 2190POPC   GL230002  27.655  18.990   9.106
 2190POPC   C1A30003  27.431  19.199   8.719
 2190POPC   D2A30004  27.308  19.099   8.263
 2190POPC   C3A30005  27.548  18.906   7.911
 2190POPC   C4A30006  27.523  19.092   7.494
 2190POPC   C1B30007  27.803  18.683   8.811
 2190POPC   C2B30008  27.766  18.770   8.376
 2190POPC   C3B30009  27.989  18.634   7.977
 2190POPC   C4B30010  27.853  18.630   7.541
 2191POPC   NC330011  11.698  28.256   9.425
 2191POPC   PO430012  12.289  28.629   9.481
 2191POPC   GL130013  12.121  28.556   9.050
 2191POPC   GL230014  11.755  28.585   9.033
 2191POPC   C1A30015  12.001  28.217   8.696
 2191POPC   D2A30016  11.742  27.924   8.371
 2191POPC   C3A30017  11.841  27.951   7.900
 2191POPC   C4A30018  12.229  28.045   7.640
 2191POPC   C1B30019  11.844  28.717   8.650
 2191POPC   C2B30020  12.177  28.584   8.392
 2191POPC   C3B30021  12.248  28.500   7.991
 2191POPC   C4B30022  11.896  28.452   7.762
 2192POPC   NC330023   9.974  15.559   9.338
 2192POPC   PO430024   9.683  14.992   9.626
 2192POPC   GL130025   9.712  15.131   9.225
 2192POPC   GL230026  10.023  14.991   9.175
 2192POPC   C1A30027   9.690  15.298   8.809
 2192POPC   D2A30028   9.592  15.148   8.435
 2192POPC   C3A30029   9.861  15.255   8.105
 2192POPC   C4A30030   9.813  15.155   7.677
 2192POPC   C1B30031   9.908  14.765   8.804
 2192POPC   C2B30032  10.031  14.671   8.370
 2192POPC   C3B30033  10.136  14.846   7.953
 2192POPC   C4B30034  10.235  14.952   7.498
 2193POPC   NC330035  17.846  11.903   9.506
 2193POPC   PO430036  17.358  12.289   9.487
 2193POPC   GL130037  17.342  12.180   9.087
 2193POPC   GL230038  17.544  11.861   9.089
 2193POPC   C1A30039  17.527  12.176   8.684
 2193POPC   D2A30040  17.718  11.858   8.427
 2193POPC   C3A30041  17.700  12.000   8.004
 2193POPC   C4A30042  17.586  11.917   7.581
 2193POPC   C1B30043  17.214  11.760   8.814
 2193POPC   C2B30044  17.137  11.945   8.446
 2193POPC   C3B30045  17.189  11.888   8.031
 2193POPC   C4B30046  17.305  12.260   7.803
 2194POPC   NC330047  29.258   7.524   9.663
 2194POPC   PO430048  28.779   7.080   9.469
 2194POPC   GL130049  29.003   7.220   9.090
 2194POPC   GL230050  29.166   7.547   9.158
 2194POPC   C1A30051  29.005   7.309   8.676
 2194POPC   D2A30052  28.775   7.115   8.349
 2194POPC   C3A30053  28.753   7.381   8.037
 2194POPC   C4A30054  29.094   7.537   7.878
 2194POPC   C1B30055  29.380   7.665   8.786
 2194POPC   C2B30056  29.306   7.730   8.337
 2194POPC   C3B30057  29.582   7.612   7.978
 2194POPC   C4B30058  29.527   7.262   7.763
 2195POPC   NC330059   5.035  19.981   9.480
 2195POPC   PO430060   5.155  19.266   9.548
 2195POPC   GL130061   5.012  19.613   9.132
 2195POPC   GL230062   4.873  20.018   9.010
 2195POPC   C1A30063   5.065  19.693   8.701
 2195POPC   D2A30064   4.797  19.855   8.404
 2195POPC   C3A30065   4.899  19.785   8.001
 2195POPC   C4A30066   5.300  19.764   7.777
 2195POPC   C1B30067   5.083  20.212   8.629
 2195POPC   C2B30068   5.223  20.119   8.213
 2195POPC   C3B30069   5.090  20.224   7.805
 2195POPC   C4B30070   5.510  20.235   7.699
 2196POPC   NC330071   9.307  30.417   9.441
 2196POPC   PO430072   8.795  30.854   9.490
 2196POPC   GL130073   8.963  30.872   9.097
 2196POPC   GL230074   8.864  31.210   9.086
 2196POPC   C1A30075   9.085  30.670   8.690
 2196POPC   D2A30076   8.959  30.382   8.351
 2196POPC   C3A30077   9.084  30.502   7.952
 2196POPC   C4A30078   9.286  30.897   7.782
 2196POPC   C1B30079   8.613  31.109   8.720
 2196POPC   C2B30080   8.679  30.846   8.367
 2196POPC   C3B30081   8.801  30.933   7.974
 2196POPC   C4B30082   8.771  30.686   7.585
 2197POPC   NC330083  22.019  19.204   9.480
 2197POPC   PO430084  22.464  18.756   9.515
 2197POPC   GL130085  22.389  18.990   9.158
 2197POPC   GL230086  22.317  18.703   8.977
 2197POPC   C1A30087  22.299  19.160   8.740
 2197POPC   D2A30088  22.213  18.899   8.364
 2197POPC   C3A30089  22.112  19.151   7.998
 2197POPC   C4A30090  22.263  19.237   7.574
 2197POPC   C1B30091  21.934  18.776   8.803
 2197POPC   C2B30092  21.706  18.638   8.472
 2197POPC   C3B30093  21.808  18.731   8.049
 2197POPC   C4B30094  21.989  18.801   7.620
 2198POPC   NC330095  25.331   6.329   9.510
 2198POPC   PO430096  25.251   7.037   9.682
 2198POPC   GL130097  25.267   6.785   9.272
 2198POPC   GL230098  25.534   6.710   9.198
 2198POPC   C1A30099  25.170   6.689   8.814
 2198POPC   D2A30100  25.047   6.872   8.411
 2198POPC   C3A30101  24.966   6.699   8.016
 2198POPC   C4A30102  25.316   6.490   7.811
 2198POPC   C1B30103  25.714   6.718   8.817
 2198POPC   C2B30104  25.563   6.621   8.424
 2198POPC   C3B30105  25.761   6.629   8.032
 2198POPC   C4B30106  25.704   6.915   7.699
 2199POPC   NC330107  24.855  40.032   9.630
 2199POPC   PO430108  25.497  40.203   9.641
 2199POPC   GL130109  25.467  40.290   9.185
 2199POPC   GL230110  25.113  40.296   9.120
 2199POPC   C1A30111  25.537  40.241   8.730
 2199POPC   D2A30112  25.406  40.035   8.323
 2199POPC   C3A30113  25.509  40.116   7.883
 2199POPC   C4A30114  25.577  39.894   7.479
 2199POPC   C1B30115  25.032  40.189   8.675
 2199POPC   C2B30116  24.954  40.260   8.233
 2199POPC   C3B30117  25.011  40.032   7.874
 2199POPC   C4B30118  25.221  39.622   7.870
 2200POPC   NC330119  39.693  32.582   9.547
 2200POPC   PO430120  39.847  31.952   9.810
 2200POPC   GL130121  39.973  32.091   9.362
 2200POPC   GL230122  39.792  31.811   9.216
 2200POPC   C1A30123  40.014  32.281   8.922
 2200POPC   D2A30124  39.987  32.411   8.466
 2200POPC   C3A30125  40.282  32.269   8.164
 2200POPC   C4A30126  40.216  32.229   7.718
 2200POPC   C1B30127  39.631  31.946   8.810
 2200POPC   C2B30128  39.870  31.900   8.444
 2200POPC   C3B30129  39.822  32.049   8.048
 2200POPC   C4B30130  39.872  31.836   7.711
 2201POPC   NC330131   2.183  31.566   9.714
 2201POPC   PO430132   2.846  31.378   9.500
 2201POPC   GL130133   2.718  31.373   9.109
 2201POPC   GL230134   2.701  31.709   9.109
 2201POPC   C1A30135   2.820  31.399   8.691
 2201POPC   D2A30136   2.616  31.503   8.297
 2201POPC   C3A30137   2.832  31.338   7.919
 2201POPC   C4A30138   2.782  31.547   7.490
 2201POPC   C1B30139   3.033  31.848   8.847
 2201POPC   C2B30140   3.095  31.751   8.430
 2201POPC   C3B30141   2.917  31.818   8.012
 2201POPC   C4B30142   3.172  31.843   7.655
 2202POPC   NC330143  19.692  39.526   9.488
 2202POPC   PO430144  19.816  38.962   9.737
 2202POPC   GL130145  19.932  39.220   9.184
 2202POPC   GL230146  19.626  39.393   9.002
 2202POPC   C1A30147  19.910  39.097   8.725
 2202POPC   D2A30148  20.026  39.285   8.320
 2202POPC   C3A30149  19.817  39.129   7.970
 2202POPC   C4A30150  19.874  38.948   7.589
 2202POPC   C1B30151  20.048  39.568   8.793
 2202POPC   C2B30152  20.331  39.689   8.435
 2202POPC   C3B30153  20.305  39.618   7.989
 2202POPC   C4B30154  19.911  39.567   7.751
 2203POPC   NC330155   3.716   5.630   9.455
 2203POPC   PO430156   3.312   6.142   9.652
 2203POPC   GL130157   3.520   6.096   9.234
 2203POPC   GL230158   3.899   6.091   9.254
 2203POPC   C1A30159   3.376   5.977   8.792
 2203POPC   D2A30160   3.543   5.690   8.456
 2203POPC   C3A30161   3.574   5.740   8.024
 2203POPC   C4A30162   3.624   5.508   7.663
 2203POPC   C1B30163   3.805   6.249   8.828
 2203POPC   C2B30164   3.653   6.241   8.431
 2203POPC   C3B30165   3.775   6.204   8.033
 2203POPC   C4B30166   3.575   6.100   7.604
 2204POPC   NC330167  36.027  40.178   9.590
 2204POPC   PO430168  36.646  39.965   9.525
 2204POPC   GL130169  36.345  40.070   9.220
 2204POPC   GL230170  36.429  40.369   9.063
 2204POPC   C1A30171  36.013  40.046   8.891
 2204POPC   D2A30172  36.112  40.149   8.447
 2204POPC   C3A30173  35.808  40.103   8.112
 2204POPC   C4A30174  35.934  39.990   7.703
 2204POPC   C1B30175  36.505  39.975   8.759
 2204POPC   C2B30176  36.558  39.835   8.349
 2204POPC   C3B30177  36.345  39.890   7.975
 2204POPC   C4B30178  36.363  39.768   7.526
 2205POPC   NC330179  38.894  33.397   9.538
 2205POPC   PO430180  39.476  32.991   9.444
 2205POPC   GL130181  39.421  33.082   9.045
 2205POPC   GL230182  39.244  32.827   9.008
 2205POPC   C1A30183  39.317  33.074   8.586
 2205POPC   D2A30184  39.475  33.215   8.247
 2205POPC   C3A30185  39.436  33.153   7.822
 2205POPC   C4A30186  39.521  33.298   7.427
 2205POPC   C1B30187  38.907  32.831   8.713
 2205POPC   C2B30188  38.925  32.933   8.264
 2205POPC   C3B30189  39.110  32.779   7.879
 2205POPC   C4B30190  39.020  32.744   7.447
 2206POPC   NC330191  44.454  17.617   9.676
 2206POPC   PO430192  44.835  17.105   9.623
 2206POPC   GL130193  44.813  17.450   9.257
 2206POPC   GL230194  44.541  17.737   9.185
 2206POPC   C1A30195  44.918  17.537   8.805
 2206POPC   D2A30196  44.853  17.249   8.470
 2206POPC   C3A30197  44.672  17.302   8.040
 2206POPC   C4A30198  44.778  17.560   7.687
 2206POPC   C1B30199  44.417  17.500   8.825
 2206POPC   C2B30200  44.520  17.654   8.396
 2206POPC   C3B30201  44.327  17.690   7.963
 2206POPC   C4B30202  44.331  17.643   7.476
 2207POPC   NC330203  23.176   3.289   9.483
 2207POPC   PO430204  22.645   3.739   9.612
 2207POPC   GL130205  22.912   3.807   9.267
 2207POPC   GL230206  22.845   3.476   9.165
 2207POPC   C1A30207  22.797   3.859   8.837
 2207POPC   D2A30208  22.496   3.857   8.487
 2207POPC   C3A30209  22.716   3.763   8.130
 2207POPC   C4A30210  22.749   3.673   7.730
 2207POPC   C1B30211  23.065   3.317   8.827
 2207POPC   C2B30212  23.009   3.478   8.447
 2207POPC   C3B30213  23.017   3.317   8.064
 2207POPC   C4B30214  23.235   3.347   7.705
 2208POPC   NC330215  31.948   0.861   9.497
 2208POPC   PO430216  32.393   0.228   9.687
 2208POPC   GL130217  32.272   0.418   9.259
 2208POPC   GL230218  32.322   0.781   9.172
 2208POPC   C1A30219  32.140   0.302   8.813
 2208POPC   D2A30220  32.325   0.373   8.374
 2208POPC   C3A30221  32.162   0.268   7.976
 2208POPC   C4A30222  31.806   0.150   7.847
 2208POPC   C1B30223  32.425   0.750   8.735
 2208POPC   C2B30224  32.311   0.916   8.317
 2208POPC   C3B30225  32.320   0.759   7.908
 2208POPC   C4B30226  32.646   0.492   7.988
 2209POPC   NC330227  20.315  14.587   9.450
 2209POPC   PO430228  20.818  14.340   9.664
 2209POPC   GL130229  20.692  14.196   9.248
 2209POPC   GL230230  20.705  14.495   9.132
 2209POPC   C1A30231  20.752  14.156   8.745
 2209POPC   D2A30232  20.635  14.398   8.317
 2209POPC   C3A30233  20.809  14.156   7.930
 2209POPC   C4A30234  20.928  14.104   7.463
 2209POPC   C1B30235  20.439  14.565   8.782
 2209POPC   C2B30236  20.448  14.879   8.484
 2209POPC   C3B30237  20.439  14.910   8.069
 2209POPC   C4B30238  20.597  14.608   7.835
 2210POPC   NC330239  27.745  37.151   9.613
 2210POPC   PO430240  27.456  36.583   9.551
 2210POPC   GL130241  27.624  36.632   9.162
 2210POPC   GL230242  27.793  36.969   9.124
 2210POPC   C1A30243  27.700  36.471   8.749
 2210POPC   D2A30244  27.604  36.680   8.369
 2210POPC   C3A30245  27.624  36.599   7.938
 2210POPC   C4A30246  27.634  36.838   7.506
 2210POPC   C1B30247  27.474  36.973   8.783
 2210POPC   C2B30248  27.380  37.151   8.361
 2210POPC   C3B30249  27.546  37.110   7.938
 2210POPC   C4B30250  27.991  37.146   7.795
 2211POPC   NC330251  13.160   7.344   9.672
 2211POPC   PO430252  13.802   7.478   9.515
 2211POPC   GL130253  13.566   7.314   9.198
 2211POPC   GL230254  13.350   7.564   9.190
 2211POPC   C1A30255  13.688   7.473   8.800
 2211POPC   D2A30256  13.813   7.652   8.418
 2211POPC   C3A30257  13.698   7.364   8.117
 2211POPC   C4A30258  13.533   7.249   7.735
 2211POPC   C1B30259  13.178   7.527   8.834
 2211POPC   C2B30260  13.312   7.311   8.492
 2211POPC   C3B30261  13.183   7.304   8.094
 2211POPC   C4B30262  13.165   7.627   7.830
 2212POPC   NC330263  42.505  37.545   9.528
 2212POPC   PO430264  41.944  37.888   9.523
 2212POPC   GL130265  42.137  37.666   9.171
 2212POPC   GL230266  42.460  37.717   9.062
 2212POPC   C1A30267  42.144  37.460   8.763
 2212POPC   D2A30268  42.374  37.635   8.411
 2212POPC   C3A30269  42.203  37.556   8.006
 2212POPC   C4A30270  41.884  37.702   7.781
 2212POPC   C1B30271  42.245  37.969   8.780
 2212POPC   C2B30272  42.415  38.164   8.439
 2212POPC   C3B30273  42.460  38.010   8.044
 2212POPC   C4B30274  42.312  37.944   7.654
 2213POPC   NC330275  40.918  26.794   9.561
 2213POPC   PO430276  40.460  26.959   9.129
 2213POPC   GL130277  40.944  26.947   9.033
 2213POPC   GL230278  41.164  26.646   9.144
 2213POPC   C1A30279  40.930  26.964   8.584
 2213POPC   D2A30280  40.627  26.704   8.327
 2213POPC   C3A30281  40.668  26.841   7.925
 2213POPC   C4A30282  40.352  26.936   7.629
 2213POPC   C1B30283  40.967  26.487   8.781
 2213POPC   C2B30284  41.090  26.526   8.368
 2213POPC   C3B30285  40.950  26.407   7.981
 2213POPC   C4B30286  41.124  26.689   7.706
 2214POPC   NC330287  18.558   2.587   9.458
 2214POPC   PO430288  18.249   3.191   9.463
 2214POPC   GL130289  18.264   2.887   9.117
 2214POPC   GL230290  18.599   3.000   9.113
 2214POPC   C1A30291  17.976   2.670   8.777
 2214POPC   D2A30292  17.796   2.748   8.337
 2214POPC   C3A30293  18.111   2.681   7.997
 2214POPC   C4A30294  18.521   2.651   7.759
 2214POPC   C1B30295  18.492   3.138   8.714
 2214POPC   C2B30296  18.524   2.936   8.305
 2214POPC   C3B30297  18.466   3.131   7.928
 2214POPC   C4B30298  18.656   3.115   7.504
 2215POPC   NC330299  26.926   1.382   9.595
 2215POPC   PO430300  26.904   0.733   9.596
 2215POPC   GL130301  26.840   1.052   9.187
 2215POPC   GL230302  27.136   1.250   9.102
 2215POPC   C1A30303  26.811   1.242   8.722
 2215POPC   D2A30304  26.533   1.364   8.363
 2215POPC   C3A30305  26.626   1.243   7.959
 2215POPC   C4A30306  26.817   1.108   7.575
 2215POPC   C1B30307  27.163   1.580   8.749
 2215POPC   C2B30308  27.029   1.517   8.332
 2215POPC   C3B30309  27.076   1.489   7.904
 2215POPC   C4B30310  27.238   1.603   7.525
 2216POPC   NC330311  41.578  31.321   9.706
 2216POPC   PO430312  41.430  31.919   9.417
 2216POPC   GL130313  41.489  31.519   9.127
 2216POPC   GL230314  41.799  31.325   9.253
 2216POPC   C1A30315  41.326  31.332   8.735
 2216POPC   D2A30316  41.215  31.468   8.317
 2216POPC   C3A30317  41.390  31.534   7.924
 2216POPC   C4A30318  41.308  31.394   7.522
 2216POPC   C1B30319  41.848  31.314   8.805
 2216POPC   C2B30320  41.720  31.382   8.408
 2216POPC   C3B30321  41.559  31.095   8.133
 2216POPC   C4B30322  41.743  31.213   7.755
 2217POPC   NC330323  37.877  22.115   9.501
 2217POPC   PO430324  37.372  21.710   9.539
 2217POPC   GL130325  37.486  21.982   9.186
 2217POPC   GL230326  37.202  21.888   9.066
 2217POPC   C1A30327  37.821  22.165   8.871
 2217POPC   D2A30328  37.906  22.139   8.443
 2217POPC   C3A30329  37.934  22.432   8.104
 2217POPC   C4A30330  37.976  22.051   7.895
 2217POPC   C1B30331  37.161  21.775   8.694
 2217POPC   C2B30332  37.420  21.956   8.401
 2217POPC   C3B30333  37.485  22.134   8.037
 2217POPC   C4B30334  37.448  21.933   7.681
 2218POPC   NC330335  42.137  39.606   9.297
 2218POPC   PO430336  42.471  39.837   9.824
 2218POPC   GL130337  42.443  40.023   9.291
 2218POPC   GL230338  42.475  39.803   9.000
 2218POPC   C1A30339  42.228  40.219   8.874
 2218POPC   D2A30340  41.970  40.315   8.485
 2218POPC   C3A30341  42.190  40.331   8.134
 2218POPC   C4A30342  42.305  40.042   7.818
 2218POPC   C1B30343  42.674  39.752   8.655
 2218POPC   C2B30344  42.731  39.830   8.265
 2218POPC   C3B30345  42.610  39.642   7.938
 2218POPC   C4B30346  42.716  39.460   7.579
 2219POPC   NC330347  19.567   7.074   9.400
 2219POPC   PO430348  19.568   6.447   9.458
 2219POPC   GL130349  19.639   6.544   9.058
 2219POPC   GL230350  19.936   6.624   9.129
 2219POPC   C1A30351  19.722   6.765   8.663
 2219POPC   D2A30352  19.603   6.706   8.253
 2219POPC   C3A30353  19.877   6.884   7.926
 2219POPC   C4A30354  19.694   6.601   7.670
 2219POPC   C1B30355  20.085   6.403   8.719
 2219POPC   C2B30356  20.090   6.526   8.269
 2219POPC   C3B30357  20.173   6.447   7.835
 2219POPC   C4B30358  20.085   6.453   7.364
 2220POPC   NC330359  27.984   6.823   9.423
 2220POPC   PO430360  28.452   6.427   9.659
 2220POPC   GL130361  28.329   6.368   9.230
 2220POPC   GL230362  27.972   6.351   9.226
 2220POPC   C1A30363  28.314   6.604   8.857
 2220POPC   D2A30364  28.478   6.719   8.465
 2220POPC   C3A30365  28.367   6.625   8.049
 2220POPC   C4A30366  28.512   6.896   7.736
 2220POPC   C1B30367  27.953   6.218   8.808
 2220POPC   C2B30368  28.143   6.288   8.407
 2220POPC   C3B30369  28.034   6.250   7.966
 2220POPC   C4B30370  28.272   6.298   7.587
 2221POPC   NC330371   8.851  31.986   9.582
 2221POPC   PO430372   9.379  32.441   9.518
 2221POPC   GL130373   9.142  32.376   9.175
 2221POPC   GL230374   8.790  32.409   9.259
 2221POPC   C1A30375   9.152  32.206   8.774
 2221POPC   D2A30376   9.071  32.378   8.394
 2221POPC   C3A30377   8.930  32.068   8.111
 2221POPC   C4A30378   9.163  32.013   7.747
 2221POPC   C1B30379   8.695  32.468   8.818
 2221POPC   C2B30380   8.570  32.501   8.405
 2221POPC   C3B30381   8.778  32.639   8.050
 2221POPC   C4B30382   8.782  32.386   7.720
 2222POPC   NC330383  27.927  36.453   9.583
 2222POPC   PO430384  28.578  36.148   9.571
 2222POPC   GL130385  28.582  35.995   9.188
 2222POPC   GL230386  28.316  36.138   9.128
 2222POPC   C1A30387  28.450  35.879   8.739
 2222POPC   D2A30388  28.591  35.765   8.365
 2222POPC   C3A30389  28.455  35.901   7.980
 2222POPC   C4A30390  28.544  35.672   7.610
 2222POPC   C1B30391  28.314  36.360   8.712
 2222POPC   C2B30392  28.297  36.297   8.284
 2222POPC   C3B30393  28.498  36.422   7.914
 2222POPC   C4B30394  28.401  36.327   7.482
 2223POPC   NC330395  18.094  21.687   9.536
 2223POPC   PO430396  18.426  22.197   9.552
 2223POPC   GL130397  18.233  22.241   9.217
 2223POPC   GL230398  18.349  22.519   9.112
 2223POPC   C1A30399  18.086  22.164   8.829
 2223POPC   D2A30400  18.210  21.941   8.507
 2223POPC   C3A30401  18.171  22.158   8.178
 2223POPC   C4A30402  18.156  22.085   7.764
 2223POPC   C1B30403  18.555  22.468   8.716
 2223POPC   C2B30404  18.403  22.594   8.309
 2223POPC   C3B30405  18.448  22.498   7.883
 2223POPC   C4B30406  18.861  22.435   7.762
 2224POPC   NC330407  23.418   8.326   9.355
 2224POPC   PO430408  24.032   8.331   9.576
 2224POPC   GL130409  23.920   8.246   9.189
 2224POPC   GL230410  23.768   7.949   9.194
 2224POPC   C1A30411  23.821   8.271   8.764
 2224POPC   D2A30412  23.901   8.127   8.335
 2224POPC   C3A30413  23.627   8.312   8.000
 2224POPC   C4A30414  23.744   8.646   7.718
 2224POPC   C1B30415  23.523   7.776   8.833
 2224POPC   C2B30416  23.585   7.674   8.392
 2224POPC   C3B30417  23.700   7.799   8.000
 2224POPC   C4B30418  23.761   7.909   7.576
 2225POPC   NC330419  13.647  23.395   9.509
 2225POPC   PO430420  13.365  22.819   9.547
 2225POPC   GL130421  13.618  22.889   9.184
 2225POPC   GL230422  13.559  23.187   9.048
 2225POPC   C1A30423  13.876  22.814   8.802
 2225POPC   D2A30424  13.830  22.527   8.427
 2225POPC   C3A30425  13.751  22.683   7.999
 2225POPC   C4A30426  13.498  22.727   7.619
 2225POPC   C1B30427  13.421  23.023   8.631
 2225POPC   C2B30428  13.537  23.107   8.185
 2225POPC   C3B30429  13.326  23.210   7.791
 2225POPC   C4B30430  13.424  23.466   7.389
 2226POPC   NC330431  30.908  37.111   9.403
 2226POPC   PO430432  31.549  37.171   9.538
 2226POPC   GL130433  31.660  36.971   9.159
 2226POPC   GL230434  31.555  36.621   9.141
 2226POPC   C1A30435  31.556  37.003   8.712
 2226POPC   D2A30436  31.346  36.872   8.313
 2226POPC   C3A30437  31.506  37.176   8.038
 2226POPC   C4A30438  31.782  37.190   7.637
 2226POPC   C1B30439  31.838  36.563   8.784
 2226POPC   C2B30440  31.871  36.743   8.370
 2226POPC   C3B30441  31.705  36.706   7.956
 2226POPC   C4B30442  31.317  36.455   7.859
 2227POPC   NC330443  23.913  42.701   9.523
 2227POPC   PO430444  23.727  42.055   9.408
 2227POPC   GL130445  23.814  42.260   9.042
 2227POPC   GL230446  23.920  42.600   9.038
 2227POPC   C1A30447  23.662  42.361   8.643
 2227POPC   D2A30448  23.454  42.500   8.272
 2227POPC   C3A30449  23.654  42.317   7.887
 2227POPC   C4A30450  23.973  42.056   7.611
 2227POPC   C1B30451  24.175  42.440   8.726
 2227POPC   C2B30452  24.041  42.421   8.297
 2227POPC   C3B30453  23.864  42.768   8.109
 2227POPC   C4B30454  23.730  42.800   7.684
 2228POPC   NC330455  24.717  34.784   9.568
 2228POPC   PO430456  24.191  34.386   9.684
 2228POPC   GL130457  24.400  34.462   9.240
 2228POPC   GL230458  24.499  34.824   9.112
 2228POPC   C1A30459  24.250  34.505   8.796
 2228POPC   D2A30460  24.456  34.439   8.396
 2228POPC   C3A30461  24.319  34.257   8.008
 2228POPC   C4A30462  24.539  34.226   7.622
 2228POPC   C1B30463  24.727  34.719   8.749
 2228POPC   C2B30464  24.929  34.632   8.351
 2228POPC   C3B30465  24.693  34.624   7.965
 2228POPC   C4B30466  24.663  34.743   7.541
 2229POPC   NC330467   6.411  22.644   9.678
 2229POPC   PO430468   6.850  23.106   9.553
 2229POPC   GL130469   6.519  23.000   9.286
 2229POPC   GL230470   6.662  22.714   9.229
 2229POPC   C1A30471   6.358  23.036   8.855
 2229POPC   D2A30472   6.498  23.276   8.483
 2229POPC   C3A30473   6.640  23.113   8.100
 2229POPC   C4A30474   6.569  23.255   7.650
 2229POPC   C1B30475   6.516  22.558   8.837
 2229POPC   C2B30476   6.489  22.715   8.438
 2229POPC   C3B30477   6.400  22.504   8.058
 2229POPC   C4B30478   6.546  22.749   7.730
 2230POPC   NC330479  32.851  14.551   9.478
 2230POPC   PO430480  33.527  14.602   9.589
 2230POPC   GL130481  33.224  14.671   9.162
 2230POPC   GL230482  33.066  14.329   9.091
 2230POPC   C1A30483  33.014  14.651   8.722
 2230POPC   D2A30484  32.960  14.346   8.365
 2230POPC   C3A30485  32.852  14.451   7.967
 2230POPC   C4A30486  33.062  14.418   7.601
 2230POPC   C1B30487  33.211  14.116   8.769
 2230POPC   C2B30488  33.409  14.118   8.408
 2230POPC   C3B30489  33.331  14.233   7.987
 2230POPC   C4B30490  33.412  14.009   7.580
 2231POPC   NC330491  21.244  14.958   9.478
 2231POPC   PO430492  21.253  15.565   9.746
 2231POPC   GL130493  21.434  15.387   9.251
 2231POPC   GL230494  21.604  15.679   9.097
 2231POPC   C1A30495  21.385  15.062   8.849
 2231POPC   D2A30496  21.360  14.831   8.441
 2231POPC   C3A30497  21.301  15.066   8.079
 2231POPC   C4A30498  21.326  15.198   7.654
 2231POPC   C1B30499  21.536  15.529   8.725
 2231POPC   C2B30500  21.636  15.268   8.409
 2231POPC   C3B30501  21.719  15.331   7.991
 2231POPC   C4B30502  21.510  15.670   7.767
 2232POPC   NC330503  40.022  22.681   9.552
 2232POPC   PO430504  40.468  23.046   9.497
 2232POPC   GL130505  40.320  22.889   9.122
 2232POPC   GL230506  39.953  22.914   9.101
 2232POPC   C1A30507  40.255  23.037   8.694
 2232POPC   D2A30508  40.087  23.320   8.402
 2232POPC   C3A30509  40.227  23.206   7.996
 2232POPC   C4A30510  39.822  23.225   7.853
 2232POPC   C1B30511  39.938  22.656   8.715
 2232POPC   C2B30512  40.025  22.704   8.268
 2232POPC   C3B30513  39.912  22.691   7.825
 2232POPC   C4B30514  39.995  22.569   7.410
 2233POPC   NC330515  35.462  19.371   9.489
 2233POPC   PO430516  35.402  18.722   9.292
 2233POPC   GL130517  35.396  19.101   9.065
 2233POPC   GL230518  35.730  19.224   9.093
 2233POPC   C1A30519  35.404  19.339   8.681
 2233POPC   D2A30520  35.321  19.138   8.306
 2233POPC   C3A30521  35.228  19.236   7.883
 2233POPC   C4A30522  35.116  18.945   7.567
 2233POPC   C1B30523  35.788  18.949   8.727
 2233POPC   C2B30524  35.678  18.707   8.365
 2233POPC   C3B30525  35.514  18.797   7.991
 2233POPC   C4B30526  35.729  19.051   7.770
 2234POPC   NC330527  20.820  43.347   9.509
 2234POPC   PO430528  20.236  43.056   9.497
 2234POPC   GL130529  20.501  43.111   9.145
 2234POPC   GL230530  20.835  42.906   9.216
 2234POPC   C1A30531  20.354  43.311   8.746
 2234POPC   D2A30532  20.156  43.272   8.320
 2234POPC   C3A30533  20.414  43.298   7.933
 2234POPC   C4A30534  20.357  43.357   7.479
 2234POPC   C1B30535  20.730  42.775   8.796
 2234POPC   C2B30536  20.566  42.958   8.420
 2234POPC   C3B30537  20.740  42.919   8.031
 2234POPC   C4B30538  20.763  42.602   7.773
 2235POPC   NC330539  38.694  43.544   9.650
 2235POPC   PO430540  38.266  44.011   9.685
 2235POPC   GL130541  38.352  43.891   9.295
 2235POPC   GL230542  38.113  44.162   9.221
 2235POPC   C1A30543  38.614  43.657   8.963
 2235POPC   D2A30544  38.505  43.702   8.533
 2235POPC   C3A30545  38.709  43.703   8.125
 2235POPC   C4A30546  38.494  43.912   7.803
 2235POPC   C1B30547  38.093  44.327   8.866
 2235POPC   C2B30548  38.216  44.137   8.537
 2235POPC   C3B30549  38.176  44.110   8.144
 2235POPC   C4B30550  37.908  44.076   7.773
 2236POPC   NC330551  32.718  31.715   9.517
 2236POPC   PO430552  33.110  31.057   9.550
 2236POPC   GL130553  33.035  31.324   9.196
 2236POPC   GL230554  32.673  31.321   9.166
 2236POPC   C1A30555  33.060  31.341   8.745
 2236POPC   D2A30556  32.914  31.566   8.357
 2236POPC   C3A30557  33.144  31.660   7.979
 2236POPC   C4A30558  33.077  31.318   7.715
 2236POPC   C1B30559  32.555  31.386   8.726
 2236POPC   C2B30560  32.417  31.460   8.321
 2236POPC   C3B30561  32.502  31.571   7.879
 2236POPC   C4B30562  32.623  31.387   7.481
 2237POPC   NC330563  27.474  15.860   9.593
 2237POPC   PO430564  28.023  16.272   9.500
 2237POPC   GL130565  27.835  16.145   9.116
 2237POPC   GL230566  27.533  15.972   9.107
 2237POPC   C1A30567  27.710  16.255   8.680
 2237POPC   D2A30568  27.726  16.429   8.254
 2237POPC   C3A30569  27.718  16.146   7.909
 2237POPC   C4A30570  27.599  15.874   7.552
 2237POPC   C1B30571  27.486  15.804   8.706
 2237POPC   C2B30572  27.352  15.895   8.264
 2237POPC   C3B30573  27.269  15.646   7.876
 2237POPC   C4B30574  27.303  15.455   7.434
 2238POPC   NC330575  23.992   3.207   9.850
 2238POPC   PO430576  23.625   3.599   9.469
 2238POPC   GL130577  23.957   3.690   9.131
 2238POPC   GL230578  23.677   3.527   8.978
 2238POPC   C1A30579  24.080   3.530   8.677
 2238POPC   D2A30580  23.967   3.702   8.249
 2238POPC   C3A30581  24.011   3.450   7.850
 2238POPC   C4A30582  23.935   3.539   7.391
 2238POPC   C1B30583  23.372   3.693   8.751
 2238POPC   C2B30584  23.524   3.476   8.412
 2238POPC   C3B30585  23.523   3.591   8.031
 2238POPC   C4B30586  23.193   3.816   7.918
 2239POPC   NC330587  20.203  39.150   9.582
 2239POPC   PO430588  20.533  38.647   9.426
 2239POPC   GL130589  20.407  39.027   9.117
 2239POPC   GL230590  20.411  39.426   9.148
 2239POPC   C1A30591  20.406  39.199   8.678
 2239POPC   D2A30592  20.564  39.245   8.252
 2239POPC   C3A30593  20.330  39.113   7.874
 2239POPC   C4A30594  20.592  39.305   7.574
 2239POPC   C1B30595  20.674  39.620   8.798
 2239POPC   C2B30596  20.919  39.627   8.395
 2239POPC   C3B30597  21.024  39.384   7.999
 2239POPC   C4B30598  21.092  39.368   7.517
 2240POPC   NC330599   6.547  24.516   9.388
 2240POPC   PO430600   6.851  23.993   9.231
 2240POPC   GL130601   6.650  24.210   8.961
 2240POPC   GL230602   6.306  24.266   8.995
 2240POPC   C1A30603   6.678  24.359   8.570
 2240POPC   D2A30604   6.705  24.807   8.492
 2240POPC   C3A30605   6.710  24.776   8.081
 2240POPC   C4A30606   6.605  24.406   7.844
 2240POPC   C1B30607   6.296  24.652   8.751
 2240POPC   C2B30608   6.217  24.812   8.301
 2240POPC   C3B30609   6.254  24.766   7.828
 2240POPC   C4B30610   6.403  24.624   7.418
 2241POPC   NC330611  13.532  43.521   9.321
 2241POPC   PO430612  13.869  43.042   9.492
 2241POPC   GL130613  13.843  43.208   9.070
 2241POPC   GL230614  14.025  43.491   9.028
 2241POPC   C1A30615  13.630  43.149   8.669
 2241POPC   D2A30616  13.766  42.921   8.294
 2241POPC   C3A30617  13.466  42.825   7.968
 2241POPC   C4A30618  13.187  42.963   7.656
 2241POPC   C1B30619  14.035  43.456   8.593
 2241POPC   C2B30620  13.735  43.453   8.249
 2241POPC   C3B30621  13.763  43.348   7.805
 2241POPC   C4B30622  13.916  43.566   7.411
 2242POPC   NC330623  29.273   4.933   9.460
 2242POPC   PO430624  29.540   5.555   9.550
 2242POPC   GL130625  29.385   5.342   9.182
 2242POPC   GL230626  29.047   5.349   9.172
 2242POPC   C1A30627  29.365   4.997   8.842
 2242POPC   D2A30628  29.439   5.083   8.422
 2242POPC   C3A30629  29.200   4.906   8.112
 2242POPC   C4A30630  29.294   5.128   7.749
 2242POPC   C1B30631  29.143   5.438   8.734
 2242POPC   C2B30632  28.995   5.385   8.328
 2242POPC   C3B30633  28.773   5.575   8.015
 2242POPC   C4B30634  28.960   5.501   7.674
 2243POPC   NC330635   7.448  24.971   9.451
 2243POPC   PO430636   7.208  25.647   9.549
 2243POPC   GL130637   7.297  25.373   9.172
 2243POPC   GL230638   7.624  25.268   9.060
 2243POPC   C1A30639   7.243  25.040   8.821
 2243POPC   D2A30640   7.156  24.992   8.387
 2243POPC   C3A30641   7.451  25.151   8.148
 2243POPC   C4A30642   7.410  25.146   7.738
 2243POPC   C1B30643   7.567  25.606   8.793
 2243POPC   C2B30644   7.531  25.678   8.372
 2243POPC   C3B30645   7.696  25.573   7.983
 2243POPC   C4B30646   7.445  25.626   7.645
 2244POPC   NC330647   4.590  32.364   9.811
 2244POPC   PO430648   3.960  32.364   9.598
 2244POPC   GL130649   4.247  32.285   9.252
 2244POPC   GL230650   3.944  32.386   9.077
 2244POPC   C1A30651   4.240  32.043   8.855
 2244POPC   D2A30652   4.354  32.189   8.467
 2244POPC   C3A30653   4.227  32.103   8.088
 2244POPC   C4A30654   4.463  32.303   7.759
 2244POPC   C1B30655   3.865  32.380   8.653
 2244POPC   C2B30656   4.014  32.537   8.282
 2244POPC   C3B30657   3.973  32.451   7.802
 2244POPC   C4B30658   4.198  32.513   7.386
 2245POPC   NC330659  21.300  19.421   9.417
 2245POPC   PO430660  21.709  18.859   9.421
 2245POPC   GL130661  21.520  19.066   9.113
 2245POPC   GL230662  21.708  19.363   9.105
 2245POPC   C1A30663  21.329  19.025   8.721
 2245POPC   D2A30664  21.476  19.053   8.321
 2245POPC   C3A30665  21.231  19.023   7.987
 2245POPC   C4A30666  21.301  19.113   7.571
 2245POPC   C1B30667  21.797  19.265   8.692
 2245POPC   C2B30668  21.752  19.504   8.322
 2245POPC   C3B30669  21.610  19.359   7.937
 2245POPC   C4B30670  21.770  19.296   7.568
 2246POPC   NC330671  37.166  22.156   9.573
 2246POPC   PO430672  36.596  21.825   9.429
 2246POPC   GL130673  36.793  22.166   9.150
 2246POPC   GL230674  37.128  22.385   9.130
 2246POPC   C1A30675  36.852  22.171   8.708
 2246POPC   D2A30676  37.052  22.318   8.318
 2246POPC   C3A30677  36.793  22.482   7.973
 2246POPC   C4A30678  36.461  22.243   7.759
 2246POPC   C1B30679  37.353  22.312   8.764
 2246POPC   C2B30680  37.521  22.513   8.399
 2246POPC   C3B30681  37.326  22.608   7.979
 2246POPC   C4B30682  37.211  22.368   7.633
 2247POPC   NC330683  42.154   6.294   9.607
 2247POPC   PO430684  42.747   6.584   9.563
 2247POPC   GL130685  42.452   6.598   9.207
 2247POPC   GL230686  42.336   6.939   9.128
 2247POPC   C1A30687  42.131   6.380   8.940
 2247POPC   D2A30688  41.929   6.515   8.533
 2247POPC   C3A30689  42.211   6.500   8.189
 2247POPC   C4A30690  42.111   6.485   7.755
 2247POPC   C1B30691  42.254   6.832   8.754
 2247POPC   C2B30692  42.462   6.898   8.395
 2247POPC   C3B30693  42.584   6.804   8.007
 2247POPC   C4B30694  42.412   6.871   7.621
 2248POPC   NC330695  10.884  38.673   9.444
 2248POPC   PO430696  10.261  38.189   9.548
 2248POPC   GL130697  10.407  38.406   9.217
 2248POPC   GL230698  10.736  38.254   9.132
 2248POPC   C1A30699  10.294  38.304   8.804
 2248POPC   D2A30700  10.556  38.211   8.476
 2248POPC   C3A30701  10.478  38.350   8.052
 2248POPC   C4A30702  10.344  38.222   7.637
 2248POPC   C1B30703  10.693  38.626   8.818
 2248POPC   C2B30704  10.835  38.642   8.380
 2248POPC   C3B30705  10.696  38.827   8.007
 2248POPC   C4B30706  10.661  38.630   7.596
 2249POPC   NC330707  20.784   5.772   9.581
 2249POPC   PO430708  20.318   6.110   9.618
 2249POPC   GL130709  20.576   6.045   9.223
 2249POPC   GL230710  20.867   6.253   9.112
 2249POPC   C1A30711  20.634   5.683   8.919
 2249POPC   D2A30712  20.852   5.516   8.534
 2249POPC   C3A30713  20.629   5.664   8.165
 2249POPC   C4A30714  20.781   5.647   7.748
 2249POPC   C1B30715  20.591   6.180   8.750
 2249POPC   C2B30716  20.417   6.125   8.349
 2249POPC   C3B30717  20.586   6.100   7.926
 2249POPC   C4B30718  20.388   6.094   7.549
 2250POPC   NC330719  32.034   4.086   9.361
 2250POPC   PO430720  32.410   4.644   9.535
 2250POPC   GL130721  32.296   4.457   9.157
 2250POPC   GL230722  32.501   4.189   9.156
 2250POPC   C1A30723  32.038   4.372   8.748
 2250POPC   D2A30724  32.209   4.415   8.325
 2250POPC   C3A30725  32.032   4.483   7.912
 2250POPC   C4A30726  32.161   4.449   7.494
 2250POPC   C1B30727  32.461   4.104   8.709
 2250POPC   C2B30728  32.430   3.940   8.297
 2250POPC   C3B30729  32.403   4.146   7.902
 2250POPC   C4B30730  32.418   4.038   7.435
 2251POPC   NC330731  38.038   7.670   9.496
 2251POPC   PO430732  38.650   7.418   9.480
 2251POPC   GL130733  38.328   7.343   9.192
 2251POPC   GL230734  38.318   7.023   9.067
 2251POPC   C1A30735  38.249   7.436   8.773
 2251POPC   D2A30736  38.471   7.758   8.539
 2251POPC   C3A30737  38.386   7.637   8.130
 2251POPC   C4A30738  38.557   7.756   7.763
 2251POPC   C1B30739  38.703   7.142   8.868
 2251POPC   C2B30740  38.642   7.289   8.461
 2251POPC   C3B30741  38.680   7.087   8.091
 2251POPC   C4B30742  38.487   7.247   7.789
 2252POPC   NC330743  21.317  33.591   9.471
 2252POPC   PO430744  21.596  34.189   9.551
 2252POPC   GL130745  21.536  34.019   9.101
 2252POPC   GL230746  21.629  33.694   9.085
 2252POPC   C1A30747  21.477  33.864   8.621
 2252POPC   D2A30748  21.110  33.632   8.347
 2252POPC   C3A30749  21.114  33.738   7.903
 2252POPC   C4A30750  21.336  34.121   7.812
 2252POPC   C1B30751  21.899  33.513   8.806
 2252POPC   C2B30752  21.858  33.562   8.405
 2252POPC   C3B30753  21.603  33.676   8.089
 2252POPC   C4B30754  21.774  33.629   7.708
 2253POPC   NC330755  43.309   7.037   9.411
 2253POPC   PO430756  42.779   7.464   9.418
 2253POPC   GL130757  43.085   7.377   9.102
 2253POPC   GL230758  42.947   7.571   8.889
 2253POPC   C1A30759  43.095   7.095   8.726
 2253POPC   D2A30760  42.994   6.874   8.344
 2253POPC   C3A30761  43.023   7.112   8.003
 2253POPC   C4A30762  43.333   7.338   7.756
 2253POPC   C1B30763  43.332   7.560   8.682
 2253POPC   C2B30764  43.321   7.457   8.265
 2253POPC   C3B30765  42.959   7.604   8.017
 2253POPC   C4B30766  42.985   7.730   7.609
 2254POPC   NC330767  36.645  23.063   9.509
 2254POPC   PO430768  36.795  22.424   9.604
 2254POPC   GL130769  36.739  22.688   9.170
 2254POPC   GL230770  36.980  22.980   9.136
 2254POPC   C1A30771  36.961  22.671   8.732
 2254POPC   D2A30772  37.194  22.908   8.409
 2254POPC   C3A30773  36.966  22.986   8.033
 2254POPC   C4A30774  37.013  22.820   7.609
 2254POPC   C1B30775  36.763  23.143   8.766
 2254POPC   C2B30776  36.540  23.294   8.404
 2254POPC   C3B30777  36.692  23.443   8.021
 2254POPC   C4B30778  36.828  23.291   7.640
 2255POPC   NC330779  28.161  14.139   9.481
 2255POPC   PO430780  28.193  14.788   9.503
 2255POPC   GL130781  28.481  14.636   9.195
 2255POPC   GL230782  28.608  14.290   9.272
 2255POPC   C1A30783  28.471  14.544   8.764
 2255POPC   D2A30784  28.272  14.477   8.378
 2255POPC   C3A30785  28.510  14.502   7.980
 2255POPC   C4A30786  28.274  14.467   7.597
 2255POPC   C1B30787  28.724  14.110   8.878
 2255POPC   C2B30788  28.628  14.071   8.438
 2255POPC   C3B30789  28.422  14.023   8.046
 2255POPC   C4B30790  28.601  14.088   7.613
 2256POPC   NC330791   8.765   7.823   9.554
 2256POPC   PO430792   9.041   8.437   9.444
 2256POPC   GL130793   8.889   8.136   9.156
 2256POPC   GL230794   9.169   8.240   8.965
 2256POPC   C1A30795   8.859   7.898   8.746
 2256POPC   D2A30796   9.043   7.890   8.311
 2256POPC   C3A30797   8.781   7.936   7.947
 2256POPC   C4A30798   8.836   7.931   7.494
 2256POPC   C1B30799   9.137   8.327   8.577
 2256POPC   C2B30800   8.962   8.398   8.220
 2256POPC   C3B30801   9.110   8.295   7.840
 2256POPC   C4B30802   8.839   8.433   7.540
 2257POPC   NC330803  23.081  42.552   9.512
 2257POPC   PO430804  22.732  41.967   9.472
 2257POPC   GL130805  22.908  42.287   9.126
 2257POPC   GL230806  23.307  42.407   9.089
 2257POPC   C1A30807  22.968  42.505   8.720
 2257POPC   D2A30808  22.981  42.256   8.373
 2257POPC   C3A30809  23.024  42.431   7.990
 2257POPC   C4A30810  22.764  42.364   7.637
 2257POPC   C1B30811  23.267  42.071   8.791
 2257POPC   C2B30812  23.424  41.978   8.370
 2257POPC   C3B30813  23.156  41.930   8.012
 2257POPC   C4B30814  23.222  42.120   7.632
 2258POPC   NC330815  27.705  24.618   9.466
 2258POPC   PO430816  27.406  24.037   9.624
 2258POPC   GL130817  27.452  24.159   9.204
 2258POPC   GL230818  27.790  24.064   9.066
 2258POPC   C1A30819  27.440  24.337   8.789
 2258POPC   D2A30820  27.322  24.512   8.397
 2258POPC   C3A30821  27.455  24.251   8.099
 2258POPC   C4A30822  27.417  24.556   7.801
 2258POPC   C1B30823  28.016  24.268   8.756
 2258POPC   C2B30824  27.838  24.468   8.415
 2258POPC   C3B30825  27.873  24.606   8.021
 2258POPC   C4B30826  27.940  24.304   7.731
 2259POPC   NC330827   0.601  29.443   9.539
 2259POPC   PO430828   0.190  28.990   9.441
 2259POPC   GL130829   0.384  29.218   9.113
 2259POPC   GL230830   0.756  29.240   9.095
 2259POPC   C1A30831   0.268  29.198   8.694
 2259POPC   D2A30832   0.062  29.338   8.334
 2259POPC   C3A30833   0.382  29.226   8.028
 2259POPC   C4A30834   0.424  29.131   7.617
 2259POPC   C1B30835   0.688  28.895   8.795
 2259POPC   C2B30836   0.820  28.765   8.384
 2259POPC   C3B30837   0.660  28.785   7.967
 2259POPC   C4B30838   0.848  28.835   7.592
 2260POPC   NC330839  28.868   9.992   9.833
 2260POPC   PO430840  29.118  10.436   9.423
 2260POPC   GL130841  29.006  10.543   9.070
 2260POPC   GL230842  29.256  10.822   9.078
 2260POPC   C1A30843  28.944  10.304   8.696
 2260POPC   D2A30844  29.159  10.344   8.324
 2260POPC   C3A30845  29.040  10.209   7.916
 2260POPC   C4A30846  28.980  10.378   7.480
 2260POPC   C1B30847  29.153  10.788   8.651
 2260POPC   C2B30848  29.162  10.855   8.245
 2260POPC   C3B30849  29.014  10.726   7.903
 2260POPC   C4B30850  29.247  10.800   7.570
 2261POPC   NC330851  19.411   3.107   9.507
 2261POPC   PO430852  19.093   3.728   9.486
 2261POPC   GL130853  18.996   3.662   9.095
 2261POPC   GL230854  19.033   3.293   9.089
 2261POPC   C1A30855  18.813   3.593   8.709
 2261POPC   D2A30856  18.870   3.303   8.386
 2261POPC   C3A30857  18.837   3.468   8.005
 2261POPC   C4A30858  18.861   3.844   7.838
 2261POPC   C1B30859  19.277   3.346   8.737
 2261POPC   C2B30860  19.356   3.460   8.332
 2261POPC   C3B30861  19.338   3.356   7.911
 2261POPC   C4B30862  19.084   3.335   7.565
 2262POPC   NC330863  12.477  13.738   9.317
 2262POPC   PO430864  11.826  13.791   9.535
 2262POPC   GL130865  11.895  13.787   9.143
 2262POPC   GL230866  12.085  13.493   9.095
 2262POPC   C1A30867  12.076  13.901   8.783
 2262POPC   D2A30868  12.114  13.703   8.411
 2262POPC   C3A30869  12.049  13.901   8.057
 2262POPC   C4A30870  11.722  13.819   7.746
 2262POPC   C1B30871  11.982  13.181   8.813
 2262POPC   C2B30872  12.033  13.183   8.388
 2262POPC   C3B30873  12.028  13.395   7.982
 2262POPC   C4B30874  12.175  13.613   7.665
 2263POPC   NC330875  23.146  23.078   9.426
 2263POPC   PO430876  22.514  23.250   9.442
 2263POPC   GL130877  22.753  23.065   9.081
 2263POPC   GL230878  22.821  22.700   9.080
 2263POPC   C1A30879  22.913  23.161   8.630
 2263POPC   D2A30880  23.089  23.042   8.197
 2263POPC   C3A30881  22.962  23.284   7.816
 2263POPC   C4A30882  22.562  23.315   7.554
 2263POPC   C1B30883  23.133  22.720   8.756
 2263POPC   C2B30884  23.138  22.539   8.337
 2263POPC   C3B30885  23.010  22.596   7.905
 2263POPC   C4B30886  23.160  22.753   7.515
 2264POPC   NC330887  26.150  30.937   9.478
 2264POPC   PO430888  26.214  30.339   9.617
 2264POPC   GL130889  26.278  30.582   9.135
 2264POPC   GL230890  26.440  30.989   9.084
 2264POPC   C1A30891  25.994  30.701   8.758
 2264POPC   D2A30892  25.925  30.914   8.350
 2264POPC   C3A30893  25.751  30.692   8.005
 2264POPC   C4A30894  25.900  30.629   7.578
 2264POPC   C1B30895  26.468  30.867   8.709
 2264POPC   C2B30896  26.357  30.643   8.375
 2264POPC   C3B30897  26.256  30.695   7.976
 2264POPC   C4B30898  26.418  30.389   7.748
 2265POPC   NC330899  43.316  41.789   9.544
 2265POPC   PO430900  42.788  41.433   9.535
 2265POPC   GL130901  42.953  41.464   9.137
 2265POPC   GL230902  43.301  41.565   9.091
 2265POPC   C1A30903  42.875  41.622   8.717
 2265POPC   D2A30904  43.028  41.753   8.324
 2265POPC   C3A30905  42.880  41.601   7.936
 2265POPC   C4A30906  43.085  41.297   7.646
 2265POPC   C1B30907  43.582  41.664   8.755
 2265POPC   C2B30908  43.547  41.834   8.344
 2265POPC   C3B30909  43.443  41.642   7.962
 2265POPC   C4B30910  43.594  41.892   7.673
 2266POPC   NC330911   9.442   5.518   9.478
 2266POPC   PO430912   9.370   4.823   9.579
 2266POPC   GL130913   9.717   4.929   9.278
 2266POPC   GL230914   9.773   5.288   9.144
 2266POPC   C1A30915   9.710   4.868   8.827
 2266POPC   D2A30916   9.537   4.742   8.429
 2266POPC   C3A30917   9.608   4.938   8.027
 2266POPC   C4A30918   9.867   4.843   7.685
 2266POPC   C1B30919   9.439   5.313   8.803
 2266POPC   C2B30920   9.362   5.237   8.381
 2266POPC   C3B30921   9.643   5.452   8.110
 2266POPC   C4B30922   9.735   5.367   7.718
 2267POPC   NC330923  41.146  41.329   9.561
 2267POPC   PO430924  40.659  41.763   9.617
 2267POPC   GL130925  40.759  41.571   9.239
 2267POPC   GL230926  40.623  41.860   9.084
 2267POPC   C1A30927  40.614  41.404   8.842
 2267POPC   D2A30928  40.812  41.408   8.445
 2267POPC   C3A30929  40.588  41.437   8.094
 2267POPC   C4A30930  40.801  41.514   7.726
 2267POPC   C1B30931  40.980  41.888   8.829
 2267POPC   C2B30932  41.214  41.732   8.482
 2267POPC   C3B30933  40.990  41.801   8.117
 2267POPC   C4B30934  40.850  42.044   7.775
 2268POPC   NC330935  15.670  35.907   9.319
 2268POPC   PO430936  15.773  36.495   9.632
 2268POPC   GL130937  16.010  36.319   9.248
 2268POPC   GL230938  16.266  36.030   9.251
 2268POPC   C1A30939  15.934  36.159   8.807
 2268POPC   D2A30940  15.889  35.898   8.444
 2268POPC   C3A30941  15.667  36.034   8.050
 2268POPC   C4A30942  15.781  36.172   7.640
 2268POPC   C1B30943  16.415  36.262   8.859
 2268POPC   C2B30944  16.379  36.150   8.438
 2268POPC   C3B30945  16.169  36.120   8.074
 2268POPC   C4B30946  16.218  35.904   7.729
 2269POPC   NC330947   4.556  18.589   9.477
 2269POPC   PO430948   4.329  17.925   9.407
 2269POPC   GL130949   4.323  17.999   9.020
 2269POPC   GL230950   4.521  18.285   9.071
 2269POPC   C1A30951   4.047  18.231   8.777
 2269POPC   D2A30952   4.055  18.517   8.437
 2269POPC   C3A30953   4.084  18.265   8.086
 2269POPC   C4A30954   3.981  18.356   7.689
 2269POPC   C1B30955   4.485  18.535   8.742
 2269POPC   C2B30956   4.679  18.377   8.432
 2269POPC   C3B30957   4.589  18.293   8.073
 2269POPC   C4B30958   4.411  18.586   7.821
 2270POPC   NC330959  17.224  42.167   9.655
 2270POPC   PO430960  17.683  42.643   9.544
 2270POPC   GL130961  17.544  42.403   9.203
 2270POPC   GL230962  17.208  42.474   9.246
 2270POPC   C1A30963  17.628  42.327   8.758
 2270POPC   D2A30964  17.851  42.441   8.376
 2270POPC   C3A30965  17.577  42.302   8.076
 2270POPC   C4A30966  17.376  42.434   7.717
 2270POPC   C1B30967  17.179  42.574   8.823
 2270POPC   C2B30968  17.421  42.712   8.463
 2270POPC   C3B30969  17.329  42.860   8.054
 2270POPC   C4B30970  17.177  42.908   7.656
 2271POPC   NC330971  27.765  18.127   9.482
 2271POPC   PO430972  27.470  18.551   9.834
 2271POPC   GL130973  27.458  18.544   9.307
 2271POPC   GL230974  27.440  18.228   9.113
 2271POPC   C1A30975  27.298  18.665   8.883
 2271POPC   D2A30976  27.468  18.375   8.568
 2271POPC   C3A30977  27.548  18.390   8.136
 2271POPC   C4A30978  27.505  18.288   7.729
 2271POPC   C1B30979  27.490  17.923   8.785
 2271POPC   C2B30980  27.720  17.940   8.404
 2271POPC   C3B30981  27.609  17.895   7.998
 2271POPC   C4B30982  27.600  17.802   7.531
 2272POPC   NC330983  19.820  36.452   9.704
 2272POPC   PO430984  19.767  37.132   9.479
 2272POPC   GL130985  20.016  36.969   9.207
 2272POPC   GL230986  20.094  36.616   9.200
 2272POPC   C1A30987  20.128  37.192   8.869
 2272POPC   D2A30988  19.931  37.279   8.496
 2272POPC   C3A30989  19.780  37.067   8.153
 2272POPC   C4A30990  20.006  37.011   7.754
 2272POPC   C1B30991  19.934  36.751   8.758
 2272POPC   C2B30992  19.967  36.634   8.354
 2272POPC   C3B30993  20.062  36.537   7.958
 2272POPC   C4B30994  19.881  36.521   7.559
 2273POPC   NC330995   3.000  18.488   9.488
 2273POPC   PO430996   2.581  17.845   9.595
 2273POPC   GL130997   2.603  18.194   9.273
 2273POPC   GL230998   2.906  18.175   9.102
 2273POPC   C1A30999   2.501  18.348   8.850
 2273POPC   D2A31000   2.689  18.290   8.444
 2273POPC   C3A31001   2.446  18.259   8.063
 2273POPC   C4A31002   2.573  18.095   7.644
 2273POPC   C1B31003   3.081  18.410   8.766
 2273POPC   C2B31004   3.173  18.424   8.319
 2273POPC   C3B31005   2.924  18.438   7.924
 2273POPC   C4B31006   2.908  18.423   7.450
 2274POPC   NC331007  11.980  37.282   9.522
 2274POPC   PO431008  11.747  36.760   9.330
 2274POPC   GL131009  11.834  37.106   9.046
 2274POPC   GL231010  12.223  37.166   9.073
 2274POPC   C1A31011  11.845  36.989   8.615
 2274POPC   D2A31012  12.059  36.730   8.274
 2274POPC   C3A31013  11.958  36.525   7.854
 2274POPC   C4A31014  11.977  36.770   7.446
 2274POPC   C1B31015  12.485  37.062   8.670
 2274POPC   C2B31016  12.559  36.862   8.227
 2274POPC   C3B31017  12.396  36.769   7.782
 2274POPC   C4B31018  12.448  36.966   7.367
 2275POPC   NC331019   8.234  11.100   9.569
 2275POPC   PO431020   7.949  11.799   9.588
 2275POPC   GL131021   7.982  11.491   9.261
 2275POPC   GL231022   8.320  11.405   9.163
 2275POPC   C1A31023   7.940  11.291   8.848
 2275POPC   D2A31024   8.174  11.360   8.481
 2275POPC   C3A31025   7.939  11.327   8.121
 2275POPC   C4A31026   8.064  11.491   7.729
 2275POPC   C1B31027   8.436  11.076   8.840
 2275POPC   C2B31028   8.595  11.058   8.393
 2275POPC   C3B31029   8.443  11.263   8.004
 2275POPC   C4B31030   8.445  11.192   7.520
 2276POPC   NC331031  19.910  16.090   9.585
 2276POPC   PO431032  19.379  15.718   9.425
 2276POPC   GL131033  19.760  15.860   9.146
 2276POPC   GL231034  19.834  16.225   9.113
 2276POPC   C1A31035  19.975  15.941   8.731
 2276POPC   D2A31036  19.779  15.958   8.336
 2276POPC   C3A31037  20.041  15.834   8.011
 2276POPC   C4A31038  20.194  16.026   7.643
 2276POPC   C1B31039  19.603  16.313   8.770
 2276POPC   C2B31040  19.436  16.354   8.365
 2276POPC   C3B31041  19.672  16.359   7.996
 2276POPC   C4B31042  19.703  16.085   7.710
 2277POPC   NC331043  42.812  35.703   9.525
 2277POPC   PO431044  43.021  35.027   9.569
 2277POPC   GL131045  43.056  35.349   9.259
 2277POPC   GL231046  42.709  35.374   9.139
 2277POPC   C1A31047  43.078  35.641   8.883
 2277POPC   D2A31048  43.315  35.555   8.514
 2277POPC   C3A31049  43.140  35.655   8.096
 2277POPC   C4A31050  43.159  35.482   7.681
 2277POPC   C1B31051  42.965  35.138   8.821
 2277POPC   C2B31052  43.100  35.110   8.430
 2277POPC   C3B31053  43.275  35.161   8.067
 2277POPC   C4B31054  43.102  34.987   7.730
 2278POPC   NC331055  24.840  42.345   9.384
 2278POPC   PO431056  24.353  42.825   9.527
 2278POPC   GL131057  24.434  42.574   9.161
 2278POPC   GL231058  24.322  42.213   9.183
 2278POPC   C1A31059  24.664  42.631   8.762
 2278POPC   D2A31060  24.556  42.453   8.371
 2278POPC   C3A31061  24.406  42.672   8.035
 2278POPC   C4A31062  24.137  42.494   7.783
 2278POPC   C1B31063  24.574  42.112   8.794
 2278POPC   C2B31064  24.628  41.952   8.364
 2278POPC   C3B31065  24.415  42.088   8.002
 2278POPC   C4B31066  24.727  42.323   7.862
 2279POPC   NC331067  10.337  36.550   9.401
 2279POPC   PO431068  10.904  36.364   9.694
 2279POPC   GL131069  10.689  36.137   9.279
 2279POPC   GL231070  10.331  36.035   9.239
 2279POPC   C1A31071  10.712  36.008   8.857
 2279POPC   D2A31072  10.681  36.161   8.460
 2279POPC   C3A31073  10.794  35.956   8.090
 2279POPC   C4A31074  10.704  36.253   7.753
 2279POPC   C1B31075  10.270  36.237   8.835
 2279POPC   C2B31076  10.154  36.260   8.417
 2279POPC   C3B31077  10.302  36.133   8.057
 2279POPC   C4B31078  10.200  36.150   7.665
 2280POPC   NC331079  32.774   0.963   9.475
 2280POPC   PO431080  33.065   1.573   9.466
 2280POPC   GL131081  33.077   1.309   9.146
 2280POPC   GL231082  32.726   1.346   9.117
 2280POPC   C1A31083  32.967   1.027   8.799
 2280POPC   D2A31084  33.025   0.828   8.412
 2280POPC   C3A31085  32.896   0.944   8.005
 2280POPC   C4A31086  33.268   0.992   7.755
 2280POPC   C1B31087  32.899   1.551   8.731
 2280POPC   C2B31088  33.154   1.363   8.381
 2280POPC   C3B31089  33.052   1.422   7.939
 2280POPC   C4B31090  32.807   1.447   7.580
 2281POPC   NC331091  13.109   0.328   9.968
 2281POPC   PO431092  12.434   0.163   9.597
 2281POPC   GL131093  12.679   0.292   9.189
 2281POPC   GL231094  12.569   0.587   9.114
 2281POPC   C1A31095  12.981   0.225   8.851
 2281POPC   D2A31096  12.876   0.187   8.414
 2281POPC   C3A31097  13.133   0.209   8.080
 2281POPC   C4A31098  13.195   0.437   7.730
 2281POPC   C1B31099  12.583   0.512   8.679
 2281POPC   C2B31100  12.703   0.738   8.312
 2281POPC   C3B31101  12.740   0.669   7.867
 2281POPC   C4B31102  12.825   0.791   7.434
 2282POPC   NC331103  41.651  30.655   9.427
 2282POPC   PO431104  41.255  31.165   9.414
 2282POPC   GL131105  41.497  30.963   9.050
 2282POPC   GL231106  41.882  30.864   9.042
 2282POPC   C1A31107  41.572  30.887   8.613
 2282POPC   D2A31108  41.482  30.559   8.317
 2282POPC   C3A31109  41.211  30.675   8.006
 2282POPC   C4A31110  41.363  30.908   7.689
 2282POPC   C1B31111  42.006  30.623   8.697
 2282POPC   C2B31112  41.975  30.768   8.293
 2282POPC   C3B31113  41.837  30.734   7.877
 2282POPC   C4B31114  41.552  30.461   7.681
 2283POPC   NC331115  27.887  42.736   9.422
 2283POPC   PO431116  27.688  42.161   9.662
 2283POPC   GL131117  27.651  42.101   9.217
 2283POPC   GL231118  27.711  42.396   9.090
 2283POPC   C1A31119  27.585  41.917   8.763
 2283POPC   D2A31120  27.580  42.042   8.311
 2283POPC   C3A31121  27.880  42.185   7.979
 2283POPC   C4A31122  27.729  42.216   7.545
 2283POPC   C1B31123  27.399  42.418   8.780
 2283POPC   C2B31124  27.367  42.509   8.358
 2283POPC   C3B31125  27.483  42.494   7.985
 2283POPC   C4B31126  27.275  42.401   7.669
 2284POPC   NC331127  42.102  44.310   9.626
 2284POPC   PO431128  41.511  44.649   9.572
 2284POPC   GL131129  41.485  44.859   9.145
 2284POPC   GL231130  41.786   0.054   8.988
 2284POPC   C1A31131  41.331  44.959   8.757
 2284POPC   D2A31132  41.501   0.013   8.356
 2284POPC   C3A31133  41.540  44.617   8.163
 2284POPC   C4A31134  41.499  44.540   7.731
 2284POPC   C1B31135  41.798  44.720   8.693
 2284POPC   C2B31136  42.030  44.579   8.355
 2284POPC   C3B31137  41.979  44.743   7.947
 2284POPC   C4B31138  41.976  44.481   7.618
 2285POPC   NC331139  40.761  23.343   9.671
 2285POPC   PO431140  40.475  23.873   9.649
 2285POPC   GL131141  40.747  23.731   9.309
 2285POPC   GL231142  40.700  23.388   9.168
 2285POPC   C1A31143  40.737  23.849   8.880
 2285POPC   D2A31144  40.542  23.906   8.461
 2285POPC   C3A31145  40.781  24.091   8.121
 2285POPC   C4A31146  40.836  23.905   7.696
 2285POPC   C1B31147  40.878  23.315   8.756
 2285POPC   C2B31148  41.012  23.188   8.328
 2285POPC   C3B31149  40.902  23.354   7.940
 2285POPC   C4B31150  40.942  23.430   7.488
 2286POPC   NC331151  18.696  14.848   9.513
 2286POPC   PO431152  18.647  15.514   9.585
 2286POPC   GL131153  18.944  15.384   9.235
 2286POPC   GL231154  19.037  15.027   9.151
 2286POPC   C1A31155  19.094  15.412   8.797
 2286POPC   D2A31156  19.155  15.208   8.386
 2286POPC   C3A31157  19.008  15.497   8.090
 2286POPC   C4A31158  18.885  15.569   7.682
 2286POPC   C1B31159  19.143  14.724   8.810
 2286POPC   C2B31160  19.037  14.577   8.409
 2286POPC   C3B31161  18.809  14.819   8.114
 2286POPC   C4B31162  18.896  15.066   7.772
 2287POPC   NC331163  39.790  36.576   9.906
 2287POPC   PO431164  40.182  37.017   9.572
 2287POPC   GL131165  40.118  37.061   9.159
 2287POPC   GL231166  39.826  37.258   9.241
 2287POPC   C1A31167  40.122  36.763   8.796
 2287POPC   D2A31168  40.022  36.563   8.394
 2287POPC   C3A31169  40.086  36.790   7.999
 2287POPC   C4A31170  40.315  36.641   7.657
 2287POPC   C1B31171  39.767  37.201   8.827
 2287POPC   C2B31172  39.786  37.004   8.446
 2287POPC   C3B31173  39.690  37.125   8.070
 2287POPC   C4B31174  39.680  37.368   7.718
 2288POPC   NC331175  37.945   0.897   9.324
 2288POPC   PO431176  37.394   1.192   9.552
 2288POPC   GL131177  37.581   1.282   9.168
 2288POPC   GL231178  37.895   1.415   9.253
 2288POPC   C1A31179  37.537   1.188   8.731
 2288POPC   D2A31180  37.500   0.896   8.391
 2288POPC   C3A31181  37.793   0.955   8.093
 2288POPC   C4A31182  37.521   1.192   7.827
 2288POPC   C1B31183  38.007   1.405   8.802
 2288POPC   C2B31184  37.833   1.504   8.350
 2288POPC   C3B31185  37.986   1.396   7.934
 2288POPC   C4B31186  37.975   1.112   7.607
 2289POPC   NC331187  22.654  31.721   9.317
 2289POPC   PO431188  22.972  32.287   9.479
 2289POPC   GL131189  23.049  32.152   9.075
 2289POPC   GL231190  22.901  31.871   8.906
 2289POPC   C1A31191  23.042  32.277   8.652
 2289POPC   D2A31192  22.822  32.405   8.302
 2289POPC   C3A31193  23.127  32.342   8.004
 2289POPC   C4A31194  23.194  32.316   7.588
 2289POPC   C1B31195  22.697  31.856   8.498
 2289POPC   C2B31196  22.751  31.958   8.075
 2289POPC   C3B31197  22.678  32.257   7.765
 2289POPC   C4B31198  22.789  31.976   7.463
 2290POPC   NC331199  25.037  41.594   9.575
 2290POPC   PO431200  25.690  41.747   9.536
 2290POPC   GL131201  25.358  41.561   9.166
 2290POPC   GL231202  24.955  41.483   9.110
 2290POPC   C1A31203  25.253  41.521   8.716
 2290POPC   D2A31204  25.345  41.463   8.321
 2290POPC   C3A31205  25.046  41.649   8.061
 2290POPC   C4A31206  25.234  41.530   7.729
 2290POPC   C1B31207  24.871  41.177   8.817
 2290POPC   C2B31208  24.835  41.305   8.395
 2290POPC   C3B31209  24.890  41.161   7.983
 2290POPC   C4B31210  24.775  41.384   7.602
 2291POPC   NC331211  28.056   0.926   9.898
 2291POPC   PO431212  28.293   1.428   9.512
 2291POPC   GL131213  28.452   1.279   9.143
 2291POPC   GL231214  28.600   1.597   9.088
 2291POPC   C1A31215  28.327   1.093   8.747
 2291POPC   D2A31216  28.212   1.307   8.358
 2291POPC   C3A31217  28.394   1.141   8.066
 2291POPC   C4A31218  28.382   1.029   7.726
 2291POPC   C1B31219  28.582   1.514   8.664
 2291POPC   C2B31220  28.680   1.505   8.240
 2291POPC   C3B31221  28.705   1.499   7.773
 2291POPC   C4B31222  28.689   1.583   7.315
 2292POPC   NC331223   9.376   8.111   9.401
 2292POPC   PO431224   9.992   8.008   9.521
 2292POPC   GL131225   9.814   8.360   9.266
 2292POPC   GL231226   9.507   8.553   9.219
 2292POPC   C1A31227   9.761   8.249   8.836
 2292POPC   D2A31228   9.553   8.040   8.497
 2292POPC   C3A31229   9.673   8.207   8.110
 2292POPC   C4A31230   9.603   8.269   7.700
 2292POPC   C1B31231   9.483   8.665   8.807
 2292POPC   C2B31232   9.718   8.607   8.425
 2292POPC   C3B31233   9.654   8.712   7.971
 2292POPC   C4B31234   9.808   8.696   7.538
 2293POPC   NC331235  15.945  36.911   9.724
 2293POPC   PO431236  16.510  37.190   9.571
 2293POPC   GL131237  16.183  37.143   9.227
 2293POPC   GL231238  15.858  36.938   9.216
 2293POPC   C1A31239  16.038  37.187   8.797
 2293POPC   D2A31240  16.066  36.986   8.418
 2293POPC   C3A31241  16.288  37.174   8.092
 2293POPC   C4A31242  16.106  37.365   7.743
 2293POPC   C1B31243  16.062  36.673   8.863
 2293POPC   C2B31244  15.968  36.477   8.426
 2293POPC   C3B31245  15.856  36.518   7.998
 2293POPC   C4B31246  15.595  36.668   7.715
 2294POPC   NC331247  39.395  18.777   9.511
 2294POPC   PO431248  38.827  19.014   9.453
 2294POPC   GL131249  39.112  18.921   9.125
 2294POPC   GL231250  39.315  19.216   9.134
 2294POPC   C1A31251  39.533  18.854   8.875
 2294POPC   D2A31252  39.606  18.924   8.440
 2294POPC   C3A31253  39.296  18.868   8.116
 2294POPC   C4A31254  39.484  18.995   7.716
 2294POPC   C1B31255  39.140  19.124   8.681
 2294POPC   C2B31256  39.245  19.326   8.324
 2294POPC   C3B31257  39.263  19.390   7.938
 2294POPC   C4B31258  38.966  19.335   7.692
 2295POPC   NC331259  38.802  29.380   9.512
 2295POPC   PO431260  38.142  29.324   9.458
 2295POPC   GL131261  38.390  29.139   9.164
 2295POPC   GL231262  38.319  28.775   9.186
 2295POPC   C1A31263  38.497  29.328   8.753
 2295POPC   D2A31264  38.298  29.304   8.332
 2295POPC   C3A31265  38.517  29.478   7.981
 2295POPC   C4A31266  38.572  29.245   7.631
 2295POPC   C1B31267  38.649  28.818   8.862
 2295POPC   C2B31268  38.634  28.921   8.428
 2295POPC   C3B31269  38.535  28.868   7.983
 2295POPC   C4B31270  38.480  28.753   7.525
 2296POPC   NC331271  18.622  23.296   9.404
 2296POPC   PO431272  18.775  23.970   9.462
 2296POPC   GL131273  18.948  23.617   9.134
 2296POPC   GL231274  19.327  23.469   9.131
 2296POPC   C1A31275  19.187  23.781   8.771
 2296POPC   D2A31276  19.354  23.953   8.418
 2296POPC   C3A31277  19.213  23.781   8.077
 2296POPC   C4A31278  19.063  23.930   7.733
 2296POPC   C1B31279  19.101  23.248   8.772
 2296POPC   C2B31280  19.113  23.340   8.321
 2296POPC   C3B31281  19.084  23.324   7.866
 2296POPC   C4B31282  18.980  23.516   7.451
 2297POPC   NC331283  14.210  27.749   9.537
 2297POPC   PO431284  14.531  27.220   9.270
 2297POPC   GL131285  14.505  27.527   8.980
 2297POPC   GL231286  14.410  27.809   9.082
 2297POPC   C1A31287  14.595  27.554   8.576
 2297POPC   D2A31288  14.364  27.432   8.239
 2297POPC   C3A31289  14.604  27.478   7.901
 2297POPC   C4A31290  14.586  27.841   7.752
 2297POPC   C1B31291  14.178  27.853   8.710
 2297POPC   C2B31292  13.969  28.046   8.381
 2297POPC   C3B31293  13.969  27.872   7.968
 2297POPC   C4B31294  13.716  27.645   7.667
 2298POPC   NC331295  25.008  27.574   9.393
 2298POPC   PO431296  25.624  27.400   9.663
 2298POPC   GL131297  25.440  27.368   9.237
 2298POPC   GL231298  25.441  27.752   9.196
 2298POPC   C1A31299  25.181  27.319   8.817
 2298POPC   D2A31300  25.069  27.549   8.408
 2298POPC   C3A31301  25.164  27.411   7.994
 2298POPC   C4A31302  25.414  27.425   7.613
 2298POPC   C1B31303  25.247  27.830   8.799
 2298POPC   C2B31304  25.305  28.024   8.419
 2298POPC   C3B31305  25.463  27.952   8.017
 2298POPC   C4B31306  25.188  27.891   7.707
 2299POPC   NC331307  43.656  12.254   9.613
 2299POPC   PO431308  43.988  11.713   9.656
 2299POPC   GL131309  43.961  11.995   9.258
 2299POPC   GL231310  43.625  11.975   9.183
 2299POPC   C1A31311  44.138  12.140   8.791
 2299POPC   D2A31312  44.230  12.214   8.314
 2299POPC   C3A31313  43.999  12.039   7.947
 2299POPC   C4A31314  44.057  12.020   7.457
 2299POPC   C1B31315  43.674  12.310   8.898
 2299POPC   C2B31316  43.724  12.217   8.453
 2299POPC   C3B31317  43.503  12.216   8.065
 2299POPC   C4B31318  43.654  12.297   7.654
 2300POPC   NC331319  40.961  28.323   9.407
 2300POPC   PO431320  40.477  28.104   9.768
 2300POPC   GL131321  40.553  28.137   9.207
 2300POPC   GL231322  40.814  27.896   9.078
 2300POPC   C1A31323  40.742  28.300   8.766
 2300POPC   D2A31324  40.629  28.554   8.397
 2300POPC   C3A31325  40.722  28.372   7.996
 2300POPC   C4A31326  40.711  28.408   7.557
 2300POPC   C1B31327  40.497  27.860   8.739
 2300POPC   C2B31328  40.541  28.011   8.326
 2300POPC   C3B31329  40.485  27.936   7.879
 2300POPC   C4B31330  40.435  27.971   7.433
 2301POPC   NC331331  28.400  11.740   9.525
 2301POPC   PO431332  28.671  12.288   9.267
 2301POPC   GL131333  28.317  12.101   9.119
 2301POPC   GL231334  28.457  11.787   9.029
 2301POPC   C1A31335  28.057  12.286   8.809
 2301POPC   D2A31336  28.043  12.597   8.458
 2301POPC   C3A31337  28.047  12.378   8.056
 2301POPC   C4A31338  28.259  12.342   7.653
 2301POPC   C1B31339  28.076  11.709   8.834
 2301POPC   C2B31340  28.056  11.929   8.437
 2301POPC   C3B31341  28.317  11.935   8.067
 2301POPC   C4B31342  28.127  11.836   7.705
 2302POPC   NC331343  37.649  35.715   9.687
 2302POPC   PO431344  37.706  36.330   9.524
 2302POPC   GL131345  37.802  35.998   9.226
 2302POPC   GL231346  37.606  35.653   9.194
 2302POPC   C1A31347  37.887  36.203   8.801
 2302POPC   D2A31348  37.620  36.453   8.507
 2302POPC   C3A31349  37.728  36.353   8.073
 2302POPC   C4A31350  37.832  36.443   7.639
 2302POPC   C1B31351  37.525  35.869   8.825
 2302POPC   C2B31352  37.541  35.952   8.415
 2302POPC   C3B31353  37.532  35.840   8.010
 2302POPC   C4B31354  37.835  35.924   7.746
 2303POPC   NC331355   2.666  34.921   9.556
 2303POPC   PO431356   3.021  34.305   9.427
 2303POPC   GL131357   2.762  34.410   9.116
 2303POPC   GL231358   2.796  34.723   9.113
 2303POPC   C1A31359   2.787  34.420   8.678
 2303POPC   D2A31360   2.618  34.614   8.309
 2303POPC   C3A31361   2.792  34.350   8.006
 2303POPC   C4A31362   3.096  34.249   7.728
 2303POPC   C1B31363   2.764  34.926   8.744
 2303POPC   C2B31364   3.024  34.988   8.393
 2303POPC   C3B31365   3.051  34.779   8.013
 2303POPC   C4B31366   2.765  34.788   7.682
 2304POPC   NC331367  33.471  30.593   9.618
 2304POPC   PO431368  33.954  31.077   9.520
 2304POPC   GL131369  33.907  30.675   9.287
 2304POPC   GL231370  33.596  30.725   9.133
 2304POPC   C1A31371  34.035  30.679   8.848
 2304POPC   D2A31372  33.890  30.992   8.526
 2304POPC   C3A31373  33.888  30.811   8.131
 2304POPC   C4A31374  34.204  30.615   7.860
 2304POPC   C1B31375  33.408  30.958   8.804
 2304POPC   C2B31376  33.367  31.052   8.356
 2304POPC   C3B31377  33.398  30.937   7.906
 2304POPC   C4B31378  33.412  30.925   7.433
 2305POPC   NC331379   3.009  33.147   9.532
 2305POPC   PO431380   2.320  32.901   9.439
 2305POPC   GL131381   2.610  32.696   9.192
 2305POPC   GL231382   2.963  32.777   9.167
 2305POPC   C1A31383   2.565  32.785   8.776
 2305POPC   D2A31384   2.530  33.057   8.428
 2305POPC   C3A31385   2.748  33.008   8.045
 2305POPC   C4A31386   2.546  32.739   7.805
 2305POPC   C1B31387   2.952  33.117   8.832
 2305POPC   C2B31388   3.028  33.256   8.409
 2305POPC   C3B31389   2.969  33.478   8.016
 2305POPC   C4B31390   3.013  33.350   7.587
 2306POPC   NC331391  33.855  40.857   9.554
 2306POPC   PO431392  33.497  40.297   9.516
 2306POPC   GL131393  33.590  40.573   9.227
 2306POPC   GL231394  33.939  40.501   9.189
 2306POPC   C1A31395  33.672  40.878   8.908
 2306POPC   D2A31396  33.805  40.817   8.510
 2306POPC   C3A31397  33.558  40.690   8.140
 2306POPC   C4A31398  33.594  40.827   7.717
 2306POPC   C1B31399  34.143  40.628   8.845
 2306POPC   C2B31400  34.306  40.791   8.484
 2306POPC   C3B31401  34.075  40.666   8.122
 2306POPC   C4B31402  34.164  40.677   7.752
 2307POPC   NC331403  43.737  21.581   9.665
 2307POPC   PO431404  44.151  21.035   9.568
 2307POPC   GL131405  44.032  21.339   9.296
 2307POPC   GL231406  43.703  21.216   9.322
 2307POPC   C1A31407  44.025  21.520   8.903
 2307POPC   D2A31408  43.800  21.522   8.563
 2307POPC   C3A31409  43.860  21.570   8.136
 2307POPC   C4A31410  43.673  21.776   7.771
 2307POPC   C1B31411  43.578  21.228   8.921
 2307POPC   C2B31412  43.623  21.037   8.543
 2307POPC   C3B31413  43.458  21.106   8.160
 2307POPC   C4B31414  43.594  21.269   7.776
 2308POPC   NC331415  21.511  17.832   9.483
 2308POPC   PO431416  21.205  17.299   9.751
 2308POPC   GL131417  21.246  17.324   9.280
 2308POPC   GL231418  21.168  17.657   9.123
 2308POPC   C1A31419  21.258  17.265   8.797
 2308POPC   D2A31420  21.291  17.424   8.352
 2308POPC   C3A31421  21.458  17.147   7.997
 2308POPC   C4A31422  21.455  17.073   7.524
 2308POPC   C1B31423  21.423  17.780   8.744
 2308POPC   C2B31424  21.615  17.830   8.299
 2308POPC   C3B31425  21.521  17.640   7.897
 2308POPC   C4B31426  21.091  17.480   7.876
 2309POPC   NC331427  11.537  19.020   9.541
 2309POPC   PO431428  11.061  19.524   9.464
 2309POPC   GL131429  11.239  19.153   9.159
 2309POPC   GL231430  11.459  18.789   9.085
 2309POPC   C1A31431  11.483  19.171   8.773
 2309POPC   D2A31432  11.284  19.130   8.415
 2309POPC   C3A31433  11.526  18.936   8.114
 2309POPC   C4A31434  11.440  18.969   7.688
 2309POPC   C1B31435  11.080  18.803   8.808
 2309POPC   C2B31436  10.971  18.734   8.389
 2309POPC   C3B31437  11.019  18.941   8.007
 2309POPC   C4B31438  10.938  18.735   7.641
 2310POPC   NC331439   2.151  13.007   9.637
 2310POPC   PO431440   1.541  12.760   9.609
 2310POPC   GL131441   1.739  13.070   9.280
 2310POPC   GL231442   2.059  12.947   9.126
 2310POPC   C1A31443   1.747  13.188   8.815
 2310POPC   D2A31444   1.950  13.188   8.412
 2310POPC   C3A31445   1.768  13.096   8.001
 2310POPC   C4A31446   1.996  12.907   7.648
 2310POPC   C1B31447   2.016  12.757   8.699
 2310POPC   C2B31448   1.974  12.664   8.229
 2310POPC   C3B31449   1.929  12.430   7.809
 2310POPC   C4B31450   2.217  12.188   7.551
 2311POPC   NC331451  42.861  40.076   9.680
 2311POPC   PO431452  43.469  39.719   9.519
 2311POPC   GL131453  43.244  39.967   9.191
 2311POPC   GL231454  42.931  39.944   9.195
 2311POPC   C1A31455  43.168  39.881   8.743
 2311POPC   D2A31456  43.419  39.833   8.378
 2311POPC   C3A31457  43.181  39.931   8.016
 2311POPC   C4A31458  43.128  39.600   7.799
 2311POPC   C1B31459  42.736  40.211   8.887
 2311POPC   C2B31460  42.557  40.250   8.459
 2311POPC   C3B31461  42.751  40.241   7.992
 2311POPC   C4B31462  42.778  39.976   7.612
 2312POPC   NC331463  26.169  18.472   9.703
 2312POPC   PO431464  25.644  18.175   9.643
 2312POPC   GL131465  25.907  18.283   9.263
 2312POPC   GL231466  26.105  18.564   9.195
 2312POPC   C1A31467  26.034  18.147   8.848
 2312POPC   D2A31468  26.111  17.941   8.451
 2312POPC   C3A31469  25.829  18.148   8.162
 2312POPC   C4A31470  25.833  18.192   7.733
 2312POPC   C1B31471  26.339  18.559   8.812
 2312POPC   C2B31472  26.173  18.441   8.413
 2312POPC   C3B31473  26.152  18.576   7.972
 2312POPC   C4B31474  26.377  18.563   7.582
 2313POPC   NC331475  11.132   0.772   9.321
 2313POPC   PO431476  11.125   1.380   9.576
 2313POPC   GL131477  11.313   1.228   9.209
 2313POPC   GL231478  11.049   1.416   9.050
 2313POPC   C1A31479  11.452   1.248   8.779
 2313POPC   D2A31480  11.436   1.147   8.332
 2313POPC   C3A31481  11.219   1.436   8.032
 2313POPC   C4A31482  11.191   1.304   7.578
 2313POPC   C1B31483  10.976   1.075   8.743
 2313POPC   C2B31484  10.881   1.124   8.308
 2313POPC   C3B31485  11.096   0.947   7.968
 2313POPC   C4B31486  10.983   0.829   7.574
 2314POPC   NC331487   7.819  16.147   9.546
 2314POPC   PO431488   7.334  15.702   9.533
 2314POPC   GL131489   7.329  15.909   9.164
 2314POPC   GL231490   7.605  15.694   9.102
 2314POPC   C1A31491   7.358  16.109   8.770
 2314POPC   D2A31492   7.581  16.124   8.387
 2314POPC   C3A31493   7.402  16.169   8.002
 2314POPC   C4A31494   7.288  15.883   7.690
 2314POPC   C1B31495   7.750  15.766   8.718
 2314POPC   C2B31496   7.936  15.657   8.362
 2314POPC   C3B31497   7.711  15.712   8.022
 2314POPC   C4B31498   7.784  15.833   7.651
 2315POPC   NC331499  35.565  40.833   9.158
 2315POPC   PO431500  35.079  40.701   9.612
 2315POPC   GL131501  35.045  40.722   9.126
 2315POPC   GL231502  35.147  41.046   8.900
 2315POPC   C1A31503  35.207  40.568   8.722
 2315POPC   D2A31504  35.284  40.699   8.337
 2315POPC   C3A31505  35.365  40.473   7.994
 2315POPC   C4A31506  35.214  40.767   7.708
 2315POPC   C1B31507  35.538  41.075   8.575
 2315POPC   C2B31508  35.770  40.793   8.255
 2315POPC   C3B31509  35.722  40.847   7.807
 2315POPC   C4B31510  35.632  40.918   7.327
 2316POPC   NC331511  17.477  17.907   9.514
 2316POPC   PO431512  17.294  17.231   9.609
 2316POPC   GL131513  17.327  17.390   9.184
 2316POPC   GL231514  17.628  17.514   9.110
 2316POPC   C1A31515  17.397  17.215   8.744
 2316POPC   D2A31516  17.525  17.383   8.328
 2316POPC   C3A31517  17.726  17.196   7.990
 2316POPC   C4A31518  17.563  17.390   7.641
 2316POPC   C1B31519  17.540  17.718   8.699
 2316POPC   C2B31520  17.262  17.835   8.332
 2316POPC   C3B31521  17.352  17.857   7.867
 2316POPC   C4B31522  17.275  17.806   7.392
 2317POPC   NC331523  40.208  31.727   9.620
 2317POPC   PO431524  39.636  31.312   9.542
 2317POPC   GL131525  39.866  31.301   9.192
 2317POPC   GL231526  40.192  31.408   9.222
 2317POPC   C1A31527  39.886  31.490   8.798
 2317POPC   D2A31528  39.745  31.277   8.442
 2317POPC   C3A31529  39.819  31.505   8.093
 2317POPC   C4A31530  40.056  31.358   7.781
 2317POPC   C1B31531  40.341  31.284   8.795
 2317POPC   C2B31532  40.228  31.479   8.400
 2317POPC   C3B31533  40.275  31.765   8.052
 2317POPC   C4B31534  40.363  31.716   7.624
 2318POPC   NC331535  43.809  33.654   9.411
 2318POPC   PO431536  44.158  34.240   9.546
 2318POPC   GL131537  44.112  33.981   9.161
 2318POPC   GL231538  43.755  34.052   9.070
 2318POPC   C1A31539  44.045  33.746   8.758
 2318POPC   D2A31540  43.961  33.398   8.502
 2318POPC   C3A31541  44.168  33.392   8.081
 2318POPC   C4A31542  44.108  33.482   7.615
 2318POPC   C1B31543  43.555  33.853   8.747
 2318POPC   C2B31544  43.538  33.717   8.345
 2318POPC   C3B31545  43.758  33.691   7.983
 2318POPC   C4B31546  43.812  33.917   7.619
 2319POPC   NC331547  31.690   2.486   9.608
 2319POPC   PO431548  31.178   2.953   9.461
 2319POPC   GL131549  31.093   2.766   9.087
 2319POPC   GL231550  31.410   2.601   9.114
 2319POPC   C1A31551  31.119   2.785   8.630
 2319POPC   D2A31552  31.409   2.741   8.308
 2319POPC   C3A31553  31.543   2.961   7.949
 2319POPC   C4A31554  31.951   2.811   7.810
 2319POPC   C1B31555  31.674   2.710   8.759
 2319POPC   C2B31556  31.783   2.415   8.426
 2319POPC   C3B31557  31.657   2.413   7.984
 2319POPC   C4B31558  31.258   2.573   7.842
 2320POPC   NC331559  27.362  35.690   9.452
 2320POPC   PO431560  27.855  36.027   9.783
 2320POPC   GL131561  27.603  36.114   9.381
 2320POPC   GL231562  27.828  36.148   9.163
 2320POPC   C1A31563  27.388  36.095   8.938
 2320POPC   D2A31564  27.201  36.028   8.528
 2320POPC   C3A31565  27.334  36.237   8.153
 2320POPC   C4A31566  27.497  35.997   7.810
 2320POPC   C1B31567  27.928  36.004   8.743
 2320POPC   C2B31568  27.816  36.091   8.295
 2320POPC   C3B31569  27.976  36.167   7.855
 2320POPC   C4B31570  27.711  36.348   7.491
 2321POPC   NC331571  24.013  30.846   9.443
 2321POPC   PO431572  23.416  30.508   9.563
 2321POPC   GL131573  23.581  30.618   9.196
 2321POPC   GL231574  23.390  30.897   9.100
 2321POPC   C1A31575  23.432  30.478   8.771
 2321POPC   D2A31576  23.425  30.463   8.308
 2321POPC   C3A31577  23.705  30.667   8.032
 2321POPC   C4A31578  23.548  30.845   7.661
 2321POPC   C1B31579  23.779  30.875   8.813
 2321POPC   C2B31580  23.875  31.014   8.408
 2321POPC   C3B31581  23.686  31.188   8.032
 2321POPC   C4B31582  23.974  31.185   7.684
 2322POPC   NC331583  16.539  16.417   9.467
 2322POPC   PO431584  15.882  16.736   9.478
 2322POPC   GL131585  16.007  16.575   9.092
 2322POPC   GL231586  16.336  16.722   9.110
 2322POPC   C1A31587  15.847  16.602   8.661
 2322POPC   D2A31588  15.592  16.870   8.374
 2322POPC   C3A31589  15.667  16.841   7.926
 2322POPC   C4A31590  15.673  16.539   7.570
 2322POPC   C1B31591  16.237  16.967   8.759
 2322POPC   C2B31592  16.133  16.883   8.347
 2322POPC   C3B31593  16.233  17.000   7.975
 2322POPC   C4B31594  16.081  16.850   7.595
 2323POPC   NC331595  14.684   0.114   9.355
 2323POPC   PO431596  14.614  44.466   9.577
 2323POPC   GL131597  14.567  44.622   9.171
 2323POPC   GL231598  14.270  44.459   9.000
 2323POPC   C1A31599  14.578  44.783   8.759
 2323POPC   D2A31600  14.257  44.805   8.454
 2323POPC   C3A31601  14.347  44.796   8.032
 2323POPC   C4A31602  14.637  44.695   7.679
 2323POPC   C1B31603  13.981  44.398   8.651
 2323POPC   C2B31604  14.005  44.423   8.186
 2323POPC   C3B31605  14.213  44.386   7.763
 2323POPC   C4B31606  14.265  44.497   7.336
 2324POPC   NC331607  10.425  31.731   9.588
 2324POPC   PO431608  10.471  31.147   9.276
 2324POPC   GL131609  10.629  31.499   9.167
 2324POPC   GL231610  10.925  31.564   9.349
 2324POPC   C1A31611  10.539  31.687   8.778
 2324POPC   D2A31612  10.708  31.738   8.382
 2324POPC   C3A31613  10.645  31.410   8.107
 2324POPC   C4A31614  10.440  31.493   7.730
 2324POPC   C1B31615  11.040  31.578   8.896
 2324POPC   C2B31616  11.207  31.539   8.483
 2324POPC   C3B31617  11.133  31.741   8.100
 2324POPC   C4B31618  10.898  31.744   7.763
 2325POPC   NC331619  22.719   0.864   9.314
 2325POPC   PO431620  23.212   1.335   9.567
 2325POPC   GL131621  22.992   1.267   9.123
 2325POPC   GL231622  22.697   1.474   9.022
 2325POPC   C1A31623  22.901   1.150   8.670
 2325POPC   D2A31624  23.102   1.137   8.263
 2325POPC   C3A31625  22.941   1.068   7.861
 2325POPC   C4A31626  22.668   0.893   7.568
 2325POPC   C1B31627  22.562   1.548   8.612
 2325POPC   C2B31628  22.603   1.321   8.223
 2325POPC   C3B31629  22.520   1.356   7.783
 2325POPC   C4B31630  22.751   1.409   7.409
 2326POPC   NC331631   6.849   5.614   9.875
 2326POPC   PO431632   6.556   6.218   9.616
 2326POPC   GL131633   6.589   5.937   9.254
 2326POPC   GL231634   6.683   5.596   9.359
 2326POPC   C1A31635   6.377   5.746   8.873
 2326POPC   D2A31636   6.467   5.596   8.443
 2326POPC   C3A31637   6.460   5.833   8.049
 2326POPC   C4A31638   6.612   6.095   7.707
 2326POPC   C1B31639   6.860   5.586   8.926
 2326POPC   C2B31640   6.963   5.495   8.495
 2326POPC   C3B31641   7.007   5.690   8.105
 2326POPC   C4B31642   6.820   5.643   7.711
 2327POPC   NC331643  23.823  20.872   9.552
 2327POPC   PO431644  23.416  20.248   9.502
 2327POPC   GL131645  23.630  20.547   9.201
 2327POPC   GL231646  23.880  20.400   9.053
 2327POPC   C1A31647  23.627  20.848   8.846
 2327POPC   D2A31648  23.633  21.064   8.440
 2327POPC   C3A31649  23.609  20.761   8.112
 2327POPC   C4A31650  23.832  20.689   7.723
 2327POPC   C1B31651  23.657  20.326   8.698
 2327POPC   C2B31652  23.828  20.341   8.321
 2327POPC   C3B31653  23.980  20.219   7.962
 2327POPC   C4B31654  24.160  20.329   7.584
 2328POPC   NC331655  38.440  16.724   9.430
 2328POPC   PO431656  38.142  17.362   9.493
 2328POPC   GL131657  38.286  17.108   9.092
 2328POPC   GL231658  38.402  16.736   8.938
 2328POPC   C1A31659  38.072  16.999   8.687
 2328POPC   D2A31660  38.382  16.828   8.418
 2328POPC   C3A31661  38.274  16.616   8.067
 2328POPC   C4A31662  38.361  16.647   7.648
 2328POPC   C1B31663  38.653  16.457   8.646
 2328POPC   C2B31664  38.713  16.408   8.186
 2328POPC   C3B31665  38.763  16.316   7.752
 2328POPC   C4B31666  38.635  16.405   7.299
 2329POPC   NC331667   3.931   8.969   9.508
 2329POPC   PO431668   4.537   9.231   9.540
 2329POPC   GL131669   4.430   8.819   9.255
 2329POPC   GL231670   4.101   8.806   9.046
 2329POPC   C1A31671   4.526   8.609   8.823
 2329POPC   D2A31672   4.487   8.628   8.351
 2329POPC   C3A31673   4.530   8.983   8.071
 2329POPC   C4A31674   4.688   9.024   7.653
 2329POPC   C1B31675   4.118   8.855   8.581
 2329POPC   C2B31676   4.025   8.828   8.122
 2329POPC   C3B31677   3.860   9.074   7.753
 2329POPC   C4B31678   3.656   9.191   7.351
 2330POPC   NC331679   0.099  11.371   9.612
 2330POPC   PO431680   0.306  10.786   9.415
 2330POPC   GL131681   0.401  11.171   9.147
 2330POPC   GL231682   0.193  11.467   9.134
 2330POPC   C1A31683   0.369  11.338   8.686
 2330POPC   D2A31684   0.130  11.512   8.337
 2330POPC   C3A31685   0.392  11.494   7.963
 2330POPC   C4A31686   0.797  11.431   7.711
 2330POPC   C1B31687  44.966  11.095   8.905
 2330POPC   C2B31688  44.994  10.975   8.468
 2330POPC   C3B31689   0.103  11.054   8.059
 2330POPC   C4B31690   0.466  11.025   7.801
 2331POPC   NC331691   8.623   5.662   9.468
 2331POPC   PO431692   9.278   5.955   9.549
 2331POPC   GL131693   9.098   6.094   9.145
 2331POPC   GL231694   8.957   5.753   9.069
 2331POPC   C1A31695   9.073   6.045   8.677
 2331POPC   D2A31696   9.058   5.611   8.566
 2331POPC   C3A31697   9.071   5.598   8.143
 2331POPC   C4A31698   9.058   5.753   7.731
 2331POPC   C1B31699   8.623   5.797   8.760
 2331POPC   C2B31700   8.596   5.666   8.329
 2331POPC   C3B31701   8.667   5.933   7.980
 2331POPC   C4B31702   8.752   6.119   7.546
 2332POPC   NC331703  33.941  38.804   9.764
 2332POPC   PO431704  33.355  39.018   9.478
 2332POPC   GL131705  33.613  38.978   9.087
 2332POPC   GL231706  33.949  39.069   9.204
 2332POPC   C1A31707  33.654  39.096   8.619
 2332POPC   D2A31708  33.607  38.965   8.160
 2332POPC   C3A31709  33.648  39.270   7.840
 2332POPC   C4A31710  33.339  39.469   7.584
 2332POPC   C1B31711  34.135  39.113   8.765
 2332POPC   C2B31712  34.080  39.180   8.284
 2332POPC   C3B31713  34.089  39.543   7.978
 2332POPC   C4B31714  34.288  39.614   7.552
 2333POPC   NC331715  31.639  39.262   9.562
 2333POPC   PO431716  30.995  39.303   9.386
 2333POPC   GL131717  31.312  39.280   9.076
 2333POPC   GL231718  31.673  39.260   9.065
 2333POPC   C1A31719  31.261  39.259   8.653
 2333POPC   D2A31720  31.171  38.972   8.344
 2333POPC   C3A31721  31.124  39.143   7.984
 2333POPC   C4A31722  31.045  38.886   7.678
 2333POPC   C1B31723  31.750  39.070   8.676
 2333POPC   C2B31724  31.645  39.243   8.263
 2333POPC   C3B31725  31.617  39.186   7.814
 2333POPC   C4B31726  31.707  38.999   7.418
 2334POPC   NC331727  26.217  10.886   9.666
 2334POPC   PO431728  25.998  10.254   9.541
 2334POPC   GL131729  25.950  10.582   9.232
 2334POPC   GL231730  26.060  10.311   9.019
 2334POPC   C1A31731  26.048  10.771   8.799
 2334POPC   D2A31732  25.994  10.998   8.373
 2334POPC   C3A31733  25.914  10.758   7.956
 2334POPC   C4A31734  25.917  10.806   7.454
 2334POPC   C1B31735  26.082  10.306   8.586
 2334POPC   C2B31736  26.047  10.313   8.150
 2334POPC   C3B31737  26.202  10.147   7.765
 2334POPC   C4B31738  26.127  10.252   7.345
 2335POPC   NC331739  43.939  15.518   9.430
 2335POPC   PO431740  44.006  14.837   9.467
 2335POPC   GL131741  43.932  15.141   9.077
 2335POPC   GL231742  43.759  15.459   8.964
 2335POPC   C1A31743  43.886  15.022   8.633
 2335POPC   D2A31744  44.142  14.810   8.296
 2335POPC   C3A31745  44.030  14.900   7.852
 2335POPC   C4A31746  43.749  14.776   7.482
 2335POPC   C1B31747  44.079  15.521   8.656
 2335POPC   C2B31748  44.141  15.361   8.264
 2335POPC   C3B31749  44.152  15.424   7.825
 2335POPC   C4B31750  44.003  15.248   7.452
 2336POPC   NC331751  40.981  20.925   9.338
 2336POPC   PO431752  40.629  20.372   9.453
 2336POPC   GL131753  40.766  20.555   9.066
 2336POPC   GL231754  41.093  20.709   8.892
 2336POPC   C1A31755  40.618  20.769   8.714
 2336POPC   D2A31756  40.877  20.862   8.363
 2336POPC   C3A31757  40.648  20.810   7.992
 2336POPC   C4A31758  40.652  20.506   7.639
 2336POPC   C1B31759  41.063  20.296   8.717
 2336POPC   C2B31760  41.094  20.147   8.313
 2336POPC   C3B31761  41.038  20.483   8.017
 2336POPC   C4B31762  41.070  20.228   7.667
 2337POPC   NC331763   0.418  21.083   9.715
 2337POPC   PO431764   0.050  21.092   9.132
 2337POPC   GL131765   0.246  20.977   8.791
 2337POPC   GL231766   0.455  21.270   8.761
 2337POPC   C1A31767   0.115  21.066   8.401
 2337POPC   D2A31768   0.211  21.030   7.999
 2337POPC   C3A31769   0.246  21.461   7.914
 2337POPC   C4A31770   0.431  21.662   7.577
 2337POPC   C1B31771   0.278  21.571   8.434
 2337POPC   C2B31772   0.497  21.859   8.126
 2337POPC   C3B31773   0.826  21.679   7.882
 2337POPC   C4B31774   0.696  21.269   7.807
 2338POPC   NC331775  18.908  41.906   9.883
 2338POPC   PO431776  19.197  41.502   9.345
 2338POPC   GL131777  18.824  41.582   9.145
 2338POPC   GL231778  18.926  41.950   9.162
 2338POPC   C1A31779  18.675  41.399   8.751
 2338POPC   D2A31780  18.851  41.522   8.372
 2338POPC   C3A31781  18.782  41.318   7.985
 2338POPC   C4A31782  19.065  41.319   7.627
 2338POPC   C1B31783  19.124  41.781   8.758
 2338POPC   C2B31784  19.329  41.733   8.355
 2338POPC   C3B31785  19.104  41.727   7.964
 2338POPC   C4B31786  19.157  41.832   7.544
 2339POPC   NC331787  17.300  42.888   9.591
 2339POPC   PO431788  17.715  43.429   9.612
 2339POPC   GL131789  17.489  43.247   9.249
 2339POPC   GL231790  17.554  42.903   9.103
 2339POPC   C1A31791  17.558  43.336   8.810
 2339POPC   D2A31792  17.401  43.228   8.412
 2339POPC   C3A31793  17.639  43.308   8.058
 2339POPC   C4A31794  17.621  43.147   7.652
 2339POPC   C1B31795  17.841  42.853   8.740
 2339POPC   C2B31796  17.970  42.970   8.301
 2339POPC   C3B31797  17.826  42.768   7.917
 2339POPC   C4B31798  17.764  42.701   7.439
 2340POPC   NC331799  17.823   5.447   9.484
 2340POPC   PO431800  17.596   6.195   9.597
 2340POPC   GL131801  17.641   5.849   9.265
 2340POPC   GL231802  17.438   5.941   9.062
 2340POPC   C1A31803  17.694   5.587   8.836
 2340POPC   D2A31804  17.464   5.740   8.447
 2340POPC   C3A31805  17.641   5.800   8.031
 2340POPC   C4A31806  17.580   6.003   7.607
 2340POPC   C1B31807  17.143   5.814   8.846
 2340POPC   C2B31808  16.932   5.888   8.482
 2340POPC   C3B31809  17.030   5.801   8.069
 2340POPC   C4B31810  17.079   5.959   7.678
 2341POPC   NC331811  16.212   2.826   9.474
 2341POPC   PO431812  15.735   3.212   9.687
 2341POPC   GL131813  15.763   2.755   9.287
 2341POPC   GL231814  16.030   2.844   9.004
 2341POPC   C1A31815  15.564   2.681   8.835
 2341POPC   D2A31816  15.542   2.937   8.437
 2341POPC   C3A31817  15.841   2.943   8.109
 2341POPC   C4A31818  15.886   2.945   7.690
 2341POPC   C1B31819  16.002   2.485   8.714
 2341POPC   C2B31820  15.771   2.468   8.325
 2341POPC   C3B31821  15.932   2.444   7.914
 2341POPC   C4B31822  16.127   2.546   7.504
 2342POPC   NC331823  12.307  29.928   9.506
 2342POPC   PO431824  11.682  30.158   9.584
 2342POPC   GL131825  11.878  29.985   9.209
 2342POPC   GL231826  12.096  30.218   9.147
 2342POPC   C1A31827  11.944  29.873   8.782
 2342POPC   D2A31828  12.149  29.896   8.385
 2342POPC   C3A31829  12.061  30.005   7.946
 2342POPC   C4A31830  11.750  30.031   7.642
 2342POPC   C1B31831  12.443  30.122   8.878
 2342POPC   C2B31832  12.512  30.240   8.461
 2342POPC   C3B31833  12.578  29.993   8.109
 2342POPC   C4B31834  12.510  30.117   7.707
 2343POPC   NC331835  16.500  39.481   9.758
 2343POPC   PO431836  16.650  40.130   9.611
 2343POPC   GL131837  16.530  39.770   9.323
 2343POPC   GL231838  16.828  39.744   9.152
 2343POPC   C1A31839  16.444  39.800   8.834
 2343POPC   D2A31840  16.744  39.942   8.495
 2343POPC   C3A31841  16.814  39.962   8.057
 2343POPC   C4A31842  16.785  39.819   7.636
 2343POPC   C1B31843  16.917  40.116   8.942
 2343POPC   C2B31844  17.123  40.272   8.574
 2343POPC   C3B31845  17.185  40.320   8.127
 2343POPC   C4B31846  17.075  40.254   7.706
 2344POPC   NC331847  12.098  14.194   9.635
 2344POPC   PO431848  11.557  14.497   9.511
 2344POPC   GL131849  11.871  14.304   9.190
 2344POPC   GL231850  12.278  14.203   9.150
 2344POPC   C1A31851  12.002  14.414   8.776
 2344POPC   D2A31852  12.199  14.262   8.433
 2344POPC   C3A31853  12.068  14.396   8.058
 2344POPC   C4A31854  11.800  14.472   7.731
 2344POPC   C1B31855  12.557  14.070   8.759
 2344POPC   C2B31856  12.596  14.017   8.278
 2344POPC   C3B31857  12.511  14.076   7.847
 2344POPC   C4B31858  12.141  14.122   7.577
 2345POPC   NC331859  19.529  23.116   9.450
 2345POPC   PO431860  20.019  22.659   9.490
 2345POPC   GL131861  19.738  22.754   9.182
 2345POPC   GL231862  19.945  23.069   9.105
 2345POPC   C1A31863  19.546  22.945   8.817
 2345POPC   D2A31864  19.807  23.141   8.497
 2345POPC   C3A31865  19.799  23.004   8.056
 2345POPC   C4A31866  19.536  23.133   7.701
 2345POPC   C1B31867  19.995  22.700   8.773
 2345POPC   C2B31868  19.663  22.471   8.553
 2345POPC   C3B31869  19.613  22.396   8.110
 2345POPC   C4B31870  19.660  22.627   7.724
 2346POPC   NC331871  27.782  41.706   9.640
 2346POPC   PO431872  27.550  41.122   9.697
 2346POPC   GL131873  27.491  41.342   9.307
 2346POPC   GL231874  27.601  41.611   9.185
 2346POPC   C1A31875  27.453  41.280   8.849
 2346POPC   D2A31876  27.627  41.390   8.445
 2346POPC   C3A31877  27.405  41.455   8.050
 2346POPC   C4A31878  27.422  41.862   7.800
 2346POPC   C1B31879  27.905  41.529   8.862
 2346POPC   C2B31880  28.010  41.737   8.469
 2346POPC   C3B31881  27.859  41.689   8.062
 2346POPC   C4B31882  27.938  41.762   7.667
 2347POPC   NC331883   1.250  40.929   9.453
 2347POPC   PO431884   0.795  40.479   9.722
 2347POPC   GL131885   0.846  40.689   9.268
 2347POPC   GL231886   1.231  40.606   9.072
 2347POPC   C1A31887   0.877  40.866   8.835
 2347POPC   D2A31888   1.172  40.658   8.535
 2347POPC   C3A31889   1.150  40.795   8.126
 2347POPC   C4A31890   1.168  40.698   7.671
 2347POPC   C1B31891   1.385  41.021   8.823
 2347POPC   C2B31892   1.468  41.237   8.402
 2347POPC   C3B31893   1.446  41.153   7.938
 2347POPC   C4B31894   1.441  41.166   7.477
 2348POPC   NC331895   4.918  14.186   9.613
 2348POPC   PO431896   5.470  14.519   9.624
 2348POPC   GL131897   5.196  14.437   9.256
 2348POPC   GL231898   5.111  14.104   9.138
 2348POPC   C1A31899   5.040  14.555   8.860
 2348POPC   D2A31900   5.225  14.564   8.469
 2348POPC   C3A31901   5.122  14.274   8.153
 2348POPC   C4A31902   5.192  14.441   7.754
 2348POPC   C1B31903   5.116  14.070   8.681
 2348POPC   C2B31904   4.819  13.884   8.396
 2348POPC   C3B31905   4.675  14.012   8.004
 2348POPC   C4B31906   4.938  14.029   7.631
 2349POPC   NC331907  42.570   7.021   9.563
 2349POPC   PO431908  42.165   7.595   9.472
 2349POPC   GL131909  42.364   7.473   9.137
 2349POPC   GL231910  42.126   7.354   8.906
 2349POPC   C1A31911  42.490   7.709   8.746
 2349POPC   D2A31912  42.293   7.645   8.368
 2349POPC   C3A31913  42.414   7.760   7.944
 2349POPC   C4A31914  42.125   7.509   7.682
 2349POPC   C1B31915  42.591   7.213   8.789
 2349POPC   C2B31916  42.740   7.337   8.409
 2349POPC   C3B31917  42.466   7.280   8.054
 2349POPC   C4B31918  42.646   7.328   7.688
 2350POPC   NC331919  14.886   0.737   9.539
 2350POPC   PO431920  15.107   0.126   9.580
 2350POPC   GL131921  15.303   0.286   9.209
 2350POPC   GL231922  15.065   0.474   9.079
 2350POPC   C1A31923  15.472   0.349   8.761
 2350POPC   D2A31924  15.299   0.211   8.337
 2350POPC   C3A31925  15.198   0.514   8.013
 2350POPC   C4A31926  15.467   0.749   7.720
 2350POPC   C1B31927  15.043   0.080   8.799
 2350POPC   C2B31928  14.908  44.898   8.401
 2350POPC   C3B31929  14.782   0.072   8.045
 2350POPC   C4B31930  14.914   0.184   7.665
 2351POPC   NC331931   9.138  12.572   9.498
 2351POPC   PO431932   8.834  11.979   9.591
 2351POPC   GL131933   8.934  11.931   9.161
 2351POPC   GL231934   8.971  12.253   9.114
 2351POPC   C1A31935   9.176  11.968   8.752
 2351POPC   D2A31936   9.280  12.260   8.424
 2351POPC   C3A31937   9.348  12.065   8.046
 2351POPC   C4A31938   9.307  12.260   7.648
 2351POPC   C1B31939   8.697  12.106   8.740
 2351POPC   C2B31940   8.786  12.219   8.327
 2351POPC   C3B31941   8.829  12.065   7.918
 2351POPC   C4B31942   8.574  11.712   7.781
 2352POPC   NC331943  35.878  30.892   9.436
 2352POPC   PO431944  36.370  30.647   9.760
 2352POPC   GL131945  36.311  30.665   9.245
 2352POPC   GL231946  35.998  30.527   9.067
 2352POPC   C1A31947  36.173  30.894   8.804
 2352POPC   D2A31948  35.984  30.747   8.399
 2352POPC   C3A31949  36.243  30.828   8.036
 2352POPC   C4A31950  36.206  30.734   7.584
 2352POPC   C1B31951  35.720  30.390   8.717
 2352POPC   C2B31952  35.586  30.441   8.260
 2352POPC   C3B31953  35.816  30.569   7.884
 2352POPC   C4B31954  35.798  30.454   7.429
 2353POPC   NC331955  25.365  34.422   9.489
 2353POPC   PO431956  25.134  35.010   9.620
 2353POPC   GL131957  25.076  34.805   9.181
 2353POPC   GL231958  24.925  34.476   9.161
 2353POPC   C1A31959  25.252  34.599   8.783
 2353POPC   D2A31960  25.415  34.439   8.375
 2353POPC   C3A31961  25.615  34.716   8.073
 2353POPC   C4A31962  25.628  34.547   7.668
 2353POPC   C1B31963  24.879  34.242   8.719
 2353POPC   C2B31964  24.975  34.136   8.297
 2353POPC   C3B31965  25.021  34.237   7.861
 2353POPC   C4B31966  25.114  34.491   7.504
 2354POPC   NC331967  30.463   5.640   9.577
 2354POPC   PO431968  30.971   6.022   9.488
 2354POPC   GL131969  30.752   5.841   9.151
 2354POPC   GL231970  30.588   5.491   9.115
 2354POPC   C1A31971  30.653   6.124   8.843
 2354POPC   D2A31972  30.555   6.128   8.419
 2354POPC   C3A31973  30.892   6.110   8.119
 2354POPC   C4A31974  30.749   6.228   7.708
 2354POPC   C1B31975  30.551   5.646   8.692
 2354POPC   C2B31976  30.653   5.642   8.276
 2354POPC   C3B31977  30.493   5.829   7.941
 2354POPC   C4B31978  30.246   5.581   7.686
 2355POPC   NC331979  40.704   9.059   9.460
 2355POPC   PO431980  40.298   8.877   9.009
 2355POPC   GL131981  40.718   9.094   8.972
 2355POPC   GL231982  41.001   8.845   9.100
 2355POPC   C1A31983  41.081   9.203   8.738
 2355POPC   D2A31984  41.105   8.984   8.376
 2355POPC   C3A31985  41.176   9.202   8.037
 2355POPC   C4A31986  41.057   9.235   7.660
 2355POPC   C1B31987  40.861   8.696   8.725
 2355POPC   C2B31988  40.616   8.797   8.395
 2355POPC   C3B31989  40.748   8.919   8.023
 2355POPC   C4B31990  40.550   8.993   7.691
 2356POPC   NC331991   1.758  27.208   9.395
 2356POPC   PO431992   2.108  26.659   9.481
 2356POPC   GL131993   1.970  26.708   9.085
 2356POPC   GL231994   1.609  26.737   9.142
 2356POPC   C1A31995   1.853  26.939   8.728
 2356POPC   D2A31996   1.664  26.862   8.329
 2356POPC   C3A31997   2.037  26.915   8.098
 2356POPC   C4A31998   2.032  27.118   7.722
 2356POPC   C1B31999   1.580  26.511   8.760
 2356POPC   C2B32000   1.549  26.345   8.368
 2356POPC   C3B32001   1.430  26.495   7.984
 2356POPC   C4B32002   1.631  26.803   7.791
 2357POPC   NC332003  19.271   2.350   9.326
 2357POPC   PO432004  18.960   2.963   9.485
 2357POPC   GL132005  19.061   2.773   9.120
 2357POPC   GL232006  18.815   2.530   9.027
 2357POPC   C1A32007  18.974   2.927   8.714
 2357POPC   D2A32008  19.178   2.922   8.305
 2357POPC   C3A32009  18.963   2.973   7.954
 2357POPC   C4A32010  19.001   2.757   7.610
 2357POPC   C1B32011  19.134   2.449   8.704
 2357POPC   C2B32012  19.429   2.476   8.367
 2357POPC   C3B32013  19.258   2.447   7.962
 2357POPC   C4B32014  18.898   2.265   7.738
 2358POPC   NC332015  34.528   9.109   9.571
 2358POPC   PO432016  34.211   8.451   9.505
 2358POPC   GL132017  34.432   8.772   9.210
 2358POPC   GL232018  34.427   9.156   9.094
 2358POPC   C1A32019  34.495   8.766   8.776
 2358POPC   D2A32020  34.356   8.916   8.374
 2358POPC   C3A32021  34.675   9.013   8.086
 2358POPC   C4A32022  34.673   8.873   7.701
 2358POPC   C1B32023  34.309   9.293   8.724
 2358POPC   C2B32024  34.602   9.380   8.441
 2358POPC   C3B32025  34.664   9.518   8.059
 2358POPC   C4B32026  34.429   9.414   7.741
 2359POPC   NC332027  18.849   4.165   9.462
 2359POPC   PO432028  19.549   4.363   9.559
 2359POPC   GL132029  19.310   4.160   9.212
 2359POPC   GL232030  19.139   4.478   9.156
 2359POPC   C1A32031  19.086   4.099   8.797
 2359POPC   D2A32032  19.038   4.327   8.385
 2359POPC   C3A32033  18.953   4.322   7.932
 2359POPC   C4A32034  19.236   4.334   7.568
 2359POPC   C1B32035  18.837   4.576   8.802
 2359POPC   C2B32036  18.702   4.732   8.369
 2359POPC   C3B32037  18.868   4.813   7.945
 2359POPC   C4B32038  18.806   4.635   7.525
 2360POPC   NC332039  42.954  32.938   9.523
 2360POPC   PO432040  43.591  33.246   9.488
 2360POPC   GL132041  43.268  33.095   9.165
 2360POPC   GL232042  42.989  33.322   9.158
 2360POPC   C1A32043  43.273  32.853   8.764
 2360POPC   D2A32044  43.416  32.749   8.329
 2360POPC   C3A32045  43.118  32.707   7.968
 2360POPC   C4A32046  43.117  32.826   7.567
 2360POPC   C1B32047  42.936  33.221   8.737
 2360POPC   C2B32048  42.973  33.056   8.303
 2360POPC   C3B32049  43.120  33.245   7.911
 2360POPC   C4B32050  42.866  33.511   7.633
 2361POPC   NC332051  41.291  16.201   9.493
 2361POPC   PO432052  41.749  15.749   9.539
 2361POPC   GL132053  41.571  15.887   9.171
 2361POPC   GL232054  41.753  16.180   9.150
 2361POPC   C1A32055  41.408  16.100   8.798
 2361POPC   D2A32056  41.486  16.261   8.403
 2361POPC   C3A32057  41.401  15.949   8.064
 2361POPC   C4A32058  41.607  15.802   7.657
 2361POPC   C1B32059  41.959  16.191   8.773
 2361POPC   C2B32060  42.051  16.255   8.333
 2361POPC   C3B32061  41.784  16.248   7.957
 2361POPC   C4B32062  41.767  16.275   7.501
 2362POPC   NC332063  41.023  35.046   9.479
 2362POPC   PO432064  40.460  34.604   9.673
 2362POPC   GL132065  40.647  34.678   9.240
 2362POPC   GL232066  40.872  34.398   9.067
 2362POPC   C1A32067  40.678  34.804   8.812
 2362POPC   D2A32068  40.914  34.645   8.487
 2362POPC   C3A32069  40.897  34.771   8.083
 2362POPC   C4A32070  41.093  34.508   7.848
 2362POPC   C1B32071  40.455  34.313   8.916
 2362POPC   C2B32072  40.329  34.439   8.524
 2362POPC   C3B32073  40.556  34.384   8.163
 2362POPC   C4B32074  40.562  34.515   7.756
 2363POPC   NC332075  20.472  30.048   9.325
 2363POPC   PO432076  20.870  29.536   9.398
 2363POPC   GL132077  20.634  29.645   9.035
 2363POPC   GL232078  20.859  29.939   8.997
 2363POPC   C1A32079  20.310  29.764   8.708
 2363POPC   D2A32080  20.222  30.011   8.319
 2363POPC   C3A32081  20.505  29.970   7.949
 2363POPC   C4A32082  20.487  29.587   7.714
 2363POPC   C1B32083  21.159  29.933   8.637
 2363POPC   C2B32084  21.042  29.963   8.210
 2363POPC   C3B32085  20.965  29.670   7.862
 2363POPC   C4B32086  21.131  29.644   7.453
 2364POPC   NC332087   0.837   4.559   9.660
 2364POPC   PO432088   0.396   4.100   9.786
 2364POPC   GL132089   0.214   4.122   9.330
 2364POPC   GL232090   0.444   4.406   9.240
 2364POPC   C1A32091   0.146   4.200   8.866
 2364POPC   D2A32092   0.351   4.051   8.458
 2364POPC   C3A32093   0.233   3.955   8.027
 2364POPC   C4A32094   0.301   4.289   7.728
 2364POPC   C1B32095   0.638   4.451   8.808
 2364POPC   C2B32096   0.704   4.413   8.352
 2364POPC   C3B32097   0.869   4.500   7.951
 2364POPC   C4B32098   0.792   4.309   7.519
 2365POPC   NC332099  28.543   5.999   9.518
 2365POPC   PO432100  28.113   5.539   9.439
 2365POPC   GL132101  28.190   5.859   9.131
 2365POPC   GL232102  28.542   5.790   9.056
 2365POPC   C1A32103  28.213   5.785   8.680
 2365POPC   D2A32104  28.431   5.770   8.326
 2365POPC   C3A32105  28.221   5.670   7.915
 2365POPC   C4A32106  28.169   5.605   7.426
 2365POPC   C1B32107  28.531   6.159   8.781
 2365POPC   C2B32108  28.666   6.259   8.350
 2365POPC   C3B32109  28.539   6.105   7.963
 2365POPC   C4B32110  28.581   5.842   7.593
 2366POPC   NC332111  44.496   0.944   9.536
 2366POPC   PO432112  44.918   1.494   9.375
 2366POPC   GL132113  44.668   1.296   9.100
 2366POPC   GL232114  44.723   0.943   9.057
 2366POPC   C1A32115  44.812   1.337   8.685
 2366POPC   D2A32116  44.779   1.570   8.324
 2366POPC   C3A32117  44.869   1.343   7.929
 2366POPC   C4A32118  44.915   0.914   7.693
 2366POPC   C1B32119  44.397   1.055   8.732
 2366POPC   C2B32120  44.461   1.105   8.270
 2366POPC   C3B32121  44.445   1.100   7.807
 2366POPC   C4B32122  44.464   0.971   7.344
 2367POPC   NC332123   2.231   7.250   9.581
 2367POPC   PO432124   1.563   7.514   9.448
 2367POPC   GL132125   1.727   7.260   9.107
 2367POPC   GL232126   2.064   7.116   9.132
 2367POPC   C1A32127   1.769   7.461   8.691
 2367POPC   D2A32128   1.983   7.607   8.279
 2367POPC   C3A32129   1.736   7.402   7.914
 2367POPC   C4A32130   1.662   7.351   7.440
 2367POPC   C1B32131   2.192   7.200   8.756
 2367POPC   C2B32132   2.029   7.116   8.381
 2367POPC   C3B32133   2.202   7.219   7.974
 2367POPC   C4B32134   2.023   7.054   7.650
 2368POPC   NC332135  14.881  44.771   9.798
 2368POPC   PO432136  15.392  44.328   9.625
 2368POPC   GL132137  15.109  44.425   9.221
 2368POPC   GL232138  15.064  44.772   9.224
 2368POPC   C1A32139  15.107  44.573   8.756
 2368POPC   D2A32140  15.290  44.555   8.343
 2368POPC   C3A32141  15.057  44.621   7.962
 2368POPC   C4A32142  15.075  44.330   7.594
 2368POPC   C1B32143  15.464  44.850   8.994
 2368POPC   C2B32144  15.609  44.864   8.584
 2368POPC   C3B32145  15.643  44.852   8.144
 2368POPC   C4B32146  15.412   0.077   7.824
 2369POPC   NC332147  17.828  30.595   9.561
 2369POPC   PO432148  17.569  30.013   9.479
 2369POPC   GL132149  17.660  29.906   9.101
 2369POPC   GL232150  17.694  29.553   9.134
 2369POPC   C1A32151  17.527  30.144   8.778
 2369POPC   D2A32152  17.484  30.051   8.380
 2369POPC   C3A32153  17.392  30.254   8.012
 2369POPC   C4A32154  17.352  30.195   7.552
 2369POPC   C1B32155  17.426  29.397   8.859
 2369POPC   C2B32156  17.426  29.538   8.461
 2369POPC   C3B32157  17.456  29.687   8.033
 2369POPC   C4B32158  17.316  29.590   7.621
 2370POPC   NC332159  14.981  28.954   9.670
 2370POPC   PO432160  15.206  29.555   9.599
 2370POPC   GL132161  15.118  29.273   9.262
 2370POPC   GL232162  15.329  28.983   9.229
 2370POPC   C1A32163  15.218  29.377   8.831
 2370POPC   D2A32164  15.065  29.384   8.413
 2370POPC   C3A32165  15.150  29.185   8.041
 2370POPC   C4A32166  15.207  29.107   7.611
 2370POPC   C1B32167  15.455  28.925   8.815
 2370POPC   C2B32168  15.232  28.872   8.453
 2370POPC   C3B32169  15.361  28.729   8.083
 2370POPC   C4B32170  15.321  28.599   7.675
 2371POPC   NC332171  43.649  11.496   9.400
 2371POPC   PO432172  43.137  11.021   9.579
 2371POPC   GL132173  42.984  11.032   9.189
 2371POPC   GL232174  42.970  11.391   9.169
 2371POPC   C1A32175  42.884  11.094   8.781
 2371POPC   D2A32176  43.072  11.332   8.452
 2371POPC   C3A32177  42.974  11.188   8.052
 2371POPC   C4A32178  42.769  11.309   7.694
 2371POPC   C1B32179  43.351  11.250   8.890
 2371POPC   C2B32180  43.586  11.409   8.520
 2371POPC   C3B32181  43.451  11.354   8.079
 2371POPC   C4B32182  43.270  11.416   7.684
 2372POPC   NC332183  20.800  11.785   9.453
 2372POPC   PO432184  20.684  12.459   9.532
 2372POPC   GL132185  20.591  12.230   9.167
 2372POPC   GL232186  20.903  12.297   9.034
 2372POPC   C1A32187  20.456  12.017   8.777
 2372POPC   D2A32188  20.204  12.009   8.384
 2372POPC   C3A32189  20.340  11.779   8.022
 2372POPC   C4A32190  20.452  12.090   7.698
 2372POPC   C1B32191  20.950  11.925   8.764
 2372POPC   C2B32192  20.741  11.860   8.348
 2372POPC   C3B32193  20.837  11.873   7.920
 2372POPC   C4B32194  21.111  11.737   7.670
 2373POPC   NC332195  17.789  12.896   9.612
 2373POPC   PO432196  17.189  12.927   9.627
 2373POPC   GL132197  17.461  13.045   9.267
 2373POPC   GL232198  17.551  12.674   9.191
 2373POPC   C1A32199  17.641  13.019   8.847
 2373POPC   D2A32200  17.469  12.684   8.567
 2373POPC   C3A32201  17.583  12.653   8.133
 2373POPC   C4A32202  17.490  12.819   7.756
 2373POPC   C1B32203  17.864  12.546   8.856
 2373POPC   C2B32204  17.934  12.345   8.406
 2373POPC   C3B32205  18.027  12.439   7.968
 2373POPC   C4B32206  17.764  12.402   7.622
 2374POPC   NC332207  15.039  40.349   9.340
 2374POPC   PO432208  15.269  40.992   9.462
 2374POPC   GL132209  15.107  40.856   9.099
 2374POPC   GL232210  15.332  40.595   9.010
 2374POPC   C1A32211  15.123  40.918   8.656
 2374POPC   D2A32212  14.926  40.866   8.265
 2374POPC   C3A32213  15.131  41.119   7.961
 2374POPC   C4A32214  15.226  40.964   7.573
 2374POPC   C1B32215  15.535  40.626   8.656
 2374POPC   C2B32216  15.464  40.819   8.262
 2374POPC   C3B32217  15.485  40.646   7.865
 2374POPC   C4B32218  15.626  40.592   7.455
 2375POPC   NC332219  20.031  24.778   9.412
 2375POPC   PO432220  19.547  24.233   9.508
 2375POPC   GL132221  19.632  24.524   9.199
 2375POPC   GL232222  19.946  24.415   9.048
 2375POPC   C1A32223  19.588  24.678   8.790
 2375POPC   D2A32224  19.450  24.463   8.458
 2375POPC   C3A32225  19.670  24.291   8.117
 2375POPC   C4A32226  19.898  24.522   7.784
 2375POPC   C1B32227  20.086  24.737   8.735
 2375POPC   C2B32228  19.938  24.703   8.299
 2375POPC   C3B32229  20.033  24.980   7.981
 2375POPC   C4B32230  20.165  24.944   7.540
 2376POPC   NC332231  11.080   0.310   9.678
 2376POPC   PO432232  11.550   0.804   9.510
 2376POPC   GL132233  11.638   0.633   9.135
 2376POPC   GL232234  11.369   0.361   9.082
 2376POPC   C1A32235  11.522   0.722   8.719
 2376POPC   D2A32236  11.373   0.361   8.509
 2376POPC   C3A32237  11.382   0.313   8.069
 2376POPC   C4A32238  11.426   0.612   7.753
 2376POPC   C1B32239  10.973   0.391   8.833
 2376POPC   C2B32240  10.856   0.361   8.394
 2376POPC   C3B32241  10.906   0.467   7.949
 2376POPC   C4B32242  11.112   0.243   7.606
 2377POPC   NC332243  44.415  21.447   9.646
 2377POPC   PO432244  44.985  21.165   9.824
 2377POPC   GL132245  44.832  21.440   9.390
 2377POPC   GL232246  44.547  21.188   9.224
 2377POPC   C1A32247  44.846  21.675   8.916
 2377POPC   D2A32248  44.658  21.732   8.457
 2377POPC   C3A32249  44.768  21.623   8.009
 2377POPC   C4A32250  44.815  21.226   7.736
 2377POPC   C1B32251  44.482  21.341   8.804
 2377POPC   C2B32252  44.275  21.378   8.430
 2377POPC   C3B32253  44.344  21.363   8.007
 2377POPC   C4B32254  44.074  21.450   7.689
 2378POPC   NC332255  20.245  12.345   9.585
 2378POPC   PO432256  19.913  12.952   9.602
 2378POPC   GL132257  19.923  12.811   9.168
 2378POPC   GL232258  20.217  12.608   9.156
 2378POPC   C1A32259  20.036  12.883   8.717
 2378POPC   D2A32260  19.806  12.745   8.328
 2378POPC   C3A32261  19.979  12.984   7.985
 2378POPC   C4A32262  19.944  12.961   7.531
 2378POPC   C1B32263  20.119  12.387   8.763
 2378POPC   C2B32264  20.291  12.523   8.371
 2378POPC   C3B32265  20.214  12.504   7.952
 2378POPC   C4B32266  20.141  12.453   7.525
 2379POPC   NC332267  28.443  18.163   9.534
 2379POPC   PO432268  27.965  18.570   9.451
 2379POPC   GL132269  28.198  18.383   9.149
 2379POPC   GL232270  28.137  18.010   9.131
 2379POPC   C1A32271  28.462  18.292   8.803
 2379POPC   D2A32272  28.623  18.507   8.452
 2379POPC   C3A32273  28.537  18.275   8.138
 2379POPC   C4A32274  28.475  18.352   7.719
 2379POPC   C1B32275  27.927  18.182   8.794
 2379POPC   C2B32276  28.070  18.359   8.425
 2379POPC   C3B32277  28.063  18.130   8.059
 2379POPC   C4B32278  27.994  18.087   7.654
 2380POPC   NC332279  41.722  34.281   9.405
 2380POPC   PO432280  41.082  34.573   9.492
 2380POPC   GL132281  41.367  34.604   9.161
 2380POPC   GL232282  41.470  34.948   9.194
 2380POPC   C1A32283  41.498  34.537   8.721
 2380POPC   D2A32284  41.353  34.416   8.297
 2380POPC   C3A32285  41.624  34.511   7.928
 2380POPC   C4A32286  41.904  34.196   7.732
 2380POPC   C1B32287  41.208  34.947   8.800
 2380POPC   C2B32288  41.359  34.937   8.339
 2380POPC   C3B32289  41.339  34.951   7.869
 2380POPC   C4B32290  41.495  34.744   7.471
 2381POPC   NC332291  44.726   6.474   9.572
 2381POPC   PO432292  44.462   7.067   9.348
 2381POPC   GL132293  44.754   6.767   9.152
 2381POPC   GL232294  44.467   6.527   9.139
 2381POPC   C1A32295  44.848   6.666   8.719
 2381POPC   D2A32296  44.693   6.962   8.397
 2381POPC   C3A32297  44.583   6.824   7.996
 2381POPC   C4A32298  44.800   6.685   7.644
 2381POPC   C1B32299  44.290   6.373   8.769
 2381POPC   C2B32300  44.420   6.500   8.345
 2381POPC   C3B32301  44.445   6.319   7.903
 2381POPC   C4B32302  44.563   6.313   7.432
 2382POPC   NC332303  40.208  26.611   9.284
 2382POPC   PO432304  39.635  26.986   9.426
 2382POPC   GL132305  39.882  26.957   9.084
 2382POPC   GL232306  40.046  27.193   8.903
 2382POPC   C1A32307  39.861  26.739   8.713
 2382POPC   D2A32308  39.830  26.814   8.291
 2382POPC   C3A32309  40.165  26.698   8.055
 2382POPC   C4A32310  40.138  26.472   7.670
 2382POPC   C1B32311  40.257  27.013   8.527
 2382POPC   C2B32312  40.362  27.169   8.148
 2382POPC   C3B32313  40.351  27.408   7.802
 2382POPC   C4B32314  40.007  27.299   7.485
 2383POPC   NC332315  11.274   2.704   9.493
 2383POPC   PO432316  10.833   3.119   9.082
 2383POPC   GL132317  11.115   2.875   8.975
 2383POPC   GL232318  11.429   2.927   9.040
 2383POPC   C1A32319  11.232   2.892   8.549
 2383POPC   D2A32320  11.069   2.689   8.213
 2383POPC   C3A32321  11.098   3.011   7.887
 2383POPC   C4A32322  11.203   2.935   7.446
 2383POPC   C1B32323  11.387   2.493   8.788
 2383POPC   C2B32324  11.528   2.484   8.352
 2383POPC   C3B32325  11.454   2.607   7.888
 2383POPC   C4B32326  11.621   2.681   7.468
 2384POPC   NC332327  31.317   4.161   9.317
 2384POPC   PO432328  30.775   4.494   9.645
 2384POPC   GL132329  30.834   4.350   9.229
 2384POPC   GL232330  31.084   4.625   9.233
 2384POPC   C1A32331  30.553   4.332   8.826
 2384POPC   D2A32332  30.498   4.016   8.513
 2384POPC   C3A32333  30.524   4.219   8.125
 2384POPC   C4A32334  30.644   4.223   7.718
 2384POPC   C1B32335  30.957   4.641   8.786
 2384POPC   C2B32336  30.900   4.485   8.349
 2384POPC   C3B32337  30.784   4.689   7.920
 2384POPC   C4B32338  30.812   4.635   7.440
 2385POPC   NC332339  14.180  23.881   9.473
 2385POPC   PO432340  13.608  23.858   9.598
 2385POPC   GL132341  13.606  23.706   9.126
 2385POPC   GL232342  13.912  23.579   9.106
 2385POPC   C1A32343  13.709  23.464   8.662
 2385POPC   D2A32344  13.581  23.612   8.265
 2385POPC   C3A32345  13.607  23.637   7.834
 2385POPC   C4A32346  13.167  23.705   7.754
 2385POPC   C1B32347  13.991  23.874   8.784
 2385POPC   C2B32348  13.922  23.992   8.342
 2385POPC   C3B32349  14.116  24.202   7.986
 2385POPC   C4B32350  14.022  24.116   7.554
 2386POPC   NC332351  36.408  15.491   9.546
 2386POPC   PO432352  35.963  14.953   9.474
 2386POPC   GL132353  36.174  15.130   9.149
 2386POPC   GL232354  36.075  15.445   9.147
 2386POPC   C1A32355  36.026  15.189   8.702
 2386POPC   D2A32356  36.181  15.133   8.284
 2386POPC   C3A32357  35.950  15.310   7.935
 2386POPC   C4A32358  36.085  15.271   7.505
 2386POPC   C1B32359  36.454  15.422   8.850
 2386POPC   C2B32360  36.548  15.523   8.399
 2386POPC   C3B32361  36.427  15.597   7.947
 2386POPC   C4B32362  36.366  15.703   7.502
 2387POPC   NC332363   5.493  15.003   9.597
 2387POPC   PO432364   4.987  15.382   9.773
 2387POPC   GL132365   5.171  15.294   9.326
 2387POPC   GL232366   5.155  14.947   9.219
 2387POPC   C1A32367   5.218  15.382   8.909
 2387POPC   D2A32368   4.883  15.487   8.637
 2387POPC   C3A32369   4.892  15.348   8.227
 2387POPC   C4A32370   4.997  15.336   7.808
 2387POPC   C1B32371   4.842  15.025   8.896
 2387POPC   C2B32372   4.815  14.886   8.471
 2387POPC   C3B32373   5.044  14.856   8.086
 2387POPC   C4B32374   4.894  14.847   7.678
 2388POPC   NC332375  23.741  19.096   9.466
 2388POPC   PO432376  23.323  18.529   9.397
 2388POPC   GL132377  23.565  18.852   9.054
 2388POPC   GL232378  23.699  19.257   9.006
 2388POPC   C1A32379  23.535  18.963   8.588
 2388POPC   D2A32380  23.554  19.328   8.274
 2388POPC   C3A32381  23.569  19.186   7.840
 2388POPC   C4A32382  23.499  18.736   7.756
 2388POPC   C1B32383  23.952  19.263   8.661
 2388POPC   C2B32384  24.063  18.925   8.360
 2388POPC   C3B32385  23.998  18.910   7.920
 2388POPC   C4B32386  24.088  19.292   7.719
 2389POPC   NC332387  10.957  28.089   9.466
 2389POPC   PO432388  11.427  28.637   9.428
 2389POPC   GL132389  11.295  28.360   9.108
 2389POPC   GL232390  10.964  28.429   9.099
 2389POPC   C1A32391  11.490  28.237   8.716
 2389POPC   D2A32392  11.628  28.413   8.292
 2389POPC   C3A32393  11.422  28.219   7.932
 2389POPC   C4A32394  11.589  28.164   7.487
 2389POPC   C1B32395  10.993  28.368   8.668
 2389POPC   C2B32396  11.100  28.506   8.251
 2389POPC   C3B32397  10.968  28.450   7.842
 2389POPC   C4B32398  11.023  28.063   7.644
 2390POPC   NC332399   2.900   5.898   9.699
 2390POPC   PO432400   2.657   5.215   9.633
 2390POPC   GL132401   2.608   5.540   9.221
 2390POPC   GL232402   2.690   5.914   9.162
 2390POPC   C1A32403   2.772   5.588   8.752
 2390POPC   D2A32404   3.010   5.784   8.384
 2390POPC   C3A32405   2.745   6.008   8.100
 2390POPC   C4A32406   2.586   5.901   7.697
 2390POPC   C1B32407   2.865   6.098   8.765
 2390POPC   C2B32408   3.153   6.279   8.448
 2390POPC   C3B32409   3.253   6.141   8.037
 2390POPC   C4B32410   3.101   5.877   7.727
 2391POPC   NC332411  16.623  27.998   9.487
 2391POPC   PO432412  16.443  27.316   9.515
 2391POPC   GL132413  16.499  27.578   9.220
 2391POPC   GL232414  16.850  27.646   9.168
 2391POPC   C1A32415  16.491  27.599   8.791
 2391POPC   D2A32416  16.703  27.710   8.440
 2391POPC   C3A32417  16.496  27.668   8.077
 2391POPC   C4A32418  16.519  27.350   7.837
 2391POPC   C1B32419  16.971  27.959   8.851
 2391POPC   C2B32420  17.013  28.149   8.436
 2391POPC   C3B32421  16.927  27.949   8.050
 2391POPC   C4B32422  16.996  27.533   7.853
 2392POPC   NC332423   8.562   2.528   9.417
 2392POPC   PO432424   8.330   3.153   9.478
 2392POPC   GL132425   8.046   3.060   9.147
 2392POPC   GL232426   8.063   2.692   9.186
 2392POPC   C1A32427   8.103   2.942   8.729
 2392POPC   D2A32428   8.149   2.966   8.314
 2392POPC   C3A32429   8.490   2.860   8.123
 2392POPC   C4A32430   8.324   2.663   7.773
 2392POPC   C1B32431   8.082   2.421   8.810
 2392POPC   C2B32432   8.245   2.445   8.380
 2392POPC   C3B32433   7.975   2.392   8.047
 2392POPC   C4B32434   7.835   2.514   7.675
 2393POPC   NC332435  44.421   1.649   9.393
 2393POPC   PO432436  44.656   2.220   9.495
 2393POPC   GL132437  44.690   1.998   9.106
 2393POPC   GL232438  44.346   2.032   9.037
 2393POPC   C1A32439  44.805   2.030   8.667
 2393POPC   D2A32440  44.548   2.048   8.301
 2393POPC   C3A32441  44.776   1.916   7.955
 2393POPC   C4A32442  44.854   1.763   7.542
 2393POPC   C1B32443  44.429   1.691   8.715
 2393POPC   C2B32444  44.274   1.584   8.278
 2393POPC   C3B32445  44.378   1.616   7.806
 2393POPC   C4B32446  44.333   1.728   7.337
 2394POPC   NC332447   1.447  28.910   9.576
 2394POPC   PO432448   1.075  29.442   9.555
 2394POPC   GL132449   1.268  29.304   9.136
 2394POPC   GL232450   1.297  28.916   9.082
 2394POPC   C1A32451   1.117  29.208   8.698
 2394POPC   D2A32452   1.222  29.095   8.283
 2394POPC   C3A32453   1.025  29.191   7.905
 2394POPC   C4A32454   1.096  29.299   7.443
 2394POPC   C1B32455   1.497  28.857   8.667
 2394POPC   C2B32456   1.429  28.639   8.267
 2394POPC   C3B32457   1.352  28.780   7.822
 2394POPC   C4B32458   1.287  28.815   7.362
 2395POPC   NC332459  41.330   9.615   9.474
 2395POPC   PO432460  41.991   9.740   9.487
 2395POPC   GL132461  41.721   9.655   9.122
 2395POPC   GL232462  41.655  10.015   9.191
 2395POPC   C1A32463  41.365   9.659   8.774
 2395POPC   D2A32464  41.167   9.619   8.332
 2395POPC   C3A32465  41.534   9.557   7.998
 2395POPC   C4A32466  41.942   9.447   7.797
 2395POPC   C1B32467  41.357  10.171   8.907
 2395POPC   C2B32468  41.229  10.114   8.487
 2395POPC   C3B32469  41.327  10.033   8.069
 2395POPC   C4B32470  41.580   9.940   7.660
 2396POPC   NC332471  21.589  35.563   9.532
 2396POPC   PO432472  21.281  35.022   9.775
 2396POPC   GL132473  21.257  35.150   9.319
 2396POPC   GL232474  21.183  35.513   9.232
 2396POPC   C1A32475  21.111  35.126   8.868
 2396POPC   D2A32476  21.015  35.284   8.424
 2396POPC   C3A32477  21.269  35.106   8.077
 2396POPC   C4A32478  21.270  35.228   7.668
 2396POPC   C1B32479  21.321  35.572   8.798
 2396POPC   C2B32480  21.529  35.353   8.462
 2396POPC   C3B32481  21.592  35.492   8.000
 2396POPC   C4B32482  21.409  35.715   7.612
 2397POPC   NC332483   2.823  39.950   9.548
 2397POPC   PO432484   3.421  40.334   9.428
 2397POPC   GL132485   3.012  40.145   9.139
 2397POPC   GL232486   2.915  39.744   9.108
 2397POPC   C1A32487   2.876  40.033   8.699
 2397POPC   D2A32488   2.492  39.978   8.435
 2397POPC   C3A32489   2.575  40.090   8.003
 2397POPC   C4A32490   2.957  40.028   7.757
 2397POPC   C1B32491   2.582  39.599   8.813
 2397POPC   C2B32492   2.637  39.460   8.400
 2397POPC   C3B32493   2.526  39.596   8.037
 2397POPC   C4B32494   2.599  39.710   7.642
 2398POPC   NC332495  36.065   5.433   9.494
 2398POPC   PO432496  35.740   6.075   9.572
 2398POPC   GL132497  35.886   5.968   9.137
 2398POPC   GL232498  36.115   5.660   9.041
 2398POPC   C1A32499  35.773   5.926   8.733
 2398POPC   D2A32500  35.923   5.715   8.345
 2398POPC   C3A32501  35.855   5.947   7.957
 2398POPC   C4A32502  36.109   6.139   7.628
 2398POPC   C1B32503  36.404   5.494   8.711
 2398POPC   C2B32504  36.499   5.610   8.273
 2398POPC   C3B32505  36.243   5.572   7.877
 2398POPC   C4B32506  36.007   5.655   7.489
 2399POPC   NC332507  41.035   8.126   9.597
 2399POPC   PO432508  40.508   8.537   9.494
 2399POPC   GL132509  40.775   8.380   9.109
 2399POPC   GL232510  40.987   8.084   9.093
 2399POPC   C1A32511  40.771   8.209   8.660
 2399POPC   D2A32512  41.033   8.425   8.344
 2399POPC   C3A32513  40.830   8.413   7.972
 2399POPC   C4A32514  40.521   8.145   7.792
 2399POPC   C1B32515  41.049   7.771   8.766
 2399POPC   C2B32516  41.064   7.910   8.343
 2399POPC   C3B32517  40.921   7.869   7.940
 2399POPC   C4B32518  41.174   7.778   7.635
 2400POPC   NC332519  44.428  27.156   9.728
 2400POPC   PO432520  44.795  26.679   9.524
 2400POPC   GL132521  44.619  26.891   9.185
 2400POPC   GL232522  44.713  26.666   8.949
 2400POPC   C1A32523  44.387  27.011   8.785
 2400POPC   D2A32524  44.440  26.788   8.393
 2400POPC   C3A32525  44.779  26.793   8.106
 2400POPC   C4A32526  44.534  26.966   7.814
 2400POPC   C1B32527  44.386  26.412   8.736
 2400POPC   C2B32528  44.200  26.348   8.289
 2400POPC   C3B32529  44.424  26.466   7.872
 2400POPC   C4B32530  44.601  26.635   7.440
 2401POPC   NC332531  44.906  42.091   9.467
 2401POPC   PO432532  44.468  42.604   9.485
 2401POPC   GL132533  44.654  42.338   9.104
 2401POPC   GL232534  44.988  42.121   8.974
 2401POPC   C1A32535  44.506  42.113   8.746
 2401POPC   D2A32536  44.738  41.947   8.456
 2401POPC   C3A32537  44.802  42.219   8.125
 2401POPC   C4A32538  44.591  42.237   7.733
 2401POPC   C1B32539  44.926  42.417   8.650
 2401POPC   C2B32540  44.616  42.642   8.403
 2401POPC   C3B32541  44.647  42.719   7.954
 2401POPC   C4B32542   0.028  42.561   7.793
 2402POPC   NC332543  39.235  35.804   9.600
 2402POPC   PO432544  39.528  36.393   9.568
 2402POPC   GL132545  39.292  36.292   9.196
 2402POPC   GL232546  39.341  35.934   9.136
 2402POPC   C1A32547  39.162  36.452   8.786
 2402POPC   D2A32548  39.043  36.254   8.362
 2402POPC   C3A32549  39.160  36.402   7.970
 2402POPC   C4A32550  39.068  36.237   7.549
 2402POPC   C1B32551  39.167  35.934   8.749
 2402POPC   C2B32552  39.275  35.797   8.339
 2402POPC   C3B32553  39.169  35.860   7.886
 2402POPC   C4B32554  39.415  35.863   7.483
 2403POPC   NC332555  25.762   3.699   9.578
 2403POPC   PO432556  25.140   3.361   9.540
 2403POPC   GL132557  25.306   3.509   9.201
 2403POPC   GL232558  25.350   3.834   9.279
 2403POPC   C1A32559  25.162   3.397   8.795
 2403POPC   D2A32560  25.338   3.170   8.466
 2403POPC   C3A32561  25.350   3.437   8.156
 2403POPC   C4A32562  25.295   3.423   7.741
 2403POPC   C1B32563  25.015   3.881   8.924
 2403POPC   C2B32564  24.913   3.813   8.472
 2403POPC   C3B32565  24.929   3.694   8.033
 2403POPC   C4B32566  25.030   3.885   7.661
 2404POPC   NC332567  24.358  11.849   9.501
 2404POPC   PO432568  24.322  12.548   9.548
 2404POPC   GL132569  24.380  12.269   9.181
 2404POPC   GL232570  24.694  12.164   9.181
 2404POPC   C1A32571  24.205  12.193   8.760
 2404POPC   D2A32572  24.093  12.183   8.319
 2404POPC   C3A32573  24.268  11.889   8.017
 2404POPC   C4A32574  24.444  12.042   7.619
 2404POPC   C1B32575  24.703  12.010   8.763
 2404POPC   C2B32576  24.644  12.113   8.310
 2404POPC   C3B32577  24.814  11.859   7.948
 2404POPC   C4B32578  24.920  11.955   7.509
 2405POPC   NC332579   7.642  14.494   9.645
 2405POPC   PO432580   7.888  15.010   9.322
 2405POPC   GL132581   7.564  14.686   9.162
 2405POPC   GL232582   7.520  14.315   9.145
 2405POPC   C1A32583   7.458  14.562   8.734
 2405POPC   D2A32584   7.674  14.665   8.406
 2405POPC   C3A32585   7.545  14.475   8.114
 2405POPC   C4A32586   7.603  14.538   7.753
 2405POPC   C1B32587   7.315  14.063   8.766
 2405POPC   C2B32588   7.419  14.011   8.302
 2405POPC   C3B32589   7.390  14.071   7.836
 2405POPC   C4B32590   7.669  14.146   7.437
 2406POPC   NC332591  38.689  16.008   9.583
 2406POPC   PO432592  39.373  15.906   9.570
 2406POPC   GL132593  39.252  15.798   9.142
 2406POPC   GL232594  38.979  15.539   9.134
 2406POPC   C1A32595  39.246  16.004   8.784
 2406POPC   D2A32596  38.993  16.090   8.461
 2406POPC   C3A32597  39.228  16.380   8.202
 2406POPC   C4A32598  39.342  16.398   7.780
 2406POPC   C1B32599  39.058  15.541   8.674
 2406POPC   C2B32600  39.204  15.671   8.256
 2406POPC   C3B32601  39.173  15.910   7.861
 2406POPC   C4B32602  39.345  15.765   7.455
 2407POPC   NC332603  14.528  37.251   9.508
 2407POPC   PO432604  14.795  37.836   9.587
 2407POPC   GL132605  14.480  37.793   9.245
 2407POPC   GL232606  14.202  37.529   9.220
 2407POPC   C1A32607  14.284  37.868   8.828
 2407POPC   D2A32608  14.274  37.652   8.419
 2407POPC   C3A32609  14.089  37.684   8.060
 2407POPC   C4A32610  14.243  37.798   7.687
 2407POPC   C1B32611  14.153  37.355   8.790
 2407POPC   C2B32612  14.279  37.139   8.349
 2407POPC   C3B32613  14.130  37.188   7.887
 2407POPC   C4B32614  14.034  37.414   7.440
 2408POPC   NC332615  37.467  44.938   9.394
 2408POPC   PO432616  37.859  44.488   9.662
 2408POPC   GL132617  37.657  44.419   9.259
 2408POPC   GL232618  37.903  44.678   9.186
 2408POPC   C1A32619  37.631  44.518   8.795
 2408POPC   D2A32620  37.956  44.595   8.453
 2408POPC   C3A32621  37.899  44.526   8.023
 2408POPC   C4A32622  37.702  44.706   7.675
 2408POPC   C1B32623  38.109  44.873   8.861
 2408POPC   C2B32624  38.192   0.052   8.450
 2408POPC   C3B32625  38.021   0.026   8.050
 2408POPC   C4B32626  38.180  44.883   7.689
 2409POPC   NC332627   7.573   4.329   9.545
 2409POPC   PO432628   6.933   4.070   9.555
 2409POPC   GL132629   7.168   4.291   9.168
 2409POPC   GL232630   7.513   4.394   9.066
 2409POPC   C1A32631   7.180   4.392   8.703
 2409POPC   D2A32632   7.365   4.174   8.359
 2409POPC   C3A32633   7.266   4.325   7.960
 2409POPC   C4A32634   7.378   4.255   7.525
 2409POPC   C1B32635   7.653   4.628   8.711
 2409POPC   C2B32636   7.543   4.654   8.270
 2409POPC   C3B32637   7.662   4.602   7.838
 2409POPC   C4B32638   7.738   4.646   7.397
 2410POPC   NC332639  26.499  39.358   9.532
 2410POPC   PO432640  27.020  39.045   9.348
 2410POPC   GL132641  26.970  39.424   9.127
 2410POPC   GL232642  26.632  39.338   9.058
 2410POPC   C1A32643  26.935  39.467   8.676
 2410POPC   D2A32644  26.916  39.040   8.472
 2410POPC   C3A32645  26.999  39.093   8.035
 2410POPC   C4A32646  26.840  39.058   7.643
 2410POPC   C1B32647  26.447  39.310   8.688
 2410POPC   C2B32648  26.560  39.368   8.315
 2410POPC   C3B32649  26.470  39.132   7.996
 2410POPC   C4B32650  26.407  39.294   7.613
 2411POPC   NC332651  39.637   7.706   9.392
 2411POPC   PO432652  39.744   7.036   9.416
 2411POPC   GL132653  40.009   7.096   9.043
 2411POPC   GL232654  40.166   7.470   9.015
 2411POPC   C1A32655  39.983   7.204   8.624
 2411POPC   D2A32656  40.132   7.559   8.360
 2411POPC   C3A32657  39.946   7.521   7.952
 2411POPC   C4A32658  40.018   7.151   7.711
 2411POPC   C1B32659  40.472   7.711   8.711
 2411POPC   C2B32660  40.645   7.584   8.289
 2411POPC   C3B32661  40.445   7.647   7.861
 2411POPC   C4B32662  40.352   7.489   7.433
 2412POPC   NC332663   4.555  36.452   9.374
 2412POPC   PO432664   4.336  35.826   9.548
 2412POPC   GL132665   4.293  36.066   9.191
 2412POPC   GL232666   3.927  36.095   9.218
 2412POPC   C1A32667   4.169  36.236   8.796
 2412POPC   D2A32668   4.175  36.002   8.444
 2412POPC   C3A32669   4.242  36.129   7.991
 2412POPC   C4A32670   4.511  35.935   7.659
 2412POPC   C1B32671   4.023  35.731   8.931
 2412POPC   C2B32672   3.819  35.617   8.574
 2412POPC   C3B32673   3.963  35.656   8.159
 2412POPC   C4B32674   3.868  35.853   7.795
 2413POPC   NC332675  40.924  14.902   9.745
 2413POPC   PO432676  40.564  15.316   9.459
 2413POPC   GL132677  40.698  14.984   9.204
 2413POPC   GL232678  40.985  15.208   9.133
 2413POPC   C1A32679  40.816  14.952   8.756
 2413POPC   D2A32680  41.037  15.229   8.481
 2413POPC   C3A32681  40.742  15.173   8.170
 2413POPC   C4A32682  40.681  15.075   7.744
 2413POPC   C1B32683  40.670  15.453   8.808
 2413POPC   C2B32684  40.508  15.605   8.380
 2413POPC   C3B32685  40.529  15.548   7.900
 2413POPC   C4B32686  40.701  15.515   7.468
 2414POPC   NC332687  40.345  44.003   9.709
 2414POPC   PO432688  39.839  43.638   9.551
 2414POPC   GL132689  39.972  43.607   9.113
 2414POPC   GL232690  39.969  43.946   9.067
 2414POPC   C1A32691  40.006  43.695   8.634
 2414POPC   D2A32692  39.735  43.721   8.245
 2414POPC   C3A32693  39.888  43.623   7.820
 2414POPC   C4A32694  40.030  43.627   7.375
 2414POPC   C1B32695  40.266  44.127   8.686
 2414POPC   C2B32696  40.154  44.096   8.303
 2414POPC   C3B32697  40.269  43.964   7.950
 2414POPC   C4B32698  40.134  44.071   7.601
 2415POPC   NC332699  14.145  16.529   9.554
 2415POPC   PO432700  14.530  17.051   9.613
 2415POPC   GL132701  14.529  16.814   9.203
 2415POPC   GL232702  14.479  16.501   9.164
 2415POPC   C1A32703  14.422  16.853   8.771
 2415POPC   D2A32704  14.541  17.007   8.378
 2415POPC   C3A32705  14.312  16.848   8.055
 2415POPC   C4A32706  14.399  16.747   7.661
 2415POPC   C1B32707  14.261  16.367   8.772
 2415POPC   C2B32708  14.148  16.426   8.320
 2415POPC   C3B32709  14.090  16.403   7.862
 2415POPC   C4B32710  14.390  16.260   7.539
 2416POPC   NC332711  38.145   3.788   9.600
 2416POPC   PO432712  38.702   3.402   9.528
 2416POPC   GL132713  38.405   3.471   9.221
 2416POPC   GL232714  38.383   3.812   9.155
 2416POPC   C1A32715  38.486   3.487   8.761
 2416POPC   D2A32716  38.577   3.359   8.323
 2416POPC   C3A32717  38.498   3.496   7.887
 2416POPC   C4A32718  38.626   3.274   7.497
 2416POPC   C1B32719  38.088   3.787   8.851
 2416POPC   C2B32720  38.122   3.656   8.438
 2416POPC   C3B32721  38.022   3.666   8.025
 2416POPC   C4B32722  38.031   3.645   7.600
 2417POPC   NC332723  18.725  42.842   9.369
 2417POPC   PO432724  19.243  43.171   9.504
 2417POPC   GL132725  18.986  43.270   9.154
 2417POPC   GL232726  19.112  42.968   9.025
 2417POPC   C1A32727  19.115  43.386   8.734
 2417POPC   D2A32728  19.237  43.158   8.367
 2417POPC   C3A32729  18.911  43.163   8.069
 2417POPC   C4A32730  18.877  43.502   7.754
 2417POPC   C1B32731  18.887  42.778   8.694
 2417POPC   C2B32732  18.955  42.578   8.315
 2417POPC   C3B32733  19.275  42.657   8.034
 2417POPC   C4B32734  19.328  43.056   7.820
 2418POPC   NC332735  19.867  34.424   9.760
 2418POPC   PO432736  19.571  34.482   9.210
 2418POPC   GL132737  19.899  34.643   9.006
 2418POPC   GL232738  19.834  35.001   9.014
 2418POPC   C1A32739  19.812  34.649   8.582
 2418POPC   D2A32740  19.772  34.417   8.241
 2418POPC   C3A32741  20.008  34.449   7.867
 2418POPC   C4A32742  19.714  34.399   7.537
 2418POPC   C1B32743  19.438  34.944   8.749
 2418POPC   C2B32744  19.436  34.854   8.312
 2418POPC   C3B32745  19.662  34.811   7.915
 2418POPC   C4B32746  19.653  34.924   7.450
 2419POPC   NC332747  25.549  21.769   9.421
 2419POPC   PO432748  26.132  22.163   9.568
 2419POPC   GL132749  26.167  22.013   9.167
 2419POPC   GL232750  25.807  22.093   9.132
 2419POPC   C1A32751  26.149  22.226   8.772
 2419POPC   D2A32752  26.114  22.436   8.409
 2419POPC   C3A32753  26.294  22.262   8.045
 2419POPC   C4A32754  26.073  22.276   7.670
 2419POPC   C1B32755  25.633  22.069   8.717
 2419POPC   C2B32756  25.788  22.050   8.294
 2419POPC   C3B32757  25.731  21.955   7.864
 2419POPC   C4B32758  25.805  21.907   7.418
 2420POPC   NC332759  18.817  38.022   9.582
 2420POPC   PO432760  19.312  38.418   9.725
 2420POPC   GL132761  19.055  38.391   9.307
 2420POPC   GL232762  19.251  38.553   9.110
 2420POPC   C1A32763  18.933  38.313   8.818
 2420POPC   D2A32764  19.086  38.182   8.380
 2420POPC   C3A32765  19.070  38.430   8.004
 2420POPC   C4A32766  18.949  38.885   7.946
 2420POPC   C1B32767  19.433  38.469   8.707
 2420POPC   C2B32768  19.313  38.709   8.352
 2420POPC   C3B32769  19.467  38.764   7.944
 2420POPC   C4B32770  19.283  38.627   7.578
 2421POPC   NC332771  21.068  20.383   9.921
 2421POPC   PO432772  20.659  20.714   9.488
 2421POPC   GL132773  20.506  20.542   9.135
 2421POPC   GL232774  20.204  20.321   9.169
 2421POPC   C1A32775  20.720  20.608   8.752
 2421POPC   D2A32776  20.608  20.878   8.407
 2421POPC   C3A32777  20.843  21.013   8.023
 2421POPC   C4A32778  20.649  20.856   7.621
 2421POPC   C1B32779  20.355  20.263   8.739
 2421POPC   C2B32780  20.639  20.277   8.361
 2421POPC   C3B32781  20.740  20.518   8.008
 2421POPC   C4B32782  20.831  20.387   7.591
 2422POPC   NC332783  13.668   3.355   9.463
 2422POPC   PO432784  13.255   3.905   9.514
 2422POPC   GL132785  13.528   3.806   9.164
 2422POPC   GL232786  13.846   3.903   9.293
 2422POPC   C1A32787  13.572   3.581   8.767
 2422POPC   D2A32788  13.321   3.629   8.390
 2422POPC   C3A32789  13.497   3.763   8.004
 2422POPC   C4A32790  13.345   3.462   7.746
 2422POPC   C1B32791  13.976   3.912   8.855
 2422POPC   C2B32792  14.057   3.577   8.538
 2422POPC   C3B32793  14.088   3.512   8.107
 2422POPC   C4B32794  13.900   3.587   7.717
 2423POPC   NC332795  14.705  19.560   9.413
 2423POPC   PO432796  14.106  19.699   9.727
 2423POPC   GL132797  14.198  19.806   9.267
 2423POPC   GL232798  14.498  20.030   9.249
 2423POPC   C1A32799  14.016  19.676   8.855
 2423POPC   D2A32800  14.092  19.826   8.437
 2423POPC   C3A32801  14.052  19.595   8.075
 2423POPC   C4A32802  14.196  19.544   7.670
 2423POPC   C1B32803  14.416  19.996   8.812
 2423POPC   C2B32804  14.619  19.825   8.445
 2423POPC   C3B32805  14.510  19.840   7.996
 2423POPC   C4B32806  14.467  19.937   7.543
 2424POPC   NC332807  40.200   6.885   9.479
 2424POPC   PO432808  40.027   6.253   9.461
 2424POPC   GL132809  40.031   6.528   9.144
 2424POPC   GL232810  40.248   6.329   8.980
 2424POPC   C1A32811  39.808   6.617   8.769
 2424POPC   D2A32812  39.960   6.757   8.377
 2424POPC   C3A32813  39.776   6.599   8.058
 2424POPC   C4A32814  39.961   6.373   7.753
 2424POPC   C1B32815  40.320   6.681   8.732
 2424POPC   C2B32816  40.472   6.654   8.306
 2424POPC   C3B32817  40.276   6.739   7.899
 2424POPC   C4B32818  40.274   6.600   7.426
 2425POPC   NC332819  11.991  39.519   9.519
 2425POPC   PO432820  12.625  39.219   9.604
 2425POPC   GL132821  12.308  39.221   9.235
 2425POPC   GL232822  11.982  39.076   9.188
 2425POPC   C1A32823  12.141  39.443   8.847
 2425POPC   D2A32824  11.898  39.311   8.464
 2425POPC   C3A32825  12.115  39.285   8.054
 2425POPC   C4A32826  11.940  39.363   7.636
 2425POPC   C1B32827  12.078  38.918   8.775
 2425POPC   C2B32828  11.890  38.787   8.362
 2425POPC   C3B32829  11.713  38.967   7.966
 2425POPC   C4B32830  11.759  38.903   7.505
 2426POPC   NC332831   3.709  39.743   9.640
 2426POPC   PO432832   3.682  39.084   9.620
 2426POPC   GL132833   3.679  39.399   9.256
 2426POPC   GL232834   3.416  39.300   9.024
 2426POPC   C1A32835   3.855  39.434   8.813
 2426POPC   D2A32836   3.599  39.333   8.454
 2426POPC   C3A32837   3.803  39.451   8.078
 2426POPC   C4A32838   3.600  39.590   7.693
 2426POPC   C1B32839   3.204  38.977   8.736
 2426POPC   C2B32840   3.102  39.061   8.294
 2426POPC   C3B32841   3.374  39.185   7.981
 2426POPC   C4B32842   3.716  39.070   7.738
 2427POPC   NC332843  18.480   9.991   9.761
 2427POPC   PO432844  17.964   9.574   9.486
 2427POPC   GL132845  18.257   9.695   9.189
 2427POPC   GL232846  18.350  10.064   9.173
 2427POPC   C1A32847  18.418   9.515   8.817
 2427POPC   D2A32848  18.564   9.608   8.389
 2427POPC   C3A32849  18.292   9.565   8.046
 2427POPC   C4A32850  18.226   9.505   7.592
 2427POPC   C1B32851  18.131   9.943   8.740
 2427POPC   C2B32852  18.112  10.008   8.282
 2427POPC   C3B32853  18.197  10.012   7.823
 2427POPC   C4B32854  18.051   9.963   7.406
 2428POPC   NC332855  21.996  23.349   9.537
 2428POPC   PO432856  22.106  24.002   9.453
 2428POPC   GL132857  22.167  23.800   9.090
 2428POPC   GL232858  21.940  23.502   9.060
 2428POPC   C1A32859  22.126  24.034   8.711
 2428POPC   D2A32860  21.939  23.974   8.322
 2428POPC   C3A32861  22.216  24.030   7.960
 2428POPC   C4A32862  22.518  23.813   7.692
 2428POPC   C1B32863  22.061  23.521   8.630
 2428POPC   C2B32864  22.046  23.454   8.186
 2428POPC   C3B32865  22.078  23.415   7.741
 2428POPC   C4B32866  21.716  23.502   7.445
 2429POPC   NC332867  39.035   7.177   9.550
 2429POPC   PO432868  39.229   7.887   9.513
 2429POPC   GL132869  39.112   7.604   9.230
 2429POPC   GL232870  39.345   7.312   9.163
 2429POPC   C1A32871  39.043   7.630   8.804
 2429POPC   D2A32872  39.134   7.388   8.460
 2429POPC   C3A32873  38.927   7.525   8.074
 2429POPC   C4A32874  39.018   7.237   7.708
 2429POPC   C1B32875  39.566   7.476   8.799
 2429POPC   C2B32876  39.632   7.467   8.379
 2429POPC   C3B32877  39.422   7.421   8.026
 2429POPC   C4B32878  39.495   7.497   7.636
 2430POPC   NC332879  17.856   2.919   9.422
 2430POPC   PO432880  17.242   2.806   9.632
 2430POPC   GL132881  17.369   2.756   9.210
 2430POPC   GL232882  17.298   2.392   9.261
 2430POPC   C1A32883  17.453   2.865   8.745
 2430POPC   D2A32884  17.228   2.887   8.326
 2430POPC   C3A32885  17.458   2.992   7.936
 2430POPC   C4A32886  17.588   3.328   7.647
 2430POPC   C1B32887  17.467   2.382   8.856
 2430POPC   C2B32888  17.528   2.318   8.441
 2430POPC   C3B32889  17.407   2.483   8.079
 2430POPC   C4B32890  17.584   2.556   7.691
 2431POPC   NC332891  44.534  30.672   9.557
 2431POPC   PO432892   0.225  30.684   9.589
 2431POPC   GL132893  44.927  30.719   9.187
 2431POPC   GL232894  44.639  30.478   9.083
 2431POPC   C1A32895  44.848  30.880   8.761
 2431POPC   D2A32896  44.678  30.696   8.359
 2431POPC   C3A32897  44.634  30.903   7.959
 2431POPC   C4A32898  44.886  30.604   7.721
 2431POPC   C1B32899  44.362  30.653   8.748
 2431POPC   C2B32900  44.192  30.590   8.286
 2431POPC   C3B32901  44.442  30.427   7.938
 2431POPC   C4B32902  44.449  30.492   7.449
 2432POPC   NC332903  34.387  38.349   9.612
 2432POPC   PO432904  34.953  38.077   9.364
 2432POPC   GL132905  34.783  38.347   9.033
 2432POPC   GL232906  34.455  38.315   9.122
 2432POPC   C1A32907  34.516  38.707   8.827
 2432POPC   D2A32908  34.210  38.721   8.473
 2432POPC   C3A32909  34.382  38.741   8.049
 2432POPC   C4A32910  34.380  38.673   7.590
 2432POPC   C1B32911  34.285  38.269   8.731
 2432POPC   C2B32912  34.486  38.333   8.340
 2432POPC   C3B32913  34.318  38.250   7.922
 2432POPC   C4B32914  34.465  38.123   7.517
 2433POPC   NC332915  11.169  15.853   9.768
 2433POPC   PO432916  11.583  16.136   9.351
 2433POPC   GL132917  11.344  15.878   9.100
 2433POPC   GL232918  11.130  16.145   9.090
 2433POPC   C1A32919  11.413  16.012   8.658
 2433POPC   D2A32920  11.575  16.353   8.403
 2433POPC   C3A32921  11.593  16.282   7.971
 2433POPC   C4A32922  11.446  15.908   7.805
 2433POPC   C1B32923  10.925  15.940   8.755
 2433POPC   C2B32924  10.827  15.820   8.363
 2433POPC   C3B32925  10.989  15.953   7.994
 2433POPC   C4B32926  10.807  16.005   7.589
 2434POPC   NC332927  25.175  31.221   9.569
 2434POPC   PO432928  25.720  31.523   9.401
 2434POPC   GL132929  25.417  31.380   9.118
 2434POPC   GL232930  25.108  31.507   9.077
 2434POPC   C1A32931  25.450  31.505   8.695
 2434POPC   D2A32932  25.603  31.309   8.326
 2434POPC   C3A32933  25.508  31.516   7.963
 2434POPC   C4A32934  25.377  31.447   7.531
 2434POPC   C1B32935  24.945  31.317   8.731
 2434POPC   C2B32936  25.090  31.372   8.338
 2434POPC   C3B32937  25.022  31.436   7.949
 2434POPC   C4B32938  24.924  31.649   7.621
 2435POPC   NC332939  41.107  14.625   9.269
 2435POPC   PO432940  40.530  14.652   9.613
 2435POPC   GL132941  40.647  14.447   9.190
 2435POPC   GL232942  40.646  14.117   9.084
 2435POPC   C1A32943  40.819  14.442   8.733
 2435POPC   D2A32944  41.066  14.672   8.400
 2435POPC   C3A32945  40.933  14.646   7.958
 2435POPC   C4A32946  40.869  14.666   7.494
 2435POPC   C1B32947  40.356  14.137   8.768
 2435POPC   C2B32948  40.291  13.886   8.431
 2435POPC   C3B32949  40.597  13.903   8.090
 2435POPC   C4B32950  40.683  14.199   7.730
 2436POPC   NC332951  28.244  15.816   9.567
 2436POPC   PO432952  28.818  16.205   9.693
 2436POPC   GL132953  28.696  15.852   9.264
 2436POPC   GL232954  28.354  15.698   9.100
 2436POPC   C1A32955  28.632  15.901   8.747
 2436POPC   D2A32956  28.406  15.821   8.355
 2436POPC   C3A32957  28.481  16.019   7.973
 2436POPC   C4A32958  28.193  16.176   7.643
 2436POPC   C1B32959  28.070  15.862   8.763
 2436POPC   C2B32960  27.881  15.857   8.329
 2436POPC   C3B32961  28.028  15.763   7.881
 2436POPC   C4B32962  28.375  15.733   7.512
 2437POPC   NC332963  36.112  44.492   9.572
 2437POPC   PO432964  36.178   0.130   9.462
 2437POPC   GL132965  36.041  44.851   9.154
 2437POPC   GL232966  36.317  44.641   9.090
 2437POPC   C1A32967  35.846  44.710   8.776
 2437POPC   D2A32968  35.691  44.793   8.328
 2437POPC   C3A32969  35.964  44.767   7.938
 2437POPC   C4A32970  36.039  44.770   7.450
 2437POPC   C1B32971  36.305  44.897   8.688
 2437POPC   C2B32972  36.290   0.092   8.286
 2437POPC   C3B32973  36.452  44.928   7.925
 2437POPC   C4B32974  36.466  44.553   7.663
 2438POPC   NC332975   5.505   7.227   9.558
 2438POPC   PO432976   6.162   7.132   9.526
 2438POPC   GL132977   5.998   7.383   9.152
 2438POPC   GL232978   5.668   7.496   9.132
 2438POPC   C1A32979   5.939   7.426   8.696
 2438POPC   D2A32980   6.071   7.102   8.398
 2438POPC   C3A32981   5.938   7.325   8.075
 2438POPC   C4A32982   5.933   7.719   7.879
 2438POPC   C1B32983   5.510   7.172   8.857
 2438POPC   C2B32984   5.539   7.181   8.412
 2438POPC   C3B32985   5.491   7.088   7.974
 2438POPC   C4B32986   5.622   7.376   7.676
 2439POPC   NC332987  12.580  16.004   9.703
 2439POPC   PO432988  12.445  15.474   9.344
 2439POPC   GL132989  12.768  15.759   9.206
 2439POPC   GL232990  13.018  15.547   9.255
 2439POPC   C1A32991  12.932  16.081   8.884
 2439POPC   D2A32992  12.712  16.227   8.473
 2439POPC   C3A32993  12.762  16.029   8.083
 2439POPC   C4A32994  12.914  16.120   7.700
 2439POPC   C1B32995  13.147  15.594   8.832
 2439POPC   C2B32996  13.109  15.868   8.448
 2439POPC   C3B32997  13.183  15.712   8.023
 2439POPC   C4B32998  13.211  15.302   7.818
 2440POPC   NC332999  42.340  25.668   9.562
 2440POPC   PO433000  41.801  26.059   9.585
 2440POPC   GL133001  42.100  25.989   9.216
 2440POPC   GL233002  42.439  25.967   9.140
 2440POPC   C1A33003  42.117  25.825   8.779
 2440POPC   D2A33004  42.233  25.599   8.412
 2440POPC   C3A33005  42.238  25.839   8.017
 2440POPC   C4A33006  42.481  25.762   7.645
 2440POPC   C1B33007  42.393  26.248   8.792
 2440POPC   C2B33008  42.234  26.242   8.392
 2440POPC   C3B33009  42.396  26.375   8.022
 2440POPC   C4B33010  42.315  26.233   7.637
 2441POPC   NC333011  20.733  44.288   9.182
 2441POPC   PO433012  20.838  43.799   9.609
 2441POPC   GL133013  20.611  43.764   9.201
 2441POPC   GL233014  20.310  43.950   9.257
 2441POPC   C1A33015  20.539  43.813   8.726
 2441POPC   D2A33016  20.577  43.586   8.316
 2441POPC   C3A33017  20.831  43.746   7.941
 2441POPC   C4A33018  20.771  44.147   7.710
 2441POPC   C1B33019  20.170  44.139   8.879
 2441POPC   C2B33020  20.149  44.268   8.466
 2441POPC   C3B33021  20.433  44.223   8.111
 2441POPC   C4B33022  20.253  44.267   7.708
 2442POPC   NC333023  31.820  24.576   9.331
 2442POPC   PO433024  32.507  24.336   9.485
 2442POPC   GL133025  32.255  24.397   9.084
 2442POPC   GL233026  31.912  24.297   8.942
 2442POPC   C1A33027  32.304  24.424   8.623
 2442POPC   D2A33028  32.551  24.533   8.294
 2442POPC   C3A33029  32.369  24.587   7.908
 2442POPC   C4A33030  32.071  24.350   7.734
 2442POPC   C1B33031  31.818  24.586   8.624
 2442POPC   C2B33032  31.955  24.534   8.209
 2442POPC   C3B33033  31.916  24.825   7.855
 2442POPC   C4B33034  31.828  24.693   7.441
 2443POPC   NC333035  13.437  17.751   9.454
 2443POPC   PO433036  13.876  17.207   9.388
 2443POPC   GL133037  13.694  17.510   9.082
 2443POPC   GL233038  13.311  17.519   9.018
 2443POPC   C1A33039  13.626  17.818   8.739
 2443POPC   D2A33040  13.491  17.982   8.337
 2443POPC   C3A33041  13.782  17.823   8.023
 2443POPC   C4A33042  13.936  17.629   7.660
 2443POPC   C1B33043  13.485  17.328   8.649
 2443POPC   C2B33044  13.614  17.416   8.277
 2443POPC   C3B33045  13.412  17.344   7.909
 2443POPC   C4B33046  13.432  17.002   7.569
 2444POPC   NC333047  15.916  24.195   9.662
 2444POPC   PO433048  16.285  24.657   9.551
 2444POPC   GL133049  15.954  24.542   9.174
 2444POPC   GL233050  15.871  24.180   9.104
 2444POPC   C1A33051  15.740  24.550   8.736
 2444POPC   D2A33052  15.915  24.483   8.315
 2444POPC   C3A33053  15.663  24.537   7.950
 2444POPC   C4A33054  15.854  24.353   7.649
 2444POPC   C1B33055  16.141  23.887   8.845
 2444POPC   C2B33056  16.256  23.722   8.420
 2444POPC   C3B33057  16.188  23.982   8.000
 2444POPC   C4B33058  16.262  24.115   7.542
 2445POPC   NC333059  22.171   9.185   9.197
 2445POPC   PO433060  22.183   9.492   9.821
 2445POPC   GL133061  22.172   9.697   9.333
 2445POPC   GL233062  21.870   9.790   9.184
 2445POPC   C1A33063  22.278   9.800   8.882
 2445POPC   D2A33064  22.446   9.599   8.502
 2445POPC   C3A33065  22.262   9.748   8.106
 2445POPC   C4A33066  22.111   9.553   7.721
 2445POPC   C1B33067  21.741   9.519   8.815
 2445POPC   C2B33068  21.911   9.661   8.469
 2445POPC   C3B33069  21.758   9.567   8.088
 2445POPC   C4B33070  21.562   9.525   7.714
 2446POPC   NC333071  24.059  26.010   9.558
 2446POPC   PO433072  24.729  26.162   9.502
 2446POPC   GL133073  24.430  26.021   9.186
 2446POPC   GL233074  24.160  26.272   9.139
 2446POPC   C1A33075  24.502  25.831   8.799
 2446POPC   D2A33076  24.657  26.066   8.399
 2446POPC   C3A33077  24.568  25.849   8.013
 2446POPC   C4A33078  24.756  25.754   7.620
 2446POPC   C1B33079  24.365  26.339   8.731
 2446POPC   C2B33080  24.153  26.245   8.337
 2446POPC   C3B33081  24.281  26.298   7.929
 2446POPC   C4B33082  24.658  26.244   7.703
 2447POPC   NC333083  23.846  30.322   9.605
 2447POPC   PO433084  23.992  29.695   9.471
 2447POPC   GL133085  23.769  29.832   9.096
 2447POPC   GL233086  23.530  30.101   9.187
 2447POPC   C1A33087  23.750  29.845   8.638
 2447POPC   D2A33088  23.796  29.507   8.308
 2447POPC   C3A33089  23.907  29.677   7.928
 2447POPC   C4A33090  23.664  29.839   7.602
 2447POPC   C1B33091  23.893  30.298   8.939
 2447POPC   C2B33092  23.894  30.431   8.521
 2447POPC   C3B33093  23.833  30.181   8.170
 2447POPC   C4B33094  23.963  30.262   7.737
 2448POPC   NC333095  24.858   3.022   9.386
 2448POPC   PO433096  24.170   2.763   9.415
 2448POPC   GL133097  24.479   2.813   9.129
 2448POPC   GL233098  24.407   3.174   9.129
 2448POPC   C1A33099  24.557   2.593   8.762
 2448POPC   D2A33100  24.233   2.415   8.502
 2448POPC   C3A33101  24.282   2.545   8.065
 2448POPC   C4A33102  24.709   2.675   7.919
 2448POPC   C1B33103  24.284   3.040   8.711
 2448POPC   C2B33104  24.498   2.936   8.346
 2448POPC   C3B33105  24.389   3.081   7.955
 2448POPC   C4B33106  24.069   2.937   7.745
 2449POPC   NC333107   9.881  11.905   9.441
 2449POPC   PO433108   9.492  12.315   9.641
 2449POPC   GL133109   9.485  12.239   9.198
 2449POPC   GL233110   9.455  11.882   9.157
 2449POPC   C1A33111   9.644  12.180   8.767
 2449POPC   D2A33112   9.958  12.217   8.436
 2449POPC   C3A33113   9.807  12.305   8.031
 2449POPC   C4A33114  10.044  12.189   7.669
 2449POPC   C1B33115   9.562  11.636   8.783
 2449POPC   C2B33116   9.661  11.811   8.405
 2449POPC   C3B33117   9.881  11.808   8.028
 2449POPC   C4B33118   9.652  11.889   7.634
 2450POPC   NC333119  27.236   4.072   9.425
 2450POPC   PO433120  27.748   3.904   9.821
 2450POPC   GL133121  27.692   4.195   9.293
 2450POPC   GL233122  27.619   4.556   9.245
 2450POPC   C1A33123  27.535   4.083   8.827
 2450POPC   D2A33124  27.380   4.112   8.404
 2450POPC   C3A33125  27.678   4.119   8.062
 2450POPC   C4A33126  27.728   4.243   7.654
 2450POPC   C1B33127  27.305   4.554   8.870
 2450POPC   C2B33128  27.128   4.549   8.451
 2450POPC   C3B33129  27.301   4.490   8.045
 2450POPC   C4B33130  27.377   4.607   7.643
 2451POPC   NC333131  42.513  27.895   9.439
 2451POPC   PO433132  42.067  27.399   9.479
 2451POPC   GL133133  42.284  27.536   9.111
 2451POPC   GL233134  42.130  27.864   9.076
 2451POPC   C1A33135  42.107  27.531   8.690
 2451POPC   D2A33136  42.144  27.802   8.356
 2451POPC   C3A33137  42.113  27.573   8.009
 2451POPC   C4A33138  42.271  27.271   7.726
 2451POPC   C1B33139  42.456  27.906   8.748
 2451POPC   C2B33140  42.761  27.817   8.408
 2451POPC   C3B33141  42.738  27.914   7.962
 2451POPC   C4B33142  42.446  27.723   7.634
 2452POPC   NC333143  25.472  28.526   9.427
 2452POPC   PO433144  25.139  27.986   9.571
 2452POPC   GL133145  25.030  28.140   9.146
 2452POPC   GL233146  25.359  28.262   9.019
 2452POPC   C1A33147  24.953  28.281   8.686
 2452POPC   D2A33148  25.100  28.476   8.265
 2452POPC   C3A33149  25.255  28.394   7.848
 2452POPC   C4A33150  25.154  28.313   7.408
 2452POPC   C1B33151  25.424  28.509   8.658
 2452POPC   C2B33152  25.618  28.393   8.260
 2452POPC   C3B33153  25.793  28.566   7.914
 2452POPC   C4B33154  25.499  28.829   7.707
 2453POPC   NC333155  30.956  31.509   9.651
 2453POPC   PO433156  30.448  31.195   9.511
 2453POPC   GL133157  30.802  31.348   9.202
 2453POPC   GL233158  30.546  31.496   9.089
 2453POPC   C1A33159  31.078  31.634   8.903
 2453POPC   D2A33160  31.120  31.910   8.549
 2453POPC   C3A33161  31.080  31.762   8.175
 2453POPC   C4A33162  31.107  31.480   7.877
 2453POPC   C1B33163  30.696  31.383   8.699
 2453POPC   C2B33164  30.637  31.568   8.356
 2453POPC   C3B33165  30.657  31.320   8.031
 2453POPC   C4B33166  30.634  31.494   7.614
 2454POPC   NC333167  30.338   4.675   9.563
 2454POPC   PO433168  30.097   4.036   9.562
 2454POPC   GL133169  30.246   4.262   9.235
 2454POPC   GL233170  30.055   4.556   9.134
 2454POPC   C1A33171  30.076   4.147   8.843
 2454POPC   D2A33172  30.069   4.337   8.467
 2454POPC   C3A33173  30.041   4.051   8.135
 2454POPC   C4A33174  30.121   4.213   7.773
 2454POPC   C1B33175  29.675   4.512   8.862
 2454POPC   C2B33176  29.526   4.569   8.440
 2454POPC   C3B33177  29.726   4.437   8.077
 2454POPC   C4B33178  29.658   4.513   7.675
 2455POPC   NC333179   8.603   0.458   9.741
 2455POPC   PO433180   9.117   0.077   9.552
 2455POPC   GL133181   9.100   0.251   9.164
 2455POPC   GL233182   8.764   0.219   9.185
 2455POPC   C1A33183   9.088   0.391   8.723
 2455POPC   D2A33184   9.135   0.338   8.246
 2455POPC   C3A33185   9.169   0.563   7.842
 2455POPC   C4A33186   8.835   0.820   7.588
 2455POPC   C1B33187   8.687   0.050   8.780
 2455POPC   C2B33188   8.621   0.248   8.376
 2455POPC   C3B33189   8.685   0.533   8.029
 2455POPC   C4B33190   8.739   0.324   7.654
 2456POPC   NC333191  24.051  21.776   9.758
 2456POPC   PO433192  24.552  22.303   9.597
 2456POPC   GL133193  24.435  22.077   9.244
 2456POPC   GL233194  24.140  22.295   9.184
 2456POPC   C1A33195  24.607  21.915   8.809
 2456POPC   D2A33196  24.815  21.913   8.372
 2456POPC   C3A33197  24.639  21.806   7.991
 2456POPC   C4A33198  24.305  21.965   7.701
 2456POPC   C1B33199  24.464  22.386   8.871
 2456POPC   C2B33200  24.617  22.415   8.467
 2456POPC   C3B33201  24.465  22.267   8.097
 2456POPC   C4B33202  24.413  22.474   7.702
 2457POPC   NC333203  15.674  43.943   9.593
 2457POPC   PO433204  16.068  43.582   9.813
 2457POPC   GL133205  15.873  43.546   9.304
 2457POPC   GL233206  15.891  43.876   9.164
 2457POPC   C1A33207  16.121  43.607   8.832
 2457POPC   D2A33208  16.140  43.405   8.449
 2457POPC   C3A33209  16.216  43.694   8.110
 2457POPC   C4A33210  16.130  43.701   7.681
 2457POPC   C1B33211  15.661  43.853   8.827
 2457POPC   C2B33212  15.855  43.866   8.439
 2457POPC   C3B33213  15.723  43.853   8.034
 2457POPC   C4B33214  15.613  44.050   7.684
 2458POPC   NC333215  16.717  31.742   9.691
 2458POPC   PO433216  17.001  32.361   9.507
 2458POPC   GL133217  16.744  32.187   9.192
 2458POPC   GL233218  16.927  31.983   8.974
 2458POPC   C1A33219  16.481  32.170   8.829
 2458POPC   D2A33220  16.505  32.396   8.449
 2458POPC   C3A33221  16.458  32.247   8.035
 2458POPC   C4A33222  16.753  32.278   7.704
 2458POPC   C1B33223  16.978  31.941   8.581
 2458POPC   C2B33224  16.909  32.077   8.194
 2458POPC   C3B33225  16.971  31.859   7.846
 2458POPC   C4B33226  17.032  31.930   7.388
 2459POPC   NC333227  44.913  41.295   9.513
 2459POPC   PO433228  44.508  41.835   9.542
 2459POPC   GL133229  44.612  41.796   9.122
 2459POPC   GL233230  44.881  41.585   9.091
 2459POPC   C1A33231  44.545  41.551   8.722
 2459POPC   D2A33232  44.385  41.632   8.287
 2459POPC   C3A33233  44.663  41.731   7.956
 2459POPC   C4A33234  44.647  41.447   7.628
 2459POPC   C1B33235   0.097  41.606   8.721
 2459POPC   C2B33236  44.971  41.509   8.299
 2459POPC   C3B33237   0.103  41.376   7.874
 2459POPC   C4B33238   0.063  41.278   7.386
 2460POPC   NC333239  32.009   9.302   9.557
 2460POPC   PO433240  32.336   9.925   9.695
 2460POPC   GL133241  32.314   9.940   9.226
 2460POPC   GL233242  32.305   9.578   9.214
 2460POPC   C1A33243  32.123   9.816   8.810
 2460POPC   D2A33244  31.973   9.820   8.380
 2460POPC   C3A33245  32.188   9.839   8.001
 2460POPC   C4A33246  32.270   9.688   7.596
 2460POPC   C1B33247  32.458   9.402   8.827
 2460POPC   C2B33248  32.369   9.190   8.424
 2460POPC   C3B33249  32.334   9.358   7.983
 2460POPC   C4B33250  32.177   9.210   7.555
 2461POPC   NC333251  20.008   4.548   9.521
 2461POPC   PO433252  20.049   3.843   9.493
 2461POPC   GL133253  19.846   4.154   9.185
 2461POPC   GL233254  19.690   4.516   9.112
 2461POPC   C1A33255  19.943   4.142   8.765
 2461POPC   D2A33256  20.146   4.311   8.402
 2461POPC   C3A33257  19.936   4.091   8.090
 2461POPC   C4A33258  19.997   4.147   7.659
 2461POPC   C1B33259  19.824   4.624   8.731
 2461POPC   C2B33260  19.685   4.529   8.333
 2461POPC   C3B33261  19.883   4.580   7.938
 2461POPC   C4B33262  19.703   4.548   7.543
 2462POPC   NC333263  25.093  35.819   9.361
 2462POPC   PO433264  25.578  36.264   9.467
 2462POPC   GL133265  25.450  36.348   9.084
 2462POPC   GL233266  25.126  36.470   9.200
 2462POPC   C1A33267  25.481  36.128   8.695
 2462POPC   D2A33268  25.391  35.857   8.333
 2462POPC   C3A33269  25.494  36.131   7.982
 2462POPC   C4A33270  25.615  36.346   7.615
 2462POPC   C1B33271  25.009  36.277   8.820
 2462POPC   C2B33272  25.088  36.252   8.378
 2462POPC   C3B33273  25.001  36.005   7.997
 2462POPC   C4B33274  25.084  36.381   7.780
 2463POPC   NC333275  39.503  38.287   9.632
 2463POPC   PO433276  38.911  38.637   9.553
 2463POPC   GL133277  39.213  38.478   9.251
 2463POPC   GL233278  39.288  38.121   9.174
 2463POPC   C1A33279  39.341  38.553   8.855
 2463POPC   D2A33280  39.090  38.455   8.498
 2463POPC   C3A33281  39.269  38.546   8.117
 2463POPC   C4A33282  39.231  38.634   7.719
 2463POPC   C1B33283  39.334  38.046   8.718
 2463POPC   C2B33284  39.329  38.027   8.271
 2463POPC   C3B33285  39.081  38.128   7.930
 2463POPC   C4B33286  39.341  38.175   7.561
 2464POPC   NC333287   4.651  35.474   9.564
 2464POPC   PO433288   3.969  35.162   9.529
 2464POPC   GL133289   4.275  35.321   9.240
 2464POPC   GL233290   4.554  35.084   9.263
 2464POPC   C1A33291   4.519  35.502   8.900
 2464POPC   D2A33292   4.345  35.516   8.495
 2464POPC   C3A33293   4.478  35.652   8.093
 2464POPC   C4A33294   4.230  35.495   7.739
 2464POPC   C1B33295   4.504  34.978   8.850
 2464POPC   C2B33296   4.422  34.976   8.403
 2464POPC   C3B33297   4.518  35.126   7.970
 2464POPC   C4B33298   4.634  35.183   7.518
 2465POPC   NC333299  27.151  18.302   9.620
 2465POPC   PO433300  26.546  18.573   9.474
 2465POPC   GL133301  26.765  18.265   9.225
 2465POPC   GL233302  26.431  18.128   9.171
 2465POPC   C1A33303  27.018  18.224   8.833
 2465POPC   D2A33304  26.989  18.330   8.374
 2465POPC   C3A33305  26.879  18.267   7.910
 2465POPC   C4A33306  26.899  18.583   7.547
 2465POPC   C1B33307  26.547  18.070   8.719
 2465POPC   C2B33308  26.641  17.941   8.288
 2465POPC   C3B33309  26.441  17.928   7.870
 2465POPC   C4B33310  26.379  17.703   7.474
 2466POPC   NC333311  19.715  17.067   9.499
 2466POPC   PO433312  20.015  16.521   9.498
 2466POPC   GL133313  19.817  16.741   9.119
 2466POPC   GL233314  19.647  17.088   8.997
 2466POPC   C1A33315  19.959  16.688   8.735
 2466POPC   D2A33316  19.969  16.429   8.425
 2466POPC   C3A33317  20.124  16.662   8.116
 2466POPC   C4A33318  20.126  16.520   7.737
 2466POPC   C1B33319  19.499  16.809   8.658
 2466POPC   C2B33320  19.650  16.814   8.234
 2466POPC   C3B33321  19.698  16.832   7.767
 2466POPC   C4B33322  19.602  16.931   7.329
 2467POPC   NC333323  26.058  38.084   9.548
 2467POPC   PO433324  25.975  37.430   9.689
 2467POPC   GL133325  26.054  37.644   9.261
 2467POPC   GL233326  25.848  37.445   9.095
 2467POPC   C1A33327  26.049  37.839   8.792
 2467POPC   D2A33328  25.885  37.838   8.324
 2467POPC   C3A33329  26.160  37.827   7.960
 2467POPC   C4A33330  26.174  38.045   7.562
 2467POPC   C1B33331  25.909  37.356   8.699
 2467POPC   C2B33332  26.068  37.376   8.334
 2467POPC   C3B33333  25.889  37.395   7.976
 2467POPC   C4B33334  26.110  37.324   7.645
 2468POPC   NC333335   3.254  30.302   9.507
 2468POPC   PO433336   3.822  29.827   9.458
 2468POPC   GL133337   3.695  29.987   9.084
 2468POPC   GL233338   3.312  30.045   9.074
 2468POPC   C1A33339   3.581  29.807   8.684
 2468POPC   D2A33340   3.501  29.651   8.277
 2468POPC   C3A33341   3.638  29.927   7.949
 2468POPC   C4A33342   3.390  29.852   7.586
 2468POPC   C1B33343   3.526  30.325   8.774
 2468POPC   C2B33344   3.407  30.193   8.383
 2468POPC   C3B33345   3.183  30.152   8.030
 2468POPC   C4B33346   3.407  30.372   7.725
 2469POPC   NC333347  34.178  17.641   9.549
 2469POPC   PO433348  34.739  17.298   9.427
 2469POPC   GL133349  34.549  17.589   9.169
 2469POPC   GL233350  34.246  17.378   9.109
 2469POPC   C1A33351  34.803  17.653   8.816
 2469POPC   D2A33352  34.971  17.324   8.557
 2469POPC   C3A33353  34.896  17.314   8.111
 2469POPC   C4A33354  34.828  17.549   7.711
 2469POPC   C1B33355  34.393  17.352   8.704
 2469POPC   C2B33356  34.448  17.709   8.444
 2469POPC   C3B33357  34.528  17.688   8.068
 2469POPC   C4B33358  34.445  17.256   7.880
 2470POPC   NC333359  33.576  14.142   9.682
 2470POPC   PO433360  34.154  14.366   9.575
 2470POPC   GL133361  33.926  14.411   9.190
 2470POPC   GL233362  33.592  14.317   9.155
 2470POPC   C1A33363  33.988  14.268   8.748
 2470POPC   D2A33364  33.831  14.379   8.336
 2470POPC   C3A33365  34.068  14.347   7.951
 2470POPC   C4A33366  34.271  14.179   7.605
 2470POPC   C1B33367  33.532  14.517   8.754
 2470POPC   C2B33368  33.371  14.633   8.343
 2470POPC   C3B33369  33.293  14.755   7.906
 2470POPC   C4B33370  33.582  14.533   7.593
 2471POPC   NC333371  39.718  39.729   9.409
 2471POPC   PO433372  40.163  40.259   9.497
 2471POPC   GL133373  39.938  40.164   9.165
 2471POPC   GL233374  40.141  39.882   9.093
 2471POPC   C1A33375  40.061  40.285   8.747
 2471POPC   D2A33376  40.061  40.152   8.312
 2471POPC   C3A33377  39.764  40.295   7.976
 2471POPC   C4A33378  39.848  40.237   7.508
 2471POPC   C1B33379  39.868  39.822   8.726
 2471POPC   C2B33380  39.703  39.805   8.297
 2471POPC   C3B33381  39.802  39.803   7.838
 2471POPC   C4B33382  39.685  39.667   7.409
 2472POPC   NC333383  17.332  18.495   9.807
 2472POPC   PO433384  17.893  18.415   9.433
 2472POPC   GL133385  17.411  18.338   9.229
 2472POPC   GL233386  17.307  17.979   9.065
 2472POPC   C1A33387  17.158  18.349   8.803
 2472POPC   D2A33388  17.384  18.340   8.430
 2472POPC   C3A33389  17.203  18.363   8.043
 2472POPC   C4A33390  17.304  18.770   7.887
 2472POPC   C1B33391  17.691  18.179   8.843
 2472POPC   C2B33392  17.902  18.282   8.458
 2472POPC   C3B33393  17.772  18.439   8.042
 2472POPC   C4B33394  17.856  18.323   7.616
 2473POPC   NC333395  26.213   2.819   9.428
 2473POPC   PO433396  25.568   2.532   9.480
 2473POPC   GL133397  25.771   2.809   9.174
 2473POPC   GL233398  25.898   2.533   9.043
 2473POPC   C1A33399  26.023   2.945   8.785
 2473POPC   D2A33400  26.246   2.855   8.396
 2473POPC   C3A33401  26.145   3.013   7.971
 2473POPC   C4A33402  26.148   3.272   7.579
 2473POPC   C1B33403  26.237   2.477   8.766
 2473POPC   C2B33404  26.328   2.348   8.346
 2473POPC   C3B33405  26.152   2.458   7.954
 2473POPC   C4B33406  25.745   2.546   7.822
 2474POPC   NC333407  12.985  30.229   9.519
 2474POPC   PO433408  12.678  29.641   9.416
 2474POPC   GL133409  12.830  29.705   9.023
 2474POPC   GL233410  12.964  30.058   9.019
 2474POPC   C1A33411  12.769  29.825   8.586
 2474POPC   D2A33412  13.003  30.156   8.387
 2474POPC   C3A33413  13.128  30.094   7.962
 2474POPC   C4A33414  12.891  29.740   7.780
 2474POPC   C1B33415  13.250  29.814   8.730
 2474POPC   C2B33416  13.235  29.687   8.258
 2474POPC   C3B33417  13.377  29.664   7.788
 2474POPC   C4B33418  13.166  29.687   7.314
 2475POPC   NC333419  41.746  21.998   9.548
 2475POPC   PO433420  41.145  22.310   9.473
 2475POPC   GL133421  41.433  22.218   9.165
 2475POPC   GL233422  41.737  22.413   9.225
 2475POPC   C1A33423  41.327  22.146   8.717
 2475POPC   D2A33424  41.586  21.942   8.397
 2475POPC   C3A33425  41.501  22.001   7.943
 2475POPC   C4A33426  41.778  21.860   7.599
 2475POPC   C1B33427  41.581  22.567   8.833
 2475POPC   C2B33428  41.660  22.466   8.420
 2475POPC   C3B33429  41.882  22.330   8.068
 2475POPC   C4B33430  41.788  22.401   7.641
 2476POPC   NC333431  11.129  42.325   9.683
 2476POPC   PO433432  11.680  42.751   9.657
 2476POPC   GL133433  11.421  42.566   9.251
 2476POPC   GL233434  11.627  42.309   9.016
 2476POPC   C1A33435  11.250  42.617   8.810
 2476POPC   D2A33436  11.426  42.733   8.378
 2476POPC   C3A33437  11.221  42.631   7.985
 2476POPC   C4A33438  10.908  42.408   7.731
 2476POPC   C1B33439  11.669  42.312   8.576
 2476POPC   C2B33440  11.349  42.212   8.280
 2476POPC   C3B33441  11.282  42.094   7.855
 2476POPC   C4B33442  11.341  42.338   7.440
 2477POPC   NC333443  44.832  29.198   9.632
 2477POPC   PO433444  44.314  28.850   9.545
 2477POPC   GL133445  44.585  29.080   9.222
 2477POPC   GL233446  44.579  29.444   9.183
 2477POPC   C1A33447  44.789  29.065   8.844
 2477POPC   D2A33448  44.721  28.837   8.482
 2477POPC   C3A33449  44.656  29.102   8.126
 2477POPC   C4A33450  44.929  29.252   7.786
 2477POPC   C1B33451  44.381  29.435   8.761
 2477POPC   C2B33452  44.256  29.432   8.287
 2477POPC   C3B33453  44.378  29.448   7.842
 2477POPC   C4B33454  44.112  29.330   7.505
 2478POPC   NC333455  21.559  28.092   9.663
 2478POPC   PO433456  21.020  27.818   9.775
 2478POPC   GL133457  21.191  28.112   9.330
 2478POPC   GL233458  21.497  28.348   9.226
 2478POPC   C1A33459  21.177  28.196   8.836
 2478POPC   D2A33460  21.207  28.426   8.404
 2478POPC   C3A33461  21.359  28.211   8.023
 2478POPC   C4A33462  21.533  28.238   7.584
 2478POPC   C1B33463  21.666  28.636   8.890
 2478POPC   C2B33464  21.673  28.680   8.419
 2478POPC   C3B33465  21.757  28.549   7.998
 2478POPC   C4B33466  21.900  28.612   7.584
 2479POPC   NC333467  43.048   7.857   9.296
 2479POPC   PO433468  43.137   8.446   9.613
 2479POPC   GL133469  43.279   8.336   9.129
 2479POPC   GL233470  43.345   8.021   8.928
 2479POPC   C1A33471  43.210   8.455   8.683
 2479POPC   D2A33472  42.872   8.479   8.385
 2479POPC   C3A33473  42.966   8.579   7.973
 2479POPC   C4A33474  43.415   8.689   7.886
 2479POPC   C1B33475  42.905   8.034   8.681
 2479POPC   C2B33476  42.739   8.011   8.257
 2479POPC   C3B33477  43.121   8.084   7.981
 2479POPC   C4B33478  43.501   7.836   7.840
 2480POPC   NC333479  36.735  16.589   9.661
 2480POPC   PO433480  37.141  17.123   9.689
 2480POPC   GL133481  37.002  16.902   9.285
 2480POPC   GL233482  36.645  16.943   9.304
 2480POPC   C1A33483  37.165  16.729   8.842
 2480POPC   D2A33484  37.275  16.888   8.415
 2480POPC   C3A33485  37.048  16.787   8.057
 2480POPC   C4A33486  36.809  17.058   7.804
 2480POPC   C1B33487  36.671  16.688   8.943
 2480POPC   C2B33488  36.740  16.796   8.499
 2480POPC   C3B33489  36.520  16.688   8.116
 2480POPC   C4B33490  36.684  16.583   7.736
 2481POPC   NC333491  32.119  17.373   9.421
 2481POPC   PO433492  31.936  18.016   9.677
 2481POPC   GL133493  31.803  17.880   9.153
 2481POPC   GL233494  31.881  17.558   9.031
 2481POPC   C1A33495  32.009  17.876   8.671
 2481POPC   D2A33496  32.092  17.489   8.383
 2481POPC   C3A33497  32.241  17.543   7.951
 2481POPC   C4A33498  32.545  17.738   7.687
 2481POPC   C1B33499  31.797  17.220   8.725
 2481POPC   C2B33500  31.701  17.096   8.310
 2481POPC   C3B33501  31.720  17.270   7.884
 2481POPC   C4B33502  31.902  17.319   7.471
 2482POPC   NC333503   2.509  17.440   9.893
 2482POPC   PO433504   2.010  17.712   9.568
 2482POPC   GL133505   1.847  17.587   9.172
 2482POPC   GL233506   1.891  17.274   9.065
 2482POPC   C1A33507   1.720  17.661   8.746
 2482POPC   D2A33508   1.951  17.642   8.386
 2482POPC   C3A33509   1.713  17.486   8.071
 2482POPC   C4A33510   1.856  17.401   7.692
 2482POPC   C1B33511   2.217  17.483   8.787
 2482POPC   C2B33512   2.489  17.323   8.506
 2482POPC   C3B33513   2.239  17.258   8.163
 2482POPC   C4B33514   2.341  17.265   7.766
 2483POPC   NC333515   0.700  15.423   9.509
 2483POPC   PO433516   0.122  15.002   9.435
 2483POPC   GL133517   0.554  14.976   9.260
 2483POPC   GL233518   0.616  15.265   9.029
 2483POPC   C1A33519   0.742  14.798   8.881
 2483POPC   D2A33520   0.545  15.052   8.545
 2483POPC   C3A33521   0.623  14.971   8.125
 2483POPC   C4A33522   0.349  15.012   7.771
 2483POPC   C1B33523   0.707  15.624   8.779
 2483POPC   C2B33524   0.550  15.717   8.373
 2483POPC   C3B33525   0.453  15.456   8.026
 2483POPC   C4B33526   0.725  15.315   7.733
 2484POPC   NC333527  30.328  31.676   9.514
 2484POPC   PO433528  29.609  31.740   9.517
 2484POPC   GL133529  29.686  31.629   9.115
 2484POPC   GL233530  30.019  31.542   9.124
 2484POPC   C1A33531  29.730  31.598   8.688
 2484POPC   D2A33532  29.578  31.422   8.367
 2484POPC   C3A33533  29.724  31.565   7.997
 2484POPC   C4A33534  29.914  31.942   7.873
 2484POPC   C1B33535  30.218  31.534   8.725
 2484POPC   C2B33536  30.121  31.401   8.336
 2484POPC   C3B33537  30.232  31.558   7.944
 2484POPC   C4B33538  30.066  31.307   7.673
 2485POPC   NC333539  17.401  33.399   9.411
 2485POPC   PO433540  17.829  32.829   9.504
 2485POPC   GL133541  17.760  33.110   9.158
 2485POPC   GL233542  17.426  32.955   9.133
 2485POPC   C1A33543  17.713  33.123   8.699
 2485POPC   D2A33544  17.474  33.303   8.345
 2485POPC   C3A33545  17.712  33.218   7.975
 2485POPC   C4A33546  18.028  32.916   7.844
 2485POPC   C1B33547  17.296  32.826   8.729
 2485POPC   C2B33548  17.455  32.771   8.299
 2485POPC   C3B33549  17.313  32.933   7.903
 2485POPC   C4B33550  17.434  32.871   7.482
 2486POPC   NC333551   6.993   2.930   9.540
 2486POPC   PO433552   6.390   2.720   9.488
 2486POPC   GL133553   6.435   2.829   9.118
 2486POPC   GL233554   6.683   3.086   9.161
 2486POPC   C1A33555   6.603   2.688   8.741
 2486POPC   D2A33556   6.916   2.541   8.440
 2486POPC   C3A33557   6.763   2.705   8.073
 2486POPC   C4A33558   6.399   2.770   7.834
 2486POPC   C1B33559   6.556   3.192   8.786
 2486POPC   C2B33560   6.730   3.064   8.428
 2486POPC   C3B33561   6.609   3.200   8.052
 2486POPC   C4B33562   6.401   3.265   7.716
 2487POPC   NC333563  29.697  42.582   9.449
 2487POPC   PO433564  30.197  42.149   9.513
 2487POPC   GL133565  29.935  42.172   9.160
 2487POPC   GL233566  30.066  42.486   9.103
 2487POPC   C1A33567  29.763  42.297   8.751
 2487POPC   D2A33568  29.973  42.463   8.378
 2487POPC   C3A33569  29.709  42.469   7.995
 2487POPC   C4A33570  29.560  42.367   7.555
 2487POPC   C1B33571  30.274  42.741   8.811
 2487POPC   C2B33572  30.174  42.942   8.440
 2487POPC   C3B33573  30.271  42.803   8.023
 2487POPC   C4B33574  30.201  42.376   7.896
 2488POPC   NC333575   9.964  28.076   9.365
 2488POPC   PO433576   9.423  28.499   9.543
 2488POPC   GL133577   9.613  28.628   9.149
 2488POPC   GL233578   9.717  28.329   9.006
 2488POPC   C1A33579   9.527  28.719   8.709
 2488POPC   D2A33580   9.830  28.578   8.419
 2488POPC   C3A33581   9.773  28.458   7.989
 2488POPC   C4A33582  10.059  28.235   7.764
 2488POPC   C1B33583   9.485  28.207   8.670
 2488POPC   C2B33584   9.547  28.070   8.276
 2488POPC   C3B33585   9.364  28.161   7.890
 2488POPC   C4B33586   9.369  28.467   7.556
 2489POPC   NC333587  19.656  44.263   9.493
 2489POPC   PO433588  20.186  44.659   9.768
 2489POPC   GL133589  19.893  44.658   9.320
 2489POPC   GL233590  19.737  44.990   9.230
 2489POPC   C1A33591  19.958  44.619   8.831
 2489POPC   D2A33592  20.255  44.787   8.491
 2489POPC   C3A33593  20.165  44.652   8.088
 2489POPC   C4A33594  20.114  44.770   7.677
 2489POPC   C1B33595  19.625  44.976   8.784
 2489POPC   C2B33596  19.722  44.726   8.367
 2489POPC   C3B33597  19.679  44.807   7.910
 2489POPC   C4B33598  19.686  44.826   7.398
 2490POPC   NC333599  16.157  30.353   9.469
 2490POPC   PO433600  15.756  30.888   9.522
 2490POPC   GL133601  15.915  30.914   9.167
 2490POPC   GL233602  15.864  30.556   9.101
 2490POPC   C1A33603  15.705  30.981   8.830
 2490POPC   D2A33604  15.915  30.769   8.548
 2490POPC   C3A33605  15.872  30.879   8.097
 2490POPC   C4A33606  16.145  30.840   7.717
 2490POPC   C1B33607  15.626  30.387   8.765
 2490POPC   C2B33608  15.679  30.404   8.308
 2490POPC   C3B33609  15.943  30.402   7.901
 2490POPC   C4B33610  15.745  30.271   7.519
 2491POPC   NC333611  19.991  27.012   9.822
 2491POPC   PO433612  19.512  26.602   9.608
 2491POPC   GL133613  19.652  26.788   9.200
 2491POPC   GL233614  19.542  27.121   9.020
 2491POPC   C1A33615  19.609  26.655   8.776
 2491POPC   D2A33616  19.899  26.698   8.426
 2491POPC   C3A33617  19.714  26.853   8.048
 2491POPC   C4A33618  19.612  26.584   7.721
 2491POPC   C1B33619  19.966  27.074   8.839
 2491POPC   C2B33620  20.181  27.142   8.424
 2491POPC   C3B33621  20.073  27.250   7.983
 2491POPC   C4B33622  19.983  26.983   7.603
 2492POPC   NC333623  20.017  23.979   9.501
 2492POPC   PO433624  20.525  23.486   9.738
 2492POPC   GL133625  20.333  23.596   9.314
 2492POPC   GL233626  20.623  23.616   9.138
 2492POPC   C1A33627  20.291  23.917   8.918
 2492POPC   D2A33628  20.415  23.941   8.484
 2492POPC   C3A33629  20.289  23.679   8.130
 2492POPC   C4A33630  20.422  23.820   7.737
 2492POPC   C1B33631  20.663  23.517   8.721
 2492POPC   C2B33632  20.904  23.784   8.470
 2492POPC   C3B33633  20.781  23.827   8.091
 2492POPC   C4B33634  20.838  23.522   7.756
 2493POPC   NC333635  15.754  11.089   9.797
 2493POPC   PO433636  15.852  10.423   9.723
 2493POPC   GL133637  15.996  10.463   9.290
 2493POPC   GL233638  16.140  10.791   9.177
 2493POPC   C1A33639  15.935  10.446   8.851
 2493POPC   D2A33640  16.114  10.299   8.454
 2493POPC   C3A33641  16.017  10.463   8.065
 2493POPC   C4A33642  15.862  10.293   7.712
 2493POPC   C1B33643  16.408  10.653   8.789
 2493POPC   C2B33644  16.444  10.660   8.321
 2493POPC   C3B33645  16.280  10.884   7.925
 2493POPC   C4B33646  16.024  10.810   7.517
 2494POPC   NC333647  37.545  31.410   9.863
 2494POPC   PO433648  37.779  31.777   9.299
 2494POPC   GL133649  37.876  31.561   8.981
 2494POPC   GL233650  38.066  31.848   8.883
 2494POPC   C1A33651  37.816  31.468   8.577
 2494POPC   D2A33652  37.794  31.126   8.325
 2494POPC   C3A33653  37.549  31.353   8.076
 2494POPC   C4A33654  37.618  31.515   7.702
 2494POPC   C1B33655  37.825  32.005   8.545
 2494POPC   C2B33656  37.812  31.810   8.129
 2494POPC   C3B33657  38.032  31.795   7.736
 2494POPC   C4B33658  38.076  31.642   7.310
 2495POPC   NC333659  19.617   0.913   9.408
 2495POPC   PO433660  20.130   1.312   9.537
 2495POPC   GL133661  19.983   1.195   9.132
 2495POPC   GL233662  20.164   0.925   9.096
 2495POPC   C1A33663  19.717   1.035   8.770
 2495POPC   D2A33664  19.418   1.216   8.465
 2495POPC   C3A33665  19.536   1.128   8.041
 2495POPC   C4A33666  19.621   0.779   7.774
 2495POPC   C1B33667  20.101   0.680   8.713
 2495POPC   C2B33668  19.926   0.656   8.288
 2495POPC   C3B33669  20.107   0.822   7.937
 2495POPC   C4B33670  20.191   1.263   7.831
 2496POPC   NC333671   4.963  20.788   9.535
 2496POPC   PO433672   5.263  20.302   9.231
 2496POPC   GL133673   5.037  20.627   9.020
 2496POPC   GL233674   5.239  20.905   9.120
 2496POPC   C1A33675   4.945  20.696   8.583
 2496POPC   D2A33676   4.868  20.474   8.202
 2496POPC   C3A33677   4.818  20.677   7.811
 2496POPC   C4A33678   4.855  20.491   7.417
 2496POPC   C1B33679   5.435  20.811   8.733
 2496POPC   C2B33680   5.377  20.595   8.353
 2496POPC   C3B33681   5.312  20.663   7.925
 2496POPC   C4B33682   5.351  20.643   7.455
 2497POPC   NC333683  12.789   5.060   9.744
 2497POPC   PO433684  12.729   4.370   9.572
 2497POPC   GL133685  12.917   4.431   9.183
 2497POPC   GL233686  13.118   4.167   9.111
 2497POPC   C1A33687  13.027   4.519   8.765
 2497POPC   D2A33688  13.128   4.549   8.345
 2497POPC   C3A33689  12.814   4.457   8.000
 2497POPC   C4A33690  13.012   4.492   7.645
 2497POPC   C1B33691  12.695   4.121   8.862
 2497POPC   C2B33692  12.722   4.224   8.451
 2497POPC   C3B33693  13.087   4.065   8.170
 2497POPC   C4B33694  13.135   3.981   7.721
 2498POPC   NC333695  32.079   7.764   9.298
 2498POPC   PO433696  32.502   7.429   9.744
 2498POPC   GL133697  32.415   7.352   9.222
 2498POPC   GL233698  32.105   7.337   8.993
 2498POPC   C1A33699  32.493   7.569   8.768
 2498POPC   D2A33700  32.290   7.529   8.350
 2498POPC   C3A33701  32.395   7.399   7.914
 2498POPC   C4A33702  32.453   7.510   7.461
 2498POPC   C1B33703  32.275   7.084   8.651
 2498POPC   C2B33704  32.104   7.083   8.219
 2498POPC   C3B33705  31.894   7.452   8.019
 2498POPC   C4B33706  31.955   7.398   7.578
 2499POPC   NC333707  33.602   9.396   9.489
 2499POPC   PO433708  33.833   9.973   9.755
 2499POPC   GL133709  33.847   9.848   9.302
 2499POPC   GL233710  34.096   9.625   9.156
 2499POPC   C1A33711  33.758   9.881   8.858
 2499POPC   D2A33712  34.036   9.866   8.504
 2499POPC   C3A33713  33.815   9.837   8.133
 2499POPC   C4A33714  33.583   9.862   7.758
 2499POPC   C1B33715  33.820   9.379   8.876
 2499POPC   C2B33716  33.853   9.385   8.471
 2499POPC   C3B33717  34.144   9.441   8.167
 2499POPC   C4B33718  33.900   9.448   7.789
 2500POPC   NC333719  18.745  11.728   9.442
 2500POPC   PO433720  19.209  12.323   9.439
 2500POPC   GL133721  18.905  12.164   9.126
 2500POPC   GL233722  18.949  11.810   8.983
 2500POPC   C1A33723  18.753  12.202   8.687
 2500POPC   D2A33724  18.797  12.020   8.261
 2500POPC   C3A33725  19.038  12.286   8.006
 2500POPC   C4A33726  19.254  12.333   7.645
 2500POPC   C1B33727  19.171  11.905   8.603
 2500POPC   C2B33728  19.320  11.768   8.218
 2500POPC   C3B33729  19.398  11.829   7.806
 2500POPC   C4B33730  18.969  11.861   7.740
 2501POPC   NC333731  29.976  29.126   9.532
 2501POPC   PO433732  30.314  28.543   9.293
 2501POPC   GL133733  30.095  28.976   9.056
 2501POPC   GL233734  29.905  29.347   9.093
 2501POPC   C1A33735  29.762  29.096   8.696
 2501POPC   D2A33736  29.624  29.218   8.267
 2501POPC   C3A33737  29.869  29.073   7.919
 2501POPC   C4A33738  29.747  28.724   7.686
 2501POPC   C1B33739  30.004  29.565   8.714
 2501POPC   C2B33740  30.094  29.459   8.289
 2501POPC   C3B33741  29.888  29.582   7.914
 2501POPC   C4B33742  29.739  29.400   7.535
 2502POPC   NC333743  21.997  25.768   9.527
 2502POPC   PO433744  22.485  26.261   9.442
 2502POPC   GL133745  22.230  26.252   9.091
 2502POPC   GL233746  22.224  25.899   9.100
 2502POPC   C1A33747  22.182  26.101   8.640
 2502POPC   D2A33748  22.225  25.758   8.365
 2502POPC   C3A33749  22.363  25.939   8.084
 2502POPC   C4A33750  22.412  26.314   7.893
 2502POPC   C1B33751  21.792  25.900   8.892
 2502POPC   C2B33752  21.729  25.848   8.444
 2502POPC   C3B33753  21.806  26.060   8.028
 2502POPC   C4B33754  21.720  25.862   7.607
 2503POPC   NC333755  37.643  38.170   9.490
 2503POPC   PO433756  37.840  37.488   9.704
 2503POPC   GL133757  37.680  37.624   9.305
 2503POPC   GL233758  37.969  37.673   9.143
 2503POPC   C1A33759  37.515  37.745   8.876
 2503POPC   D2A33760  37.634  37.833   8.464
 2503POPC   C3A33761  37.501  37.624   8.065
 2503POPC   C4A33762  37.392  37.226   7.890
 2503POPC   C1B33763  37.964  37.500   8.720
 2503POPC   C2B33764  38.018  37.561   8.289
 2503POPC   C3B33765  37.954  37.869   7.999
 2503POPC   C4B33766  37.917  37.781   7.543
 2504POPC   NC333767  41.748  37.475   9.406
 2504POPC   PO433768  41.328  37.948   9.585
 2504POPC   GL133769  41.555  37.871   9.159
 2504POPC   GL233770  41.810  38.079   9.073
 2504POPC   C1A33771  41.723  37.755   8.713
 2504POPC   D2A33772  41.682  37.900   8.273
 2504POPC   C3A33773  41.488  37.569   8.067
 2504POPC   C4A33774  41.296  37.469   7.724
 2504POPC   C1B33775  41.740  38.259   8.661
 2504POPC   C2B33776  41.961  38.341   8.310
 2504POPC   C3B33777  41.906  38.205   7.873
 2504POPC   C4B33778  41.478  37.990   7.750
 2505POPC   NC333779  39.621  33.419   9.511
 2505POPC   PO433780  40.128  32.987   9.663
 2505POPC   GL133781  39.969  33.109   9.283
 2505POPC   GL233782  39.901  32.773   9.135
 2505POPC   C1A33783  39.885  33.175   8.861
 2505POPC   D2A33784  39.755  32.846   8.584
 2505POPC   C3A33785  39.824  32.849   8.138
 2505POPC   C4A33786  39.839  32.528   7.845
 2505POPC   C1B33787  40.210  32.765   8.801
 2505POPC   C2B33788  40.301  32.874   8.382
 2505POPC   C3B33789  40.305  32.735   7.960
 2505POPC   C4B33790  40.412  32.816   7.560
 2506POPC   NC333791  30.537  17.628   9.572
 2506POPC   PO433792  31.020  17.235   9.562
 2506POPC   GL133793  30.885  17.420   9.143
 2506POPC   GL233794  30.656  17.700   9.087
 2506POPC   C1A33795  30.983  17.639   8.720
 2506POPC   D2A33796  31.115  17.748   8.316
 2506POPC   C3A33797  30.811  17.597   8.022
 2506POPC   C4A33798  30.439  17.454   7.779
 2506POPC   C1B33799  30.522  17.898   8.711
 2506POPC   C2B33800  30.664  18.011   8.334
 2506POPC   C3B33801  30.426  17.934   7.994
 2506POPC   C4B33802  30.029  17.721   7.969
 2507POPC   NC333803  20.669   9.341   9.634
 2507POPC   PO433804  20.725   8.717   9.445
 2507POPC   GL133805  20.900   8.908   9.102
 2507POPC   GL233806  20.957   9.244   9.189
 2507POPC   C1A33807  20.785   8.816   8.667
 2507POPC   D2A33808  20.630   8.688   8.260
 2507POPC   C3A33809  20.884   8.817   7.944
 2507POPC   C4A33810  20.812   9.007   7.576
 2507POPC   C1B33811  20.755   9.315   8.802
 2507POPC   C2B33812  20.905   9.264   8.402
 2507POPC   C3B33813  20.648   9.244   8.055
 2507POPC   C4B33814  20.392   9.271   7.699
 2508POPC   NC333815   9.758  13.924   9.498
 2508POPC   PO433816   9.575  13.309   9.574
 2508POPC   GL133817   9.521  13.573   9.242
 2508POPC   GL233818   9.875  13.564   9.128
 2508POPC   C1A33819   9.506  13.793   8.867
 2508POPC   D2A33820   9.752  13.614   8.540
 2508POPC   C3A33821   9.539  13.627   8.158
 2508POPC   C4A33822   9.657  13.717   7.761
 2508POPC   C1B33823   9.945  13.205   8.844
 2508POPC   C2B33824  10.112  13.197   8.426
 2508POPC   C3B33825   9.992  13.320   8.024
 2508POPC   C4B33826   9.905  13.186   7.611
 2509POPC   NC333827  30.609   8.125   9.507
 2509POPC   PO433828  31.103   8.547   9.539
 2509POPC   GL133829  30.896   8.360   9.158
 2509POPC   GL233830  30.514   8.365   9.074
 2509POPC   C1A33831  30.884   8.507   8.751
 2509POPC   D2A33832  30.659   8.301   8.454
 2509POPC   C3A33833  30.832   8.412   8.098
 2509POPC   C4A33834  30.853   8.118   7.790
 2509POPC   C1B33835  30.229   8.398   8.729
 2509POPC   C2B33836  30.147   8.333   8.308
 2509POPC   C3B33837  30.387   8.142   8.012
 2509POPC   C4B33838  30.405   7.879   7.670
 2510POPC   NC333839  32.054  30.632   9.461
 2510POPC   PO433840  32.674  30.299   9.345
 2510POPC   GL133841  32.380  30.545   9.080
 2510POPC   GL233842  31.978  30.446   8.999
 2510POPC   C1A33843  32.271  30.720   8.702
 2510POPC   D2A33844  32.322  30.960   8.377
 2510POPC   C3A33845  32.385  30.741   8.006
 2510POPC   C4A33846  32.314  31.044   7.691
 2510POPC   C1B33847  31.916  30.264   8.608
 2510POPC   C2B33848  32.061  30.291   8.191
 2510POPC   C3B33849  32.185  30.264   7.770
 2510POPC   C4B33850  32.402  30.560   7.520
 2511POPC   NC333851  28.836  37.576   9.643
 2511POPC   PO433852  29.199  38.147   9.662
 2511POPC   GL133853  29.219  37.777   9.347
 2511POPC   GL233854  28.956  37.827   9.091
 2511POPC   C1A33855  29.420  37.655   8.916
 2511POPC   D2A33856  29.595  37.710   8.489
 2511POPC   C3A33857  29.465  37.747   8.071
 2511POPC   C4A33858  29.620  37.819   7.668
 2511POPC   C1B33859  29.058  37.840   8.623
 2511POPC   C2B33860  29.084  37.509   8.310
 2511POPC   C3B33861  29.043  37.553   7.850
 2511POPC   C4B33862  28.828  37.607   7.443
 2512POPC   NC333863  31.733  25.466   9.509
 2512POPC   PO433864  31.479  24.886   9.298
 2512POPC   GL133865  31.455  25.325   9.099
 2512POPC   GL233866  31.687  25.612   9.047
 2512POPC   C1A33867  31.577  25.315   8.659
 2512POPC   D2A33868  31.399  25.061   8.342
 2512POPC   C3A33869  31.531  25.172   7.924
 2512POPC   C4A33870  31.512  25.129   7.461
 2512POPC   C1B33871  31.782  25.859   8.750
 2512POPC   C2B33872  31.690  25.738   8.360
 2512POPC   C3B33873  31.863  25.573   7.999
 2512POPC   C4B33874  31.946  25.313   7.638
 2513POPC   NC333875  33.444  22.975   9.849
 2513POPC   PO433876  33.993  23.174   9.539
 2513POPC   GL133877  33.809  23.030   9.166
 2513POPC   GL233878  33.522  22.805   9.096
 2513POPC   C1A33879  33.702  23.262   8.803
 2513POPC   D2A33880  33.502  23.226   8.418
 2513POPC   C3A33881  33.711  23.188   8.039
 2513POPC   C4A33882  33.558  23.205   7.622
 2513POPC   C1B33883  33.490  22.785   8.681
 2513POPC   C2B33884  33.672  22.735   8.282
 2513POPC   C3B33885  33.482  22.719   7.863
 2513POPC   C4B33886  33.456  22.758   7.388
 2514POPC   NC333887   0.275  36.178   9.585
 2514POPC   PO433888   0.925  35.989   9.444
 2514POPC   GL133889   0.618  36.186   9.218
 2514POPC   GL233890   0.744  36.518   9.303
 2514POPC   C1A33891   0.379  36.230   8.816
 2514POPC   D2A33892   0.189  36.020   8.443
 2514POPC   C3A33893   0.329  36.161   8.029
 2514POPC   C4A33894   0.418  35.959   7.632
 2514POPC   C1B33895   0.864  36.412   8.867
 2514POPC   C2B33896   0.679  36.527   8.476
 2514POPC   C3B33897   0.817  36.489   8.081
 2514POPC   C4B33898   0.708  36.385   7.698
 2515POPC   NC333899  22.709  41.522   9.610
 2515POPC   PO433900  23.291  41.269   9.383
 2515POPC   GL133901  22.987  41.539   9.153
 2515POPC   GL233902  22.619  41.444   9.112
 2515POPC   C1A33903  23.016  41.617   8.705
 2515POPC   D2A33904  22.797  41.755   8.335
 2515POPC   C3A33905  22.808  41.494   7.973
 2515POPC   C4A33906  23.201  41.495   7.748
 2515POPC   C1B33907  22.845  41.138   8.854
 2515POPC   C2B33908  23.070  41.091   8.478
 2515POPC   C3B33909  23.154  41.093   8.028
 2515POPC   C4B33910  22.985  40.934   7.658
 2516POPC   NC333911  16.549   0.219   9.547
 2516POPC   PO433912  16.935   0.734   9.674
 2516POPC   GL133913  16.813   0.618   9.262
 2516POPC   GL233914  16.875   0.281   9.136
 2516POPC   C1A33915  16.601   0.783   8.898
 2516POPC   D2A33916  16.517   0.713   8.472
 2516POPC   C3A33917  16.857   0.765   8.153
 2516POPC   C4A33918  16.744   0.571   7.769
 2516POPC   C1B33919  16.818   0.341   8.683
 2516POPC   C2B33920  16.786   0.274   8.221
 2516POPC   C3B33921  16.486   0.129   7.914
 2516POPC   C4B33922  16.771  44.953   7.659
 2517POPC   NC333923  19.637  22.392   9.529
 2517POPC   PO433924  20.076  21.904   9.518
 2517POPC   GL133925  19.978  22.224   9.179
 2517POPC   GL233926  19.626  22.267   9.036
 2517POPC   C1A33927  20.050  22.166   8.749
 2517POPC   D2A33928  19.839  21.986   8.404
 2517POPC   C3A33929  20.005  22.068   8.012
 2517POPC   C4A33930  19.824  22.150   7.659
 2517POPC   C1B33931  19.486  21.899   8.809
 2517POPC   C2B33932  19.355  21.787   8.388
 2517POPC   C3B33933  19.546  21.823   7.957
 2517POPC   C4B33934  19.506  21.832   7.442
 2518POPC   NC333935   5.803   9.301   9.619
 2518POPC   PO433936   5.157   9.381   9.395
 2518POPC   GL133937   5.383   9.581   9.089
 2518POPC   GL233938   5.356   9.916   9.144
 2518POPC   C1A33939   5.268   9.741   8.663
 2518POPC   D2A33940   4.887   9.765   8.387
 2518POPC   C3A33941   4.872   9.574   7.966
 2518POPC   C4A33942   5.092   9.814   7.615
 2518POPC   C1B33943   5.382  10.226   8.791
 2518POPC   C2B33944   5.228  10.181   8.354
 2518POPC   C3B33945   5.410  10.053   7.935
 2518POPC   C4B33946   5.453  10.103   7.438
 2519POPC   NC333947  26.791  12.745   9.620
 2519POPC   PO433948  27.385  12.570   9.497
 2519POPC   GL133949  27.040  12.628   9.187
 2519POPC   GL233950  26.828  12.983   9.162
 2519POPC   C1A33951  26.932  12.692   8.753
 2519POPC   D2A33952  26.959  13.060   8.463
 2519POPC   C3A33953  26.769  12.918   8.122
 2519POPC   C4A33954  27.017  12.636   7.851
 2519POPC   C1B33955  26.594  13.167   8.785
 2519POPC   C2B33956  26.531  13.361   8.358
 2519POPC   C3B33957  26.464  13.309   7.921
 2519POPC   C4B33958  26.468  13.064   7.571
 2520POPC   NC333959   8.775  10.741   9.454
 2520POPC   PO433960   9.424  10.529   9.456
 2520POPC   GL133961   9.153  10.504   9.142
 2520POPC   GL233962   8.938  10.241   9.199
 2520POPC   C1A33963   8.933  10.625   8.777
 2520POPC   D2A33964   9.076  10.751   8.364
 2520POPC   C3A33965   8.906  10.573   7.966
 2520POPC   C4A33966   8.590  10.709   7.616
 2520POPC   C1B33967   9.133  10.154   8.768
 2520POPC   C2B33968   9.028  10.245   8.353
 2520POPC   C3B33969   9.092  10.101   7.934
 2520POPC   C4B33970   9.358  10.108   7.618
 2521POPC   NC333971  12.319  15.063   9.560
 2521POPC   PO433972  11.641  15.317   9.572
 2521POPC   GL133973  11.853  15.096   9.240
 2521POPC   GL233974  12.019  15.373   9.092
 2521POPC   C1A33975  12.097  14.915   8.865
 2521POPC   D2A33976  12.227  14.771   8.443
 2521POPC   C3A33977  11.966  14.885   8.085
 2521POPC   C4A33978  11.927  14.940   7.632
 2521POPC   C1B33979  12.200  15.499   8.705
 2521POPC   C2B33980  12.371  15.260   8.353
 2521POPC   C3B33981  12.327  15.199   7.903
 2521POPC   C4B33982  12.293  15.502   7.594
 2522POPC   NC333983   5.217  29.582   9.493
 2522POPC   PO433984   5.438  30.286   9.506
 2522POPC   GL133985   5.163  30.073   9.166
 2522POPC   GL233986   5.052  29.747   9.074
 2522POPC   C1A33987   5.187  30.014   8.690
 2522POPC   D2A33988   5.357  30.075   8.304
 2522POPC   C3A33989   5.012  30.203   8.031
 2522POPC   C4A33990   4.960  30.208   7.602
 2522POPC   C1B33991   5.342  29.520   8.835
 2522POPC   C2B33992   5.336  29.547   8.405
 2522POPC   C3B33993   5.048  29.715   8.129
 2522POPC   C4B33994   4.948  29.675   7.699
 2523POPC   NC333995  29.347   9.329   9.611
 2523POPC   PO433996  29.052   8.725   9.475
 2523POPC   GL133997  28.985   8.839   9.081
 2523POPC   GL233998  29.056   9.176   9.182
 2523POPC   C1A33999  29.029   9.036   8.678
 2523POPC   D2A34000  28.773   9.156   8.321
 2523POPC   C3A34001  28.846   8.978   7.900
 2523POPC   C4A34002  28.746   8.699   7.513
 2523POPC   C1B34003  29.389   9.334   8.925
 2523POPC   C2B34004  29.460   9.313   8.505
 2523POPC   C3B34005  29.233   9.331   8.151
 2523POPC   C4B34006  29.468   9.296   7.792
 2524POPC   NC334007  32.414  12.194   9.456
 2524POPC   PO434008  31.777  11.906   9.482
 2524POPC   GL134009  31.999  12.118   9.158
 2524POPC   GL234010  32.226  11.890   9.110
 2524POPC   C1A34011  32.210  12.291   8.787
 2524POPC   D2A34012  32.503  12.342   8.459
 2524POPC   C3A34013  32.305  12.290   8.071
 2524POPC   C4A34014  32.330  12.529   7.689
 2524POPC   C1B34015  32.188  11.741   8.745
 2524POPC   C2B34016  32.197  11.904   8.380
 2524POPC   C3B34017  32.060  11.817   7.979
 2524POPC   C4B34018  31.980  12.128   7.702
 2525POPC   NC334019   4.586  15.552   9.903
 2525POPC   PO434020   4.146  15.216   9.459
 2525POPC   GL134021   4.224  14.983   9.069
 2525POPC   GL234022   3.864  14.985   9.044
 2525POPC   C1A34023   4.366  15.063   8.646
 2525POPC   D2A34024   4.403  15.452   8.382
 2525POPC   C3A34025   4.437  15.348   7.940
 2525POPC   C4A34026   4.376  14.947   7.704
 2525POPC   C1B34027   3.994  15.381   8.801
 2525POPC   C2B34028   3.893  15.540   8.364
 2525POPC   C3B34029   3.941  15.505   7.922
 2525POPC   C4B34030   3.874  15.100   7.802
 2526POPC   NC334031   0.006  31.655   9.912
 2526POPC   PO434032  44.546  31.186   9.648
 2526POPC   GL134033  44.681  31.415   9.250
 2526POPC   GL234034   0.022  31.541   9.204
 2526POPC   C1A34035  44.689  31.398   8.778
 2526POPC   D2A34036  44.766  31.206   8.359
 2526POPC   C3A34037  44.746  31.450   7.998
 2526POPC   C4A34038  44.574  31.428   7.588
 2526POPC   C1B34039   0.027  31.772   8.818
 2526POPC   C2B34040  44.841  31.770   8.388
 2526POPC   C3B34041  44.869  31.955   7.967
 2526POPC   C4B34042   0.030  31.660   7.618
 2527POPC   NC334043  23.728  31.799   9.550
 2527POPC   PO434044  23.249  32.105   9.863
 2527POPC   GL134045  23.466  32.216   9.383
 2527POPC   GL234046  23.825  32.331   9.326
 2527POPC   C1A34047  23.484  32.409   8.929
 2527POPC   D2A34048  23.750  32.541   8.551
 2527POPC   C3A34049  23.601  32.496   8.121
 2527POPC   C4A34050  23.603  32.143   7.822
 2527POPC   C1B34051  23.877  32.073   8.931
 2527POPC   C2B34052  23.865  31.992   8.485
 2527POPC   C3B34053  24.047  32.282   8.184
 2527POPC   C4B34054  24.036  32.413   7.759
 2528POPC   NC334055  20.689  19.543   9.524
 2528POPC   PO434056  20.777  20.157   9.666
 2528POPC   GL134057  20.651  20.049   9.198
 2528POPC   GL234058  20.626  19.693   9.059
 2528POPC   C1A34059  20.827  20.051   8.776
 2528POPC   D2A34060  20.712  19.721   8.469
 2528POPC   C3A34061  20.809  19.851   8.065
 2528POPC   C4A34062  20.503  20.087   7.885
 2528POPC   C1B34063  20.306  19.775   8.780
 2528POPC   C2B34064  20.135  19.567   8.425
 2528POPC   C3B34065  20.392  19.506   8.083
 2528POPC   C4B34066  20.534  19.589   7.682
 2529POPC   NC334067  38.117  15.254   9.817
 2529POPC   PO434068  37.692  14.887   9.526
 2529POPC   GL134069  37.690  15.221   9.230
 2529POPC   GL234070  37.361  15.367   9.216
 2529POPC   C1A34071  37.729  15.278   8.774
 2529POPC   D2A34072  37.571  15.436   8.405
 2529POPC   C3A34073  37.773  15.331   8.037
 2529POPC   C4A34074  37.919  15.303   7.653
 2529POPC   C1B34075  37.280  15.057   8.891
 2529POPC   C2B34076  37.187  15.020   8.478
 2529POPC   C3B34077  37.308  15.096   8.074
 2529POPC   C4B34078  37.452  15.059   7.689
 2530POPC   NC334079  29.526  34.378   9.489
 2530POPC   PO434080  28.989  34.709   9.539
 2530POPC   GL134081  29.045  34.801   9.136
 2530POPC   GL234082  29.399  34.743   9.123
 2530POPC   C1A34083  28.971  34.755   8.697
 2530POPC   D2A34084  29.049  34.420   8.394
 2530POPC   C3A34085  29.014  34.577   7.973
 2530POPC   C4A34086  28.652  34.630   7.667
 2530POPC   C1B34087  29.478  34.839   8.721
 2530POPC   C2B34088  29.399  34.773   8.296
 2530POPC   C3B34089  29.512  34.798   7.899
 2530POPC   C4B34090  29.518  34.426   7.674
 2531POPC   NC334091  15.680  42.947   9.511
 2531POPC   PO434092  16.309  43.245   9.438
 2531POPC   GL134093  16.131  43.169   9.063
 2531POPC   GL234094  15.958  42.881   9.084
 2531POPC   C1A34095  15.744  43.271   8.769
 2531POPC   D2A34096  15.722  43.131   8.315
 2531POPC   C3A34097  15.974  43.275   7.959
 2531POPC   C4A34098  15.893  43.267   7.513
 2531POPC   C1B34099  16.067  42.888   8.647
 2531POPC   C2B34100  16.036  42.709   8.260
 2531POPC   C3B34101  15.870  42.789   7.874
 2531POPC   C4B34102  16.208  42.820   7.540
 2532POPC   NC334103  21.718   8.185   9.592
 2532POPC   PO434104  22.331   8.541   9.727
 2532POPC   GL134105  22.077   8.277   9.263
 2532POPC   GL234106  22.147   7.977   9.137
 2532POPC   C1A34107  22.048   8.321   8.807
 2532POPC   D2A34108  22.153   8.010   8.526
 2532POPC   C3A34109  22.319   8.154   8.148
 2532POPC   C4A34110  22.329   8.437   7.786
 2532POPC   C1B34111  21.824   7.739   8.955
 2532POPC   C2B34112  21.786   7.667   8.517
 2532POPC   C3B34113  21.752   8.003   8.193
 2532POPC   C4B34114  21.966   8.074   7.800
 2533POPC   NC334115  39.525   4.839   9.471
 2533POPC   PO434116  38.865   4.966   9.597
 2533POPC   GL134117  39.090   4.982   9.179
 2533POPC   GL234118  39.212   4.634   9.110
 2533POPC   C1A34119  39.180   5.206   8.772
 2533POPC   D2A34120  39.046   5.534   8.472
 2533POPC   C3A34121  39.020   5.431   8.034
 2533POPC   C4A34122  39.223   5.208   7.710
 2533POPC   C1B34123  39.375   4.604   8.690
 2533POPC   C2B34124  39.120   4.680   8.334
 2533POPC   C3B34125  39.117   4.740   7.906
 2533POPC   C4B34126  39.391   4.764   7.548
 2534POPC   NC334127   2.987  43.173   9.395
 2534POPC   PO434128   2.289  43.086   9.488
 2534POPC   GL134129   2.544  42.923   9.190
 2534POPC   GL234130   2.545  43.219   9.033
 2534POPC   C1A34131   2.737  42.782   8.790
 2534POPC   D2A34132   2.765  42.963   8.360
 2534POPC   C3A34133   2.893  42.855   7.932
 2534POPC   C4A34134   2.754  43.079   7.545
 2534POPC   C1B34135   2.887  43.303   8.759
 2534POPC   C2B34136   2.880  43.473   8.371
 2534POPC   C3B34137   2.720  43.348   7.972
 2534POPC   C4B34138   2.454  43.529   7.619
 2535POPC   NC334139  12.209   2.932   9.341
 2535POPC   PO434140  11.743   2.638   9.748
 2535POPC   GL134141  11.798   2.643   9.253
 2535POPC   GL234142  12.089   2.473   9.162
 2535POPC   C1A34143  11.841   2.724   8.762
 2535POPC   D2A34144  11.758   2.935   8.328
 2535POPC   C3A34145  11.942   2.782   7.923
 2535POPC   C4A34146  12.001   2.987   7.521
 2535POPC   C1B34147  12.284   2.428   8.763
 2535POPC   C2B34148  12.114   2.509   8.355
 2535POPC   C3B34149  12.330   2.455   7.960
 2535POPC   C4B34150  12.467   2.795   7.690
 2536POPC   NC334151  23.662  23.499   9.560
 2536POPC   PO434152  24.227  23.835   9.449
 2536POPC   GL134153  23.973  23.734   9.031
 2536POPC   GL234154  23.605  23.724   9.070
 2536POPC   C1A34155  23.749  23.706   8.586
 2536POPC   D2A34156  23.433  23.851   8.251
 2536POPC   C3A34157  23.650  23.997   7.857
 2536POPC   C4A34158  23.909  23.747   7.532
 2536POPC   C1B34159  23.361  23.433   8.798
 2536POPC   C2B34160  23.483  23.314   8.363
 2536POPC   C3B34161  23.666  23.482   7.976
 2536POPC   C4B34162  23.395  23.578   7.633
 2537POPC   NC334163   3.489  32.352   9.649
 2537POPC   PO434164   2.809  32.375   9.569
 2537POPC   GL134165   3.207  32.310   9.240
 2537POPC   GL234166   3.470  32.527   9.187
 2537POPC   C1A34167   3.468  32.119   8.885
 2537POPC   D2A34168   3.603  31.977   8.470
 2537POPC   C3A34169   3.359  32.052   8.105
 2537POPC   C4A34170   3.586  32.134   7.754
 2537POPC   C1B34171   3.407  32.657   8.813
 2537POPC   C2B34172   3.366  32.428   8.464
 2537POPC   C3B34173   3.563  32.506   8.104
 2537POPC   C4B34174   3.495  32.706   7.755
 2538POPC   NC334175  31.230  42.729   9.528
 2538POPC   PO434176  31.112  43.421   9.528
 2538POPC   GL134177  31.299  43.371   9.155
 2538POPC   GL234178  31.545  43.097   9.217
 2538POPC   C1A34179  31.293  43.174   8.779
 2538POPC   D2A34180  31.144  43.187   8.398
 2538POPC   C3A34181  31.342  43.178   8.011
 2538POPC   C4A34182  31.367  43.540   7.762
 2538POPC   C1B34183  31.612  42.776   8.875
 2538POPC   C2B34184  31.671  42.689   8.442
 2538POPC   C3B34185  31.763  42.871   8.023
 2538POPC   C4B34186  31.557  42.870   7.636
 2539POPC   NC334187  11.215  10.865   9.898
 2539POPC   PO434188  11.697  11.294   9.599
 2539POPC   GL134189  11.320  11.266   9.293
 2539POPC   GL234190  11.207  10.922   9.363
 2539POPC   C1A34191  11.122  11.381   8.868
 2539POPC   D2A34192  11.421  11.391   8.502
 2539POPC   C3A34193  11.248  11.349   8.096
 2539POPC   C4A34194  11.537  11.286   7.754
 2539POPC   C1B34195  11.031  10.869   8.925
 2539POPC   C2B34196  11.008  11.022   8.494
 2539POPC   C3B34197  10.957  10.933   8.052
 2539POPC   C4B34198  11.049  11.171   7.649
 2540POPC   NC334199  24.044  21.783   9.203
 2540POPC   PO434200  23.750  21.405   9.685
 2540POPC   GL134201  23.707  21.269   9.221
 2540POPC   GL234202  24.025  21.049   9.123
 2540POPC   C1A34203  23.482  21.414   8.802
 2540POPC   D2A34204  23.528  21.595   8.339
 2540POPC   C3A34205  23.645  21.365   7.984
 2540POPC   C4A34206  23.415  21.068   7.742
 2540POPC   C1B34207  23.960  21.264   8.772
 2540POPC   C2B34208  24.016  21.430   8.400
 2540POPC   C3B34209  24.140  21.563   8.009
 2540POPC   C4B34210  23.989  21.553   7.589
 2541POPC   NC334211  21.434  22.914   9.501
 2541POPC   PO434212  20.844  23.194   9.305
 2541POPC   GL134213  21.197  23.082   9.058
 2541POPC   GL234214  21.503  23.224   9.106
 2541POPC   C1A34215  21.410  22.866   8.730
 2541POPC   D2A34216  21.215  22.748   8.345
 2541POPC   C3A34217  21.340  22.868   7.931
 2541POPC   C4A34218  21.479  22.643   7.570
 2541POPC   C1B34219  21.590  23.345   8.714
 2541POPC   C2B34220  21.637  23.154   8.340
 2541POPC   C3B34221  21.600  23.305   7.941
 2541POPC   C4B34222  21.282  23.286   7.615
 2542POPC   NC334223   4.064  10.219   9.631
 2542POPC   PO434224   4.691  10.218   9.577
 2542POPC   GL134225   4.542  10.410   9.203
 2542POPC   GL234226   4.190  10.480   9.173
 2542POPC   C1A34227   4.641  10.606   8.800
 2542POPC   D2A34228   4.340  10.661   8.447
 2542POPC   C3A34229   4.393  10.876   8.052
 2542POPC   C4A34230   4.263  10.843   7.639
 2542POPC   C1B34231   4.269  10.243   8.777
 2542POPC   C2B34232   4.160  10.197   8.327
 2542POPC   C3B34233   4.239  10.388   7.927
 2542POPC   C4B34234   4.228  10.354   7.474
 2543POPC   NC334235  34.489  16.291   9.492
 2543POPC   PO434236  34.511  15.687   9.280
 2543POPC   GL134237  34.422  16.028   9.045
 2543POPC   GL234238  34.792  16.169   9.090
 2543POPC   C1A34239  34.145  15.923   8.696
 2543POPC   D2A34240  34.188  15.897   8.251
 2543POPC   C3A34241  34.579  15.936   8.081
 2543POPC   C4A34242  34.678  15.716   7.701
 2543POPC   C1B34243  34.674  16.331   8.690
 2543POPC   C2B34244  34.695  16.503   8.288
 2543POPC   C3B34245  34.827  16.337   7.918
 2543POPC   C4B34246  34.552  16.203   7.585
 2544POPC   NC334247  29.495  36.842   9.810
 2544POPC   PO434248  28.980  37.149   9.478
 2544POPC   GL134249  29.017  36.841   9.170
 2544POPC   GL234250  29.375  36.638   9.170
 2544POPC   C1A34251  29.012  37.100   8.768
 2544POPC   D2A34252  28.962  36.933   8.368
 2544POPC   C3A34253  29.144  37.079   8.004
 2544POPC   C4A34254  28.940  37.099   7.593
 2544POPC   C1B34255  29.207  36.642   8.744
 2544POPC   C2B34256  29.275  36.510   8.326
 2544POPC   C3B34257  29.023  36.583   7.972
 2544POPC   C4B34258  29.323  36.549   7.707
 2545POPC   NC334259  27.952  13.471   9.598
 2545POPC   PO434260  28.530  13.848   9.557
 2545POPC   GL134261  28.470  13.769   9.165
 2545POPC   GL234262  28.199  13.595   9.170
 2545POPC   C1A34263  28.532  13.654   8.736
 2545POPC   D2A34264  28.310  13.609   8.368
 2545POPC   C3A34265  28.544  13.519   8.045
 2545POPC   C4A34266  28.343  13.674   7.694
 2545POPC   C1B34267  28.083  13.914   8.835
 2545POPC   C2B34268  28.016  14.036   8.387
 2545POPC   C3B34269  27.934  13.870   7.955
 2545POPC   C4B34270  27.862  13.578   7.594
 2546POPC   NC334271  28.965   3.582   9.351
 2546POPC   PO434272  29.635   3.697   9.507
 2546POPC   GL134273  29.466   3.631   9.083
 2546POPC   GL234274  29.263   3.331   8.996
 2546POPC   C1A34275  29.547   3.547   8.633
 2546POPC   D2A34276  29.366   3.242   8.351
 2546POPC   C3A34277  29.144   3.356   7.987
 2546POPC   C4A34278  29.218   3.251   7.545
 2546POPC   C1B34279  28.960   3.371   8.629
 2546POPC   C2B34280  28.689   3.325   8.226
 2546POPC   C3B34281  28.689   3.344   7.766
 2546POPC   C4B34282  28.937   3.664   7.562
 2547POPC   NC334283  34.889  42.757   9.533
 2547POPC   PO434284  35.076  42.049   9.414
 2547POPC   GL134285  34.791  42.339   9.154
 2547POPC   GL234286  34.422  42.291   9.213
 2547POPC   C1A34287  34.798  42.443   8.700
 2547POPC   D2A34288  34.853  42.224   8.292
 2547POPC   C3A34289  34.810  42.355   7.855
 2547POPC   C4A34290  34.829  42.169   7.415
 2547POPC   C1B34291  34.300  42.399   8.803
 2547POPC   C2B34292  34.310  42.496   8.361
 2547POPC   C3B34293  34.269  42.318   7.951
 2547POPC   C4B34294  34.414  42.420   7.512
 2548POPC   NC334295   0.675  43.482   9.442
 2548POPC   PO434296   0.017  43.333   9.605
 2548POPC   GL134297   0.156  43.312   9.206
 2548POPC   GL234298   0.364  42.993   9.197
 2548POPC   C1A34299   0.260  43.372   8.787
 2548POPC   D2A34300   0.327  43.097   8.431
 2548POPC   C3A34301   0.510  43.260   8.075
 2548POPC   C4A34302   0.377  43.561   7.819
 2548POPC   C1B34303   0.666  42.989   8.832
 2548POPC   C2B34304   0.797  42.912   8.385
 2548POPC   C3B34305   0.635  42.737   7.997
 2548POPC   C4B34306   0.453  42.958   7.677
 2549POPC   NC334307  20.488  16.434   9.484
 2549POPC   PO434308  20.802  16.995   9.239
 2549POPC   GL134309  20.385  16.850   9.058
 2549POPC   GL234310  20.288  16.482   9.033
 2549POPC   C1A34311  20.416  16.817   8.601
 2549POPC   D2A34312  20.629  16.649   8.271
 2549POPC   C3A34313  20.581  16.809   7.909
 2549POPC   C4A34314  20.554  16.776   7.498
 2549POPC   C1B34315  20.417  16.292   8.639
 2549POPC   C2B34316  20.381  16.218   8.180
 2549POPC   C3B34317  20.584  16.311   7.753
 2549POPC   C4B34318  20.406  16.327   7.293
 2550POPC   NC334319  19.440  10.146   9.528
 2550POPC   PO434320  19.101  10.680   9.735
 2550POPC   GL134321  19.102  10.503   9.330
 2550POPC   GL234322  19.405  10.651   9.308
 2550POPC   C1A34323  18.849  10.465   8.937
 2550POPC   D2A34324  19.023  10.486   8.504
 2550POPC   C3A34325  18.947  10.439   8.075
 2550POPC   C4A34326  18.884  10.386   7.629
 2550POPC   C1B34327  19.369  10.456   8.900
 2550POPC   C2B34328  19.486  10.252   8.508
 2550POPC   C3B34329  19.463  10.460   8.133
 2550POPC   C4B34330  19.375  10.371   7.719
 2551POPC   NC334331  21.777  11.986   9.388
 2551POPC   PO434332  22.154  12.231   9.769
 2551POPC   GL134333  22.162  12.244   9.225
 2551POPC   GL234334  21.866  12.365   9.059
 2551POPC   C1A34335  22.201  12.232   8.731
 2551POPC   D2A34336  22.142  11.927   8.410
 2551POPC   C3A34337  21.999  12.135   8.042
 2551POPC   C4A34338  22.203  12.189   7.648
 2551POPC   C1B34339  21.844  12.617   8.706
 2551POPC   C2B34340  22.031  12.578   8.323
 2551POPC   C3B34341  22.154  12.605   7.913
 2551POPC   C4B34342  22.342  12.653   7.468
 2552POPC   NC334343  38.450  38.754   9.565
 2552POPC   PO434344  38.028  38.230   9.778
 2552POPC   GL134345  38.175  38.355   9.331
 2552POPC   GL234346  38.559  38.336   9.294
 2552POPC   C1A34347  38.155  38.381   8.858
 2552POPC   D2A34348  38.045  38.160   8.459
 2552POPC   C3A34349  38.228  38.358   8.100
 2552POPC   C4A34350  38.119  38.242   7.698
 2552POPC   C1B34351  38.717  38.321   8.884
 2552POPC   C2B34352  38.570  38.528   8.505
 2552POPC   C3B34353  38.750  38.524   8.098
 2552POPC   C4B34354  38.726  38.692   7.695
 2553POPC   NC334355   3.836  33.154   9.581
 2553POPC   PO434356   3.318  32.788   9.590
 2553POPC   GL134357   3.409  33.032   9.184
 2553POPC   GL234358   3.729  32.972   9.124
 2553POPC   C1A34359   3.447  33.167   8.740
 2553POPC   D2A34360   3.455  32.929   8.374
 2553POPC   C3A34361   3.306  33.100   8.001
 2553POPC   C4A34362   3.536  33.334   7.726
 2553POPC   C1B34363   3.899  32.888   8.746
 2553POPC   C2B34364   4.024  33.072   8.386
 2553POPC   C3B34365   3.835  32.970   8.027
 2553POPC   C4B34366   3.935  32.929   7.627
 2554POPC   NC334367   5.512  29.091   9.698
 2554POPC   PO434368   6.114  28.867   9.434
 2554POPC   GL134369   5.874  29.117   9.143
 2554POPC   GL234370   5.550  29.155   9.145
 2554POPC   C1A34371   5.824  29.335   8.753
 2554POPC   D2A34372   5.902  29.152   8.332
 2554POPC   C3A34373   5.752  29.312   7.971
 2554POPC   C4A34374   5.858  29.328   7.547
 2554POPC   C1B34375   5.607  28.870   8.748
 2554POPC   C2B34376   5.767  28.660   8.355
 2554POPC   C3B34377   5.838  28.774   7.923
 2554POPC   C4B34378   5.523  28.957   7.681
 2555POPC   NC334379  29.693  15.522   9.421
 2555POPC   PO434380  30.116  14.999   9.406
 2555POPC   GL134381  29.901  14.982   9.034
 2555POPC   GL234382  29.869  15.333   8.979
 2555POPC   C1A34383  30.127  14.985   8.655
 2555POPC   D2A34384  30.121  15.148   8.254
 2555POPC   C3A34385  29.788  15.048   7.982
 2555POPC   C4A34386  29.923  14.779   7.694
 2555POPC   C1B34387  29.965  15.544   8.589
 2555POPC   C2B34388  29.794  15.538   8.168
 2555POPC   C3B34389  29.929  15.500   7.729
 2555POPC   C4B34390  29.689  15.484   7.322
 2556POPC   NC334391  34.192  13.998   9.309
 2556POPC   PO434392  33.787  13.693   9.743
 2556POPC   GL134393  33.902  13.591   9.274
 2556POPC   GL234394  33.703  13.835   9.228
 2556POPC   C1A34395  33.859  13.393   8.853
 2556POPC   D2A34396  33.566  13.391   8.487
 2556POPC   C3A34397  33.753  13.473   8.092
 2556POPC   C4A34398  33.582  13.459   7.723
 2556POPC   C1B34399  33.645  13.860   8.812
 2556POPC   C2B34400  33.844  13.861   8.442
 2556POPC   C3B34401  33.748  13.965   8.043
 2556POPC   C4B34402  33.892  13.872   7.689
 2557POPC   NC334403  28.690   0.244   9.537
 2557POPC   PO434404  28.428   0.893   9.621
 2557POPC   GL134405  28.415   0.584   9.221
 2557POPC   GL234406  28.545   0.221   9.064
 2557POPC   C1A34407  28.503   0.612   8.760
 2557POPC   D2A34408  28.285   0.724   8.392
 2557POPC   C3A34409  28.467   0.631   8.035
 2557POPC   C4A34410  28.125   0.583   7.754
 2557POPC   C1B34411  28.215   0.082   8.784
 2557POPC   C2B34412  28.071  44.975   8.378
 2557POPC   C3B34413  28.253   0.160   8.016
 2557POPC   C4B34414  28.680   0.226   7.822
 2558POPC   NC334415  36.723  43.971   9.440
 2558POPC   PO434416  36.033  43.695   9.474
 2558POPC   GL134417  35.954  43.871   9.103
 2558POPC   GL234418  35.938  44.264   9.145
 2558POPC   C1A34419  35.844  43.675   8.727
 2558POPC   D2A34420  36.090  43.798   8.397
 2558POPC   C3A34421  35.899  43.808   8.029
 2558POPC   C4A34422  36.113  43.755   7.645
 2558POPC   C1B34423  36.011  44.212   8.710
 2558POPC   C2B34424  35.972  44.344   8.280
 2558POPC   C3B34425  36.090  44.259   7.852
 2558POPC   C4B34426  36.074  44.207   7.407
 2559POPC   NC334427  22.677   4.194   9.568
 2559POPC   PO434428  23.318   4.478   9.584
 2559POPC   GL134429  23.127   4.296   9.208
 2559POPC   GL234430  22.760   4.306   9.087
 2559POPC   C1A34431  23.194   4.174   8.789
 2559POPC   D2A34432  23.063   3.989   8.428
 2559POPC   C3A34433  23.154   4.255   8.128
 2559POPC   C4A34434  22.866   4.246   7.762
 2559POPC   C1B34435  22.715   4.328   8.641
 2559POPC   C2B34436  22.645   4.280   8.234
 2559POPC   C3B34437  22.440   4.526   7.966
 2559POPC   C4B34438  22.613   4.695   7.625
 2560POPC   NC334439   4.196  24.078   9.432
 2560POPC   PO434440   4.436  24.674   9.263
 2560POPC   GL134441   4.418  24.501   8.926
 2560POPC   GL234442   4.452  24.164   9.006
 2560POPC   C1A34443   4.227  24.690   8.621
 2560POPC   D2A34444   4.097  24.825   8.281
 2560POPC   C3A34445   4.203  24.584   7.947
 2560POPC   C4A34446   4.529  24.324   7.827
 2560POPC   C1B34447   4.111  24.165   8.720
 2560POPC   C2B34448   4.276  24.250   8.334
 2560POPC   C3B34449   4.232  23.965   8.018
 2560POPC   C4B34450   3.933  24.134   7.805
 2561POPC   NC334451   5.881  38.827   9.677
 2561POPC   PO434452   5.730  39.468   9.582
 2561POPC   GL134453   5.742  39.208   9.220
 2561POPC   GL234454   6.072  39.065   9.220
 2561POPC   C1A34455   5.622  39.238   8.790
 2561POPC   D2A34456   5.465  38.955   8.511
 2561POPC   C3A34457   5.444  39.173   8.159
 2561POPC   C4A34458   5.627  39.128   7.750
 2561POPC   C1B34459   6.112  39.132   8.761
 2561POPC   C2B34460   5.941  39.098   8.322
 2561POPC   C3B34461   6.083  38.980   7.887
 2561POPC   C4B34462   5.982  38.819   7.465
 2562POPC   NC334463  24.371   1.487   9.461
 2562POPC   PO434464  24.681   0.991   9.760
 2562POPC   GL134465  24.544   1.040   9.257
 2562POPC   GL234466  24.710   1.327   9.095
 2562POPC   C1A34467  24.288   1.242   8.844
 2562POPC   D2A34468  24.403   1.474   8.479
 2562POPC   C3A34469  24.251   1.341   8.080
 2562POPC   C4A34470  24.001   1.127   7.745
 2562POPC   C1B34471  24.747   1.024   8.763
 2562POPC   C2B34472  24.784   1.120   8.343
 2562POPC   C3B34473  24.769   1.454   8.061
 2562POPC   C4B34474  24.651   1.285   7.710
 2563POPC   NC334475  11.868  10.796   9.586
 2563POPC   PO434476  11.858  10.138   9.406
 2563POPC   GL134477  11.997  10.418   9.053
 2563POPC   GL234478  12.150  10.713   9.094
 2563POPC   C1A34479  12.137  10.486   8.636
 2563POPC   D2A34480  11.889  10.542   8.264
 2563POPC   C3A34481  12.178  10.543   7.915
 2563POPC   C4A34482  12.021  10.397   7.496
 2563POPC   C1B34483  11.974  10.956   8.749
 2563POPC   C2B34484  12.106  10.997   8.324
 2563POPC   C3B34485  12.050  11.049   7.903
 2563POPC   C4B34486  12.248  10.858   7.514
 2564POPC   NC334487  44.174  31.101   9.933
 2564POPC   PO434488  44.079  30.548   9.604
 2564POPC   GL134489  44.063  30.506   9.146
 2564POPC   GL234490  43.847  30.798   9.104
 2564POPC   C1A34491  43.917  30.440   8.704
 2564POPC   D2A34492  43.820  30.875   8.498
 2564POPC   C3A34493  43.931  30.955   8.048
 2564POPC   C4A34494  44.030  30.624   7.742
 2564POPC   C1B34495  43.496  30.651   8.860
 2564POPC   C2B34496  43.457  30.500   8.434
 2564POPC   C3B34497  43.586  30.553   8.007
 2564POPC   C4B34498  43.602  30.468   7.546
 2565POPC   NC334499  35.359  38.279   9.386
 2565POPC   PO434500  35.752  38.852   9.445
 2565POPC   GL134501  35.462  38.714   9.124
 2565POPC   GL234502  35.115  38.714   9.214
 2565POPC   C1A34503  35.393  38.502   8.750
 2565POPC   D2A34504  35.138  38.288   8.486
 2565POPC   C3A34505  35.333  38.386   8.112
 2565POPC   C4A34506  35.341  38.314   7.706
 2565POPC   C1B34507  35.041  38.865   8.791
 2565POPC   C2B34508  35.174  38.819   8.355
 2565POPC   C3B34509  34.873  38.579   8.113
 2565POPC   C4B34510  34.817  38.453   7.721
 2566POPC   NC334511   1.142  44.156   9.402
 2566POPC   PO434512   1.586  43.701   9.135
 2566POPC   GL134513   1.223  43.889   8.942
 2566POPC   GL234514   0.985  43.727   9.103
 2566POPC   C1A34515   1.054  43.946   8.522
 2566POPC   D2A34516   1.447  43.981   8.283
 2566POPC   C3A34517   1.436  43.967   7.869
 2566POPC   C4A34518   1.187  44.074   7.551
 2566POPC   C1B34519   0.838  43.473   8.784
 2566POPC   C2B34520   0.867  43.444   8.376
 2566POPC   C3B34521   1.137  43.603   8.092
 2566POPC   C4B34522   1.283  43.476   7.705
 2567POPC   NC334523  32.660  32.455   9.491
 2567POPC   PO434524  33.124  31.967   9.488
 2567POPC   GL134525  32.869  32.111   9.154
 2567POPC   GL234526  32.807  31.798   8.991
 2567POPC   C1A34527  32.984  32.322   8.761
 2567POPC   D2A34528  32.795  32.428   8.373
 2567POPC   C3A34529  32.917  32.231   7.968
 2567POPC   C4A34530  32.754  32.334   7.577
 2567POPC   C1B34531  33.156  31.839   8.704
 2567POPC   C2B34532  33.240  32.088   8.346
 2567POPC   C3B34533  33.424  32.230   7.954
 2567POPC   C4B34534  33.310  32.020   7.622
 2568POPC   NC334535   7.141  16.881   9.501
 2568POPC   PO434536   7.830  16.630   9.559
 2568POPC   GL134537   7.547  16.744   9.207
 2568POPC   GL234538   7.373  16.435   9.176
 2568POPC   C1A34539   7.188  16.751   8.844
 2568POPC   D2A34540   7.133  16.456   8.463
 2568POPC   C3A34541   7.212  16.672   8.073
 2568POPC   C4A34542   7.376  17.009   7.817
 2568POPC   C1B34543   7.639  16.555   8.748
 2568POPC   C2B34544   7.688  16.822   8.364
 2568POPC   C3B34545   7.717  16.649   7.952
 2568POPC   C4B34546   7.453  16.534   7.634
 2569POPC   NC334547  25.026  22.581   9.607
 2569POPC   PO434548  24.540  23.050   9.500
 2569POPC   GL134549  24.609  22.748   9.198
 2569POPC   GL234550  24.927  22.804   9.157
 2569POPC   C1A34551  24.489  22.861   8.782
 2569POPC   D2A34552  24.277  22.808   8.411
 2569POPC   C3A34553  24.514  22.792   8.082
 2569POPC   C4A34554  24.412  23.023   7.730
 2569POPC   C1B34555  24.965  23.014   8.786
 2569POPC   C2B34556  24.961  22.834   8.402
 2569POPC   C3B34557  24.972  22.988   7.986
 2569POPC   C4B34558  24.843  22.772   7.632
 2570POPC   NC334559  26.974  24.188   9.511
 2570POPC   PO434560  27.256  24.784   9.440
 2570POPC   GL134561  27.063  24.516   9.108
 2570POPC   GL234562  26.712  24.407   9.128
 2570POPC   C1A34563  26.901  24.527   8.676
 2570POPC   D2A34564  26.725  24.802   8.339
 2570POPC   C3A34565  26.857  24.654   7.925
 2570POPC   C4A34566  26.652  24.474   7.572
 2570POPC   C1B34567  26.508  24.165   8.757
 2570POPC   C2B34568  26.410  24.183   8.297
 2570POPC   C3B34569  26.378  24.138   7.835
 2570POPC   C4B34570  26.373  24.075   7.367
 2571POPC   NC334571  14.115  44.227   9.457
 2571POPC   PO434572  14.629  43.689   9.528
 2571POPC   GL134573  14.381  43.824   9.218
 2571POPC   GL234574  14.572  44.102   9.188
 2571POPC   C1A34575  14.213  43.926   8.819
 2571POPC   D2A34576  14.379  44.119   8.460
 2571POPC   C3A34577  14.268  43.990   8.082
 2571POPC   C4A34578  14.237  43.852   7.698
 2571POPC   C1B34579  14.711  44.278   8.805
 2571POPC   C2B34580  14.790  44.395   8.351
 2571POPC   C3B34581  14.713  44.185   7.932
 2571POPC   C4B34582  14.639  44.071   7.481
 2572POPC   NC334583   4.966  38.381   9.685
 2572POPC   PO434584   5.512  38.715   9.437
 2572POPC   GL134585   5.416  38.471   9.127
 2572POPC   GL234586   5.055  38.504   9.177
 2572POPC   C1A34587   5.339  38.507   8.703
 2572POPC   D2A34588   5.176  38.258   8.402
 2572POPC   C3A34589   5.318  38.299   8.004
 2572POPC   C4A34590   5.116  38.473   7.654
 2572POPC   C1B34591   4.860  38.254   8.844
 2572POPC   C2B34592   4.672  38.210   8.432
 2572POPC   C3B34593   4.796  38.256   8.000
 2572POPC   C4B34594   4.660  38.035   7.614
 2573POPC   NC334595   3.939  37.780   9.869
 2573POPC   PO434596   4.573  37.828   9.629
 2573POPC   GL134597   4.341  37.595   9.319
 2573POPC   GL234598   4.623  37.377   9.198
 2573POPC   C1A34599   4.286  37.655   8.868
 2573POPC   D2A34600   4.635  37.693   8.544
 2573POPC   C3A34601   4.562  37.814   8.105
 2573POPC   C4A34602   4.147  37.732   7.924
 2573POPC   C1B34603   4.539  37.206   8.762
 2573POPC   C2B34604   4.413  37.033   8.377
 2573POPC   C3B34605   4.461  37.323   8.073
 2573POPC   C4B34606   4.543  37.527   7.656
 2574POPC   NC334607  31.024  30.502   9.445
 2574POPC   PO434608  30.328  30.332   9.423
 2574POPC   GL134609  30.593  30.554   9.138
 2574POPC   GL234610  30.689  30.857   9.217
 2574POPC   C1A34611  30.919  30.641   8.808
 2574POPC   D2A34612  30.761  30.510   8.427
 2574POPC   C3A34613  30.956  30.537   8.031
 2574POPC   C4A34614  31.023  30.959   7.928
 2574POPC   C1B34615  30.492  30.931   8.803
 2574POPC   C2B34616  30.284  30.900   8.419
 2574POPC   C3B34617  30.454  30.749   8.061
 2574POPC   C4B34618  30.579  30.936   7.715
 2575POPC   NC334619  37.998   6.107   9.383
 2575POPC   PO434620  38.563   5.790   9.563
 2575POPC   GL134621  38.565   5.778   9.142
 2575POPC   GL234622  38.218   5.796   9.019
 2575POPC   C1A34623  38.605   5.649   8.714
 2575POPC   D2A34624  38.705   5.925   8.390
 2575POPC   C3A34625  38.497   5.969   8.057
 2575POPC   C4A34626  38.447   5.766   7.684
 2575POPC   C1B34627  38.452   6.142   8.804
 2575POPC   C2B34628  38.368   6.345   8.430
 2575POPC   C3B34629  38.088   6.305   8.102
 2575POPC   C4B34630  38.165   6.239   7.690
 2576POPC   NC334631  33.872  20.757   9.524
 2576POPC   PO434632  34.377  20.290   9.543
 2576POPC   GL134633  34.077  20.457   9.188
 2576POPC   GL234634  33.953  20.818   9.046
 2576POPC   C1A34635  33.822  20.399   8.804
 2576POPC   D2A34636  33.828  20.255   8.390
 2576POPC   C3A34637  33.601  20.479   8.081
 2576POPC   C4A34638  33.557  20.769   7.743
 2576POPC   C1B34639  34.165  20.794   8.700
 2576POPC   C2B34640  34.007  20.721   8.337
 2576POPC   C3B34641  33.785  20.970   8.133
 2576POPC   C4B34642  33.932  21.137   7.770
 2577POPC   NC334643  25.662  13.040   9.407
 2577POPC   PO434644  26.349  12.911   9.589
 2577POPC   GL134645  26.245  12.789   9.216
 2577POPC   GL234646  26.524  12.561   9.165
 2577POPC   C1A34647  25.944  12.827   8.876
 2577POPC   D2A34648  25.755  12.932   8.518
 2577POPC   C3A34649  25.788  12.833   8.100
 2577POPC   C4A34650  25.955  13.062   7.731
 2577POPC   C1B34651  26.423  12.701   8.765
 2577POPC   C2B34652  26.282  12.915   8.439
 2577POPC   C3B34653  26.286  12.840   8.037
 2577POPC   C4B34654  26.528  12.609   7.779
 2578POPC   NC334655  16.931   9.490   9.602
 2578POPC   PO434656  16.378   9.810   9.610
 2578POPC   GL134657  16.707   9.890   9.282
 2578POPC   GL234658  16.703   9.554   9.162
 2578POPC   C1A34659  16.940   9.870   8.855
 2578POPC   D2A34660  16.891   9.670   8.434
 2578POPC   C3A34661  16.903   9.918   8.075
 2578POPC   C4A34662  16.809   9.834   7.659
 2578POPC   C1B34663  16.496   9.599   8.789
 2578POPC   C2B34664  16.355   9.267   8.551
 2578POPC   C3B34665  16.247   9.273   8.127
 2578POPC   C4B34666  16.484   9.570   7.928
 2579POPC   NC334667  10.460  17.789   9.664
 2579POPC   PO434668  10.630  17.167   9.693
 2579POPC   GL134669  10.589  17.438   9.267
 2579POPC   GL234670  10.807  17.732   9.227
 2579POPC   C1A34671  10.384  17.486   8.825
 2579POPC   D2A34672  10.232  17.233   8.416
 2579POPC   C3A34673  10.390  17.325   8.003
 2579POPC   C4A34674  10.396  17.652   7.719
 2579POPC   C1B34675  10.790  17.894   8.798
 2579POPC   C2B34676  10.656  17.766   8.382
 2579POPC   C3B34677  10.820  17.815   7.967
 2579POPC   C4B34678  10.800  17.859   7.509
 2580POPC   NC334679  31.516  17.830   9.580
 2580POPC   PO434680  31.669  17.197   9.367
 2580POPC   GL134681  31.394  17.427   9.060
 2580POPC   GL234682  31.299  17.764   9.103
 2580POPC   C1A34683  31.286  17.246   8.625
 2580POPC   D2A34684  31.224  17.237   8.183
 2580POPC   C3A34685  31.309  17.566   7.866
 2580POPC   C4A34686  31.389  17.429   7.445
 2580POPC   C1B34687  31.541  17.687   8.688
 2580POPC   C2B34688  31.599  17.588   8.310
 2580POPC   C3B34689  31.808  17.807   8.034
 2580POPC   C4B34690  31.742  17.763   7.631
 2581POPC   NC334691  22.160  12.629   9.540
 2581POPC   PO434692  22.786  13.087   9.490
 2581POPC   GL134693  22.356  12.981   9.244
 2581POPC   GL234694  22.293  12.692   9.016
 2581POPC   C1A34695  21.977  13.052   8.940
 2581POPC   D2A34696  22.069  13.060   8.490
 2581POPC   C3A34697  22.007  13.064   8.047
 2581POPC   C4A34698  21.971  12.964   7.612
 2581POPC   C1B34699  22.474  13.060   8.774
 2581POPC   C2B34700  22.761  13.039   8.502
 2581POPC   C3B34701  22.491  12.861   8.222
 2581POPC   C4B34702  22.487  12.977   7.814
 2582POPC   NC334703  15.998  27.510   9.516
 2582POPC   PO434704  15.349  27.558   9.344
 2582POPC   GL134705  15.736  27.840   9.161
 2582POPC   GL234706  16.029  27.646   9.029
 2582POPC   C1A34707  15.975  28.064   8.771
 2582POPC   D2A34708  16.159  27.792   8.452
 2582POPC   C3A34709  16.017  27.843   8.009
 2582POPC   C4A34710  15.791  27.702   7.592
 2582POPC   C1B34711  15.711  27.624   8.684
 2582POPC   C2B34712  15.820  27.463   8.265
 2582POPC   C3B34713  16.025  27.335   7.874
 2582POPC   C4B34714  15.871  27.224   7.449
 2583POPC   NC334715   0.096   1.969   9.409
 2583POPC   PO434716   0.251   2.621   9.143
 2583POPC   GL134717   0.159   2.233   8.970
 2583POPC   GL234718   0.411   1.953   9.008
 2583POPC   C1A34719   0.327   2.205   8.571
 2583POPC   D2A34720   0.639   2.271   8.257
 2583POPC   C3A34721   0.546   2.073   7.912
 2583POPC   C4A34722   0.162   2.144   7.736
 2583POPC   C1B34723   0.211   1.710   8.689
 2583POPC   C2B34724   0.206   1.831   8.252
 2583POPC   C3B34725   0.253   1.664   7.869
 2583POPC   C4B34726   0.483   1.766   7.489
 2584POPC   NC334727  29.354  24.300   9.539
 2584POPC   PO434728  29.077  24.941   9.581
 2584POPC   GL134729  29.186  24.627   9.183
 2584POPC   GL234730  29.561  24.561   9.099
 2584POPC   C1A34731  29.221  24.273   8.828
 2584POPC   D2A34732  29.464  24.311   8.410
 2584POPC   C3A34733  29.302  24.420   7.999
 2584POPC   C4A34734  29.321  24.282   7.553
 2584POPC   C1B34735  29.356  24.745   8.693
 2584POPC   C2B34736  29.109  24.821   8.284
 2584POPC   C3B34737  29.110  24.852   7.813
 2584POPC   C4B34738  29.353  24.782   7.430
 2585POPC   NC334739  28.429  41.199   9.658
 2585POPC   PO434740  28.239  41.843   9.654
 2585POPC   GL134741  28.173  41.649   9.273
 2585POPC   GL234742  28.011  41.310   9.354
 2585POPC   C1A34743  28.353  41.771   8.853
 2585POPC   D2A34744  28.558  41.756   8.430
 2585POPC   C3A34745  28.389  41.751   8.005
 2585POPC   C4A34746  28.659  41.454   7.764
 2585POPC   C1B34747  28.310  41.231   9.016
 2585POPC   C2B34748  28.306  41.313   8.593
 2585POPC   C3B34749  28.085  41.279   8.228
 2585POPC   C4B34750  28.177  41.332   7.807
 2586POPC   NC334751  22.260  28.701   9.404
 2586POPC   PO434752  22.010  28.089   9.470
 2586POPC   GL134753  22.037  28.330   9.111
 2586POPC   GL234754  22.369  28.334   9.070
 2586POPC   C1A34755  21.994  28.311   8.670
 2586POPC   D2A34756  21.678  28.156   8.415
 2586POPC   C3A34757  21.833  28.032   8.019
 2586POPC   C4A34758  22.047  28.127   7.652
 2586POPC   C1B34759  22.327  28.696   8.750
 2586POPC   C2B34760  22.193  28.701   8.318
 2586POPC   C3B34761  22.273  28.499   7.920
 2586POPC   C4B34762  22.373  28.485   7.455
 2587POPC   NC334763  11.397  14.915   9.586
 2587POPC   PO434764  10.945  15.466   9.630
 2587POPC   GL134765  11.216  15.356   9.278
 2587POPC   GL234766  10.964  15.249   9.108
 2587POPC   C1A34767  11.405  15.143   8.877
 2587POPC   D2A34768  11.287  15.033   8.397
 2587POPC   C3A34769  11.521  15.117   7.996
 2587POPC   C4A34770  11.836  15.403   7.820
 2587POPC   C1B34771  10.985  15.420   8.742
 2587POPC   C2B34772  10.858  15.311   8.366
 2587POPC   C3B34773  11.128  15.453   8.069
 2587POPC   C4B34774  11.064  15.196   7.768
 2588POPC   NC334775  21.568  19.975   9.723
 2588POPC   PO434776  21.059  19.805   9.371
 2588POPC   GL134777  21.468  19.841   9.189
 2588POPC   GL234778  21.322  20.096   9.025
 2588POPC   C1A34779  21.450  19.650   8.772
 2588POPC   D2A34780  21.212  19.875   8.463
 2588POPC   C3A34781  21.350  19.788   8.074
 2588POPC   C4A34782  21.121  19.510   7.828
 2588POPC   C1B34783  21.630  20.117   8.702
 2588POPC   C2B34784  21.460  20.307   8.348
 2588POPC   C3B34785  21.172  20.255   8.008
 2588POPC   C4B34786  21.405  20.249   7.646
 2589POPC   NC334787   1.647  39.391   9.548
 2589POPC   PO434788   1.018  39.021   9.563
 2589POPC   GL134789   0.970  39.123   9.103
 2589POPC   GL234790   1.208  39.391   9.140
 2589POPC   C1A34791   0.801  39.434   8.782
 2589POPC   D2A34792   0.906  39.661   8.392
 2589POPC   C3A34793   0.869  39.411   8.022
 2589POPC   C4A34794   0.942  38.968   7.842
 2589POPC   C1B34795   1.299  39.296   8.697
 2589POPC   C2B34796   1.236  39.111   8.276
 2589POPC   C3B34797   1.352  39.289   7.873
 2589POPC   C4B34798   1.753  39.422   7.728
 2590POPC   NC334799  31.677  40.251   9.441
 2590POPC   PO434800  31.073  40.359   9.515
 2590POPC   GL134801  31.274  40.079   9.175
 2590POPC   GL234802  31.509  39.771   9.170
 2590POPC   C1A34803  31.534  40.156   8.790
 2590POPC   D2A34804  31.439  40.305   8.373
 2590POPC   C3A34805  31.353  40.049   7.993
 2590POPC   C4A34806  31.425  40.010   7.545
 2590POPC   C1B34807  31.616  39.647   8.729
 2590POPC   C2B34808  31.812  39.782   8.320
 2590POPC   C3B34809  31.712  39.710   7.867
 2590POPC   C4B34810  31.295  39.562   7.749
 2591POPC   NC334811   9.669  27.147   9.506
 2591POPC   PO434812   9.558  27.835   9.483
 2591POPC   GL134813   9.739  27.718   9.084
 2591POPC   GL234814   9.795  27.381   9.073
 2591POPC   C1A34815   9.772  27.784   8.637
 2591POPC   D2A34816   9.783  27.593   8.230
 2591POPC   C3A34817   9.772  27.854   7.883
 2591POPC   C4A34818   9.659  28.054   7.469
 2591POPC   C1B34819   9.641  27.300   8.672
 2591POPC   C2B34820   9.739  27.096   8.304
 2591POPC   C3B34821   9.624  27.223   7.885
 2591POPC   C4B34822   9.888  27.447   7.631
 2592POPC   NC334823  44.442   8.227   9.682
 2592POPC   PO434824   0.077   8.372   9.772
 2592POPC   GL134825  44.932   8.354   9.304
 2592POPC   GL234826  44.728   8.046   9.271
 2592POPC   C1A34827  44.941   8.195   8.851
 2592POPC   D2A34828   0.004   7.982   8.443
 2592POPC   C3A34829  44.867   8.168   8.025
 2592POPC   C4A34830  44.858   8.077   7.551
 2592POPC   C1B34831  44.445   8.237   8.961
 2592POPC   C2B34832  44.563   8.300   8.502
 2592POPC   C3B34833  44.356   8.227   8.126
 2592POPC   C4B34834  44.435   8.285   7.715
 2593POPC   NC334835   1.113  12.604   9.531
 2593POPC   PO434836   0.931  13.324   9.446
 2593POPC   GL134837   1.112  12.984   9.175
 2593POPC   GL234838   0.926  12.673   9.066
 2593POPC   C1A34839   1.458  12.795   8.938
 2593POPC   D2A34840   1.551  12.810   8.483
 2593POPC   C3A34841   1.287  12.867   8.088
 2593POPC   C4A34842   1.479  12.793   7.660
 2593POPC   C1B34843   1.047  12.858   8.666
 2593POPC   C2B34844   0.956  13.153   8.388
 2593POPC   C3B34845   0.799  13.114   7.988
 2593POPC   C4B34846   1.047  13.069   7.626
 2594POPC   NC334847  43.246  38.215   9.579
 2594POPC   PO434848  42.980  38.855   9.637
 2594POPC   GL134849  42.957  38.694   9.206
 2594POPC   GL234850  43.077  38.355   9.124
 2594POPC   C1A34851  42.933  38.846   8.779
 2594POPC   D2A34852  42.778  38.877   8.342
 2594POPC   C3A34853  43.129  38.742   8.004
 2594POPC   C4A34854  43.198  38.376   7.726
 2594POPC   C1B34855  43.261  38.222   8.731
 2594POPC   C2B34856  43.290  38.289   8.264
 2594POPC   C3B34857  43.477  38.012   7.952
 2594POPC   C4B34858  43.598  38.101   7.540
 2595POPC   NC334859  24.829  33.627   9.389
 2595POPC   PO434860  24.160  33.743   9.475
 2595POPC   GL134861  24.395  33.860   9.130
 2595POPC   GL234862  24.715  34.018   9.120
 2595POPC   C1A34863  24.400  34.031   8.731
 2595POPC   D2A34864  24.534  33.903   8.342
 2595POPC   C3A34865  24.343  33.737   7.992
 2595POPC   C4A34866  24.182  33.858   7.581
 2595POPC   C1B34867  24.786  33.691   8.750
 2595POPC   C2B34868  24.820  33.464   8.349
 2595POPC   C3B34869  24.891  33.713   7.990
 2595POPC   C4B34870  24.662  33.659   7.617
 2596POPC   NC334871   8.610  14.251   9.586
 2596POPC   PO434872   8.062  14.693   9.777
 2596POPC   GL134873   8.039  14.516   9.302
 2596POPC   GL234874   8.013  14.166   9.151
 2596POPC   C1A34875   7.967  14.603   8.830
 2596POPC   D2A34876   8.200  14.647   8.420
 2596POPC   C3A34877   8.027  14.671   7.999
 2596POPC   C4A34878   8.058  14.537   7.539
 2596POPC   C1B34879   8.150  14.160   8.675
 2596POPC   C2B34880   7.905  14.174   8.311
 2596POPC   C3B34881   7.953  14.163   7.877
 2596POPC   C4B34882   8.375  14.093   7.756
 2597POPC   NC334883  16.458  33.696   9.562
 2597POPC   PO434884  17.139  33.767   9.404
 2597POPC   GL134885  16.787  33.655   9.163
 2597POPC   GL234886  16.537  33.914   9.121
 2597POPC   C1A34887  16.544  33.475   8.831
 2597POPC   D2A34888  16.559  33.693   8.449
 2597POPC   C3A34889  16.791  33.661   8.085
 2597POPC   C4A34890  16.788  33.648   7.649
 2597POPC   C1B34891  16.252  33.898   8.827
 2597POPC   C2B34892  16.210  34.068   8.438
 2597POPC   C3B34893  16.267  33.874   8.067
 2597POPC   C4B34894  16.317  33.857   7.638
 2598POPC   NC334895  38.309  35.698   9.393
 2598POPC   PO434896  38.531  35.003   9.509
 2598POPC   GL134897  38.536  35.198   9.129
 2598POPC   GL234898  38.704  35.510   9.119
 2598POPC   C1A34899  38.432  35.305   8.724
 2598POPC   D2A34900  38.230  35.654   8.518
 2598POPC   C3A34901  38.247  35.579   8.091
 2598POPC   C4A34902  38.319  35.219   7.848
 2598POPC   C1B34903  38.711  35.725   8.712
 2598POPC   C2B34904  38.784  35.699   8.259
 2598POPC   C3B34905  38.724  35.625   7.806
 2598POPC   C4B34906  38.918  35.757   7.389
 2599POPC   NC334907  17.382   0.649   9.635
 2599POPC   PO434908  17.727   0.168   9.445
 2599POPC   GL134909  17.379   0.279   9.200
 2599POPC   GL234910  17.309   0.644   9.133
 2599POPC   C1A34911  17.301   0.161   8.772
 2599POPC   D2A34912  17.452  44.933   8.376
 2599POPC   C3A34913  17.560   0.216   8.033
 2599POPC   C4A34914  17.202   0.366   7.824
 2599POPC   C1B34915  17.712   0.608   8.902
 2599POPC   C2B34916  17.643   0.452   8.497
 2599POPC   C3B34917  17.472   0.698   8.168
 2599POPC   C4B34918  17.688   0.650   7.762
 2600POPC   NC334919  44.980  22.254   9.819
 2600POPC   PO434920  44.402  21.926   9.678
 2600POPC   GL134921  44.587  21.992   9.289
 2600POPC   GL234922  44.420  21.687   9.190
 2600POPC   C1A34923  44.655  22.319   8.944
 2600POPC   D2A34924  44.835  22.448   8.531
 2600POPC   C3A34925  44.719  22.172   8.180
 2600POPC   C4A34926  44.618  22.114   7.754
 2600POPC   C1B34927  44.349  21.915   8.826
 2600POPC   C2B34928  44.159  21.875   8.450
 2600POPC   C3B34929  44.293  21.858   8.061
 2600POPC   C4B34930  44.140  21.968   7.682
 2601POPC   NC334931  42.136  19.797   9.311
 2601POPC   PO434932  41.467  19.887   9.583
 2601POPC   GL134933  41.620  19.780   9.194
 2601POPC   GL234934  41.339  19.988   9.072
 2601POPC   C1A34935  41.750  19.858   8.757
 2601POPC   D2A34936  41.621  20.014   8.349
 2601POPC   C3A34937  41.888  19.972   7.943
 2601POPC   C4A34938  41.774  19.925   7.483
 2601POPC   C1B34939  41.211  19.793   8.684
 2601POPC   C2B34940  41.248  19.630   8.253
 2601POPC   C3B34941  41.451  19.713   7.841
 2601POPC   C4B34942  41.279  19.866   7.400
 2602POPC   NC334943   5.201  27.326   9.606
 2602POPC   PO434944   4.980  26.708   9.556
 2602POPC   GL134945   5.076  26.837   9.176
 2602POPC   GL234946   5.265  27.114   9.147
 2602POPC   C1A34947   5.187  26.704   8.766
 2602POPC   D2A34948   4.896  26.604   8.452
 2602POPC   C3A34949   5.050  26.756   8.065
 2602POPC   C4A34950   4.916  26.961   7.695
 2602POPC   C1B34951   5.448  27.152   8.762
 2602POPC   C2B34952   5.451  26.931   8.369
 2602POPC   C3B34953   5.376  27.147   7.982
 2602POPC   C4B34954   5.443  27.019   7.568
 2603POPC   NC334955  34.703  29.274   9.559
 2603POPC   PO434956  35.044  28.647   9.437
 2603POPC   GL134957  34.815  28.909   9.155
 2603POPC   GL234958  34.464  29.054   9.169
 2603POPC   C1A34959  34.709  28.895   8.713
 2603POPC   D2A34960  34.830  28.863   8.261
 2603POPC   C3A34961  34.777  29.197   7.945
 2603POPC   C4A34962  34.789  28.945   7.580
 2603POPC   C1B34963  34.314  29.253   8.803
 2603POPC   C2B34964  34.453  29.241   8.386
 2603POPC   C3B34965  34.299  29.373   8.022
 2603POPC   C4B34966  34.265  29.233   7.633
 2604POPC   NC334967   2.725  37.157   9.545
 2604POPC   PO434968   2.840  37.797   9.413
 2604POPC   GL134969   2.779  37.486   9.116
 2604POPC   GL234970   2.443  37.326   9.102
 2604POPC   C1A34971   2.962  37.639   8.735
 2604POPC   D2A34972   3.084  38.026   8.496
 2604POPC   C3A34973   3.214  37.884   8.089
 2604POPC   C4A34974   2.946  37.573   7.886
 2604POPC   C1B34975   2.432  37.581   8.734
 2604POPC   C2B34976   2.647  37.642   8.336
 2604POPC   C3B34977   2.500  37.817   7.967
 2604POPC   C4B34978   2.228  37.692   7.688
 2605POPC   NC334979  28.096  43.385   9.528
 2605POPC   PO434980  28.272  42.751   9.667
 2605POPC   GL134981  28.347  42.859   9.225
 2605POPC   GL234982  28.373  43.178   9.157
 2605POPC   C1A34983  28.366  42.802   8.775
 2605POPC   D2A34984  28.149  42.957   8.422
 2605POPC   C3A34985  28.372  43.035   8.060
 2605POPC   C4A34986  28.160  43.090   7.707
 2605POPC   C1B34987  28.345  43.426   8.810
 2605POPC   C2B34988  28.549  43.373   8.428
 2605POPC   C3B34989  28.574  43.530   8.021
 2605POPC   C4B34990  28.959  43.536   7.836
 2606POPC   NC334991  13.487   0.006   9.426
 2606POPC   PO434992  13.645  44.354   9.452
 2606POPC   GL134993  13.776  44.519   9.114
 2606POPC   GL234994  13.967  44.782   9.262
 2606POPC   C1A34995  13.597  44.747   8.781
 2606POPC   D2A34996  13.306  44.925   8.497
 2606POPC   C3A34997  13.369  44.761   8.091
 2606POPC   C4A34998  13.668  44.554   7.814
 2606POPC   C1B34999  14.037   0.011   8.877
 2606POPC   C2B35000  13.825   0.079   8.473
 2606POPC   C3B35001  13.852  44.991   8.049
 2606POPC   C4B35002  13.543   0.071   7.729
 2607POPC   NC335003  43.772  29.442   9.457
 2607POPC   PO435004  43.541  28.878   9.219
 2607POPC   GL135005  43.796  29.159   9.033
 2607POPC   GL235006  44.098  29.169   9.170
 2607POPC   C1A35007  43.899  29.271   8.643
 2607POPC   D2A35008  43.695  29.152   8.284
 2607POPC   C3A35009  43.854  29.352   7.957
 2607POPC   C4A35010  43.642  29.438   7.581
 2607POPC   C1B35011  44.273  28.949   8.814
 2607POPC   C2B35012  44.216  28.936   8.375
 2607POPC   C3B35013  44.174  28.953   7.932
 2607POPC   C4B35014  43.802  28.926   7.670
 2608POPC   NC335015   1.094  14.597   9.561
 2608POPC   PO435016   1.739  14.316   9.412
 2608POPC   GL135017   1.330  14.230   9.225
 2608POPC   GL235018   0.973  14.175   9.242
 2608POPC   C1A35019   1.176  14.448   8.855
 2608POPC   D2A35020   1.349  14.503   8.452
 2608POPC   C3A35021   1.108  14.565   8.097
 2608POPC   C4A35022   1.410  14.623   7.794
 2608POPC   C1B35023   0.743  14.192   8.856
 2608POPC   C2B35024   0.876  14.154   8.423
 2608POPC   C3B35025   0.793  14.158   7.969
 2608POPC   C4B35026   1.043  14.293   7.648
 2609POPC   NC335027  41.932  44.775   9.356
 2609POPC   PO435028  42.506  44.558   9.606
 2609POPC   GL135029  42.370  44.574   9.190
 2609POPC   GL235030  42.386  44.943   9.165
 2609POPC   C1A35031  42.462  44.574   8.736
 2609POPC   D2A35032  42.491  44.827   8.326
 2609POPC   C3A35033  42.468  44.634   7.896
 2609POPC   C4A35034  42.413  44.640   7.427
 2609POPC   C1B35035  42.248   0.041   8.756
 2609POPC   C2B35036  42.007   0.097   8.383
 2609POPC   C3B35037  42.059   0.250   7.953
 2609POPC   C4B35038  42.325   0.115   7.609
 2610POPC   NC335039   4.779   3.488   9.434
 2610POPC   PO435040   5.097   3.240   9.968
 2610POPC   GL135041   5.253   3.215   9.434
 2610POPC   GL235042   5.616   3.283   9.364
 2610POPC   C1A35043   5.302   3.493   8.990
 2610POPC   D2A35044   5.378   3.556   8.490
 2610POPC   C3A35045   5.049   3.711   8.161
 2610POPC   C4A35046   4.953   3.825   7.695
 2610POPC   C1B35047   5.729   3.221   8.923
 2610POPC   C2B35048   5.758   3.180   8.466
 2610POPC   C3B35049   5.551   3.224   8.076
 2610POPC   C4B35050   5.281   3.438   7.809
 2611POPC   NC335051  38.957  30.243   9.541
 2611POPC   PO435052  39.114  29.634   9.282
 2611POPC   GL135053  39.052  29.943   9.050
 2611POPC   GL235054  39.294  30.199   9.145
 2611POPC   C1A35055  39.024  29.773   8.637
 2611POPC   D2A35056  39.227  29.719   8.257
 2611POPC   C3A35057  38.943  29.806   7.943
 2611POPC   C4A35058  39.015  29.953   7.499
 2611POPC   C1B35059  39.481  30.023   8.750
 2611POPC   C2B35060  39.440  30.184   8.328
 2611POPC   C3B35061  39.378  30.097   7.900
 2611POPC   C4B35062  39.648  30.159   7.533
 2612POPC   NC335063  42.783  29.414   9.426
 2612POPC   PO435064  43.388  29.226   9.597
 2612POPC   GL135065  43.289  29.317   9.149
 2612POPC   GL235066  42.964  29.191   9.017
 2612POPC   C1A35067  43.381  29.204   8.705
 2612POPC   D2A35068  43.143  29.163   8.358
 2612POPC   C3A35069  43.276  29.314   7.960
 2612POPC   C4A35070  42.855  29.346   7.818
 2612POPC   C1B35071  43.022  28.820   8.765
 2612POPC   C2B35072  43.327  28.688   8.464
 2612POPC   C3B35073  43.330  28.811   8.033
 2612POPC   C4B35074  42.972  28.837   7.759
 2613POPC   NC335075  42.996  12.332   9.501
 2613POPC   PO435076  43.419  11.848   9.648
 2613POPC   GL135077  43.140  11.861   9.271
 2613POPC   GL235078  42.781  11.945   9.223
 2613POPC   C1A35079  43.172  11.725   8.827
 2613POPC   D2A35080  43.106  11.877   8.407
 2613POPC   C3A35081  42.996  11.709   8.007
 2613POPC   C4A35082  43.259  11.948   7.699
 2613POPC   C1B35083  42.728  12.010   8.781
 2613POPC   C2B35084  42.668  12.171   8.356
 2613POPC   C3B35085  42.815  12.185   7.913
 2613POPC   C4B35086  42.817  12.044   7.464
 2614POPC   NC335087  12.549  37.912   9.695
 2614POPC   PO435088  11.829  37.727   9.573
 2614POPC   GL135089  11.948  37.612   9.119
 2614POPC   GL235090  12.316  37.687   8.996
 2614POPC   C1A35091  11.955  37.898   8.723
 2614POPC   D2A35092  12.188  37.860   8.361
 2614POPC   C3A35093  12.055  37.630   8.021
 2614POPC   C4A35094  12.223  37.717   7.637
 2614POPC   C1B35095  12.122  37.433   8.669
 2614POPC   C2B35096  12.167  37.223   8.300
 2614POPC   C3B35097  12.351  37.235   7.943
 2614POPC   C4B35098  12.106  37.240   7.611
 2615POPC   NC335099  35.075  24.018   9.529
 2615POPC   PO435100  35.572  23.488   9.442
 2615POPC   GL135101  35.245  23.642   9.208
 2615POPC   GL235102  35.435  23.915   9.129
 2615POPC   C1A35103  35.177  23.677   8.764
 2615POPC   D2A35104  35.108  23.486   8.377
 2615POPC   C3A35105  35.201  23.709   8.012
 2615POPC   C4A35106  35.468  23.517   7.708
 2615POPC   C1B35107  35.697  23.863   8.786
 2615POPC   C2B35108  35.516  23.878   8.397
 2615POPC   C3B35109  35.683  23.897   7.995
 2615POPC   C4B35110  35.525  24.011   7.611
 2616POPC   NC335111  35.866  24.613   9.385
 2616POPC   PO435112  36.496  24.261   9.475
 2616POPC   GL135113  36.281  24.404   9.119
 2616POPC   GL235114  35.956  24.217   9.095
 2616POPC   C1A35115  36.247  24.582   8.721
 2616POPC   D2A35116  35.987  24.726   8.380
 2616POPC   C3A35117  36.203  24.585   8.008
 2616POPC   C4A35118  36.218  24.707   7.582
 2616POPC   C1B35119  35.787  24.363   8.726
 2616POPC   C2B35120  35.882  24.237   8.314
 2616POPC   C3B35121  35.738  24.415   7.903
 2616POPC   C4B35122  35.769  24.435   7.450
 2617POPC   NC335123  42.883  13.121   9.549
 2617POPC   PO435124  43.393  12.628   9.514
 2617POPC   GL135125  43.164  12.864   9.179
 2617POPC   GL235126  42.861  12.674   9.095
 2617POPC   C1A35127  43.216  13.071   8.749
 2617POPC   D2A35128  43.145  12.951   8.314
 2617POPC   C3A35129  43.432  12.823   7.976
 2617POPC   C4A35130  43.189  12.508   7.742
 2617POPC   C1B35131  42.709  13.030   8.856
 2617POPC   C2B35132  42.744  13.241   8.429
 2617POPC   C3B35133  42.758  13.064   7.995
 2617POPC   C4B35134  42.766  13.159   7.541
 2618POPC   NC335135   7.458  27.863   9.534
 2618POPC   PO435136   7.095  27.310   9.569
 2618POPC   GL135137   7.245  27.498   9.195
 2618POPC   GL235138   7.590  27.548   9.144
 2618POPC   C1A35139   7.256  27.602   8.771
 2618POPC   D2A35140   7.571  27.574   8.457
 2618POPC   C3A35141   7.313  27.603   8.114
 2618POPC   C4A35142   7.075  27.534   7.707
 2618POPC   C1B35143   7.619  27.940   8.853
 2618POPC   C2B35144   7.696  28.071   8.429
 2618POPC   C3B35145   7.770  27.851   8.035
 2618POPC   C4B35146   7.472  27.836   7.696
 2619POPC   NC335147   5.629  12.062   9.532
 2619POPC   PO435148   6.345  12.326   9.478
 2619POPC   GL135149   6.131  12.051   9.180
 2619POPC   GL235150   5.891  12.268   9.101
 2619POPC   C1A35151   5.883  11.887   8.782
 2619POPC   D2A35152   5.705  11.911   8.343
 2619POPC   C3A35153   6.015  11.875   8.012
 2619POPC   C4A35154   6.187  12.159   7.690
 2619POPC   C1B35155   5.946  12.465   8.686
 2619POPC   C2B35156   5.919  12.536   8.230
 2619POPC   C3B35157   5.735  12.302   7.874
 2619POPC   C4B35158   5.698  11.900   7.624
 2620POPC   NC335159  21.374  24.982   9.398
 2620POPC   PO435160  21.596  25.552   9.705
 2620POPC   GL135161  21.494  25.512   9.240
 2620POPC   GL235162  21.226  25.289   9.035
 2620POPC   C1A35163  21.648  25.411   8.828
 2620POPC   D2A35164  21.370  25.260   8.536
 2620POPC   C3A35165  21.450  25.298   8.100
 2620POPC   C4A35166  21.448  25.398   7.666
 2620POPC   C1B35167  20.980  25.006   8.747
 2620POPC   C2B35168  20.952  24.810   8.341
 2620POPC   C3B35169  21.082  24.967   7.919
 2620POPC   C4B35170  21.187  24.911   7.460
 2621POPC   NC335171  15.389   6.021   9.509
 2621POPC   PO435172  14.816   5.544   9.471
 2621POPC   GL135173  15.007   5.801   9.191
 2621POPC   GL235174  14.815   6.095   9.160
 2621POPC   C1A35175  15.241   5.718   8.812
 2621POPC   D2A35176  15.527   5.739   8.460
 2621POPC   C3A35177  15.317   5.707   8.092
 2621POPC   C4A35178  15.018   5.669   7.745
 2621POPC   C1B35179  15.022   6.181   8.823
 2621POPC   C2B35180  14.912   5.959   8.467
 2621POPC   C3B35181  14.970   6.081   8.082
 2621POPC   C4B35182  15.269   6.113   7.806
 2622POPC   NC335183   1.695  35.278   9.565
 2622POPC   PO435184   2.278  35.482   9.553
 2622POPC   GL135185   2.012  35.367   9.181
 2622POPC   GL235186   1.904  35.656   9.121
 2622POPC   C1A35187   1.816  35.218   8.772
 2622POPC   D2A35188   1.981  35.170   8.329
 2622POPC   C3A35189   1.747  35.265   7.971
 2622POPC   C4A35190   1.733  35.535   7.619
 2622POPC   C1B35191   2.103  35.666   8.752
 2622POPC   C2B35192   1.891  35.679   8.390
 2622POPC   C3B35193   2.070  35.650   8.023
 2622POPC   C4B35194   2.204  35.708   7.652
 2623POPC   NC335195  12.777   8.451   9.627
 2623POPC   PO435196  13.091   7.792   9.547
 2623POPC   GL135197  13.085   8.015   9.142
 2623POPC   GL235198  12.822   8.295   9.119
 2623POPC   C1A35199  12.937   7.988   8.705
 2623POPC   D2A35200  12.673   7.990   8.367
 2623POPC   C3A35201  12.871   8.007   7.999
 2623POPC   C4A35202  12.879   8.193   7.621
 2623POPC   C1B35203  13.161   8.433   8.785
 2623POPC   C2B35204  13.140   8.301   8.336
 2623POPC   C3B35205  12.955   8.540   7.992
 2623POPC   C4B35206  13.063   8.644   7.503
 2624POPC   NC335207  14.857  39.046   9.643
 2624POPC   PO435208  14.244  39.322   9.502
 2624POPC   GL135209  14.404  39.113   9.187
 2624POPC   GL235210  14.721  39.313   9.179
 2624POPC   C1A35211  14.204  38.919   8.819
 2624POPC   D2A35212  14.156  39.124   8.443
 2624POPC   C3A35213  14.417  39.138   8.105
 2624POPC   C4A35214  14.320  39.315   7.713
 2624POPC   C1B35215  14.608  39.251   8.738
 2624POPC   C2B35216  14.620  39.492   8.373
 2624POPC   C3B35217  14.759  39.466   7.903
 2624POPC   C4B35218  14.746  39.438   7.396
 2625POPC   NC335219  26.471  21.661   9.692
 2625POPC   PO435220  25.940  21.182   9.599
 2625POPC   GL135221  26.033  21.520   9.282
 2625POPC   GL235222  26.321  21.471   9.035
 2625POPC   C1A35223  25.857  21.606   8.858
 2625POPC   D2A35224  26.031  21.560   8.454
 2625POPC   C3A35225  25.754  21.496   8.094
 2625POPC   C4A35226  25.915  21.461   7.677
 2625POPC   C1B35227  26.559  21.167   8.738
 2625POPC   C2B35228  26.392  21.171   8.339
 2625POPC   C3B35229  26.434  21.251   7.915
 2625POPC   C4B35230  26.495  20.853   7.775
 2626POPC   NC335231   1.014   1.762   9.479
 2626POPC   PO435232   1.248   1.184   9.490
 2626POPC   GL135233   1.166   1.098   9.060
 2626POPC   GL235234   1.037   1.448   9.041
 2626POPC   C1A35235   1.151   0.909   8.627
 2626POPC   D2A35236   1.375   0.829   8.230
 2626POPC   C3A35237   1.137   0.977   7.869
 2626POPC   C4A35238   1.198   1.294   7.517
 2626POPC   C1B35239   0.819   1.323   8.663
 2626POPC   C2B35240   1.041   1.278   8.278
 2626POPC   C3B35241   1.248   1.503   7.968
 2626POPC   C4B35242   1.216   1.810   7.607
 2627POPC   NC335243  12.520  30.903   9.571
 2627POPC   PO435244  13.184  30.654   9.541
 2627POPC   GL135245  12.877  30.633   9.212
 2627POPC   GL235246  12.771  30.964   9.133
 2627POPC   C1A35247  12.710  30.570   8.806
 2627POPC   D2A35248  12.879  30.653   8.411
 2627POPC   C3A35249  12.773  30.462   8.044
 2627POPC   C4A35250  13.027  30.557   7.705
 2627POPC   C1B35251  13.057  30.973   8.775
 2627POPC   C2B35252  13.152  31.081   8.344
 2627POPC   C3B35253  12.892  30.965   7.979
 2627POPC   C4B35254  12.806  30.988   7.497
 2628POPC   NC335255   5.002   4.462   9.480
 2628POPC   PO435256   5.057   3.850   9.531
 2628POPC   GL135257   5.193   4.100   9.142
 2628POPC   GL235258   5.443   4.381   9.117
 2628POPC   C1A35259   5.270   4.149   8.689
 2628POPC   D2A35260   5.487   4.073   8.312
 2628POPC   C3A35261   5.230   4.179   7.960
 2628POPC   C4A35262   5.044   4.546   7.773
 2628POPC   C1B35263   5.330   4.675   8.725
 2628POPC   C2B35264   5.255   4.664   8.242
 2628POPC   C3B35265   5.351   4.954   7.876
 2628POPC   C4B35266   5.148   4.974   7.452
 2629POPC   NC335267  42.147  21.634   9.902
 2629POPC   PO435268  42.405  21.052   9.634
 2629POPC   GL135269  42.505  21.275   9.257
 2629POPC   GL235270  42.182  21.417   9.117
 2629POPC   C1A35271  42.608  21.423   8.825
 2629POPC   D2A35272  42.384  21.489   8.447
 2629POPC   C3A35273  42.494  21.281   8.039
 2629POPC   C4A35274  42.430  21.245   7.568
 2629POPC   C1B35275  41.959  21.309   8.728
 2629POPC   C2B35276  41.922  21.381   8.249
 2629POPC   C3B35277  42.022  21.455   7.818
 2629POPC   C4B35278  41.817  21.387   7.396
 2630POPC   NC335279  31.048  28.019   9.630
 2630POPC   PO435280  31.626  27.552   9.536
 2630POPC   GL135281  31.460  27.557   9.168
 2630POPC   GL235282  31.335  27.887   9.176
 2630POPC   C1A35283  31.619  27.691   8.779
 2630POPC   D2A35284  31.526  27.566   8.401
 2630POPC   C3A35285  31.534  27.802   8.061
 2630POPC   C4A35286  31.255  27.513   7.834
 2630POPC   C1B35287  31.183  27.955   8.740
 2630POPC   C2B35288  31.082  27.858   8.256
 2630POPC   C3B35289  31.041  27.978   7.795
 2630POPC   C4B35290  31.149  27.953   7.348
 2631POPC   NC335291  41.185   4.196   9.480
 2631POPC   PO435292  41.728   4.477   9.631
 2631POPC   GL135293  41.575   4.353   9.163
 2631POPC   GL235294  41.320   4.076   9.017
 2631POPC   C1A35295  41.482   4.439   8.708
 2631POPC   D2A35296  41.665   4.387   8.309
 2631POPC   C3A35297  41.471   4.613   7.973
 2631POPC   C4A35298  41.489   4.599   7.527
 2631POPC   C1B35299  41.688   3.897   8.829
 2631POPC   C2B35300  41.907   3.905   8.450
 2631POPC   C3B35301  41.708   3.929   8.055
 2631POPC   C4B35302  41.358   4.126   7.821
 2632POPC   NC335303  18.225  38.819   9.475
 2632POPC   PO435304  18.274  39.490   9.389
 2632POPC   GL135305  18.553  39.219   9.146
 2632POPC   GL235306  18.555  38.824   9.077
 2632POPC   C1A35307  18.494  39.218   8.705
 2632POPC   D2A35308  18.436  38.949   8.355
 2632POPC   C3A35309  18.464  39.143   7.960
 2632POPC   C4A35310  18.489  39.001   7.546
 2632POPC   C1B35311  18.143  38.870   8.838
 2632POPC   C2B35312  17.959  39.060   8.490
 2632POPC   C3B35313  17.948  39.031   8.053
 2632POPC   C4B35314  17.689  39.041   7.674
 2633POPC   NC335315  42.637  34.884   9.350
 2633POPC   PO435316  42.311  35.542   9.475
 2633POPC   GL135317  42.193  35.449   9.093
 2633POPC   GL235318  42.244  35.081   9.059
 2633POPC   C1A35319  42.027  35.551   8.729
 2633POPC   D2A35320  42.218  35.628   8.386
 2633POPC   C3A35321  42.204  35.366   8.107
 2633POPC   C4A35322  42.289  35.570   7.758
 2633POPC   C1B35323  42.459  35.247   8.701
 2633POPC   C2B35324  42.682  35.378   8.367
 2633POPC   C3B35325  42.690  35.274   7.939
 2633POPC   C4B35326  42.296  35.060   7.716
 2634POPC   NC335327  20.802  24.701   9.497
 2634POPC   PO435328  20.268  24.384   9.432
 2634POPC   GL135329  20.471  24.412   9.024
 2634POPC   GL235330  20.646  24.731   9.010
 2634POPC   C1A35331  20.483  24.463   8.565
 2634POPC   D2A35332  20.441  24.811   8.312
 2634POPC   C3A35333  20.429  24.681   7.910
 2634POPC   C4A35334  20.372  24.337   7.669
 2634POPC   C1B35335  20.946  24.472   8.762
 2634POPC   C2B35336  20.936  24.277   8.368
 2634POPC   C3B35337  20.781  24.322   7.984
 2634POPC   C4B35338  20.882  24.540   7.632
 2635POPC   NC335339  37.327  38.916   9.471
 2635POPC   PO435340  36.726  39.243   9.456
 2635POPC   GL135341  37.010  39.302   9.150
 2635POPC   GL235342  36.669  39.344   8.949
 2635POPC   C1A35343  37.082  39.202   8.742
 2635POPC   D2A35344  36.861  39.411   8.449
 2635POPC   C3A35345  36.947  39.172   8.103
 2635POPC   C4A35346  37.064  39.209   7.672
 2635POPC   C1B35347  36.350  39.472   8.663
 2635POPC   C2B35348  36.377  39.381   8.226
 2635POPC   C3B35349  36.612  39.465   7.865
 2635POPC   C4B35350  36.590  39.062   7.680
 2636POPC   NC335351   0.426  40.362   9.459
 2636POPC   PO435352   0.493  41.090   9.590
 2636POPC   GL135353   0.356  40.867   9.237
 2636POPC   GL235354   0.148  41.117   9.102
 2636POPC   C1A35355   0.375  40.746   8.804
 2636POPC   D2A35356   0.555  40.868   8.404
 2636POPC   C3A35357   0.702  40.530   8.163
 2636POPC   C4A35358   0.686  40.492   7.726
 2636POPC   C1B35359  44.975  41.094   8.703
 2636POPC   C2B35360   0.045  40.992   8.287
 2636POPC   C3B35361   0.254  40.797   7.987
 2636POPC   C4B35362   0.310  40.936   7.655
 2637POPC   NC335363  31.192  36.397   9.439
 2637POPC   PO435364  31.820  36.210   9.480
 2637POPC   GL135365  31.707  36.131   9.078
 2637POPC   GL235366  31.405  36.075   9.089
 2637POPC   C1A35367  31.842  36.036   8.670
 2637POPC   D2A35368  32.040  36.040   8.267
 2637POPC   C3A35369  31.734  36.179   7.972
 2637POPC   C4A35370  31.531  36.111   7.570
 2637POPC   C1B35371  31.236  35.994   8.708
 2637POPC   C2B35372  31.308  36.132   8.297
 2637POPC   C3B35373  31.170  35.952   7.930
 2637POPC   C4B35374  31.032  36.084   7.549
 2638POPC   NC335375   9.395  33.735   9.576
 2638POPC   PO435376  10.116  33.606   9.516
 2638POPC   GL135377   9.766  33.724   9.221
 2638POPC   GL235378   9.667  34.095   9.269
 2638POPC   C1A35379   9.643  33.572   8.816
 2638POPC   D2A35380   9.557  33.685   8.386
 2638POPC   C3A35381   9.831  33.556   8.023
 2638POPC   C4A35382   9.781  33.667   7.587
 2638POPC   C1B35383   9.496  34.093   8.836
 2638POPC   C2B35384   9.541  34.188   8.387
 2638POPC   C3B35385   9.579  34.026   7.969
 2638POPC   C4B35386   9.310  33.883   7.597
 2639POPC   NC335387   7.109   5.271   9.463
 2639POPC   PO435388   7.563   4.782   9.437
 2639POPC   GL135389   7.215   4.848   9.097
 2639POPC   GL235390   7.222   5.220   8.991
 2639POPC   C1A35391   7.216   4.895   8.617
 2639POPC   D2A35392   7.279   5.148   8.258
 2639POPC   C3A35393   7.225   4.884   7.927
 2639POPC   C4A35394   7.262   4.736   7.548
 2639POPC   C1B35395   7.425   5.441   8.688
 2639POPC   C2B35396   7.770   5.364   8.423
 2639POPC   C3B35397   7.799   5.073   8.099
 2639POPC   C4B35398   7.639   5.078   7.705
 2640POPC   NC335399  40.398  15.751   9.501
 2640POPC   PO435400  40.827  16.280   9.493
 2640POPC   GL135401  40.686  16.023   9.157
 2640POPC   GL235402  40.834  15.703   9.233
 2640POPC   C1A35403  40.805  16.019   8.729
 2640POPC   D2A35404  40.583  16.157   8.362
 2640POPC   C3A35405  40.828  16.234   7.993
 2640POPC   C4A35406  40.720  15.963   7.692
 2640POPC   C1B35407  41.153  15.658   8.924
 2640POPC   C2B35408  41.177  15.751   8.495
 2640POPC   C3B35409  40.964  15.689   8.121
 2640POPC   C4B35410  41.129  15.620   7.715
 2641POPC   NC335411   8.296  16.543   9.539
 2641POPC   PO435412   8.400  17.180   9.463
 2641POPC   GL135413   8.363  16.862   9.136
 2641POPC   GL235414   8.057  16.625   9.083
 2641POPC   C1A35415   8.440  16.971   8.707
 2641POPC   D2A35416   8.216  16.934   8.321
 2641POPC   C3A35417   8.416  17.003   7.937
 2641POPC   C4A35418   8.188  16.686   7.765
 2641POPC   C1B35419   8.393  16.470   8.801
 2641POPC   C2B35420   8.481  16.520   8.384
 2641POPC   C3B35421   8.427  16.315   7.995
 2641POPC   C4B35422   8.653  16.301   7.623
 2642POPC   NC335423   9.663   4.455   9.575
 2642POPC   PO435424  10.081   3.886   9.553
 2642POPC   GL135425   9.965   4.176   9.259
 2642POPC   GL235426   9.650   4.071   9.206
 2642POPC   C1A35427   9.961   4.415   8.878
 2642POPC   D2A35428   9.846   4.305   8.465
 2642POPC   C3A35429   9.884   4.504   8.088
 2642POPC   C4A35430  10.094   4.361   7.724
 2642POPC   C1B35431   9.425   3.874   8.875
 2642POPC   C2B35432   9.583   3.881   8.466
 2642POPC   C3B35433   9.433   3.959   8.055
 2642POPC   C4B35434   9.608   4.215   7.737
 2643POPC   NC335435   0.315  16.307   9.484
 2643POPC   PO435436   0.854  15.878   9.513
 2643POPC   GL135437   0.505  15.814   9.222
 2643POPC   GL235438   0.249  15.505   9.283
 2643POPC   C1A35439   0.449  16.085   8.848
 2643POPC   D2A35440   0.659  16.252   8.493
 2643POPC   C3A35441   0.504  16.150   8.076
 2643POPC   C4A35442   0.716  15.840   7.812
 2643POPC   C1B35443   0.179  15.658   8.869
 2643POPC   C2B35444   0.085  15.887   8.507
 2643POPC   C3B35445   0.072  15.773   8.103
 2643POPC   C4B35446   0.217  15.907   7.723
 2644POPC   NC335447  26.223  14.514   9.623
 2644POPC   PO435448  26.153  13.801   9.443
 2644POPC   GL135449  26.186  14.180   9.205
 2644POPC   GL235450  26.048  14.546   9.162
 2644POPC   C1A35451  26.078  14.230   8.790
 2644POPC   D2A35452  26.195  14.367   8.442
 2644POPC   C3A35453  25.982  14.126   8.148
 2644POPC   C4A35454  25.975  14.269   7.753
 2644POPC   C1B35455  26.325  14.759   8.889
 2644POPC   C2B35456  26.533  14.763   8.470
 2644POPC   C3B35457  26.302  14.826   8.074
 2644POPC   C4B35458  26.261  14.675   7.668
 2645POPC   NC335459  26.184  29.876   9.604
 2645POPC   PO435460  25.876  30.201   9.154
 2645POPC   GL135461  26.239  30.030   9.083
 2645POPC   GL235462  26.057  29.688   9.134
 2645POPC   C1A35463  26.331  30.198   8.669
 2645POPC   D2A35464  25.966  30.325   8.382
 2645POPC   C3A35465  25.979  30.213   7.949
 2645POPC   C4A35466  26.290  29.886   7.829
 2645POPC   C1B35467  25.897  29.782   8.695
 2645POPC   C2B35468  25.980  29.821   8.270
 2645POPC   C3B35469  25.865  29.577   7.914
 2645POPC   C4B35470  25.847  29.719   7.518
 2646POPC   NC335471  10.222  30.403   9.704
 2646POPC   PO435472   9.601  30.787   9.510
 2646POPC   GL135473   9.683  30.921   9.124
 2646POPC   GL235474  10.001  30.722   9.138
 2646POPC   C1A35475   9.616  30.761   8.696
 2646POPC   D2A35476   9.408  30.802   8.287
 2646POPC   C3A35477   9.584  30.524   7.960
 2646POPC   C4A35478   9.574  30.561   7.509
 2646POPC   C1B35479   9.882  30.376   8.908
 2646POPC   C2B35480   9.958  30.445   8.452
 2646POPC   C3B35481  10.010  30.755   8.102
 2646POPC   C4B35482   9.828  30.954   7.717
 2647POPC   NC335483  34.108  18.323   9.465
 2647POPC   PO435484  33.428  18.647   9.423
 2647POPC   GL135485  33.718  18.451   9.170
 2647POPC   GL235486  33.663  18.110   9.061
 2647POPC   C1A35487  33.960  18.428   8.793
 2647POPC   D2A35488  33.738  18.279   8.444
 2647POPC   C3A35489  33.828  18.415   8.038
 2647POPC   C4A35490  33.833  18.148   7.657
 2647POPC   C1B35491  33.472  17.902   8.678
 2647POPC   C2B35492  33.454  17.928   8.218
 2647POPC   C3B35493  33.620  17.695   7.892
 2647POPC   C4B35494  33.601  17.724   7.443
 2648POPC   NC335495  21.184   9.853   9.571
 2648POPC   PO435496  20.496   9.777   9.533
 2648POPC   GL135497  20.614   9.656   9.149
 2648POPC   GL235498  20.907   9.786   9.120
 2648POPC   C1A35499  20.602   9.811   8.712
 2648POPC   D2A35500  20.784   9.765   8.314
 2648POPC   C3A35501  20.549   9.718   7.889
 2648POPC   C4A35502  20.218   9.697   7.514
 2648POPC   C1B35503  21.079  10.039   8.741
 2648POPC   C2B35504  21.195  10.128   8.301
 2648POPC   C3B35505  20.913  10.054   7.926
 2648POPC   C4B35506  20.866   9.888   7.500
 2649POPC   NC335507  21.802   0.365   9.519
 2649POPC   PO435508  22.340   0.845   9.581
 2649POPC   GL135509  22.190   0.654   9.237
 2649POPC   GL235510  21.883   0.785   9.188
 2649POPC   C1A35511  22.248   0.433   8.844
 2649POPC   D2A35512  22.468   0.518   8.443
 2649POPC   C3A35513  22.203   0.402   8.071
 2649POPC   C4A35514  22.393   0.460   7.681
 2649POPC   C1B35515  21.955   0.859   8.814
 2649POPC   C2B35516  21.896   0.614   8.455
 2649POPC   C3B35517  21.886   0.791   8.056
 2649POPC   C4B35518  21.875   0.547   7.651
 2650POPC   NC335519  10.117   9.346   9.395
 2650POPC   PO435520   9.734   8.864   9.571
 2650POPC   GL135521   9.650   9.052   9.186
 2650POPC   GL235522   9.910   8.840   9.071
 2650POPC   C1A35523   9.438   9.170   8.801
 2650POPC   D2A35524   9.563   9.379   8.417
 2650POPC   C3A35525   9.459   9.177   8.061
 2650POPC   C4A35526   9.280   9.218   7.658
 2650POPC   C1B35527   9.920   9.022   8.674
 2650POPC   C2B35528   9.941   9.051   8.236
 2650POPC   C3B35529  10.208   8.982   7.898
 2650POPC   C4B35530  10.216   8.950   7.440
 2651POPC   NC335531   9.546  21.001   9.462
 2651POPC   PO435532   9.848  20.435   9.711
 2651POPC   GL135533   9.743  20.507   9.267
 2651POPC   GL235534  10.004  20.358   9.056
 2651POPC   C1A35535   9.585  20.503   8.819
 2651POPC   D2A35536   9.763  20.321   8.445
 2651POPC   C3A35537   9.668  20.507   8.042
 2651POPC   C4A35538   9.405  20.716   7.731
 2651POPC   C1B35539  10.077  20.662   8.691
 2651POPC   C2B35540  10.162  20.659   8.233
 2651POPC   C3B35541  10.214  20.526   7.802
 2651POPC   C4B35542   9.867  20.511   7.560
 2652POPC   NC335543   1.734  29.851   9.398
 2652POPC   PO435544   2.123  30.215   9.640
 2652POPC   GL135545   2.184  30.007   9.169
 2652POPC   GL235546   1.946  29.774   8.969
 2652POPC   C1A35547   2.365  29.918   8.771
 2652POPC   D2A35548   2.049  29.896   8.489
 2652POPC   C3A35549   2.188  30.065   8.151
 2652POPC   C4A35550   2.177  29.964   7.757
 2652POPC   C1B35551   1.581  29.595   8.790
 2652POPC   C2B35552   1.585  29.474   8.394
 2652POPC   C3B35553   1.900  29.599   8.103
 2652POPC   C4B35554   1.872  29.572   7.681
 2653POPC   NC335555  10.733  12.360   9.437
 2653POPC   PO435556  10.321  11.795   9.432
 2653POPC   GL135557  10.341  12.123   9.147
 2653POPC   GL235558  10.022  12.240   9.080
 2653POPC   C1A35559  10.406  12.214   8.712
 2653POPC   D2A35560  10.703  12.040   8.437
 2653POPC   C3A35561  10.803  12.273   8.106
 2653POPC   C4A35562  10.732  12.140   7.723
 2653POPC   C1B35563  10.049  11.842   8.800
 2653POPC   C2B35564  10.252  11.797   8.406
 2653POPC   C3B35565  10.339  12.013   8.036
 2653POPC   C4B35566  10.257  11.690   7.683
 2654POPC   NC335567  23.844   4.984   9.585
 2654POPC   PO435568  23.312   5.293   9.777
 2654POPC   GL135569  23.411   5.044   9.284
 2654POPC   GL235570  23.598   4.729   9.206
 2654POPC   C1A35571  23.548   5.062   8.818
 2654POPC   D2A35572  23.830   5.074   8.441
 2654POPC   C3A35573  23.599   5.004   8.065
 2654POPC   C4A35574  23.441   5.046   7.656
 2654POPC   C1B35575  23.993   4.766   8.882
 2654POPC   C2B35576  24.149   4.688   8.424
 2654POPC   C3B35577  24.120   4.870   8.011
 2654POPC   C4B35578  23.994   5.307   7.911
 2655POPC   NC335579  27.776  11.293   9.535
 2655POPC   PO435580  27.203  11.503   9.510
 2655POPC   GL135581  27.394  11.294   9.149
 2655POPC   GL235582  27.659  11.067   9.095
 2655POPC   C1A35583  27.575  11.402   8.744
 2655POPC   D2A35584  27.474  11.206   8.344
 2655POPC   C3A35585  27.456  11.467   7.984
 2655POPC   C4A35586  27.710  11.565   7.611
 2655POPC   C1B35587  27.610  10.871   8.722
 2655POPC   C2B35588  27.836  10.847   8.318
 2655POPC   C3B35589  27.752  11.045   7.897
 2655POPC   C4B35590  27.401  11.137   7.592
 2656POPC   NC335591  11.323  31.887   9.680
 2656POPC   PO435592  11.263  32.498   9.465
 2656POPC   GL135593  11.210  32.328   9.086
 2656POPC   GL235594  11.247  31.962   9.180
 2656POPC   C1A35595  11.431  32.499   8.712
 2656POPC   D2A35596  11.661  32.496   8.308
 2656POPC   C3A35597  11.346  32.519   7.990
 2656POPC   C4A35598  11.021  32.235   7.958
 2656POPC   C1B35599  11.526  32.005   8.836
 2656POPC   C2B35600  11.413  32.033   8.433
 2656POPC   C3B35601  11.555  32.055   8.039
 2656POPC   C4B35602  11.378  31.997   7.660
 2657POPC   NC335603  18.171  15.444   9.726
 2657POPC   PO435604  17.927  15.973   9.345
 2657POPC   GL135605  18.336  16.021   9.126
 2657POPC   GL235606  18.586  15.758   9.118
 2657POPC   C1A35607  18.436  16.171   8.720
 2657POPC   D2A35608  18.412  15.953   8.318
 2657POPC   C3A35609  18.146  16.137   8.014
 2657POPC   C4A35610  18.433  16.285   7.712
 2657POPC   C1B35611  18.440  15.595   8.733
 2657POPC   C2B35612  18.065  15.608   8.477
 2657POPC   C3B35613  18.068  15.626   8.014
 2657POPC   C4B35614  18.427  15.779   7.734
 2658POPC   NC335615  20.777  17.282   9.590
 2658POPC   PO435616  20.263  17.688   9.719
 2658POPC   GL135617  20.333  17.448   9.332
 2658POPC   GL235618  20.644  17.603   9.188
 2658POPC   C1A35619  20.333  17.348   8.869
 2658POPC   D2A35620  20.635  17.290   8.531
 2658POPC   C3A35621  20.516  17.316   8.083
 2658POPC   C4A35622  20.681  17.280   7.651
 2658POPC   C1B35623  20.773  17.761   8.764
 2658POPC   C2B35624  20.833  17.698   8.301
 2658POPC   C3B35625  20.675  17.774   7.892
 2658POPC   C4B35626  20.879  17.873   7.510
 2659POPC   NC335627  25.407  32.815   9.463
 2659POPC   PO435628  25.236  33.501   9.577
 2659POPC   GL135629  25.137  33.237   9.179
 2659POPC   GL235630  25.096  32.851   9.058
 2659POPC   C1A35631  25.093  33.238   8.722
 2659POPC   D2A35632  25.028  32.845   8.493
 2659POPC   C3A35633  25.077  32.949   8.082
 2659POPC   C4A35634  24.962  33.243   7.796
 2659POPC   C1B35635  25.481  32.912   8.766
 2659POPC   C2B35636  25.530  32.817   8.303
 2659POPC   C3B35637  25.526  32.807   7.822
 2659POPC   C4B35638  25.616  32.797   7.360
 2660POPC   NC335639  35.709   6.873   9.514
 2660POPC   PO435640  35.170   6.456   9.448
 2660POPC   GL135641  35.398   6.583   9.129
 2660POPC   GL235642  35.707   6.462   9.189
 2660POPC   C1A35643  35.493   6.453   8.707
 2660POPC   D2A35644  35.318   6.713   8.410
 2660POPC   C3A35645  35.470   6.503   8.100
 2660POPC   C4A35646  35.508   6.525   7.699
 2660POPC   C1B35647  35.756   6.853   8.871
 2660POPC   C2B35648  35.831   6.801   8.419
 2660POPC   C3B35649  35.717   6.943   8.004
 2660POPC   C4B35650  35.974   7.197   7.775
 2661POPC   NC335651   4.836  34.597   9.555
 2661POPC   PO435652   5.481  34.698   9.656
 2661POPC   GL135653   5.276  34.678   9.230
 2661POPC   GL235654   4.937  34.789   9.087
 2661POPC   C1A35655   5.234  34.489   8.816
 2661POPC   D2A35656   4.954  34.266   8.533
 2661POPC   C3A35657   5.022  34.270   8.095
 2661POPC   C4A35658   5.158  34.409   7.667
 2661POPC   C1B35659   4.894  34.790   8.598
 2661POPC   C2B35660   4.830  34.749   8.163
 2661POPC   C3B35661   4.985  34.906   7.781
 2661POPC   C4B35662   4.936  34.759   7.366
 2662POPC   NC335663   2.165   4.758   9.831
 2662POPC   PO435664   1.790   5.189   9.607
 2662POPC   GL135665   1.857   5.331   9.132
 2662POPC   GL235666   2.204   5.250   9.047
 2662POPC   C1A35667   1.941   5.467   8.653
 2662POPC   D2A35668   2.071   5.252   8.247
 2662POPC   C3A35669   1.885   5.297   7.803
 2662POPC   C4A35670   1.855   5.291   7.323
 2662POPC   C1B35671   2.005   4.960   8.723
 2662POPC   C2B35672   1.945   4.741   8.307
 2662POPC   C3B35673   1.907   4.772   7.859
 2662POPC   C4B35674   2.132   4.544   7.560
 2663POPC   NC335675   0.162   7.963   9.574
 2663POPC   PO435676   0.464   8.514   9.361
 2663POPC   GL135677   0.410   8.206   9.099
 2663POPC   GL235678   0.569   7.911   9.242
 2663POPC   C1A35679   0.391   8.257   8.658
 2663POPC   D2A35680   0.087   8.490   8.425
 2663POPC   C3A35681   0.281   8.468   8.054
 2663POPC   C4A35682   0.259   8.344   7.692
 2663POPC   C1B35683   0.333   7.764   8.862
 2663POPC   C2B35684   0.466   7.772   8.458
 2663POPC   C3B35685   0.364   7.948   8.064
 2663POPC   C4B35686   0.682   8.146   7.863
 2664POPC   NC335687  15.398  19.465   9.533
 2664POPC   PO435688  15.009  20.023   9.447
 2664POPC   GL135689  15.091  19.776   9.100
 2664POPC   GL235690  14.813  19.715   8.940
 2664POPC   C1A35691  15.263  19.815   8.666
 2664POPC   D2A35692  15.091  19.813   8.258
 2664POPC   C3A35693  15.361  19.837   7.905
 2664POPC   C4A35694  15.621  19.628   7.602
 2664POPC   C1B35695  14.911  20.161   8.799
 2664POPC   C2B35696  14.993  20.324   8.393
 2664POPC   C3B35697  14.901  20.196   7.995
 2664POPC   C4B35698  14.954  19.943   7.639
 2665POPC   NC335699   3.648  44.443   9.493
 2665POPC   PO435700   3.533  43.757   9.531
 2665POPC   GL135701   3.415  43.798   9.135
 2665POPC   GL235702   3.402  44.155   9.130
 2665POPC   C1A35703   3.625  43.845   8.738
 2665POPC   D2A35704   3.754  44.027   8.360
 2665POPC   C3A35705   3.699  43.766   8.029
 2665POPC   C4A35706   3.525  43.584   7.693
 2665POPC   C1B35707   3.557  44.351   8.786
 2665POPC   C2B35708   3.531  44.466   8.369
 2665POPC   C3B35709   3.486  44.281   7.955
 2665POPC   C4B35710   3.675  44.055   7.609
 2666POPC   NC335711  20.404  21.544   9.498
 2666POPC   PO435712  20.999  21.613   9.769
 2666POPC   GL135713  20.789  21.304   9.343
 2666POPC   GL235714  20.559  21.524   9.018
 2666POPC   C1A35715  20.566  21.053   8.964
 2666POPC   D2A35716  20.297  21.258   8.648
 2666POPC   C3A35717  20.479  21.341   8.251
 2666POPC   C4A35718  20.375  21.202   7.851
 2666POPC   C1B35719  20.797  21.533   8.630
 2666POPC   C2B35720  20.831  21.725   8.207
 2666POPC   C3B35721  20.583  21.654   7.833
 2666POPC   C4B35722  20.624  21.710   7.387
 2667POPC   NC335723  16.702  14.658   9.412
 2667POPC   PO435724  16.692  15.349   9.472
 2667POPC   GL135725  16.807  15.293   9.093
 2667POPC   GL235726  17.010  14.983   9.175
 2667POPC   C1A35727  16.825  15.578   8.727
 2667POPC   D2A35728  16.627  15.627   8.316
 2667POPC   C3A35729  16.807  15.290   8.052
 2667POPC   C4A35730  16.958  15.330   7.615
 2667POPC   C1B35731  16.786  14.886   8.780
 2667POPC   C2B35732  16.541  15.149   8.520
 2667POPC   C3B35733  16.290  15.204   8.167
 2667POPC   C4B35734  16.418  15.080   7.761
 2668POPC   NC335735  36.990  28.656   9.385
 2668POPC   PO435736  37.463  28.204   9.225
 2668POPC   GL135737  37.200  28.080   8.909
 2668POPC   GL235738  36.914  28.024   9.117
 2668POPC   C1A35739  37.159  28.223   8.450
 2668POPC   D2A35740  37.191  28.620   8.186
 2668POPC   C3A35741  36.902  28.571   7.847
 2668POPC   C4A35742  36.812  28.119   7.854
 2668POPC   C1B35743  36.659  27.977   8.755
 2668POPC   C2B35744  36.515  28.099   8.325
 2668POPC   C3B35745  36.391  28.373   7.981
 2668POPC   C4B35746  36.519  28.367   7.542
 2669POPC   NC335747  16.112  13.107   9.399
 2669POPC   PO435748  15.708  12.707   9.712
 2669POPC   GL135749  15.869  12.652   9.286
 2669POPC   GL235750  16.232  12.622   9.198
 2669POPC   C1A35751  15.842  12.823   8.869
 2669POPC   D2A35752  15.692  13.085   8.546
 2669POPC   C3A35753  15.682  12.830   8.175
 2669POPC   C4A35754  15.672  12.966   7.798
 2669POPC   C1B35755  16.282  12.595   8.725
 2669POPC   C2B35756  16.176  12.778   8.278
 2669POPC   C3B35757  16.168  12.859   7.793
 2669POPC   C4B35758  16.216  12.650   7.377
 2670POPC   NC335759  24.898   3.794   9.588
 2670POPC   PO435760  24.201   3.538   9.583
 2670POPC   GL135761  24.481   3.691   9.279
 2670POPC   GL235762  24.784   3.507   9.173
 2670POPC   C1A35763  24.411   3.848   8.906
 2670POPC   D2A35764  24.406   3.869   8.472
 2670POPC   C3A35765  24.445   3.539   8.194
 2670POPC   C4A35766  24.477   3.706   7.786
 2670POPC   C1B35767  24.646   3.427   8.735
 2670POPC   C2B35768  24.859   3.301   8.366
 2670POPC   C3B35769  24.889   3.181   7.933
 2670POPC   C4B35770  24.881   3.300   7.473
 2671POPC   NC335771  14.657  23.443   9.515
 2671POPC   PO435772  14.571  24.120   9.537
 2671POPC   GL135773  14.640  23.867   9.154
 2671POPC   GL235774  14.425  23.596   9.068
 2671POPC   C1A35775  14.499  23.895   8.693
 2671POPC   D2A35776  14.273  23.610   8.425
 2671POPC   C3A35777  14.395  23.763   8.058
 2671POPC   C4A35778  14.540  24.040   7.752
 2671POPC   C1B35779  14.172  23.276   8.792
 2671POPC   C2B35780  14.015  23.120   8.394
 2671POPC   C3B35781  14.001  23.381   8.042
 2671POPC   C4B35782  14.239  23.480   7.678
 2672POPC   NC335783   5.429  32.478   9.462
 2672POPC   PO435784   4.843  32.020   9.654
 2672POPC   GL135785   4.781  32.130   9.237
 2672POPC   GL235786   5.084  32.249   9.140
 2672POPC   C1A35787   4.731  32.261   8.790
 2672POPC   D2A35788   4.864  32.141   8.382
 2672POPC   C3A35789   4.902  32.339   7.994
 2672POPC   C4A35790   4.958  32.267   7.551
 2672POPC   C1B35791   5.245  32.362   8.696
 2672POPC   C2B35792   5.347  32.306   8.236
 2672POPC   C3B35793   5.372  32.476   7.780
 2672POPC   C4B35794   5.328  32.545   7.295
 2673POPC   NC335795  23.156  12.668   9.467
 2673POPC   PO435796  22.563  12.489   9.384
 2673POPC   GL135797  22.905  12.556   9.068
 2673POPC   GL235798  22.828  12.847   9.028
 2673POPC   C1A35799  23.171  12.664   8.696
 2673POPC   D2A35800  22.978  12.589   8.305
 2673POPC   C3A35801  22.959  12.908   8.036
 2673POPC   C4A35802  22.958  13.151   7.687
 2673POPC   C1B35803  22.619  12.568   8.669
 2673POPC   C2B35804  22.498  12.351   8.312
 2673POPC   C3B35805  22.628  12.463   7.903
 2673POPC   C4B35806  22.838  12.660   7.584
 2674POPC   NC335807   1.859  40.228   9.620
 2674POPC   PO435808   2.461  40.271   9.437
 2674POPC   GL135809   2.100  40.032   9.210
 2674POPC   GL235810   1.692  40.104   9.157
 2674POPC   C1A35811   2.017  40.008   8.756
 2674POPC   D2A35812   2.082  39.658   8.468
 2674POPC   C3A35813   1.839  39.714   8.135
 2674POPC   C4A35814   2.095  39.813   7.786
 2674POPC   C1B35815   1.458  40.228   8.772
 2674POPC   C2B35816   1.640  40.234   8.352
 2674POPC   C3B35817   1.988  40.243   8.042
 2674POPC   C4B35818   1.937  40.263   7.579
 2675POPC   NC335819  21.104   0.671   9.513
 2675POPC   PO435820  21.346   0.082   9.578
 2675POPC   GL135821  21.458   0.147   9.183
 2675POPC   GL235822  21.429   0.502   9.155
 2675POPC   C1A35823  21.681   0.232   8.795
 2675POPC   D2A35824  21.448   0.330   8.431
 2675POPC   C3A35825  21.634   0.326   8.066
 2675POPC   C4A35826  21.342   0.287   7.754
 2675POPC   C1B35827  21.471   0.711   8.761
 2675POPC   C2B35828  21.369   0.815   8.313
 2675POPC   C3B35829  21.437   0.772   7.846
 2675POPC   C4B35830  21.392   0.656   7.408
 2676POPC   NC335831  15.755  35.159   9.856
 2676POPC   PO435832  15.993  35.701   9.570
 2676POPC   GL135833  16.178  35.458   9.212
 2676POPC   GL235834  16.202  35.051   9.210
 2676POPC   C1A35835  16.115  35.330   8.770
 2676POPC   D2A35836  15.904  35.304   8.347
 2676POPC   C3A35837  15.969  35.607   8.027
 2676POPC   C4A35838  15.810  35.652   7.585
 2676POPC   C1B35839  16.397  34.908   8.790
 2676POPC   C2B35840  16.357  35.070   8.371
 2676POPC   C3B35841  16.332  35.262   8.004
 2676POPC   C4B35842  16.046  35.194   7.708
 2677POPC   NC335843  27.864   0.063   9.431
 2677POPC   PO435844  27.375  44.659   9.661
 2677POPC   GL135845  27.409  44.599   9.243
 2677POPC   GL235846  27.187  44.827   9.128
 2677POPC   C1A35847  27.655  44.617   8.857
 2677POPC   D2A35848  27.831  44.498   8.463
 2677POPC   C3A35849  27.695  44.728   8.137
 2677POPC   C4A35850  27.571  44.520   7.814
 2677POPC   C1B35851  27.253  44.932   8.738
 2677POPC   C2B35852  27.394   0.075   8.341
 2677POPC   C3B35853  27.228  44.888   7.944
 2677POPC   C4B35854  27.355  44.852   7.483
 2678POPC   NC335855  13.537  32.703   9.367
 2678POPC   PO435856  13.581  32.066   9.618
 2678POPC   GL135857  13.688  31.984   9.190
 2678POPC   GL235858  13.680  32.306   9.041
 2678POPC   C1A35859  13.579  31.868   8.774
 2678POPC   D2A35860  13.608  32.225   8.476
 2678POPC   C3A35861  13.514  32.333   8.050
 2678POPC   C4A35862  13.526  32.100   7.682
 2678POPC   C1B35863  13.931  32.565   8.767
 2678POPC   C2B35864  13.845  32.666   8.337
 2678POPC   C3B35865  13.964  32.585   7.923
 2678POPC   C4B35866  13.675  32.586   7.594
 2679POPC   NC335867  15.573  21.847   9.629
 2679POPC   PO435868  14.862  21.692   9.464
 2679POPC   GL135869  15.216  21.528   9.222
 2679POPC   GL235870  15.484  21.789   9.143
 2679POPC   C1A35871  15.273  21.186   8.930
 2679POPC   D2A35872  15.434  21.034   8.545
 2679POPC   C3A35873  15.229  20.911   8.164
 2679POPC   C4A35874  15.394  20.989   7.752
 2679POPC   C1B35875  15.495  21.889   8.731
 2679POPC   C2B35876  15.314  21.544   8.546
 2679POPC   C3B35877  15.360  21.406   8.156
 2679POPC   C4B35878  15.182  21.455   7.790
 2680POPC   NC335879  36.792  40.509   9.535
 2680POPC   PO435880  37.440  40.732   9.689
 2680POPC   GL135881  37.186  40.848   9.278
 2680POPC   GL235882  36.812  40.905   9.211
 2680POPC   C1A35883  37.111  40.763   8.814
 2680POPC   D2A35884  36.926  40.823   8.391
 2680POPC   C3A35885  37.115  40.604   8.025
 2680POPC   C4A35886  36.868  40.519   7.672
 2680POPC   C1B35887  36.593  40.814   8.813
 2680POPC   C2B35888  36.491  41.135   8.511
 2680POPC   C3B35889  36.681  41.232   8.149
 2680POPC   C4B35890  36.670  40.930   7.875
 2681POPC   NC335891  37.877  28.195   9.435
 2681POPC   PO435892  37.476  28.730   9.457
 2681POPC   GL135893  37.798  28.568   9.069
 2681POPC   GL235894  37.884  28.190   8.938
 2681POPC   C1A35895  37.758  28.597   8.608
 2681POPC   D2A35896  37.649  28.395   8.231
 2681POPC   C3A35897  37.681  28.516   7.838
 2681POPC   C4A35898  37.315  28.269   7.816
 2681POPC   C1B35899  37.634  28.059   8.616
 2681POPC   C2B35900  37.663  27.867   8.242
 2681POPC   C3B35901  37.764  27.999   7.832
 2681POPC   C4B35902  37.901  28.069   7.416
 2682POPC   NC335903  26.504  19.037   9.421
 2682POPC   PO435904  27.209  19.132   9.383
 2682POPC   GL135905  27.015  19.168   9.016
 2682POPC   GL235906  26.800  19.395   9.138
 2682POPC   C1A35907  26.721  18.927   8.761
 2682POPC   D2A35908  26.613  18.712   8.359
 2682POPC   C3A35909  26.959  18.755   8.054
 2682POPC   C4A35910  27.071  19.062   7.753
 2682POPC   C1B35911  26.539  19.455   8.788
 2682POPC   C2B35912  26.541  19.237   8.389
 2682POPC   C3B35913  26.578  19.098   7.966
 2682POPC   C4B35914  26.698  19.434   7.688
 2683POPC   NC335915   3.628   8.095   9.471
 2683POPC   PO435916   2.985   8.014   9.457
 2683POPC   GL135917   3.293   7.943   9.119
 2683POPC   GL235918   3.457   8.287   9.028
 2683POPC   C1A35919   3.510   7.875   8.736
 2683POPC   D2A35920   3.287   7.918   8.352
 2683POPC   C3A35921   3.493   8.022   7.985
 2683POPC   C4A35922   3.438   8.198   7.543
 2683POPC   C1B35923   3.352   8.364   8.583
 2683POPC   C2B35924   3.641   8.443   8.240
 2683POPC   C3B35925   3.629   8.603   7.822
 2683POPC   C4B35926   3.501   8.708   7.420
 2684POPC   NC335927  35.042  18.465   9.456
 2684POPC   PO435928  34.508  18.003   9.500
 2684POPC   GL135929  34.604  18.338   9.217
 2684POPC   GL235930  34.856  18.106   9.074
 2684POPC   C1A35931  34.632  18.473   8.776
 2684POPC   D2A35932  34.803  18.279   8.408
 2684POPC   C3A35933  34.609  18.406   8.052
 2684POPC   C4A35934  34.585  18.216   7.651
 2684POPC   C1B35935  34.425  18.017   8.850
 2684POPC   C2B35936  34.274  18.204   8.445
 2684POPC   C3B35937  34.201  18.073   8.020
 2684POPC   C4B35938  34.246  17.816   7.657
 2685POPC   NC335939  21.856  14.141   9.560
 2685POPC   PO435940  22.395  14.502   9.420
 2685POPC   GL135941  22.056  14.307   9.122
 2685POPC   GL235942  21.666  14.176   9.104
 2685POPC   C1A35943  22.016  14.407   8.715
 2685POPC   D2A35944  22.277  14.608   8.442
 2685POPC   C3A35945  22.331  14.578   8.004
 2685POPC   C4A35946  22.257  14.237   7.732
 2685POPC   C1B35947  21.527  14.469   8.783
 2685POPC   C2B35948  21.642  14.405   8.352
 2685POPC   C3B35949  21.837  14.414   7.963
 2685POPC   C4B35950  21.770  14.260   7.560
 2686POPC   NC335951  23.017   5.543   9.517
 2686POPC   PO435952  22.646   6.126   9.557
 2686POPC   GL135953  22.683   5.956   9.129
 2686POPC   GL235954  22.700   5.594   9.108
 2686POPC   C1A35955  22.810   6.160   8.736
 2686POPC   D2A35956  23.133   6.176   8.421
 2686POPC   C3A35957  22.999   6.107   7.976
 2686POPC   C4A35958  22.968   5.929   7.500
 2686POPC   C1B35959  22.864   5.657   8.720
 2686POPC   C2B35960  22.975   5.677   8.268
 2686POPC   C3B35961  22.900   5.576   7.846
 2686POPC   C4B35962  22.702   5.500   7.421
 2687POPC   NC335963  41.636  28.086   9.509
 2687POPC   PO435964  41.378  28.705   9.456
 2687POPC   GL135965  41.549  28.440   9.148
 2687POPC   GL235966  41.337  28.186   9.067
 2687POPC   C1A35967  41.816  28.386   8.802
 2687POPC   D2A35968  41.844  28.208   8.396
 2687POPC   C3A35969  41.788  28.402   8.010
 2687POPC   C4A35970  41.665  28.232   7.636
 2687POPC   C1B35971  41.342  28.232   8.632
 2687POPC   C2B35972  41.269  28.275   8.189
 2687POPC   C3B35973  41.194  28.393   7.773
 2687POPC   C4B35974  41.099  28.758   7.527
 2688POPC   NC335975  43.202  23.695   9.549
 2688POPC   PO435976  42.560  23.478   9.463
 2688POPC   GL135977  42.886  23.680   9.139
 2688POPC   GL235978  43.222  23.525   9.088
 2688POPC   C1A35979  43.020  23.964   8.786
 2688POPC   D2A35980  43.226  23.915   8.394
 2688POPC   C3A35981  43.092  23.984   7.980
 2688POPC   C4A35982  43.089  23.779   7.562
 2688POPC   C1B35983  43.428  23.591   8.754
 2688POPC   C2B35984  43.414  23.431   8.345
 2688POPC   C3B35985  43.405  23.580   7.947
 2688POPC   C4B35986  43.699  23.634   7.616
 2689POPC   NC335987  40.945   7.152   9.386
 2689POPC   PO435988  40.756   7.793   9.421
 2689POPC   GL135989  40.719   7.467   9.067
 2689POPC   GL235990  40.531   7.119   9.103
 2689POPC   C1A35991  40.974   7.252   8.733
 2689POPC   D2A35992  40.875   7.100   8.318
 2689POPC   C3A35993  41.030   7.349   7.980
 2689POPC   C4A35994  40.835   7.422   7.584
 2689POPC   C1B35995  40.479   7.184   8.672
 2689POPC   C2B35996  40.348   7.128   8.264
 2689POPC   C3B35997  40.553   7.162   7.922
 2689POPC   C4B35998  40.531   7.018   7.544
 2690POPC   NC335999  13.790   6.590   9.498
 2690POPC   PO436000  13.273   6.892   9.646
 2690POPC   GL136001  13.427   6.777   9.208
 2690POPC   GL236002  13.182   6.544   9.065
 2690POPC   C1A36003  13.778   6.769   8.861
 2690POPC   D2A36004  13.931   6.609   8.447
 2690POPC   C3A36005  13.941   6.907   8.127
 2690POPC   C4A36006  13.851   6.852   7.718
 2690POPC   C1B36007  13.286   6.858   8.737
 2690POPC   C2B36008  13.481   6.854   8.341
 2690POPC   C3B36009  13.593   6.522   8.041
 2690POPC   C4B36010  13.413   6.617   7.638
 2691POPC   NC336011   1.205  24.392   9.829
 2691POPC   PO436012   1.276  25.049   9.603
 2691POPC   GL136013   1.458  24.716   9.262
 2691POPC   GL236014   1.213  24.457   9.131
 2691POPC   C1A36015   1.580  24.595   8.785
 2691POPC   D2A36016   1.485  24.726   8.313
 2691POPC   C3A36017   1.448  24.460   7.920
 2691POPC   C4A36018   1.539  24.348   7.467
 2691POPC   C1B36019   0.929  24.547   8.769
 2691POPC   C2B36020   0.754  24.579   8.392
 2691POPC   C3B36021   0.913  24.440   8.001
 2691POPC   C4B36022   0.778  24.682   7.681
 2692POPC   NC336023   0.711   6.316   9.507
 2692POPC   PO436024   0.161   6.643   9.512
 2692POPC   GL136025   0.317   6.723   9.108
 2692POPC   GL236026   0.693   6.670   9.134
 2692POPC   C1A36027   0.406   6.633   8.682
 2692POPC   D2A36028   0.175   6.452   8.309
 2692POPC   C3A36029   0.373   6.593   7.960
 2692POPC   C4A36030   0.297   6.647   7.557
 2692POPC   C1B36031   0.810   6.973   8.837
 2692POPC   C2B36032   1.000   6.981   8.452
 2692POPC   C3B36033   0.787   6.938   8.063
 2692POPC   C4B36034   0.506   7.056   7.746
 2693POPC   NC336035  22.301  20.132   9.486
 2693POPC   PO436036  21.819  19.626   9.537
 2693POPC   GL136037  22.015  19.792   9.148
 2693POPC   GL236038  22.406  19.743   9.146
 2693POPC   C1A36039  22.111  19.689   8.701
 2693POPC   D2A36040  22.511  19.736   8.439
 2693POPC   C3A36041  22.450  19.616   7.994
 2693POPC   C4A36042  22.023  19.641   7.852
 2693POPC   C1B36043  22.401  20.085   8.839
 2693POPC   C2B36044  22.196  20.154   8.433
 2693POPC   C3B36045  22.262  20.101   8.004
 2693POPC   C4B36046  22.546  20.133   7.655
 2694POPC   NC336047  28.626  24.982   9.605
 2694POPC   PO436048  28.196  24.475   9.507
 2694POPC   GL136049  28.354  24.378   9.127
 2694POPC   GL236050  28.672  24.551   9.178
 2694POPC   C1A36051  28.555  24.232   8.774
 2694POPC   D2A36052  28.428  24.522   8.457
 2694POPC   C3A36053  28.303  24.344   8.103
 2694POPC   C4A36054  28.420  24.447   7.660
 2694POPC   C1B36055  28.857  24.635   8.747
 2694POPC   C2B36056  28.924  24.344   8.374
 2694POPC   C3B36057  28.815  24.230   7.920
 2694POPC   C4B36058  28.726  24.088   7.479
 2695POPC   NC336059  39.499  19.562   9.495
 2695POPC   PO436060  38.886  19.814   9.481
 2695POPC   GL136061  39.078  19.669   9.121
 2695POPC   GL236062  39.439  19.755   9.048
 2695POPC   C1A36063  39.131  19.646   8.690
 2695POPC   D2A36064  39.430  19.797   8.399
 2695POPC   C3A36065  39.242  19.893   8.055
 2695POPC   C4A36066  39.084  19.813   7.671
 2695POPC   C1B36067  39.744  19.934   8.775
 2695POPC   C2B36068  39.703  20.232   8.469
 2695POPC   C3B36069  39.737  20.119   8.078
 2695POPC   C4B36070  39.541  20.067   7.696
 2696POPC   NC336071  29.714  33.176   9.532
 2696POPC   PO436072  30.026  32.649   9.494
 2696POPC   GL136073  29.798  32.835   9.149
 2696POPC   GL236074  30.045  33.100   9.141
 2696POPC   C1A36075  29.788  33.033   8.720
 2696POPC   D2A36076  30.062  33.009   8.375
 2696POPC   C3A36077  29.847  32.873   8.050
 2696POPC   C4A36078  29.878  32.944   7.656
 2696POPC   C1B36079  30.231  32.780   8.809
 2696POPC   C2B36080  30.389  32.608   8.399
 2696POPC   C3B36081  30.319  32.752   7.952
 2696POPC   C4B36082  30.249  32.709   7.437
 2697POPC   NC336083  30.317   0.913   9.451
 2697POPC   PO436084  30.708   1.487   9.650
 2697POPC   GL136085  30.537   1.242   9.169
 2697POPC   GL236086  30.798   1.030   8.996
 2697POPC   C1A36087  30.567   1.316   8.669
 2697POPC   D2A36088  30.815   1.269   8.348
 2697POPC   C3A36089  30.591   1.247   8.001
 2697POPC   C4A36090  30.422   1.470   7.666
 2697POPC   C1B36091  30.415   0.857   8.809
 2697POPC   C2B36092  30.374   0.912   8.376
 2697POPC   C3B36093  30.734   0.782   8.191
 2697POPC   C4B36094  30.800   0.803   7.778
 2698POPC   NC336095  11.096  29.079   9.441
 2698POPC   PO436096  11.707  29.276   9.362
 2698POPC   GL136097  11.525  29.043   9.042
 2698POPC   GL236098  11.170  28.885   8.998
 2698POPC   C1A36099  11.365  29.254   8.679
 2698POPC   D2A36100  11.287  29.435   8.274
 2698POPC   C3A36101  11.588  29.282   7.990
 2698POPC   C4A36102  11.542  29.174   7.573
 2698POPC   C1B36103  11.350  28.721   8.677
 2698POPC   C2B36104  11.451  28.905   8.308
 2698POPC   C3B36105  11.229  28.929   7.936
 2698POPC   C4B36106  11.441  28.678   7.712
 2699POPC   NC336107  28.365   9.213   9.460
 2699POPC   PO436108  28.392   8.496   9.520
 2699POPC   GL136109  28.361   8.677   9.117
 2699POPC   GL236110  28.508   8.976   9.044
 2699POPC   C1A36111  28.103   8.638   8.752
 2699POPC   D2A36112  27.872   8.815   8.388
 2699POPC   C3A36113  28.033   8.632   8.006
 2699POPC   C4A36114  28.351   8.868   7.785
 2699POPC   C1B36115  28.331   9.154   8.692
 2699POPC   C2B36116  28.253   9.118   8.274
 2699POPC   C3B36117  27.950   9.127   7.954
 2699POPC   C4B36118  28.104   9.248   7.549
 2700POPC   NC336119  41.039  11.385   9.670
 2700POPC   PO436120  40.364  11.407   9.474
 2700POPC   GL136121  40.727  11.233   9.243
 2700POPC   GL236122  40.973  11.475   9.180
 2700POPC   C1A36123  40.958  11.070   8.857
 2700POPC   D2A36124  40.778  10.981   8.431
 2700POPC   C3A36125  41.002  11.078   8.031
 2700POPC   C4A36126  40.863  11.062   7.574
 2700POPC   C1B36127  40.924  11.631   8.784
 2700POPC   C2B36128  41.173  11.751   8.439
 2700POPC   C3B36129  40.964  11.657   8.070
 2700POPC   C4B36130  40.683  11.457   7.823
 2701POPC   NC336131  27.389   9.404   9.360
 2701POPC   PO436132  27.593  10.010   9.609
 2701POPC   GL136133  27.702   9.808   9.221
 2701POPC   GL236134  27.379   9.867   9.011
 2701POPC   C1A36135  27.744   9.609   8.804
 2701POPC   D2A36136  27.433   9.718   8.487
 2701POPC   C3A36137  27.623   9.750   8.125
 2701POPC   C4A36138  27.743   9.539   7.755
 2701POPC   C1B36139  27.069  10.012   8.689
 2701POPC   C2B36140  27.178  10.122   8.252
 2701POPC   C3B36141  27.371  10.108   7.865
 2701POPC   C4B36142  27.810  10.066   7.780
 2702POPC   NC336143   8.470   1.662   9.720
 2702POPC   PO436144   8.111   2.213   9.441
 2702POPC   GL136145   8.367   2.059   9.120
 2702POPC   GL236146   8.416   1.722   9.226
 2702POPC   C1A36147   8.505   2.079   8.677
 2702POPC   D2A36148   8.581   2.048   8.219
 2702POPC   C3A36149   8.363   2.140   7.831
 2702POPC   C4A36150   8.028   2.057   7.554
 2702POPC   C1B36151   8.438   1.563   8.832
 2702POPC   C2B36152   8.305   1.613   8.421
 2702POPC   C3B36153   8.449   1.581   8.021
 2702POPC   C4B36154   8.370   1.648   7.615
 2703POPC   NC336155  39.504  27.013   9.869
 2703POPC   PO436156  38.985  26.655   9.762
 2703POPC   GL136157  38.893  26.520   9.308
 2703POPC   GL236158  38.990  26.855   9.210
 2703POPC   C1A36159  39.091  26.519   8.864
 2703POPC   D2A36160  39.369  26.695   8.533
 2703POPC   C3A36161  39.375  26.539   8.113
 2703POPC   C4A36162  39.236  26.743   7.726
 2703POPC   C1B36163  39.077  27.047   8.792
 2703POPC   C2B36164  39.061  27.067   8.336
 2703POPC   C3B36165  39.431  27.036   8.089
 2703POPC   C4B36166  39.745  26.843   7.777
 2704POPC   NC336167  41.756  20.238   9.493
 2704POPC   PO436168  41.433  20.880   9.477
 2704POPC   GL136169  41.479  20.544   9.187
 2704POPC   GL236170  41.817  20.622   9.148
 2704POPC   C1A36171  41.567  20.360   8.771
 2704POPC   D2A36172  41.446  20.509   8.364
 2704POPC   C3A36173  41.488  20.292   7.949
 2704POPC   C4A36174  41.401  20.655   7.687
 2704POPC   C1B36175  41.995  20.646   8.755
 2704POPC   C2B36176  41.985  20.468   8.374
 2704POPC   C3B36177  41.847  20.629   8.010
 2704POPC   C4B36178  41.882  20.408   7.625
 2705POPC   NC336179  15.650  40.637   9.408
 2705POPC   PO436180  16.154  40.965   9.146
 2705POPC   GL136181  15.872  40.811   8.966
 2705POPC   GL236182  15.622  41.032   9.081
 2705POPC   C1A36183  16.000  40.792   8.536
 2705POPC   D2A36184  16.190  40.544   8.299
 2705POPC   C3A36185  15.901  40.371   8.050
 2705POPC   C4A36186  16.086  40.470   7.679
 2705POPC   C1B36187  15.646  41.146   8.640
 2705POPC   C2B36188  15.825  41.171   8.250
 2705POPC   C3B36189  15.931  40.892   7.942
 2705POPC   C4B36190  16.246  40.949   7.650
 2706POPC   NC336191   5.485   5.859   9.493
 2706POPC   PO436192   4.906   6.291   9.518
 2706POPC   GL136193   5.084   6.057   9.175
 2706POPC   GL236194   5.014   5.722   8.988
 2706POPC   C1A36195   5.191   6.165   8.782
 2706POPC   D2A36196   4.934   6.109   8.452
 2706POPC   C3A36197   5.128   5.937   8.124
 2706POPC   C4A36198   4.979   5.860   7.732
 2706POPC   C1B36199   5.124   5.633   8.553
 2706POPC   C2B36200   5.540   5.522   8.350
 2706POPC   C3B36201   5.670   5.396   7.937
 2706POPC   C4B36202   5.405   5.394   7.553
 2707POPC   NC336203  19.972   8.685   9.931
 2707POPC   PO436204  20.222   9.201   9.706
 2707POPC   GL136205  20.098   9.202   9.274
 2707POPC   GL236206  20.440   9.172   9.207
 2707POPC   C1A36207  19.828   9.035   8.900
 2707POPC   D2A36208  19.932   8.841   8.490
 2707POPC   C3A36209  19.699   8.788   8.093
 2707POPC   C4A36210  19.723   8.509   7.702
 2707POPC   C1B36211  20.342   8.973   8.851
 2707POPC   C2B36212  20.383   9.082   8.457
 2707POPC   C3B36213  20.120   9.127   8.099
 2707POPC   C4B36214  20.031   8.917   7.694
 2708POPC   NC336215  17.728  35.536   9.505
 2708POPC   PO436216  17.077  35.521   9.401
 2708POPC   GL136217  17.299  35.636   9.014
 2708POPC   GL236218  17.318  35.321   8.767
 2708POPC   C1A36219  17.284  35.780   8.573
 2708POPC   D2A36220  17.408  35.566   8.242
 2708POPC   C3A36221  17.437  35.652   7.826
 2708POPC   C4A36222  17.796  35.343   7.802
 2708POPC   C1B36223  17.263  34.870   8.592
 2708POPC   C2B36224  17.242  34.882   8.155
 2708POPC   C3B36225  17.320  35.175   7.894
 2708POPC   C4B36226  17.098  35.355   7.557
 2709POPC   NC336227  35.553  42.024   9.385
 2709POPC   PO436228  35.130  42.429   9.740
 2709POPC   GL136229  35.259  42.552   9.251
 2709POPC   GL236230  35.289  42.281   9.036
 2709POPC   C1A36231  35.417  42.673   8.797
 2709POPC   D2A36232  35.189  42.667   8.385
 2709POPC   C3A36233  35.336  42.484   8.004
 2709POPC   C4A36234  35.230  42.442   7.563
 2709POPC   C1B36235  35.558  42.056   8.755
 2709POPC   C2B36236  35.889  42.056   8.526
 2709POPC   C3B36237  35.885  41.987   8.086
 2709POPC   C4B36238  35.517  42.038   7.811
 2710POPC   NC336239  29.404  31.303   9.427
 2710POPC   PO436240  28.784  31.644   9.545
 2710POPC   GL136241  29.043  31.599   9.200
 2710POPC   GL236242  29.016  31.288   9.033
 2710POPC   C1A36243  29.243  31.663   8.807
 2710POPC   D2A36244  29.207  31.814   8.416
 2710POPC   C3A36245  29.204  31.551   8.049
 2710POPC   C4A36246  29.223  31.678   7.616
 2710POPC   C1B36247  29.298  31.149   8.732
 2710POPC   C2B36248  29.173  31.124   8.328
 2710POPC   C3B36249  29.434  31.070   7.996
 2710POPC   C4B36250  29.527  31.260   7.638
 2711POPC   NC336251  29.654  38.044   9.630
 2711POPC   PO436252  29.755  37.322   9.560
 2711POPC   GL136253  29.840  37.582   9.202
 2711POPC   GL236254  30.005  37.875   9.282
 2711POPC   C1A36255  29.940  37.454   8.773
 2711POPC   D2A36256  29.739  37.225   8.409
 2711POPC   C3A36257  29.817  37.372   7.967
 2711POPC   C4A36258  29.793  37.379   7.494
 2711POPC   C1B36259  29.971  37.986   8.852
 2711POPC   C2B36260  30.092  37.839   8.453
 2711POPC   C3B36261  30.016  37.861   8.026
 2711POPC   C4B36262  30.196  37.614   7.691
 2712POPC   NC336263  33.616  11.478   9.542
 2712POPC   PO436264  33.723  10.878   9.346
 2712POPC   GL136265  33.929  11.126   9.052
 2712POPC   GL236266  33.988  11.427   9.208
 2712POPC   C1A36267  33.732  11.404   8.706
 2712POPC   D2A36268  33.674  11.562   8.249
 2712POPC   C3A36269  33.773  11.273   7.894
 2712POPC   C4A36270  34.031  11.148   7.539
 2712POPC   C1B36271  34.206  11.531   8.842
 2712POPC   C2B36272  34.101  11.737   8.492
 2712POPC   C3B36273  34.175  11.493   8.127
 2712POPC   C4B36274  34.111  11.631   7.734
 2713POPC   NC336275   8.027  10.249   9.496
 2713POPC   PO436276   8.280   9.624   9.639
 2713POPC   GL136277   8.265   9.823   9.216
 2713POPC   GL236278   8.410  10.153   9.148
 2713POPC   C1A36279   8.329   9.661   8.807
 2713POPC   D2A36280   8.204   9.772   8.399
 2713POPC   C3A36281   8.057   9.542   8.021
 2713POPC   C4A36282   7.724   9.734   7.778
 2713POPC   C1B36283   8.081  10.142   8.795
 2713POPC   C2B36284   8.120  10.295   8.357
 2713POPC   C3B36285   8.139  10.034   7.965
 2713POPC   C4B36286   8.219   9.924   7.533
 2714POPC   NC336287  20.873   0.000   9.574
 2714POPC   PO436288  20.390  44.574   9.294
 2714POPC   GL136289  20.462  44.670   8.935
 2714POPC   GL236290  20.806  44.741   8.985
 2714POPC   C1A36291  20.639  44.439   8.584
 2714POPC   D2A36292  21.007  44.584   8.405
 2714POPC   C3A36293  20.678  44.743   8.160
 2714POPC   C4A36294  20.594  44.641   7.766
 2714POPC   C1B36295  20.737  44.993   8.649
 2714POPC   C2B36296  20.994   0.108   8.336
 2714POPC   C3B36297  20.911   0.107   7.921
 2714POPC   C4B36298  20.902  44.992   7.514
 2715POPC   NC336299   3.265  31.174   9.499
 2715POPC   PO436300   3.441  31.886   9.511
 2715POPC   GL136301   3.398  31.577   9.189
 2715POPC   GL236302   3.709  31.344   9.189
 2715POPC   C1A36303   3.355  31.402   8.780
 2715POPC   D2A36304   3.567  31.487   8.406
 2715POPC   C3A36305   3.356  31.544   8.035
 2715POPC   C4A36306   3.268  31.319   7.679
 2715POPC   C1B36307   3.825  31.667   8.848
 2715POPC   C2B36308   4.067  31.726   8.453
 2715POPC   C3B36309   3.900  31.697   8.025
 2715POPC   C4B36310   3.766  31.321   7.849
 2716POPC   NC336311  31.044  16.834   9.787
 2716POPC   PO436312  30.526  16.370   9.645
 2716POPC   GL136313  30.643  16.518   9.238
 2716POPC   GL236314  30.778  16.866   9.224
 2716POPC   C1A36315  30.473  16.663   8.824
 2716POPC   D2A36316  30.701  16.712   8.428
 2716POPC   C3A36317  30.539  16.619   8.052
 2716POPC   C4A36318  30.371  16.864   7.757
 2716POPC   C1B36319  30.813  17.058   8.797
 2716POPC   C2B36320  30.748  17.239   8.408
 2716POPC   C3B36321  30.773  17.082   7.989
 2716POPC   C4B36322  31.123  17.078   7.708
 2717POPC   NC336323  15.199  17.170   9.712
 2717POPC   PO436324  14.971  16.696   9.405
 2717POPC   GL136325  15.101  16.847   9.082
 2717POPC   GL236326  15.489  16.803   9.114
 2717POPC   C1A36327  14.929  16.861   8.688
 2717POPC   D2A36328  15.092  16.762   8.292
 2717POPC   C3A36329  14.831  16.776   7.953
 2717POPC   C4A36330  14.830  16.541   7.570
 2717POPC   C1B36331  15.345  16.565   8.748
 2717POPC   C2B36332  15.424  16.369   8.358
 2717POPC   C3B36333  15.312  16.466   7.925
 2717POPC   C4B36334  15.241  16.811   7.631
 2718POPC   NC336335  24.176  36.279   9.437
 2718POPC   PO436336  24.659  35.823   9.532
 2718POPC   GL136337  24.407  35.887   9.171
 2718POPC   GL236338  24.043  35.878   9.129
 2718POPC   C1A36339  24.551  36.055   8.800
 2718POPC   D2A36340  24.678  35.980   8.402
 2718POPC   C3A36341  24.646  36.343   8.112
 2718POPC   C4A36342  24.452  36.191   7.764
 2718POPC   C1B36343  24.062  36.161   8.769
 2718POPC   C2B36344  24.224  36.180   8.345
 2718POPC   C3B36345  24.028  36.398   7.973
 2718POPC   C4B36346  23.978  36.232   7.565
 2719POPC   NC336347   0.066   2.933   9.424
 2719POPC   PO436348  44.407   2.876   9.539
 2719POPC   GL136349  44.600   2.884   9.153
 2719POPC   GL236350  44.715   2.535   9.086
 2719POPC   C1A36351  44.470   2.883   8.733
 2719POPC   D2A36352  44.522   2.723   8.322
 2719POPC   C3A36353  44.660   2.979   8.014
 2719POPC   C4A36354  44.497   2.830   7.690
 2719POPC   C1B36355  44.871   2.546   8.650
 2719POPC   C2B36356  44.954   2.356   8.265
 2719POPC   C3B36357  44.792   2.464   7.908
 2719POPC   C4B36358   0.023   2.622   7.594
 2720POPC   NC336359  13.554  40.151   9.624
 2720POPC   PO436360  14.199  40.270   9.432
 2720POPC   GL136361  13.828  40.015   9.198
 2720POPC   GL236362  13.481  40.100   9.119
 2720POPC   C1A36363  13.685  39.762   8.808
 2720POPC   D2A36364  13.488  39.873   8.409
 2720POPC   C3A36365  13.520  39.655   8.043
 2720POPC   C4A36366  13.358  39.696   7.650
 2720POPC   C1B36367  13.643  40.278   8.694
 2720POPC   C2B36368  13.611  40.327   8.189
 2720POPC   C3B36369  13.534  40.150   7.789
 2720POPC   C4B36370  13.368  40.112   7.363
 2721POPC   NC336371  15.996  33.191   9.500
 2721POPC   PO436372  15.667  32.609   9.501
 2721POPC   GL136373  15.818  32.829   9.132
 2721POPC   GL236374  15.685  33.165   9.109
 2721POPC   C1A36375  16.126  32.943   8.787
 2721POPC   D2A36376  16.481  32.907   8.487
 2721POPC   C3A36377  16.347  32.916   8.065
 2721POPC   C4A36378  16.048  33.062   7.808
 2721POPC   C1B36379  15.625  33.033   8.703
 2721POPC   C2B36380  15.808  33.029   8.327
 2721POPC   C3B36381  15.575  33.091   7.996
 2721POPC   C4B36382  15.653  33.332   7.646
 2722POPC   NC336383  35.257  16.276   9.377
 2722POPC   PO436384  35.270  15.638   9.457
 2722POPC   GL136385  35.384  15.808   9.111
 2722POPC   GL236386  35.729  15.842   9.184
 2722POPC   C1A36387  35.238  16.012   8.741
 2722POPC   D2A36388  35.059  16.147   8.350
 2722POPC   C3A36389  35.082  15.895   7.964
 2722POPC   C4A36390  35.021  16.052   7.517
 2722POPC   C1B36391  35.716  15.588   8.803
 2722POPC   C2B36392  35.506  15.689   8.426
 2722POPC   C3B36393  35.540  16.021   8.150
 2722POPC   C4B36394  35.548  15.845   7.760
 2723POPC   NC336395  27.272  34.064   9.610
 2723POPC   PO436396  27.816  33.737   9.544
 2723POPC   GL136397  27.603  33.726   9.190
 2723POPC   GL236398  27.492  34.059   9.138
 2723POPC   C1A36399  27.446  33.526   8.827
 2723POPC   D2A36400  27.231  33.581   8.435
 2723POPC   C3A36401  27.443  33.512   8.057
 2723POPC   C4A36402  27.722  33.498   7.742
 2723POPC   C1B36403  27.673  33.975   8.729
 2723POPC   C2B36404  27.785  33.825   8.306
 2723POPC   C3B36405  27.785  34.026   7.890
 2723POPC   C4B36406  27.921  34.042   7.444
 2724POPC   NC336407   7.056  21.067   9.476
 2724POPC   PO436408   7.631  20.744   9.615
 2724POPC   GL136409   7.494  20.643   9.150
 2724POPC   GL236410   7.192  20.809   9.079
 2724POPC   C1A36411   7.387  20.630   8.679
 2724POPC   D2A36412   7.557  20.421   8.377
 2724POPC   C3A36413   7.402  20.409   8.010
 2724POPC   C4A36414   7.627  20.360   7.642
 2724POPC   C1B36415   7.103  21.096   8.787
 2724POPC   C2B36416   7.107  21.099   8.378
 2724POPC   C3B36417   7.336  20.926   8.063
 2724POPC   C4B36418   7.323  20.781   7.655
 2725POPC   NC336419  33.641  24.585   9.644
 2725POPC   PO436420  34.252  24.896   9.473
 2725POPC   GL136421  33.914  24.647   9.226
 2725POPC   GL236422  33.583  24.824   9.199
 2725POPC   C1A36423  33.862  24.403   8.825
 2725POPC   D2A36424  33.832  24.166   8.428
 2725POPC   C3A36425  33.747  24.384   8.047
 2725POPC   C4A36426  33.996  24.555   7.708
 2725POPC   C1B36427  33.520  24.838   8.772
 2725POPC   C2B36428  33.619  24.786   8.353
 2725POPC   C3B36429  33.659  24.886   7.939
 2725POPC   C4B36430  33.625  24.923   7.503
 2726POPC   NC336431  32.672  37.907   9.549
 2726POPC   PO436432  32.175  37.398   9.479
 2726POPC   GL136433  32.151  37.716   9.158
 2726POPC   GL236434  31.983  38.074   9.154
 2726POPC   C1A36435  32.342  37.566   8.813
 2726POPC   D2A36436  32.386  37.696   8.441
 2726POPC   C3A36437  32.112  37.638   8.186
 2726POPC   C4A36438  32.204  37.545   7.786
 2726POPC   C1B36439  31.955  37.929   8.716
 2726POPC   C2B36440  32.119  38.128   8.345
 2726POPC   C3B36441  32.434  38.031   8.055
 2726POPC   C4B36442  32.310  38.165   7.679
 2727POPC   NC336443  44.339  32.303   9.547
 2727POPC   PO436444  44.878  31.894   9.545
 2727POPC   GL136445  44.660  32.010   9.119
 2727POPC   GL236446  44.438  32.334   9.064
 2727POPC   C1A36447  44.528  32.065   8.658
 2727POPC   D2A36448  44.437  32.425   8.355
 2727POPC   C3A36449  44.460  32.311   7.922
 2727POPC   C4A36450  44.444  31.912   7.721
 2727POPC   C1B36451  44.764  32.576   8.868
 2727POPC   C2B36452  44.806  32.751   8.456
 2727POPC   C3B36453  44.864  32.612   8.051
 2727POPC   C4B36454  44.892  32.407   7.659
 2728POPC   NC336455  39.333  23.760   9.319
 2728POPC   PO436456  38.768  23.837   9.730
 2728POPC   GL136457  38.850  23.549   9.263
 2728POPC   GL236458  39.034  23.671   8.931
 2728POPC   C1A36459  38.655  23.372   8.833
 2728POPC   D2A36460  38.725  23.250   8.349
 2728POPC   C3A36461  38.975  23.516   7.972
 2728POPC   C4A36462  39.153  23.597   7.495
 2728POPC   C1B36463  39.452  23.624   8.703
 2728POPC   C2B36464  39.601  23.519   8.296
 2728POPC   C3B36465  39.509  23.670   7.882
 2728POPC   C4B36466  39.550  23.924   7.520
 2729POPC   NC336467  28.166  33.489   9.401
 2729POPC   PO436468  28.464  33.050   9.659
 2729POPC   GL136469  28.540  33.175   9.233
 2729POPC   GL236470  28.341  32.898   9.061
 2729POPC   C1A36471  28.674  33.179   8.794
 2729POPC   D2A36472  28.427  32.938   8.490
 2729POPC   C3A36473  28.463  32.951   8.026
 2729POPC   C4A36474  28.566  32.952   7.559
 2729POPC   C1B36475  28.180  33.273   8.809
 2729POPC   C2B36476  27.866  33.355   8.511
 2729POPC   C3B36477  28.052  33.374   8.108
 2729POPC   C4B36478  28.175  33.220   7.703
 2730POPC   NC336479  43.948  23.333   9.522
 2730POPC   PO436480  43.585  23.904   9.665
 2730POPC   GL136481  43.644  23.777   9.248
 2730POPC   GL236482  43.397  23.999   9.122
 2730POPC   C1A36483  43.930  23.703   8.889
 2730POPC   D2A36484  43.860  23.385   8.563
 2730POPC   C3A36485  43.946  23.528   8.123
 2730POPC   C4A36486  44.255  23.660   7.806
 2730POPC   C1B36487  43.589  24.083   8.762
 2730POPC   C2B36488  43.726  23.871   8.426
 2730POPC   C3B36489  43.719  23.999   8.000
 2730POPC   C4B36490  43.457  24.120   7.662
 2731POPC   NC336491  43.060  25.485   9.468
 2731POPC   PO436492  43.288  24.854   9.568
 2731POPC   GL136493  43.095  24.966   9.160
 2731POPC   GL236494  42.927  25.224   9.027
 2731POPC   C1A36495  43.249  24.970   8.718
 2731POPC   D2A36496  43.161  25.291   8.379
 2731POPC   C3A36497  43.064  25.162   7.950
 2731POPC   C4A36498  43.406  25.008   7.737
 2731POPC   C1B36499  43.089  25.587   8.803
 2731POPC   C2B36500  43.211  25.804   8.436
 2731POPC   C3B36501  43.137  25.674   8.013
 2731POPC   C4B36502  43.298  25.548   7.606
 2732POPC   NC336503  41.821  19.608   9.744
 2732POPC   PO436504  41.428  18.992   9.493
 2732POPC   GL136505  41.555  19.099   9.103
 2732POPC   GL236506  41.296  19.376   9.060
 2732POPC   C1A36507  41.563  18.825   8.741
 2732POPC   D2A36508  41.833  18.575   8.469
 2732POPC   C3A36509  41.647  18.690   8.118
 2732POPC   C4A36510  41.413  18.634   7.785
 2732POPC   C1B36511  41.547  19.379   8.676
 2732POPC   C2B36512  41.569  19.174   8.286
 2732POPC   C3B36513  41.472  19.137   7.874
 2732POPC   C4B36514  41.074  19.248   7.938
 2733POPC   NC336515   0.638  17.812   9.947
 2733POPC   PO436516   0.490  18.413   9.653
 2733POPC   GL136517   0.460  18.367   9.171
 2733POPC   GL236518   0.398  17.994   9.145
 2733POPC   C1A36519   0.348  18.253   8.712
 2733POPC   D2A36520   0.222  18.054   8.321
 2733POPC   C3A36521   0.177  18.337   7.954
 2733POPC   C4A36522   0.397  18.500   7.579
 2733POPC   C1B36523   0.634  17.812   8.770
 2733POPC   C2B36524   0.779  17.944   8.345
 2733POPC   C3B36525   0.572  17.999   7.947
 2733POPC   C4B36526   0.185  17.838   7.831
 2734POPC   NC336527  14.068  28.988   9.397
 2734POPC   PO436528  14.675  29.274   9.563
 2734POPC   GL136529  14.589  29.099   9.175
 2734POPC   GL236530  14.843  28.838   9.161
 2734POPC   C1A36531  14.375  29.247   8.792
 2734POPC   D2A36532  14.218  29.564   8.514
 2734POPC   C3A36533  14.248  29.401   8.097
 2734POPC   C4A36534  14.297  29.176   7.716
 2734POPC   C1B36535  14.847  29.050   8.734
 2734POPC   C2B36536  14.634  29.125   8.306
 2734POPC   C3B36537  14.743  28.973   7.860
 2734POPC   C4B36538  14.893  28.781   7.424
 2735POPC   NC336539  18.133  43.590   9.478
 2735POPC   PO436540  18.655  43.991   9.572
 2735POPC   GL136541  18.621  43.766   9.186
 2735POPC   GL236542  18.366  43.896   9.055
 2735POPC   C1A36543  18.641  43.562   8.779
 2735POPC   D2A36544  18.810  43.611   8.339
 2735POPC   C3A36545  18.510  43.767   8.030
 2735POPC   C4A36546  18.439  44.173   7.921
 2735POPC   C1B36547  18.209  43.806   8.628
 2735POPC   C2B36548  18.089  43.528   8.282
 2735POPC   C3B36549  17.980  43.706   7.914
 2735POPC   C4B36550  17.909  44.152   7.921
 2736POPC   NC336551  12.844  11.005   9.541
 2736POPC   PO436552  12.613  11.655   9.552
 2736POPC   GL136553  12.644  11.396   9.162
 2736POPC   GL236554  12.580  11.021   9.116
 2736POPC   C1A36555  12.895  11.248   8.798
 2736POPC   D2A36556  13.109  11.074   8.501
 2736POPC   C3A36557  13.089  11.199   8.071
 2736POPC   C4A36558  12.973  11.323   7.646
 2736POPC   C1B36559  12.472  10.985   8.690
 2736POPC   C2B36560  12.605  11.135   8.283
 2736POPC   C3B36561  12.647  10.869   7.935
 2736POPC   C4B36562  12.744  10.864   7.506
 2737POPC   NC336563  32.620  28.153   9.400
 2737POPC   PO436564  31.981  28.485   9.467
 2737POPC   GL136565  32.219  28.377   9.129
 2737POPC   GL236566  32.504  28.601   9.100
 2737POPC   C1A36567  32.386  28.260   8.733
 2737POPC   D2A36568  32.608  28.124   8.397
 2737POPC   C3A36569  32.348  28.098   8.047
 2737POPC   C4A36570  32.224  28.369   7.731
 2737POPC   C1B36571  32.603  28.743   8.705
 2737POPC   C2B36572  32.442  28.614   8.293
 2737POPC   C3B36573  32.502  28.758   7.885
 2737POPC   C4B36574  32.591  28.596   7.462
 2738POPC   NC336575  11.343  10.142   9.445
 2738POPC   PO436576  11.396   9.497   9.533
 2738POPC   GL136577  11.152   9.579   9.161
 2738POPC   GL236578  11.025   9.922   9.110
 2738POPC   C1A36579  11.290   9.449   8.758
 2738POPC   D2A36580  11.365   9.626   8.380
 2738POPC   C3A36581  11.078   9.577   8.057
 2738POPC   C4A36582  11.005   9.343   7.729
 2738POPC   C1B36583  11.329   9.985   8.782
 2738POPC   C2B36584  11.511  10.136   8.387
 2738POPC   C3B36585  11.426   9.974   7.995
 2738POPC   C4B36586  11.248  10.128   7.629
 2739POPC   NC336587  10.431   7.883   9.430
 2739POPC   PO436588  10.630   8.569   9.496
 2739POPC   GL136589  10.623   8.299   9.178
 2739POPC   GL236590  10.289   8.262   9.135
 2739POPC   C1A36591  10.675   8.276   8.760
 2739POPC   D2A36592  10.592   7.993   8.429
 2739POPC   C3A36593  10.555   8.223   8.088
 2739POPC   C4A36594  10.557   8.093   7.694
 2739POPC   C1B36595  10.210   8.015   8.780
 2739POPC   C2B36596  10.103   8.116   8.374
 2739POPC   C3B36597  10.215   7.863   8.012
 2739POPC   C4B36598  10.060   8.044   7.676
 2740POPC   NC336599   8.680  23.549   9.398
 2740POPC   PO436600   9.135  24.082   9.562
 2740POPC   GL136601   8.850  24.143   9.182
 2740POPC   GL236602   8.870  23.817   9.031
 2740POPC   C1A36603   8.767  24.183   8.715
 2740POPC   D2A36604   9.041  24.065   8.366
 2740POPC   C3A36605   8.944  24.166   7.964
 2740POPC   C4A36606   8.748  24.156   7.552
 2740POPC   C1B36607   8.814  23.635   8.632
 2740POPC   C2B36608   8.841  23.622   8.203
 2740POPC   C3B36609   8.789  23.710   7.793
 2740POPC   C4B36610   9.041  23.568   7.470
 2741POPC   NC336611   5.875  38.116  10.006
 2741POPC   PO436612   5.530  37.718   9.519
 2741POPC   GL136613   5.645  37.770   9.151
 2741POPC   GL236614   5.929  37.869   9.169
 2741POPC   C1A36615   5.662  37.649   8.748
 2741POPC   D2A36616   5.470  37.383   8.462
 2741POPC   C3A36617   5.678  37.585   8.140
 2741POPC   C4A36618   5.729  37.677   7.743
 2741POPC   C1B36619   6.227  37.850   8.864
 2741POPC   C2B36620   6.097  37.806   8.479
 2741POPC   C3B36621   6.193  37.711   8.082
 2741POPC   C4B36622   6.268  37.903   7.712
 2742POPC   NC336623   6.470   4.670   9.942
 2742POPC   PO436624   6.745   5.191   9.732
 2742POPC   GL136625   6.702   5.087   9.237
 2742POPC   GL236626   6.397   5.245   9.085
 2742POPC   C1A36627   6.779   5.089   8.785
 2742POPC   D2A36628   6.601   5.098   8.366
 2742POPC   C3A36629   6.787   5.165   7.944
 2742POPC   C4A36630   6.805   4.913   7.532
 2742POPC   C1B36631   6.290   4.930   8.771
 2742POPC   C2B36632   6.206   4.746   8.359
 2742POPC   C3B36633   6.407   4.821   7.978
 2742POPC   C4B36634   6.327   5.030   7.589
 2743POPC   NC336635   5.460  26.617   9.457
 2743POPC   PO436636   4.953  26.148   9.586
 2743POPC   GL136637   5.100  26.016   9.213
 2743POPC   GL236638   5.203  26.321   9.115
 2743POPC   C1A36639   5.036  25.878   8.782
 2743POPC   D2A36640   5.207  25.874   8.366
 2743POPC   C3A36641   5.001  25.772   7.972
 2743POPC   C4A36642   4.933  26.003   7.573
 2743POPC   C1B36643   5.415  26.233   8.722
 2743POPC   C2B36644   5.318  26.367   8.317
 2743POPC   C3B36645   5.219  26.259   7.921
 2743POPC   C4B36646   5.217  26.540   7.571
 2744POPC   NC336647  44.599  38.139   9.510
 2744POPC   PO436648  44.452  37.507   9.647
 2744POPC   GL136649  44.710  37.647   9.309
 2744POPC   GL236650  44.438  37.796   9.138
 2744POPC   C1A36651  44.786  37.565   8.843
 2744POPC   D2A36652  44.540  37.553   8.439
 2744POPC   C3A36653  44.792  37.574   8.053
 2744POPC   C4A36654  44.898  37.961   7.813
 2744POPC   C1B36655  44.333  37.970   8.741
 2744POPC   C2B36656  44.374  38.052   8.289
 2744POPC   C3B36657  44.382  37.829   7.876
 2744POPC   C4B36658  44.491  37.985   7.473
 2745POPC   NC336659  27.000  17.321   9.495
 2745POPC   PO436660  27.329  17.892   9.484
 2745POPC   GL136661  27.115  17.762   9.088
 2745POPC   GL236662  26.977  17.409   8.991
 2745POPC   C1A36663  27.021  17.759   8.625
 2745POPC   D2A36664  26.866  17.444   8.327
 2745POPC   C3A36665  26.862  17.608   7.917
 2745POPC   C4A36666  27.164  17.864   7.771
 2745POPC   C1B36667  26.574  17.535   8.741
 2745POPC   C2B36668  26.360  17.505   8.314
 2745POPC   C3B36669  26.424  17.360   7.888
 2745POPC   C4B36670  26.665  17.250   7.541
 2746POPC   NC336671  23.291  18.074   9.433
 2746POPC   PO436672  22.666  17.812   9.634
 2746POPC   GL136673  22.838  17.950   9.209
 2746POPC   GL236674  23.001  18.304   9.075
 2746POPC   C1A36675  22.901  17.895   8.766
 2746POPC   D2A36676  22.973  17.843   8.341
 2746POPC   C3A36677  22.810  18.196   8.128
 2746POPC   C4A36678  22.574  18.131   7.771
 2746POPC   C1B36679  23.110  18.490   8.631
 2746POPC   C2B36680  23.186  18.574   8.178
 2746POPC   C3B36681  23.173  18.346   7.785
 2746POPC   C4B36682  23.340  18.376   7.366
 2747POPC   NC336683  41.958  35.207   9.477
 2747POPC   PO436684  41.321  35.417   9.406
 2747POPC   GL136685  41.662  35.431   9.125
 2747POPC   GL236686  41.763  35.798   9.080
 2747POPC   C1A36687  41.681  35.165   8.758
 2747POPC   D2A36688  41.743  35.321   8.347
 2747POPC   C3A36689  41.822  35.010   8.044
 2747POPC   C4A36690  41.774  35.147   7.647
 2747POPC   C1B36691  41.496  35.645   8.702
 2747POPC   C2B36692  41.260  35.513   8.338
 2747POPC   C3B36693  41.436  35.452   7.932
 2747POPC   C4B36694  41.824  35.695   7.920
 2748POPC   NC336695  43.432  22.727   9.453
 2748POPC   PO436696  44.083  22.862   9.528
 2748POPC   GL136697  43.833  22.952   9.174
 2748POPC   GL236698  43.717  23.277   9.058
 2748POPC   C1A36699  44.009  22.916   8.780
 2748POPC   D2A36700  44.014  22.737   8.378
 2748POPC   C3A36701  43.838  23.026   8.112
 2748POPC   C4A36702  44.026  23.213   7.722
 2748POPC   C1B36703  43.507  23.027   8.746
 2748POPC   C2B36704  43.403  22.785   8.378
 2748POPC   C3B36705  43.275  23.039   8.050
 2748POPC   C4B36706  43.547  23.141   7.717
 2749POPC   NC336707  12.207  32.419   9.471
 2749POPC   PO436708  11.800  31.914   9.676
 2749POPC   GL136709  11.827  32.097   9.247
 2749POPC   GL236710  11.731  32.450   9.146
 2749POPC   C1A36711  12.049  32.017   8.841
 2749POPC   D2A36712  11.940  32.035   8.406
 2749POPC   C3A36713  12.238  32.028   8.075
 2749POPC   C4A36714  11.978  32.337   7.905
 2749POPC   C1B36715  11.967  32.523   8.727
 2749POPC   C2B36716  12.304  32.414   8.385
 2749POPC   C3B36717  12.446  32.513   7.916
 2749POPC   C4B36718  12.221  32.612   7.501
 2750POPC   NC336719  30.985   6.476   9.438
 2750POPC   PO436720  30.345   6.795   9.440
 2750POPC   GL136721  30.564   6.591   9.148
 2750POPC   GL236722  30.789   6.841   9.033
 2750POPC   C1A36723  30.413   6.560   8.743
 2750POPC   D2A36724  30.646   6.632   8.396
 2750POPC   C3A36725  30.480   6.534   8.017
 2750POPC   C4A36726  30.411   6.781   7.698
 2750POPC   C1B36727  30.982   6.532   8.789
 2750POPC   C2B36728  31.142   6.476   8.389
 2750POPC   C3B36729  30.977   6.642   7.997
 2750POPC   C4B36730  30.909   6.695   7.583
 2751POPC   NC336731  28.575  24.126   9.499
 2751POPC   PO436732  28.207  23.542   9.385
 2751POPC   GL136733  28.330  23.853   9.087
 2751POPC   GL236734  28.697  23.761   9.169
 2751POPC   C1A36735  28.289  23.835   8.614
 2751POPC   D2A36736  28.266  23.423   8.408
 2751POPC   C3A36737  28.245  23.536   7.995
 2751POPC   C4A36738  28.361  23.942   7.820
 2751POPC   C1B36739  28.651  23.540   8.802
 2751POPC   C2B36740  28.801  23.702   8.435
 2751POPC   C3B36741  28.755  23.653   8.018
 2751POPC   C4B36742  28.675  23.594   7.600
 2752POPC   NC336743   0.253  17.105   9.413
 2752POPC   PO436744   0.772  17.455   9.697
 2752POPC   GL136745   0.684  17.404   9.235
 2752POPC   GL236746   0.345  17.469   9.068
 2752POPC   C1A36747   0.735  17.278   8.810
 2752POPC   D2A36748   0.446  17.405   8.474
 2752POPC   C3A36749   0.602  17.499   8.076
 2752POPC   C4A36750   0.680  17.585   7.652
 2752POPC   C1B36751   0.222  17.079   8.799
 2752POPC   C2B36752   0.247  16.924   8.413
 2752POPC   C3B36753   0.169  17.157   8.091
 2752POPC   C4B36754   0.239  17.351   7.740
 2753POPC   NC336755  10.469   6.933   9.389
 2753POPC   PO436756  10.805   7.590   9.388
 2753POPC   GL136757  10.564   7.689   8.993
 2753POPC   GL236758  10.174   7.606   9.087
 2753POPC   C1A36759  10.623   7.505   8.603
 2753POPC   D2A36760  10.738   7.148   8.346
 2753POPC   C3A36761  10.838   7.323   7.936
 2753POPC   C4A36762  10.648   7.606   7.566
 2753POPC   C1B36763  10.157   7.312   8.718
 2753POPC   C2B36764  10.178   7.147   8.293
 2753POPC   C3B36765   9.983   7.309   7.929
 2753POPC   C4B36766  10.086   7.560   7.554
 2754POPC   NC336767  29.242  20.975   9.516
 2754POPC   PO436768  29.386  21.619   9.342
 2754POPC   GL136769  29.237  21.297   9.089
 2754POPC   GL236770  28.903  21.156   9.161
 2754POPC   C1A36771  29.393  21.149   8.699
 2754POPC   D2A36772  29.596  21.264   8.304
 2754POPC   C3A36773  29.431  21.619   8.068
 2754POPC   C4A36774  29.383  21.626   7.606
 2754POPC   C1B36775  28.880  21.275   8.726
 2754POPC   C2B36776  29.058  21.236   8.300
 2754POPC   C3B36777  28.998  21.419   7.887
 2754POPC   C4B36778  29.006  21.342   7.434
 2755POPC   NC336779  30.683  15.385   9.382
 2755POPC   PO436780  30.928  14.784   9.517
 2755POPC   GL136781  30.928  14.758   9.106
 2755POPC   GL236782  30.995  15.110   9.091
 2755POPC   C1A36783  30.630  14.928   8.811
 2755POPC   D2A36784  30.567  15.240   8.501
 2755POPC   C3A36785  30.640  15.098   8.070
 2755POPC   C4A36786  30.295  15.154   7.754
 2755POPC   C1B36787  31.099  15.311   8.705
 2755POPC   C2B36788  31.002  15.388   8.302
 2755POPC   C3B36789  31.137  15.353   7.920
 2755POPC   C4B36790  30.978  15.117   7.600
 2756POPC   NC336791  10.100  33.057   9.459
 2756POPC   PO436792   9.473  33.291   9.442
 2756POPC   GL136793   9.562  33.082   9.082
 2756POPC   GL236794   9.279  33.228   8.969
 2756POPC   C1A36795   9.733  33.021   8.676
 2756POPC   D2A36796   9.897  32.776   8.313
 2756POPC   C3A36797   9.759  32.938   7.894
 2756POPC   C4A36798  10.042  33.103   7.580
 2756POPC   C1B36799   9.281  33.265   8.556
 2756POPC   C2B36800   9.453  33.221   8.182
 2756POPC   C3B36801   9.411  33.364   7.777
 2756POPC   C4B36802   9.593  33.238   7.391
 2757POPC   NC336803  17.507   9.324   9.580
 2757POPC   PO436804  17.569   8.724   9.659
 2757POPC   GL136805  17.495   8.937   9.268
 2757POPC   GL236806  17.826   9.106   9.219
 2757POPC   C1A36807  17.439   9.164   8.891
 2757POPC   D2A36808  17.627   9.134   8.492
 2757POPC   C3A36809  17.496   9.297   8.091
 2757POPC   C4A36810  17.526   9.022   7.732
 2757POPC   C1B36811  17.777   8.735   8.909
 2757POPC   C2B36812  17.904   8.709   8.487
 2757POPC   C3B36813  17.734   8.685   8.076
 2757POPC   C4B36814  17.834   8.568   7.673
 2758POPC   NC336815  33.216  15.471   9.476
 2758POPC   PO436816  32.748  15.005   9.384
 2758POPC   GL136817  32.996  15.235   9.041
 2758POPC   GL236818  33.376  15.320   9.027
 2758POPC   C1A36819  32.961  15.172   8.589
 2758POPC   D2A36820  32.869  14.861   8.272
 2758POPC   C3A36821  32.795  14.986   7.855
 2758POPC   C4A36822  33.138  15.202   7.684
 2758POPC   C1B36823  33.423  15.019   8.725
 2758POPC   C2B36824  33.375  15.124   8.287
 2758POPC   C3B36825  33.568  15.248   7.934
 2758POPC   C4B36826  33.639  15.079   7.541
 2759POPC   NC336827  17.078  13.347   9.495
 2759POPC   PO436828  16.807  13.953   9.638
 2759POPC   GL136829  16.829  13.723   9.195
 2759POPC   GL236830  16.866  13.395   9.043
 2759POPC   C1A36831  16.510  13.744   8.839
 2759POPC   D2A36832  16.488  13.539   8.390
 2759POPC   C3A36833  16.414  13.780   7.989
 2759POPC   C4A36834  16.398  13.699   7.526
 2759POPC   C1B36835  16.945  13.570   8.666
 2759POPC   C2B36836  17.059  13.480   8.254
 2759POPC   C3B36837  16.894  13.614   7.906
 2759POPC   C4B36838  16.923  13.868   7.557
 2760POPC   NC336839  19.842   6.107   9.604
 2760POPC   PO436840  19.972   5.485   9.372
 2760POPC   GL136841  19.809   5.861   9.162
 2760POPC   GL236842  20.069   6.129   9.149
 2760POPC   C1A36843  19.647   6.095   8.830
 2760POPC   D2A36844  19.691   6.244   8.425
 2760POPC   C3A36845  19.561   5.963   8.079
 2760POPC   C4A36846  19.757   5.607   7.815
 2760POPC   C1B36847  20.159   5.888   8.781
 2760POPC   C2B36848  19.988   5.830   8.375
 2760POPC   C3B36849  20.118   5.917   7.970
 2760POPC   C4B36850  20.283   5.554   7.747
 2761POPC   NC336851  12.219  20.110   9.527
 2761POPC   PO436852  11.799  19.488   9.515
 2761POPC   GL136853  11.889  19.834   9.220
 2761POPC   GL236854  12.177  19.699   9.124
 2761POPC   C1A36855  11.804  19.865   8.754
 2761POPC   D2A36856  11.811  20.125   8.370
 2761POPC   C3A36857  11.573  19.943   8.014
 2761POPC   C4A36858  11.748  19.659   7.676
 2761POPC   C1B36859  12.272  20.010   8.832
 2761POPC   C2B36860  12.248  19.853   8.436
 2761POPC   C3B36861  12.080  19.770   8.039
 2761POPC   C4B36862  12.277  19.924   7.658
 2762POPC   NC336863  34.397  44.263   9.446
 2762POPC   PO436864  34.337  43.622   9.361
 2762POPC   GL136865  34.668  43.875   9.165
 2762POPC   GL236866  34.488  44.102   8.975
 2762POPC   C1A36867  34.844  43.797   8.753
 2762POPC   D2A36868  34.632  43.905   8.362
 2762POPC   C3A36869  34.818  43.858   7.977
 2762POPC   C4A36870  34.692  43.656   7.596
 2762POPC   C1B36871  34.232  44.106   8.602
 2762POPC   C2B36872  34.113  43.734   8.380
 2762POPC   C3B36873  34.340  43.631   8.016
 2762POPC   C4B36874  34.369  44.034   7.783
 2763POPC   NC336875  22.163  27.515   9.817
 2763POPC   PO436876  22.832  27.698   9.587
 2763POPC   GL136877  22.982  27.585   9.189
 2763POPC   GL236878  23.073  27.923   9.136
 2763POPC   C1A36879  22.863  27.380   8.792
 2763POPC   D2A36880  22.934  27.096   8.415
 2763POPC   C3A36881  22.847  27.298   8.022
 2763POPC   C4A36882  22.982  27.315   7.581
 2763POPC   C1B36883  22.808  27.888   8.797
 2763POPC   C2B36884  22.655  27.771   8.405
 2763POPC   C3B36885  22.874  27.868   8.027
 2763POPC   C4B36886  22.956  27.815   7.600
 2764POPC   NC336887  21.518   6.450   9.528
 2764POPC   PO436888  21.006   6.825   9.496
 2764POPC   GL136889  21.245   6.680   9.161
 2764POPC   GL236890  21.613   6.808   9.169
 2764POPC   C1A36891  21.292   6.384   8.839
 2764POPC   D2A36892  21.134   6.520   8.448
 2764POPC   C3A36893  21.243   6.426   8.029
 2764POPC   C4A36894  21.302   6.797   7.797
 2764POPC   C1B36895  21.548   6.804   8.729
 2764POPC   C2B36896  21.680   6.576   8.384
 2764POPC   C3B36897  21.753   6.694   7.993
 2764POPC   C4B36898  21.721   6.501   7.585
 2765POPC   NC336899   4.861  24.822   9.359
 2765POPC   PO436900   5.320  24.349   9.602
 2765POPC   GL136901   5.239  24.485   9.192
 2765POPC   GL236902   4.905  24.402   9.094
 2765POPC   C1A36903   5.338  24.559   8.769
 2765POPC   D2A36904   5.155  24.556   8.358
 2765POPC   C3A36905   5.317  24.793   8.029
 2765POPC   C4A36906   5.382  24.429   7.775
 2765POPC   C1B36907   4.824  24.687   8.714
 2765POPC   C2B36908   4.623  24.657   8.308
 2765POPC   C3B36909   4.833  24.711   7.950
 2765POPC   C4B36910   4.981  24.651   7.533
 2766POPC   NC336911  30.080  16.344   9.474
 2766POPC   PO436912  29.571  16.815   9.446
 2766POPC   GL136913  29.607  16.751   9.061
 2766POPC   GL236914  29.652  16.365   9.157
 2766POPC   C1A36915  29.880  16.978   8.757
 2766POPC   D2A36916  30.241  16.975   8.474
 2766POPC   C3A36917  30.065  16.736   8.141
 2766POPC   C4A36918  29.864  16.812   7.724
 2766POPC   C1B36919  29.905  16.446   8.796
 2766POPC   C2B36920  29.724  16.462   8.394
 2766POPC   C3B36921  29.795  16.352   7.968
 2766POPC   C4B36922  30.184  16.354   7.756
 2767POPC   NC336923   6.006  22.178   9.660
 2767POPC   PO436924   5.388  22.248   9.510
 2767POPC   GL136925   5.637  22.313   9.143
 2767POPC   GL236926   5.928  22.085   9.134
 2767POPC   C1A36927   5.593  22.158   8.709
 2767POPC   D2A36928   5.877  22.093   8.350
 2767POPC   C3A36929   5.921  22.325   7.955
 2767POPC   C4A36930   5.745  22.490   7.600
 2767POPC   C1B36931   5.938  21.777   8.759
 2767POPC   C2B36932   6.253  21.695   8.442
 2767POPC   C3B36933   6.236  21.923   8.037
 2767POPC   C4B36934   6.135  21.970   7.578
 2768POPC   NC336935  18.704   3.399   9.464
 2768POPC   PO436936  18.336   4.035   9.500
 2768POPC   GL136937  18.307   3.675   9.180
 2768POPC   GL236938  17.983   3.469   9.126
 2768POPC   C1A36939  18.254   3.604   8.724
 2768POPC   D2A36940  18.441   3.556   8.341
 2768POPC   C3A36941  18.246   3.616   7.981
 2768POPC   C4A36942  18.498   3.569   7.624
 2768POPC   C1B36943  17.923   3.200   8.782
 2768POPC   C2B36944  18.089   3.188   8.386
 2768POPC   C3B36945  17.937   3.184   8.001
 2768POPC   C4B36946  18.095   3.234   7.612
 2769POPC   NC336947  12.829   6.861   9.551
 2769POPC   PO436948  12.563   6.223   9.426
 2769POPC   GL136949  12.642   6.391   9.022
 2769POPC   GL236950  12.701   6.736   9.067
 2769POPC   C1A36951  12.896   6.547   8.655
 2769POPC   D2A36952  13.194   6.433   8.398
 2769POPC   C3A36953  13.089   6.615   8.044
 2769POPC   C4A36954  12.865   6.583   7.698
 2769POPC   C1B36955  12.455   6.766   8.681
 2769POPC   C2B36956  12.520   6.673   8.239
 2769POPC   C3B36957  12.394   6.688   7.806
 2769POPC   C4B36958  12.581   6.868   7.399
 2770POPC   NC336959   7.765  41.918   9.479
 2770POPC   PO436960   7.501  41.279   9.446
 2770POPC   GL136961   7.341  41.398   9.061
 2770POPC   GL236962   7.327  41.752   9.102
 2770POPC   C1A36963   7.434  41.442   8.649
 2770POPC   D2A36964   7.254  41.658   8.322
 2770POPC   C3A36965   7.387  41.450   7.951
 2770POPC   C4A36966   7.470  41.432   7.514
 2770POPC   C1B36967   7.456  41.986   8.752
 2770POPC   C2B36968   7.791  41.853   8.496
 2770POPC   C3B36969   7.845  41.650   8.125
 2770POPC   C4B36970   7.725  41.857   7.776
 2771POPC   NC336971  34.316  27.683   9.526
 2771POPC   PO436972  34.924  27.808   9.351
 2771POPC   GL136973  34.594  27.775   9.084
 2771POPC   GL236974  34.454  27.439   9.104
 2771POPC   C1A36975  34.635  27.843   8.663
 2771POPC   D2A36976  34.564  27.649   8.276
 2771POPC   C3A36977  34.505  27.836   7.860
 2771POPC   C4A36978  34.814  27.673   7.535
 2771POPC   C1B36979  34.538  27.327   8.688
 2771POPC   C2B36980  34.411  27.142   8.289
 2771POPC   C3B36981  34.509  27.321   7.895
 2771POPC   C4B36982  34.427  27.348   7.451
 2772POPC   NC336983   3.001   7.632   9.708
 2772POPC   PO436984   2.750   7.028   9.527
 2772POPC   GL136985   2.607   7.314   9.156
 2772POPC   GL236986   2.847   7.642   9.112
 2772POPC   C1A36987   2.698   7.246   8.715
 2772POPC   D2A36988   2.470   7.384   8.364
 2772POPC   C3A36989   2.745   7.270   8.056
 2772POPC   C4A36990   2.893   7.312   7.671
 2772POPC   C1B36991   3.103   7.576   8.751
 2772POPC   C2B36992   3.210   7.396   8.362
 2772POPC   C3B36993   3.186   7.571   7.983
 2772POPC   C4B36994   3.046   7.914   7.743
 2773POPC   NC336995   6.974   1.747   9.517
 2773POPC   PO436996   6.348   1.930   9.422
 2773POPC   GL136997   6.603   1.723   9.129
 2773POPC   GL236998   6.890   1.958   9.062
 2773POPC   C1A36999   6.576   1.725   8.684
 2773POPC   D2A37000   6.781   1.911   8.309
 2773POPC   C3A37001   6.608   1.789   7.893
 2773POPC   C4A37002   6.743   2.001   7.511
 2773POPC   C1B37003   6.580   2.200   8.845
 2773POPC   C2B37004   6.453   2.315   8.405
 2773POPC   C3B37005   6.560   2.272   7.973
 2773POPC   C4B37006   6.298   2.148   7.655
 2774POPC   NC337007  24.045  12.937   9.574
 2774POPC   PO437008  23.542  12.489   9.666
 2774POPC   GL137009  23.649  12.826   9.255
 2774POPC   GL237010  23.910  13.142   9.134
 2774POPC   C1A37011  23.635  12.954   8.777
 2774POPC   D2A37012  23.780  12.983   8.338
 2774POPC   C3A37013  23.455  12.760   8.112
 2774POPC   C4A37014  23.326  12.762   7.704
 2774POPC   C1B37015  24.208  13.158   8.793
 2774POPC   C2B37016  24.390  13.114   8.384
 2774POPC   C3B37017  24.157  13.114   7.978
 2774POPC   C4B37018  23.861  12.810   7.796
 2775POPC   NC337019   4.563  13.094   9.841
 2775POPC   PO437020   5.247  12.956   9.576
 2775POPC   GL137021   5.208  12.979   9.127
 2775POPC   GL237022   5.160  12.632   8.974
 2775POPC   C1A37023   5.075  13.023   8.688
 2775POPC   D2A37024   5.211  12.814   8.300
 2775POPC   C3A37025   5.118  13.052   7.948
 2775POPC   C4A37026   4.760  13.197   7.760
 2775POPC   C1B37027   4.955  12.479   8.626
 2775POPC   C2B37028   4.947  12.355   8.204
 2775POPC   C3B37029   5.143  12.542   7.861
 2775POPC   C4B37030   4.752  12.699   7.774
 2776POPC   NC337031  29.650  14.799   9.449
 2776POPC   PO437032  30.087  14.241   9.475
 2776POPC   GL137033  29.859  14.203   9.136
 2776POPC   GL237034  29.570  14.340   9.238
 2776POPC   C1A37035  29.935  14.268   8.753
 2776POPC   D2A37036  29.765  14.145   8.406
 2776POPC   C3A37037  30.129  14.187   8.111
 2776POPC   C4A37038  30.247  14.337   7.709
 2776POPC   C1B37039  29.505  14.522   8.830
 2776POPC   C2B37040  29.755  14.680   8.488
 2776POPC   C3B37041  29.750  14.533   8.088
 2776POPC   C4B37042  29.465  14.577   7.784
 2777POPC   NC337043  36.586  13.994   9.634
 2777POPC   PO437044  36.881  14.557   9.459
 2777POPC   GL137045  36.986  14.604   9.059
 2777POPC   GL237046  37.358  14.593   9.088
 2777POPC   C1A37047  36.776  14.495   8.652
 2777POPC   D2A37048  36.938  14.312   8.273
 2777POPC   C3A37049  36.588  14.227   8.034
 2777POPC   C4A37050  36.512  14.450   7.697
 2777POPC   C1B37051  37.290  14.537   8.643
 2777POPC   C2B37052  37.369  14.608   8.219
 2777POPC   C3B37053  37.250  14.572   7.829
 2777POPC   C4B37054  37.008  14.235   7.743
 2778POPC   NC337055   0.701  25.752   9.380
 2778POPC   PO437056   0.586  26.388   9.301
 2778POPC   GL137057   0.400  26.044   9.071
 2778POPC   GL237058   0.193  25.799   9.262
 2778POPC   C1A37059   0.361  26.083   8.645
 2778POPC   D2A37060   0.631  26.297   8.401
 2778POPC   C3A37061   0.546  26.176   8.013
 2778POPC   C4A37062   0.720  26.205   7.619
 2778POPC   C1B37063   0.052  25.675   8.849
 2778POPC   C2B37064   0.184  25.608   8.425
 2778POPC   C3B37065   0.106  25.864   8.072
 2778POPC   C4B37066   0.268  25.958   7.655
 2779POPC   NC337067  42.785  43.645   9.677
 2779POPC   PO437068  42.073  43.754   9.707
 2779POPC   GL137069  42.209  43.926   9.280
 2779POPC   GL237070  42.548  44.087   9.200
 2779POPC   C1A37071  42.245  43.755   8.849
 2779POPC   D2A37072  42.140  43.860   8.429
 2779POPC   C3A37073  42.458  43.784   8.129
 2779POPC   C4A37074  42.400  43.696   7.710
 2779POPC   C1B37075  42.634  44.060   8.709
 2779POPC   C2B37076  42.466  44.269   8.324
 2779POPC   C3B37077  42.159  44.203   8.011
 2779POPC   C4B37078  42.380  44.185   7.635
 2780POPC   NC337079  30.879  41.793   9.563
 2780POPC   PO437080  30.571  41.223   9.467
 2780POPC   GL137081  30.447  41.397   9.112
 2780POPC   GL237082  30.268  41.731   9.088
 2780POPC   C1A37083  30.697  41.259   8.783
 2780POPC   D2A37084  30.614  41.064   8.430
 2780POPC   C3A37085  30.848  41.303   8.110
 2780POPC   C4A37086  30.617  41.508   7.760
 2780POPC   C1B37087  30.741  41.777   8.908
 2780POPC   C2B37088  30.920  41.658   8.505
 2780POPC   C3B37089  30.764  41.823   8.138
 2780POPC   C4B37090  30.801  42.004   7.743
 2781POPC   NC337091  30.958  21.495   9.685
 2781POPC   PO437092  30.297  21.221   9.363
 2781POPC   GL137093  30.524  21.454   9.104
 2781POPC   GL237094  30.852  21.565   9.197
 2781POPC   C1A37095  30.653  21.463   8.706
 2781POPC   D2A37096  30.581  21.143   8.439
 2781POPC   C3A37097  30.557  21.298   8.039
 2781POPC   C4A37098  30.361  21.364   7.648
 2781POPC   C1B37099  31.090  21.711   8.853
 2781POPC   C2B37100  30.942  21.822   8.439
 2781POPC   C3B37101  31.076  21.740   8.027
 2781POPC   C4B37102  30.919  21.436   7.693
 2782POPC   NC337103   1.654   7.971   9.499
 2782POPC   PO437104   2.133   8.454   9.515
 2782POPC   GL137105   2.060   8.248   9.112
 2782POPC   GL237106   1.678   8.230   9.065
 2782POPC   C1A37107   2.279   8.214   8.695
 2782POPC   D2A37108   2.365   7.956   8.319
 2782POPC   C3A37109   2.141   8.030   7.932
 2782POPC   C4A37110   1.876   7.942   7.581
 2782POPC   C1B37111   1.819   7.982   8.714
 2782POPC   C2B37112   1.898   8.184   8.349
 2782POPC   C3B37113   1.759   8.389   8.008
 2782POPC   C4B37114   1.496   8.273   7.701
 2783POPC   NC337115  29.705  32.314   9.421
 2783POPC   PO437116  30.400  32.108   9.349
 2783POPC   GL137117  30.046  32.050   9.126
 2783POPC   GL237118  30.053  32.384   9.059
 2783POPC   C1A37119  30.065  32.027   8.689
 2783POPC   D2A37120  30.236  31.909   8.319
 2783POPC   C3A37121  30.268  32.256   8.058
 2783POPC   C4A37122  29.996  32.426   7.753
 2783POPC   C1B37123  29.797  32.510   8.744
 2783POPC   C2B37124  29.891  32.457   8.356
 2783POPC   C3B37125  29.615  32.428   8.063
 2783POPC   C4B37126  29.463  32.666   7.750
 2784POPC   NC337127  10.419  35.020   9.510
 2784POPC   PO437128  10.071  34.409   9.535
 2784POPC   GL137129  10.332  34.495   9.177
 2784POPC   GL237130  10.628  34.315   9.191
 2784POPC   C1A37131  10.320  34.391   8.721
 2784POPC   D2A37132  10.427  34.290   8.258
 2784POPC   C3A37133  10.384  34.572   7.898
 2784POPC   C4A37134  10.226  34.408   7.537
 2784POPC   C1B37135  10.819  34.249   8.747
 2784POPC   C2B37136  10.933  34.281   8.289
 2784POPC   C3B37137  10.905  34.575   7.915
 2784POPC   C4B37138  10.913  35.023   7.672
 2785POPC   NC337139  44.174   5.677   9.642
 2785POPC   PO437140  43.535   5.968   9.541
 2785POPC   GL137141  43.782   5.935   9.159
 2785POPC   GL237142  44.061   5.694   9.155
 2785POPC   C1A37143  43.926   5.915   8.722
 2785POPC   D2A37144  43.755   5.908   8.332
 2785POPC   C3A37145  44.045   5.912   7.992
 2785POPC   C4A37146  43.758   5.887   7.682
 2785POPC   C1B37147  44.132   5.404   8.822
 2785POPC   C2B37148  44.229   5.509   8.396
 2785POPC   C3B37149  44.271   5.414   7.992
 2785POPC   C4B37150  44.189   5.601   7.609
 2786POPC   NC337151  29.807  43.355   9.539
 2786POPC   PO437152  30.104  42.766   9.607
 2786POPC   GL137153  30.023  42.979   9.239
 2786POPC   GL237154  29.679  43.019   9.180
 2786POPC   C1A37155  30.024  43.222   8.856
 2786POPC   D2A37156  29.740  43.241   8.491
 2786POPC   C3A37157  29.920  43.207   8.086
 2786POPC   C4A37158  29.980  43.356   7.687
 2786POPC   C1B37159  29.754  42.795   8.802
 2786POPC   C2B37160  29.502  42.679   8.461
 2786POPC   C3B37161  29.489  42.935   8.114
 2786POPC   C4B37162  29.699  42.906   7.713
 2787POPC   NC337163  21.455  31.780   9.882
 2787POPC   PO437164  21.555  32.358   9.542
 2787POPC   GL137165  21.494  32.300   9.154
 2787POPC   GL237166  21.677  31.970   9.169
 2787POPC   C1A37167  21.223  32.347   8.788
 2787POPC   D2A37168  21.149  32.266   8.356
 2787POPC   C3A37169  21.429  32.381   8.019
 2787POPC   C4A37170  21.279  32.502   7.624
 2787POPC   C1B37171  21.689  32.143   8.737
 2787POPC   C2B37172  21.676  32.025   8.345
 2787POPC   C3B37173  21.829  32.059   7.945
 2787POPC   C4B37174  21.736  32.271   7.593
 2788POPC   NC337175  40.385  13.211   9.389
 2788POPC   PO437176  40.148  13.860   9.580
 2788POPC   GL137177  40.132  13.951   9.183
 2788POPC   GL237178  40.345  13.680   9.098
 2788POPC   C1A37179  39.929  13.795   8.816
 2788POPC   D2A37180  39.822  13.589   8.442
 2788POPC   C3A37181  39.996  13.700   8.043
 2788POPC   C4A37182  39.801  13.976   7.749
 2788POPC   C1B37183  40.313  13.426   8.714
 2788POPC   C2B37184  40.463  13.422   8.273
 2788POPC   C3B37185  40.303  13.277   7.895
 2788POPC   C4B37186  40.015  13.391   7.628
 2789POPC   NC337187   3.456   0.123   9.591
 2789POPC   PO437188   3.138  44.499   9.512
 2789POPC   GL137189   3.299  44.700   9.170
 2789POPC   GL237190   3.601  44.872   9.166
 2789POPC   C1A37191   3.274  44.844   8.758
 2789POPC   D2A37192   3.437  44.957   8.392
 2789POPC   C3A37193   3.197  44.748   8.071
 2789POPC   C4A37194   3.320  44.783   7.629
 2789POPC   C1B37195   3.788  44.794   8.787
 2789POPC   C2B37196   3.911  44.787   8.382
 2789POPC   C3B37197   3.711  44.752   7.986
 2789POPC   C4B37198   3.850  44.972   7.651
 2790POPC   NC337199  12.480  21.577   9.678
 2790POPC   PO437200  12.370  20.954   9.395
 2790POPC   GL137201  12.194  21.377   9.276
 2790POPC   GL237202  11.842  21.320   9.245
 2790POPC   C1A37203  12.167  21.648   8.895
 2790POPC   D2A37204  12.391  21.673   8.482
 2790POPC   C3A37205  12.224  21.641   8.070
 2790POPC   C4A37206  12.126  21.287   7.803
 2790POPC   C1B37207  12.014  21.155   8.836
 2790POPC   C2B37208  12.106  21.155   8.384
 2790POPC   C3B37209  11.784  21.027   8.073
 2790POPC   C4B37210  11.455  21.130   7.785
 2791POPC   NC337211   9.336   0.565   9.531
 2791POPC   PO437212   9.861   0.077   9.484
 2791POPC   GL137213   9.630   0.328   9.145
 2791POPC   GL237214   9.446   0.647   9.051
 2791POPC   C1A37215   9.602   0.344   8.695
 2791POPC   D2A37216   9.626   0.464   8.285
 2791POPC   C3A37217   9.901   0.191   8.089
 2791POPC   C4A37218   9.769   0.390   7.733
 2791POPC   C1B37219   9.618   0.849   8.669
 2791POPC   C2B37220   9.477   0.997   8.276
 2791POPC   C3B37221   9.616   0.841   7.897
 2791POPC   C4B37222   9.503   0.733   7.456
 2792POPC   NC337223  16.191  40.257   9.601
 2792POPC   PO437224  15.695  39.804   9.757
 2792POPC   GL137225  15.948  39.957   9.279
 2792POPC   GL237226  15.942  40.318   9.141
 2792POPC   C1A37227  15.935  39.808   8.823
 2792POPC   D2A37228  15.694  39.887   8.440
 2792POPC   C3A37229  15.769  39.854   7.988
 2792POPC   C4A37230  15.694  40.128   7.636
 2792POPC   C1B37231  15.944  40.301   8.701
 2792POPC   C2B37232  16.190  40.042   8.422
 2792POPC   C3B37233  16.331  40.106   8.051
 2792POPC   C4B37234  16.166  39.965   7.684
 2793POPC   NC337235  26.643  38.370   9.595
 2793POPC   PO437236  27.214  38.499   9.788
 2793POPC   GL137237  27.042  38.527   9.306
 2793POPC   GL237238  26.789  38.259   9.127
 2793POPC   C1A37239  26.990  38.630   8.836
 2793POPC   D2A37240  26.800  38.454   8.471
 2793POPC   C3A37241  26.780  38.647   8.074
 2793POPC   C4A37242  26.958  38.576   7.658
 2793POPC   C1B37243  26.459  38.248   8.792
 2793POPC   C2B37244  26.359  38.094   8.372
 2793POPC   C3B37245  26.407  38.301   7.960
 2793POPC   C4B37246  26.443  38.716   7.707
 2794POPC   NC337247  20.774   8.086   9.907
 2794POPC   PO437248  21.253   8.405   9.592
 2794POPC   GL137249  21.283   8.130   9.222
 2794POPC   GL237250  21.601   8.166   9.102
 2794POPC   C1A37251  21.125   8.037   8.789
 2794POPC   D2A37252  21.270   8.230   8.328
 2794POPC   C3A37253  21.315   7.978   7.932
 2794POPC   C4A37254  21.029   7.793   7.652
 2794POPC   C1B37255  21.609   8.132   8.683
 2794POPC   C2B37256  21.699   8.493   8.433
 2794POPC   C3B37257  21.847   8.520   8.020
 2794POPC   C4B37258  21.587   8.351   7.647
 2795POPC   NC337259   7.147   3.588   9.598
 2795POPC   PO437260   7.800   3.914   9.555
 2795POPC   GL137261   7.475   3.846   9.230
 2795POPC   GL237262   7.528   3.483   9.179
 2795POPC   C1A37263   7.233   3.878   8.815
 2795POPC   D2A37264   7.219   3.693   8.369
 2795POPC   C3A37265   7.287   3.822   7.945
 2795POPC   C4A37266   7.396   3.435   7.833
 2795POPC   C1B37267   7.653   3.246   8.800
 2795POPC   C2B37268   7.682   3.167   8.357
 2795POPC   C3B37269   7.898   3.244   7.961
 2795POPC   C4B37270   7.776   3.361   7.536
 2796POPC   NC337271   3.149  36.345   9.524
 2796POPC   PO437272   2.488  36.096   9.541
 2796POPC   GL137273   2.803  36.104   9.224
 2796POPC   GL237274   3.003  35.778   9.150
 2796POPC   C1A37275   2.880  36.435   8.916
 2796POPC   D2A37276   2.788  36.451   8.482
 2796POPC   C3A37277   3.040  36.338   8.128
 2796POPC   C4A37278   2.840  36.305   7.736
 2796POPC   C1B37279   2.861  35.951   8.744
 2796POPC   C2B37280   2.720  35.955   8.325
 2796POPC   C3B37281   2.921  35.851   7.930
 2796POPC   C4B37282   2.671  35.810   7.557
 2797POPC   NC337283  19.259   0.181   9.507
 2797POPC   PO437284  18.674   0.487   9.396
 2797POPC   GL137285  18.994   0.436   9.072
 2797POPC   GL237286  19.338   0.292   9.042
 2797POPC   C1A37287  19.121   0.561   8.653
 2797POPC   D2A37288  19.302   0.726   8.294
 2797POPC   C3A37289  19.144   0.503   7.953
 2797POPC   C4A37290  19.196   0.628   7.532
 2797POPC   C1B37291  19.104   0.033   8.762
 2797POPC   C2B37292  18.941   0.147   8.382
 2797POPC   C3B37293  18.910   0.042   7.974
 2797POPC   C4B37294  18.987   0.182   7.564
 2798POPC   NC337295  26.226  13.370   9.558
 2798POPC   PO437296  25.555  13.481   9.394
 2798POPC   GL137297  25.901  13.439   9.120
 2798POPC   GL237298  25.926  13.762   8.976
 2798POPC   C1A37299  26.099  13.330   8.710
 2798POPC   D2A37300  26.023  13.306   8.248
 2798POPC   C3A37301  26.093  13.648   7.961
 2798POPC   C4A37302  25.875  13.532   7.609
 2798POPC   C1B37303  25.859  13.748   8.525
 2798POPC   C2B37304  25.638  13.640   8.144
 2798POPC   C3B37305  25.637  13.915   7.798
 2798POPC   C4B37306  25.550  14.201   7.454
 2799POPC   NC337307  17.921  39.795   9.458
 2799POPC   PO437308  18.478  40.144   9.610
 2799POPC   GL137309  18.370  39.998   9.198
 2799POPC   GL237310  18.538  39.736   9.026
 2799POPC   C1A37311  18.333  40.165   8.776
 2799POPC   D2A37312  18.249  40.007   8.357
 2799POPC   C3A37313  18.562  39.983   8.037
 2799POPC   C4A37314  18.479  40.104   7.587
 2799POPC   C1B37315  18.171  39.661   8.753
 2799POPC   C2B37316  18.202  39.472   8.339
 2799POPC   C3B37317  18.099  39.525   7.929
 2799POPC   C4B37318  18.448  39.606   7.707
 2800POPC   NC337319   9.186  25.226   9.572
 2800POPC   PO437320   8.642  24.946   9.660
 2800POPC   GL137321   8.815  25.154   9.185
 2800POPC   GL237322   9.104  25.347   9.088
 2800POPC   C1A37323   8.950  25.061   8.704
 2800POPC   D2A37324   9.246  25.125   8.337
 2800POPC   C3A37325   9.151  25.255   7.914
 2800POPC   C4A37326   9.120  24.954   7.551
 2800POPC   C1B37327   8.809  25.540   8.802
 2800POPC   C2B37328   8.834  25.506   8.367
 2800POPC   C3B37329   8.628  25.585   8.002
 2800POPC   C4B37330   8.614  25.882   7.660
 2801POPC   NC337331  35.616  39.267   9.581
 2801POPC   PO437332  35.086  39.596   9.407
 2801POPC   GL137333  35.359  39.392   9.104
 2801POPC   GL237334  35.644  39.183   9.080
 2801POPC   C1A37335  35.288  39.485   8.696
 2801POPC   D2A37336  35.040  39.335   8.379
 2801POPC   C3A37337  35.224  39.392   7.970
 2801POPC   C4A37338  35.247  39.236   7.539
 2801POPC   C1B37339  35.522  39.032   8.696
 2801POPC   C2B37340  35.576  39.189   8.297
 2801POPC   C3B37341  35.576  39.051   7.893
 2801POPC   C4B37342  35.215  38.804   7.807
 2802POPC   NC337343   9.876  43.473   9.878
 2802POPC   PO437344   9.503  42.935   9.564
 2802POPC   GL137345   9.773  43.089   9.250
 2802POPC   GL237346   9.806  43.425   9.313
 2802POPC   C1A37347   9.798  42.918   8.839
 2802POPC   D2A37348   9.935  42.733   8.450
 2802POPC   C3A37349   9.796  42.899   8.090
 2802POPC   C4A37350   9.642  42.773   7.691
 2802POPC   C1B37351   9.973  43.442   8.906
 2802POPC   C2B37352   9.933  43.272   8.494
 2802POPC   C3B37353  10.052  43.349   8.081
 2802POPC   C4B37354   9.848  43.254   7.728
 2803POPC   NC337355  30.445  38.021   9.499
 2803POPC   PO437356  30.569  37.374   9.548
 2803POPC   GL137357  30.725  37.588   9.175
 2803POPC   GL237358  30.386  37.622   9.024
 2803POPC   C1A37359  30.861  37.677   8.736
 2803POPC   D2A37360  30.551  37.631   8.418
 2803POPC   C3A37361  30.627  37.605   7.990
 2803POPC   C4A37362  30.906  37.684   7.667
 2803POPC   C1B37363  30.481  38.008   8.818
 2803POPC   C2B37364  30.693  38.177   8.486
 2803POPC   C3B37365  30.494  38.078   8.121
 2803POPC   C4B37366  30.465  38.052   7.693
 2804POPC   NC337367  11.854  28.861   9.459
 2804POPC   PO437368  12.064  29.548   9.634
 2804POPC   GL137369  12.113  29.498   9.160
 2804POPC   GL237370  12.133  29.101   9.123
 2804POPC   C1A37371  11.891  29.355   8.769
 2804POPC   D2A37372  11.791  29.492   8.415
 2804POPC   C3A37373  12.091  29.490   8.084
 2804POPC   C4A37374  12.006  29.358   7.713
 2804POPC   C1B37375  12.271  28.977   8.749
 2804POPC   C2B37376  12.063  29.071   8.369
 2804POPC   C3B37377  11.934  28.911   8.012
 2804POPC   C4B37378  12.330  28.952   7.805
 2805POPC   NC337379   3.180  16.021   9.538
 2805POPC   PO437380   3.859  15.751   9.641
 2805POPC   GL137381   3.708  15.720   9.211
 2805POPC   GL237382   3.360  15.823   9.095
 2805POPC   C1A37383   3.749  15.832   8.771
 2805POPC   D2A37384   3.459  15.808   8.419
 2805POPC   C3A37385   3.641  15.933   8.011
 2805POPC   C4A37386   3.472  16.117   7.613
 2805POPC   C1B37387   3.378  16.179   8.842
 2805POPC   C2B37388   3.483  16.322   8.428
 2805POPC   C3B37389   3.514  16.453   8.010
 2805POPC   C4B37390   3.879  16.437   7.757
 2806POPC   NC337391  43.914  20.604   9.547
 2806POPC   PO437392  43.557  20.164   9.205
 2806POPC   GL137393  43.902  20.380   9.085
 2806POPC   GL237394  43.739  20.737   9.087
 2806POPC   C1A37395  43.920  20.477   8.659
 2806POPC   D2A37396  43.550  20.548   8.412
 2806POPC   C3A37397  43.663  20.647   8.013
 2806POPC   C4A37398  43.853  20.451   7.705
 2806POPC   C1B37399  44.040  20.990   8.871
 2806POPC   C2B37400  44.120  20.897   8.452
 2806POPC   C3B37401  43.967  21.050   8.101
 2806POPC   C4B37402  43.992  20.938   7.696
 2807POPC   NC337403  28.673   7.517   9.349
 2807POPC   PO437404  27.933   7.612   9.428
 2807POPC   GL137405  27.976   7.747   9.035
 2807POPC   GL237406  28.299   7.647   9.027
 2807POPC   C1A37407  27.992   7.528   8.639
 2807POPC   D2A37408  28.307   7.213   8.555
 2807POPC   C3A37409  28.298   7.141   8.119
 2807POPC   C4A37410  27.946   7.208   7.824
 2807POPC   C1B37411  28.564   7.674   8.684
 2807POPC   C2B37412  28.492   7.858   8.305
 2807POPC   C3B37413  28.509   7.821   7.895
 2807POPC   C4B37414  28.374   7.460   7.706
 2808POPC   NC337415  10.828  14.122   9.621
 2808POPC   PO437416  10.159  14.144   9.394
 2808POPC   GL137417  10.332  14.491   9.175
 2808POPC   GL237418  10.698  14.460   9.159
 2808POPC   C1A37419  10.406  14.593   8.754
 2808POPC   D2A37420  10.469  14.321   8.402
 2808POPC   C3A37421  10.520  14.533   8.043
 2808POPC   C4A37422  10.363  14.496   7.634
 2808POPC   C1B37423  10.893  14.356   8.754
 2808POPC   C2B37424  11.199  14.245   8.422
 2808POPC   C3B37425  10.992  14.255   8.045
 2808POPC   C4B37426  10.898  14.398   7.659
 2809POPC   NC337427  10.566  26.975   9.631
 2809POPC   PO437428  10.755  26.403   9.557
 2809POPC   GL137429  10.514  26.672   9.203
 2809POPC   GL237430  10.527  27.040   9.123
 2809POPC   C1A37431  10.279  26.697   8.788
 2809POPC   D2A37432  10.178  26.841   8.356
 2809POPC   C3A37433  10.534  26.881   8.031
 2809POPC   C4A37434  10.802  26.577   7.767
 2809POPC   C1B37435  10.220  27.206   8.818
 2809POPC   C2B37436  10.213  27.374   8.417
 2809POPC   C3B37437  10.156  27.239   8.013
 2809POPC   C4B37438  10.355  27.241   7.616
 2810POPC   NC337439  38.520  18.681   9.582
 2810POPC   PO437440  38.177  19.199   9.742
 2810POPC   GL137441  38.360  19.028   9.256
 2810POPC   GL237442  38.239  18.683   9.145
 2810POPC   C1A37443  38.472  19.236   8.853
 2810POPC   D2A37444  38.721  19.394   8.501
 2810POPC   C3A37445  38.791  19.131   8.135
 2810POPC   C4A37446  38.473  19.173   7.825
 2810POPC   C1B37447  38.162  18.832   8.759
 2810POPC   C2B37448  38.362  18.986   8.406
 2810POPC   C3B37449  38.330  18.706   8.095
 2810POPC   C4B37450  38.040  18.829   7.837
 2811POPC   NC337451  17.503  16.152   9.498
 2811POPC   PO437452  17.648  15.483   9.577
 2811POPC   GL137453  17.545  15.729   9.128
 2811POPC   GL237454  17.548  16.100   9.012
 2811POPC   C1A37455  17.392  15.781   8.661
 2811POPC   D2A37456  17.137  15.648   8.321
 2811POPC   C3A37457  17.261  15.569   7.931
 2811POPC   C4A37458  17.629  15.709   7.783
 2811POPC   C1B37459  17.850  16.033   8.683
 2811POPC   C2B37460  17.707  15.917   8.269
 2811POPC   C3B37461  17.366  16.050   8.023
 2811POPC   C4B37462  17.579  16.216   7.642
 2812POPC   NC337463   5.532  22.971   9.489
 2812POPC   PO437464   4.939  22.830   9.690
 2812POPC   GL137465   5.079  22.988   9.221
 2812POPC   GL237466   5.403  22.927   9.007
 2812POPC   C1A37467   5.001  23.103   8.757
 2812POPC   D2A37468   5.155  23.165   8.330
 2812POPC   C3A37469   4.860  23.089   7.970
 2812POPC   C4A37470   4.504  23.111   7.655
 2812POPC   C1B37471   5.494  23.318   8.716
 2812POPC   C2B37472   5.526  23.515   8.268
 2812POPC   C3B37473   5.328  23.341   7.887
 2812POPC   C4B37474   5.270  22.878   7.701
 2813POPC   NC337475   8.793  20.343   9.449
 2813POPC   PO437476   9.086  20.991   9.380
 2813POPC   GL137477   8.919  20.708   9.117
 2813POPC   GL237478   9.187  20.456   9.134
 2813POPC   C1A37479   8.795  20.460   8.773
 2813POPC   D2A37480   8.816  20.466   8.349
 2813POPC   C3A37481   9.119  20.714   8.148
 2813POPC   C4A37482   8.828  20.679   7.821
 2813POPC   C1B37483   9.200  20.147   8.797
 2813POPC   C2B37484   9.257  20.234   8.366
 2813POPC   C3B37485   9.139  20.228   7.946
 2813POPC   C4B37486   9.469  20.219   7.649
 2814POPC   NC337487  37.645  40.406   9.441
 2814POPC   PO437488  38.019  39.921   9.774
 2814POPC   GL137489  37.656  39.864   9.385
 2814POPC   GL237490  37.340  39.878   9.227
 2814POPC   C1A37491  37.684  39.842   8.871
 2814POPC   D2A37492  37.894  39.968   8.490
 2814POPC   C3A37493  37.792  39.700   8.162
 2814POPC   C4A37494  37.676  39.816   7.772
 2814POPC   C1B37495  37.329  40.182   8.806
 2814POPC   C2B37496  37.474  40.257   8.385
 2814POPC   C3B37497  37.324  40.114   7.995
 2814POPC   C4B37498  37.232  40.182   7.564
 2815POPC   NC337499  16.765   7.807   9.522
 2815POPC   PO437500  16.368   7.235   9.661
 2815POPC   GL137501  16.559   7.140   9.157
 2815POPC   GL237502  16.823   7.345   9.194
 2815POPC   C1A37503  16.591   7.442   8.725
 2815POPC   D2A37504  16.824   7.365   8.331
 2815POPC   C3A37505  16.522   7.335   7.993
 2815POPC   C4A37506  16.364   7.716   7.825
 2815POPC   C1B37507  17.014   7.198   8.811
 2815POPC   C2B37508  17.326   7.287   8.512
 2815POPC   C3B37509  17.302   7.249   8.091
 2815POPC   C4B37510  17.001   7.324   7.815
 2816POPC   NC337511  30.652  28.868   9.285
 2816POPC   PO437512  30.684  28.310   9.732
 2816POPC   GL137513  30.819  28.386   9.296
 2816POPC   GL237514  30.865  28.072   9.143
 2816POPC   C1A37515  30.887  28.496   8.837
 2816POPC   D2A37516  30.929  28.285   8.452
 2816POPC   C3A37517  30.737  28.317   8.065
 2816POPC   C4A37518  30.899  28.615   7.814
 2816POPC   C1B37519  30.587  28.084   8.790
 2816POPC   C2B37520  30.469  27.974   8.361
 2816POPC   C3B37521  30.255  28.083   7.990
 2816POPC   C4B37522  30.520  27.976   7.697
 2817POPC   NC337523   9.395  24.470   9.485
 2817POPC   PO437524   9.942  24.106   9.611
 2817POPC   GL137525   9.964  24.227   9.206
 2817POPC   GL237526   9.836  24.575   9.223
 2817POPC   C1A37527   9.644  24.176   8.900
 2817POPC   D2A37528   9.383  24.380   8.573
 2817POPC   C3A37529   9.549  24.284   8.161
 2817POPC   C4A37530   9.775  24.513   7.801
 2817POPC   C1B37531   9.765  24.662   8.780
 2817POPC   C2B37532   9.717  24.754   8.336
 2817POPC   C3B37533  10.112  24.722   8.100
 2817POPC   C4B37534  10.140  24.903   7.703
 2818POPC   NC337535  10.788  32.662   9.547
 2818POPC   PO437536  10.805  31.995   9.609
 2818POPC   GL137537  10.724  32.009   9.160
 2818POPC   GL237538  10.340  31.961   9.155
 2818POPC   C1A37539  10.905  32.072   8.722
 2818POPC   D2A37540  10.656  32.256   8.340
 2818POPC   C3A37541  10.544  32.067   7.917
 2818POPC   C4A37542  10.457  32.328   7.534
 2818POPC   C1B37543  10.396  32.196   8.789
 2818POPC   C2B37544  10.145  32.343   8.468
 2818POPC   C3B37545  10.232  32.444   8.058
 2818POPC   C4B37546  10.046  32.569   7.710
 2819POPC   NC337547  33.394  38.450   9.517
 2819POPC   PO437548  34.000  38.360   9.867
 2819POPC   GL137549  33.945  38.478   9.375
 2819POPC   GL237550  33.979  38.186   9.183
 2819POPC   C1A37551  33.968  38.637   8.925
 2819POPC   D2A37552  33.708  38.599   8.517
 2819POPC   C3A37553  33.908  38.565   8.097
 2819POPC   C4A37554  33.952  38.866   7.787
 2819POPC   C1B37555  33.757  38.187   8.803
 2819POPC   C2B37556  33.934  38.152   8.379
 2819POPC   C3B37557  33.832  38.072   7.947
 2819POPC   C4B37558  33.959  38.183   7.481
 2820POPC   NC337559  14.901   4.332   9.551
 2820POPC   PO437560  15.492   4.028   9.505
 2820POPC   GL137561  15.283   4.318   9.199
 2820POPC   GL237562  14.994   4.621   9.151
 2820POPC   C1A37563  15.405   4.237   8.811
 2820POPC   D2A37564  15.583   4.419   8.481
 2820POPC   C3A37565  15.313   4.321   8.148
 2820POPC   C4A37566  15.354   4.281   7.700
 2820POPC   C1B37567  14.763   4.620   8.757
 2820POPC   C2B37568  14.775   4.400   8.364
 2820POPC   C3B37569  14.827   4.262   7.928
 2820POPC   C4B37570  14.913   4.496   7.558
 2821POPC   NC337571  31.045  19.381   9.366
 2821POPC   PO437572  30.640  19.949   9.556
 2821POPC   GL137573  30.755  19.899   9.171
 2821POPC   GL237574  30.476  19.847   9.055
 2821POPC   C1A37575  30.854  19.908   8.696
 2821POPC   D2A37576  30.612  19.897   8.283
 2821POPC   C3A37577  30.798  19.864   7.884
 2821POPC   C4A37578  30.909  20.152   7.552
 2821POPC   C1B37579  30.472  19.585   8.673
 2821POPC   C2B37580  30.341  19.471   8.300
 2821POPC   C3B37581  30.336  19.641   7.895
 2821POPC   C4B37582  30.341  19.386   7.561
 2822POPC   NC337583  41.861  43.381   9.917
 2822POPC   PO437584  42.180  43.113   9.409
 2822POPC   GL137585  42.123  42.879   9.091
 2822POPC   GL237586  42.488  42.947   9.021
 2822POPC   C1A37587  42.110  42.953   8.689
 2822POPC   D2A37588  42.122  43.344   8.504
 2822POPC   C3A37589  42.228  43.300   8.097
 2822POPC   C4A37590  42.157  43.232   7.693
 2822POPC   C1B37591  42.545  42.703   8.717
 2822POPC   C2B37592  42.474  42.892   8.328
 2822POPC   C3B37593  42.646  42.832   7.942
 2822POPC   C4B37594  42.558  42.913   7.510
 2823POPC   NC337595  24.628  27.994   9.488
 2823POPC   PO437596  24.366  28.618   9.508
 2823POPC   GL137597  24.426  28.331   9.160
 2823POPC   GL237598  24.188  28.518   9.007
 2823POPC   C1A37599  24.453  28.157   8.707
 2823POPC   D2A37600  24.680  27.901   8.382
 2823POPC   C3A37601  24.816  28.113   7.996
 2823POPC   C4A37602  24.743  28.545   7.835
 2823POPC   C1B37603  24.567  28.640   8.768
 2823POPC   C2B37604  24.595  28.483   8.343
 2823POPC   C3B37605  24.323  28.211   8.112
 2823POPC   C4B37606  24.274  28.415   7.723
 2824POPC   NC337607  21.342  42.344   9.735
 2824POPC   PO437608  21.871  42.565   9.328
 2824POPC   GL137609  21.570  42.205   9.182
 2824POPC   GL237610  21.190  42.145   9.263
 2824POPC   C1A37611  21.459  42.126   8.743
 2824POPC   D2A37612  21.528  42.384   8.363
 2824POPC   C3A37613  21.540  42.165   7.930
 2824POPC   C4A37614  21.732  42.344   7.542
 2824POPC   C1B37615  21.060  42.393   8.923
 2824POPC   C2B37616  21.005  42.341   8.493
 2824POPC   C3B37617  21.126  42.470   8.077
 2824POPC   C4B37618  21.204  42.386   7.611
 2825POPC   NC337619   5.313   6.461   9.392
 2825POPC   PO437620   5.051   7.041   9.588
 2825POPC   GL137621   5.137   6.908   9.180
 2825POPC   GL237622   4.883   6.659   9.167
 2825POPC   C1A37623   5.211   6.702   8.764
 2825POPC   D2A37624   5.269   6.470   8.356
 2825POPC   C3A37625   5.169   6.681   7.986
 2825POPC   C4A37626   5.192   6.828   7.556
 2825POPC   C1B37627   4.764   6.441   8.810
 2825POPC   C2B37628   4.743   6.577   8.373
 2825POPC   C3B37629   4.805   6.327   7.985
 2825POPC   C4B37630   5.084   6.341   7.620
 2826POPC   NC337631  31.521  24.054   9.564
 2826POPC   PO437632  31.245  23.512   9.718
 2826POPC   GL137633  31.277  23.482   9.201
 2826POPC   GL237634  31.565  23.696   9.175
 2826POPC   C1A37635  31.229  23.725   8.749
 2826POPC   D2A37636  31.462  23.832   8.410
 2826POPC   C3A37637  31.309  23.690   8.081
 2826POPC   C4A37638  31.304  23.861   7.723
 2826POPC   C1B37639  31.739  23.846   8.821
 2826POPC   C2B37640  31.951  24.053   8.475
 2826POPC   C3B37641  31.831  24.025   8.049
 2826POPC   C4B37642  31.798  23.723   7.761
 2827POPC   NC337643   8.472  33.352   9.589
 2827POPC   PO437644   8.355  33.978   9.387
 2827POPC   GL137645   8.168  33.720   9.101
 2827POPC   GL237646   8.380  33.410   9.074
 2827POPC   C1A37647   7.988  33.869   8.726
 2827POPC   D2A37648   8.245  33.938   8.380
 2827POPC   C3A37649   8.013  33.983   8.003
 2827POPC   C4A37650   8.017  33.997   7.578
 2827POPC   C1B37651   8.250  33.445   8.631
 2827POPC   C2B37652   7.987  33.509   8.260
 2827POPC   C3B37653   8.229  33.521   7.876
 2827POPC   C4B37654   8.154  33.514   7.405
 2828POPC   NC337655  11.207  20.732   9.443
 2828POPC   PO437656  11.786  20.337   9.496
 2828POPC   GL137657  11.574  20.535   9.127
 2828POPC   GL237658  11.544  20.907   9.045
 2828POPC   C1A37659  11.417  20.548   8.698
 2828POPC   D2A37660  11.366  20.807   8.326
 2828POPC   C3A37661  11.259  20.554   7.995
 2828POPC   C4A37662  11.393  20.347   7.679
 2828POPC   C1B37663  11.109  20.951   8.810
 2828POPC   C2B37664  10.939  21.088   8.403
 2828POPC   C3B37665  10.976  20.968   7.958
 2828POPC   C4B37666  11.172  20.794   7.540
 2829POPC   NC337667  34.065  19.953   9.618
 2829POPC   PO437668  33.650  20.346   9.481
 2829POPC   GL137669  33.787  20.009   9.174
 2829POPC   GL237670  34.152  19.947   9.126
 2829POPC   C1A37671  33.814  19.887   8.731
 2829POPC   D2A37672  33.717  19.760   8.303
 2829POPC   C3A37673  33.684  19.994   7.932
 2829POPC   C4A37674  33.791  19.784   7.530
 2829POPC   C1B37675  34.328  19.833   8.738
 2829POPC   C2B37676  34.216  19.902   8.350
 2829POPC   C3B37677  34.146  19.792   7.960
 2829POPC   C4B37678  34.245  20.024   7.618
 2830POPC   NC337679  15.145  33.591   9.706
 2830POPC   PO437680  15.203  34.153   9.589
 2830POPC   GL137681  15.203  33.826   9.221
 2830POPC   GL237682  15.313  33.484   9.233
 2830POPC   C1A37683  15.019  33.675   8.795
 2830POPC   D2A37684  15.061  33.793   8.342
 2830POPC   C3A37685  14.955  33.796   7.901
 2830POPC   C4A37686  15.336  33.980   7.629
 2830POPC   C1B37687  15.512  33.550   8.823
 2830POPC   C2B37688  15.479  33.445   8.389
 2830POPC   C3B37689  15.415  33.614   7.982
 2830POPC   C4B37690  15.194  33.489   7.556
 2831POPC   NC337691  15.077  18.547   9.299
 2831POPC   PO437692  14.942  19.174   9.567
 2831POPC   GL137693  15.094  19.263   9.166
 2831POPC   GL237694  15.057  18.952   8.961
 2831POPC   C1A37695  15.336  19.334   8.808
 2831POPC   D2A37696  15.211  19.125   8.437
 2831POPC   C3A37697  15.273  19.367   8.086
 2831POPC   C4A37698  15.238  19.315   7.658
 2831POPC   C1B37699  15.157  18.643   8.643
 2831POPC   C2B37700  15.357  18.604   8.261
 2831POPC   C3B37701  15.237  18.868   7.954
 2831POPC   C4B37702  14.858  18.992   7.735
 2832POPC   NC337703  23.143   2.519   9.608
 2832POPC   PO437704  22.827   3.007   9.355
 2832POPC   GL137705  22.736   2.944   8.948
 2832POPC   GL237706  23.016   2.726   8.945
 2832POPC   C1A37707  22.888   2.971   8.506
 2832POPC   D2A37708  23.328   2.985   8.385
 2832POPC   C3A37709  23.249   2.826   7.997
 2832POPC   C4A37710  22.818   2.847   7.893
 2832POPC   C1B37711  22.680   2.531   8.669
 2832POPC   C2B37712  22.499   2.615   8.267
 2832POPC   C3B37713  22.522   2.419   7.855
 2832POPC   C4B37714  22.842   2.485   7.544
 2833POPC   NC337715  22.031  32.210   9.528
 2833POPC   PO437716  22.515  32.119   9.135
 2833POPC   GL137717  22.135  32.165   8.982
 2833POPC   GL237718  21.963  32.462   9.073
 2833POPC   C1A37719  22.151  32.079   8.550
 2833POPC   D2A37720  22.313  32.175   8.178
 2833POPC   C3A37721  22.299  31.907   7.827
 2833POPC   C4A37722  22.276  32.147   7.449
 2833POPC   C1B37723  21.968  32.569   8.641
 2833POPC   C2B37724  21.906  32.500   8.206
 2833POPC   C3B37725  22.135  32.489   7.802
 2833POPC   C4B37726  22.003  32.690   7.366
 2834POPC   NC337727  20.322  33.562   9.617
 2834POPC   PO437728  20.890  33.791   9.388
 2834POPC   GL137729  20.717  33.766   9.026
 2834POPC   GL237730  20.371  33.732   9.142
 2834POPC   C1A37731  20.818  33.460   8.747
 2834POPC   D2A37732  20.554  33.452   8.411
 2834POPC   C3A37733  20.612  33.838   8.189
 2834POPC   C4A37734  20.642  33.892   7.748
 2834POPC   C1B37735  20.317  33.846   8.697
 2834POPC   C2B37736  20.096  33.755   8.300
 2834POPC   C3B37737  20.173  33.748   7.853
 2834POPC   C4B37738  20.308  33.710   7.398
 2835POPC   NC337739  23.046  34.223   9.572
 2835POPC   PO437740  22.797  34.845   9.572
 2835POPC   GL137741  22.823  34.696   9.196
 2835POPC   GL237742  22.926  34.362   9.117
 2835POPC   C1A37743  22.708  34.681   8.789
 2835POPC   D2A37744  22.931  34.710   8.430
 2835POPC   C3A37745  22.739  34.687   8.047
 2835POPC   C4A37746  22.907  34.752   7.669
 2835POPC   C1B37747  23.126  34.275   8.718
 2835POPC   C2B37748  23.387  34.516   8.415
 2835POPC   C3B37749  23.276  34.584   8.008
 2835POPC   C4B37750  23.465  34.442   7.653
 2836POPC   NC337751  35.698   3.593   9.769
 2836POPC   PO437752  35.217   3.192   9.494
 2836POPC   GL137753  35.429   3.477   9.230
 2836POPC   GL237754  35.663   3.259   9.062
 2836POPC   C1A37755  35.445   3.690   8.823
 2836POPC   D2A37756  35.663   3.770   8.431
 2836POPC   C3A37757  35.427   3.728   8.063
 2836POPC   C4A37758  35.084   3.480   7.918
 2836POPC   C1B37759  35.840   3.314   8.646
 2836POPC   C2B37760  35.813   3.347   8.182
 2836POPC   C3B37761  35.572   3.281   7.807
 2836POPC   C4B37762  35.642   3.341   7.388
 2837POPC   NC337763  15.044   9.235   9.404
 2837POPC   PO437764  15.591   9.032   9.419
 2837POPC   GL137765  15.280   8.910   9.055
 2837POPC   GL237766  14.919   8.922   9.024
 2837POPC   C1A37767  15.147   8.953   8.590
 2837POPC   D2A37768  15.449   8.842   8.338
 2837POPC   C3A37769  15.379   9.005   7.959
 2837POPC   C4A37770  15.371   8.849   7.527
 2837POPC   C1B37771  14.646   9.071   8.704
 2837POPC   C2B37772  14.736   9.251   8.357
 2837POPC   C3B37773  14.673   9.153   7.976
 2837POPC   C4B37774  14.965   9.126   7.652
 2838POPC   NC337775  27.104  11.032   9.488
 2838POPC   PO437776  26.456  11.313   9.749
 2838POPC   GL137777  26.572  11.162   9.325
 2838POPC   GL237778  26.846  11.311   9.157
 2838POPC   C1A37779  26.491  11.082   8.856
 2838POPC   D2A37780  26.683  11.132   8.432
 2838POPC   C3A37781  26.424  11.191   8.062
 2838POPC   C4A37782  26.529  11.277   7.634
 2838POPC   C1B37783  27.060  11.289   8.772
 2838POPC   C2B37784  27.078  11.510   8.407
 2838POPC   C3B37785  26.982  11.280   8.024
 2838POPC   C4B37786  27.016  11.484   7.642
 2839POPC   NC337787  15.166   5.241   9.463
 2839POPC   PO437788  15.284   4.667   9.574
 2839POPC   GL137789  15.459   4.877   9.209
 2839POPC   GL237790  15.646   4.642   9.024
 2839POPC   C1A37791  15.395   5.227   8.862
 2839POPC   D2A37792  15.217   5.322   8.451
 2839POPC   C3A37793  15.490   5.235   8.114
 2839POPC   C4A37794  15.488   5.425   7.701
 2839POPC   C1B37795  15.286   4.738   8.755
 2839POPC   C2B37796  15.289   4.820   8.347
 2839POPC   C3B37797  15.431   4.760   7.933
 2839POPC   C4B37798  15.294   4.835   7.521
 2840POPC   NC337799  28.817  38.248   9.429
 2840POPC   PO437800  29.368  38.613   9.303
 2840POPC   GL137801  29.240  38.265   9.140
 2840POPC   GL237802  29.548  38.094   9.139
 2840POPC   C1A37803  29.024  38.332   8.753
 2840POPC   D2A37804  29.214  38.320   8.340
 2840POPC   C3A37805  29.009  38.053   8.096
 2840POPC   C4A37806  28.785  38.329   7.811
 2840POPC   C1B37807  29.502  38.146   8.725
 2840POPC   C2B37808  29.726  38.199   8.368
 2840POPC   C3B37809  29.604  38.221   7.978
 2840POPC   C4B37810  29.288  38.430   7.816
 2841POPC   NC337811   6.386  20.372   9.506
 2841POPC   PO437812   7.011  20.588   9.489
 2841POPC   GL137813   6.710  20.624   9.154
 2841POPC   GL237814   6.658  20.275   9.073
 2841POPC   C1A37815   6.781  20.676   8.700
 2841POPC   D2A37816   6.701  20.413   8.331
 2841POPC   C3A37817   6.907  20.550   7.967
 2841POPC   C4A37818   6.797  20.771   7.624
 2841POPC   C1B37819   6.416  20.164   8.714
 2841POPC   C2B37820   6.174  20.284   8.367
 2841POPC   C3B37821   6.280  20.464   7.957
 2841POPC   C4B37822   6.578  20.303   7.636
 2842POPC   NC337823  44.061  41.818   9.528
 2842POPC   PO437824  43.600  41.418   9.533
 2842POPC   GL137825  43.854  41.492   9.148
 2842POPC   GL237826  44.223  41.473   9.164
 2842POPC   C1A37827  44.007  41.284   8.742
 2842POPC   D2A37828  43.909  41.495   8.339
 2842POPC   C3A37829  43.973  41.425   7.882
 2842POPC   C4A37830  44.178  41.216   7.549
 2842POPC   C1B37831  44.100  41.786   8.799
 2842POPC   C2B37832  44.065  42.023   8.409
 2842POPC   C3B37833  44.035  41.933   7.970
 2842POPC   C4B37834  44.296  41.805   7.602
 2843POPC   NC337835  12.940  42.100   9.423
 2843POPC   PO437836  13.305  42.659   9.473
 2843POPC   GL137837  12.881  42.586   9.193
 2843POPC   GL237838  12.685  42.283   9.008
 2843POPC   C1A37839  12.951  42.616   8.748
 2843POPC   D2A37840  12.730  42.725   8.386
 2843POPC   C3A37841  13.013  42.588   8.069
 2843POPC   C4A37842  12.832  42.555   7.690
 2843POPC   C1B37843  12.938  42.077   8.691
 2843POPC   C2B37844  13.113  42.105   8.276
 2843POPC   C3B37845  13.007  42.117   7.865
 2843POPC   C4B37846  12.608  42.087   7.626
 2844POPC   NC337847  17.160  11.845   9.460
 2844POPC   PO437848  16.574  12.250   9.507
 2844POPC   GL137849  16.823  12.129   9.207
 2844POPC   GL237850  16.726  12.417   9.030
 2844POPC   C1A37851  16.728  11.925   8.843
 2844POPC   D2A37852  16.543  12.162   8.585
 2844POPC   C3A37853  16.706  12.100   8.200
 2844POPC   C4A37854  16.771  12.044   7.789
 2844POPC   C1B37855  17.034  12.375   8.710
 2844POPC   C2B37856  17.140  12.421   8.262
 2844POPC   C3B37857  16.900  12.539   7.892
 2844POPC   C4B37858  16.456  12.450   7.883
 2845POPC   NC337859  38.844  37.199   9.403
 2845POPC   PO437860  38.453  36.708   9.408
 2845POPC   GL137861  38.570  36.901   9.041
 2845POPC   GL237862  38.914  36.844   9.028
 2845POPC   C1A37863  38.626  36.852   8.590
 2845POPC   D2A37864  38.642  36.582   8.255
 2845POPC   C3A37865  38.351  36.773   8.007
 2845POPC   C4A37866  38.311  37.074   7.688
 2845POPC   C1B37867  38.878  37.255   8.763
 2845POPC   C2B37868  38.895  37.229   8.306
 2845POPC   C3B37869  38.769  37.046   7.899
 2845POPC   C4B37870  38.761  36.619   7.742
 2846POPC   NC337871  33.046  43.130   9.648
 2846POPC   PO437872  33.492  42.617   9.353
 2846POPC   GL137873  33.066  42.836   9.184
 2846POPC   GL237874  32.864  43.207   9.197
 2846POPC   C1A37875  32.968  42.986   8.760
 2846POPC   D2A37876  33.244  43.233   8.494
 2846POPC   C3A37877  33.111  43.191   8.064
 2846POPC   C4A37878  32.903  42.800   7.907
 2846POPC   C1B37879  32.638  43.400   8.861
 2846POPC   C2B37880  32.734  43.324   8.443
 2846POPC   C3B37881  32.648  43.444   8.057
 2846POPC   C4B37882  32.725  43.230   7.682
 2847POPC   NC337883  32.828   4.432   9.486
 2847POPC   PO437884  33.247   4.023   9.675
 2847POPC   GL137885  33.323   4.129   9.230
 2847POPC   GL237886  33.135   4.441   9.088
 2847POPC   C1A37887  33.355   4.086   8.765
 2847POPC   D2A37888  33.237   4.380   8.416
 2847POPC   C3A37889  33.341   4.222   7.982
 2847POPC   C4A37890  33.162   4.329   7.568
 2847POPC   C1B37891  32.802   4.522   8.805
 2847POPC   C2B37892  32.717   4.478   8.379
 2847POPC   C3B37893  32.918   4.587   7.988
 2847POPC   C4B37894  32.686   4.440   7.637
 2848POPC   NC337895  27.918   3.439   9.792
 2848POPC   PO437896  27.532   3.718   9.356
 2848POPC   GL137897  27.698   3.495   9.104
 2848POPC   GL237898  27.531   3.212   9.008
 2848POPC   C1A37899  27.833   3.647   8.757
 2848POPC   D2A37900  27.710   3.735   8.409
 2848POPC   C3A37901  27.889   3.631   8.070
 2848POPC   C4A37902  27.769   3.745   7.708
 2848POPC   C1B37903  27.598   3.067   8.605
 2848POPC   C2B37904  27.750   3.170   8.233
 2848POPC   C3B37905  27.437   3.222   7.892
 2848POPC   C4B37906  27.433   3.429   7.530
 2849POPC   NC337907  22.286  33.323   9.497
 2849POPC   PO437908  22.114  32.677   9.501
 2849POPC   GL137909  22.251  32.898   9.166
 2849POPC   GL237910  21.967  33.087   9.147
 2849POPC   C1A37911  22.338  33.187   8.821
 2849POPC   D2A37912  22.335  33.364   8.418
 2849POPC   C3A37913  22.556  33.133   8.107
 2849POPC   C4A37914  22.671  33.169   7.699
 2849POPC   C1B37915  21.755  33.018   8.763
 2849POPC   C2B37916  21.884  33.035   8.349
 2849POPC   C3B37917  22.042  33.255   8.015
 2849POPC   C4B37918  22.198  32.993   7.735
 2850POPC   NC337919   5.082  25.561   9.564
 2850POPC   PO437920   5.303  24.969   9.347
 2850POPC   GL137921   5.024  25.256   9.147
 2850POPC   GL237922   5.227  25.530   9.083
 2850POPC   C1A37923   4.968  25.247   8.717
 2850POPC   D2A37924   4.976  25.035   8.351
 2850POPC   C3A37925   4.907  25.268   8.022
 2850POPC   C4A37926   5.081  25.104   7.705
 2850POPC   C1B37927   5.406  25.525   8.665
 2850POPC   C2B37928   5.346  25.389   8.246
 2850POPC   C3B37929   5.503  25.321   7.844
 2850POPC   C4B37930   5.243  25.569   7.537
 2851POPC   NC337931   6.158  33.160   9.527
 2851POPC   PO437932   5.432  33.088   9.431
 2851POPC   GL137933   5.777  33.169   9.149
 2851POPC   GL237934   5.984  32.897   9.122
 2851POPC   C1A37935   5.940  33.222   8.726
 2851POPC   D2A37936   6.115  33.104   8.341
 2851POPC   C3A37937   5.805  33.062   8.022
 2851POPC   C4A37938   5.622  33.342   7.745
 2851POPC   C1B37939   6.209  32.764   8.750
 2851POPC   C2B37940   6.232  32.602   8.319
 2851POPC   C3B37941   6.211  32.800   7.924
 2851POPC   C4B37942   6.181  32.739   7.477
 2852POPC   NC337943  42.413  18.162   9.558
 2852POPC   PO437944  42.573  18.733   9.361
 2852POPC   GL137945  42.435  18.436   9.089
 2852POPC   GL237946  42.663  18.125   9.125
 2852POPC   C1A37947  42.324  18.550   8.653
 2852POPC   D2A37948  42.602  18.466   8.298
 2852POPC   C3A37949  42.426  18.550   7.932
 2852POPC   C4A37950  42.439  18.853   7.595
 2852POPC   C1B37951  42.642  18.149   8.691
 2852POPC   C2B37952  42.467  17.962   8.308
 2852POPC   C3B37953  42.511  18.034   7.860
 2852POPC   C4B37954  42.340  17.789   7.502
 2853POPC   NC337955  31.932   5.241   9.518
 2853POPC   PO437956  31.453   4.764   9.702
 2853POPC   GL137957  31.553   4.939   9.278
 2853POPC   GL237958  31.506   4.754   8.981
 2853POPC   C1A37959  31.666   5.229   8.912
 2853POPC   D2A37960  31.436   5.141   8.528
 2853POPC   C3A37961  31.552   5.275   8.113
 2853POPC   C4A37962  31.270   5.173   7.804
 2853POPC   C1B37963  31.825   4.815   8.670
 2853POPC   C2B37964  31.803   4.769   8.263
 2853POPC   C3B37965  31.659   4.821   7.853
 2853POPC   C4B37966  31.792   4.764   7.435
 2854POPC   NC337967   3.192  34.757   9.452
 2854POPC   PO437968   3.777  34.288   9.486
 2854POPC   GL137969   3.637  34.612   9.237
 2854POPC   GL237970   3.334  34.490   9.048
 2854POPC   C1A37971   3.681  34.834   8.874
 2854POPC   D2A37972   3.450  34.726   8.527
 2854POPC   C3A37973   3.561  34.856   8.142
 2854POPC   C4A37974   3.481  34.749   7.742
 2854POPC   C1B37975   3.688  34.318   8.802
 2854POPC   C2B37976   3.626  34.246   8.378
 2854POPC   C3B37977   3.522  34.309   7.982
 2854POPC   C4B37978   3.585  34.316   7.528
 2855POPC   NC337979  36.534   1.915   9.478
 2855POPC   PO437980  36.030   2.306   9.605
 2855POPC   GL137981  36.165   2.164   9.225
 2855POPC   GL237982  35.836   2.067   9.122
 2855POPC   C1A37983  36.204   1.824   8.891
 2855POPC   D2A37984  36.059   1.627   8.537
 2855POPC   C3A37985  36.103   1.814   8.174
 2855POPC   C4A37986  36.060   1.922   7.754
 2855POPC   C1B37987  36.017   2.321   8.785
 2855POPC   C2B37988  35.918   2.231   8.408
 2855POPC   C3B37989  35.930   2.358   8.022
 2855POPC   C4B37990  35.895   2.401   7.599
 2856POPC   NC337991   4.765  19.074   9.801
 2856POPC   PO437992   4.896  18.766   9.220
 2856POPC   GL137993   5.237  18.797   8.995
 2856POPC   GL237994   5.277  19.174   9.047
 2856POPC   C1A37995   5.197  18.712   8.550
 2856POPC   D2A37996   4.961  18.881   8.220
 2856POPC   C3A37997   5.056  18.854   7.768
 2856POPC   C4A37998   5.036  18.756   7.335
 2856POPC   C1B37999   5.021  19.183   8.691
 2856POPC   C2B38000   4.921  19.370   8.326
 2856POPC   C3B38001   5.102  19.327   7.946
 2856POPC   C4B38002   5.414  19.259   7.618
 2857POPC   NC338003  36.271   7.430   9.534
 2857POPC   PO438004  35.651   7.323   9.579
 2857POPC   GL138005  35.919   7.253   9.217
 2857POPC   GL238006  35.925   7.617   9.167
 2857POPC   C1A38007  36.218   7.072   8.917
 2857POPC   D2A38008  36.277   7.125   8.505
 2857POPC   C3A38009  35.974   7.355   8.269
 2857POPC   C4A38010  36.089   7.671   7.960
 2857POPC   C1B38011  36.225   7.580   8.827
 2857POPC   C2B38012  36.354   7.717   8.415
 2857POPC   C3B38013  36.595   7.765   8.026
 2857POPC   C4B38014  36.407   7.913   7.629
 2858POPC   NC338015  42.550  19.818   9.691
 2858POPC   PO438016  42.145  20.240   9.241
 2858POPC   GL138017  42.490  20.013   9.012
 2858POPC   GL238018  42.467  19.648   8.978
 2858POPC   C1A38019  42.589  20.016   8.590
 2858POPC   D2A38020  42.252  20.005   8.316
 2858POPC   C3A38021  42.342  19.715   8.004
 2858POPC   C4A38022  42.186  19.655   7.597
 2858POPC   C1B38023  42.190  19.534   8.663
 2858POPC   C2B38024  41.907  19.584   8.337
 2858POPC   C3B38025  41.894  19.429   7.953
 2858POPC   C4B38026  41.751  19.422   7.524
 2859POPC   NC338027  31.587  30.164   9.625
 2859POPC   PO438028  31.361  30.814   9.542
 2859POPC   GL138029  31.536  30.583   9.228
 2859POPC   GL238030  31.739  30.888   9.146
 2859POPC   C1A38031  31.451  30.508   8.770
 2859POPC   D2A38032  31.286  30.745   8.390
 2859POPC   C3A38033  31.446  30.673   7.949
 2859POPC   C4A38034  31.356  30.337   7.705
 2859POPC   C1B38035  31.618  31.003   8.764
 2859POPC   C2B38036  31.800  30.754   8.463
 2859POPC   C3B38037  31.898  30.843   8.094
 2859POPC   C4B38038  31.923  30.683   7.731
 2860POPC   NC338039  40.480   6.130   9.436
 2860POPC   PO438040  41.117   5.934   9.547
 2860POPC   GL138041  41.006   5.950   9.110
 2860POPC   GL238042  40.718   6.101   9.006
 2860POPC   C1A38043  40.936   5.750   8.700
 2860POPC   D2A38044  41.079   5.583   8.276
 2860POPC   C3A38045  40.891   5.799   7.902
 2860POPC   C4A38046  40.917   5.787   7.431
 2860POPC   C1B38047  40.665   6.278   8.616
 2860POPC   C2B38048  40.668   6.197   8.174
 2860POPC   C3B38049  40.462   6.283   7.801
 2860POPC   C4B38050  40.506   6.130   7.364
 2861POPC   NC338051  19.159  35.897   9.507
 2861POPC   PO438052  19.299  36.655   9.627
 2861POPC   GL138053  19.138  36.416   9.225
 2861POPC   GL238054  18.823  36.293   9.219
 2861POPC   C1A38055  19.182  36.113   8.882
 2861POPC   D2A38056  19.332  35.917   8.538
 2861POPC   C3A38057  19.189  36.168   8.196
 2861POPC   C4A38058  19.197  36.445   7.823
 2861POPC   C1B38059  18.696  36.279   8.783
 2861POPC   C2B38060  18.677  36.111   8.344
 2861POPC   C3B38061  18.755  36.243   7.931
 2861POPC   C4B38062  18.506  36.415   7.610
 2862POPC   NC338063  36.752  20.640   9.521
 2862POPC   PO438064  37.424  20.872   9.549
 2862POPC   GL138065  37.175  20.652   9.190
 2862POPC   GL238066  36.899  20.879   9.100
 2862POPC   C1A38067  37.080  20.621   8.722
 2862POPC   D2A38068  36.741  20.490   8.413
 2862POPC   C3A38069  36.959  20.448   8.029
 2862POPC   C4A38070  37.228  20.784   7.882
 2862POPC   C1B38071  36.659  20.918   8.716
 2862POPC   C2B38072  36.498  21.025   8.309
 2862POPC   C3B38073  36.518  20.766   7.968
 2862POPC   C4B38074  36.770  20.756   7.632
 2863POPC   NC338075  26.701   9.369   9.486
 2863POPC   PO438076  27.236   8.954   9.485
 2863POPC   GL138077  26.994   9.115   9.131
 2863POPC   GL238078  26.620   9.071   9.078
 2863POPC   C1A38079  26.982   9.011   8.696
 2863POPC   D2A38080  27.024   9.182   8.298
 2863POPC   C3A38081  27.011   8.955   7.955
 2863POPC   C4A38082  26.695   9.122   7.715
 2863POPC   C1B38083  26.504   8.835   8.727
 2863POPC   C2B38084  26.561   8.941   8.298
 2863POPC   C3B38085  26.445   8.731   7.930
 2863POPC   C4B38086  26.532   8.623   7.502
 2864POPC   NC338087  16.399   1.907   9.473
 2864POPC   PO438088  17.063   2.042   9.587
 2864POPC   GL138089  16.897   1.912   9.199
 2864POPC   GL238090  16.641   2.168   9.125
 2864POPC   C1A38091  16.738   1.799   8.791
 2864POPC   D2A38092  16.709   2.079   8.445
 2864POPC   C3A38093  16.700   1.915   8.043
 2864POPC   C4A38094  17.007   1.670   7.842
 2864POPC   C1B38095  16.949   2.352   8.897
 2864POPC   C2B38096  17.038   2.461   8.491
 2864POPC   C3B38097  16.842   2.456   8.100
 2864POPC   C4B38098  16.898   2.234   7.687
 2865POPC   NC338099  38.856   0.575   9.581
 2865POPC   PO438100  39.486   0.322   9.575
 2865POPC   GL138101  39.263   0.195   9.221
 2865POPC   GL238102  39.012   0.430   9.129
 2865POPC   C1A38103  39.110   0.050   8.832
 2865POPC   D2A38104  38.957   0.246   8.474
 2865POPC   C3A38105  39.263   0.224   8.179
 2865POPC   C4A38106  39.120   0.330   7.828
 2865POPC   C1B38107  39.096   0.643   8.745
 2865POPC   C2B38108  39.178   0.733   8.327
 2865POPC   C3B38109  39.199   0.833   7.918
 2865POPC   C4B38110  38.896   0.738   7.618
 2866POPC   NC338111  44.075  38.784   9.554
 2866POPC   PO438112  44.171  38.193   9.345
 2866POPC   GL138113  44.028  38.437   9.016
 2866POPC   GL238114  43.783  38.691   9.134
 2866POPC   C1A38115  44.068  38.399   8.582
 2866POPC   D2A38116  43.796  38.209   8.311
 2866POPC   C3A38117  43.979  38.122   7.932
 2866POPC   C4A38118  44.040  38.347   7.569
 2866POPC   C1B38119  43.610  38.613   8.707
 2866POPC   C2B38120  43.649  38.712   8.272
 2866POPC   C3B38121  43.646  38.511   7.898
 2866POPC   C4B38122  43.612  38.611   7.470
 2867POPC   NC338123   1.325  13.161   9.612
 2867POPC   PO438124   1.256  13.777   9.684
 2867POPC   GL138125   1.203  13.719   9.265
 2867POPC   GL238126   1.387  13.449   9.184
 2867POPC   C1A38127   1.175  13.883   8.860
 2867POPC   D2A38128   1.192  13.701   8.477
 2867POPC   C3A38129   1.175  13.860   8.114
 2867POPC   C4A38130   1.229  13.845   7.704
 2867POPC   C1B38131   1.259  13.307   8.792
 2867POPC   C2B38132   1.444  13.284   8.374
 2867POPC   C3B38133   1.314  13.381   7.948
 2867POPC   C4B38134   1.464  13.358   7.503
 2868POPC   NC338135  14.613  10.057   9.325
 2868POPC   PO438136  14.097   9.678   9.387
 2868POPC   GL138137  14.402   9.641   9.088
 2868POPC   GL238138  14.622   9.358   9.099
 2868POPC   C1A38139  14.361   9.867   8.689
 2868POPC   D2A38140  14.062  10.006   8.376
 2868POPC   C3A38141  14.212   9.912   8.000
 2868POPC   C4A38142  14.209  10.125   7.663
 2868POPC   C1B38143  14.801   9.587   8.754
 2868POPC   C2B38144  14.714   9.757   8.320
 2868POPC   C3B38145  14.656   9.651   7.911
 2868POPC   C4B38146  14.472   9.714   7.537
 2869POPC   NC338147   9.611  16.470   9.529
 2869POPC   PO438148  10.110  15.982   9.437
 2869POPC   GL138149   9.747  15.993   9.142
 2869POPC   GL238150   9.530  16.259   9.084
 2869POPC   C1A38151   9.772  15.993   8.688
 2869POPC   D2A38152   9.712  15.671   8.368
 2869POPC   C3A38153   9.985  15.765   8.015
 2869POPC   C4A38154  10.012  16.165   7.826
 2869POPC   C1B38155   9.282  16.278   8.715
 2869POPC   C2B38156   9.327  16.031   8.369
 2869POPC   C3B38157   9.535  16.020   8.014
 2869POPC   C4B38158   9.554  16.127   7.603
 2870POPC   NC338159  18.834  18.450   9.451
 2870POPC   PO438160  19.438  18.133   9.643
 2870POPC   GL138161  19.240  18.208   9.245
 2870POPC   GL238162  19.242  17.926   9.076
 2870POPC   C1A38163  19.177  18.420   8.848
 2870POPC   D2A38164  18.939  18.375   8.480
 2870POPC   C3A38165  18.706  18.390   8.108
 2870POPC   C4A38166  19.001  18.544   7.813
 2870POPC   C1B38167  18.874  17.996   8.810
 2870POPC   C2B38168  18.908  17.888   8.363
 2870POPC   C3B38169  19.103  18.081   8.035
 2870POPC   C4B38170  19.034  18.066   7.622
 2871POPC   NC338171  37.226  36.403   9.458
 2871POPC   PO438172  37.209  35.711   9.553
 2871POPC   GL138173  37.157  35.913   9.169
 2871POPC   GL238174  36.909  36.165   9.127
 2871POPC   C1A38175  37.037  35.805   8.726
 2871POPC   D2A38176  36.812  35.840   8.338
 2871POPC   C3A38177  37.029  35.984   7.979
 2871POPC   C4A38178  36.815  36.068   7.588
 2871POPC   C1B38179  37.217  36.283   8.815
 2871POPC   C2B38180  37.127  36.247   8.421
 2871POPC   C3B38181  37.233  36.431   8.093
 2871POPC   C4B38182  37.377  36.240   7.713
 2872POPC   NC338183  20.264   5.155   9.503
 2872POPC   PO438184  20.951   5.342   9.515
 2872POPC   GL138185  20.705   5.124   9.196
 2872POPC   GL238186  20.778   4.800   9.037
 2872POPC   C1A38187  20.549   5.181   8.787
 2872POPC   D2A38188  20.380   5.280   8.368
 2872POPC   C3A38189  20.662   5.173   8.021
 2872POPC   C4A38190  20.613   4.992   7.627
 2872POPC   C1B38191  21.028   5.016   8.703
 2872POPC   C2B38192  21.120   5.030   8.253
 2872POPC   C3B38193  21.028   4.784   7.848
 2872POPC   C4B38194  20.987   4.773   7.361
 2873POPC   NC338195  36.417  43.296   9.557
 2873POPC   PO438196  36.083  42.713   9.632
 2873POPC   GL138197  36.168  43.004   9.207
 2873POPC   GL238198  36.042  43.338   9.135
 2873POPC   C1A38199  36.206  43.089   8.740
 2873POPC   D2A38200  36.006  43.277   8.385
 2873POPC   C3A38201  36.139  42.946   8.138
 2873POPC   C4A38202  36.107  42.921   7.711
 2873POPC   C1B38203  36.329  43.586   8.840
 2873POPC   C2B38204  36.474  43.448   8.434
 2873POPC   C3B38205  36.352  43.379   7.985
 2873POPC   C4B38206  36.529  43.210   7.587
 2874POPC   NC338207  19.213  41.046   9.475
 2874POPC   PO438208  18.612  41.006   9.668
 2874POPC   GL138209  18.759  40.832   9.272
 2874POPC   GL238210  18.671  40.465   9.208
 2874POPC   C1A38211  18.950  40.941   8.872
 2874POPC   D2A38212  18.852  41.012   8.452
 2874POPC   C3A38213  18.982  40.784   8.116
 2874POPC   C4A38214  18.829  40.892   7.708
 2874POPC   C1B38215  18.766  40.451   8.754
 2874POPC   C2B38216  18.540  40.478   8.348
 2874POPC   C3B38217  18.647  40.464   7.885
 2874POPC   C4B38218  18.521  40.590   7.424
 2875POPC   NC338219  22.232  42.816   9.510
 2875POPC   PO438220  21.932  43.370   9.756
 2875POPC   GL138221  22.066  43.353   9.298
 2875POPC   GL238222  22.431  43.268   9.247
 2875POPC   C1A38223  22.101  43.440   8.842
 2875POPC   D2A38224  22.088  43.188   8.473
 2875POPC   C3A38225  22.130  43.433   8.144
 2875POPC   C4A38226  22.081  43.413   7.707
 2875POPC   C1B38227  22.340  42.992   8.880
 2875POPC   C2B38228  22.098  42.689   8.601
 2875POPC   C3B38229  22.089  42.756   8.145
 2875POPC   C4B38230  22.359  43.022   7.879
 2876POPC   NC338231  34.311  10.029   9.597
 2876POPC   PO438232  34.817   9.521   9.555
 2876POPC   GL138233  34.606   9.652   9.208
 2876POPC   GL238234  34.706   9.984   9.185
 2876POPC   C1A38235  34.458   9.777   8.795
 2876POPC   D2A38236  34.625   9.910   8.411
 2876POPC   C3A38237  34.344   9.938   8.089
 2876POPC   C4A38238  34.142   9.886   7.730
 2876POPC   C1B38239  34.929  10.073   8.796
 2876POPC   C2B38240  35.095  10.105   8.354
 2876POPC   C3B38241  34.846  10.185   8.001
 2876POPC   C4B38242  34.661   9.867   7.703
 2877POPC   NC338243  44.499  40.387   9.449
 2877POPC   PO438244  44.417  41.018   9.490
 2877POPC   GL138245  44.647  40.954   9.162
 2877POPC   GL238246  44.878  40.706   9.307
 2877POPC   C1A38247  44.462  40.949   8.761
 2877POPC   D2A38248  44.565  41.164   8.392
 2877POPC   C3A38249  44.471  41.117   7.980
 2877POPC   C4A38250  44.813  40.987   7.737
 2877POPC   C1B38251  44.873  40.599   8.875
 2877POPC   C2B38252  44.701  40.591   8.481
 2877POPC   C3B38253  44.703  40.649   8.086
 2877POPC   C4B38254  44.881  40.488   7.729
 2878POPC   NC338255  27.157  23.717   9.837
 2878POPC   PO438256  26.623  23.458   9.850
 2878POPC   GL138257  26.721  23.480   9.365
 2878POPC   GL238258  26.975  23.743   9.306
 2878POPC   C1A38259  26.855  23.523   8.880
 2878POPC   D2A38260  26.712  23.750   8.486
 2878POPC   C3A38261  26.886  23.662   8.055
 2878POPC   C4A38262  26.705  23.803   7.639
 2878POPC   C1B38263  26.977  24.023   8.906
 2878POPC   C2B38264  27.094  24.080   8.492
 2878POPC   C3B38265  26.908  24.177   8.122
 2878POPC   C4B38266  27.060  24.183   7.719
 2879POPC   NC338267  35.536   1.964   9.520
 2879POPC   PO438268  35.071   1.436   9.285
 2879POPC   GL138269  35.376   1.719   9.108
 2879POPC   GL238270  35.330   2.093   9.062
 2879POPC   C1A38271  35.614   1.780   8.750
 2879POPC   D2A38272  35.441   1.980   8.412
 2879POPC   C3A38273  35.637   1.938   8.058
 2879POPC   C4A38274  35.571   1.894   7.644
 2879POPC   C1B38275  35.506   2.373   8.739
 2879POPC   C2B38276  35.482   2.498   8.278
 2879POPC   C3B38277  35.427   2.346   7.841
 2879POPC   C4B38278  35.456   2.298   7.382
 2880POPC   NC338279  30.784  19.578   9.781
 2880POPC   PO438280  30.821  18.975   9.421
 2880POPC   GL138281  30.772  19.066   9.015
 2880POPC   GL238282  30.688  19.382   9.044
 2880POPC   C1A38283  30.647  19.126   8.568
 2880POPC   D2A38284  30.382  18.957   8.261
 2880POPC   C3A38285  30.643  18.820   7.961
 2880POPC   C4A38286  30.898  18.708   7.636
 2880POPC   C1B38287  31.034  19.420   8.717
 2880POPC   C2B38288  31.004  19.500   8.301
 2880POPC   C3B38289  30.742  19.339   8.005
 2880POPC   C4B38290  30.810  19.203   7.615
 2881POPC   NC338291   6.666  14.846   9.567
 2881POPC   PO438292   6.467  15.562   9.450
 2881POPC   GL138293   6.712  15.245   9.195
 2881POPC   GL238294   6.574  14.955   9.066
 2881POPC   C1A38295   6.911  15.173   8.768
 2881POPC   D2A38296   6.711  15.029   8.405
 2881POPC   C3A38297   6.655  15.330   8.075
 2881POPC   C4A38298   6.914  15.088   7.812
 2881POPC   C1B38299   6.397  14.754   8.738
 2881POPC   C2B38300   6.225  14.884   8.335
 2881POPC   C3B38301   6.442  14.886   7.933
 2881POPC   C4B38302   6.517  15.108   7.512
 2882POPC   NC338303  41.608  27.373   9.519
 2882POPC   PO438304  41.202  27.901   9.466
 2882POPC   GL138305  41.576  27.741   9.162
 2882POPC   GL238306  41.777  27.456   9.060
 2882POPC   C1A38307  41.717  27.879   8.780
 2882POPC   D2A38308  41.619  27.693   8.419
 2882POPC   C3A38309  41.607  27.895   8.031
 2882POPC   C4A38310  41.785  27.715   7.656
 2882POPC   C1B38311  41.461  27.327   8.811
 2882POPC   C2B38312  41.250  27.342   8.427
 2882POPC   C3B38313  41.444  27.388   8.023
 2882POPC   C4B38314  41.235  27.209   7.678
 2883POPC   NC338315  26.022   8.334   9.512
 2883POPC   PO438316  26.509   8.834   9.512
 2883POPC   GL138317  26.409   8.453   9.190
 2883POPC   GL238318  26.224   8.063   9.137
 2883POPC   C1A38319  26.445   8.313   8.768
 2883POPC   D2A38320  26.387   8.466   8.369
 2883POPC   C3A38321  26.170   8.275   8.046
 2883POPC   C4A38322  26.276   8.147   7.644
 2883POPC   C1B38323  26.076   7.932   8.754
 2883POPC   C2B38324  26.140   7.841   8.330
 2883POPC   C3B38325  25.970   7.819   7.899
 2883POPC   C4B38326  25.771   7.923   7.506
 2884POPC   NC338327   6.214  42.888   9.556
 2884POPC   PO438328   5.767  43.423   9.589
 2884POPC   GL138329   6.033  43.281   9.253
 2884POPC   GL238330   5.943  42.950   9.138
 2884POPC   C1A38331   6.151  43.287   8.823
 2884POPC   D2A38332   5.895  43.026   8.566
 2884POPC   C3A38333   5.936  43.074   8.116
 2884POPC   C4A38334   5.696  43.318   7.819
 2884POPC   C1B38335   5.651  42.700   8.883
 2884POPC   C2B38336   5.490  42.612   8.457
 2884POPC   C3B38337   5.585  42.692   8.018
 2884POPC   C4B38338   5.506  42.873   7.629
 2885POPC   NC338339  37.980  34.808   9.816
 2885POPC   PO438340  38.464  34.395   9.564
 2885POPC   GL138341  38.551  34.336   9.178
 2885POPC   GL238342  38.504  34.658   9.095
 2885POPC   C1A38343  38.645  34.287   8.747
 2885POPC   D2A38344  38.471  34.487   8.370
 2885POPC   C3A38345  38.631  34.719   8.038
 2885POPC   C4A38346  38.471  34.404   7.783
 2885POPC   C1B38347  38.310  34.811   8.722
 2885POPC   C2B38348  38.248  34.990   8.338
 2885POPC   C3B38349  38.132  34.756   8.015
 2885POPC   C4B38350  37.943  34.863   7.683
 2886POPC   NC338351  15.943   9.617   9.596
 2886POPC   PO438352  15.450  10.024   9.463
 2886POPC   GL138353  15.842   9.961   9.197
 2886POPC   GL238354  16.164   9.728   9.154
 2886POPC   C1A38355  15.940   9.953   8.757
 2886POPC   D2A38356  16.170   9.761   8.406
 2886POPC   C3A38357  15.947   9.912   8.059
 2886POPC   C4A38358  15.557   9.839   7.824
 2886POPC   C1B38359  15.965   9.473   8.819
 2886POPC   C2B38360  15.693   9.563   8.477
 2886POPC   C3B38361  15.715   9.412   8.057
 2886POPC   C4B38362  16.005   9.530   7.722
 2887POPC   NC338363  24.193  27.395   9.374
 2887POPC   PO438364  24.680  27.731   9.121
 2887POPC   GL138365  24.266  27.713   8.967
 2887POPC   GL238366  24.059  28.012   8.994
 2887POPC   C1A38367  24.291  27.386   8.667
 2887POPC   D2A38368  24.614  27.324   8.380
 2887POPC   C3A38369  24.669  27.523   8.001
 2887POPC   C4A38370  24.750  27.690   7.620
 2887POPC   C1B38371  24.051  27.932   8.522
 2887POPC   C2B38372  24.212  27.679   8.217
 2887POPC   C3B38373  24.276  27.770   7.782
 2887POPC   C4B38374  24.223  28.017   7.405
 2888POPC   NC338375  17.302  24.027   9.204
 2888POPC   PO438376  16.967  23.526   9.478
 2888POPC   GL138377  16.684  23.745   9.212
 2888POPC   GL238378  16.814  24.046   9.086
 2888POPC   C1A38379  16.618  23.649   8.798
 2888POPC   D2A38380  16.810  23.392   8.509
 2888POPC   C3A38381  16.589  23.430   8.135
 2888POPC   C4A38382  16.832  23.644   7.820
 2888POPC   C1B38383  16.983  23.963   8.639
 2888POPC   C2B38384  17.236  24.035   8.286
 2888POPC   C3B38385  17.144  24.085   7.863
 2888POPC   C4B38386  17.137  23.854   7.467
 2889POPC   NC338387  22.233   9.027   9.744
 2889POPC   PO438388  21.767   8.633   9.460
 2889POPC   GL138389  22.232   8.724   9.276
 2889POPC   GL238390  21.982   8.758   9.017
 2889POPC   C1A38391  22.446   8.652   8.861
 2889POPC   D2A38392  22.202   8.642   8.437
 2889POPC   C3A38393  22.301   8.872   8.057
 2889POPC   C4A38394  22.666   8.836   7.778
 2889POPC   C1B38395  21.791   8.945   8.687
 2889POPC   C2B38396  21.941   9.148   8.332
 2889POPC   C3B38397  21.798   9.082   7.917
 2889POPC   C4B38398  21.960   8.813   7.617
 2890POPC   NC338399  28.476   1.879   9.495
 2890POPC   PO438400  28.538   2.520   9.515
 2890POPC   GL138401  28.562   2.251   9.158
 2890POPC   GL238402  28.267   2.022   9.041
 2890POPC   C1A38403  28.759   2.115   8.799
 2890POPC   D2A38404  28.640   1.971   8.436
 2890POPC   C3A38405  28.649   2.170   8.066
 2890POPC   C4A38406  28.483   1.938   7.753
 2890POPC   C1B38407  28.162   1.833   8.625
 2890POPC   C2B38408  28.180   1.789   8.151
 2890POPC   C3B38409  27.951   1.905   7.748
 2890POPC   C4B38410  27.893   2.290   7.437
 2891POPC   NC338411  18.623  12.533   9.514
 2891POPC   PO438412  18.309  11.909   9.478
 2891POPC   GL138413  18.132  12.244   9.226
 2891POPC   GL238414  18.424  12.367   9.072
 2891POPC   C1A38415  18.028  12.067   8.827
 2891POPC   D2A38416  18.323  11.950   8.515
 2891POPC   C3A38417  18.197  11.955   8.095
 2891POPC   C4A38418  18.085  12.001   7.644
 2891POPC   C1B38419  18.341  12.513   8.677
 2891POPC   C2B38420  18.440  12.396   8.267
 2891POPC   C3B38421  18.545  12.251   7.861
 2891POPC   C4B38422  18.763  12.275   7.480
 2892POPC   NC338423  10.395  24.240   9.562
 2892POPC   PO438424  10.776  24.584   9.335
 2892POPC   GL138425  10.472  24.326   9.063
 2892POPC   GL238426  10.675  24.024   9.132
 2892POPC   C1A38427  10.155  24.234   8.691
 2892POPC   D2A38428  10.071  24.166   8.208
 2892POPC   C3A38429  10.449  24.289   7.956
 2892POPC   C4A38430  10.599  24.707   7.860
 2892POPC   C1B38431  10.805  24.185   8.707
 2892POPC   C2B38432  10.758  24.442   8.312
 2892POPC   C3B38433  11.061  24.525   7.948
 2892POPC   C4B38434  11.262  24.557   7.517
 2893POPC   NC338435  37.182  30.039   9.421
 2893POPC   PO438436  37.833  30.141   9.630
 2893POPC   GL138437  37.645  30.122   9.242
 2893POPC   GL238438  37.693  29.784   9.231
 2893POPC   C1A38439  37.498  30.206   8.831
 2893POPC   D2A38440  37.647  30.115   8.445
 2893POPC   C3A38441  37.438  29.945   8.095
 2893POPC   C4A38442  37.657  29.819   7.723
 2893POPC   C1B38443  37.575  29.697   8.828
 2893POPC   C2B38444  37.459  29.568   8.448
 2893POPC   C3B38445  37.405  29.416   8.067
 2893POPC   C4B38446  37.339  29.452   7.655
 2894POPC   NC338447  15.434  29.823   9.882
 2894POPC   PO438448  15.029  30.204   9.572
 2894POPC   GL138449  15.318  29.987   9.287
 2894POPC   GL238450  15.083  29.764   9.144
 2894POPC   C1A38451  15.492  29.882   8.852
 2894POPC   D2A38452  15.407  29.956   8.448
 2894POPC   C3A38453  15.386  29.623   8.127
 2894POPC   C4A38454  15.180  29.602   7.725
 2894POPC   C1B38455  15.010  30.042   8.828
 2894POPC   C2B38456  14.929  30.151   8.438
 2894POPC   C3B38457  15.051  29.998   8.060
 2894POPC   C4B38458  14.799  30.064   7.757
 2895POPC   NC338459  39.810   4.030   9.411
 2895POPC   PO438460  40.134   4.711   9.457
 2895POPC   GL138461  40.061   4.446   9.145
 2895POPC   GL238462  39.731   4.492   9.072
 2895POPC   C1A38463  40.336   4.377   8.789
 2895POPC   D2A38464  40.444   4.563   8.387
 2895POPC   C3A38465  40.149   4.425   8.095
 2895POPC   C4A38466  40.101   4.446   7.673
 2895POPC   C1B38467  39.840   4.324   8.680
 2895POPC   C2B38468  39.686   4.243   8.281
 2895POPC   C3B38469  39.646   4.451   7.887
 2895POPC   C4B38470  39.659   4.334   7.418
 2896POPC   NC338471   0.028   5.857   9.404
 2896POPC   PO438472  44.428   6.097   9.586
 2896POPC   GL138473  44.582   6.015   9.170
 2896POPC   GL238474  44.885   6.209   9.045
 2896POPC   C1A38475  44.426   5.845   8.789
 2896POPC   D2A38476  44.316   6.009   8.402
 2896POPC   C3A38477  44.569   5.840   8.104
 2896POPC   C4A38478  44.616   5.851   7.681
 2896POPC   C1B38479  44.930   5.801   8.769
 2896POPC   C2B38480   0.061   5.736   8.327
 2896POPC   C3B38481   0.094   5.828   7.905
 2896POPC   C4B38482  44.954   6.246   7.831
 2897POPC   NC338483  15.022  18.000   9.604
 2897POPC   PO438484  15.511  18.361   9.446
 2897POPC   GL138485  15.328  18.115   9.105
 2897POPC   GL238486  14.967  18.063   9.092
 2897POPC   C1A38487  15.251  18.119   8.640
 2897POPC   D2A38488  15.193  18.127   8.199
 2897POPC   C3A38489  14.824  17.981   7.981
 2897POPC   C4A38490  14.826  18.015   7.486
 2897POPC   C1B38491  14.789  18.309   8.726
 2897POPC   C2B38492  14.765  18.398   8.289
 2897POPC   C3B38493  14.901  18.483   7.868
 2897POPC   C4B38494  14.858  18.525   7.418
 2898POPC   NC338495  25.509  21.001   9.662
 2898POPC   PO438496  25.118  21.495   9.436
 2898POPC   GL138497  25.401  21.439   9.076
 2898POPC   GL238498  25.675  21.179   9.140
 2898POPC   C1A38499  25.337  21.442   8.665
 2898POPC   D2A38500  25.002  21.374   8.357
 2898POPC   C3A38501  25.083  21.471   7.964
 2898POPC   C4A38502  24.956  21.665   7.612
 2898POPC   C1B38503  25.561  21.009   8.723
 2898POPC   C2B38504  25.429  21.129   8.265
 2898POPC   C3B38505  25.483  21.121   7.810
 2898POPC   C4B38506  25.712  21.058   7.404
 2899POPC   NC338507  31.979  34.934   9.438
 2899POPC   PO438508  32.050  35.652   9.528
 2899POPC   GL138509  31.967  35.423   9.180
 2899POPC   GL238510  31.655  35.296   9.208
 2899POPC   C1A38511  31.976  35.187   8.785
 2899POPC   D2A38512  32.306  35.225   8.475
 2899POPC   C3A38513  32.219  35.350   8.057
 2899POPC   C4A38514  32.515  35.302   7.662
 2899POPC   C1B38515  31.650  35.587   8.823
 2899POPC   C2B38516  31.854  35.557   8.401
 2899POPC   C3B38517  31.804  35.655   7.954
 2899POPC   C4B38518  32.033  35.453   7.602
 2900POPC   NC338519  41.727   8.703   9.574
 2900POPC   PO438520  41.155   9.193   9.433
 2900POPC   GL138521  41.493   9.053   9.211
 2900POPC   GL238522  41.505   8.710   9.126
 2900POPC   C1A38523  41.620   9.177   8.826
 2900POPC   D2A38524  41.531   9.264   8.424
 2900POPC   C3A38525  41.692   9.051   8.072
 2900POPC   C4A38526  41.549   9.029   7.686
 2900POPC   C1B38527  41.369   8.732   8.734
 2900POPC   C2B38528  41.484   8.670   8.329
 2900POPC   C3B38529  41.271   8.701   7.952
 2900POPC   C4B38530  41.010   8.754   7.612
 2901POPC   NC338531  42.245   1.539   9.614
 2901POPC   PO438532  42.436   0.884   9.522
 2901POPC   GL138533  42.432   1.070   9.134
 2901POPC   GL238534  42.242   1.353   9.136
 2901POPC   C1A38535  42.424   0.937   8.728
 2901POPC   D2A38536  42.545   0.856   8.319
 2901POPC   C3A38537  42.465   1.072   7.937
 2901POPC   C4A38538  42.447   1.114   7.481
 2901POPC   C1B38539  42.048   1.303   8.736
 2901POPC   C2B38540  42.031   1.597   8.369
 2901POPC   C3B38541  42.169   1.510   7.964
 2901POPC   C4B38542  41.979   1.146   7.756
 2902POPC   NC338543  38.184  17.974   9.754
 2902POPC   PO438544  38.763  18.285   9.669
 2902POPC   GL138545  38.543  18.273   9.255
 2902POPC   GL238546  38.752  18.542   9.148
 2902POPC   C1A38547  38.432  18.310   8.782
 2902POPC   D2A38548  38.634  18.174   8.362
 2902POPC   C3A38549  38.383  18.161   7.973
 2902POPC   C4A38550  38.194  18.371   7.663
 2902POPC   C1B38551  38.712  18.781   8.792
 2902POPC   C2B38552  38.794  18.673   8.380
 2902POPC   C3B38553  38.783  18.507   7.974
 2902POPC   C4B38554  38.552  18.708   7.619
 2903POPC   NC338555  22.608  23.786   9.457
 2903POPC   PO438556  23.393  23.892   9.495
 2903POPC   GL138557  23.109  23.876   9.127
 2903POPC   GL238558  22.854  24.107   9.105
 2903POPC   C1A38559  23.081  23.861   8.660
 2903POPC   D2A38560  23.008  23.571   8.290
 2903POPC   C3A38561  23.014  23.804   7.891
 2903POPC   C4A38562  23.238  24.042   7.533
 2903POPC   C1B38563  22.622  24.192   8.723
 2903POPC   C2B38564  22.770  24.101   8.292
 2903POPC   C3B38565  22.710  24.249   7.879
 2903POPC   C4B38566  22.818  24.306   7.438
 2904POPC   NC338567  43.238  37.439   9.498
 2904POPC   PO438568  42.816  38.054   9.490
 2904POPC   GL138569  43.094  37.838   9.232
 2904POPC   GL238570  42.921  37.525   9.110
 2904POPC   C1A38571  43.350  37.718   8.873
 2904POPC   D2A38572  43.446  37.829   8.456
 2904POPC   C3A38573  43.281  37.561   8.184
 2904POPC   C4A38574  43.301  37.557   7.747
 2904POPC   C1B38575  42.850  37.854   8.781
 2904POPC   C2B38576  42.924  37.932   8.374
 2904POPC   C3B38577  42.984  37.921   7.968
 2904POPC   C4B38578  42.759  37.665   7.759
 2905POPC   NC338579  44.387   0.240   9.559
 2905POPC   PO438580  44.910   0.704   9.481
 2905POPC   GL138581  44.756   0.384   9.210
 2905POPC   GL238582  44.424   0.534   9.148
 2905POPC   C1A38583  44.748   0.164   8.814
 2905POPC   D2A38584  44.893   0.279   8.414
 2905POPC   C3A38585  44.802   0.593   8.133
 2905POPC   C4A38586  44.883   0.349   7.776
 2905POPC   C1B38587  44.444   0.551   8.715
 2905POPC   C2B38588  44.376   0.241   8.412
 2905POPC   C3B38589  44.447   0.211   8.000
 2905POPC   C4B38590  44.440   0.601   7.737
 2906POPC   NC338591  10.731  33.498   9.530
 2906POPC   PO438592  10.439  32.921   9.736
 2906POPC   GL138593  10.576  33.045   9.253
 2906POPC   GL238594  10.835  33.296   9.086
 2906POPC   C1A38595  10.482  33.032   8.802
 2906POPC   D2A38596  10.434  32.769   8.423
 2906POPC   C3A38597  10.287  32.947   8.032
 2906POPC   C4A38598  10.479  32.831   7.656
 2906POPC   C1B38599  10.756  33.474   8.697
 2906POPC   C2B38600  10.504  33.352   8.311
 2906POPC   C3B38601  10.635  33.272   7.872
 2906POPC   C4B38602  10.855  33.177   7.467
 2907POPC   NC338603  21.243  31.131   9.543
 2907POPC   PO438604  21.760  31.594   9.591
 2907POPC   GL138605  21.669  31.362   9.237
 2907POPC   GL238606  21.376  31.519   9.194
 2907POPC   C1A38607  21.562  31.268   8.798
 2907POPC   D2A38608  21.621  31.514   8.400
 2907POPC   C3A38609  21.420  31.377   8.032
 2907POPC   C4A38610  21.645  30.991   7.936
 2907POPC   C1B38611  21.370  31.755   8.781
 2907POPC   C2B38612  21.185  31.759   8.365
 2907POPC   C3B38613  21.324  31.898   8.008
 2907POPC   C4B38614  21.462  31.780   7.637
 2908POPC   NC338615  39.914  34.374   9.543
 2908POPC   PO438616  40.168  34.909   9.266
 2908POPC   GL138617  39.991  34.555   9.067
 2908POPC   GL238618  39.667  34.337   9.105
 2908POPC   C1A38619  39.848  34.563   8.663
 2908POPC   D2A38620  39.953  34.876   8.364
 2908POPC   C3A38621  40.108  34.698   8.001
 2908POPC   C4A38622  39.765  34.683   7.721
 2908POPC   C1B38623  39.966  34.092   8.862
 2908POPC   C2B38624  39.933  34.092   8.426
 2908POPC   C3B38625  39.779  34.273   8.052
 2908POPC   C4B38626  40.130  34.232   7.783
 2909POPC   NC338627  28.543  29.997   9.472
 2909POPC   PO438628  27.944  29.756   9.513
 2909POPC   GL138629  28.067  30.115   9.235
 2909POPC   GL238630  28.219  29.819   9.069
 2909POPC   C1A38631  28.295  30.238   8.819
 2909POPC   D2A38632  28.584  30.046   8.504
 2909POPC   C3A38633  28.520  30.106   8.066
 2909POPC   C4A38634  28.673  30.028   7.656
 2909POPC   C1B38635  28.317  29.628   8.661
 2909POPC   C2B38636  28.189  29.747   8.257
 2909POPC   C3B38637  28.333  29.653   7.854
 2909POPC   C4B38638  28.422  29.304   7.579
 2910POPC   NC338639  43.913  39.653   9.417
 2910POPC   PO438640  43.615  39.014   9.539
 2910POPC   GL138641  43.747  39.233   9.175
 2910POPC   GL238642  44.102  39.261   9.148
 2910POPC   C1A38643  43.808  39.467   8.775
 2910POPC   D2A38644  43.745  39.259   8.382
 2910POPC   C3A38645  43.846  39.460   8.006
 2910POPC   C4A38646  44.141  39.313   7.733
 2910POPC   C1B38647  43.981  38.978   8.773
 2910POPC   C2B38648  44.129  38.857   8.372
 2910POPC   C3B38649  44.094  38.754   7.955
 2910POPC   C4B38650  44.281  38.827   7.588
 2911POPC   NC338651  18.081  25.017   9.661
 2911POPC   PO438652  18.413  25.513   9.529
 2911POPC   GL138653  18.207  25.359   9.189
 2911POPC   GL238654  18.020  25.066   9.156
 2911POPC   C1A38655  18.017  25.474   8.811
 2911POPC   D2A38656  17.959  25.248   8.438
 2911POPC   C3A38657  17.942  25.438   8.058
 2911POPC   C4A38658  18.131  25.262   7.700
 2911POPC   C1B38659  18.269  25.019   8.778
 2911POPC   C2B38660  18.232  24.791   8.365
 2911POPC   C3B38661  18.409  24.884   7.925
 2911POPC   C4B38662  18.502  25.020   7.469
 2912POPC   NC338663  23.498  40.909   9.573
 2912POPC   PO438664  23.737  40.358   9.563
 2912POPC   GL138665  23.723  40.683   9.170
 2912POPC   GL238666  24.035  40.908   9.147
 2912POPC   C1A38667  23.424  40.833   8.793
 2912POPC   D2A38668  23.534  40.927   8.332
 2912POPC   C3A38669  23.499  40.759   7.885
 2912POPC   C4A38670  23.378  40.712   7.409
 2912POPC   C1B38671  23.899  40.975   8.734
 2912POPC   C2B38672  23.950  41.197   8.363
 2912POPC   C3B38673  23.951  40.988   7.948
 2912POPC   C4B38674  23.869  40.785   7.545
 2913POPC   NC338675  19.745  40.269   9.419
 2913POPC   PO438676  20.178  39.644   9.556
 2913POPC   GL138677  20.045  39.861   9.204
 2913POPC   GL238678  19.744  39.888   9.050
 2913POPC   C1A38679  20.129  40.076   8.788
 2913POPC   D2A38680  20.245  40.191   8.381
 2913POPC   C3A38681  19.942  39.984   8.100
 2913POPC   C4A38682  19.903  40.068   7.649
 2913POPC   C1B38683  19.627  40.195   8.754
 2913POPC   C2B38684  19.475  40.113   8.342
 2913POPC   C3B38685  19.542  40.282   7.944
 2913POPC   C4B38686  19.415  40.123   7.537
 2914POPC   NC338687   7.093   0.867   9.345
 2914POPC   PO438688   6.660   1.380   9.533
 2914POPC   GL138689   6.632   1.134   9.208
 2914POPC   GL238690   6.452   0.848   9.300
 2914POPC   C1A38691   6.782   1.228   8.812
 2914POPC   D2A38692   6.831   1.396   8.412
 2914POPC   C3A38693   6.604   1.320   8.091
 2914POPC   C4A38694   6.899   1.374   7.846
 2914POPC   C1B38695   6.395   0.866   8.820
 2914POPC   C2B38696   6.637   0.896   8.417
 2914POPC   C3B38697   6.808   0.849   8.004
 2914POPC   C4B38698   6.614   1.008   7.641
 2915POPC   NC338699   6.831  27.689   9.455
 2915POPC   PO438700   6.354  27.281   9.605
 2915POPC   GL138701   6.495  27.430   9.183
 2915POPC   GL238702   6.802  27.248   9.144
 2915POPC   C1A38703   6.757  27.651   8.834
 2915POPC   D2A38704   6.884  27.571   8.417
 2915POPC   C3A38705   6.606  27.657   8.100
 2915POPC   C4A38706   6.584  27.670   7.673
 2915POPC   C1B38707   6.602  27.179   8.740
 2915POPC   C2B38708   6.406  27.269   8.368
 2915POPC   C3B38709   6.458  27.196   7.943
 2915POPC   C4B38710   6.742  27.155   7.627
 2916POPC   NC338711  33.592  16.542   9.485
 2916POPC   PO438712  33.990  17.148   9.495
 2916POPC   GL138713  33.700  16.965   9.179
 2916POPC   GL238714  33.920  16.711   9.126
 2916POPC   C1A38715  33.560  16.731   8.775
 2916POPC   D2A38716  33.770  16.620   8.370
 2916POPC   C3A38717  33.547  16.671   7.981
 2916POPC   C4A38718  33.682  16.807   7.599
 2916POPC   C1B38719  33.979  16.398   8.800
 2916POPC   C2B38720  34.217  16.370   8.442
 2916POPC   C3B38721  34.290  16.356   8.017
 2916POPC   C4B38722  34.122  16.489   7.656
 2917POPC   NC338723  31.642  22.395   9.495
 2917POPC   PO438724  31.079  21.922   9.551
 2917POPC   GL138725  31.369  22.009   9.193
 2917POPC   GL238726  31.414  22.370   9.056
 2917POPC   C1A38727  31.653  21.945   8.830
 2917POPC   D2A38728  31.867  21.898   8.424
 2917POPC   C3A38729  31.615  22.031   8.117
 2917POPC   C4A38730  31.445  21.927   7.740
 2917POPC   C1B38731  31.828  22.439   8.868
 2917POPC   C2B38732  31.772  22.412   8.454
 2917POPC   C3B38733  31.834  22.495   8.044
 2917POPC   C4B38734  31.680  22.462   7.638
 2918POPC   NC338735  34.639   1.546   9.382
 2918POPC   PO438736  34.412   2.117   9.606
 2918POPC   GL138737  34.529   2.115   9.208
 2918POPC   GL238738  34.867   2.007   9.268
 2918POPC   C1A38739  34.386   1.944   8.821
 2918POPC   D2A38740  34.253   2.054   8.400
 2918POPC   C3A38741  34.497   1.811   8.110
 2918POPC   C4A38742  34.679   1.913   7.731
 2918POPC   C1B38743  34.916   1.909   8.819
 2918POPC   C2B38744  34.921   2.023   8.366
 2918POPC   C3B38745  35.129   1.904   7.979
 2918POPC   C4B38746  35.016   1.499   7.820
 2919POPC   NC338747  19.191  24.540   9.537
 2919POPC   PO438748  18.488  24.666   9.673
 2919POPC   GL138749  18.752  24.458   9.305
 2919POPC   GL238750  18.913  24.755   9.161
 2919POPC   C1A38751  19.033  24.292   8.932
 2919POPC   D2A38752  18.961  24.320   8.499
 2919POPC   C3A38753  19.132  24.285   8.097
 2919POPC   C4A38754  18.901  24.420   7.785
 2919POPC   C1B38755  19.082  24.764   8.725
 2919POPC   C2B38756  19.068  24.763   8.267
 2919POPC   C3B38757  19.423  24.723   8.003
 2919POPC   C4B38758  19.445  24.693   7.595
 2920POPC   NC338759   0.659  23.642   9.456
 2920POPC   PO438760   0.079  23.514   9.451
 2920POPC   GL138761   0.156  23.744   9.063
 2920POPC   GL238762   0.447  23.939   9.087
 2920POPC   C1A38763  44.988  23.673   8.646
 2920POPC   D2A38764   0.061  23.891   8.274
 2920POPC   C3A38765   0.291  23.763   7.909
 2920POPC   C4A38766   0.575  23.439   7.736
 2920POPC   C1B38767   0.436  23.963   8.632
 2920POPC   C2B38768   0.639  23.715   8.301
 2920POPC   C3B38769   0.844  23.832   7.899
 2920POPC   C4B38770   1.067  23.593   7.526
 2921POPC   NC338771  30.571  23.845   9.528
 2921POPC   PO438772  31.153  23.941   9.328
 2921POPC   GL138773  30.846  23.785   9.103
 2921POPC   GL238774  30.708  23.458   9.203
 2921POPC   C1A38775  30.704  23.767   8.715
 2921POPC   D2A38776  30.559  23.906   8.387
 2921POPC   C3A38777  30.819  23.801   8.061
 2921POPC   C4A38778  30.785  23.963   7.660
 2921POPC   C1B38779  30.917  23.334   8.840
 2921POPC   C2B38780  30.714  23.348   8.409
 2921POPC   C3B38781  30.612  23.340   7.979
 2921POPC   C4B38782  30.922  23.493   7.667
 2922POPC   NC338783   5.450  17.214   9.304
 2922POPC   PO438784   5.561  17.795   9.689
 2922POPC   GL138785   5.629  17.754   9.242
 2922POPC   GL238786   5.903  17.558   9.216
 2922POPC   C1A38787   5.831  17.794   8.795
 2922POPC   D2A38788   5.864  17.546   8.427
 2922POPC   C3A38789   5.858  17.702   8.020
 2922POPC   C4A38790   5.605  17.488   7.755
 2922POPC   C1B38791   5.869  17.246   8.840
 2922POPC   C2B38792   5.800  17.046   8.446
 2922POPC   C3B38793   5.967  17.203   8.052
 2922POPC   C4B38794   6.125  17.390   7.666
 2923POPC   NC338795  43.592  35.226   9.528
 2923POPC   PO438796  44.135  35.747   9.423
 2923POPC   GL138797  43.939  35.386   9.191
 2923POPC   GL238798  43.567  35.409   9.054
 2923POPC   C1A38799  43.983  35.117   8.821
 2923POPC   D2A38800  43.744  35.245   8.447
 2923POPC   C3A38801  43.794  35.203   8.042
 2923POPC   C4A38802  44.080  35.253   7.731
 2923POPC   C1B38803  43.840  35.636   8.755
 2923POPC   C2B38804  43.760  35.743   8.350
 2923POPC   C3B38805  43.935  35.703   7.981
 2923POPC   C4B38806  43.580  35.752   7.751
 2924POPC   NC338807  37.585  41.118   9.501
 2924POPC   PO438808  37.890  41.738   9.542
 2924POPC   GL138809  37.843  41.495   9.192
 2924POPC   GL238810  37.514  41.404   9.086
 2924POPC   C1A38811  37.822  41.666   8.784
 2924POPC   D2A38812  37.647  41.495   8.398
 2924POPC   C3A38813  37.808  41.647   8.032
 2924POPC   C4A38814  37.954  41.330   7.768
 2924POPC   C1B38815  37.307  41.607   8.761
 2924POPC   C2B38816  37.216  41.798   8.396
 2924POPC   C3B38817  37.308  41.665   7.984
 2924POPC   C4B38818  37.434  41.477   7.593
 2925POPC   NC338819  34.497  19.164   9.646
 2925POPC   PO438820  35.020  18.824   9.753
 2925POPC   GL138821  34.740  18.858   9.317
 2925POPC   GL238822  34.942  18.769   9.063
 2925POPC   C1A38823  34.483  18.951   8.882
 2925POPC   D2A38824  34.316  18.751   8.458
 2925POPC   C3A38825  34.393  18.959   8.036
 2925POPC   C4A38826  34.656  19.211   7.707
 2925POPC   C1B38827  34.980  19.049   8.730
 2925POPC   C2B38828  34.805  19.084   8.340
 2925POPC   C3B38829  34.882  18.861   8.001
 2925POPC   C4B38830  34.679  18.708   7.638
 2926POPC   NC338831  11.438  19.812   9.491
 2926POPC   PO438832  11.142  20.305   9.286
 2926POPC   GL138833  11.393  20.008   9.027
 2926POPC   GL238834  11.474  19.601   9.050
 2926POPC   C1A38835  11.353  20.052   8.604
 2926POPC   D2A38836  11.069  20.263   8.366
 2926POPC   C3A38837  10.988  20.005   8.028
 2926POPC   C4A38838  10.983  20.084   7.609
 2926POPC   C1B38839  11.180  19.586   8.745
 2926POPC   C2B38840  11.285  19.629   8.325
 2926POPC   C3B38841  11.381  19.415   7.978
 2926POPC   C4B38842  11.236  19.668   7.705
 2927POPC   NC338843  32.490  41.888   9.421
 2927POPC   PO438844  32.310  41.301   9.652
 2927POPC   GL138845  32.191  41.463   9.232
 2927POPC   GL238846  31.994  41.161   9.206
 2927POPC   C1A38847  32.278  41.676   8.826
 2927POPC   D2A38848  32.099  41.856   8.437
 2927POPC   C3A38849  32.497  41.825   8.172
 2927POPC   C4A38850  32.538  41.823   7.732
 2927POPC   C1B38851  32.209  41.167   8.781
 2927POPC   C2B38852  32.278  41.391   8.369
 2927POPC   C3B38853  32.321  41.387   7.916
 2927POPC   C4B38854  32.064  41.269   7.571
 2928POPC   NC338855  27.699  35.053   9.410
 2928POPC   PO438856  27.401  34.462   9.438
 2928POPC   GL138857  27.659  34.543   9.116
 2928POPC   GL238858  27.485  34.803   9.015
 2928POPC   C1A38859  27.818  34.468   8.710
 2928POPC   D2A38860  27.584  34.315   8.322
 2928POPC   C3A38861  27.642  34.558   7.946
 2928POPC   C4A38862  27.815  34.534   7.550
 2928POPC   C1B38863  27.296  34.477   8.727
 2928POPC   C2B38864  27.067  34.410   8.347
 2928POPC   C3B38865  27.158  34.358   7.900
 2928POPC   C4B38866  27.301  34.452   7.477
 2929POPC   NC338867  34.812  14.642   9.571
 2929POPC   PO438868  34.673  13.995   9.391
 2929POPC   GL138869  34.602  14.265   9.107
 2929POPC   GL238870  34.443  14.556   9.224
 2929POPC   C1A38871  34.533  14.201   8.676
 2929POPC   D2A38872  34.726  14.443   8.363
 2929POPC   C3A38873  34.612  14.218   8.027
 2929POPC   C4A38874  34.808  14.221   7.643
 2929POPC   C1B38875  34.474  14.673   8.821
 2929POPC   C2B38876  34.265  14.616   8.473
 2929POPC   C3B38877  34.319  14.757   8.121
 2929POPC   C4B38878  34.474  14.613   7.743
 2930POPC   NC338879  25.920  44.659   9.557
 2930POPC   PO438880  26.530  44.955   9.717
 2930POPC   GL138881  26.351  44.927   9.274
 2930POPC   GL238882  26.140  44.657   9.112
 2930POPC   C1A38883  26.325   0.002   8.804
 2930POPC   D2A38884  26.417  44.817   8.390
 2930POPC   C3A38885  26.121  44.706   8.063
 2930POPC   C4A38886  26.021  44.853   7.654
 2930POPC   C1B38887  26.272  44.462   8.740
 2930POPC   C2B38888  26.284  44.224   8.355
 2930POPC   C3B38889  26.322  44.260   7.921
 2930POPC   C4B38890  26.054  44.318   7.546
 2931POPC   NC338891  32.128  10.329   9.697
 2931POPC   PO438892  32.173  10.992   9.561
 2931POPC   GL138893  32.307  10.597   9.303
 2931POPC   GL238894  32.021  10.385   9.204
 2931POPC   C1A38895  32.420  10.377   8.925
 2931POPC   D2A38896  32.344  10.492   8.496
 2931POPC   C3A38897  32.282  10.329   8.107
 2931POPC   C4A38898  32.314  10.463   7.699
 2931POPC   C1B38899  31.911  10.277   8.789
 2931POPC   C2B38900  31.801  10.322   8.366
 2931POPC   C3B38901  31.803  10.172   7.955
 2931POPC   C4B38902  31.991  10.101   7.557
 2932POPC   NC338903  24.327  19.520   9.539
 2932POPC   PO438904  24.309  20.185   9.752
 2932POPC   GL138905  24.312  20.113   9.251
 2932POPC   GL238906  24.342  19.765   9.109
 2932POPC   C1A38907  24.548  20.139   8.833
 2932POPC   D2A38908  24.822  20.170   8.449
 2932POPC   C3A38909  24.615  19.974   8.105
 2932POPC   C4A38910  24.348  19.899   7.751
 2932POPC   C1B38911  24.383  19.570   8.705
 2932POPC   C2B38912  24.280  19.385   8.291
 2932POPC   C3B38913  24.499  19.464   7.957
 2932POPC   C4B38914  24.826  19.662   7.765
 2933POPC   NC338915  30.076  21.510   9.646
 2933POPC   PO438916  29.609  21.203   9.706
 2933POPC   GL138917  29.736  21.264   9.226
 2933POPC   GL238918  29.962  21.537   9.137
 2933POPC   C1A38919  29.891  21.157   8.795
 2933POPC   D2A38920  30.111  21.302   8.433
 2933POPC   C3A38921  30.054  21.119   8.023
 2933POPC   C4A38922  29.776  21.342   7.772
 2933POPC   C1B38923  30.185  21.703   8.795
 2933POPC   C2B38924  30.370  21.757   8.378
 2933POPC   C3B38925  30.146  21.655   8.006
 2933POPC   C4B38926  30.208  21.837   7.571
 2934POPC   NC338927  44.266  20.123   9.490
 2934POPC   PO438928  44.565  19.556   9.469
 2934POPC   GL138929  44.647  19.576   9.018
 2934POPC   GL238930  44.613  19.955   9.090
 2934POPC   C1A38931  44.728  19.523   8.561
 2934POPC   D2A38932  44.456  19.675   8.245
 2934POPC   C3A38933  44.539  19.743   7.843
 2934POPC   C4A38934  44.768  19.526   7.579
 2934POPC   C1B38935  44.360  20.270   8.853
 2934POPC   C2B38936  44.418  20.468   8.462
 2934POPC   C3B38937  44.209  20.473   8.071
 2934POPC   C4B38938  44.272  20.188   7.711
 2935POPC   NC338939  36.460  39.589   9.336
 2935POPC   PO438940  35.845  39.711   9.525
 2935POPC   GL138941  35.992  39.552   9.136
 2935POPC   GL238942  36.155  39.207   9.195
 2935POPC   C1A38943  35.813  39.503   8.730
 2935POPC   D2A38944  35.637  39.688   8.372
 2935POPC   C3A38945  35.926  39.592   8.091
 2935POPC   C4A38946  36.104  39.405   7.762
 2935POPC   C1B38947  36.291  38.989   8.829
 2935POPC   C2B38948  36.035  39.077   8.494
 2935POPC   C3B38949  36.045  38.994   8.080
 2935POPC   C4B38950  36.094  38.900   7.659
 2936POPC   NC338951   8.756  37.144   9.802
 2936POPC   PO438952   9.198  36.745   9.549
 2936POPC   GL138953   9.216  36.628   9.104
 2936POPC   GL238954   8.889  36.626   8.920
 2936POPC   C1A38955   9.407  36.839   8.717
 2936POPC   D2A38956   9.474  37.121   8.340
 2936POPC   C3A38957   9.336  36.933   7.931
 2936POPC   C4A38958   9.140  36.769   7.540
 2936POPC   C1B38959   8.848  36.978   8.629
 2936POPC   C2B38960   8.872  37.007   8.165
 2936POPC   C3B38961   8.710  36.931   7.740
 2936POPC   C4B38962   8.583  37.203   7.353
 2937POPC   NC338963  41.906  10.888   9.628
 2937POPC   PO438964  41.482  11.425   9.506
 2937POPC   GL138965  41.443  11.219   9.169
 2937POPC   GL238966  41.791  11.078   9.164
 2937POPC   C1A38967  41.394  11.357   8.755
 2937POPC   D2A38968  41.641  11.503   8.415
 2937POPC   C3A38969  41.412  11.414   8.055
 2937POPC   C4A38970  41.203  11.431   7.677
 2937POPC   C1B38971  41.884  11.127   8.723
 2937POPC   C2B38972  42.051  11.159   8.294
 2937POPC   C3B38973  41.902  11.428   7.955
 2937POPC   C4B38974  41.699  11.367   7.526
 2938POPC   NC338975  27.234  19.615   9.440
 2938POPC   PO438976  26.507  19.571   9.517
 2938POPC   GL138977  26.580  19.853   9.145
 2938POPC   GL238978  26.920  19.915   9.159
 2938POPC   C1A38979  26.690  19.940   8.717
 2938POPC   D2A38980  26.468  19.785   8.392
 2938POPC   C3A38981  26.638  19.804   8.036
 2938POPC   C4A38982  26.372  19.841   7.697
 2938POPC   C1B38983  27.123  19.656   8.804
 2938POPC   C2B38984  26.967  19.515   8.405
 2938POPC   C3B38985  27.107  19.563   7.979
 2938POPC   C4B38986  27.394  19.871   7.752
 2939POPC   NC338987  43.336  20.142   9.612
 2939POPC   PO438988  42.920  20.608   9.756
 2939POPC   GL138989  43.115  20.621   9.315
 2939POPC   GL238990  43.252  20.964   9.230
 2939POPC   C1A38991  43.248  20.617   8.853
 2939POPC   D2A38992  43.013  20.549   8.475
 2939POPC   C3A38993  43.168  20.377   8.091
 2939POPC   C4A38994  42.912  20.364   7.749
 2939POPC   C1B38995  42.867  20.947   8.952
 2939POPC   C2B38996  42.742  20.983   8.491
 2939POPC   C3B38997  42.863  20.825   8.055
 2939POPC   C4B38998  43.249  20.826   7.787
 2940POPC   NC338999  43.113  18.028   9.594
 2940POPC   PO439000  42.936  18.662   9.730
 2940POPC   GL139001  43.031  18.446   9.266
 2940POPC   GL239002  43.195  18.113   9.118
 2940POPC   C1A39003  43.276  18.506   8.842
 2940POPC   D2A39004  43.230  18.189   8.506
 2940POPC   C3A39005  43.117  18.376   8.109
 2940POPC   C4A39006  43.287  18.679   7.816
 2940POPC   C1B39007  43.016  17.845   8.848
 2940POPC   C2B39008  42.922  17.756   8.443
 2940POPC   C3B39009  43.155  17.832   8.089
 2940POPC   C4B39010  43.052  18.061   7.740
 2941POPC   NC339011   0.308  32.075   9.463
 2941POPC   PO439012   0.364  32.752   9.433
 2941POPC   GL139013   0.473  32.457   9.134
 2941POPC   GL239014   0.823  32.410   9.259
 2941POPC   C1A39015   0.201  32.249   8.820
 2941POPC   D2A39016  44.966  32.269   8.445
 2941POPC   C3A39017   0.237  32.281   8.099
 2941POPC   C4A39018   0.376  32.236   7.718
 2941POPC   C1B39019   0.849  32.306   8.823
 2941POPC   C2B39020   0.638  32.278   8.433
 2941POPC   C3B39021   0.729  32.071   8.047
 2941POPC   C4B39022   0.886  32.154   7.615
 2942POPC   NC339023  18.472  35.572   9.353
 2942POPC   PO439024  19.104  35.266   9.445
 2942POPC   GL139025  19.066  35.495   9.063
 2942POPC   GL239026  18.849  35.795   9.105
 2942POPC   C1A39027  18.859  35.253   8.709
 2942POPC   D2A39028  18.834  35.201   8.264
 2942POPC   C3A39029  19.244  35.294   8.141
 2942POPC   C4A39030  19.345  35.165   7.777
 2942POPC   C1B39031  18.850  35.764   8.669
 2942POPC   C2B39032  18.956  35.705   8.232
 2942POPC   C3B39033  18.685  35.707   7.893
 2942POPC   C4B39034  18.678  35.891   7.468
 2943POPC   NC339035  42.559   7.878   9.426
 2943POPC   PO439036  42.148   8.467   9.465
 2943POPC   GL139037  42.313   8.243   9.118
 2943POPC   GL239038  42.164   7.929   9.054
 2943POPC   C1A39039  42.501   8.391   8.748
 2943POPC   D2A39040  42.422   8.703   8.480
 2943POPC   C3A39041  42.449   8.492   8.092
 2943POPC   C4A39042  42.279   8.477   7.711
 2943POPC   C1B39043  42.121   8.065   8.620
 2943POPC   C2B39044  42.059   8.070   8.157
 2943POPC   C3B39045  42.031   8.021   7.708
 2943POPC   C4B39046  42.018   7.847   7.280
 2944POPC   NC339047   3.963  34.713   9.626
 2944POPC   PO439048   4.468  34.296   9.575
 2944POPC   GL139049   4.422  34.573   9.220
 2944POPC   GL239050   4.123  34.816   9.156
 2944POPC   C1A39051   4.608  34.452   8.853
 2944POPC   D2A39052   4.481  34.454   8.434
 2944POPC   C3A39053   4.519  34.339   8.018
 2944POPC   C4A39054   4.524  34.667   7.689
 2944POPC   C1B39055   4.126  34.640   8.748
 2944POPC   C2B39056   4.000  34.636   8.320
 2944POPC   C3B39057   4.051  34.836   7.911
 2944POPC   C4B39058   4.004  34.644   7.513
 2945POPC   NC339059  38.327   8.531   9.680
 2945POPC   PO439060  38.374   9.221   9.617
 2945POPC   GL139061  38.481   8.843   9.317
 2945POPC   GL239062  38.160   8.651   9.203
 2945POPC   C1A39063  38.665   8.632   8.936
 2945POPC   D2A39064  38.749   8.849   8.574
 2945POPC   C3A39065  38.726   8.784   8.126
 2945POPC   C4A39066  38.645   8.963   7.705
 2945POPC   C1B39067  38.219   8.832   8.778
 2945POPC   C2B39068  38.238   8.817   8.322
 2945POPC   C3B39069  38.191   8.758   7.858
 2945POPC   C4B39070  38.107   8.991   7.457
 2946POPC   NC339071  40.693  17.529   9.617
 2946POPC   PO439072  41.120  18.042   9.437
 2946POPC   GL139073  40.811  17.744   9.164
 2946POPC   GL239074  40.747  17.338   9.151
 2946POPC   C1A39075  40.636  17.631   8.755
 2946POPC   D2A39076  40.516  17.836   8.400
 2946POPC   C3A39077  40.844  17.826   8.112
 2946POPC   C4A39078  40.738  17.640   7.747
 2946POPC   C1B39079  40.760  17.108   8.760
 2946POPC   C2B39080  40.553  17.232   8.372
 2946POPC   C3B39081  40.649  17.180   7.941
 2946POPC   C4B39082  40.549  17.205   7.480
 2947POPC   NC339083   9.585  10.250   9.802
 2947POPC   PO439084  10.074   9.802   9.507
 2947POPC   GL139085   9.889   9.904   9.139
 2947POPC   GL239086   9.643   9.623   9.189
 2947POPC   C1A39087   9.715  10.011   8.730
 2947POPC   D2A39088   9.947  10.023   8.359
 2947POPC   C3A39089   9.679   9.982   8.008
 2947POPC   C4A39090   9.419   9.657   7.900
 2947POPC   C1B39091   9.856   9.518   8.812
 2947POPC   C2B39092  10.070   9.523   8.430
 2947POPC   C3B39093   9.913   9.518   8.018
 2947POPC   C4B39094   9.819   9.220   7.698
 2948POPC   NC339095   4.557  33.844   9.644
 2948POPC   PO439096   5.191  33.742   9.623
 2948POPC   GL139097   4.950  33.861   9.250
 2948POPC   GL239098   4.972  34.225   9.170
 2948POPC   C1A39099   4.789  33.835   8.805
 2948POPC   D2A39100   4.586  33.930   8.419
 2948POPC   C3A39101   4.828  33.787   8.086
 2948POPC   C4A39102   4.784  34.012   7.713
 2948POPC   C1B39103   5.264  33.992   8.853
 2948POPC   C2B39104   5.219  33.827   8.451
 2948POPC   C3B39105   5.368  33.597   8.119
 2948POPC   C4B39106   5.231  33.710   7.754
 2949POPC   NC339107  12.859  22.914   9.548
 2949POPC   PO439108  13.193  23.461   9.380
 2949POPC   GL139109  13.066  23.082   9.104
 2949POPC   GL239110  13.094  22.693   9.134
 2949POPC   C1A39111  12.911  23.168   8.684
 2949POPC   D2A39112  13.052  23.253   8.237
 2949POPC   C3A39113  12.829  23.111   7.854
 2949POPC   C4A39114  12.849  23.407   7.475
 2949POPC   C1B39115  12.782  22.682   8.804
 2949POPC   C2B39116  12.955  22.768   8.387
 2949POPC   C3B39117  13.195  22.741   8.033
 2949POPC   C4B39118  13.000  22.675   7.642
 2950POPC   NC339119  35.479  36.834   9.658
 2950POPC   PO439120  35.059  37.236   9.603
 2950POPC   GL139121  35.283  37.166   9.189
 2950POPC   GL239122  35.654  37.144   9.171
 2950POPC   C1A39123  35.309  37.041   8.706
 2950POPC   D2A39124  35.156  37.139   8.261
 2950POPC   C3A39125  35.252  36.940   7.847
 2950POPC   C4A39126  35.016  36.705   7.516
 2950POPC   C1B39127  35.818  37.147   8.719
 2950POPC   C2B39128  35.673  36.982   8.303
 2950POPC   C3B39129  35.726  36.760   7.890
 2950POPC   C4B39130  35.551  36.703   7.439
 2951POPC   NC339131  17.289   6.584   9.543
 2951POPC   PO439132  17.775   6.314   9.127
 2951POPC   GL139133  17.426   6.578   9.065
 2951POPC   GL239134  17.147   6.348   9.121
 2951POPC   C1A39135  17.450   6.793   8.690
 2951POPC   D2A39136  17.783   6.590   8.417
 2951POPC   C3A39137  17.679   6.583   7.978
 2951POPC   C4A39138  17.472   6.895   7.735
 2951POPC   C1B39139  17.228   6.285   8.703
 2951POPC   C2B39140  17.293   6.437   8.339
 2951POPC   C3B39141  17.340   6.216   8.024
 2951POPC   C4B39142  17.248   6.442   7.689
 2952POPC   NC339143  10.306  39.412   9.384
 2952POPC   PO439144  10.920  39.133   9.427
 2952POPC   GL139145  10.867  39.276   9.050
 2952POPC   GL239146  10.767  39.603   9.175
 2952POPC   C1A39147  10.661  39.138   8.652
 2952POPC   D2A39148  10.308  39.337   8.423
 2952POPC   C3A39149  10.197  39.290   7.967
 2952POPC   C4A39150  10.441  39.085   7.638
 2952POPC   C1B39151  10.724  39.687   8.762
 2952POPC   C2B39152  10.859  39.531   8.381
 2952POPC   C3B39153  10.684  39.381   8.061
 2952POPC   C4B39154  10.546  39.600   7.700
 2953POPC   NC339155  17.232  39.074   9.526
 2953POPC   PO439156  17.519  39.637   9.633
 2953POPC   GL139157  17.575  39.384   9.284
 2953POPC   GL239158  17.271  39.488   9.162
 2953POPC   C1A39159  17.751  39.330   8.861
 2953POPC   D2A39160  17.715  39.574   8.466
 2953POPC   C3A39161  17.593  39.428   8.032
 2953POPC   C4A39162  17.301  39.387   7.673
 2953POPC   C1B39163  17.258  39.213   8.801
 2953POPC   C2B39164  17.469  39.105   8.406
 2953POPC   C3B39165  17.324  38.923   8.012
 2953POPC   C4B39166  17.057  38.947   7.665
 2954POPC   NC339167  25.437   5.366   9.492
 2954POPC   PO439168  24.887   5.005   9.523
 2954POPC   GL139169  25.135   4.945   9.161
 2954POPC   GL239170  25.406   5.062   9.093
 2954POPC   C1A39171  25.048   5.030   8.715
 2954POPC   D2A39172  24.908   5.265   8.353
 2954POPC   C3A39173  25.092   5.131   7.975
 2954POPC   C4A39174  24.955   4.880   7.651
 2954POPC   C1B39175  25.486   5.351   8.768
 2954POPC   C2B39176  25.398   5.455   8.344
 2954POPC   C3B39177  25.510   5.418   7.922
 2954POPC   C4B39178  25.248   5.492   7.572
 2955POPC   NC339179  11.725  30.635   9.600
 2955POPC   PO439180  12.476  30.406   9.507
 2955POPC   GL139181  12.325  30.660   9.167
 2955POPC   GL239182  11.955  30.734   9.154
 2955POPC   C1A39183  12.190  30.550   8.745
 2955POPC   D2A39184  12.365  30.708   8.392
 2955POPC   C3A39185  12.249  30.476   8.050
 2955POPC   C4A39186  12.452  30.740   7.773
 2955POPC   C1B39187  11.790  30.870   8.739
 2955POPC   C2B39188  11.869  30.751   8.292
 2955POPC   C3B39189  12.001  30.929   7.911
 2955POPC   C4B39190  11.843  30.848   7.465
 2956POPC   NC339191  21.164  29.906   9.458
 2956POPC   PO439192  21.518  29.523   9.646
 2956POPC   GL139193  21.525  29.755   9.158
 2956POPC   GL239194  21.338  30.147   9.061
 2956POPC   C1A39195  21.705  29.957   8.775
 2956POPC   D2A39196  21.560  30.209   8.426
 2956POPC   C3A39197  21.534  30.009   8.027
 2956POPC   C4A39198  21.562  29.956   7.587
 2956POPC   C1B39199  21.029  30.409   8.806
 2956POPC   C2B39200  21.112  30.478   8.394
 2956POPC   C3B39201  20.940  30.437   7.967
 2956POPC   C4B39202  21.097  30.117   7.723
 2957POPC   NC339203   2.143  15.901   9.623
 2957POPC   PO439204   2.042  16.501   9.530
 2957POPC   GL139205   1.971  16.194   9.177
 2957POPC   GL239206   2.022  15.849   9.155
 2957POPC   C1A39207   2.183  16.077   8.758
 2957POPC   D2A39208   1.975  15.994   8.403
 2957POPC   C3A39209   2.220  15.943   8.035
 2957POPC   C4A39210   1.913  15.897   7.744
 2957POPC   C1B39211   1.839  15.688   8.821
 2957POPC   C2B39212   1.983  15.414   8.531
 2957POPC   C3B39213   1.976  15.516   8.141
 2957POPC   C4B39214   2.270  15.501   7.789
 2958POPC   NC339215  20.096  28.498   9.475
 2958POPC   PO439216  19.489  28.376   9.683
 2958POPC   GL139217  19.660  28.273   9.270
 2958POPC   GL239218  19.696  28.603   9.176
 2958POPC   C1A39219  19.663  28.243   8.797
 2958POPC   D2A39220  19.883  28.358   8.416
 2958POPC   C3A39221  19.709  28.210   8.068
 2958POPC   C4A39222  19.760  28.304   7.678
 2958POPC   C1B39223  19.949  28.705   8.795
 2958POPC   C2B39224  20.152  28.798   8.400
 2958POPC   C3B39225  19.912  28.792   8.026
 2958POPC   C4B39226  20.071  28.727   7.618
 2959POPC   NC339227  42.680   3.678   9.771
 2959POPC   PO439228  42.160   3.307   9.437
 2959POPC   GL139229  42.307   3.291   9.087
 2959POPC   GL239230  42.651   3.232   9.242
 2959POPC   C1A39231  42.259   3.586   8.702
 2959POPC   D2A39232  42.465   3.909   8.414
 2959POPC   C3A39233  42.227   3.969   8.048
 2959POPC   C4A39234  42.036   3.646   7.796
 2959POPC   C1B39235  42.706   3.334   8.814
 2959POPC   C2B39236  42.681   3.428   8.415
 2959POPC   C3B39237  42.445   3.498   8.064
 2959POPC   C4B39238  42.695   3.341   7.734
 2960POPC   NC339239  33.066  44.230   9.391
 2960POPC   PO439240  32.825  43.622   9.644
 2960POPC   GL139241  32.848  43.767   9.165
 2960POPC   GL239242  32.771  44.104   8.984
 2960POPC   C1A39243  32.922  43.772   8.668
 2960POPC   D2A39244  32.746  44.141   8.423
 2960POPC   C3A39245  32.696  43.970   8.030
 2960POPC   C4A39246  32.833  43.726   7.670
 2960POPC   C1B39247  33.177  44.226   8.684
 2960POPC   C2B39248  33.235  44.258   8.194
 2960POPC   C3B39249  33.090  44.158   7.739
 2960POPC   C4B39250  33.249  44.326   7.319
 2961POPC   NC339251   2.656  13.767   9.456
 2961POPC   PO439252   3.253  13.608   9.511
 2961POPC   GL139253   3.066  13.782   9.111
 2961POPC   GL239254   2.793  13.532   9.024
 2961POPC   C1A39255   2.858  13.928   8.708
 2961POPC   D2A39256   2.561  13.941   8.327
 2961POPC   C3A39257   2.761  13.858   7.910
 2961POPC   C4A39258   2.844  13.669   7.476
 2961POPC   C1B39259   2.676  13.465   8.584
 2961POPC   C2B39260   2.585  13.446   8.151
 2961POPC   C3B39261   2.681  13.191   7.774
 2961POPC   C4B39262   3.050  13.059   7.536
 2962POPC   NC339263   5.355  40.479   9.403
 2962POPC   PO439264   5.077  41.018   9.619
 2962POPC   GL139265   5.147  40.922   9.196
 2962POPC   GL239266   5.487  41.041   9.193
 2962POPC   C1A39267   5.024  40.691   8.799
 2962POPC   D2A39268   5.210  40.578   8.409
 2962POPC   C3A39269   5.092  40.786   8.033
 2962POPC   C4A39270   5.321  40.772   7.659
 2962POPC   C1B39271   5.394  41.008   8.736
 2962POPC   C2B39272   5.492  41.050   8.302
 2962POPC   C3B39273   5.407  41.205   7.910
 2962POPC   C4B39274   5.334  41.247   7.465
 2963POPC   NC339275  31.986  44.483   9.461
 2963POPC   PO439276  32.599  44.290   9.412
 2963POPC   GL139277  32.410  44.608   9.153
 2963POPC   GL239278  32.150  44.891   9.198
 2963POPC   C1A39279  32.428  44.820   8.768
 2963POPC   D2A39280  32.306  44.655   8.401
 2963POPC   C3A39281  32.456  44.889   8.127
 2963POPC   C4A39282  32.525  44.806   7.723
 2963POPC   C1B39283  31.927  44.799   8.781
 2963POPC   C2B39284  31.895  44.922   8.316
 2963POPC   C3B39285  32.038  44.720   7.896
 2963POPC   C4B39286  32.105  44.959   7.490
 2964POPC   NC339287  20.412   0.930   9.557
 2964POPC   PO439288  20.841   1.489   9.559
 2964POPC   GL139289  20.598   1.217   9.190
 2964POPC   GL239290  20.740   0.853   9.164
 2964POPC   C1A39291  20.513   1.025   8.744
 2964POPC   D2A39292  20.427   0.840   8.344
 2964POPC   C3A39293  20.608   0.945   7.954
 2964POPC   C4A39294  20.688   1.329   7.781
 2964POPC   C1B39295  21.002   0.901   8.800
 2964POPC   C2B39296  20.927   1.086   8.393
 2964POPC   C3B39297  21.088   1.124   7.984
 2964POPC   C4B39298  21.001   0.973   7.568
 2965POPC   NC339299  42.786  24.774   9.529
 2965POPC   PO439300  43.013  24.111   9.432
 2965POPC   GL139301  43.036  24.457   9.166
 2965POPC   GL239302  43.367  24.540   9.055
 2965POPC   C1A39303  42.832  24.646   8.806
 2965POPC   D2A39304  42.774  24.408   8.403
 2965POPC   C3A39305  42.851  24.691   8.082
 2965POPC   C4A39306  43.132  24.584   7.753
 2965POPC   C1B39307  43.238  24.411   8.640
 2965POPC   C2B39308  43.304  24.394   8.211
 2965POPC   C3B39309  43.594  24.536   7.914
 2965POPC   C4B39310  43.569  24.612   7.438
 2966POPC   NC339311  44.330  24.757   9.596
 2966POPC   PO439312  44.863  24.390   9.514
 2966POPC   GL139313  44.758  24.672   9.172
 2966POPC   GL239314  44.390  24.666   9.093
 2966POPC   C1A39315  44.770  24.656   8.721
 2966POPC   D2A39316  44.554  24.328   8.461
 2966POPC   C3A39317  44.600  24.454   8.042
 2966POPC   C4A39318  44.929  24.774   7.947
 2966POPC   C1B39319  44.239  24.686   8.670
 2966POPC   C2B39320  44.471  24.863   8.350
 2966POPC   C3B39321  44.430  24.928   7.954
 2966POPC   C4B39322  44.331  24.659   7.625
 2967POPC   NC339323  26.561  22.300   9.438
 2967POPC   PO439324  26.922  21.809   9.678
 2967POPC   GL139325  26.845  21.926   9.245
 2967POPC   GL239326  27.002  22.233   9.106
 2967POPC   C1A39327  26.638  22.048   8.827
 2967POPC   D2A39328  26.681  22.275   8.420
 2967POPC   C3A39329  26.799  22.065   8.014
 2967POPC   C4A39330  26.672  22.048   7.582
 2967POPC   C1B39331  26.907  22.545   8.807
 2967POPC   C2B39332  26.998  22.710   8.414
 2967POPC   C3B39333  26.813  22.590   8.029
 2967POPC   C4B39334  27.001  22.423   7.675
 2968POPC   NC339335  28.061   1.001   9.362
 2968POPC   PO439336  27.395   1.248   9.522
 2968POPC   GL139337  27.630   1.365   9.156
 2968POPC   GL239338  27.961   1.570   9.162
 2968POPC   C1A39339  27.470   1.181   8.753
 2968POPC   D2A39340  27.192   1.012   8.456
 2968POPC   C3A39341  27.387   1.129   8.088
 2968POPC   C4A39342  27.517   1.078   7.676
 2968POPC   C1B39343  27.924   1.384   8.754
 2968POPC   C2B39344  27.847   0.975   8.491
 2968POPC   C3B39345  27.904   0.957   8.049
 2968POPC   C4B39346  27.879   1.393   7.935
 2969POPC   NC339347  13.924  41.703   9.501
 2969POPC   PO439348  13.550  41.032   9.409
 2969POPC   GL139349  13.432  41.404   9.189
 2969POPC   GL239350  13.764  41.507   9.044
 2969POPC   C1A39351  13.243  41.618   8.828
 2969POPC   D2A39352  13.453  41.708   8.432
 2969POPC   C3A39353  13.308  41.698   8.014
 2969POPC   C4A39354  13.449  41.454   7.635
 2969POPC   C1B39355  13.942  41.762   8.697
 2969POPC   C2B39356  13.868  41.974   8.317
 2969POPC   C3B39357  13.822  41.755   7.899
 2969POPC   C4B39358  13.931  41.313   7.798
 2970POPC   NC339359  33.257  25.487   9.713
 2970POPC   PO439360  33.232  24.841   9.641
 2970POPC   GL139361  33.149  25.090   9.248
 2970POPC   GL239362  33.012  25.424   9.211
 2970POPC   C1A39363  33.073  25.087   8.800
 2970POPC   D2A39364  33.285  25.211   8.454
 2970POPC   C3A39365  33.225  25.108   8.090
 2970POPC   C4A39366  33.096  25.109   7.682
 2970POPC   C1B39367  32.706  25.434   8.829
 2970POPC   C2B39368  32.876  25.514   8.420
 2970POPC   C3B39369  32.798  25.383   8.016
 2970POPC   C4B39370  32.818  25.587   7.643
 2971POPC   NC339371  34.990  41.589   9.473
 2971POPC   PO439372  35.594  41.196   9.443
 2971POPC   GL139373  35.424  41.451   9.080
 2971POPC   GL239374  35.228  41.752   9.058
 2971POPC   C1A39375  35.296  41.523   8.637
 2971POPC   D2A39376  35.097  41.264   8.383
 2971POPC   C3A39377  35.376  41.137   8.070
 2971POPC   C4A39378  35.447  41.261   7.662
 2971POPC   C1B39379  35.059  41.984   8.715
 2971POPC   C2B39380  35.299  41.955   8.323
 2971POPC   C3B39381  35.249  41.639   8.022
 2971POPC   C4B39382  35.046  41.824   7.708
 2972POPC   NC339383  18.798  19.713   9.971
 2972POPC   PO439384  19.356  19.646   9.534
 2972POPC   GL139385  19.107  19.813   9.174
 2972POPC   GL239386  19.407  19.911   8.968
 2972POPC   C1A39387  18.915  19.905   8.761
 2972POPC   D2A39388  19.056  19.722   8.391
 2972POPC   C3A39389  18.858  19.496   8.078
 2972POPC   C4A39390  18.742  19.312   7.729
 2972POPC   C1B39391  19.351  20.204   8.624
 2972POPC   C2B39392  19.276  20.128   8.185
 2972POPC   C3B39393  19.094  19.910   7.852
 2972POPC   C4B39394  19.120  19.839   7.407
 2973POPC   NC339395  13.187  15.239   9.637
 2973POPC   PO439396  12.588  15.258   9.887
 2973POPC   GL139397  12.791  15.079   9.366
 2973POPC   GL239398  12.534  15.053   9.080
 2973POPC   C1A39399  12.994  14.973   8.901
 2973POPC   D2A39400  12.744  14.926   8.511
 2973POPC   C3A39401  12.949  14.856   8.132
 2973POPC   C4A39402  12.770  14.980   7.771
 2973POPC   C1B39403  12.701  15.364   8.781
 2973POPC   C2B39404  12.967  15.362   8.419
 2973POPC   C3B39405  12.780  15.389   8.074
 2973POPC   C4B39406  12.759  15.623   7.744
 2974POPC   NC339407  17.921  43.045   9.443
 2974POPC   PO439408  18.540  43.365   9.502
 2974POPC   GL139409  18.351  43.319   9.116
 2974POPC   GL239410  18.569  43.081   8.931
 2974POPC   C1A39411  18.162  43.287   8.723
 2974POPC   D2A39412  18.503  43.229   8.417
 2974POPC   C3A39413  18.424  43.267   8.013
 2974POPC   C4A39414  18.083  43.223   7.819
 2974POPC   C1B39415  18.347  42.806   8.618
 2974POPC   C2B39416  18.468  42.757   8.199
 2974POPC   C3B39417  18.353  42.795   7.794
 2974POPC   C4B39418  18.644  43.076   7.606
 2975POPC   NC339419  15.533   3.563   9.452
 2975POPC   PO439420  14.924   3.136   9.431
 2975POPC   GL139421  15.157   3.400   9.141
 2975POPC   GL239422  15.212   3.789   9.128
 2975POPC   C1A39423  15.057   3.506   8.730
 2975POPC   D2A39424  15.279   3.510   8.350
 2975POPC   C3A39425  15.061   3.468   7.994
 2975POPC   C4A39426  14.848   3.765   7.772
 2975POPC   C1B39427  15.526   3.738   8.775
 2975POPC   C2B39428  15.596   3.914   8.368
 2975POPC   C3B39429  15.422   3.839   7.967
 2975POPC   C4B39430  15.291   3.751   7.541
 2976POPC   NC339431  33.274  10.863   9.332
 2976POPC   PO439432  32.944  10.346   9.490
 2976POPC   GL139433  32.899  10.577   9.080
 2976POPC   GL239434  33.145  10.769   8.853
 2976POPC   C1A39435  32.832  10.447   8.637
 2976POPC   D2A39436  32.970  10.647   8.272
 2976POPC   C3A39437  32.794  10.397   7.961
 2976POPC   C4A39438  32.754  10.404   7.463
 2976POPC   C1B39439  33.327  10.364   8.652
 2976POPC   C2B39440  33.231  10.188   8.244
 2976POPC   C3B39441  33.305  10.484   7.913
 2976POPC   C4B39442  33.240  10.534   7.484
 2977POPC   NC339443  13.596   7.895   9.484
 2977POPC   PO439444  13.195   8.453   9.430
 2977POPC   GL139445  13.577   8.284   9.132
 2977POPC   GL239446  13.762   7.925   9.025
 2977POPC   C1A39447  13.923   8.339   8.801
 2977POPC   D2A39448  13.833   8.174   8.386
 2977POPC   C3A39449  13.719   8.444   8.045
 2977POPC   C4A39450  13.368   8.326   7.818
 2977POPC   C1B39451  13.444   7.963   8.725
 2977POPC   C2B39452  13.305   7.809   8.318
 2977POPC   C3B39453  13.601   7.872   7.974
 2977POPC   C4B39454  14.026   7.710   7.906
 2978POPC   NC339455  10.836  15.025   9.534
 2978POPC   PO439456  10.239  15.315   9.636
 2978POPC   GL139457  10.434  15.303   9.195
 2978POPC   GL239458  10.549  14.957   9.117
 2978POPC   C1A39459  10.291  15.148   8.735
 2978POPC   D2A39460  10.486  14.930   8.375
 2978POPC   C3A39461  10.550  15.120   7.988
 2978POPC   C4A39462  10.246  15.380   7.784
 2978POPC   C1B39463  10.848  14.888   8.765
 2978POPC   C2B39464  10.926  14.677   8.375
 2978POPC   C3B39465  10.935  14.785   7.991
 2978POPC   C4B39466  10.722  14.863   7.579
 2979POPC   NC339467  41.283  13.650   9.409
 2979POPC   PO439468  41.936  13.882   9.633
 2979POPC   GL139469  41.757  13.764   9.239
 2979POPC   GL239470  41.741  13.392   9.343
 2979POPC   C1A39471  41.578  13.839   8.818
 2979POPC   D2A39472  41.461  14.021   8.409
 2979POPC   C3A39473  41.557  13.711   8.095
 2979POPC   C4A39474  41.484  13.578   7.663
 2979POPC   C1B39475  41.748  13.322   8.920
 2979POPC   C2B39476  41.820  13.505   8.520
 2979POPC   C3B39477  41.929  13.351   8.143
 2979POPC   C4B39478  41.796  13.204   7.754
 2980POPC   NC339479  33.874   3.083   9.420
 2980POPC   PO439480  33.531   2.457   9.495
 2980POPC   GL139481  33.733   2.617   9.193
 2980POPC   GL239482  33.524   2.854   9.103
 2980POPC   C1A39483  33.953   2.571   8.830
 2980POPC   D2A39484  34.042   2.791   8.474
 2980POPC   C3A39485  34.116   2.527   8.144
 2980POPC   C4A39486  33.966   2.682   7.741
 2980POPC   C1B39487  33.444   2.857   8.722
 2980POPC   C2B39488  33.624   3.106   8.439
 2980POPC   C3B39489  33.733   2.973   8.081
 2980POPC   C4B39490  33.586   3.039   7.709
 2981POPC   NC339491  27.800  14.957   9.312
 2981POPC   PO439492  27.832  15.519   9.678
 2981POPC   GL139493  27.823  15.496   9.199
 2981POPC   GL239494  27.498  15.297   9.082
 2981POPC   C1A39495  27.847  15.408   8.730
 2981POPC   D2A39496  27.546  15.414   8.393
 2981POPC   C3A39497  27.699  15.356   7.996
 2981POPC   C4A39498  27.791  15.378   7.583
 2981POPC   C1B39499  27.605  14.960   8.720
 2981POPC   C2B39500  27.823  14.976   8.351
 2981POPC   C3B39501  27.672  14.835   7.952
 2981POPC   C4B39502  27.317  14.606   7.792
 2982POPC   NC339503   5.363  42.378   9.436
 2982POPC   PO439504   4.785  42.558   9.747
 2982POPC   GL139505   4.897  42.321   9.278
 2982POPC   GL239506   5.143  42.463   8.986
 2982POPC   C1A39507   4.748  42.152   8.909
 2982POPC   D2A39508   4.895  42.285   8.526
 2982POPC   C3A39509   4.855  42.006   8.175
 2982POPC   C4A39510   4.766  42.211   7.764
 2982POPC   C1B39511   5.332  42.131   8.762
 2982POPC   C2B39512   5.328  42.074   8.375
 2982POPC   C3B39513   5.165  42.396   8.100
 2982POPC   C4B39514   5.227  42.461   7.685
 2983POPC   NC339515   6.200  32.205   9.822
 2983POPC   PO439516   6.766  32.284   9.497
 2983POPC   GL139517   6.699  32.553   9.186
 2983POPC   GL239518   6.742  32.225   8.983
 2983POPC   C1A39519   6.717  32.677   8.782
 2983POPC   D2A39520   6.810  32.328   8.475
 2983POPC   C3A39521   6.688  32.448   8.098
 2983POPC   C4A39522   7.015  32.384   7.809
 2983POPC   C1B39523   6.370  32.283   8.703
 2983POPC   C2B39524   6.332  32.099   8.323
 2983POPC   C3B39525   6.644  31.927   8.110
 2983POPC   C4B39526   6.645  32.062   7.716
 2984POPC   NC339527  23.898  10.255   9.470
 2984POPC   PO439528  23.340  10.746   9.533
 2984POPC   GL139529  23.518  10.488   9.188
 2984POPC   GL239530  23.852  10.571   9.063
 2984POPC   C1A39531  23.555  10.305   8.768
 2984POPC   D2A39532  23.771  10.505   8.456
 2984POPC   C3A39533  23.509  10.561   8.131
 2984POPC   C4A39534  23.581  10.463   7.718
 2984POPC   C1B39535  24.035  10.854   8.767
 2984POPC   C2B39536  24.180  10.782   8.333
 2984POPC   C3B39537  24.027  10.628   7.913
 2984POPC   C4B39538  23.936  10.704   7.432
 2985POPC   NC339539  38.218  42.084   9.507
 2985POPC   PO439540  38.433  42.743   9.367
 2985POPC   GL139541  38.460  42.389   9.112
 2985POPC   GL239542  38.687  42.109   9.210
 2985POPC   C1A39543  38.234  42.345   8.701
 2985POPC   D2A39544  38.238  42.074   8.315
 2985POPC   C3A39545  38.285  42.313   7.917
 2985POPC   C4A39546  38.080  42.606   7.657
 2985POPC   C1B39547  38.483  41.929   8.837
 2985POPC   C2B39548  38.627  41.772   8.458
 2985POPC   C3B39549  38.647  41.943   8.037
 2985POPC   C4B39550  38.767  42.302   7.757
 2986POPC   NC339551  23.355  27.752   9.535
 2986POPC   PO439552  24.149  27.872   9.483
 2986POPC   GL139553  23.795  27.645   9.208
 2986POPC   GL239554  23.485  27.611   9.086
 2986POPC   C1A39555  23.810  27.539   8.739
 2986POPC   D2A39556  23.643  27.664   8.324
 2986POPC   C3A39557  23.805  27.555   7.902
 2986POPC   C4A39558  23.982  27.491   7.464
 2986POPC   C1B39559  23.319  27.754   8.730
 2986POPC   C2B39560  23.127  27.584   8.382
 2986POPC   C3B39561  23.282  27.561   7.960
 2986POPC   C4B39562  23.430  27.908   7.726
 2987POPC   NC339563  18.217  24.206   9.311
 2987POPC   PO439564  18.168  23.737   9.859
 2987POPC   GL139565  18.082  23.731   9.374
 2987POPC   GL239566  18.420  23.734   9.179
 2987POPC   C1A39567  18.045  23.759   8.850
 2987POPC   D2A39568  18.298  23.829   8.502
 2987POPC   C3A39569  18.212  23.716   8.141
 2987POPC   C4A39570  18.074  23.873   7.782
 2987POPC   C1B39571  18.675  23.913   8.823
 2987POPC   C2B39572  18.827  23.857   8.412
 2987POPC   C3B39573  18.676  23.956   8.064
 2987POPC   C4B39574  18.570  23.761   7.706
 2988POPC   NC339575  22.924  10.363   9.670
 2988POPC   PO439576  22.488  10.814   9.468
 2988POPC   GL139577  22.807  10.554   9.195
 2988POPC   GL239578  23.060  10.262   9.198
 2988POPC   C1A39579  23.040  10.580   8.802
 2988POPC   D2A39580  22.761  10.546   8.461
 2988POPC   C3A39581  22.890  10.605   8.047
 2988POPC   C4A39582  22.742  10.392   7.687
 2988POPC   C1B39583  23.109  10.062   8.782
 2988POPC   C2B39584  23.170  10.246   8.373
 2988POPC   C3B39585  23.189  10.206   7.931
 2988POPC   C4B39586  23.193  10.240   7.473
 2989POPC   NC339587  40.568  36.721   9.543
 2989POPC   PO439588  41.154  37.087   9.564
 2989POPC   GL139589  40.912  37.148   9.152
 2989POPC   GL239590  40.581  37.310   9.226
 2989POPC   C1A39591  40.952  36.996   8.703
 2989POPC   D2A39592  40.757  36.698   8.416
 2989POPC   C3A39593  40.953  36.713   8.028
 2989POPC   C4A39594  41.121  37.003   7.747
 2989POPC   C1B39595  40.480  37.114   8.806
 2989POPC   C2B39596  40.347  37.001   8.375
 2989POPC   C3B39597  40.540  37.023   7.918
 2989POPC   C4B39598  40.512  37.063   7.448
 2990POPC   NC339599  29.342  40.592   9.808
 2990POPC   PO439600  28.851  40.992   9.557
 2990POPC   GL139601  29.136  40.844   9.246
 2990POPC   GL239602  29.171  40.538   9.298
 2990POPC   C1A39603  29.243  40.889   8.817
 2990POPC   D2A39604  29.314  41.034   8.443
 2990POPC   C3A39605  29.506  40.833   8.133
 2990POPC   C4A39606  29.410  41.062   7.786
 2990POPC   C1B39607  28.842  40.591   8.887
 2990POPC   C2B39608  28.812  40.808   8.484
 2990POPC   C3B39609  28.985  40.843   8.046
 2990POPC   C4B39610  28.866  40.579   7.676
 2991POPC   NC339611  32.800   0.054   9.891
 2991POPC   PO439612  33.033  44.465   9.793
 2991POPC   GL139613  32.920  44.699   9.335
 2991POPC   GL239614  33.108  44.948   9.095
 2991POPC   C1A39615  32.857  44.580   8.866
 2991POPC   D2A39616  32.808  44.663   8.432
 2991POPC   C3A39617  32.820  44.509   8.023
 2991POPC   C4A39618  33.132  44.650   7.730
 2991POPC   C1B39619  33.196  44.904   8.652
 2991POPC   C2B39620  33.249  44.824   8.203
 2991POPC   C3B39621  33.385   0.080   7.826
 2991POPC   C4B39622  33.382   0.224   7.361
 2992POPC   NC339623  29.651   7.856   9.408
 2992POPC   PO439624  30.129   8.388   9.431
 2992POPC   GL139625  29.970   8.156   9.105
 2992POPC   GL239626  29.778   8.425   8.987
 2992POPC   C1A39627  30.012   7.919   8.708
 2992POPC   D2A39628  29.781   7.925   8.319
 2992POPC   C3A39629  29.895   8.048   7.892
 2992POPC   C4A39630  30.007   8.494   7.831
 2992POPC   C1B39631  29.513   8.166   8.725
 2992POPC   C2B39632  29.330   8.242   8.327
 2992POPC   C3B39633  29.528   8.402   7.977
 2992POPC   C4B39634  29.639   8.317   7.529
 2993POPC   NC339635  17.973  23.318   9.879
 2993POPC   PO439636  18.334  22.903   9.482
 2993POPC   GL139637  18.239  23.002   9.109
 2993POPC   GL239638  18.151  23.301   9.140
 2993POPC   C1A39639  18.139  22.883   8.697
 2993POPC   D2A39640  18.289  23.097   8.304
 2993POPC   C3A39641  18.127  22.912   7.943
 2993POPC   C4A39642  17.915  22.528   7.939
 2993POPC   C1B39643  18.320  23.363   8.755
 2993POPC   C2B39644  18.642  23.414   8.514
 2993POPC   C3B39645  18.623  23.418   8.079
 2993POPC   C4B39646  18.235  23.386   7.770
 2994POPC   NC339647   0.665  37.119   9.412
 2994POPC   PO439648   0.415  36.610   9.724
 2994POPC   GL139649   0.258  36.699   9.291
 2994POPC   GL239650   0.159  37.034   9.210
 2994POPC   C1A39651   0.467  36.770   8.878
 2994POPC   D2A39652   0.638  37.088   8.566
 2994POPC   C3A39653   0.740  36.989   8.134
 2994POPC   C4A39654   0.477  36.865   7.783
 2994POPC   C1B39655   0.238  37.274   8.858
 2994POPC   C2B39656   0.175  37.354   8.442
 2994POPC   C3B39657   0.177  37.220   8.014
 2994POPC   C4B39658   0.175  37.470   7.656
 2995POPC   NC339659   5.389   1.651   9.753
 2995POPC   PO439660   5.072   2.237   9.724
 2995POPC   GL139661   5.293   2.132   9.299
 2995POPC   GL239662   5.245   1.760   9.192
 2995POPC   C1A39663   5.301   2.104   8.825
 2995POPC   D2A39664   5.353   1.759   8.492
 2995POPC   C3A39665   5.327   1.980   8.103
 2995POPC   C4A39666   5.383   2.000   7.679
 2995POPC   C1B39667   4.936   1.722   8.792
 2995POPC   C2B39668   4.854   1.806   8.309
 2995POPC   C3B39669   4.827   2.021   7.876
 2995POPC   C4B39670   4.967   2.169   7.453
 2996POPC   NC339671  44.559  11.825   9.652
 2996POPC   PO439672  44.703  12.429   9.570
 2996POPC   GL139673  44.754  12.161   9.209
 2996POPC   GL239674  44.463  11.950   9.173
 2996POPC   C1A39675  44.663  12.200   8.757
 2996POPC   D2A39676  44.690  12.418   8.340
 2996POPC   C3A39677  44.741  12.072   8.061
 2996POPC   C4A39678  44.477  12.051   7.767
 2996POPC   C1B39679  44.386  11.702   8.828
 2996POPC   C2B39680  44.525  11.816   8.456
 2996POPC   C3B39681  44.378  11.695   8.110
 2996POPC   C4B39682  44.246  11.595   7.720
 2997POPC   NC339683  39.175  44.997   9.701
 2997POPC   PO439684  39.175  44.375   9.657
 2997POPC   GL139685  39.303  44.605   9.293
 2997POPC   GL239686  38.986  44.761   9.271
 2997POPC   C1A39687  39.469  44.666   8.869
 2997POPC   D2A39688  39.724  44.704   8.467
 2997POPC   C3A39689  39.457  44.733   8.117
 2997POPC   C4A39690  39.183  44.807   7.778
 2997POPC   C1B39691  38.916  44.576   8.871
 2997POPC   C2B39692  38.945  44.737   8.452
 2997POPC   C3B39693  38.802  44.946   8.097
 2997POPC   C4B39694  38.687  44.782   7.723
 2998POPC   NC339695  18.341  42.262   9.494
 2998POPC   PO439696  18.286  42.842   9.266
 2998POPC   GL139697  18.380  42.551   9.046
 2998POPC   GL239698  18.616  42.349   9.053
 2998POPC   C1A39699  18.131  42.297   8.812
 2998POPC   D2A39700  17.998  41.974   8.545
 2998POPC   C3A39701  18.028  41.983   8.086
 2998POPC   C4A39702  17.975  42.321   7.738
 2998POPC   C1B39703  18.584  42.372   8.611
 2998POPC   C2B39704  18.347  42.290   8.322
 2998POPC   C3B39705  18.445  42.292   7.923
 2998POPC   C4B39706  18.479  42.391   7.508
 2999POPC   NC339707  41.999   0.921   9.386
 2999POPC   PO439708  42.040   0.222   9.455
 2999POPC   GL139709  42.287   0.511   9.144
 2999POPC   GL239710  42.680   0.607   9.170
 2999POPC   C1A39711  42.119   0.531   8.719
 2999POPC   D2A39712  41.898   0.590   8.339
 2999POPC   C3A39713  42.097   0.754   8.056
 2999POPC   C4A39714  42.218   0.683   7.656
 2999POPC   C1B39715  42.627   0.439   8.759
 2999POPC   C2B39716  42.462   0.348   8.363
 2999POPC   C3B39717  42.540   0.462   7.962
 2999POPC   C4B39718  42.724   0.732   7.656
 3000POPC   NC339719  31.921  16.408   9.591
 3000POPC   PO439720  32.456  16.904   9.480
 3000POPC   GL139721  32.222  16.599   9.200
 3000POPC   GL239722  32.393  16.302   9.050
 3000POPC   C1A39723  32.106  16.739   8.788
 3000POPC   D2A39724  32.305  16.830   8.418
 3000POPC   C3A39725  32.152  17.028   8.065
 3000POPC   C4A39726  31.970  16.822   7.752
 3000POPC   C1B39727  32.569  16.458   8.674
 3000POPC   C2B39728  32.823  16.739   8.408
 3000POPC   C3B39729  32.618  16.778   8.010
 3000POPC   C4B39730  32.240  16.487   8.025
 3001POPC   NC339731   7.844   5.950   9.435
 3001POPC   PO439732   7.151   5.732   9.540
 3001POPC   GL139733   7.318   5.773   9.108
 3001POPC   GL239734   7.677   5.639   9.079
 3001POPC   C1A39735   7.160   5.963   8.703
 3001POPC   D2A39736   7.235   6.246   8.344
 3001POPC   C3A39737   7.113   6.177   7.922
 3001POPC   C4A39738   7.387   6.241   7.583
 3001POPC   C1B39739   7.681   5.896   8.705
 3001POPC   C2B39740   7.493   5.794   8.317
 3001POPC   C3B39741   7.504   5.523   7.968
 3001POPC   C4B39742   7.311   5.753   7.659
 3002POPC   NC339743   5.836   4.350   9.524
 3002POPC   PO439744   6.411   4.751   9.481
 3002POPC   GL139745   6.086   4.592   9.122
 3002POPC   GL239746   5.965   4.195   9.070
 3002POPC   C1A39747   6.257   4.395   8.722
 3002POPC   D2A39748   6.087   4.202   8.363
 3002POPC   C3A39749   6.136   4.383   7.977
 3002POPC   C4A39750   6.042   4.213   7.597
 3002POPC   C1B39751   5.747   4.369   8.715
 3002POPC   C2B39752   5.732   4.533   8.308
 3002POPC   C3B39753   5.639   4.465   7.889
 3002POPC   C4B39754   5.487   4.606   7.513
 3003POPC   NC339755  23.828  24.066   9.400
 3003POPC   PO439756  24.011  24.712   9.512
 3003POPC   GL139757  23.617  24.583   9.246
 3003POPC   GL239758  23.465  24.242   9.113
 3003POPC   C1A39759  23.538  24.618   8.799
 3003POPC   D2A39760  23.827  24.672   8.450
 3003POPC   C3A39761  23.596  24.555   8.105
 3003POPC   C4A39762  23.743  24.593   7.730
 3003POPC   C1B39763  23.788  24.181   8.782
 3003POPC   C2B39764  23.809  24.168   8.367
 3003POPC   C3B39765  24.033  24.306   8.057
 3003POPC   C4B39766  24.110  24.200   7.651
 3004POPC   NC339767  42.785  19.089   9.588
 3004POPC   PO439768  43.410  19.280   9.329
 3004POPC   GL139769  43.009  19.272   9.142
 3004POPC   GL239770  42.958  18.933   9.127
 3004POPC   C1A39771  43.025  19.175   8.697
 3004POPC   D2A39772  43.256  19.397   8.407
 3004POPC   C3A39773  43.367  19.115   8.088
 3004POPC   C4A39774  43.411  19.150   7.661
 3004POPC   C1B39775  42.809  18.690   8.772
 3004POPC   C2B39776  43.019  18.759   8.409
 3004POPC   C3B39777  42.851  18.850   8.033
 3004POPC   C4B39778  42.920  19.020   7.684
 3005POPC   NC339779  38.145  24.955   9.424
 3005POPC   PO439780  38.541  25.516   9.483
 3005POPC   GL139781  38.535  25.225   9.196
 3005POPC   GL239782  38.225  25.322   9.063
 3005POPC   C1A39783  38.623  25.074   8.808
 3005POPC   D2A39784  38.548  25.378   8.506
 3005POPC   C3A39785  38.648  25.182   8.129
 3005POPC   C4A39786  38.843  25.374   7.821
 3005POPC   C1B39787  38.106  25.046   8.730
 3005POPC   C2B39788  38.163  25.132   8.300
 3005POPC   C3B39789  38.244  25.532   8.099
 3005POPC   C4B39790  38.480  25.766   7.825
 3006POPC   NC339791   5.027  30.523   9.542
 3006POPC   PO439792   5.134  31.122   9.323
 3006POPC   GL139793   5.226  30.901   9.001
 3006POPC   GL239794   5.289  30.564   9.091
 3006POPC   C1A39795   4.942  30.731   8.752
 3006POPC   D2A39796   4.991  30.466   8.451
 3006POPC   C3A39797   4.844  30.688   8.093
 3006POPC   C4A39798   4.926  30.940   7.738
 3006POPC   C1B39799   5.473  30.454   8.677
 3006POPC   C2B39800   5.470  30.562   8.229
 3006POPC   C3B39801   5.320  30.532   7.794
 3006POPC   C4B39802   5.439  30.310   7.405
 3007POPC   NC339803   0.028  38.674   9.271
 3007POPC   PO439804  44.500  38.570   9.682
 3007POPC   GL139805  44.523  38.550   9.220
 3007POPC   GL239806  44.343  38.818   9.119
 3007POPC   C1A39807  44.714  38.272   8.868
 3007POPC   D2A39808  44.835  38.358   8.440
 3007POPC   C3A39809  44.525  38.551   8.178
 3007POPC   C4A39810  44.476  38.358   7.812
 3007POPC   C1B39811  44.471  38.695   8.718
 3007POPC   C2B39812  44.781  38.876   8.466
 3007POPC   C3B39813   0.002  38.803   8.095
 3007POPC   C4B39814  44.802  38.738   7.686
 3008POPC   NC339815  20.564  39.997   9.622
 3008POPC   PO439816  20.186  40.513   9.415
 3008POPC   GL139817  20.439  40.177   9.165
 3008POPC   GL239818  20.775  39.930   9.177
 3008POPC   C1A39819  20.632  40.158   8.758
 3008POPC   D2A39820  20.872  40.228   8.429
 3008POPC   C3A39821  20.660  40.000   8.155
 3008POPC   C4A39822  20.371  40.117   7.864
 3008POPC   C1B39823  21.110  39.922   8.812
 3008POPC   C2B39824  21.313  40.005   8.375
 3008POPC   C3B39825  21.134  39.953   7.949
 3008POPC   C4B39826  20.766  39.739   7.746
 3009POPC   NC339827  20.212  41.009   9.459
 3009POPC   PO439828  19.548  40.710   9.477
 3009POPC   GL139829  19.831  40.798   9.157
 3009POPC   GL239830  19.636  41.113   9.149
 3009POPC   C1A39831  19.995  40.584   8.765
 3009POPC   D2A39832  19.827  40.465   8.358
 3009POPC   C3A39833  20.022  40.497   7.968
 3009POPC   C4A39834  19.948  40.873   7.782
 3009POPC   C1B39835  19.736  41.030   8.712
 3009POPC   C2B39836  19.650  40.940   8.289
 3009POPC   C3B39837  19.461  40.842   7.920
 3009POPC   C4B39838  19.211  40.563   7.700
 3010POPC   NC339839   8.286  40.411   9.464
 3010POPC   PO439840   8.213  39.692   9.523
 3010POPC   GL139841   8.164  40.013   9.196
 3010POPC   GL239842   8.053  39.767   9.000
 3010POPC   C1A39843   8.219  40.232   8.814
 3010POPC   D2A39844   8.208  40.076   8.401
 3010POPC   C3A39845   8.515  40.015   8.115
 3010POPC   C4A39846   8.331  40.050   7.728
 3010POPC   C1B39847   7.852  39.487   8.716
 3010POPC   C2B39848   7.629  39.608   8.345
 3010POPC   C3B39849   7.855  39.841   8.042
 3010POPC   C4B39850   8.025  39.660   7.672
 3011POPC   NC339851  38.945  24.434   9.497
 3011POPC   PO439852  39.356  24.958   9.643
 3011POPC   GL139853  39.351  24.741   9.248
 3011POPC   GL239854  39.366  24.369   9.204
 3011POPC   C1A39855  39.490  24.694   8.821
 3011POPC   D2A39856  39.341  24.533   8.413
 3011POPC   C3A39857  39.465  24.628   7.985
 3011POPC   C4A39858  39.115  24.625   7.760
 3011POPC   C1B39859  39.355  24.151   8.785
 3011POPC   C2B39860  39.494  24.036   8.348
 3011POPC   C3B39861  39.275  24.151   7.984
 3011POPC   C4B39862  39.028  24.070   7.649
 3012POPC   NC339863   9.762  41.097   9.601
 3012POPC   PO439864   9.447  40.545   9.742
 3012POPC   GL139865   9.703  40.624   9.299
 3012POPC   GL239866   9.924  40.902   9.157
 3012POPC   C1A39867   9.662  40.634   8.819
 3012POPC   D2A39868   9.892  40.668   8.430
 3012POPC   C3A39869   9.703  40.770   8.045
 3012POPC   C4A39870   9.524  40.503   7.743
 3012POPC   C1B39871  10.014  41.039   8.764
 3012POPC   C2B39872   9.842  41.204   8.403
 3012POPC   C3B39873   9.952  41.345   8.027
 3012POPC   C4B39874   9.744  41.165   7.708
 3013POPC   NC339875  34.176  23.595   9.420
 3013POPC   PO439876  33.832  24.148   9.696
 3013POPC   GL139877  33.726  23.942   9.289
 3013POPC   GL239878  33.516  23.639   9.315
 3013POPC   C1A39879  33.863  23.874   8.866
 3013POPC   D2A39880  34.049  23.613   8.555
 3013POPC   C3A39881  34.012  23.753   8.141
 3013POPC   C4A39882  33.978  23.536   7.774
 3013POPC   C1B39883  33.379  23.669   8.867
 3013POPC   C2B39884  33.544  23.726   8.446
 3013POPC   C3B39885  33.525  23.674   7.999
 3013POPC   C4B39886  33.384  24.051   7.835
 3014POPC   NC339887  26.378  10.092   9.342
 3014POPC   PO439888  26.943  10.537   9.527
 3014POPC   GL139889  26.804  10.723   9.170
 3014POPC   GL239890  26.862  10.368   9.020
 3014POPC   C1A39891  26.929  10.794   8.742
 3014POPC   D2A39892  26.862  10.454   8.459
 3014POPC   C3A39893  26.916  10.495   7.995
 3014POPC   C4A39894  26.831  10.879   7.738
 3014POPC   C1B39895  26.493  10.529   8.823
 3014POPC   C2B39896  26.398  10.683   8.415
 3014POPC   C3B39897  26.416  10.654   7.974
 3014POPC   C4B39898  26.559  10.461   7.601
 3015POPC   NC339899  19.808   8.113   9.654
 3015POPC   PO439900  19.691   7.525   9.457
 3015POPC   GL139901  19.647   7.599   9.054
 3015POPC   GL239902  19.995   7.593   9.010
 3015POPC   C1A39903  19.683   7.310   8.713
 3015POPC   D2A39904  19.735   7.185   8.316
 3015POPC   C3A39905  19.687   7.471   7.981
 3015POPC   C4A39906  19.717   7.348   7.605
 3015POPC   C1B39907  20.222   7.481   8.672
 3015POPC   C2B39908  20.110   7.514   8.270
 3015POPC   C3B39909  20.181   7.342   7.898
 3015POPC   C4B39910  20.112   7.698   7.669
 3016POPC   NC339911   8.402  30.491   9.529
 3016POPC   PO439912   7.799  30.766   9.491
 3016POPC   GL139913   8.092  30.713   9.197
 3016POPC   GL239914   8.399  30.901   9.148
 3016POPC   C1A39915   8.092  30.578   8.813
 3016POPC   D2A39916   8.192  30.815   8.499
 3016POPC   C3A39917   8.048  30.636   8.154
 3016POPC   C4A39918   8.122  30.735   7.722
 3016POPC   C1B39919   8.589  30.596   8.835
 3016POPC   C2B39920   8.459  30.380   8.434
 3016POPC   C3B39921   8.516  30.482   7.993
 3016POPC   C4B39922   8.362  30.319   7.577
 3017POPC   NC339923   0.884  30.529   9.461
 3017POPC   PO439924   1.475  30.249   9.489
 3017POPC   GL139925   1.304  30.520   9.137
 3017POPC   GL239926   1.094  30.852   9.135
 3017POPC   C1A39927   1.312  30.715   8.718
 3017POPC   D2A39928   1.144  30.923   8.362
 3017POPC   C3A39929   1.471  30.808   8.071
 3017POPC   C4A39930   1.359  30.456   7.829
 3017POPC   C1B39931   0.863  31.049   8.784
 3017POPC   C2B39932   0.603  31.056   8.453
 3017POPC   C3B39933   0.729  31.058   8.041
 3017POPC   C4B39934   1.037  30.886   7.846
 3018POPC   NC339935  43.516  34.424   9.457
 3018POPC   PO439936  42.827  34.457   9.399
 3018POPC   GL139937  43.043  34.675   9.069
 3018POPC   GL239938  43.307  34.908   9.162
 3018POPC   C1A39939  43.128  34.645   8.620
 3018POPC   D2A39940  43.068  34.665   8.190
 3018POPC   C3A39941  42.928  34.309   8.015
 3018POPC   C4A39942  43.098  34.469   7.658
 3018POPC   C1B39943  43.484  34.964   8.757
 3018POPC   C2B39944  43.549  34.800   8.301
 3018POPC   C3B39945  43.526  34.741   7.837
 3018POPC   C4B39946  43.410  34.731   7.364
 3019POPC   NC339947  44.135  43.326   9.291
 3019POPC   PO439948  43.636  42.835   9.505
 3019POPC   GL139949  43.751  42.977   9.127
 3019POPC   GL239950  43.626  43.302   9.162
 3019POPC   C1A39951  43.962  42.893   8.725
 3019POPC   D2A39952  43.803  43.000   8.316
 3019POPC   C3A39953  43.896  42.851   7.927
 3019POPC   C4A39954  43.492  42.841   7.793
 3019POPC   C1B39955  43.722  43.327   8.727
 3019POPC   C2B39956  44.046  43.425   8.456
 3019POPC   C3B39957  44.025  43.407   8.002
 3019POPC   C4B39958  43.622  43.321   7.808
 3020POPC   NC339959  13.219   4.383   9.576
 3020POPC   PO439960  13.822   4.640   9.434
 3020POPC   GL139961  13.481   4.580   9.177
 3020POPC   GL239962  13.654   4.314   9.042
 3020POPC   C1A39963  13.490   4.731   8.762
 3020POPC   D2A39964  13.732   4.497   8.483
 3020POPC   C3A39965  13.542   4.330   8.132
 3020POPC   C4A39966  13.537   4.569   7.796
 3020POPC   C1B39967  13.455   4.113   8.713
 3020POPC   C2B39968  13.722   3.947   8.421
 3020POPC   C3B39969  13.957   4.014   8.093
 3020POPC   C4B39970  13.815   4.138   7.718
 3021POPC   NC339971  37.291  35.274   9.426
 3021POPC   PO439972  37.983  35.369   9.500
 3021POPC   GL139973  37.996  35.350   9.074
 3021POPC   GL239974  37.670  35.132   9.087
 3021POPC   C1A39975  37.925  35.245   8.668
 3021POPC   D2A39976  37.761  35.457   8.357
 3021POPC   C3A39977  37.811  35.171   8.087
 3021POPC   C4A39978  37.851  35.393   7.764
 3021POPC   C1B39979  37.418  35.391   8.746
 3021POPC   C2B39980  37.251  35.535   8.315
 3021POPC   C3B39981  37.359  35.363   7.886
 3021POPC   C4B39982  37.111  35.279   7.499
 3022POPC   NC339983   4.135  36.224   9.663
 3022POPC   PO439984   3.463  36.010   9.567
 3022POPC   GL139985   3.414  36.087   9.139
 3022POPC   GL239986   3.540  35.758   9.099
 3022POPC   C1A39987   3.649  36.124   8.745
 3022POPC   D2A39988   3.695  36.051   8.307
 3022POPC   C3A39989   3.555  36.234   7.944
 3022POPC   C4A39990   3.868  36.432   7.674
 3022POPC   C1B39991   3.313  35.695   8.746
 3022POPC   C2B39992   3.230  35.866   8.368
 3022POPC   C3B39993   3.421  35.727   8.003
 3022POPC   C4B39994   3.405  35.576   7.598
 3023POPC   NC339995  14.554  14.810   9.868
 3023POPC   PO439996  14.255  14.300   9.562
 3023POPC   GL139997  14.388  14.289   9.152
 3023POPC   GL239998  14.519  14.004   9.035
 3023POPC   C1A39999  14.458  14.461   8.745
 3023POPC   D2A40000  14.222  14.549   8.386
 3023POPC   C3A40001  14.372  14.424   7.964
 3023POPC   C4A40002  14.309  14.563   7.530
 3023POPC   C1B40003  14.779  14.071   8.709
 3023POPC   C2B40004  14.754  14.304   8.320
 3023POPC   C3B40005  14.860  14.537   7.933
 3023POPC   C4B40006  14.800  14.428   7.477
 3024POPC   NC340007  32.573  11.210   9.538
 3024POPC   PO440008  33.189  11.315   9.469
 3024POPC   GL140009  33.174  11.311   9.054
 3024POPC   GL240010  32.865  11.122   9.116
 3024POPC   C1A40011  33.241  11.641   8.725
 3024POPC   D2A40012  33.235  11.829   8.292
 3024POPC   C3A40013  33.230  11.489   7.974
 3024POPC   C4A40014  33.315  11.075   7.804
 3024POPC   C1B40015  32.733  11.393   8.793
 3024POPC   C2B40016  32.901  11.417   8.384
 3024POPC   C3B40017  32.818  11.190   8.016
 3024POPC   C4B40018  32.895  10.820   7.751
 3025POPC   NC340019  32.319   2.510   9.460
 3025POPC   PO440020  31.847   2.937   9.640
 3025POPC   GL140021  31.977   2.829   9.210
 3025POPC   GL240022  31.906   2.486   9.145
 3025POPC   C1A40023  32.215   2.802   8.806
 3025POPC   D2A40024  32.323   3.124   8.486
 3025POPC   C3A40025  32.619   3.034   8.145
 3025POPC   C4A40026  32.473   2.751   7.848
 3025POPC   C1B40027  32.099   2.296   8.836
 3025POPC   C2B40028  32.319   2.286   8.487
 3025POPC   C3B40029  32.172   2.450   8.110
 3025POPC   C4B40030  32.096   2.312   7.697
 3026POPC   NC340031   8.679   6.497   9.493
 3026POPC   PO440032   9.228   6.709   9.447
 3026POPC   GL140033   9.155   6.839   9.057
 3026POPC   GL240034   8.808   6.794   9.078
 3026POPC   C1A40035   9.161   6.816   8.635
 3026POPC   D2A40036   9.218   6.453   8.396
 3026POPC   C3A40037   9.309   6.557   7.991
 3026POPC   C4A40038   9.092   6.506   7.624
 3026POPC   C1B40039   8.788   6.471   8.773
 3026POPC   C2B40040   8.668   6.274   8.380
 3026POPC   C3B40041   8.674   6.438   7.946
 3026POPC   C4B40042   8.609   6.607   7.508
 3027POPC   NC340043  25.549  37.385   9.510
 3027POPC   PO440044  25.545  38.093   9.490
 3027POPC   GL140045  25.585  37.862   9.115
 3027POPC   GL240046  25.330  37.563   9.096
 3027POPC   C1A40047  25.551  37.753   8.681
 3027POPC   D2A40048  25.383  37.599   8.290
 3027POPC   C3A40049  25.490  37.691   7.865
 3027POPC   C4A40050  25.274  37.590   7.456
 3027POPC   C1B40051  25.064  37.615   8.736
 3027POPC   C2B40052  25.090  37.997   8.478
 3027POPC   C3B40053  25.335  38.101   8.132
 3027POPC   C4B40054  25.284  38.110   7.663
 3028POPC   NC340055  31.842  31.881   9.535
 3028POPC   PO440056  32.118  31.119   9.479
 3028POPC   GL140057  32.236  31.550   9.351
 3028POPC   GL240058  31.938  31.518   9.189
 3028POPC   C1A40059  32.297  31.774   8.942
 3028POPC   D2A40060  32.046  31.739   8.567
 3028POPC   C3A40061  32.117  31.820   8.129
 3028POPC   C4A40062  32.034  31.696   7.687
 3028POPC   C1B40063  32.061  31.273   8.829
 3028POPC   C2B40064  31.909  31.268   8.420
 3028POPC   C3B40065  32.025  31.322   8.024
 3028POPC   C4B40066  31.834  31.192   7.668
 3029POPC   NC340067   0.752  38.671   9.399
 3029POPC   PO440068   0.164  38.255   9.446
 3029POPC   GL140069   0.466  38.317   9.097
 3029POPC   GL240070   0.840  38.261   9.111
 3029POPC   C1A40071   0.608  38.146   8.685
 3029POPC   D2A40072   0.648  38.137   8.272
 3029POPC   C3A40073   0.250  38.239   8.148
 3029POPC   C4A40074   0.199  38.433   7.789
 3029POPC   C1B40075   0.772  38.621   8.780
 3029POPC   C2B40076   0.472  38.612   8.439
 3029POPC   C3B40077   0.625  38.592   8.031
 3029POPC   C4B40078   0.652  38.593   7.604
 3030POPC   NC340079  43.734   0.992   9.579
 3030POPC   PO440080  44.261   1.318   9.668
 3030POPC   GL140081  44.146   1.252   9.206
 3030POPC   GL240082  43.788   1.274   9.165
 3030POPC   C1A40083  44.019   1.392   8.749
 3030POPC   D2A40084  43.928   1.121   8.400
 3030POPC   C3A40085  43.987   1.270   7.973
 3030POPC   C4A40086  44.023   1.134   7.539
 3030POPC   C1B40087  43.525   1.195   8.810
 3030POPC   C2B40088  43.426   0.844   8.553
 3030POPC   C3B40089  43.504   0.870   8.125
 3030POPC   C4B40090  43.494   1.219   7.805
 3031POPC   NC340091  36.812   7.870   9.407
 3031POPC   PO440092  36.929   8.462   9.737
 3031POPC   GL140093  36.738   8.509   9.289
 3031POPC   GL240094  36.617   8.223   9.107
 3031POPC   C1A40095  36.883   8.520   8.813
 3031POPC   D2A40096  36.653   8.431   8.407
 3031POPC   C3A40097  36.913   8.552   8.045
 3031POPC   C4A40098  36.882   8.784   7.642
 3031POPC   C1B40099  36.767   8.020   8.702
 3031POPC   C2B40100  37.047   8.115   8.328
 3031POPC   C3B40101  36.969   8.081   7.872
 3031POPC   C4B40102  36.994   8.202   7.430
 3032POPC   NC340103  15.955   7.040   9.721
 3032POPC   PO440104  16.324   7.542   9.278
 3032POPC   GL140105  15.931   7.671   9.111
 3032POPC   GL240106  15.652   7.428   9.061
 3032POPC   C1A40107  15.961   7.567   8.682
 3032POPC   D2A40108  16.223   7.592   8.339
 3032POPC   C3A40109  15.956   7.502   8.011
 3032POPC   C4A40110  15.932   7.659   7.568
 3032POPC   C1B40111  15.669   7.140   8.676
 3032POPC   C2B40112  16.041   7.067   8.377
 3032POPC   C3B40113  16.116   6.997   7.930
 3032POPC   C4B40114  15.820   7.182   7.640
 3033POPC   NC340115  29.369  22.676   9.530
 3033POPC   PO440116  28.842  22.997   9.447
 3033POPC   GL140117  29.178  23.010   9.148
 3033POPC   GL240118  29.015  23.308   9.059
 3033POPC   C1A40119  29.299  22.861   8.729
 3033POPC   D2A40120  29.115  22.865   8.306
 3033POPC   C3A40121  29.280  22.888   7.893
 3033POPC   C4A40122  29.338  22.584   7.582
 3033POPC   C1B40123  28.822  23.067   8.721
 3033POPC   C2B40124  28.733  23.206   8.285
 3033POPC   C3B40125  28.802  23.152   7.836
 3033POPC   C4B40126  29.095  23.329   7.525
 3034POPC   NC340127  27.186   0.441   9.813
 3034POPC   PO440128  27.848   0.600   9.583
 3034POPC   GL140129  27.712   0.490   9.159
 3034POPC   GL240130  27.415   0.301   9.191
 3034POPC   C1A40131  27.711   0.234   8.749
 3034POPC   D2A40132  27.804   0.424   8.330
 3034POPC   C3A40133  27.733   0.223   7.926
 3034POPC   C4A40134  27.643   0.540   7.612
 3034POPC   C1B40135  27.237   0.436   8.793
 3034POPC   C2B40136  27.085   0.492   8.378
 3034POPC   C3B40137  27.252   0.429   7.969
 3034POPC   C4B40138  27.058   0.246   7.626
 3035POPC   NC340139   5.281  31.903   9.569
 3035POPC   PO440140   5.503  31.271   9.708
 3035POPC   GL140141   5.398  31.520   9.252
 3035POPC   GL240142   5.039  31.665   9.187
 3035POPC   C1A40143   5.266  31.392   8.779
 3035POPC   D2A40144   4.867  31.260   8.601
 3035POPC   C3A40145   4.869  31.256   8.156
 3035POPC   C4A40146   5.122  31.409   7.823
 3035POPC   C1B40147   5.105  31.867   8.760
 3035POPC   C2B40148   5.130  31.714   8.307
 3035POPC   C3B40149   5.161  31.905   7.880
 3035POPC   C4B40150   4.926  31.772   7.476
 3036POPC   NC340151  44.014  13.651   9.619
 3036POPC   PO440152  43.414  13.542   9.919
 3036POPC   GL140153  43.580  13.728   9.388
 3036POPC   GL240154  43.915  13.908   9.198
 3036POPC   C1A40155  43.607  13.632   8.905
 3036POPC   D2A40156  43.891  13.507   8.570
 3036POPC   C3A40157  43.797  13.524   8.110
 3036POPC   C4A40158  44.081  13.438   7.772
 3036POPC   C1B40159  43.917  14.012   8.745
 3036POPC   C2B40160  43.744  14.038   8.333
 3036POPC   C3B40161  43.806  13.972   7.893
 3036POPC   C4B40162  44.039  13.890   7.525
 3037POPC   NC340163  26.075  31.825   9.468
 3037POPC   PO440164  26.444  31.313   9.595
 3037POPC   GL140165  26.231  31.438   9.186
 3037POPC   GL240166  26.405  31.722   9.069
 3037POPC   C1A40167  25.974  31.596   8.788
 3037POPC   D2A40168  25.839  31.761   8.351
 3037POPC   C3A40169  26.005  31.557   7.973
 3037POPC   C4A40170  25.817  31.161   7.772
 3037POPC   C1B40171  26.470  31.384   8.725
 3037POPC   C2B40172  26.407  31.173   8.294
 3037POPC   C3B40173  26.338  31.185   7.839
 3037POPC   C4B40174  26.174  31.078   7.411
 3038POPC   NC340175  36.944   8.047   9.940
 3038POPC   PO440176  36.763   7.447   9.614
 3038POPC   GL140177  36.665   7.300   9.223
 3038POPC   GL240178  37.003   7.387   9.141
 3038POPC   C1A40179  36.700   7.223   8.779
 3038POPC   D2A40180  36.990   7.223   8.440
 3038POPC   C3A40181  36.795   7.282   8.072
 3038POPC   C4A40182  36.995   7.184   7.726
 3038POPC   C1B40183  37.108   7.608   8.751
 3038POPC   C2B40184  37.217   7.638   8.286
 3038POPC   C3B40185  37.195   7.629   7.832
 3038POPC   C4B40186  36.855   7.675   7.525
 3039POPC   NC340187   9.941  38.551   9.528
 3039POPC   PO440188   9.230  38.485   9.592
 3039POPC   GL140189   9.424  38.560   9.153
 3039POPC   GL240190   9.728  38.769   9.115
 3039POPC   C1A40191   9.589  38.529   8.705
 3039POPC   D2A40192   9.493  38.767   8.329
 3039POPC   C3A40193   9.631  38.623   7.932
 3039POPC   C4A40194   9.883  38.283   7.827
 3039POPC   C1B40195  10.124  38.782   8.829
 3039POPC   C2B40196  10.331  38.722   8.414
 3039POPC   C3B40197  10.178  38.754   7.966
 3039POPC   C4B40198  10.061  38.691   7.553
 3040POPC   NC340199  28.918   2.774   9.540
 3040POPC   PO440200  29.535   2.467   9.572
 3040POPC   GL140201  29.282   2.718   9.187
 3040POPC   GL240202  28.899   2.649   9.071
 3040POPC   C1A40203  29.256   2.884   8.748
 3040POPC   D2A40204  29.481   2.734   8.373
 3040POPC   C3A40205  29.445   2.926   7.947
 3040POPC   C4A40206  29.306   2.748   7.528
 3040POPC   C1B40207  28.778   2.667   8.661
 3040POPC   C2B40208  28.960   2.901   8.330
 3040POPC   C3B40209  28.950   2.875   7.909
 3040POPC   C4B40210  28.874   2.488   7.654
 3041POPC   NC340211  17.917   3.807   9.497
 3041POPC   PO440212  17.562   3.277   9.346
 3041POPC   GL140213  17.438   3.560   9.075
 3041POPC   GL240214  17.640   3.862   9.073
 3041POPC   C1A40215  17.377   3.361   8.708
 3041POPC   D2A40216  17.583   3.227   8.386
 3041POPC   C3A40217  17.402   3.469   8.113
 3041POPC   C4A40218  17.254   3.685   7.793
 3041POPC   C1B40219  17.548   3.819   8.623
 3041POPC   C2B40220  17.839   3.656   8.326
 3041POPC   C3B40221  17.749   3.812   7.929
 3041POPC   C4B40222  17.427   4.140   7.857
 3042POPC   NC340223  26.250  23.616   9.627
 3042POPC   PO440224  25.678  23.783   9.812
 3042POPC   GL140225  25.873  23.738   9.305
 3042POPC   GL240226  26.153  23.481   9.152
 3042POPC   C1A40227  25.925  23.795   8.835
 3042POPC   D2A40228  26.201  23.741   8.458
 3042POPC   C3A40229  26.021  23.865   8.060
 3042POPC   C4A40230  25.886  24.096   7.649
 3042POPC   C1B40231  26.379  23.360   8.757
 3042POPC   C2B40232  26.342  23.251   8.313
 3042POPC   C3B40233  26.415  23.501   7.960
 3042POPC   C4B40234  26.189  23.674   7.622
 3043POPC   NC340235  41.047  31.619   9.369
 3043POPC   PO440236  40.787  31.482   9.922
 3043POPC   GL140237  40.687  31.282   9.371
 3043POPC   GL240238  40.657  31.552   9.066
 3043POPC   C1A40239  40.838  31.155   8.864
 3043POPC   D2A40240  40.731  31.391   8.422
 3043POPC   C3A40241  40.541  31.315   7.989
 3043POPC   C4A40242  40.762  31.417   7.574
 3043POPC   C1B40243  40.966  31.700   8.747
 3043POPC   C2B40244  40.983  31.912   8.374
 3043POPC   C3B40245  40.919  31.728   7.952
 3043POPC   C4B40246  41.064  31.815   7.498
 3044POPC   NC340247  19.582  36.637   9.272
 3044POPC   PO440248  18.922  36.962   9.302
 3044POPC   GL140249  19.217  36.893   9.021
 3044POPC   GL240250  19.529  37.098   9.035
 3044POPC   C1A40251  19.152  36.590   8.684
 3044POPC   D2A40252  18.807  36.592   8.382
 3044POPC   C3A40253  18.826  36.756   7.987
 3044POPC   C4A40254  18.669  37.085   7.782
 3044POPC   C1B40255  19.503  36.976   8.622
 3044POPC   C2B40256  19.128  37.025   8.406
 3044POPC   C3B40257  19.264  37.020   8.024
 3044POPC   C4B40258  19.550  36.788   7.795
 3045POPC   NC340259  43.145   6.208   9.702
 3045POPC   PO440260  42.962   5.611   9.645
 3045POPC   GL140261  43.108   5.792   9.227
 3045POPC   GL240262  43.268   6.152   9.154
 3045POPC   C1A40263  42.942   5.797   8.787
 3045POPC   D2A40264  43.068   6.067   8.411
 3045POPC   C3A40265  42.851   5.954   8.057
 3045POPC   C4A40266  42.909   5.901   7.649
 3045POPC   C1B40267  43.421   5.963   8.777
 3045POPC   C2B40268  43.306   5.628   8.467
 3045POPC   C3B40269  43.309   5.699   8.064
 3045POPC   C4B40270  43.344   5.570   7.671
 3046POPC   NC340271  19.445  30.973   9.742
 3046POPC   PO440272  18.936  30.551   9.545
 3046POPC   GL140273  18.900  30.547   9.111
 3046POPC   GL240274  18.772  30.895   9.124
 3046POPC   C1A40275  19.210  30.399   8.779
 3046POPC   D2A40276  19.298  30.221   8.345
 3046POPC   C3A40277  19.377  30.530   8.038
 3046POPC   C4A40278  19.365  30.851   7.731
 3046POPC   C1B40279  19.006  30.942   8.767
 3046POPC   C2B40280  19.027  30.699   8.401
 3046POPC   C3B40281  18.953  30.836   8.023
 3046POPC   C4B40282  18.982  31.181   7.784
 3047POPC   NC340283  16.962   1.192   9.630
 3047POPC   PO440284  16.327   1.451   9.483
 3047POPC   GL140285  16.722   1.407   9.216
 3047POPC   GL240286  17.010   1.112   9.134
 3047POPC   C1A40287  16.651   1.287   8.819
 3047POPC   D2A40288  16.837   1.146   8.488
 3047POPC   C3A40289  16.671   1.424   8.181
 3047POPC   C4A40290  16.415   1.520   7.830
 3047POPC   C1B40291  17.131   1.460   8.833
 3047POPC   C2B40292  17.181   1.530   8.381
 3047POPC   C3B40293  17.110   1.231   8.061
 3047POPC   C4B40294  16.756   1.091   7.778
 3048POPC   NC340295  30.214   6.319   9.436
 3048POPC   PO440296  29.555   6.360   9.572
 3048POPC   GL140297  29.770   6.469   9.176
 3048POPC   GL240298  29.781   6.155   9.001
 3048POPC   C1A40299  29.877   6.709   8.770
 3048POPC   D2A40300  30.090   6.681   8.339
 3048POPC   C3A40301  29.935   6.598   7.898
 3048POPC   C4A40302  30.061   6.554   7.414
 3048POPC   C1B40303  29.476   6.402   8.736
 3048POPC   C2B40304  29.528   6.533   8.308
 3048POPC   C3B40305  29.499   6.214   7.993
 3048POPC   C4B40306  29.704   6.247   7.600
 3049POPC   NC340307  18.197  18.033   9.456
 3049POPC   PO440308  18.383  18.733   9.444
 3049POPC   GL140309  18.400  18.383   9.162
 3049POPC   GL240310  18.651  18.439   8.921
 3049POPC   C1A40311  18.246  18.117   8.823
 3049POPC   D2A40312  18.471  18.114   8.473
 3049POPC   C3A40313  18.244  18.135   8.109
 3049POPC   C4A40314  18.214  17.959   7.726
 3049POPC   C1B40315  18.317  18.581   8.608
 3049POPC   C2B40316  18.209  18.694   8.200
 3049POPC   C3B40317  18.265  18.540   7.809
 3049POPC   C4B40318  18.578  18.307   7.623
 3050POPC   NC340319  17.866   6.655   9.405
 3050POPC   PO440320  18.455   6.643   9.784
 3050POPC   GL140321  18.350   6.668   9.245
 3050POPC   GL240322  18.339   6.414   8.918
 3050POPC   C1A40323  18.370   6.907   8.835
 3050POPC   D2A40324  18.326   6.695   8.422
 3050POPC   C3A40325  18.062   6.913   8.115
 3050POPC   C4A40326  18.012   6.843   7.689
 3050POPC   C1B40327  18.758   6.601   8.701
 3050POPC   C2B40328  18.829   6.774   8.257
 3050POPC   C3B40329  18.499   6.696   7.922
 3050POPC   C4B40330  18.394   6.453   7.501
 3051POPC   NC340331   3.104  17.651   9.536
 3051POPC   PO440332   3.410  17.123   9.247
 3051POPC   GL140333   3.350  17.512   9.050
 3051POPC   GL240334   3.682  17.543   9.009
 3051POPC   C1A40335   3.417  17.525   8.572
 3051POPC   D2A40336   3.544  17.247   8.235
 3051POPC   C3A40337   3.300  17.330   7.886
 3051POPC   C4A40338   3.449  17.624   7.616
 3051POPC   C1B40339   3.790  17.204   8.736
 3051POPC   C2B40340   4.053  17.220   8.424
 3051POPC   C3B40341   3.973  17.575   8.202
 3051POPC   C4B40342   3.850  17.394   7.822
 3052POPC   NC340343  43.441  42.530   9.199
 3052POPC   PO440344  42.847  42.431   9.526
 3052POPC   GL140345  42.973  42.334   9.147
 3052POPC   GL240346  42.967  41.981   9.182
 3052POPC   C1A40347  43.020  42.518   8.721
 3052POPC   D2A40348  42.812  42.505   8.327
 3052POPC   C3A40349  43.069  42.550   7.962
 3052POPC   C4A40350  42.847  42.486   7.586
 3052POPC   C1B40351  43.187  42.029   8.770
 3052POPC   C2B40352  43.230  42.219   8.337
 3052POPC   C3B40353  43.128  42.053   7.899
 3052POPC   C4B40354  43.135  42.095   7.430
 3053POPC   NC340355  12.360  18.349   9.675
 3053POPC   PO440356  13.030  18.205   9.572
 3053POPC   GL140357  13.065  18.049   9.153
 3053POPC   GL240358  12.798  18.203   8.897
 3053POPC   C1A40359  13.130  17.897   8.732
 3053POPC   D2A40360  12.951  18.161   8.417
 3053POPC   C3A40361  13.097  18.145   8.022
 3053POPC   C4A40362  12.938  18.363   7.671
 3053POPC   C1B40363  12.438  18.395   8.695
 3053POPC   C2B40364  12.416  18.584   8.321
 3053POPC   C3B40365  12.397  18.404   7.931
 3053POPC   C4B40366  12.492  18.558   7.555
 3054POPC   NC340367  23.657   1.643   9.524
 3054POPC   PO440368  24.049   1.109   9.407
 3054POPC   GL140369  23.739   1.164   9.084
 3054POPC   GL240370  23.480   1.448   9.096
 3054POPC   C1A40371  23.826   0.998   8.681
 3054POPC   D2A40372  23.821   1.101   8.248
 3054POPC   C3A40373  23.712   0.751   7.965
 3054POPC   C4A40374  23.597   0.820   7.520
 3054POPC   C1B40375  23.395   1.318   8.674
 3054POPC   C2B40376  23.467   1.477   8.246
 3054POPC   C3B40377  23.473   1.220   7.869
 3054POPC   C4B40378  23.612   1.341   7.476
 3055POPC   NC340379  11.432  14.062   9.416
 3055POPC   PO440380  10.958  14.586   9.579
 3055POPC   GL140381  11.137  14.734   9.174
 3055POPC   GL240382  11.223  14.394   9.122
 3055POPC   C1A40383  11.339  14.656   8.734
 3055POPC   D2A40384  11.652  14.582   8.416
 3055POPC   C3A40385  11.405  14.616   8.066
 3055POPC   C4A40386  11.322  14.750   7.668
 3055POPC   C1B40387  11.537  14.174   8.812
 3055POPC   C2B40388  11.724  14.066   8.448
 3055POPC   C3B40389  11.605  14.165   8.083
 3055POPC   C4B40390  11.371  14.212   7.693
 3056POPC   NC340391  22.875  27.224   9.554
 3056POPC   PO440392  22.787  26.624   9.820
 3056POPC   GL140393  22.926  26.651   9.339
 3056POPC   GL240394  23.077  26.983   9.136
 3056POPC   C1A40395  22.936  26.500   8.883
 3056POPC   D2A40396  23.169  26.632   8.483
 3056POPC   C3A40397  22.977  26.606   8.062
 3056POPC   C4A40398  22.911  26.814   7.660
 3056POPC   C1B40399  23.327  27.214   8.784
 3056POPC   C2B40400  23.424  27.179   8.330
 3056POPC   C3B40401  23.297  27.042   7.892
 3056POPC   C4B40402  23.328  26.941   7.399
 3057POPC   NC340403  31.449  32.796   9.633
 3057POPC   PO440404  31.040  33.044   9.275
 3057POPC   GL140405  31.332  32.899   9.132
 3057POPC   GL240406  31.669  32.995   9.213
 3057POPC   C1A40407  31.281  32.790   8.724
 3057POPC   D2A40408  31.109  33.071   8.468
 3057POPC   C3A40409  31.272  33.079   8.074
 3057POPC   C4A40410  31.387  33.307   7.734
 3057POPC   C1B40411  31.531  33.211   8.825
 3057POPC   C2B40412  31.620  33.065   8.453
 3057POPC   C3B40413  31.785  33.134   8.074
 3057POPC   C4B40414  31.798  32.970   7.686
 3058POPC   NC340415  38.071  39.585   9.432
 3058POPC   PO440416  37.454  39.401   9.694
 3058POPC   GL140417  37.547  39.357   9.253
 3058POPC   GL240418  37.805  39.107   9.198
 3058POPC   C1A40419  37.575  39.360   8.796
 3058POPC   D2A40420  37.462  39.162   8.423
 3058POPC   C3A40421  37.440  39.312   8.023
 3058POPC   C4A40422  37.460  38.925   7.748
 3058POPC   C1B40423  37.988  39.043   8.779
 3058POPC   C2B40424  37.980  39.247   8.357
 3058POPC   C3B40425  37.904  39.131   7.904
 3058POPC   C4B40426  37.924  39.098   7.427
 3059POPC   NC340427  37.680   8.314   9.630
 3059POPC   PO440428  37.239   7.848   9.629
 3059POPC   GL140429  37.601   7.892   9.295
 3059POPC   GL240430  37.843   8.161   9.129
 3059POPC   C1A40431  37.511   7.907   8.852
 3059POPC   D2A40432  37.608   8.100   8.470
 3059POPC   C3A40433  37.551   7.957   8.071
 3059POPC   C4A40434  37.445   8.064   7.680
 3059POPC   C1B40435  37.930   8.410   8.715
 3059POPC   C2B40436  37.841   8.480   8.206
 3059POPC   C3B40437  37.817   8.445   7.716
 3059POPC   C4B40438  38.100   8.494   7.311
 3060POPC   NC340439  38.735  13.749   9.531
 3060POPC   PO440440  38.710  13.124   9.372
 3060POPC   GL140441  38.500  13.516   9.118
 3060POPC   GL240442  38.623  13.900   9.077
 3060POPC   C1A40443  38.468  13.656   8.658
 3060POPC   D2A40444  38.367  13.743   8.208
 3060POPC   C3A40445  38.453  13.444   7.858
 3060POPC   C4A40446  38.316  13.274   7.434
 3060POPC   C1B40447  38.608  14.156   8.688
 3060POPC   C2B40448  38.382  14.262   8.297
 3060POPC   C3B40449  38.098  14.092   7.955
 3060POPC   C4B40450  38.272  13.885   7.628
 3061POPC   NC340451  40.261  43.025   9.515
 3061POPC   PO440452  39.685  42.850   9.728
 3061POPC   GL140453  39.809  43.029   9.258
 3061POPC   GL240454  40.074  42.908   9.061
 3061POPC   C1A40455  39.665  43.252   8.878
 3061POPC   D2A40456  39.841  43.258   8.454
 3061POPC   C3A40457  39.749  42.998   8.137
 3061POPC   C4A40458  39.751  43.141   7.708
 3061POPC   C1B40459  40.194  43.238   8.811
 3061POPC   C2B40460  40.356  43.175   8.424
 3061POPC   C3B40461  40.322  43.121   7.989
 3061POPC   C4B40462  40.380  43.504   7.765
 3062POPC   NC340463   9.253  36.218   9.490
 3062POPC   PO440464   9.936  36.322   9.453
 3062POPC   GL140465   9.814  36.027   9.177
 3062POPC   GL240466   9.554  36.208   9.099
 3062POPC   C1A40467   9.821  35.987   8.730
 3062POPC   D2A40468   9.916  35.807   8.355
 3062POPC   C3A40469   9.788  36.022   8.018
 3062POPC   C4A40470   9.710  36.003   7.579
 3062POPC   C1B40471   9.403  36.317   8.736
 3062POPC   C2B40472   9.429  36.199   8.331
 3062POPC   C3B40473   9.378  36.409   7.954
 3062POPC   C4B40474   9.173  36.277   7.580
 3063POPC   NC340475  23.586  12.030   9.537
 3063POPC   PO440476  24.070  11.649   9.198
 3063POPC   GL140477  23.867  12.026   9.112
 3063POPC   GL240478  23.892  12.352   9.302
 3063POPC   C1A40479  23.696  11.996   8.706
 3063POPC   D2A40480  23.900  11.729   8.431
 3063POPC   C3A40481  23.740  11.851   8.073
 3063POPC   C4A40482  23.382  11.892   7.790
 3063POPC   C1B40483  23.721  12.468   8.899
 3063POPC   C2B40484  23.683  12.469   8.448
 3063POPC   C3B40485  23.732  12.350   7.987
 3063POPC   C4B40486  23.928  12.074   7.665
 3064POPC   NC340487  39.282   2.677   9.973
 3064POPC   PO440488  38.800   2.717   9.433
 3064POPC   GL140489  38.988   2.490   9.087
 3064POPC   GL240490  39.371   2.537   9.062
 3064POPC   C1A40491  38.943   2.560   8.647
 3064POPC   D2A40492  39.037   2.424   8.221
 3064POPC   C3A40493  39.016   2.718   7.923
 3064POPC   C4A40494  39.027   3.146   7.784
 3064POPC   C1B40495  39.458   2.929   8.830
 3064POPC   C2B40496  39.385   3.100   8.392
 3064POPC   C3B40497  39.488   2.952   7.973
 3064POPC   C4B40498  39.376   2.818   7.554
 3065POPC   NC340499  10.288  29.626   9.876
 3065POPC   PO440500  10.648  29.088   9.615
 3065POPC   GL140501  10.667  29.092   9.161
 3065POPC   GL240502  10.365  28.914   9.119
 3065POPC   C1A40503  10.504  29.278   8.759
 3065POPC   D2A40504  10.151  29.487   8.505
 3065POPC   C3A40505  10.078  29.310   8.069
 3065POPC   C4A40506  10.390  29.142   7.768
 3065POPC   C1B40507  10.674  28.738   8.818
 3065POPC   C2B40508  10.902  28.909   8.492
 3065POPC   C3B40509  10.747  28.882   8.076
 3065POPC   C4B40510  10.787  28.862   7.618
 3066POPC   NC340511  28.946  42.138   9.421
 3066POPC   PO440512  29.280  42.740   9.358
 3066POPC   GL140513  29.170  42.442   9.041
 3066POPC   GL240514  29.393  42.173   9.114
 3066POPC   C1A40515  29.113  42.338   8.589
 3066POPC   D2A40516  28.782  42.238   8.281
 3066POPC   C3A40517  28.866  42.393   7.888
 3066POPC   C4A40518  29.220  42.639   7.817
 3066POPC   C1B40519  29.403  41.939   8.741
 3066POPC   C2B40520  29.550  42.059   8.336
 3066POPC   C3B40521  29.323  42.132   7.965
 3066POPC   C4B40522  29.251  41.961   7.559
 3067POPC   NC340523  40.573  25.856   9.547
 3067POPC   PO440524  41.090  26.273   9.495
 3067POPC   GL140525  41.007  25.959   9.159
 3067POPC   GL240526  40.663  25.824   9.046
 3067POPC   C1A40527  41.052  25.974   8.731
 3067POPC   D2A40528  40.803  26.085   8.398
 3067POPC   C3A40529  40.940  25.775   8.147
 3067POPC   C4A40530  41.187  25.971   7.870
 3067POPC   C1B40531  40.423  25.811   8.653
 3067POPC   C2B40532  40.274  26.174   8.398
 3067POPC   C3B40533  40.449  26.268   8.018
 3067POPC   C4B40534  40.633  25.955   7.789
 3068POPC   NC340535   7.540  28.353   9.735
 3068POPC   PO440536   7.148  28.734   9.507
 3068POPC   GL140537   7.304  28.364   9.229
 3068POPC   GL240538   7.183  28.010   9.136
 3068POPC   C1A40539   7.404  28.408   8.770
 3068POPC   D2A40540   7.644  28.572   8.390
 3068POPC   C3A40541   7.488  28.304   8.028
 3068POPC   C4A40542   7.690  28.267   7.650
 3068POPC   C1B40543   6.988  28.109   8.796
 3068POPC   C2B40544   7.185  28.008   8.435
 3068POPC   C3B40545   6.993  27.984   8.061
 3068POPC   C4B40546   6.996  28.084   7.675
 3069POPC   NC340547  12.294  10.328   9.447
 3069POPC   PO440548  12.952  10.535   9.613
 3069POPC   GL140549  12.880  10.556   9.226
 3069POPC   GL240550  13.133  10.333   9.088
 3069POPC   C1A40551  12.868  10.709   8.835
 3069POPC   D2A40552  12.780  10.681   8.425
 3069POPC   C3A40553  13.091  10.687   8.166
 3069POPC   C4A40554  13.153  10.801   7.770
 3069POPC   C1B40555  12.876  10.206   8.693
 3069POPC   C2B40556  12.534  10.260   8.366
 3069POPC   C3B40557  12.741  10.353   8.001
 3069POPC   C4B40558  13.211  10.286   7.876
 3070POPC   NC340559  32.502  33.314   9.559
 3070POPC   PO440560  31.909  32.958   9.772
 3070POPC   GL140561  32.143  32.800   9.379
 3070POPC   GL240562  32.370  33.010   9.171
 3070POPC   C1A40563  32.088  32.690   8.910
 3070POPC   D2A40564  32.110  32.951   8.527
 3070POPC   C3A40565  32.132  32.735   8.130
 3070POPC   C4A40566  32.377  32.667   7.748
 3070POPC   C1B40567  32.499  33.238   8.784
 3070POPC   C2B40568  32.414  33.399   8.363
 3070POPC   C3B40569  32.483  33.242   7.927
 3070POPC   C4B40570  32.725  33.345   7.529
 3071POPC   NC340571  12.953  42.957   9.533
 3071POPC   PO440572  13.086  43.632   9.392
 3071POPC   GL140573  12.957  43.316   9.129
 3071POPC   GL240574  12.624  43.293   9.102
 3071POPC   C1A40575  12.934  43.135   8.702
 3071POPC   D2A40576  13.129  43.043   8.298
 3071POPC   C3A40577  12.806  43.039   7.963
 3071POPC   C4A40578  12.707  42.990   7.494
 3071POPC   C1B40579  12.470  43.365   8.714
 3071POPC   C2B40580  12.575  43.369   8.292
 3071POPC   C3B40581  12.638  43.499   7.858
 3071POPC   C4B40582  12.438  43.393   7.424
 3072POPC   NC340583   2.159  42.612   9.372
 3072POPC   PO440584   1.596  42.402   9.715
 3072POPC   GL140585   1.727  42.385   9.220
 3072POPC   GL240586   2.025  42.166   9.152
 3072POPC   C1A40587   1.973  42.494   8.764
 3072POPC   D2A40588   2.168  42.503   8.339
 3072POPC   C3A40589   1.934  42.744   8.026
 3072POPC   C4A40590   1.765  42.615   7.650
 3072POPC   C1B40591   1.715  42.062   8.836
 3072POPC   C2B40592   1.798  42.122   8.432
 3072POPC   C3B40593   1.692  42.293   8.072
 3072POPC   C4B40594   1.653  42.105   7.728
 3073POPC   NC340595  23.445  41.695   9.342
 3073POPC   PO440596  24.000  41.269   9.492
 3073POPC   GL140597  23.802  41.419   9.091
 3073POPC   GL240598  24.019  41.448   8.816
 3073POPC   C1A40599  23.724  41.826   8.782
 3073POPC   D2A40600  24.060  41.981   8.555
 3073POPC   C3A40601  23.939  41.938   8.131
 3073POPC   C4A40602  23.613  41.808   7.853
 3073POPC   C1B40603  23.532  41.362   8.670
 3073POPC   C2B40604  23.318  41.491   8.296
 3073POPC   C3B40605  23.602  41.350   8.034
 3073POPC   C4B40606  24.029  41.482   7.897
 3074POPC   NC340607  38.445  23.524   9.562
 3074POPC   PO440608  38.945  24.031   9.280
 3074POPC   GL140609  38.616  24.000   8.999
 3074POPC   GL240610  38.412  23.764   9.120
 3074POPC   C1A40611  38.353  24.115   8.620
 3074POPC   D2A40612  38.295  24.204   8.162
 3074POPC   C3A40613  38.594  23.976   7.921
 3074POPC   C4A40614  38.669  23.709   7.579
 3074POPC   C1B40615  38.241  23.641   8.764
 3074POPC   C2B40616  38.223  23.454   8.354
 3074POPC   C3B40617  38.439  23.493   7.988
 3074POPC   C4B40618  38.283  23.385   7.610
 3075POPC   NC340619  20.171   7.482   9.460
 3075POPC   PO440620  20.509   7.923   9.559
 3075POPC   GL140621  20.742   7.715   9.198
 3075POPC   GL240622  20.526   7.455   9.077
 3075POPC   C1A40623  20.848   7.601   8.707
 3075POPC   D2A40624  20.609   7.429   8.311
 3075POPC   C3A40625  20.581   7.694   7.916
 3075POPC   C4A40626  20.586   7.691   7.428
 3075POPC   C1B40627  20.632   7.145   8.748
 3075POPC   C2B40628  20.839   6.972   8.392
 3075POPC   C3B40629  20.873   6.996   7.970
 3075POPC   C4B40630  20.668   7.257   7.679
 3076POPC   NC340631   4.649  26.436   9.346
 3076POPC   PO440632   4.245  26.930   9.597
 3076POPC   GL140633   4.207  26.809   9.149
 3076POPC   GL240634   4.033  26.520   9.068
 3076POPC   C1A40635   4.296  26.971   8.721
 3076POPC   D2A40636   4.542  26.938   8.313
 3076POPC   C3A40637   4.363  26.978   7.898
 3076POPC   C4A40638   4.467  26.916   7.463
 3076POPC   C1B40639   4.228  26.449   8.706
 3076POPC   C2B40640   4.298  26.271   8.319
 3076POPC   C3B40641   4.394  26.493   7.987
 3076POPC   C4B40642   4.751  26.466   7.770
 3077POPC   NC340643   5.540  39.883   9.699
 3077POPC   PO440644   4.972  40.238   9.499
 3077POPC   GL140645   5.063  40.059   9.126
 3077POPC   GL240646   5.119  39.737   9.249
 3077POPC   C1A40647   4.846  39.805   8.796
 3077POPC   D2A40648   4.943  39.682   8.348
 3077POPC   C3A40649   4.954  39.952   7.958
 3077POPC   C4A40650   5.137  40.319   7.763
 3077POPC   C1B40651   5.321  39.660   8.815
 3077POPC   C2B40652   5.466  39.670   8.386
 3077POPC   C3B40653   5.479  39.970   8.019
 3077POPC   C4B40654   5.384  39.902   7.564
 3078POPC   NC340655  33.170   2.758   9.454
 3078POPC   PO440656  32.522   2.946   9.433
 3078POPC   GL140657  32.782   2.821   9.116
 3078POPC   GL240658  33.017   3.070   9.070
 3078POPC   C1A40659  32.999   2.580   8.800
 3078POPC   D2A40660  32.734   2.588   8.413
 3078POPC   C3A40661  32.915   2.532   8.008
 3078POPC   C4A40662  33.349   2.630   7.882
 3078POPC   C1B40663  32.955   3.050   8.634
 3078POPC   C2B40664  33.162   2.898   8.288
 3078POPC   C3B40665  33.081   3.072   7.903
 3078POPC   C4B40666  33.169   3.269   7.500
 3079POPC   NC340667  37.727  30.578   9.605
 3079POPC   PO440668  37.911  31.171   9.709
 3079POPC   GL140669  37.747  31.004   9.254
 3079POPC   GL240670  37.708  30.618   9.107
 3079POPC   C1A40671  37.625  30.995   8.791
 3079POPC   D2A40672  37.502  30.657   8.481
 3079POPC   C3A40673  37.354  30.826   8.086
 3079POPC   C4A40674  37.534  30.994   7.725
 3079POPC   C1B40675  38.015  30.310   8.896
 3079POPC   C2B40676  38.164  30.153   8.486
 3079POPC   C3B40677  37.984  30.223   8.074
 3079POPC   C4B40678  37.590  30.393   7.867
 3080POPC   NC340679   8.189  18.530   9.235
 3080POPC   PO440680   8.633  18.118   9.568
 3080POPC   GL140681   8.307  18.013   9.199
 3080POPC   GL240682   7.918  18.117   9.167
 3080POPC   C1A40683   8.323  18.124   8.744
 3080POPC   D2A40684   8.513  18.177   8.344
 3080POPC   C3A40685   8.218  18.315   8.056
 3080POPC   C4A40686   8.117  18.440   7.666
 3080POPC   C1B40687   7.771  18.037   8.775
 3080POPC   C2B40688   7.953  18.026   8.356
 3080POPC   C3B40689   7.760  18.110   7.913
 3080POPC   C4B40690   7.773  18.140   7.437
 3081POPC   NC340691   6.344  32.197   9.331
 3081POPC   PO440692   5.743  32.182   9.719
 3081POPC   GL140693   5.893  32.418   9.284
 3081POPC   GL240694   5.980  32.182   8.999
 3081POPC   C1A40695   5.734  32.573   8.838
 3081POPC   D2A40696   5.845  32.324   8.489
 3081POPC   C3A40697   5.809  32.443   8.060
 3081POPC   C4A40698   5.668  32.042   7.891
 3081POPC   C1B40699   6.051  31.870   8.676
 3081POPC   C2B40700   5.963  31.722   8.271
 3081POPC   C3B40701   6.152  31.874   7.888
 3081POPC   C4B40702   6.242  32.318   7.821
 3082POPC   NC340703  16.322  21.825   9.623
 3082POPC   PO440704  15.757  21.443   9.830
 3082POPC   GL140705  15.730  21.383   9.339
 3082POPC   GL240706  16.051  21.308   9.252
 3082POPC   C1A40707  15.796  21.495   8.864
 3082POPC   D2A40708  15.790  21.405   8.456
 3082POPC   C3A40709  15.945  21.517   8.080
 3082POPC   C4A40710  15.703  21.401   7.758
 3082POPC   C1B40711  16.241  21.214   8.847
 3082POPC   C2B40712  16.302  21.292   8.401
 3082POPC   C3B40713  16.317  21.156   7.963
 3082POPC   C4B40714  16.227  21.301   7.510
 3083POPC   NC340715  18.199  29.029   9.473
 3083POPC   PO440716  18.502  29.655   9.450
 3083POPC   GL140717  18.458  29.358   9.113
 3083POPC   GL240718  18.129  29.269   9.035
 3083POPC   C1A40719  18.393  29.472   8.647
 3083POPC   D2A40720  18.301  29.241   8.222
 3083POPC   C3A40721  18.616  29.154   7.876
 3083POPC   C4A40722  18.537  29.238   7.417
 3083POPC   C1B40723  17.907  29.308   8.642
 3083POPC   C2B40724  17.837  29.406   8.192
 3083POPC   C3B40725  17.837  29.529   7.737
 3083POPC   C4B40726  18.081  29.505   7.343
 3084POPC   NC340727  39.746   3.278   9.424
 3084POPC   PO440728  40.191   3.718   9.467
 3084POPC   GL140729  39.946   3.627   9.122
 3084POPC   GL240730  40.193   3.428   9.000
 3084POPC   C1A40731  39.788   3.703   8.737
 3084POPC   D2A40732  40.048   3.897   8.461
 3084POPC   C3A40733  40.127   3.721   8.083
 3084POPC   C4A40734  39.861   3.971   7.798
 3084POPC   C1B40735  39.913   3.187   8.754
 3084POPC   C2B40736  39.844   3.321   8.352
 3084POPC   C3B40737  39.817   3.354   7.924
 3084POPC   C4B40738  40.093   3.224   7.633
 3085POPC   NC340739  43.738   6.402   9.438
 3085POPC   PO440740  43.763   7.049   9.469
 3085POPC   GL140741  43.925   6.788   9.150
 3085POPC   GL240742  43.589   6.711   9.058
 3085POPC   C1A40743  44.021   6.815   8.706
 3085POPC   D2A40744  44.152   6.963   8.306
 3085POPC   C3A40745  44.084   6.696   7.962
 3085POPC   C4A40746  44.285   6.738   7.565
 3085POPC   C1B40747  43.724   6.395   8.772
 3085POPC   C2B40748  43.922   6.392   8.376
 3085POPC   C3B40749  43.734   6.318   7.992
 3085POPC   C4B40750  43.331   6.164   7.889
 3086POPC   NC340751  40.041  21.961   9.418
 3086POPC   PO440752  39.622  22.442   9.542
 3086POPC   GL140753  39.899  22.389   9.153
 3086POPC   GL240754  40.261  22.396   8.985
 3086POPC   C1A40755  39.866  22.150   8.790
 3086POPC   D2A40756  40.069  22.156   8.418
 3086POPC   C3A40757  39.845  21.956   8.109
 3086POPC   C4A40758  39.842  22.168   7.728
 3086POPC   C1B40759  40.373  21.959   8.816
 3086POPC   C2B40760  40.557  21.835   8.417
 3086POPC   C3B40761  40.348  21.907   8.017
 3086POPC   C4B40762  40.323  22.235   7.681
 3087POPC   NC340763  26.636  35.679   9.652
 3087POPC   PO440764  27.192  35.269   9.503
 3087POPC   GL140765  26.953  35.153   9.133
 3087POPC   GL240766  26.784  35.441   9.204
 3087POPC   C1A40767  26.765  35.297   8.705
 3087POPC   D2A40768  27.057  35.441   8.374
 3087POPC   C3A40769  26.943  35.243   7.987
 3087POPC   C4A40770  26.491  35.126   7.979
 3087POPC   C1B40771  27.031  35.671   8.891
 3087POPC   C2B40772  26.736  35.792   8.561
 3087POPC   C3B40773  26.623  35.631   8.146
 3087POPC   C4B40774  26.604  35.565   7.732
 3088POPC   NC340775  19.728  33.068   9.622
 3088POPC   PO440776  19.898  33.699   9.482
 3088POPC   GL140777  19.932  33.308   9.187
 3088POPC   GL240778  19.938  32.912   9.194
 3088POPC   C1A40779  19.690  33.117   8.819
 3088POPC   D2A40780  19.471  32.908   8.487
 3088POPC   C3A40781  19.716  32.971   8.121
 3088POPC   C4A40782  19.590  33.058   7.703
 3088POPC   C1B40783  20.183  32.863   8.795
 3088POPC   C2B40784  20.187  32.787   8.320
 3088POPC   C3B40785  20.151  32.808   7.857
 3088POPC   C4B40786  20.028  32.882   7.447
 3089POPC   NC340787  19.750  19.844   9.694
 3089POPC   PO440788  20.184  19.359   9.559
 3089POPC   GL140789  20.095  19.553   9.167
 3089POPC   GL240790  19.902  19.873   9.154
 3089POPC   C1A40791  19.811  19.519   8.808
 3089POPC   D2A40792  19.552  19.743   8.496
 3089POPC   C3A40793  19.743  19.817   8.122
 3089POPC   C4A40794  20.069  19.784   7.824
 3089POPC   C1B40795  19.892  20.043   8.712
 3089POPC   C2B40796  20.165  20.056   8.304
 3089POPC   C3B40797  20.032  20.259   7.917
 3089POPC   C4B40798  19.606  20.177   7.797
 3090POPC   NC340799  21.494  40.357   9.690
 3090POPC   PO440800  21.437  40.970   9.448
 3090POPC   GL140801  21.518  40.792   9.092
 3090POPC   GL240802  21.377  40.480   9.198
 3090POPC   C1A40803  21.381  40.920   8.700
 3090POPC   D2A40804  21.155  40.762   8.355
 3090POPC   C3A40805  21.348  40.845   7.979
 3090POPC   C4A40806  21.156  40.823   7.575
 3090POPC   C1B40807  21.278  40.418   8.751
 3090POPC   C2B40808  21.575  40.490   8.391
 3090POPC   C3B40809  21.617  40.413   7.948
 3090POPC   C4B40810  21.325  40.342   7.608
 3091POPC   NC340811  42.657  10.774   9.473
 3091POPC   PO440812  43.161  10.256   9.482
 3091POPC   GL140813  43.110  10.485   9.152
 3091POPC   GL240814  43.009  10.156   8.990
 3091POPC   C1A40815  43.239  10.711   8.794
 3091POPC   D2A40816  43.014  10.787   8.416
 3091POPC   C3A40817  43.162  10.704   8.048
 3091POPC   C4A40818  42.900  10.818   7.705
 3091POPC   C1B40819  43.441  10.214   8.840
 3091POPC   C2B40820  43.472  10.394   8.431
 3091POPC   C3B40821  43.613  10.350   8.001
 3091POPC   C4B40822  43.354  10.481   7.648
 3092POPC   NC340823  35.353  27.861   9.501
 3092POPC   PO440824  35.493  27.227   9.531
 3092POPC   GL140825  35.346  27.461   9.152
 3092POPC   GL240826  35.553  27.743   9.043
 3092POPC   C1A40827  35.050  27.523   8.788
 3092POPC   D2A40828  34.961  27.314   8.396
 3092POPC   C3A40829  35.002  27.486   7.997
 3092POPC   C4A40830  35.398  27.547   7.802
 3092POPC   C1B40831  35.532  27.621   8.604
 3092POPC   C2B40832  35.570  27.838   8.199
 3092POPC   C3B40833  35.447  28.050   7.791
 3092POPC   C4B40834  35.491  27.864   7.369
 3093POPC   NC340835  20.495  13.079   9.562
 3093POPC   PO440836  21.171  12.976   9.596
 3093POPC   GL140837  20.931  13.141   9.204
 3093POPC   GL240838  20.713  12.833   9.159
 3093POPC   C1A40839  20.797  13.131   8.728
 3093POPC   D2A40840  20.738  12.838   8.342
 3093POPC   C3A40841  20.498  12.956   7.965
 3093POPC   C4A40842  20.315  13.318   7.734
 3093POPC   C1B40843  20.570  12.621   8.800
 3093POPC   C2B40844  20.761  12.346   8.519
 3093POPC   C3B40845  20.728  12.340   8.090
 3093POPC   C4B40846  20.667  12.540   7.704
 3094POPC   NC340847  40.211  14.317   9.589
 3094POPC   PO440848  39.778  14.764   9.364
 3094POPC   GL140849  39.849  14.392   9.175
 3094POPC   GL240850  40.157  14.487   9.107
 3094POPC   C1A40851  39.858  14.300   8.736
 3094POPC   D2A40852  40.091  14.455   8.391
 3094POPC   C3A40853  40.173  14.206   8.040
 3094POPC   C4A40854  40.126  14.345   7.643
 3094POPC   C1B40855  40.376  14.670   8.784
 3094POPC   C2B40856  40.538  14.728   8.361
 3094POPC   C3B40857  40.414  14.662   7.931
 3094POPC   C4B40858  40.372  14.749   7.489
 3095POPC   NC340859  13.838  20.045   9.531
 3095POPC   PO440860  13.449  19.547   9.504
 3095POPC   GL140861  13.431  19.680   9.128
 3095POPC   GL240862  13.642  19.976   9.070
 3095POPC   C1A40863  13.538  19.419   8.814
 3095POPC   D2A40864  13.780  19.386   8.473
 3095POPC   C3A40865  13.550  19.600   8.163
 3095POPC   C4A40866  13.667  19.359   7.819
 3095POPC   C1B40867  13.606  19.914   8.631
 3095POPC   C2B40868  13.481  20.152   8.289
 3095POPC   C3B40869  13.590  20.092   7.889
 3095POPC   C4B40870  14.005  20.009   7.745
 3096POPC   NC340871  39.758  35.049   9.440
 3096POPC   PO440872  40.331  35.507   9.517
 3096POPC   GL140873  40.049  35.384   9.151
 3096POPC   GL240874  39.723  35.556   9.164
 3096POPC   C1A40875  39.967  35.274   8.709
 3096POPC   D2A40876  40.157  35.351   8.279
 3096POPC   C3A40877  39.974  35.182   7.877
 3096POPC   C4A40878  40.015  34.995   7.437
 3096POPC   C1B40879  39.574  35.611   8.745
 3096POPC   C2B40880  39.640  35.437   8.326
 3096POPC   C3B40881  39.620  35.564   7.895
 3096POPC   C4B40882  39.831  35.489   7.467
 3097POPC   NC340883  25.590   0.452   9.358
 3097POPC   PO440884  25.002   0.813   9.342
 3097POPC   GL140885  25.223   0.659   9.056
 3097POPC   GL240886  25.490   0.808   9.004
 3097POPC   C1A40887  25.295   0.371   8.725
 3097POPC   D2A40888  25.029   0.310   8.371
 3097POPC   C3A40889  25.083   0.197   7.963
 3097POPC   C4A40890  25.464   0.046   7.805
 3097POPC   C1B40891  25.220   0.871   8.599
 3097POPC   C2B40892  25.345   0.655   8.232
 3097POPC   C3B40893  25.372   0.626   7.786
 3097POPC   C4B40894  25.473   0.821   7.388
 3098POPC   NC340895  40.976  19.159   9.454
 3098POPC   PO440896  40.425  18.722   9.284
 3098POPC   GL140897  40.722  18.942   9.051
 3098POPC   GL240898  41.108  18.870   9.072
 3098POPC   C1A40899  40.573  19.123   8.680
 3098POPC   D2A40900  40.760  19.322   8.353
 3098POPC   C3A40901  40.584  19.147   7.977
 3098POPC   C4A40902  40.748  19.236   7.557
 3098POPC   C1B40903  41.085  19.045   8.659
 3098POPC   C2B40904  40.819  18.823   8.331
 3098POPC   C3B40905  40.903  18.756   7.911
 3098POPC   C4B40906  40.678  18.690   7.544
 3099POPC   NC340907  21.277   8.859   9.504
 3099POPC   PO440908  21.802   9.329   9.412
 3099POPC   GL140909  21.544   9.056   9.124
 3099POPC   GL240910  21.468   8.674   9.067
 3099POPC   C1A40911  21.267   9.051   8.774
 3099POPC   D2A40912  21.439   9.207   8.409
 3099POPC   C3A40913  21.265   9.147   8.045
 3099POPC   C4A40914  21.348   9.034   7.658
 3099POPC   C1B40915  21.204   8.537   8.766
 3099POPC   C2B40916  21.182   8.731   8.365
 3099POPC   C3B40917  21.343   8.627   7.981
 3099POPC   C4B40918  21.131   8.564   7.562
 3100POPC   NC340919  25.423  12.230   9.700
 3100POPC   PO440920  24.846  11.834   9.541
 3100POPC   GL140921  25.183  12.000   9.249
 3100POPC   GL240922  25.438  12.286   9.188
 3100POPC   C1A40923  25.247  11.891   8.822
 3100POPC   D2A40924  25.046  11.783   8.425
 3100POPC   C3A40925  25.337  11.809   8.125
 3100POPC   C4A40926  25.390  11.947   7.710
 3100POPC   C1B40927  25.550  12.441   8.774
 3100POPC   C2B40928  25.583  12.227   8.371
 3100POPC   C3B40929  25.579  12.372   7.935
 3100POPC   C4B40930  25.568  12.357   7.456
 3101POPC   NC340931   2.474  19.940   9.860
 3101POPC   PO440932   2.974  19.855   9.509
 3101POPC   GL140933   2.735  19.709   9.170
 3101POPC   GL240934   2.993  19.547   8.988
 3101POPC   C1A40935   2.631  19.838   8.763
 3101POPC   D2A40936   2.542  19.625   8.418
 3101POPC   C3A40937   2.561  19.788   8.018
 3101POPC   C4A40938   2.800  19.805   7.699
 3101POPC   C1B40939   3.019  19.365   8.577
 3101POPC   C2B40940   2.917  19.388   8.126
 3101POPC   C3B40941   3.125  19.410   7.722
 3101POPC   C4B40942   3.102  19.686   7.312
 3102POPC   NC340943  42.992  30.038   9.648
 3102POPC   PO440944  43.515  30.203   9.428
 3102POPC   GL140945  43.283  29.824   9.205
 3102POPC   GL240946  42.930  29.831   9.181
 3102POPC   C1A40947  43.116  29.658   8.758
 3102POPC   D2A40948  43.238  30.040   8.515
 3102POPC   C3A40949  43.264  30.152   8.086
 3102POPC   C4A40950  43.160  30.329   7.697
 3102POPC   C1B40951  42.835  30.073   8.836
 3102POPC   C2B40952  42.702  30.065   8.412
 3102POPC   C3B40953  42.760  30.250   8.008
 3102POPC   C4B40954  42.908  29.888   7.762
 3103POPC   NC340955  29.918  27.161   9.711
 3103POPC   PO440956  29.751  26.511   9.786
 3103POPC   GL140957  29.907  26.694   9.329
 3103POPC   GL240958  29.987  27.037   9.210
 3103POPC   C1A40959  30.106  26.648   8.889
 3103POPC   D2A40960  29.864  26.658   8.489
 3103POPC   C3A40961  29.949  26.672   8.046
 3103POPC   C4A40962  29.875  26.505   7.610
 3103POPC   C1B40963  29.810  27.079   8.784
 3103POPC   C2B40964  29.884  27.152   8.321
 3103POPC   C3B40965  29.761  27.139   7.874
 3103POPC   C4B40966  29.899  27.309   7.492
 3104POPC   NC340967  22.934  18.809   9.397
 3104POPC   PO440968  23.310  19.265   9.352
 3104POPC   GL140969  23.207  19.208   8.914
 3104POPC   GL240970  23.078  18.899   8.927
 3104POPC   C1A40971  23.065  19.161   8.468
 3104POPC   D2A40972  22.631  19.246   8.338
 3104POPC   C3A40973  22.637  19.125   7.942
 3104POPC   C4A40974  23.085  19.032   7.929
 3104POPC   C1B40975  22.718  18.860   8.696
 3104POPC   C2B40976  22.705  18.721   8.279
 3104POPC   C3B40977  22.753  18.641   7.839
 3104POPC   C4B40978  22.513  18.787   7.450
 3105POPC   NC340979  29.178  31.858   9.635
 3105POPC   PO440980  29.284  32.507   9.474
 3105POPC   GL140981  29.059  32.195   9.242
 3105POPC   GL240982  29.348  32.017   9.175
 3105POPC   C1A40983  29.045  32.148   8.788
 3105POPC   D2A40984  29.306  32.332   8.468
 3105POPC   C3A40985  29.108  32.516   8.096
 3105POPC   C4A40986  29.046  32.240   7.734
 3105POPC   C1B40987  29.574  32.060   8.805
 3105POPC   C2B40988  29.681  31.978   8.350
 3105POPC   C3B40989  29.422  31.989   7.984
 3105POPC   C4B40990  29.541  32.166   7.607
 3106POPC   NC340991   8.072   7.526   9.326
 3106POPC   PO440992   8.517   6.969   9.477
 3106POPC   GL140993   8.481   7.245   9.122
 3106POPC   GL240994   8.572   7.633   9.115
 3106POPC   C1A40995   8.316   7.385   8.728
 3106POPC   D2A40996   8.601   7.566   8.447
 3106POPC   C3A40997   8.536   7.251   8.197
 3106POPC   C4A40998   8.467   7.307   7.809
 3106POPC   C1B40999   8.339   7.890   8.795
 3106POPC   C2B41000   8.112   7.767   8.427
 3106POPC   C3B41001   8.040   7.528   8.058
 3106POPC   C4B41002   8.310   7.799   7.859
 3107POPC   NC341003   9.940  12.946   9.605
 3107POPC   PO441004   9.333  12.804   9.857
 3107POPC   GL141005   9.551  12.776   9.351
 3107POPC   GL241006   9.551  13.060   9.152
 3107POPC   C1A41007   9.776  12.665   8.919
 3107POPC   D2A41008   9.641  12.627   8.458
 3107POPC   C3A41009   9.850  12.807   8.089
 3107POPC   C4A41010   9.838  12.666   7.658
 3107POPC   C1B41011   9.459  13.028   8.743
 3107POPC   C2B41012   9.587  13.149   8.347
 3107POPC   C3B41013   9.514  13.154   7.908
 3107POPC   C4B41014   9.440  13.222   7.421
 3108POPC   NC341015  31.274  15.099   9.565
 3108POPC   PO441016  31.070  15.616   9.276
 3108POPC   GL141017  31.456  15.303   9.128
 3108POPC   GL241018  31.460  14.900   9.117
 3108POPC   C1A41019  31.631  15.230   8.729
 3108POPC   D2A41020  31.470  15.164   8.299
 3108POPC   C3A41021  31.655  15.404   7.929
 3108POPC   C4A41022  31.412  15.514   7.531
 3108POPC   C1B41023  31.282  14.826   8.730
 3108POPC   C2B41024  30.982  14.881   8.422
 3108POPC   C3B41025  31.134  14.846   8.026
 3108POPC   C4B41026  31.514  14.938   7.815
 3109POPC   NC341027  42.508   0.286   9.554
 3109POPC   PO441028  43.167   0.350   9.565
 3109POPC   GL141029  43.243   0.452   9.152
 3109POPC   GL241030  43.488   0.188   9.071
 3109POPC   C1A41031  43.138   0.411   8.734
 3109POPC   D2A41032  42.969   0.599   8.390
 3109POPC   C3A41033  43.039   0.454   8.012
 3109POPC   C4A41034  43.217   0.718   7.739
 3109POPC   C1B41035  43.632   0.393   8.711
 3109POPC   C2B41036  43.477   0.375   8.296
 3109POPC   C3B41037  43.490   0.307   7.849
 3109POPC   C4B41038  43.280   0.050   7.470
 3110POPC   NC341039  39.639  16.263   9.403
 3110POPC   PO441040  39.899  16.846   9.607
 3110POPC   GL141041  39.980  16.665   9.242
 3110POPC   GL241042  39.675  16.697   9.142
 3110POPC   C1A41043  40.171  16.739   8.862
 3110POPC   D2A41044  40.050  16.978   8.508
 3110POPC   C3A41045  39.990  16.828   8.130
 3110POPC   C4A41046  40.176  17.039   7.824
 3110POPC   C1B41047  39.700  16.593   8.737
 3110POPC   C2B41048  39.979  16.408   8.438
 3110POPC   C3B41049  39.797  16.352   8.050
 3110POPC   C4B41050  39.882  16.550   7.679
 3111POPC   NC341051  37.494  16.401   9.453
 3111POPC   PO441052  37.630  15.703   9.567
 3111POPC   GL141053  37.520  15.872   9.187
 3111POPC   GL241054  37.719  15.696   9.014
 3111POPC   C1A41055  37.340  15.773   8.726
 3111POPC   D2A41056  37.383  15.906   8.314
 3111POPC   C3A41057  37.486  15.733   7.944
 3111POPC   C4A41058  37.838  15.881   7.685
 3111POPC   C1B41059  38.020  15.741   8.684
 3111POPC   C2B41060  37.988  15.748   8.242
 3111POPC   C3B41061  38.233  15.615   7.918
 3111POPC   C4B41062  38.232  15.658   7.449
 3112POPC   NC341063  40.743  34.256   9.566
 3112POPC   PO441064  40.685  33.511   9.644
 3112POPC   GL141065  40.828  33.747   9.308
 3112POPC   GL241066  40.808  33.453   9.157
 3112POPC   C1A41067  40.980  33.902   8.901
 3112POPC   D2A41068  40.849  34.156   8.576
 3112POPC   C3A41069  40.999  34.048   8.183
 3112POPC   C4A41070  40.915  34.049   7.761
 3112POPC   C1B41071  40.928  33.378   8.806
 3112POPC   C2B41072  40.882  33.609   8.454
 3112POPC   C3B41073  40.904  33.504   8.033
 3112POPC   C4B41074  40.717  33.603   7.626
 3113POPC   NC341075  31.009   1.196   9.422
 3113POPC   PO441076  31.713   1.264   9.549
 3113POPC   GL141077  31.558   1.424   9.165
 3113POPC   GL241078  31.276   1.274   9.001
 3113POPC   C1A41079  31.674   1.445   8.722
 3113POPC   D2A41080  31.656   1.241   8.304
 3113POPC   C3A41081  31.600   1.435   7.907
 3113POPC   C4A41082  31.504   1.238   7.526
 3113POPC   C1B41083  31.182   1.514   8.639
 3113POPC   C2B41084  31.240   1.517   8.244
 3113POPC   C3B41085  31.140   1.207   7.936
 3113POPC   C4B41086  30.899   1.302   7.606
 3114POPC   NC341087  36.348  27.922   9.609
 3114POPC   PO441088  36.421  27.292   9.626
 3114POPC   GL141089  36.258  27.249   9.200
 3114POPC   GL241090  36.026  27.522   9.247
 3114POPC   C1A41091  36.024  27.232   8.779
 3114POPC   D2A41092  35.726  27.167   8.404
 3114POPC   C3A41093  35.838  27.264   7.953
 3114POPC   C4A41094  36.203  27.362   7.682
 3114POPC   C1B41095  36.200  27.711   8.871
 3114POPC   C2B41096  36.049  27.663   8.474
 3114POPC   C3B41097  36.051  27.734   8.081
 3114POPC   C4B41098  35.863  27.771   7.717
 3115POPC   NC341099  15.596  29.533   9.360
 3115POPC   PO441100  16.062  29.044   9.513
 3115POPC   GL141101  15.862  29.082   9.139
 3115POPC   GL241102  15.991  29.431   9.048
 3115POPC   C1A41103  16.067  29.016   8.747
 3115POPC   D2A41104  16.098  29.261   8.388
 3115POPC   C3A41105  16.043  29.052   7.996
 3115POPC   C4A41106  15.789  28.750   7.822
 3115POPC   C1B41107  15.699  29.386   8.686
 3115POPC   C2B41108  15.608  29.187   8.273
 3115POPC   C3B41109  15.626  29.290   7.808
 3115POPC   C4B41110  15.499  29.425   7.337
 3116POPC   NC341111  34.401  16.967   9.374
 3116POPC   PO441112  34.893  16.564   9.451
 3116POPC   GL141113  34.726  16.688   9.081
 3116POPC   GL241114  34.401  16.550   9.060
 3116POPC   C1A41115  34.744  16.863   8.678
 3116POPC   D2A41116  35.053  16.837   8.369
 3116POPC   C3A41117  34.975  16.827   7.945
 3116POPC   C4A41118  34.545  16.744   7.810
 3116POPC   C1B41119  34.240  16.828   8.732
 3116POPC   C2B41120  34.310  16.871   8.292
 3116POPC   C3B41121  34.060  16.918   7.931
 3116POPC   C4B41122  34.213  16.980   7.502
 3117POPC   NC341123  15.383  31.209   9.463
 3117POPC   PO441124  14.752  31.490   9.531
 3117POPC   GL141125  14.963  31.297   9.169
 3117POPC   GL241126  15.239  31.573   9.138
 3117POPC   C1A41127  15.227  31.218   8.772
 3117POPC   D2A41128  15.371  31.415   8.367
 3117POPC   C3A41129  15.294  31.400   7.926
 3117POPC   C4A41130  14.956  31.449   7.641
 3117POPC   C1B41131  14.944  31.672   8.841
 3117POPC   C2B41132  14.832  31.611   8.429
 3117POPC   C3B41133  14.990  31.786   8.055
 3117POPC   C4B41134  15.080  31.956   7.638
 3118POPC   NC341135   2.733  15.544   9.578
 3118POPC   PO441136   2.138  15.430   9.654
 3118POPC   GL141137   2.438  15.325   9.238
 3118POPC   GL241138   2.837  15.200   9.194
 3118POPC   C1A41139   2.532  15.246   8.793
 3118POPC   D2A41140   2.751  15.195   8.380
 3118POPC   C3A41141   2.590  15.170   7.998
 3118POPC   C4A41142   2.690  14.974   7.632
 3118POPC   C1B41143   3.037  15.090   8.769
 3118POPC   C2B41144   3.118  14.840   8.367
 3118POPC   C3B41145   3.091  15.021   7.951
 3118POPC   C4B41146   3.175  15.136   7.509
 3119POPC   NC341147  27.274   6.950   9.534
 3119POPC   PO441148  26.799   6.420   9.445
 3119POPC   GL141149  26.762   6.639   9.077
 3119POPC   GL241150  26.898   6.952   9.201
 3119POPC   C1A41151  26.737   6.519   8.644
 3119POPC   D2A41152  26.846   6.640   8.236
 3119POPC   C3A41153  26.826   6.476   7.844
 3119POPC   C4A41154  26.509   6.408   7.473
 3119POPC   C1B41155  27.102   6.951   8.782
 3119POPC   C2B41156  27.082   7.081   8.326
 3119POPC   C3B41157  27.070   6.957   7.860
 3119POPC   C4B41158  27.208   7.110   7.442
 3120POPC   NC341159   3.125  12.467   9.829
 3120POPC   PO441160   3.581  12.810   9.622
 3120POPC   GL141161   3.572  12.945   9.195
 3120POPC   GL241162   3.708  12.649   9.059
 3120POPC   C1A41163   3.575  13.120   8.765
 3120POPC   D2A41164   3.607  12.982   8.333
 3120POPC   C3A41165   3.362  13.046   7.980
 3120POPC   C4A41166   3.575  13.067   7.605
 3120POPC   C1B41167   3.930  12.763   8.682
 3120POPC   C2B41168   4.046  12.742   8.260
 3120POPC   C3B41169   3.745  12.691   7.912
 3120POPC   C4B41170   3.325  12.566   7.766
 3121POPC   NC341171   1.100   7.635   9.464
 3121POPC   PO441172   0.972   7.025   9.464
 3121POPC   GL141173   1.164   7.241   9.105
 3121POPC   GL241174   1.295   7.567   9.012
 3121POPC   C1A41175   1.398   7.093   8.759
 3121POPC   D2A41176   1.498   7.182   8.346
 3121POPC   C3A41177   1.163   7.375   8.124
 3121POPC   C4A41178   1.242   7.313   7.737
 3121POPC   C1B41179   1.225   7.552   8.604
 3121POPC   C2B41180   1.496   7.721   8.348
 3121POPC   C3B41181   1.640   7.889   8.020
 3121POPC   C4B41182   1.437   7.757   7.678
 3122POPC   NC341183  27.175  44.376   5.736
 3122POPC   PO441184  26.685  43.978   5.471
 3122POPC   GL141185  26.743  43.761   5.856
 3122POPC   GL241186  26.856  44.041   5.980
 3122POPC   C1A41187  26.858  43.591   6.240
 3122POPC   D2A41188  26.813  43.752   6.640
 3122POPC   C3A41189  26.992  43.593   7.000
 3122POPC   C4A41190  27.248  43.890   7.144
 3122POPC   C1B41191  26.524  44.002   6.282
 3122POPC   C2B41192  26.535  44.164   6.699
 3122POPC   C3B41193  26.699  44.014   7.089
 3122POPC   C4B41194  26.578  44.148   7.476
 3123POPC   NC341195  41.378   8.545   5.423
 3123POPC   PO441196  41.823   8.016   5.275
 3123POPC   GL141197  41.768   8.074   5.740
 3123POPC   GL241198  41.766   8.421   5.815
 3123POPC   C1A41199  41.559   8.040   6.173
 3123POPC   D2A41200  41.647   7.890   6.613
 3123POPC   C3A41201  41.687   8.109   6.988
 3123POPC   C4A41202  41.334   8.001   7.208
 3123POPC   C1B41203  41.512   8.538   6.177
 3123POPC   C2B41204  41.477   8.372   6.598
 3123POPC   C3B41205  41.322   8.481   7.010
 3123POPC   C4B41206  41.432   8.588   7.421
 3124POPC   NC341207  15.552  32.391   5.435
 3124POPC   PO441208  15.096  31.998   5.637
 3124POPC   GL141209  15.247  32.307   5.851
 3124POPC   GL241210  14.919  32.274   6.039
 3124POPC   C1A41211  15.486  32.353   6.232
 3124POPC   D2A41212  15.391  32.199   6.664
 3124POPC   C3A41213  15.526  32.466   7.026
 3124POPC   C4A41214  15.310  32.406   7.412
 3124POPC   C1B41215  15.061  32.643   6.189
 3124POPC   C2B41216  15.217  32.687   6.616
 3124POPC   C3B41217  15.009  32.512   6.979
 3124POPC   C4B41218  14.707  32.636   7.262
 3125POPC   NC341219  13.042  19.260   5.376
 3125POPC   PO441220  12.581  19.803   5.344
 3125POPC   GL141221  12.793  19.698   5.755
 3125POPC   GL241222  12.620  19.428   5.933
 3125POPC   C1A41223  12.982  19.674   6.212
 3125POPC   D2A41224  13.110  19.685   6.678
 3125POPC   C3A41225  12.889  19.978   6.913
 3125POPC   C4A41226  12.723  20.094   7.300
 3125POPC   C1B41227  12.636  19.273   6.299
 3125POPC   C2B41228  12.615  19.573   6.589
 3125POPC   C3B41229  12.665  19.522   6.989
 3125POPC   C4B41230  12.414  19.641   7.270
 3126POPC   NC341231  31.976  37.814   5.518
 3126POPC   PO441232  32.372  37.386   5.148
 3126POPC   GL141233  32.372  37.568   5.695
 3126POPC   GL241234  32.317  37.881   5.899
 3126POPC   C1A41235  32.520  37.515   6.156
 3126POPC   D2A41236  32.235  37.747   6.452
 3126POPC   C3A41237  32.297  37.676   6.924
 3126POPC   C4A41238  32.385  37.771   7.366
 3126POPC   C1B41239  31.936  38.072   6.110
 3126POPC   C2B41240  31.697  37.970   6.486
 3126POPC   C3B41241  31.779  37.818   6.907
 3126POPC   C4B41242  32.033  38.071   7.194
 3127POPC   NC341243   3.643  26.416   5.723
 3127POPC   PO441244   3.565  25.789   5.406
 3127POPC   GL141245   3.779  25.816   5.832
 3127POPC   GL241246   3.787  26.105   6.089
 3127POPC   C1A41247   3.615  25.653   6.240
 3127POPC   D2A41248   3.423  25.782   6.607
 3127POPC   C3A41249   3.555  25.753   7.015
 3127POPC   C4A41250   3.251  25.764   7.314
 3127POPC   C1B41251   3.389  26.215   6.313
 3127POPC   C2B41252   3.317  26.253   6.758
 3127POPC   C3B41253   3.441  26.235   7.185
 3127POPC   C4B41254   3.738  26.368   7.503
 3128POPC   NC341255  19.783   3.370   5.480
 3128POPC   PO441256  20.070   3.896   5.697
 3128POPC   GL141257  20.028   3.483   5.909
 3128POPC   GL241258  19.649   3.501   5.941
 3128POPC   C1A41259  19.939   3.249   6.284
 3128POPC   D2A41260  19.798   3.565   6.537
 3128POPC   C3A41261  19.773   3.638   6.972
 3128POPC   C4A41262  19.930   3.736   7.383
 3128POPC   C1B41263  19.429   3.274   6.260
 3128POPC   C2B41264  19.530   3.153   6.673
 3128POPC   C3B41265  19.387   3.251   7.065
 3128POPC   C4B41266  19.551   3.444   7.426
 3129POPC   NC341267  28.659  19.249   5.436
 3129POPC   PO441268  28.217  18.737   5.587
 3129POPC   GL141269  28.376  19.083   5.815
 3129POPC   GL241270  28.678  18.853   5.778
 3129POPC   C1A41271  28.430  19.350   6.192
 3129POPC   D2A41272  28.162  19.377   6.575
 3129POPC   C3A41273  28.320  19.257   6.947
 3129POPC   C4A41274  28.517  19.159   7.317
 3129POPC   C1B41275  28.561  18.805   6.202
 3129POPC   C2B41276  28.570  19.022   6.559
 3129POPC   C3B41277  28.671  18.877   6.912
 3129POPC   C4B41278  28.619  18.632   7.231
 3130POPC   NC341279  34.766  36.743   5.578
 3130POPC   PO441280  34.207  36.946   5.426
 3130POPC   GL141281  34.346  37.085   5.834
 3130POPC   GL241282  34.667  37.248   5.755
 3130POPC   C1A41283  34.365  36.917   6.282
 3130POPC   D2A41284  34.301  37.157   6.672
 3130POPC   C3A41285  34.346  36.997   7.136
 3130POPC   C4A41286  34.517  36.700   7.448
 3130POPC   C1B41287  34.704  37.255   6.198
 3130POPC   C2B41288  34.812  37.073   6.623
 3130POPC   C3B41289  34.845  36.942   7.042
 3130POPC   C4B41290  34.752  37.150   7.419
 3131POPC   NC341291  10.331  27.965   5.353
 3131POPC   PO441292  10.798  27.543   5.129
 3131POPC   GL141293  10.555  27.543   5.573
 3131POPC   GL241294  10.592  27.853   5.785
 3131POPC   C1A41295  10.370  27.422   5.988
 3131POPC   D2A41296  10.260  27.436   6.470
 3131POPC   C3A41297  10.338  27.298   6.914
 3131POPC   C4A41298  10.646  27.421   7.217
 3131POPC   C1B41299  10.517  27.826   6.220
 3131POPC   C2B41300  10.648  27.729   6.613
 3131POPC   C3B41301  10.431  27.809   6.967
 3131POPC   C4B41302  10.723  27.936   7.255
 3132POPC   NC341303  20.232  29.818   5.567
 3132POPC   PO441304  19.677  30.269   5.557
 3132POPC   GL141305  19.886  30.031   5.898
 3132POPC   GL241306  19.842  29.671   5.877
 3132POPC   C1A41307  19.815  29.963   6.337
 3132POPC   D2A41308  19.450  30.063   6.576
 3132POPC   C3A41309  19.540  30.098   7.010
 3132POPC   C4A41310  19.731  29.962   7.374
 3132POPC   C1B41311  20.179  29.622   6.193
 3132POPC   C2B41312  20.235  29.778   6.606
 3132POPC   C3B41313  19.929  29.752   6.928
 3132POPC   C4B41314  19.865  29.459   7.258
 3133POPC   NC341315  25.502  10.387   5.407
 3133POPC   PO441316  25.154  10.970   5.282
 3133POPC   GL141317  24.966  10.655   5.657
 3133POPC   GL241318  24.834  10.320   5.820
 3133POPC   C1A41319  25.058  10.681   6.120
 3133POPC   D2A41320  25.037  10.969   6.503
 3133POPC   C3A41321  25.144  10.793   6.918
 3133POPC   C4A41322  25.404  10.702   7.266
 3133POPC   C1B41323  25.084  10.160   6.227
 3133POPC   C2B41324  25.282  10.211   6.675
 3133POPC   C3B41325  25.183  10.235   7.155
 3133POPC   C4B41326  25.211  10.391   7.617
 3134POPC   NC341327  39.414  32.456   5.376
 3134POPC   PO441328  38.861  32.126   5.486
 3134POPC   GL141329  39.107  32.417   5.791
 3134POPC   GL241330  39.437  32.602   5.863
 3134POPC   C1A41331  39.201  32.272   6.214
 3134POPC   D2A41332  38.960  32.243   6.601
 3134POPC   C3A41333  39.188  32.109   6.993
 3134POPC   C4A41334  39.215  32.286   7.395
 3134POPC   C1B41335  39.647  32.524   6.257
 3134POPC   C2B41336  39.479  32.396   6.653
 3134POPC   C3B41337  39.609  32.433   7.069
 3134POPC   C4B41338  39.711  32.213   7.444
 3135POPC   NC341339  40.168  21.647   5.326
 3135POPC   PO441340  40.308  22.281   5.479
 3135POPC   GL141341  40.048  22.242   5.830
 3135POPC   GL241342  39.784  22.031   5.747
 3135POPC   C1A41343  40.150  22.208   6.234
 3135POPC   D2A41344  40.364  22.311   6.594
 3135POPC   C3A41345  40.167  22.385   6.972
 3135POPC   C4A41346  40.032  22.069   7.269
 3135POPC   C1B41347  39.694  21.965   6.187
 3135POPC   C2B41348  39.571  21.886   6.613
 3135POPC   C3B41349  39.728  21.742   7.009
 3135POPC   C4B41350  39.577  21.863   7.413
 3136POPC   NC341351  30.559  38.307   5.503
 3136POPC   PO441352  30.950  38.865   5.468
 3136POPC   GL141353  30.776  38.794   5.889
 3136POPC   GL241354  30.437  38.656   5.915
 3136POPC   C1A41355  30.743  38.646   6.328
 3136POPC   D2A41356  30.568  38.384   6.683
 3136POPC   C3A41357  30.870  38.429   7.018
 3136POPC   C4A41358  30.782  38.541   7.446
 3136POPC   C1B41359  30.433  38.250   6.165
 3136POPC   C2B41360  30.321  37.948   6.485
 3136POPC   C3B41361  30.256  37.993   6.914
 3136POPC   C4B41362  30.437  38.218   7.217
 3137POPC   NC341363   2.133  25.735   5.495
 3137POPC   PO441364   2.083  25.050   5.396
 3137POPC   GL141365   1.880  25.162   5.817
 3137POPC   GL241366   1.859  25.526   5.899
 3137POPC   C1A41367   1.748  25.103   6.274
 3137POPC   D2A41368   1.564  25.206   6.701
 3137POPC   C3A41369   1.651  24.934   7.083
 3137POPC   C4A41370   1.913  24.845   7.467
 3137POPC   C1B41371   2.173  25.417   6.226
 3137POPC   C2B41372   2.075  25.256   6.656
 3137POPC   C3B41373   1.921  25.371   7.073
 3137POPC   C4B41374   2.175  25.277   7.420
 3138POPC   NC341375   5.134  38.041   5.331
 3138POPC   PO441376   4.969  38.761   5.459
 3138POPC   GL141377   5.147  38.459   5.745
 3138POPC   GL241378   4.920  38.178   5.764
 3138POPC   C1A41379   5.209  38.474   6.191
 3138POPC   D2A41380   5.071  38.695   6.564
 3138POPC   C3A41381   5.078  38.542   6.981
 3138POPC   C4A41382   4.925  38.776   7.311
 3138POPC   C1B41383   4.889  38.027   6.155
 3138POPC   C2B41384   5.034  38.157   6.543
 3138POPC   C3B41385   4.956  38.005   6.914
 3138POPC   C4B41386   5.104  38.131   7.297
 3139POPC   NC341387  27.075   1.850   5.312
 3139POPC   PO441388  26.529   2.211   5.473
 3139POPC   GL141389  26.870   2.131   5.723
 3139POPC   GL241390  26.769   1.845   5.884
 3139POPC   C1A41391  27.073   2.161   6.142
 3139POPC   D2A41392  27.147   2.082   6.578
 3139POPC   C3A41393  26.755   2.111   6.809
 3139POPC   C4A41394  26.696   2.234   7.252
 3139POPC   C1B41395  26.667   1.903   6.343
 3139POPC   C2B41396  26.482   1.666   6.733
 3139POPC   C3B41397  26.661   1.738   7.145
 3139POPC   C4B41398  26.732   1.594   7.541
 3140POPC   NC341399  44.988   8.389   5.541
 3140POPC   PO441400  44.832   9.052   5.391
 3140POPC   GL141401  44.725   8.835   5.771
 3140POPC   GL241402  44.418   8.607   5.762
 3140POPC   C1A41403  44.557   9.055   6.131
 3140POPC   D2A41404  44.393   9.315   6.467
 3140POPC   C3A41405  44.601   9.252   6.849
 3140POPC   C4A41406  44.437   9.171   7.247
 3140POPC   C1B41407  44.539   8.560   6.216
 3140POPC   C2B41408  44.621   8.796   6.592
 3140POPC   C3B41409  44.545   8.751   7.004
 3140POPC   C4B41410  44.638   8.440   7.263
 3141POPC   NC341411  35.492  22.789   5.521
 3141POPC   PO441412  35.632  22.138   5.585
 3141POPC   GL141413  35.363  22.337   5.837
 3141POPC   GL241414  35.636  22.534   5.929
 3141POPC   C1A41415  35.121  22.198   6.212
 3141POPC   D2A41416  35.023  22.395   6.633
 3141POPC   C3A41417  35.076  22.182   7.018
 3141POPC   C4A41418  35.380  21.862   7.162
 3141POPC   C1B41419  35.641  22.230   6.267
 3141POPC   C2B41420  35.428  22.062   6.622
 3141POPC   C3B41421  35.584  22.268   6.954
 3141POPC   C4B41422  35.794  22.583   7.132
 3142POPC   NC341423   0.993  24.061   5.422
 3142POPC   PO441424   1.425  24.464   5.504
 3142POPC   GL141425   1.240  24.392   5.868
 3142POPC   GL241426   0.963  24.603   5.893
 3142POPC   C1A41427   1.288  24.538   6.291
 3142POPC   D2A41428   1.368  24.744   6.652
 3142POPC   C3A41429   1.346  24.526   7.011
 3142POPC   C4A41430   1.080  24.589   7.312
 3142POPC   C1B41431   0.782  24.633   6.320
 3142POPC   C2B41432   0.868  24.499   6.770
 3142POPC   C3B41433   0.979  24.159   7.079
 3142POPC   C4B41434   1.065  24.129   7.545
 3143POPC   NC341435  35.811   2.199   5.368
 3143POPC   PO441436  35.930   1.573   5.185
 3143POPC   GL141437  36.077   1.788   5.599
 3143POPC   GL241438  36.426   1.666   5.657
 3143POPC   C1A41439  35.935   1.923   6.068
 3143POPC   D2A41440  36.199   2.021   6.459
 3143POPC   C3A41441  35.976   2.062   6.854
 3143POPC   C4A41442  35.960   2.021   7.266
 3143POPC   C1B41443  36.341   1.630   6.100
 3143POPC   C2B41444  36.381   1.535   6.551
 3143POPC   C3B41445  36.375   1.740   6.964
 3143POPC   C4B41446  36.358   1.671   7.412
 3144POPC   NC341447  36.501  17.547   5.540
 3144POPC   PO441448  36.069  17.196   5.214
 3144POPC   GL141449  36.065  17.314   5.703
 3144POPC   GL241450  36.040  17.698   5.798
 3144POPC   C1A41451  36.244  17.432   6.170
 3144POPC   D2A41452  36.266  17.537   6.644
 3144POPC   C3A41453  35.964  17.401   6.934
 3144POPC   C4A41454  36.165  17.193   7.269
 3144POPC   C1B41455  36.076  17.934   6.241
 3144POPC   C2B41456  35.960  17.944   6.725
 3144POPC   C3B41457  35.756  17.884   7.145
 3144POPC   C4B41458  35.637  17.718   7.586
 3145POPC   NC341459  31.080  15.144   5.490
 3145POPC   PO441460  30.430  15.285   5.654
 3145POPC   GL141461  30.749  15.137   5.895
 3145POPC   GL241462  31.061  15.381   5.939
 3145POPC   C1A41463  30.573  14.931   6.262
 3145POPC   D2A41464  30.514  14.693   6.633
 3145POPC   C3A41465  30.425  14.997   6.971
 3145POPC   C4A41466  30.546  15.231   7.326
 3145POPC   C1B41467  31.040  15.110   6.308
 3145POPC   C2B41468  30.897  15.025   6.742
 3145POPC   C3B41469  30.999  15.300   7.093
 3145POPC   C4B41470  31.167  15.722   7.120
 3146POPC   NC341471  28.058  39.010   5.576
 3146POPC   PO441472  28.643  39.250   5.325
 3146POPC   GL141473  28.426  39.349   5.728
 3146POPC   GL241474  28.092  39.524   5.703
 3146POPC   C1A41475  28.459  39.112   6.154
 3146POPC   D2A41476  28.543  39.220   6.602
 3146POPC   C3A41477  28.448  39.041   7.016
 3146POPC   C4A41478  28.284  39.185   7.390
 3146POPC   C1B41479  28.084  39.452   6.136
 3146POPC   C2B41480  28.181  39.603   6.552
 3146POPC   C3B41481  28.266  39.523   6.982
 3146POPC   C4B41482  28.099  39.673   7.388
 3147POPC   NC341483   0.771  40.681   5.561
 3147POPC   PO441484   0.316  41.201   5.623
 3147POPC   GL141485   0.460  40.917   5.888
 3147POPC   GL241486   0.323  40.586   5.826
 3147POPC   C1A41487   0.604  40.797   6.242
 3147POPC   D2A41488   0.756  40.545   6.535
 3147POPC   C3A41489   0.696  40.803   6.887
 3147POPC   C4A41490   0.575  40.776   7.287
 3147POPC   C1B41491   0.281  40.365   6.234
 3147POPC   C2B41492   0.345  40.274   6.659
 3147POPC   C3B41493   0.516  40.318   7.048
 3147POPC   C4B41494   0.290  40.378   7.448
 3148POPC   NC341495  41.368  15.099   5.095
 3148POPC   PO441496  41.963  15.291   5.499
 3148POPC   GL141497  41.526  15.332   5.712
 3148POPC   GL241498  41.427  15.020   5.834
 3148POPC   C1A41499  41.353  15.388   6.176
 3148POPC   D2A41500  41.494  15.302   6.617
 3148POPC   C3A41501  41.455  15.146   7.038
 3148POPC   C4A41502  41.483  15.368   7.432
 3148POPC   C1B41503  41.617  14.963   6.262
 3148POPC   C2B41504  41.877  14.843   6.602
 3148POPC   C3B41505  41.884  14.840   7.040
 3148POPC   C4B41506  41.787  14.959   7.452
 3149POPC   NC341507  10.067  41.767   5.072
 3149POPC   PO441508   9.550  41.472   5.431
 3149POPC   GL141509   9.846  41.413   5.766
 3149POPC   GL241510  10.050  41.100   5.671
 3149POPC   C1A41511   9.850  41.642   6.202
 3149POPC   D2A41512   9.606  41.853   6.533
 3149POPC   C3A41513   9.662  41.632   6.906
 3149POPC   C4A41514   9.469  41.652   7.301
 3149POPC   C1B41515   9.991  41.100   6.120
 3149POPC   C2B41516   9.965  41.271   6.528
 3149POPC   C3B41517  10.081  41.267   6.938
 3149POPC   C4B41518   9.873  41.355   7.279
 3150POPC   NC341519  35.983   5.602   5.654
 3150POPC   PO441520  36.535   5.860   5.374
 3150POPC   GL141521  36.431   5.741   5.833
 3150POPC   GL241522  36.587   5.451   5.963
 3150POPC   C1A41523  36.178   5.789   6.249
 3150POPC   D2A41524  35.756   5.736   6.473
 3150POPC   C3A41525  35.822   5.649   6.920
 3150POPC   C4A41526  35.969   6.017   7.134
 3150POPC   C1B41527  36.457   5.339   6.361
 3150POPC   C2B41528  36.241   5.508   6.667
 3150POPC   C3B41529  36.352   5.752   6.964
 3150POPC   C4B41530  36.494   5.663   7.354
 3151POPC   NC341531  22.181   6.634   5.333
 3151POPC   PO441532  21.903   6.890   5.957
 3151POPC   GL141533  22.228   6.593   6.006
 3151POPC   GL241534  22.484   6.648   5.781
 3151POPC   C1A41535  22.267   6.505   6.439
 3151POPC   D2A41536  22.102   6.766   6.757
 3151POPC   C3A41537  22.066   6.622   7.159
 3151POPC   C4A41538  21.889   6.258   7.154
 3151POPC   C1B41539  22.690   6.743   6.200
 3151POPC   C2B41540  22.593   6.900   6.621
 3151POPC   C3B41541  22.550   6.691   7.026
 3151POPC   C4B41542  22.525   6.734   7.491
 3152POPC   NC341543  41.452  22.408   5.354
 3152POPC   PO441544  41.585  21.776   5.129
 3152POPC   GL141545  41.709  22.017   5.587
 3152POPC   GL241546  41.457  22.273   5.847
 3152POPC   C1A41547  41.824  22.011   6.033
 3152POPC   D2A41548  41.781  21.943   6.501
 3152POPC   C3A41549  41.566  22.203   6.824
 3152POPC   C4A41550  41.542  22.144   7.264
 3152POPC   C1B41551  41.359  22.531   6.272
 3152POPC   C2B41552  41.327  22.652   6.741
 3152POPC   C3B41553  41.444  22.642   7.199
 3152POPC   C4B41554  41.292  22.477   7.609
 3153POPC   NC341555   7.315  37.239   5.449
 3153POPC   PO441556   7.654  36.633   5.575
 3153POPC   GL141557   7.432  36.912   5.833
 3153POPC   GL241558   7.663  37.144   5.896
 3153POPC   C1A41559   7.264  37.095   6.208
 3153POPC   D2A41560   7.506  37.138   6.609
 3153POPC   C3A41561   7.367  37.002   7.001
 3153POPC   C4A41562   7.248  36.601   7.168
 3153POPC   C1B41563   7.730  36.843   6.247
 3153POPC   C2B41564   7.833  36.767   6.694
 3153POPC   C3B41565   7.757  36.712   7.172
 3153POPC   C4B41566   7.885  36.697   7.649
 3154POPC   NC341567  18.633   5.315   5.489
 3154POPC   PO441568  18.047   4.884   5.524
 3154POPC   GL141569  18.170   5.161   5.847
 3154POPC   GL241570  18.513   5.140   5.953
 3154POPC   C1A41571  18.122   5.228   6.268
 3154POPC   D2A41572  18.407   5.110   6.571
 3154POPC   C3A41573  18.203   5.215   6.908
 3154POPC   C4A41574  18.095   5.141   7.296
 3154POPC   C1B41575  18.599   5.461   6.261
 3154POPC   C2B41576  18.415   5.621   6.661
 3154POPC   C3B41577  18.599   5.532   7.054
 3154POPC   C4B41578  18.466   5.436   7.445
 3155POPC   NC341579  14.444  17.149   5.381
 3155POPC   PO441580  14.223  16.517   5.268
 3155POPC   GL141581  14.141  16.680   5.724
 3155POPC   GL241582  14.035  17.053   5.763
 3155POPC   C1A41583  14.404  16.535   6.094
 3155POPC   D2A41584  14.557  16.723   6.477
 3155POPC   C3A41585  14.295  16.682   6.815
 3155POPC   C4A41586  14.535  16.573   7.173
 3155POPC   C1B41587  14.213  16.995   6.188
 3155POPC   C2B41588  14.367  17.204   6.578
 3155POPC   C3B41589  14.514  17.112   6.996
 3155POPC   C4B41590  14.234  16.970   7.250
 3156POPC   NC341591   0.034  29.032   5.358
 3156POPC   PO441592  44.473  29.417   5.569
 3156POPC   GL141593  44.845  29.267   5.782
 3156POPC   GL241594  44.790  28.895   5.776
 3156POPC   C1A41595   0.024  29.292   6.216
 3156POPC   D2A41596  44.769  29.236   6.593
 3156POPC   C3A41597  44.689  29.424   6.991
 3156POPC   C4A41598  44.603  29.252   7.406
 3156POPC   C1B41599  44.644  28.920   6.196
 3156POPC   C2B41600  44.641  28.746   6.609
 3156POPC   C3B41601  44.694  28.887   7.028
 3156POPC   C4B41602  44.970  28.880   7.367
 3157POPC   NC341603  20.953   1.298   5.425
 3157POPC   PO441604  21.559   1.226   5.242
 3157POPC   GL141605  21.396   1.344   5.679
 3157POPC   GL241606  21.294   1.671   5.796
 3157POPC   C1A41607  21.523   1.286   6.094
 3157POPC   D2A41608  21.567   1.013   6.415
 3157POPC   C3A41609  21.324   1.099   6.750
 3157POPC   C4A41610  21.316   1.090   7.174
 3157POPC   C1B41611  21.144   1.635   6.225
 3157POPC   C2B41612  21.057   1.505   6.639
 3157POPC   C3B41613  21.313   1.572   7.012
 3157POPC   C4B41614  21.742   1.392   7.101
 3158POPC   NC341615  13.942   7.653   5.674
 3158POPC   PO441616  13.332   7.415   5.448
 3158POPC   GL141617  13.468   7.507   5.860
 3158POPC   GL241618  13.698   7.232   5.890
 3158POPC   C1A41619  13.661   7.629   6.263
 3158POPC   D2A41620  13.652   7.755   6.684
 3158POPC   C3A41621  13.918   7.778   7.065
 3158POPC   C4A41622  13.731   7.680   7.486
 3158POPC   C1B41623  13.975   7.235   6.247
 3158POPC   C2B41624  13.796   7.241   6.637
 3158POPC   C3B41625  13.651   7.365   7.031
 3158POPC   C4B41626  13.897   7.230   7.391
 3159POPC   NC341627  22.147   2.310   5.395
 3159POPC   PO441628  21.978   1.654   5.494
 3159POPC   GL141629  22.223   1.806   5.828
 3159POPC   GL241630  22.285   2.191   5.877
 3159POPC   C1A41631  22.273   1.842   6.281
 3159POPC   D2A41632  22.475   1.836   6.696
 3159POPC   C3A41633  22.208   1.624   6.999
 3159POPC   C4A41634  22.318   1.684   7.436
 3159POPC   C1B41635  22.198   2.357   6.259
 3159POPC   C2B41636  22.096   2.177   6.640
 3159POPC   C3B41637  22.190   2.129   7.042
 3159POPC   C4B41638  21.913   2.367   7.228
 3160POPC   NC341639  22.279  21.274   5.485
 3160POPC   PO441640  22.183  21.866   5.252
 3160POPC   GL141641  22.283  21.745   5.719
 3160POPC   GL241642  21.988  21.550   5.816
 3160POPC   C1A41643  22.333  21.593   6.187
 3160POPC   D2A41644  21.984  21.484   6.497
 3160POPC   C3A41645  22.000  21.652   6.900
 3160POPC   C4A41646  22.293  21.663   7.223
 3160POPC   C1B41647  21.986  21.159   6.099
 3160POPC   C2B41648  21.855  20.977   6.517
 3160POPC   C3B41649  21.996  21.126   6.916
 3160POPC   C4B41650  21.872  21.356   7.275
 3161POPC   NC341651   9.314   2.463   5.516
 3161POPC   PO441652  10.029   2.715   5.546
 3161POPC   GL141653   9.881   2.825   5.903
 3161POPC   GL241654   9.601   2.604   5.926
 3161POPC   C1A41655   9.971   2.688   6.306
 3161POPC   D2A41656   9.732   2.579   6.673
 3161POPC   C3A41657   9.863   2.800   7.029
 3161POPC   C4A41658  10.102   3.018   7.323
 3161POPC   C1B41659   9.499   2.892   6.272
 3161POPC   C2B41660   9.498   3.174   6.640
 3161POPC   C3B41661   9.448   3.094   7.088
 3161POPC   C4B41662   9.408   2.660   7.207
 3162POPC   NC341663  31.591  24.208   5.482
 3162POPC   PO441664  31.272  24.831   5.390
 3162POPC   GL141665  31.419  24.606   5.760
 3162POPC   GL241666  31.241  24.303   5.899
 3162POPC   C1A41667  31.552  24.602   6.185
 3162POPC   D2A41668  31.377  24.438   6.557
 3162POPC   C3A41669  31.205  24.644   6.874
 3162POPC   C4A41670  31.347  24.690   7.254
 3162POPC   C1B41671  31.494  24.056   6.222
 3162POPC   C2B41672  31.619  24.014   6.712
 3162POPC   C3B41673  31.491  24.176   7.147
 3162POPC   C4B41674  31.585  24.276   7.627
 3163POPC   NC341675  22.387  25.350   5.446
 3163POPC   PO441676  21.827  24.906   5.255
 3163POPC   GL141677  21.941  25.123   5.681
 3163POPC   GL241678  22.269  25.026   5.848
 3163POPC   C1A41679  21.919  25.387   6.120
 3163POPC   D2A41680  21.983  25.336   6.618
 3163POPC   C3A41681  22.334  25.501   6.897
 3163POPC   C4A41682  22.467  25.485   7.360
 3163POPC   C1B41683  22.000  24.888   6.153
 3163POPC   C2B41684  22.115  24.823   6.549
 3163POPC   C3B41685  22.394  24.965   6.836
 3163POPC   C4B41686  22.163  25.109   7.178
 3164POPC   NC341687  21.326  26.765   5.349
 3164POPC   PO441688  21.465  26.229   5.656
 3164POPC   GL141689  21.380  26.642   5.843
 3164POPC   GL241690  21.577  26.981   5.803
 3164POPC   C1A41691  21.268  26.830   6.224
 3164POPC   D2A41692  21.432  26.709   6.606
 3164POPC   C3A41693  21.228  26.778   6.985
 3164POPC   C4A41694  21.550  26.564   7.192
 3164POPC   C1B41695  21.634  27.192   6.243
 3164POPC   C2B41696  21.774  27.092   6.687
 3164POPC   C3B41697  21.636  27.071   7.157
 3164POPC   C4B41698  21.664  27.223   7.619
 3165POPC   NC341699  11.669  40.901   5.483
 3165POPC   PO441700  12.228  40.510   5.357
 3165POPC   GL141701  12.137  40.740   5.771
 3165POPC   GL241702  12.079  41.099   5.718
 3165POPC   C1A41703  11.973  40.766   6.210
 3165POPC   D2A41704  11.751  40.439   6.494
 3165POPC   C3A41705  11.844  40.452   6.962
 3165POPC   C4A41706  12.047  40.699   7.316
 3165POPC   C1B41707  12.207  41.221   6.118
 3165POPC   C2B41708  12.136  41.192   6.535
 3165POPC   C3B41709  12.172  40.991   6.918
 3165POPC   C4B41710  12.405  41.067   7.315
 3166POPC   NC341711   4.683  16.444   5.510
 3166POPC   PO441712   4.540  15.795   5.476
 3166POPC   GL141713   4.331  15.938   5.838
 3166POPC   GL241714   4.535  16.228   5.947
 3166POPC   C1A41715   4.212  15.680   6.193
 3166POPC   D2A41716   4.206  15.780   6.596
 3166POPC   C3A41717   4.253  15.546   6.948
 3166POPC   C4A41718   4.304  15.834   7.257
 3166POPC   C1B41719   4.219  16.213   6.249
 3166POPC   C2B41720   3.959  16.223   6.579
 3166POPC   C3B41721   4.114  16.260   6.974
 3166POPC   C4B41722   3.841  16.222   7.284
 3167POPC   NC341723  27.744   1.867   5.482
 3167POPC   PO441724  27.200   2.323   5.315
 3167POPC   GL141725  27.374   2.239   5.736
 3167POPC   GL241726  27.353   1.872   5.819
 3167POPC   C1A41727  27.561   2.294   6.169
 3167POPC   D2A41728  27.675   2.116   6.567
 3167POPC   C3A41729  27.503   2.219   6.968
 3167POPC   C4A41730  27.143   1.999   7.133
 3167POPC   C1B41731  27.600   1.753   6.210
 3167POPC   C2B41732  27.484   1.669   6.666
 3167POPC   C3B41733  27.591   1.720   7.102
 3167POPC   C4B41734  27.725   1.507   7.465
 3168POPC   NC341735  23.106  35.148   5.274
 3168POPC   PO441736  22.772  35.656   5.486
 3168POPC   GL141737  22.970  35.361   5.807
 3168POPC   GL241738  22.919  35.009   5.712
 3168POPC   C1A41739  23.157  35.349   6.258
 3168POPC   D2A41740  23.142  35.380   6.733
 3168POPC   C3A41741  22.767  35.420   6.954
 3168POPC   C4A41742  22.976  35.605   7.253
 3168POPC   C1B41743  22.847  34.906   6.122
 3168POPC   C2B41744  22.775  35.094   6.506
 3168POPC   C3B41745  22.882  34.936   6.875
 3168POPC   C4B41746  22.942  35.034   7.258
 3169POPC   NC341747   6.604  33.698   5.358
 3169POPC   PO441748   6.580  34.297   5.569
 3169POPC   GL141749   6.442  33.896   5.827
 3169POPC   GL241750   6.474  33.511   5.802
 3169POPC   C1A41751   6.661  33.825   6.244
 3169POPC   D2A41752   6.873  34.084   6.592
 3169POPC   C3A41753   6.779  33.931   7.017
 3169POPC   C4A41754   6.854  33.888   7.442
 3169POPC   C1B41755   6.397  33.336   6.188
 3169POPC   C2B41756   6.352  33.552   6.569
 3169POPC   C3B41757   6.313  33.788   6.916
 3169POPC   C4B41758   6.417  33.641   7.315
 3170POPC   NC341759  38.088   9.218   5.367
 3170POPC   PO441760  37.512   8.941   5.426
 3170POPC   GL141761  37.671   8.855   5.854
 3170POPC   GL241762  37.953   9.022   5.835
 3170POPC   C1A41763  37.823   8.934   6.319
 3170POPC   D2A41764  37.858   9.196   6.689
 3170POPC   C3A41765  37.895   8.888   6.984
 3170POPC   C4A41766  37.660   8.733   7.293
 3170POPC   C1B41767  37.609   9.306   6.067
 3170POPC   C2B41768  37.393   9.179   6.471
 3170POPC   C3B41769  37.407   9.082   6.919
 3170POPC   C4B41770  37.649   9.291   7.257
 3171POPC   NC341771   1.285  41.820   5.335
 3171POPC   PO441772   1.089  41.122   5.360
 3171POPC   GL141773   1.145  41.365   5.766
 3171POPC   GL241774   1.303  41.707   5.812
 3171POPC   C1A41775   1.212  41.441   6.224
 3171POPC   D2A41776   0.926  41.561   6.532
 3171POPC   C3A41777   1.015  41.660   6.901
 3171POPC   C4A41778   1.188  41.547   7.256
 3171POPC   C1B41779   1.499  41.981   6.116
 3171POPC   C2B41780   1.423  41.812   6.525
 3171POPC   C3B41781   1.396  41.978   6.919
 3171POPC   C4B41782   1.527  41.909   7.296
 3172POPC   NC341783  42.552  11.700   5.275
 3172POPC   PO441784  43.091  11.220   5.321
 3172POPC   GL141785  43.130  11.291   5.757
 3172POPC   GL241786  42.888  11.584   5.698
 3172POPC   C1A41787  43.338  11.267   6.190
 3172POPC   D2A41788  43.540  11.264   6.612
 3172POPC   C3A41789  43.262  11.145   6.942
 3172POPC   C4A41790  43.017  11.193   7.275
 3172POPC   C1B41791  42.813  11.389   6.126
 3172POPC   C2B41792  42.954  11.281   6.539
 3172POPC   C3B41793  42.868  11.541   6.871
 3172POPC   C4B41794  42.660  11.580   7.235
 3173POPC   NC341795  20.199  11.578   5.437
 3173POPC   PO441796  19.482  11.379   5.291
 3173POPC   GL141797  19.718  11.445   5.716
 3173POPC   GL241798  19.691  11.129   5.857
 3173POPC   C1A41799  19.890  11.547   6.196
 3173POPC   D2A41800  19.780  11.787   6.640
 3173POPC   C3A41801  19.666  11.761   7.101
 3173POPC   C4A41802  19.819  11.622   7.540
 3173POPC   C1B41803  19.603  11.116   6.277
 3173POPC   C2B41804  19.904  11.200   6.600
 3173POPC   C3B41805  19.886  11.318   7.025
 3173POPC   C4B41806  19.738  11.084   7.365
 3174POPC   NC341807  43.247  40.435   5.102
 3174POPC   PO441808  43.628  39.921   5.156
 3174POPC   GL141809  43.764  39.931   5.653
 3174POPC   GL241810  44.014  39.672   5.691
 3174POPC   C1A41811  43.807  40.057   6.125
 3174POPC   D2A41812  43.611  40.026   6.577
 3174POPC   C3A41813  43.837  40.092   6.975
 3174POPC   C4A41814  43.620  40.423   7.234
 3174POPC   C1B41815  44.002  39.564   6.115
 3174POPC   C2B41816  44.021  39.749   6.522
 3174POPC   C3B41817  44.099  39.615   6.908
 3174POPC   C4B41818  43.956  39.574   7.298
 3175POPC   NC341819  11.987   8.661   5.254
 3175POPC   PO441820  11.918   8.054   5.524
 3175POPC   GL141821  12.032   8.364   5.835
 3175POPC   GL241822  11.880   8.667   5.769
 3175POPC   C1A41823  12.163   8.319   6.268
 3175POPC   D2A41824  12.210   7.967   6.567
 3175POPC   C3A41825  12.273   8.026   7.003
 3175POPC   C4A41826  12.019   7.840   7.329
 3175POPC   C1B41827  11.715   8.600   6.205
 3175POPC   C2B41828  11.781   8.350   6.607
 3175POPC   C3B41829  11.942   8.431   7.035
 3175POPC   C4B41830  11.798   8.557   7.453
 3176POPC   NC341831   3.190  17.537   5.524
 3176POPC   PO441832   2.572  17.329   5.555
 3176POPC   GL141833   2.823  17.396   5.886
 3176POPC   GL241834   2.893  17.745   5.909
 3176POPC   C1A41835   2.650  17.263   6.249
 3176POPC   D2A41836   2.496  17.387   6.594
 3176POPC   C3A41837   2.599  17.201   6.951
 3176POPC   C4A41838   2.620  17.333   7.336
 3176POPC   C1B41839   2.595  17.833   6.243
 3176POPC   C2B41840   2.464  17.988   6.643
 3176POPC   C3B41841   2.471  17.725   6.991
 3176POPC   C4B41842   2.752  17.811   7.238
 3177POPC   NC341843   2.209  43.858   5.285
 3177POPC   PO441844   1.628  43.489   5.188
 3177POPC   GL141845   1.950  43.558   5.592
 3177POPC   GL241846   2.039  43.924   5.757
 3177POPC   C1A41847   2.027  43.557   6.073
 3177POPC   D2A41848   1.871  43.575   6.514
 3177POPC   C3A41849   2.129  43.613   6.881
 3177POPC   C4A41850   2.039  43.577   7.309
 3177POPC   C1B41851   1.807  44.006   6.188
 3177POPC   C2B41852   1.770  44.051   6.662
 3177POPC   C3B41853   1.897  44.037   7.109
 3177POPC   C4B41854   1.665  44.199   7.475
 3178POPC   NC341855  37.522  42.299   5.318
 3178POPC   PO441856  38.104  42.545   5.250
 3178POPC   GL141857  37.793  42.523   5.695
 3178POPC   GL241858  37.722  42.203   5.835
 3178POPC   C1A41859  37.676  42.529   6.213
 3178POPC   D2A41860  37.519  42.302   6.595
 3178POPC   C3A41861  37.531  42.458   7.006
 3178POPC   C4A41862  37.741  42.406   7.355
 3178POPC   C1B41863  37.591  41.963   6.230
 3178POPC   C2B41864  37.726  41.768   6.633
 3178POPC   C3B41865  37.761  42.004   7.030
 3178POPC   C4B41866  37.456  41.982   7.382
 3179POPC   NC341867   4.105  23.786   5.109
 3179POPC   PO441868   4.535  23.315   5.261
 3179POPC   GL141869   4.452  23.517   5.755
 3179POPC   GL241870   4.223  23.829   5.815
 3179POPC   C1A41871   4.353  23.553   6.254
 3179POPC   D2A41872   4.106  23.549   6.684
 3179POPC   C3A41873   4.324  23.647   7.102
 3179POPC   C4A41874   4.624  23.598   7.493
 3179POPC   C1B41875   4.202  24.036   6.253
 3179POPC   C2B41876   4.354  23.996   6.698
 3179POPC   C3B41877   4.134  24.116   7.085
 3179POPC   C4B41878   4.296  24.003   7.487
 3180POPC   NC341879   9.145  41.714   5.456
 3180POPC   PO441880   8.569  41.281   5.379
 3180POPC   GL141881   8.819  41.400   5.706
 3180POPC   GL241882   9.106  41.172   5.579
 3180POPC   C1A41883   8.902  41.654   6.107
 3180POPC   D2A41884   9.089  41.823   6.506
 3180POPC   C3A41885   9.156  41.587   6.880
 3180POPC   C4A41886   8.960  41.593   7.297
 3180POPC   C1B41887   9.058  41.114   6.039
 3180POPC   C2B41888   9.023  41.295   6.451
 3180POPC   C3B41889   8.929  41.148   6.855
 3180POPC   C4B41890   8.955  41.070   7.265
 3181POPC   NC341891  25.504  24.023   5.536
 3181POPC   PO441892  25.555  23.314   5.627
 3181POPC   GL141893  25.226  23.644   5.831
 3181POPC   GL241894  25.270  23.974   5.971
 3181POPC   C1A41895  24.997  23.693   6.263
 3181POPC   D2A41896  25.218  23.762   6.640
 3181POPC   C3A41897  25.061  23.847   7.049
 3181POPC   C4A41898  25.174  23.583   7.396
 3181POPC   C1B41899  25.285  24.204   6.362
 3181POPC   C2B41900  25.254  24.268   6.804
 3181POPC   C3B41901  25.523  24.244   7.150
 3181POPC   C4B41902  25.418  23.995   7.486
 3182POPC   NC341903  25.227  19.504   5.331
 3182POPC   PO441904  25.565  20.073   5.438
 3182POPC   GL141905  25.354  19.865   5.771
 3182POPC   GL241906  25.587  19.609   5.777
 3182POPC   C1A41907  25.198  20.066   6.187
 3182POPC   D2A41908  24.974  19.979   6.622
 3182POPC   C3A41909  25.085  19.823   7.033
 3182POPC   C4A41910  25.157  19.876   7.464
 3182POPC   C1B41911  25.688  19.912   6.130
 3182POPC   C2B41912  25.539  19.907   6.546
 3182POPC   C3B41913  25.597  19.859   6.967
 3182POPC   C4B41914  25.598  20.124   7.345
 3183POPC   NC341915  26.998   5.648   5.522
 3183POPC   PO441916  26.764   6.274   5.387
 3183POPC   GL141917  26.728   6.080   5.801
 3183POPC   GL241918  26.386   5.927   5.916
 3183POPC   C1A41919  26.835   5.831   6.169
 3183POPC   D2A41920  26.640   5.865   6.544
 3183POPC   C3A41921  26.789   5.784   6.932
 3183POPC   C4A41922  26.549   5.969   7.239
 3183POPC   C1B41923  26.310   5.586   6.265
 3183POPC   C2B41924  26.470   5.384   6.689
 3183POPC   C3B41925  26.432   5.471   7.158
 3183POPC   C4B41926  26.509   5.595   7.605
 3184POPC   NC341927  26.539  32.255   5.375
 3184POPC   PO441928  27.187  32.358   5.480
 3184POPC   GL141929  26.866  32.323   5.818
 3184POPC   GL241930  26.602  32.078   5.912
 3184POPC   C1A41931  26.848  32.298   6.279
 3184POPC   D2A41932  27.066  32.115   6.631
 3184POPC   C3A41933  26.894  32.228   7.016
 3184POPC   C4A41934  26.798  32.226   7.429
 3184POPC   C1B41935  26.367  32.110   6.323
 3184POPC   C2B41936  26.488  32.002   6.766
 3184POPC   C3B41937  26.618  31.813   7.197
 3184POPC   C4B41938  26.578  31.867   7.707
 3185POPC   NC341939  23.730  27.398   5.524
 3185POPC   PO441940  24.113  27.915   5.532
 3185POPC   GL141941  24.003  27.613   5.895
 3185POPC   GL241942  24.032  27.212   5.897
 3185POPC   C1A41943  23.801  27.703   6.286
 3185POPC   D2A41944  23.838  27.993   6.624
 3185POPC   C3A41945  24.021  27.803   6.982
 3185POPC   C4A41946  23.747  27.906   7.322
 3185POPC   C1B41947  23.819  27.179   6.292
 3185POPC   C2B41948  23.873  27.371   6.703
 3185POPC   C3B41949  23.610  27.495   7.042
 3185POPC   C4B41950  23.464  27.453   7.479
 3186POPC   NC341951   3.789  43.378   5.627
 3186POPC   PO441952   4.308  43.092   5.278
 3186POPC   GL141953   4.317  43.080   5.764
 3186POPC   GL241954   4.056  43.087   5.957
 3186POPC   C1A41955   4.414  43.277   6.228
 3186POPC   D2A41956   4.417  43.076   6.598
 3186POPC   C3A41957   4.215  43.229   6.929
 3186POPC   C4A41958   4.201  43.303   7.331
 3186POPC   C1B41959   3.870  42.787   6.251
 3186POPC   C2B41960   4.114  42.639   6.574
 3186POPC   C3B41961   4.281  42.710   6.944
 3186POPC   C4B41962   3.980  42.827   7.256
 3187POPC   NC341963  11.154  20.425   5.369
 3187POPC   PO441964  11.575  20.936   5.514
 3187POPC   GL141965  11.416  20.667   5.886
 3187POPC   GL241966  11.171  20.378   5.880
 3187POPC   C1A41967  11.534  20.380   6.250
 3187POPC   D2A41968  11.376  20.319   6.665
 3187POPC   C3A41969  11.296  20.706   6.859
 3187POPC   C4A41970  11.546  20.868   7.159
 3187POPC   C1B41971  10.819  20.177   6.115
 3187POPC   C2B41972  10.686  20.142   6.560
 3187POPC   C3B41973  10.869  20.420   6.853
 3187POPC   C4B41974  11.168  20.370   7.213
 3188POPC   NC341975  42.505  24.689   5.388
 3188POPC   PO441976  42.087  24.255   5.221
 3188POPC   GL141977  42.217  24.327   5.720
 3188POPC   GL241978  42.383  24.629   5.883
 3188POPC   C1A41979  42.250  24.279   6.219
 3188POPC   D2A41980  42.241  24.558   6.595
 3188POPC   C3A41981  42.299  24.351   6.983
 3188POPC   C4A41982  42.344  24.411   7.443
 3188POPC   C1B41983  42.633  24.691   6.283
 3188POPC   C2B41984  42.791  24.631   6.694
 3188POPC   C3B41985  42.642  24.729   7.101
 3188POPC   C4B41986  42.704  24.761   7.585
 3189POPC   NC341987   5.601  41.529   5.404
 3189POPC   PO441988   6.267  41.549   5.464
 3189POPC   GL141989   6.130  41.425   5.841
 3189POPC   GL241990   5.856  41.667   5.831
 3189POPC   C1A41991   6.148  41.534   6.280
 3189POPC   D2A41992   6.007  41.719   6.628
 3189POPC   C3A41993   6.097  41.505   6.997
 3189POPC   C4A41994   5.758  41.398   7.244
 3189POPC   C1B41995   5.845  41.940   6.184
 3189POPC   C2B41996   5.621  42.068   6.557
 3189POPC   C3B41997   5.721  41.909   6.998
 3189POPC   C4B41998   5.986  41.858   7.377
 3190POPC   NC341999  12.422  16.012   5.017
 3190POPC   PO442000  13.007  15.711   5.008
 3190POPC   GL142001  12.935  15.956   5.595
 3190POPC   GL242002  13.164  16.208   5.778
 3190POPC   C1A42003  12.781  15.943   6.079
 3190POPC   D2A42004  12.781  16.134   6.539
 3190POPC   C3A42005  12.647  15.852   6.844
 3190POPC   C4A42006  12.614  15.686   7.251
 3190POPC   C1B42007  13.233  16.077   6.253
 3190POPC   C2B42008  13.074  15.722   6.527
 3190POPC   C3B42009  13.080  15.561   6.989
 3190POPC   C4B42010  13.112  15.752   7.419
 3191POPC   NC342011  44.869   1.476   5.503
 3191POPC   PO442012  44.766   0.853   5.295
 3191POPC   GL142013  44.534   0.966   5.692
 3191POPC   GL242014  44.341   1.308   5.691
 3191POPC   C1A42015  44.607   1.039   6.137
 3191POPC   D2A42016  44.471   1.069   6.575
 3191POPC   C3A42017  44.686   0.810   6.882
 3191POPC   C4A42018  44.996   0.983   7.179
 3191POPC   C1B42019  44.375   1.641   6.026
 3191POPC   C2B42020  44.424   1.700   6.470
 3191POPC   C3B42021  44.479   1.505   6.865
 3191POPC   C4B42022  44.699   1.392   7.242
 3192POPC   NC342023  22.476  41.333   5.537
 3192POPC   PO442024  23.123  41.548   5.439
 3192POPC   GL142025  23.036  41.718   5.838
 3192POPC   GL242026  22.665  41.724   5.861
 3192POPC   C1A42027  22.965  41.544   6.246
 3192POPC   D2A42028  23.154  41.422   6.600
 3192POPC   C3A42029  22.966  41.500   6.982
 3192POPC   C4A42030  23.188  41.290   7.296
 3192POPC   C1B42031  22.595  41.883   6.304
 3192POPC   C2B42032  22.662  41.885   6.761
 3192POPC   C3B42033  22.499  41.793   7.179
 3192POPC   C4B42034  22.531  41.913   7.661
 3193POPC   NC342035   6.859  31.518   5.658
 3193POPC   PO442036   6.358  31.215   5.728
 3193POPC   GL142037   6.436  31.468   6.030
 3193POPC   GL242038   6.401  31.753   5.821
 3193POPC   C1A42039   6.802  31.458   6.313
 3193POPC   D2A42040   6.990  31.495   6.690
 3193POPC   C3A42041   6.635  31.441   6.959
 3193POPC   C4A42042   6.689  31.225   7.341
 3193POPC   C1B42043   6.604  31.913   6.197
 3193POPC   C2B42044   6.486  31.800   6.611
 3193POPC   C3B42045   6.612  31.977   7.002
 3193POPC   C4B42046   6.717  31.733   7.356
 3194POPC   NC342047  10.130  24.419   5.442
 3194POPC   PO442048  10.730  24.151   5.360
 3194POPC   GL142049  10.545  24.350   5.740
 3194POPC   GL242050  10.831  24.295   5.911
 3194POPC   C1A42051  10.401  24.473   6.185
 3194POPC   D2A42052  10.320  24.707   6.570
 3194POPC   C3A42053  10.348  24.582   7.012
 3194POPC   C4A42054  10.042  24.573   7.345
 3194POPC   C1B42055  10.822  24.181   6.343
 3194POPC   C2B42056  10.742  24.393   6.730
 3194POPC   C3B42057  10.869  24.437   7.159
 3194POPC   C4B42058  10.526  24.395   7.459
 3195POPC   NC342059  37.377   5.754   5.473
 3195POPC   PO442060  37.725   6.338   5.374
 3195POPC   GL142061  37.722   6.024   5.741
 3195POPC   GL242062  37.418   6.109   5.845
 3195POPC   C1A42063  37.640   5.765   6.147
 3195POPC   D2A42064  37.850   5.682   6.545
 3195POPC   C3A42065  37.658   5.421   6.841
 3195POPC   C4A42066  37.677   5.489   7.241
 3195POPC   C1B42067  37.569   6.278   6.212
 3195POPC   C2B42068  37.622   6.137   6.622
 3195POPC   C3B42069  37.525   5.913   6.969
 3195POPC   C4B42070  37.465   5.922   7.408
 3196POPC   NC342071  25.931  20.325   5.322
 3196POPC   PO442072  26.057  20.976   5.420
 3196POPC   GL142073  26.135  20.625   5.722
 3196POPC   GL242074  25.881  20.378   5.852
 3196POPC   C1A42075  26.255  20.624   6.142
 3196POPC   D2A42076  26.103  20.660   6.568
 3196POPC   C3A42077  26.347  20.429   6.847
 3196POPC   C4A42078  26.203  20.298   7.212
 3196POPC   C1B42079  25.723  20.383   6.307
 3196POPC   C2B42080  25.813  20.289   6.761
 3196POPC   C3B42081  25.780  20.562   7.126
 3196POPC   C4B42082  25.612  20.588   7.564
 3197POPC   NC342083   0.386  43.297   5.508
 3197POPC   PO442084  44.881  43.079   5.090
 3197POPC   GL142085  44.998  43.029   5.684
 3197POPC   GL242086   0.383  42.979   5.879
 3197POPC   C1A42087   0.092  43.122   6.236
 3197POPC   D2A42088   0.414  43.083   6.594
 3197POPC   C3A42089   0.299  43.014   7.025
 3197POPC   C4A42090   0.266  43.299   7.355
 3197POPC   C1B42091   0.551  43.346   6.169
 3197POPC   C2B42092   0.669  43.530   6.607
 3197POPC   C3B42093   0.704  43.352   7.046
 3197POPC   C4B42094   0.759  43.337   7.527
 3198POPC   NC342095  16.247  41.836   5.560
 3198POPC   PO442096  15.715  42.261   5.549
 3198POPC   GL142097  15.837  42.391   5.938
 3198POPC   GL242098  15.999  42.068   5.972
 3198POPC   C1A42099  15.886  42.494   6.387
 3198POPC   D2A42100  15.919  42.256   6.768
 3198POPC   C3A42101  16.086  42.505   7.093
 3198POPC   C4A42102  15.771  42.617   7.406
 3198POPC   C1B42103  16.219  42.106   6.339
 3198POPC   C2B42104  16.428  42.174   6.734
 3198POPC   C3B42105  16.233  41.982   7.095
 3198POPC   C4B42106  15.866  42.096   7.290
 3199POPC   NC342107  25.531  41.258   5.489
 3199POPC   PO442108  26.220  41.406   5.416
 3199POPC   GL142109  26.117  41.406   5.868
 3199POPC   GL242110  26.220  41.738   6.005
 3199POPC   C1A42111  25.783  41.216   6.151
 3199POPC   D2A42112  25.744  41.066   6.588
 3199POPC   C3A42113  26.013  41.293   6.834
 3199POPC   C4A42114  26.005  41.615   7.133
 3199POPC   C1B42115  26.128  41.522   6.378
 3199POPC   C2B42116  25.892  41.767   6.651
 3199POPC   C3B42117  26.129  42.040   6.871
 3199POPC   C4B42118  26.421  41.933   7.188
 3200POPC   NC342119  16.115  26.127   5.403
 3200POPC   PO442120  15.679  25.508   5.284
 3200POPC   GL142121  15.851  25.674   5.740
 3200POPC   GL242122  15.807  26.063   5.832
 3200POPC   C1A42123  16.130  25.788   6.140
 3200POPC   D2A42124  16.072  26.151   6.424
 3200POPC   C3A42125  16.147  26.122   6.873
 3200POPC   C4A42126  16.303  26.445   7.123
 3200POPC   C1B42127  15.652  25.892   6.265
 3200POPC   C2B42128  15.775  25.803   6.707
 3200POPC   C3B42129  15.724  25.907   7.166
 3200POPC   C4B42130  15.736  25.703   7.599
 3201POPC   NC342131   6.222   7.457   5.372
 3201POPC   PO442132   6.886   7.256   5.375
 3201POPC   GL142133   6.687   7.262   5.779
 3201POPC   GL242134   6.602   7.593   5.841
 3201POPC   C1A42135   6.764   7.251   6.239
 3201POPC   D2A42136   6.615   7.361   6.623
 3201POPC   C3A42137   6.759   7.158   6.950
 3201POPC   C4A42138   6.576   7.370   7.272
 3201POPC   C1B42139   6.512   7.705   6.257
 3201POPC   C2B42140   6.652   7.892   6.614
 3201POPC   C3B42141   6.397   7.732   6.952
 3201POPC   C4B42142   6.233   7.738   7.344
 3202POPC   NC342143  13.924  18.609   5.107
 3202POPC   PO442144  13.591  18.125   5.414
 3202POPC   GL142145  13.501  18.313   5.845
 3202POPC   GL242146  13.243  18.084   5.964
 3202POPC   C1A42147  13.736  18.414   6.266
 3202POPC   D2A42148  13.933  18.257   6.673
 3202POPC   C3A42149  13.883  18.430   7.116
 3202POPC   C4A42150  13.989  18.416   7.583
 3202POPC   C1B42151  13.620  17.919   6.173
 3202POPC   C2B42152  13.602  17.863   6.614
 3202POPC   C3B42153  13.542  18.081   6.993
 3202POPC   C4B42154  13.725  18.001   7.368
 3203POPC   NC342155  12.504  21.366   5.167
 3203POPC   PO442156  11.883  21.635   5.316
 3203POPC   GL142157  11.915  21.343   5.682
 3203POPC   GL242158  12.275  21.267   5.761
 3203POPC   C1A42159  11.912  21.292   6.159
 3203POPC   D2A42160  12.143  21.253   6.569
 3203POPC   C3A42161  11.950  21.159   6.975
 3203POPC   C4A42162  11.803  21.204   7.421
 3203POPC   C1B42163  12.351  20.975   6.135
 3203POPC   C2B42164  12.408  20.798   6.581
 3203POPC   C3B42165  12.519  20.974   6.999
 3203POPC   C4B42166  12.356  21.303   7.268
 3204POPC   NC342167   8.820  34.779   5.142
 3204POPC   PO442168   8.407  34.545   5.596
 3204POPC   GL142169   8.799  34.683   5.807
 3204POPC   GL242170   9.116  34.638   5.593
 3204POPC   C1A42171   8.894  34.711   6.261
 3204POPC   D2A42172   8.959  34.844   6.703
 3204POPC   C3A42173   8.809  34.669   7.073
 3204POPC   C4A42174   9.041  34.798   7.395
 3204POPC   C1B42175   9.236  34.413   5.989
 3204POPC   C2B42176   9.132  34.239   6.408
 3204POPC   C3B42177   9.142  34.359   6.822
 3204POPC   C4B42178   9.072  34.275   7.264
 3205POPC   NC342179  14.523  10.902   5.177
 3205POPC   PO442180  14.005  11.398   5.279
 3205POPC   GL142181  14.158  11.181   5.669
 3205POPC   GL242182  14.428  11.389   5.799
 3205POPC   C1A42183  14.159  11.093   6.146
 3205POPC   D2A42184  14.282  11.308   6.549
 3205POPC   C3A42185  14.341  11.189   6.991
 3205POPC   C4A42186  14.301  11.414   7.371
 3205POPC   C1B42187  14.661  11.380   6.189
 3205POPC   C2B42188  14.751  11.595   6.571
 3205POPC   C3B42189  14.637  11.644   6.991
 3205POPC   C4B42190  14.801  11.367   7.289
 3206POPC   NC342191   6.709  14.792   5.375
 3206POPC   PO442192   6.812  15.394   5.518
 3206POPC   GL142193   6.709  15.202   5.891
 3206POPC   GL242194   6.455  14.980   5.812
 3206POPC   C1A42195   6.699  15.246   6.344
 3206POPC   D2A42196   6.677  15.009   6.718
 3206POPC   C3A42197   6.598  15.252   7.028
 3206POPC   C4A42198   6.735  15.591   7.215
 3206POPC   C1B42199   6.359  14.860   6.257
 3206POPC   C2B42200   6.373  14.614   6.648
 3206POPC   C3B42201   6.483  14.719   7.126
 3206POPC   C4B42202   6.737  14.661   7.557
 3207POPC   NC342203  42.047  39.112   5.373
 3207POPC   PO442204  42.405  39.685   5.358
 3207POPC   GL142205  42.572  39.314   5.651
 3207POPC   GL242206  42.279  39.285   5.811
 3207POPC   C1A42207  42.672  39.215   6.113
 3207POPC   D2A42208  42.432  39.307   6.471
 3207POPC   C3A42209  42.628  39.271   6.857
 3207POPC   C4A42210  42.461  39.219   7.241
 3207POPC   C1B42211  41.998  39.351   6.148
 3207POPC   C2B42212  41.916  39.178   6.530
 3207POPC   C3B42213  42.088  39.240   6.896
 3207POPC   C4B42214  41.967  39.414   7.258
 3208POPC   NC342215  28.766  42.922   5.445
 3208POPC   PO442216  28.145  43.303   5.275
 3208POPC   GL142217  28.199  43.378   5.699
 3208POPC   GL242218  28.550  43.380   5.739
 3208POPC   C1A42219  28.164  43.078   6.046
 3208POPC   D2A42220  28.385  42.943   6.428
 3208POPC   C3A42221  28.207  42.996   6.849
 3208POPC   C4A42222  28.354  42.937   7.268
 3208POPC   C1B42223  28.566  43.386   6.202
 3208POPC   C2B42224  28.699  43.288   6.652
 3208POPC   C3B42225  28.561  43.375   7.079
 3208POPC   C4B42226  28.613  43.310   7.540
 3209POPC   NC342227  32.213  29.119   5.302
 3209POPC   PO442228  32.222  29.694   5.525
 3209POPC   GL142229  32.171  29.334   5.838
 3209POPC   GL242230  32.229  28.960   5.784
 3209POPC   C1A42231  32.107  29.207   6.292
 3209POPC   D2A42232  32.055  29.409   6.711
 3209POPC   C3A42233  32.090  29.212   7.126
 3209POPC   C4A42234  32.116  29.334   7.595
 3209POPC   C1B42235  32.331  28.752   6.160
 3209POPC   C2B42236  32.529  28.747   6.566
 3209POPC   C3B42237  32.456  28.825   7.010
 3209POPC   C4B42238  32.529  29.094   7.354
 3210POPC   NC342239  25.264   2.953   5.406
 3210POPC   PO442240  25.645   2.450   5.677
 3210POPC   GL142241  25.470   2.859   5.876
 3210POPC   GL242242  25.093   2.867   5.886
 3210POPC   C1A42243  25.360   2.913   6.323
 3210POPC   D2A42244  25.355   2.594   6.619
 3210POPC   C3A42245  25.417   2.781   6.987
 3210POPC   C4A42246  25.519   2.685   7.395
 3210POPC   C1B42247  24.842   2.934   6.276
 3210POPC   C2B42248  24.904   2.809   6.726
 3210POPC   C3B42249  24.951   2.763   7.173
 3210POPC   C4B42250  25.072   2.839   7.600
 3211POPC   NC342251  44.426  37.184   5.517
 3211POPC   PO442252  44.627  37.889   5.401
 3211POPC   GL142253  44.691  37.663   5.780
 3211POPC   GL242254   0.020  37.453   5.722
 3211POPC   C1A42255  44.459  37.679   6.202
 3211POPC   D2A42256  44.391  37.921   6.623
 3211POPC   C3A42257  44.465  37.718   7.054
 3211POPC   C4A42258  44.726  37.536   7.447
 3211POPC   C1B42259   0.043  37.628   6.155
 3211POPC   C2B42260  44.837  37.665   6.554
 3211POPC   C3B42261  44.984  37.731   6.935
 3211POPC   C4B42262   0.098  37.853   7.332
 3212POPC   NC342263   8.387  30.402   5.524
 3212POPC   PO442264   7.937  30.800   5.279
 3212POPC   GL142265   8.101  30.813   5.704
 3212POPC   GL242266   7.989  30.499   5.835
 3212POPC   C1A42267   8.285  30.982   6.111
 3212POPC   D2A42268   8.471  30.811   6.486
 3212POPC   C3A42269   8.342  30.897   6.883
 3212POPC   C4A42270   8.366  30.790   7.290
 3212POPC   C1B42271   8.261  30.459   6.175
 3212POPC   C2B42272   8.194  30.399   6.601
 3212POPC   C3B42273   8.265  30.345   7.032
 3212POPC   C4B42274   7.940  30.462   7.322
 3213POPC   NC342275  40.879  41.097   5.348
 3213POPC   PO442276  41.009  41.710   5.213
 3213POPC   GL142277  40.742  41.566   5.630
 3213POPC   GL242278  40.867  41.254   5.821
 3213POPC   C1A42279  40.641  41.610   6.120
 3213POPC   D2A42280  40.488  41.730   6.571
 3213POPC   C3A42281  40.630  41.589   6.984
 3213POPC   C4A42282  40.713  41.832   7.337
 3213POPC   C1B42283  40.713  41.102   6.209
 3213POPC   C2B42284  40.798  41.305   6.592
 3213POPC   C3B42285  40.952  41.140   6.992
 3213POPC   C4B42286  40.793  41.119   7.404
 3214POPC   NC342287  25.954  19.680   5.414
 3214POPC   PO442288  26.372  20.293   5.413
 3214POPC   GL142289  26.299  20.088   5.816
 3214POPC   GL242290  26.097  19.762   5.888
 3214POPC   C1A42291  26.152  20.133   6.249
 3214POPC   D2A42292  26.042  19.802   6.512
 3214POPC   C3A42293  26.111  19.881   6.917
 3214POPC   C4A42294  26.014  19.837   7.323
 3214POPC   C1B42295  25.864  19.436   6.178
 3214POPC   C2B42296  25.730  19.394   6.625
 3214POPC   C3B42297  25.835  19.403   7.083
 3214POPC   C4B42298  25.564  19.598   7.399
 3215POPC   NC342299  34.180  13.253   5.397
 3215POPC   PO442300  34.745  13.622   5.180
 3215POPC   GL142301  34.582  13.505   5.661
 3215POPC   GL242302  34.231  13.574   5.781
 3215POPC   C1A42303  34.567  13.541   6.172
 3215POPC   D2A42304  34.640  13.738   6.605
 3215POPC   C3A42305  34.550  13.509   6.998
 3215POPC   C4A42306  34.590  13.371   7.436
 3215POPC   C1B42307  34.074  13.833   6.115
 3215POPC   C2B42308  34.176  13.960   6.532
 3215POPC   C3B42309  34.053  13.844   6.933
 3215POPC   C4B42310  34.249  13.770   7.321
 3216POPC   NC342311  21.419  21.562   5.065
 3216POPC   PO442312  21.549  21.120   5.518
 3216POPC   GL142313  21.531  21.308   5.915
 3216POPC   GL242314  21.507  21.681   5.948
 3216POPC   C1A42315  21.506  21.315   6.332
 3216POPC   D2A42316  21.238  21.300   6.651
 3216POPC   C3A42317  21.482  21.281   6.950
 3216POPC   C4A42318  21.331  21.399   7.315
 3216POPC   C1B42319  21.293  21.791   6.317
 3216POPC   C2B42320  21.534  21.752   6.681
 3216POPC   C3B42321  21.529  21.809   7.106
 3216POPC   C4B42322  21.102  21.933   7.263
 3217POPC   NC342323  24.247  33.341   5.537
 3217POPC   PO442324  24.652  33.956   5.509
 3217POPC   GL142325  24.429  33.845   5.884
 3217POPC   GL242326  24.603  33.520   5.860
 3217POPC   C1A42327  24.328  33.997   6.338
 3217POPC   D2A42328  24.570  34.162   6.720
 3217POPC   C3A42329  24.424  34.016   7.138
 3217POPC   C4A42330  24.386  33.564   7.207
 3217POPC   C1B42331  24.488  33.486   6.278
 3217POPC   C2B42332  24.462  33.622   6.686
 3217POPC   C3B42333  24.084  33.749   6.861
 3217POPC   C4B42334  23.878  33.558   7.249
 3218POPC   NC342335   6.011  35.363   5.296
 3218POPC   PO442336   5.271  35.476   5.364
 3218POPC   GL142337   5.538  35.297   5.751
 3218POPC   GL242338   5.724  35.057   5.727
 3218POPC   C1A42339   5.873  35.360   6.109
 3218POPC   D2A42340   6.086  35.266   6.527
 3218POPC   C3A42341   5.975  35.530   6.894
 3218POPC   C4A42342   6.186  35.704   7.258
 3218POPC   C1B42343   5.688  34.879   6.153
 3218POPC   C2B42344   5.635  34.988   6.562
 3218POPC   C3B42345   5.802  34.958   6.959
 3218POPC   C4B42346   5.619  35.253   7.246
 3219POPC   NC342347  28.768  23.789   5.169
 3219POPC   PO442348  29.224  23.477   5.593
 3219POPC   GL142349  29.188  23.802   5.879
 3219POPC   GL242350  28.848  23.955   5.808
 3219POPC   C1A42351  29.273  23.675   6.322
 3219POPC   D2A42352  29.150  23.783   6.725
 3219POPC   C3A42353  29.425  23.551   7.013
 3219POPC   C4A42354  29.492  23.626   7.455
 3219POPC   C1B42355  28.791  23.704   6.197
 3219POPC   C2B42356  28.748  23.410   6.553
 3219POPC   C3B42357  28.893  23.429   6.984
 3219POPC   C4B42358  29.022  23.762   7.244
 3220POPC   NC342359  43.344  17.772   5.639
 3220POPC   PO442360  43.063  17.249   5.309
 3220POPC   GL142361  43.000  17.385   5.783
 3220POPC   GL242362  42.899  17.729   5.888
 3220POPC   C1A42363  42.913  17.386   6.263
 3220POPC   D2A42364  43.167  17.472   6.642
 3220POPC   C3A42365  43.067  17.348   7.048
 3220POPC   C4A42366  42.688  17.500   7.228
 3220POPC   C1B42367  43.174  17.823   6.272
 3220POPC   C2B42368  43.451  17.906   6.641
 3220POPC   C3B42369  43.374  17.979   7.073
 3220POPC   C4B42370  43.115  17.766   7.339
 3221POPC   NC342371  18.539  44.807   5.073
 3221POPC   PO442372  18.170  44.453   5.593
 3221POPC   GL142373  18.436  44.567   5.888
 3221POPC   GL242374  18.560  44.845   5.635
 3221POPC   C1A42375  18.382  44.291   6.285
 3221POPC   D2A42376  18.128  44.244   6.656
 3221POPC   C3A42377  18.288  44.374   7.038
 3221POPC   C4A42378  18.454  44.349   7.447
 3221POPC   C1B42379  18.575   0.003   6.097
 3221POPC   C2B42380  18.407  44.811   6.484
 3221POPC   C3B42381  18.398  44.902   6.953
 3221POPC   C4B42382  18.227  44.779   7.353
 3222POPC   NC342383  38.580  10.088   5.336
 3222POPC   PO442384  38.486   9.462   5.369
 3222POPC   GL142385  38.484   9.621   5.800
 3222POPC   GL242386  38.350   9.323   5.924
 3222POPC   C1A42387  38.455   9.693   6.286
 3222POPC   D2A42388  38.234   9.706   6.713
 3222POPC   C3A42389  38.263  10.012   7.073
 3222POPC   C4A42390  38.367   9.934   7.502
 3222POPC   C1B42391  38.596   9.187   6.289
 3222POPC   C2B42392  38.582   9.314   6.734
 3222POPC   C3B42393  38.566   9.559   7.142
 3222POPC   C4B42394  38.432   9.419   7.572
 3223POPC   NC342395  24.427  30.292   5.409
 3223POPC   PO442396  24.501  30.944   5.414
 3223POPC   GL142397  24.433  30.689   5.797
 3223POPC   GL242398  24.627  30.369   5.879
 3223POPC   C1A42399  24.496  30.713   6.235
 3223POPC   D2A42400  24.678  30.622   6.633
 3223POPC   C3A42401  24.414  30.732   6.996
 3223POPC   C4A42402  24.692  30.833   7.336
 3223POPC   C1B42403  24.257  30.270   6.158
 3223POPC   C2B42404  24.196  30.427   6.570
 3223POPC   C3B42405  24.333  30.226   6.959
 3223POPC   C4B42406  24.313  30.413   7.382
 3224POPC   NC342407  38.888  33.273   5.504
 3224POPC   PO442408  38.230  32.879   5.403
 3224POPC   GL142409  38.268  33.125   5.761
 3224POPC   GL242410  38.597  33.043   5.902
 3224POPC   C1A42411  38.193  33.246   6.164
 3224POPC   D2A42412  38.426  33.130   6.488
 3224POPC   C3A42413  38.382  33.218   6.884
 3224POPC   C4A42414  38.485  33.196   7.304
 3224POPC   C1B42415  38.298  32.750   6.153
 3224POPC   C2B42416  38.185  32.709   6.614
 3224POPC   C3B42417  38.352  32.722   7.034
 3224POPC   C4B42418  38.291  32.369   7.285
 3225POPC   NC342419  28.892  36.935   5.542
 3225POPC   PO442420  29.315  36.498   5.358
 3225POPC   GL142421  29.273  36.673   5.794
 3225POPC   GL242422  29.319  37.061   5.824
 3225POPC   C1A42423  29.046  36.809   6.192
 3225POPC   D2A42424  28.973  36.630   6.591
 3225POPC   C3A42425  28.992  36.824   6.985
 3225POPC   C4A42426  29.294  36.717   7.247
 3225POPC   C1B42427  29.333  37.241   6.258
 3225POPC   C2B42428  29.328  37.089   6.700
 3225POPC   C3B42429  29.531  37.138   7.114
 3225POPC   C4B42430  29.450  37.044   7.592
 3226POPC   NC342431  25.098  12.928   5.269
 3226POPC   PO442432  25.467  12.534   5.588
 3226POPC   GL142433  25.258  12.844   5.795
 3226POPC   GL242434  24.910  12.779   5.741
 3226POPC   C1A42435  25.380  13.013   6.198
 3226POPC   D2A42436  25.639  13.160   6.526
 3226POPC   C3A42437  25.547  12.929   6.882
 3226POPC   C4A42438  25.362  12.747   7.209
 3226POPC   C1B42439  24.879  12.930   6.171
 3226POPC   C2B42440  24.743  12.826   6.595
 3226POPC   C3B42441  24.899  12.714   7.018
 3226POPC   C4B42442  24.960  12.886   7.500
 3227POPC   NC342443  37.749  30.152   5.342
 3227POPC   PO442444  37.467  29.513   5.429
 3227POPC   GL142445  37.559  29.794   5.776
 3227POPC   GL242446  37.929  29.859   5.803
 3227POPC   C1A42447  37.598  29.851   6.225
 3227POPC   D2A42448  37.627  29.966   6.666
 3227POPC   C3A42449  37.303  30.054   6.962
 3227POPC   C4A42450  37.396  29.783   7.276
 3227POPC   C1B42451  38.072  30.013   6.241
 3227POPC   C2B42452  38.124  30.036   6.710
 3227POPC   C3B42453  37.994  29.900   7.158
 3227POPC   C4B42454  38.054  30.086   7.593
 3228POPC   NC342455  25.593  21.926   5.347
 3228POPC   PO442456  25.148  22.415   5.463
 3228POPC   GL142457  25.373  22.171   5.770
 3228POPC   GL242458  25.396  22.474   5.915
 3228POPC   C1A42459  25.424  22.070   6.238
 3228POPC   D2A42460  25.266  21.813   6.614
 3228POPC   C3A42461  25.432  21.965   7.011
 3228POPC   C4A42462  25.270  22.011   7.409
 3228POPC   C1B42463  25.042  22.423   6.192
 3228POPC   C2B42464  25.176  22.348   6.622
 3228POPC   C3B42465  24.963  22.218   6.989
 3228POPC   C4B42466  24.687  22.497   7.231
 3229POPC   NC342467  23.859   6.366   5.436
 3229POPC   PO442468  23.367   6.816   5.347
 3229POPC   GL142469  23.527   6.680   5.748
 3229POPC   GL242470  23.420   6.359   5.853
 3229POPC   C1A42471  23.670   6.801   6.162
 3229POPC   D2A42472  23.847   6.886   6.576
 3229POPC   C3A42473  23.560   6.750   6.888
 3229POPC   C4A42474  23.558   6.648   7.308
 3229POPC   C1B42475  23.617   6.294   6.239
 3229POPC   C2B42476  23.789   6.363   6.619
 3229POPC   C3B42477  23.765   6.195   6.992
 3229POPC   C4B42478  23.821   6.234   7.391
 3230POPC   NC342479  38.102  36.217   5.486
 3230POPC   PO442480  37.433  35.954   5.310
 3230POPC   GL142481  37.626  36.138   5.678
 3230POPC   GL242482  37.786  36.447   5.805
 3230POPC   C1A42483  37.564  36.092   6.120
 3230POPC   D2A42484  37.544  35.947   6.550
 3230POPC   C3A42485  37.534  36.226   6.888
 3230POPC   C4A42486  37.632  36.111   7.300
 3230POPC   C1B42487  37.884  36.480   6.260
 3230POPC   C2B42488  37.790  36.692   6.680
 3230POPC   C3B42489  37.856  36.571   7.113
 3230POPC   C4B42490  37.462  36.602   7.316
 3231POPC   NC342491  40.801  37.845   5.266
 3231POPC   PO442492  40.728  37.255   5.602
 3231POPC   GL142493  40.876  37.649   5.756
 3231POPC   GL242494  40.744  37.980   5.750
 3231POPC   C1A42495  41.007  37.753   6.179
 3231POPC   D2A42496  41.091  37.479   6.548
 3231POPC   C3A42497  40.949  37.538   6.973
 3231POPC   C4A42498  41.071  37.746   7.360
 3231POPC   C1B42499  40.510  37.846   6.071
 3231POPC   C2B42500  40.581  37.683   6.461
 3231POPC   C3B42501  40.498  37.763   6.856
 3231POPC   C4B42502  40.480  37.506   7.208
 3232POPC   NC342503  10.397  35.226   5.328
 3232POPC   PO442504  10.650  35.795   5.486
 3232POPC   GL142505  10.379  35.535   5.750
 3232POPC   GL242506  10.560  35.236   5.834
 3232POPC   C1A42507  10.201  35.361   6.156
 3232POPC   D2A42508  10.190  35.160   6.568
 3232POPC   C3A42509  10.369  35.348   6.963
 3232POPC   C4A42510  10.556  35.312   7.379
 3232POPC   C1B42511  10.654  35.581   6.192
 3232POPC   C2B42512  10.695  35.750   6.653
 3232POPC   C3B42513  10.849  35.593   7.078
 3232POPC   C4B42514  10.961  35.591   7.530
 3233POPC   NC342515  26.011  41.795   5.544
 3233POPC   PO442516  26.215  42.402   5.517
 3233POPC   GL142517  25.925  42.368   5.872
 3233POPC   GL242518  25.703  42.679   5.804
 3233POPC   C1A42519  25.877  42.231   6.336
 3233POPC   D2A42520  25.705  42.317   6.766
 3233POPC   C3A42521  25.706  42.016   7.156
 3233POPC   C4A42522  25.993  41.948   7.528
 3233POPC   C1B42523  25.905  42.748   6.215
 3233POPC   C2B42524  26.182  42.610   6.548
 3233POPC   C3B42525  26.403  42.455   6.907
 3233POPC   C4B42526  26.179  42.367   7.287
 3234POPC   NC342527  22.530   4.880   5.420
 3234POPC   PO442528  22.022   5.414   5.353
 3234POPC   GL142529  22.289   5.265   5.660
 3234POPC   GL242530  22.088   4.953   5.695
 3234POPC   C1A42531  22.360   5.181   6.094
 3234POPC   D2A42532  22.408   5.161   6.546
 3234POPC   C3A42533  22.095   5.375   6.840
 3234POPC   C4A42534  22.209   5.326   7.265
 3234POPC   C1B42535  22.061   4.725   6.086
 3234POPC   C2B42536  22.104   4.699   6.546
 3234POPC   C3B42537  22.221   4.884   6.944
 3234POPC   C4B42538  22.188   4.833   7.374
 3235POPC   NC342539  27.571  10.368   5.415
 3235POPC   PO442540  28.065  10.779   5.273
 3235POPC   GL142541  27.801  10.781   5.708
 3235POPC   GL242542  27.432  10.656   5.811
 3235POPC   C1A42543  27.707  10.885   6.179
 3235POPC   D2A42544  27.588  10.681   6.583
 3235POPC   C3A42545  27.745  10.713   6.996
 3235POPC   C4A42546  27.968  10.357   7.079
 3235POPC   C1B42547  27.578  10.394   6.139
 3235POPC   C2B42548  27.467  10.181   6.496
 3235POPC   C3B42549  27.440  10.267   6.928
 3235POPC   C4B42550  27.546  10.276   7.370
 3236POPC   NC342551  22.069  42.465   5.418
 3236POPC   PO442552  22.435  41.872   5.417
 3236POPC   GL142553  22.321  42.140   5.764
 3236POPC   GL242554  21.968  42.154   5.807
 3236POPC   C1A42555  22.267  42.250   6.212
 3236POPC   D2A42556  22.117  42.144   6.628
 3236POPC   C3A42557  22.350  42.367   6.937
 3236POPC   C4A42558  22.729  42.281   7.139
 3236POPC   C1B42559  21.800  42.423   6.163
 3236POPC   C2B42560  21.888  42.595   6.583
 3236POPC   C3B42561  21.821  42.423   6.999
 3236POPC   C4B42562  22.055  42.648   7.269
 3237POPC   NC342563  39.476  36.789   5.408
 3237POPC   PO442564  38.786  37.017   5.406
 3237POPC   GL142565  39.089  36.862   5.751
 3237POPC   GL242566  39.373  37.124   5.811
 3237POPC   C1A42567  39.191  36.799   6.210
 3237POPC   D2A42568  39.045  36.599   6.625
 3237POPC   C3A42569  39.170  36.772   7.047
 3237POPC   C4A42570  39.200  36.719   7.503
 3237POPC   C1B42571  39.713  37.291   6.091
 3237POPC   C2B42572  39.813  37.283   6.516
 3237POPC   C3B42573  39.622  37.241   6.911
 3237POPC   C4B42574  39.521  37.072   7.295
 3238POPC   NC342575  24.015   5.645   5.615
 3238POPC   PO442576  23.504   6.066   5.444
 3238POPC   GL142577  23.603   5.847   5.806
 3238POPC   GL242578  23.872   6.080   5.872
 3238POPC   C1A42579  23.426   5.733   6.196
 3238POPC   D2A42580  23.528   5.908   6.587
 3238POPC   C3A42581  23.659   5.675   6.923
 3238POPC   C4A42582  23.510   5.841   7.310
 3238POPC   C1B42583  23.913   5.844   6.247
 3238POPC   C2B42584  24.048   5.560   6.557
 3238POPC   C3B42585  24.218   5.548   6.921
 3238POPC   C4B42586  24.031   5.783   7.251
 3239POPC   NC342587  18.802  41.361   5.333
 3239POPC   PO442588  19.134  40.895   5.568
 3239POPC   GL142589  18.913  40.872   5.907
 3239POPC   GL242590  18.860  41.237   5.855
 3239POPC   C1A42591  18.909  40.691   6.357
 3239POPC   D2A42592  19.237  40.613   6.682
 3239POPC   C3A42593  19.303  40.472   7.125
 3239POPC   C4A42594  18.998  40.719   7.268
 3239POPC   C1B42595  19.035  41.225   6.257
 3239POPC   C2B42596  18.930  41.120   6.687
 3239POPC   C3B42597  19.148  41.153   7.077
 3239POPC   C4B42598  19.403  40.973   7.438
 3240POPC   NC342599  38.808  34.663   5.566
 3240POPC   PO442600  39.400  34.423   5.431
 3240POPC   GL142601  39.211  34.510   5.840
 3240POPC   GL242602  38.951  34.246   5.901
 3240POPC   C1A42603  39.181  34.698   6.254
 3240POPC   D2A42604  39.335  34.535   6.642
 3240POPC   C3A42605  39.615  34.729   6.929
 3240POPC   C4A42606  39.398  34.628   7.321
 3240POPC   C1B42607  38.695  34.487   6.247
 3240POPC   C2B42608  38.785  34.722   6.660
 3240POPC   C3B42609  38.906  34.596   7.101
 3240POPC   C4B42610  38.901  34.635   7.575
 3241POPC   NC342611  11.514   8.268   5.598
 3241POPC   PO442612  10.964   7.940   5.755
 3241POPC   GL142613  10.959   8.144   6.091
 3241POPC   GL242614  11.184   8.431   6.027
 3241POPC   C1A42615  11.029   8.221   6.495
 3241POPC   D2A42616  11.288   8.528   6.604
 3241POPC   C3A42617  11.414   8.390   6.973
 3241POPC   C4A42618  11.287   8.527   7.394
 3241POPC   C1B42619  11.463   8.138   6.234
 3241POPC   C2B42620  11.534   7.862   6.551
 3241POPC   C3B42621  11.741   7.944   6.925
 3241POPC   C4B42622  11.577   8.103   7.337
 3242POPC   NC342623  19.222   2.796   5.377
 3242POPC   PO442624  19.150   2.214   5.281
 3242POPC   GL142625  19.242   2.416   5.750
 3242POPC   GL242626  19.256   2.802   5.873
 3242POPC   C1A42627  19.005   2.500   6.189
 3242POPC   D2A42628  18.989   2.708   6.586
 3242POPC   C3A42629  18.838   2.461   6.880
 3242POPC   C4A42630  18.691   2.572   7.265
 3242POPC   C1B42631  18.992   3.030   6.193
 3242POPC   C2B42632  19.017   3.221   6.634
 3242POPC   C3B42633  18.902   3.093   7.041
 3242POPC   C4B42634  19.158   2.762   7.125
 3243POPC   NC342635   0.680  29.752   5.610
 3243POPC   PO442636   0.074  30.136   5.478
 3243POPC   GL142637   0.284  29.987   5.834
 3243POPC   GL242638   0.150  29.685   5.852
 3243POPC   C1A42639   0.616  30.134   6.161
 3243POPC   D2A42640   0.866  30.247   6.548
 3243POPC   C3A42641   0.683  30.167   6.965
 3243POPC   C4A42642   0.423  29.990   7.342
 3243POPC   C1B42643   0.331  29.706   6.256
 3243POPC   C2B42644   0.566  29.807   6.585
 3243POPC   C3B42645   0.541  29.682   6.968
 3243POPC   C4B42646   0.616  29.384   7.237
 3244POPC   NC342647  41.026  24.530   5.366
 3244POPC   PO442648  40.342  24.614   5.405
 3244POPC   GL142649  40.688  24.492   5.763
 3244POPC   GL242650  40.907  24.171   5.733
 3244POPC   C1A42651  40.837  24.511   6.239
 3244POPC   D2A42652  41.032  24.699   6.652
 3244POPC   C3A42653  40.802  24.717   7.085
 3244POPC   C4A42654  40.621  24.791   7.550
 3244POPC   C1B42655  41.012  24.007   6.155
 3244POPC   C2B42656  40.911  24.124   6.570
 3244POPC   C3B42657  41.025  24.256   6.947
 3244POPC   C4B42658  40.826  24.271   7.324
 3245POPC   NC342659  29.278  18.465   5.523
 3245POPC   PO442660  29.197  19.089   5.378
 3245POPC   GL142661  29.150  19.027   5.838
 3245POPC   GL242662  28.887  19.297   5.921
 3245POPC   C1A42663  29.043  19.045   6.312
 3245POPC   D2A42664  28.870  19.444   6.496
 3245POPC   C3A42665  28.805  19.391   6.957
 3245POPC   C4A42666  29.012  19.045   7.248
 3245POPC   C1B42667  29.314  19.433   6.083
 3245POPC   C2B42668  29.525  19.283   6.431
 3245POPC   C3B42669  29.229  19.207   6.778
 3245POPC   C4B42670  29.259  19.502   7.152
 3246POPC   NC342671  18.132   6.107   5.611
 3246POPC   PO442672  18.747   5.767   5.596
 3246POPC   GL142673  18.367   5.662   5.856
 3246POPC   GL242674  18.000   5.651   5.996
 3246POPC   C1A42675  18.360   5.912   6.251
 3246POPC   D2A42676  18.511   6.177   6.597
 3246POPC   C3A42677  18.437   6.018   7.024
 3246POPC   C4A42678  18.043   6.149   7.245
 3246POPC   C1B42679  17.851   5.960   6.310
 3246POPC   C2B42680  18.011   5.963   6.733
 3246POPC   C3B42681  18.069   5.664   7.082
 3246POPC   C4B42682  17.978   5.706   7.495
 3247POPC   NC342683  29.453  35.327   5.424
 3247POPC   PO442684  28.821  35.332   5.488
 3247POPC   GL142685  29.128  35.406   5.823
 3247POPC   GL242686  29.381  35.143   5.893
 3247POPC   C1A42687  29.050  35.283   6.245
 3247POPC   D2A42688  28.762  35.213   6.568
 3247POPC   C3A42689  28.924  35.367   6.912
 3247POPC   C4A42690  28.994  35.301   7.317
 3247POPC   C1B42691  29.560  35.407   6.248
 3247POPC   C2B42692  29.719  35.385   6.698
 3247POPC   C3B42693  29.454  35.358   7.099
 3247POPC   C4B42694  29.453  35.344   7.589
 3248POPC   NC342695  32.364  36.969   5.360
 3248POPC   PO442696  31.788  36.507   5.430
 3248POPC   GL142697  32.109  36.727   5.729
 3248POPC   GL242698  32.117  37.127   5.766
 3248POPC   C1A42699  32.410  36.876   6.076
 3248POPC   D2A42700  32.292  36.796   6.492
 3248POPC   C3A42701  32.429  36.842   6.888
 3248POPC   C4A42702  32.217  36.755   7.288
 3248POPC   C1B42703  32.091  37.248   6.219
 3248POPC   C2B42704  32.333  37.274   6.600
 3248POPC   C3B42705  32.087  37.205   6.979
 3248POPC   C4B42706  32.263  37.263   7.366
 3249POPC   NC342707  28.909   6.674   5.272
 3249POPC   PO442708  29.422   6.438   5.543
 3249POPC   GL142709  29.173   6.549   5.855
 3249POPC   GL242710  29.030   6.877   5.729
 3249POPC   C1A42711  29.259   6.586   6.306
 3249POPC   D2A42712  29.160   6.385   6.643
 3249POPC   C3A42713  29.085   6.600   7.018
 3249POPC   C4A42714  29.446   6.551   7.259
 3249POPC   C1B42715  29.288   7.029   6.066
 3249POPC   C2B42716  29.250   7.053   6.524
 3249POPC   C3B42717  29.290   7.126   6.961
 3249POPC   C4B42718  29.257   7.006   7.387
 3250POPC   NC342719   4.234  24.708   5.163
 3250POPC   PO442720   4.353  25.319   5.371
 3250POPC   GL142721   4.358  25.395   5.801
 3250POPC   GL242722   4.022  25.356   5.848
 3250POPC   C1A42723   4.447  25.351   6.241
 3250POPC   D2A42724   4.292  25.446   6.637
 3250POPC   C3A42725   4.501  25.333   6.964
 3250POPC   C4A42726   4.325  25.242   7.381
 3250POPC   C1B42727   4.188  24.961   6.054
 3250POPC   C2B42728   4.268  24.929   6.539
 3250POPC   C3B42729   4.086  25.045   6.967
 3250POPC   C4B42730   3.871  24.960   7.372
 3251POPC   NC342731  35.277  40.114   5.513
 3251POPC   PO442732  35.080  39.495   5.789
 3251POPC   GL142733  35.276  39.820   5.920
 3251POPC   GL242734  34.960  39.994   5.884
 3251POPC   C1A42735  35.580  40.071   6.138
 3251POPC   D2A42736  35.793  39.935   6.487
 3251POPC   C3A42737  35.557  40.055   6.867
 3251POPC   C4A42738  35.617  40.047   7.321
 3251POPC   C1B42739  35.022  40.035   6.299
 3251POPC   C2B42740  34.831  40.363   6.475
 3251POPC   C3B42741  34.940  40.375   6.860
 3251POPC   C4B42742  35.124  40.069   7.157
 3252POPC   NC342743   8.567  32.944   5.322
 3252POPC   PO442744   7.947  33.186   5.512
 3252POPC   GL142745   8.029  32.944   5.861
 3252POPC   GL242746   8.330  32.853   5.791
 3252POPC   C1A42747   7.999  33.071   6.276
 3252POPC   D2A42748   7.807  33.144   6.649
 3252POPC   C3A42749   8.161  33.087   6.876
 3252POPC   C4A42750   8.322  33.038   7.244
 3252POPC   C1B42751   8.461  33.199   6.083
 3252POPC   C2B42752   8.504  33.277   6.537
 3252POPC   C3B42753   8.691  33.251   6.962
 3252POPC   C4B42754   8.630  33.380   7.411
 3253POPC   NC342755  16.479  41.119   5.436
 3253POPC   PO442756  17.034  40.671   5.358
 3253POPC   GL142757  16.793  40.741   5.715
 3253POPC   GL242758  16.903  41.112   5.729
 3253POPC   C1A42759  16.639  40.525   6.124
 3253POPC   D2A42760  16.554  40.612   6.569
 3253POPC   C3A42761  16.810  40.598   6.935
 3253POPC   C4A42762  16.490  40.523   7.226
 3253POPC   C1B42763  16.868  40.978   6.169
 3253POPC   C2B42764  17.040  40.919   6.588
 3253POPC   C3B42765  16.960  41.099   7.008
 3253POPC   C4B42766  16.595  41.042   7.269
 3254POPC   NC342767   3.148  38.492   5.469
 3254POPC   PO442768   2.664  38.149   5.353
 3254POPC   GL142769   2.582  38.474   5.684
 3254POPC   GL242770   2.860  38.359   5.889
 3254POPC   C1A42771   2.488  38.612   6.122
 3254POPC   D2A42772   2.680  38.339   6.454
 3254POPC   C3A42773   2.817  38.519   6.847
 3254POPC   C4A42774   2.578  38.546   7.200
 3254POPC   C1B42775   3.090  38.559   6.218
 3254POPC   C2B42776   3.277  38.572   6.628
 3254POPC   C3B42777   3.278  38.730   7.061
 3254POPC   C4B42778   3.130  38.408   7.333
 3255POPC   NC342779  36.235   1.231   5.288
 3255POPC   PO442780  36.320   0.651   5.212
 3255POPC   GL142781  36.235   0.927   5.704
 3255POPC   GL242782  36.053   1.279   5.743
 3255POPC   C1A42783  36.254   1.129   6.172
 3255POPC   D2A42784  36.002   1.142   6.570
 3255POPC   C3A42785  36.255   1.219   6.954
 3255POPC   C4A42786  36.214   1.162   7.403
 3255POPC   C1B42787  35.846   1.424   6.111
 3255POPC   C2B42788  35.862   1.639   6.506
 3255POPC   C3B42789  35.883   1.575   6.939
 3255POPC   C4B42790  35.870   1.544   7.394
 3256POPC   NC342791  35.370  15.692   5.673
 3256POPC   PO442792  35.497  15.111   5.590
 3256POPC   GL142793  35.254  15.023   5.932
 3256POPC   GL242794  35.254  15.357   6.030
 3256POPC   C1A42795  35.348  14.981   6.360
 3256POPC   D2A42796  35.426  15.125   6.772
 3256POPC   C3A42797  35.202  14.896   7.109
 3256POPC   C4A42798  35.211  15.056   7.551
 3256POPC   C1B42799  35.191  15.631   6.383
 3256POPC   C2B42800  35.367  15.643   6.796
 3256POPC   C3B42801  35.230  15.406   7.163
 3256POPC   C4B42802  35.151  15.572   7.568
 3257POPC   NC342803  24.043  43.216   5.513
 3257POPC   PO442804  24.620  43.405   5.190
 3257POPC   GL142805  24.553  43.278   5.676
 3257POPC   GL242806  24.386  42.943   5.789
 3257POPC   C1A42807  24.638  43.220   6.183
 3257POPC   D2A42808  24.834  43.202   6.623
 3257POPC   C3A42809  24.531  43.206   6.968
 3257POPC   C4A42810  24.180  43.470   7.142
 3257POPC   C1B42811  24.456  42.733   6.189
 3257POPC   C2B42812  24.419  42.872   6.593
 3257POPC   C3B42813  24.429  42.672   7.014
 3257POPC   C4B42814  24.471  42.709   7.476
 3258POPC   NC342815  25.163  20.276   5.557
 3258POPC   PO442816  25.068  20.934   5.559
 3258POPC   GL142817  25.412  20.840   5.850
 3258POPC   GL242818  25.401  20.511   5.923
 3258POPC   C1A42819  25.625  20.878   6.249
 3258POPC   D2A42820  25.599  20.756   6.658
 3258POPC   C3A42821  25.186  20.796   6.801
 3258POPC   C4A42822  25.332  20.786   7.185
 3258POPC   C1B42823  25.184  20.600   6.279
 3258POPC   C2B42824  25.302  20.354   6.590
 3258POPC   C3B42825  25.318  20.301   6.969
 3258POPC   C4B42826  25.043  20.354   7.280
 3259POPC   NC342827   7.824  40.373   5.498
 3259POPC   PO442828   7.116  40.152   5.394
 3259POPC   GL142829   7.151  40.013   5.798
 3259POPC   GL242830   7.526  40.011   5.887
 3259POPC   C1A42831   7.103  40.143   6.203
 3259POPC   D2A42832   7.477  40.308   6.390
 3259POPC   C3A42833   7.582  40.189   6.781
 3259POPC   C4A42834   7.466  40.118   7.178
 3259POPC   C1B42835   7.469  39.811   6.320
 3259POPC   C2B42836   7.182  39.909   6.671
 3259POPC   C3B42837   7.185  39.709   7.054
 3259POPC   C4B42838   7.171  39.382   7.327
 3260POPC   NC342839  10.857   5.329   5.513
 3260POPC   PO442840  10.660   4.696   5.513
 3260POPC   GL142841  10.579   4.979   5.897
 3260POPC   GL242842  10.297   5.218   5.851
 3260POPC   C1A42843  10.559   5.303   6.279
 3260POPC   D2A42844  10.513   5.531   6.709
 3260POPC   C3A42845  10.783   5.272   6.981
 3260POPC   C4A42846  10.682   4.892   7.214
 3260POPC   C1B42847  10.083   5.137   6.265
 3260POPC   C2B42848  10.239   5.048   6.667
 3260POPC   C3B42849  10.293   5.193   7.076
 3260POPC   C4B42850   9.979   5.189   7.323
 3261POPC   NC342851  39.989  17.303   5.418
 3261POPC   PO442852  40.575  17.281   5.621
 3261POPC   GL142853  40.304  17.267   5.938
 3261POPC   GL242854  40.089  17.540   5.868
 3261POPC   C1A42855  40.260  17.385   6.363
 3261POPC   D2A42856  39.981  17.530   6.671
 3261POPC   C3A42857  40.027  17.374   7.078
 3261POPC   C4A42858  40.101  17.436   7.514
 3261POPC   C1B42859  39.781  17.551   6.182
 3261POPC   C2B42860  39.593  17.783   6.503
 3261POPC   C3B42861  39.589  17.751   6.947
 3261POPC   C4B42862  39.776  17.799   7.359
 3262POPC   NC342863  11.943  18.766   5.578
 3262POPC   PO442864  12.409  19.093   5.194
 3262POPC   GL142865  12.408  18.969   5.711
 3262POPC   GL242866  12.460  18.626   5.787
 3262POPC   C1A42867  12.199  19.023   6.156
 3262POPC   D2A42868  11.945  19.171   6.525
 3262POPC   C3A42869  12.155  19.191   6.929
 3262POPC   C4A42870  11.983  19.360   7.315
 3262POPC   C1B42871  12.578  18.698   6.212
 3262POPC   C2B42872  12.335  18.765   6.620
 3262POPC   C3B42873  11.914  18.741   6.833
 3262POPC   C4B42874  11.698  18.829   7.244
 3263POPC   NC342875   9.217  10.047   5.116
 3263POPC   PO442876   8.753   9.829   5.570
 3263POPC   GL142877   8.844   9.629   5.891
 3263POPC   GL242878   9.089   9.417   5.797
 3263POPC   C1A42879   8.704   9.486   6.263
 3263POPC   D2A42880   8.631   9.733   6.606
 3263POPC   C3A42881   8.857   9.780   6.971
 3263POPC   C4A42882   9.166  10.056   7.135
 3263POPC   C1B42883   9.210   9.504   6.227
 3263POPC   C2B42884   9.074   9.417   6.660
 3263POPC   C3B42885   9.219   9.461   7.111
 3263POPC   C4B42886   9.132   9.682   7.495
 3264POPC   NC342887  36.951  32.741   5.474
 3264POPC   PO442888  36.484  33.264   5.500
 3264POPC   GL142889  36.821  33.128   5.791
 3264POPC   GL242890  37.120  33.330   5.873
 3264POPC   C1A42891  36.866  32.980   6.222
 3264POPC   D2A42892  36.890  33.192   6.629
 3264POPC   C3A42893  36.595  33.133   6.983
 3264POPC   C4A42894  36.527  33.041   7.409
 3264POPC   C1B42895  37.331  33.195   6.239
 3264POPC   C2B42896  37.393  33.093   6.657
 3264POPC   C3B42897  37.188  33.161   7.046
 3264POPC   C4B42898  37.365  33.271   7.388
 3265POPC   NC342899   0.957  30.713   5.610
 3265POPC   PO442900   1.656  30.634   5.428
 3265POPC   GL142901   1.485  30.621   5.844
 3265POPC   GL242902   1.339  30.936   5.864
 3265POPC   C1A42903   1.207  30.532   6.209
 3265POPC   D2A42904   1.064  30.721   6.589
 3265POPC   C3A42905   1.229  30.560   6.978
 3265POPC   C4A42906   1.171  30.677   7.405
 3265POPC   C1B42907   1.401  31.030   6.303
 3265POPC   C2B42908   1.546  30.935   6.726
 3265POPC   C3B42909   1.357  31.058   7.123
 3265POPC   C4B42910   1.454  31.062   7.596
 3266POPC   NC342911  26.527  39.087   5.510
 3266POPC   PO442912  25.873  39.289   5.443
 3266POPC   GL142913  26.048  39.091   5.783
 3266POPC   GL242914  25.708  39.115   5.903
 3266POPC   C1A42915  26.131  39.122   6.204
 3266POPC   D2A42916  26.053  39.390   6.540
 3266POPC   C3A42917  26.152  39.244   6.918
 3266POPC   C4A42918  26.353  39.540   7.177
 3266POPC   C1B42919  25.622  39.168   6.346
 3266POPC   C2B42920  25.637  39.174   6.798
 3266POPC   C3B42921  25.720  39.229   7.223
 3266POPC   C4B42922  25.537  39.271   7.627
 3267POPC   NC342923  39.516  26.520   5.018
 3267POPC   PO442924  39.299  27.003   5.498
 3267POPC   GL142925  39.235  26.954   5.923
 3267POPC   GL242926  39.238  26.603   5.938
 3267POPC   C1A42927  39.224  26.945   6.390
 3267POPC   D2A42928  39.012  26.741   6.720
 3267POPC   C3A42929  39.095  26.725   7.161
 3267POPC   C4A42930  38.782  26.701   7.492
 3267POPC   C1B42931  39.575  26.619   6.203
 3267POPC   C2B42932  39.482  26.514   6.601
 3267POPC   C3B42933  39.645  26.651   6.962
 3267POPC   C4B42934  39.533  26.616   7.359
 3268POPC   NC342935  24.957  33.518   5.453
 3268POPC   PO442936  25.442  34.004   5.399
 3268POPC   GL142937  25.355  33.728   5.750
 3268POPC   GL242938  25.028  33.833   5.842
 3268POPC   C1A42939  25.384  33.752   6.212
 3268POPC   D2A42940  25.375  33.498   6.580
 3268POPC   C3A42941  25.349  33.708   6.957
 3268POPC   C4A42942  25.563  33.659   7.317
 3268POPC   C1B42943  24.823  33.893   6.226
 3268POPC   C2B42944  24.954  33.806   6.617
 3268POPC   C3B42945  24.836  33.763   7.025
 3268POPC   C4B42946  24.937  34.004   7.396
 3269POPC   NC342947  32.986   9.553   5.422
 3269POPC   PO442948  33.033  10.095   5.036
 3269POPC   GL142949  32.926  10.047   5.549
 3269POPC   GL242950  33.209   9.907   5.752
 3269POPC   C1A42951  32.809   9.871   6.034
 3269POPC   D2A42952  32.964   9.922   6.485
 3269POPC   C3A42953  32.948   9.721   6.911
 3269POPC   C4A42954  32.831   9.800   7.347
 3269POPC   C1B42955  33.324   9.646   6.136
 3269POPC   C2B42956  33.249   9.489   6.559
 3269POPC   C3B42957  33.441   9.532   6.957
 3269POPC   C4B42958  33.353   9.779   7.301
 3270POPC   NC342959  32.284  34.391   5.357
 3270POPC   PO442960  31.932  34.969   5.415
 3270POPC   GL142961  31.983  34.627   5.769
 3270POPC   GL242962  32.320  34.451   5.863
 3270POPC   C1A42963  32.048  34.662   6.235
 3270POPC   D2A42964  32.165  34.630   6.670
 3270POPC   C3A42965  31.924  34.761   7.022
 3270POPC   C4A42966  32.050  34.579   7.410
 3270POPC   C1B42967  32.421  34.320   6.313
 3270POPC   C2B42968  32.577  34.342   6.770
 3270POPC   C3B42969  32.469  34.565   7.140
 3270POPC   C4B42970  32.586  34.755   7.563
 3271POPC   NC342971  27.630   6.298   5.568
 3271POPC   PO442972  27.477   6.811   5.129
 3271POPC   GL142973  27.520   6.790   5.630
 3271POPC   GL242974  27.264   6.943   5.772
 3271POPC   C1A42975  27.593   6.662   6.133
 3271POPC   D2A42976  27.415   6.445   6.561
 3271POPC   C3A42977  27.621   6.295   6.995
 3271POPC   C4A42978  27.757   6.350   7.502
 3271POPC   C1B42979  27.104   6.772   6.154
 3271POPC   C2B42980  27.005   6.831   6.578
 3271POPC   C3B42981  27.182   6.737   6.955
 3271POPC   C4B42982  27.401   6.646   7.301
 3272POPC   NC342983  38.182   2.490   5.164
 3272POPC   PO442984  38.663   2.632   5.614
 3272POPC   GL142985  38.517   2.725   5.998
 3272POPC   GL242986  38.206   2.792   6.113
 3272POPC   C1A42987  38.635   2.659   6.405
 3272POPC   D2A42988  38.464   2.343   6.632
 3272POPC   C3A42989  38.323   2.540   6.997
 3272POPC   C4A42990  38.418   2.931   7.188
 3272POPC   C1B42991  38.071   2.441   6.281
 3272POPC   C2B42992  37.943   2.359   6.685
 3272POPC   C3B42993  37.894   2.774   6.844
 3272POPC   C4B42994  37.921   2.877   7.271
 3273POPC   NC342995  19.133  16.840   5.240
 3273POPC   PO442996  18.656  16.655   5.655
 3273POPC   GL142997  19.023  16.884   5.772
 3273POPC   GL242998  19.262  16.614   5.787
 3273POPC   C1A42999  19.274  17.082   6.102
 3273POPC   D2A43000  19.460  16.931   6.454
 3273POPC   C3A43001  19.427  16.983   6.867
 3273POPC   C4A43002  19.155  17.173   7.175
 3273POPC   C1B43003  19.109  16.611   6.250
 3273POPC   C2B43004  19.058  16.628   6.716
 3273POPC   C3B43005  19.142  16.626   7.163
 3273POPC   C4B43006  19.436  16.461   7.494
 3274POPC   NC343007  19.574   2.106   5.145
 3274POPC   PO443008  20.176   1.757   5.338
 3274POPC   GL143009  19.911   1.776   5.710
 3274POPC   GL243010  19.827   2.121   5.628
 3274POPC   C1A43011  19.853   1.745   6.186
 3274POPC   D2A43012  19.674   1.940   6.582
 3274POPC   C3A43013  19.837   1.884   7.000
 3274POPC   C4A43014  19.743   1.811   7.425
 3274POPC   C1B43015  19.971   2.238   6.056
 3274POPC   C2B43016  19.892   2.397   6.460
 3274POPC   C3B43017  19.910   2.368   6.879
 3274POPC   C4B43018  19.860   2.312   7.324
 3275POPC   NC343019  41.392  36.067   5.292
 3275POPC   PO443020  41.524  36.695   5.371
 3275POPC   GL143021  41.324  36.374   5.683
 3275POPC   GL243022  41.585  36.107   5.773
 3275POPC   C1A43023  41.283  36.250   6.145
 3275POPC   D2A43024  41.240  36.065   6.571
 3275POPC   C3A43025  41.423  36.288   6.953
 3275POPC   C4A43026  41.459  36.121   7.388
 3275POPC   C1B43027  41.714  35.905   6.181
 3275POPC   C2B43028  41.899  35.921   6.611
 3275POPC   C3B43029  41.779  35.901   7.049
 3275POPC   C4B43030  42.006  35.910   7.458
 3276POPC   NC343031   2.298  28.616   5.383
 3276POPC   PO443032   2.532  28.004   5.594
 3276POPC   GL143033   2.238  28.174   5.952
 3276POPC   GL243034   2.122  28.491   5.872
 3276POPC   C1A43035   1.916  28.177   6.281
 3276POPC   D2A43036   1.888  27.929   6.635
 3276POPC   C3A43037   1.975  28.139   6.985
 3276POPC   C4A43038   2.083  28.396   7.283
 3276POPC   C1B43039   1.769  28.630   6.118
 3276POPC   C2B43040   1.627  28.593   6.501
 3276POPC   C3B43041   1.804  28.620   6.887
 3276POPC   C4B43042   1.773  28.813   7.247
 3277POPC   NC343043  38.114   6.072   5.374
 3277POPC   PO443044  38.675   5.770   5.436
 3277POPC   GL143045  38.561   5.953   5.842
 3277POPC   GL243046  38.225   6.102   5.871
 3277POPC   C1A43047  38.464   5.843   6.281
 3277POPC   D2A43048  38.414   5.625   6.666
 3277POPC   C3A43049  38.585   5.948   6.908
 3277POPC   C4A43050  38.386   6.100   7.252
 3277POPC   C1B43051  38.032   6.100   6.266
 3277POPC   C2B43052  38.142   6.107   6.691
 3277POPC   C3B43053  38.022   5.839   7.013
 3277POPC   C4B43054  37.997   5.817   7.458
 3278POPC   NC343055  15.036  40.408   5.405
 3278POPC   PO443056  15.403  41.000   5.327
 3278POPC   GL143057  15.160  40.839   5.686
 3278POPC   GL243058  15.348  40.567   5.790
 3278POPC   C1A43059  14.994  40.767   6.116
 3278POPC   D2A43060  14.901  40.662   6.555
 3278POPC   C3A43061  15.032  40.968   6.874
 3278POPC   C4A43062  15.375  40.865   7.111
 3278POPC   C1B43063  15.522  40.476   6.197
 3278POPC   C2B43064  15.426  40.327   6.620
 3278POPC   C3B43065  15.201  40.384   6.987
 3278POPC   C4B43066  15.242  40.271   7.421
 3279POPC   NC343067  18.616  29.331   5.542
 3279POPC   PO443068  18.786  28.700   5.570
 3279POPC   GL143069  18.957  29.026   5.857
 3279POPC   GL243070  19.181  29.346   5.778
 3279POPC   C1A43071  19.213  29.021   6.238
 3279POPC   D2A43072  19.174  29.092   6.684
 3279POPC   C3A43073  18.766  28.996   6.877
 3279POPC   C4A43074  18.872  28.898   7.297
 3279POPC   C1B43075  18.938  29.475   6.157
 3279POPC   C2B43076  18.790  29.504   6.588
 3279POPC   C3B43077  18.942  29.437   7.006
 3279POPC   C4B43078  19.014  29.425   7.423
 3280POPC   NC343079   0.242  34.741   5.165
 3280POPC   PO443080  44.623  34.467   5.492
 3280POPC   GL143081  44.677  34.261   5.851
 3280POPC   GL243082  44.343  34.159   5.861
 3280POPC   C1A43083  44.694  34.492   6.225
 3280POPC   D2A43084  44.480  34.663   6.579
 3280POPC   C3A43085  44.797  34.838   6.813
 3280POPC   C4A43086  44.780  34.901   7.239
 3280POPC   C1B43087  44.245  34.263   6.256
 3280POPC   C2B43088  44.266  34.116   6.645
 3280POPC   C3B43089  44.248  34.362   6.983
 3280POPC   C4B43090  44.299  34.774   7.114
 3281POPC   NC343091  35.205   4.988   5.520
 3281POPC   PO443092  35.572   5.519   5.487
 3281POPC   GL143093  35.521   5.242   5.850
 3281POPC   GL243094  35.152   5.272   5.943
 3281POPC   C1A43095  35.483   5.052   6.267
 3281POPC   D2A43096  35.529   5.293   6.630
 3281POPC   C3A43097  35.406   5.067   6.974
 3281POPC   C4A43098  35.642   4.803   7.210
 3281POPC   C1B43099  34.971   5.197   6.359
 3281POPC   C2B43100  35.049   5.402   6.775
 3281POPC   C3B43101  35.054   5.343   7.230
 3281POPC   C4B43102  35.231   4.985   7.459
 3282POPC   NC343103  37.605  31.112   5.580
 3282POPC   PO443104  37.458  30.508   5.326
 3282POPC   GL143105  37.495  30.587   5.791
 3282POPC   GL243106  37.677  30.297   5.878
 3282POPC   C1A43107  37.688  30.824   6.163
 3282POPC   D2A43108  37.799  30.981   6.564
 3282POPC   C3A43109  37.537  30.940   6.943
 3282POPC   C4A43110  37.604  30.719   7.319
 3282POPC   C1B43111  37.645  30.349   6.308
 3282POPC   C2B43112  37.527  30.485   6.692
 3282POPC   C3B43113  37.745  30.333   7.011
 3282POPC   C4B43114  37.614  30.221   7.389
 3283POPC   NC343115  26.193   0.847   5.154
 3283POPC   PO443116  26.215   1.278   5.648
 3283POPC   GL143117  26.114   1.145   6.025
 3283POPC   GL243118  26.416   0.984   6.107
 3283POPC   C1A43119  25.996   1.193   6.449
 3283POPC   D2A43120  25.908   1.605   6.653
 3283POPC   C3A43121  25.826   1.538   7.065
 3283POPC   C4A43122  25.899   1.162   7.314
 3283POPC   C1B43123  26.381   0.669   6.421
 3283POPC   C2B43124  26.177   0.794   6.796
 3283POPC   C3B43125  26.384   0.843   7.197
 3283POPC   C4B43126  26.341   0.960   7.640
 3284POPC   NC343127  32.505  17.849   5.524
 3284POPC   PO443128  32.028  18.429   5.454
 3284POPC   GL143129  32.306  18.430   5.821
 3284POPC   GL243130  32.624  18.279   5.792
 3284POPC   C1A43131  32.329  18.385   6.277
 3284POPC   D2A43132  32.076  18.335   6.645
 3284POPC   C3A43133  32.245  18.412   7.071
 3284POPC   C4A43134  32.097  18.498   7.488
 3284POPC   C1B43135  32.724  18.072   6.194
 3284POPC   C2B43136  32.504  17.958   6.604
 3284POPC   C3B43137  32.574  18.020   7.071
 3284POPC   C4B43138  32.537  18.232   7.480
 3285POPC   NC343139  19.139   7.100   5.621
 3285POPC   PO443140  19.145   6.497   5.356
 3285POPC   GL143141  19.232   6.613   5.782
 3285POPC   GL243142  18.893   6.723   5.886
 3285POPC   C1A43143  19.254   6.718   6.236
 3285POPC   D2A43144  19.192   6.444   6.578
 3285POPC   C3A43145  19.281   6.624   6.983
 3285POPC   C4A43146  19.275   6.468   7.389
 3285POPC   C1B43147  18.723   6.650   6.340
 3285POPC   C2B43148  18.762   6.664   6.804
 3285POPC   C3B43149  18.814   6.665   7.264
 3285POPC   C4B43150  18.924   6.917   7.689
 3286POPC   NC343151  33.453   7.639   5.458
 3286POPC   PO443152  33.886   7.180   5.544
 3286POPC   GL143153  33.717   7.442   5.869
 3286POPC   GL243154  33.790   7.814   5.858
 3286POPC   C1A43155  33.684   7.273   6.270
 3286POPC   D2A43156  33.745   7.428   6.663
 3286POPC   C3A43157  33.715   7.166   7.002
 3286POPC   C4A43158  34.006   7.038   7.297
 3286POPC   C1B43159  33.548   7.761   6.274
 3286POPC   C2B43160  33.423   7.795   6.743
 3286POPC   C3B43161  33.729   7.704   7.097
 3286POPC   C4B43162  33.763   7.870   7.501
 3287POPC   NC343163  40.213  27.882   5.476
 3287POPC   PO443164  39.977  27.199   5.387
 3287POPC   GL143165  39.929  27.440   5.798
 3287POPC   GL243166  39.808  27.775   5.778
 3287POPC   C1A43167  40.045  27.398   6.236
 3287POPC   D2A43168  40.169  27.157   6.578
 3287POPC   C3A43169  39.971  27.292   6.972
 3287POPC   C4A43170  40.116  27.684   7.152
 3287POPC   C1B43171  40.081  27.891   6.136
 3287POPC   C2B43172  39.920  28.021   6.533
 3287POPC   C3B43173  39.756  28.002   6.952
 3287POPC   C4B43174  39.917  28.102   7.380
 3288POPC   NC343175  27.753  18.001   5.345
 3288POPC   PO443176  27.019  17.910   5.486
 3288POPC   GL143177  27.417  18.190   5.666
 3288POPC   GL243178  27.414  18.563   5.765
 3288POPC   C1A43179  27.524  18.144   6.119
 3288POPC   D2A43180  27.235  18.095   6.499
 3288POPC   C3A43181  27.453  18.161   6.896
 3288POPC   C4A43182  27.700  18.229   7.257
 3288POPC   C1B43183  27.661  18.628   6.164
 3288POPC   C2B43184  27.753  18.491   6.594
 3288POPC   C3B43185  27.636  18.674   7.017
 3288POPC   C4B43186  27.380  18.635   7.415
 3289POPC   NC343187  23.092  24.155   5.227
 3289POPC   PO443188  22.692  23.701   5.602
 3289POPC   GL143189  22.958  23.869   5.926
 3289POPC   GL243190  22.662  23.881   6.130
 3289POPC   C1A43191  23.286  23.790   6.261
 3289POPC   D2A43192  23.390  23.810   6.705
 3289POPC   C3A43193  23.132  23.586   7.011
 3289POPC   C4A43194  22.911  23.689   7.401
 3289POPC   C1B43195  22.870  23.476   6.275
 3289POPC   C2B43196  22.852  23.291   6.698
 3289POPC   C3B43197  22.630  23.490   7.030
 3289POPC   C4B43198  22.476  23.922   7.170
 3290POPC   NC343199  16.246  26.902   5.525
 3290POPC   PO443200  15.720  26.497   5.424
 3290POPC   GL143201  15.915  26.618   5.810
 3290POPC   GL243202  15.817  26.981   5.804
 3290POPC   C1A43203  16.132  26.679   6.229
 3290POPC   D2A43204  16.014  26.605   6.684
 3290POPC   C3A43205  16.051  26.900   7.042
 3290POPC   C4A43206  16.021  26.731   7.471
 3290POPC   C1B43207  15.856  27.135   6.228
 3290POPC   C2B43208  15.697  27.024   6.661
 3290POPC   C3B43209  15.545  27.001   7.100
 3290POPC   C4B43210  15.452  26.937   7.519
 3291POPC   NC343211   9.008  29.434   5.392
 3291POPC   PO443212   8.753  30.124   5.447
 3291POPC   GL143213   9.018  30.117   5.805
 3291POPC   GL243214   9.099  29.772   5.776
 3291POPC   C1A43215   9.009  30.033   6.240
 3291POPC   D2A43216   9.159  29.923   6.600
 3291POPC   C3A43217   8.996  30.087   6.974
 3291POPC   C4A43218   8.698  30.130   7.260
 3291POPC   C1B43219   8.781  29.624   6.055
 3291POPC   C2B43220   8.811  29.547   6.484
 3291POPC   C3B43221   8.972  29.582   6.915
 3291POPC   C4B43222   8.677  29.505   7.214
 3292POPC   NC343223  41.120  42.666   5.733
 3292POPC   PO443224  41.005  43.264   5.377
 3292POPC   GL143225  40.978  43.281   5.813
 3292POPC   GL243226  40.725  43.008   5.865
 3292POPC   C1A43227  40.740  43.383   6.203
 3292POPC   D2A43228  40.601  43.199   6.589
 3292POPC   C3A43229  40.821  43.227   6.951
 3292POPC   C4A43230  40.668  43.276   7.338
 3292POPC   C1B43231  40.733  42.746   6.252
 3292POPC   C2B43232  40.911  42.767   6.652
 3292POPC   C3B43233  40.663  42.690   7.001
 3292POPC   C4B43234  40.496  42.757   7.472
 3293POPC   NC343235  24.301   8.256   5.395
 3293POPC   PO443236  24.933   8.313   5.592
 3293POPC   GL143237  24.591   8.339   5.845
 3293POPC   GL243238  24.390   8.005   5.847
 3293POPC   C1A43239  24.702   8.451   6.248
 3293POPC   D2A43240  24.589   8.262   6.648
 3293POPC   C3A43241  24.669   8.452   7.066
 3293POPC   C4A43242  24.675   8.245   7.468
 3293POPC   C1B43243  24.242   8.216   6.225
 3293POPC   C2B43244  24.073   8.391   6.600
 3293POPC   C3B43245  24.191   8.224   6.987
 3293POPC   C4B43246  24.238   8.005   7.368
 3294POPC   NC343247  19.590  23.491   5.386
 3294POPC   PO443248  19.996  23.967   5.353
 3294POPC   GL143249  19.863  23.780   5.740
 3294POPC   GL243250  19.869  23.430   5.827
 3294POPC   C1A43251  19.746  23.909   6.146
 3294POPC   D2A43252  19.917  24.044   6.546
 3294POPC   C3A43253  19.691  23.883   6.908
 3294POPC   C4A43254  19.764  23.869   7.338
 3294POPC   C1B43255  20.070  23.516   6.272
 3294POPC   C2B43256  20.064  23.550   6.740
 3294POPC   C3B43257  20.114  23.488   7.187
 3294POPC   C4B43258  19.984  23.455   7.626
 3295POPC   NC343259  31.430  21.568   5.423
 3295POPC   PO443260  31.714  20.937   5.556
 3295POPC   GL143261  31.570  21.267   5.827
 3295POPC   GL243262  31.695  21.612   5.864
 3295POPC   C1A43263  31.309  21.369   6.178
 3295POPC   D2A43264  31.291  21.178   6.572
 3295POPC   C3A43265  31.329  21.480   6.886
 3295POPC   C4A43266  31.289  21.530   7.339
 3295POPC   C1B43267  31.850  21.443   6.238
 3295POPC   C2B43268  31.797  21.527   6.680
 3295POPC   C3B43269  31.760  21.562   7.136
 3295POPC   C4B43270  31.813  21.593   7.604
 3296POPC   NC343271  44.917  35.543   5.278
 3296POPC   PO443272   0.413  35.078   5.435
 3296POPC   GL143273   0.388  35.238   5.844
 3296POPC   GL243274   0.723  35.096   5.900
 3296POPC   C1A43275   0.426  35.248   6.307
 3296POPC   D2A43276   0.410  35.026   6.684
 3296POPC   C3A43277   0.493  35.342   6.986
 3296POPC   C4A43278   0.279  35.687   7.188
 3296POPC   C1B43279   0.958  35.101   6.289
 3296POPC   C2B43280   0.924  35.027   6.745
 3296POPC   C3B43281   1.126  34.956   7.136
 3296POPC   C4B43282   0.916  35.182   7.450
 3297POPC   NC343283  30.945  39.973   5.406
 3297POPC   PO443284  30.271  40.243   5.449
 3297POPC   GL143285  30.640  40.189   5.779
 3297POPC   GL243286  30.713  39.829   5.869
 3297POPC   C1A43287  30.837  40.128   6.225
 3297POPC   D2A43288  30.629  40.075   6.592
 3297POPC   C3A43289  30.842  39.884   6.902
 3297POPC   C4A43290  30.735  40.069   7.271
 3297POPC   C1B43291  30.401  39.768   6.204
 3297POPC   C2B43292  30.195  39.803   6.613
 3297POPC   C3B43293  30.377  39.731   7.055
 3297POPC   C4B43294  30.481  39.710   7.533
 3298POPC   NC343295  34.422  40.629   5.461
 3298POPC   PO443296  34.995  40.479   5.637
 3298POPC   GL143297  34.751  40.722   5.858
 3298POPC   GL243298  34.685  41.068   5.768
 3298POPC   C1A43299  34.473  40.805   6.186
 3298POPC   D2A43300  34.237  40.817   6.551
 3298POPC   C3A43301  34.456  40.619   6.868
 3298POPC   C4A43302  34.396  40.710   7.302
 3298POPC   C1B43303  34.935  41.086   6.158
 3298POPC   C2B43304  35.002  40.849   6.524
 3298POPC   C3B43305  34.873  40.885   6.932
 3298POPC   C4B43306  34.890  40.616   7.304
 3299POPC   NC343307  15.609  27.318   5.446
 3299POPC   PO443308  15.224  27.864   5.371
 3299POPC   GL143309  15.324  27.595   5.749
 3299POPC   GL243310  15.022  27.554   5.853
 3299POPC   C1A43311  15.348  27.411   6.202
 3299POPC   D2A43312  15.418  27.592   6.625
 3299POPC   C3A43313  15.227  27.409   6.994
 3299POPC   C4A43314  15.341  27.430   7.406
 3299POPC   C1B43315  14.870  27.778   6.210
 3299POPC   C2B43316  14.629  27.782   6.571
 3299POPC   C3B43317  14.759  27.648   6.962
 3299POPC   C4B43318  14.773  27.506   7.381
 3300POPC   NC343319  33.964  39.745   5.379
 3300POPC   PO443320  33.390  39.666   5.700
 3300POPC   GL143321  33.632  39.784   5.974
 3300POPC   GL243322  33.909  39.996   5.850
 3300POPC   C1A43323  33.523  39.757   6.396
 3300POPC   D2A43324  33.616  39.948   6.758
 3300POPC   C3A43325  33.926  39.806   7.052
 3300POPC   C4A43326  33.729  40.121   7.289
 3300POPC   C1B43327  33.861  40.129   6.308
 3300POPC   C2B43328  33.950  40.344   6.718
 3300POPC   C3B43329  34.149  40.289   7.115
 3300POPC   C4B43330  34.176  40.114   7.545
 3301POPC   NC343331  21.925  19.683   5.468
 3301POPC   PO443332  22.575  19.963   5.500
 3301POPC   GL143333  22.354  19.717   5.819
 3301POPC   GL243334  22.050  19.916   5.914
 3301POPC   C1A43335  22.241  19.601   6.264
 3301POPC   D2A43336  22.242  19.427   6.674
 3301POPC   C3A43337  22.319  19.701   7.016
 3301POPC   C4A43338  22.326  19.724   7.449
 3301POPC   C1B43339  22.271  20.129   6.300
 3301POPC   C2B43340  22.398  20.160   6.781
 3301POPC   C3B43341  22.230  20.189   7.229
 3301POPC   C4B43342  21.955  20.071   7.597
 3302POPC   NC343343  34.754   6.354   5.308
 3302POPC   PO443344  34.333   6.842   5.270
 3302POPC   GL143345  34.508   6.628   5.669
 3302POPC   GL243346  34.277   6.344   5.699
 3302POPC   C1A43347  34.856   6.577   6.036
 3302POPC   D2A43348  34.913   6.472   6.522
 3302POPC   C3A43349  34.742   6.775   6.838
 3302POPC   C4A43350  34.482   6.897   7.175
 3302POPC   C1B43351  34.370   6.465   6.146
 3302POPC   C2B43352  34.322   6.691   6.531
 3302POPC   C3B43353  34.282   6.505   6.921
 3302POPC   C4B43354  34.451   6.407   7.334
 3303POPC   NC343355  21.490  41.067   5.679
 3303POPC   PO443356  21.072  41.552   5.396
 3303POPC   GL143357  21.350  41.569   5.732
 3303POPC   GL243358  21.587  41.826   5.697
 3303POPC   C1A43359  21.388  41.525   6.173
 3303POPC   D2A43360  21.210  41.477   6.587
 3303POPC   C3A43361  21.380  41.569   6.959
 3303POPC   C4A43362  21.180  41.438   7.324
 3303POPC   C1B43363  21.661  41.940   6.143
 3303POPC   C2B43364  21.679  41.834   6.593
 3303POPC   C3B43365  21.800  41.904   7.022
 3303POPC   C4B43366  21.471  41.995   7.285
 3304POPC   NC343367  28.491   5.813   5.321
 3304POPC   PO443368  28.093   6.361   5.633
 3304POPC   GL143369  28.382   6.099   5.917
 3304POPC   GL243370  28.661   5.911   5.787
 3304POPC   C1A43371  28.427   5.795   6.258
 3304POPC   D2A43372  28.210   5.749   6.670
 3304POPC   C3A43373  28.470   5.786   7.031
 3304POPC   C4A43374  28.677   5.485   7.234
 3304POPC   C1B43375  28.847   6.165   6.115
 3304POPC   C2B43376  28.711   6.179   6.521
 3304POPC   C3B43377  28.855   6.112   6.931
 3304POPC   C4B43378  28.715   6.246   7.326
 3305POPC   NC343379  27.330  37.687   5.372
 3305POPC   PO443380  28.014  37.564   5.502
 3305POPC   GL143381  27.770  37.519   5.869
 3305POPC   GL243382  27.408  37.438   5.815
 3305POPC   C1A43383  27.803  37.441   6.327
 3305POPC   D2A43384  27.807  37.793   6.632
 3305POPC   C3A43385  27.827  37.726   7.080
 3305POPC   C4A43386  27.588  37.956   7.385
 3305POPC   C1B43387  27.392  37.703   6.205
 3305POPC   C2B43388  27.335  37.589   6.669
 3305POPC   C3B43389  27.319  37.590   7.149
 3305POPC   C4B43390  27.328  37.630   7.640
 3306POPC   NC343391  41.426   5.864   5.564
 3306POPC   PO443392  42.036   5.462   5.509
 3306POPC   GL143393  41.816   5.701   5.932
 3306POPC   GL243394  41.736   6.007   5.936
 3306POPC   C1A43395  41.546   5.763   6.348
 3306POPC   D2A43396  41.178   5.934   6.624
 3306POPC   C3A43397  41.298   5.788   7.050
 3306POPC   C4A43398  41.746   5.882   7.205
 3306POPC   C1B43399  41.391   6.212   6.196
 3306POPC   C2B43400  41.558   6.303   6.612
 3306POPC   C3B43401  41.450   6.261   7.028
 3306POPC   C4B43402  41.370   6.062   7.494
 3307POPC   NC343403  32.127  30.719   5.415
 3307POPC   PO443404  32.653  30.424   5.662
 3307POPC   GL143405  32.295  30.540   5.848
 3307POPC   GL243406  32.300  30.906   5.866
 3307POPC   C1A43407  32.135  30.587   6.232
 3307POPC   D2A43408  32.405  30.603   6.588
 3307POPC   C3A43409  32.199  30.855   6.871
 3307POPC   C4A43410  32.032  30.878   7.287
 3307POPC   C1B43411  32.578  31.026   6.242
 3307POPC   C2B43412  32.781  31.229   6.599
 3307POPC   C3B43413  32.555  31.288   6.965
 3307POPC   C4B43414  32.537  30.948   7.235
 3308POPC   NC343415  43.316  35.022   5.345
 3308POPC   PO443416  43.057  34.387   5.180
 3308POPC   GL143417  43.070  34.434   5.657
 3308POPC   GL243418  42.970  34.790   5.675
 3308POPC   C1A43419  43.252  34.310   6.084
 3308POPC   D2A43420  43.165  34.470   6.521
 3308POPC   C3A43421  43.336  34.379   6.950
 3308POPC   C4A43422  42.943  34.302   7.186
 3308POPC   C1B43423  42.966  35.014   6.095
 3308POPC   C2B43424  43.199  34.996   6.511
 3308POPC   C3B43425  43.102  34.824   6.926
 3308POPC   C4B43426  42.869  34.792   7.339
 3309POPC   NC343427  22.149  10.843   5.241
 3309POPC   PO443428  22.300  11.560   5.305
 3309POPC   GL143429  22.200  11.319   5.716
 3309POPC   GL243430  21.853  11.280   5.842
 3309POPC   C1A43431  22.229  11.309   6.202
 3309POPC   D2A43432  22.086  11.473   6.621
 3309POPC   C3A43433  22.328  11.289   6.954
 3309POPC   C4A43434  22.361  10.850   7.143
 3309POPC   C1B43435  21.720  11.428   6.255
 3309POPC   C2B43436  21.599  11.231   6.645
 3309POPC   C3B43437  21.809  11.257   7.032
 3309POPC   C4B43438  21.918  11.643   7.119
 3310POPC   NC343439  31.413   4.044   5.493
 3310POPC   PO443440  31.679   4.674   5.440
 3310POPC   GL143441  31.592   4.438   5.757
 3310POPC   GL243442  31.244   4.477   5.700
 3310POPC   C1A43443  31.710   4.215   6.129
 3310POPC   D2A43444  31.838   4.266   6.564
 3310POPC   C3A43445  31.588   4.124   6.909
 3310POPC   C4A43446  31.642   4.312   7.308
 3310POPC   C1B43447  31.280   4.503   6.169
 3310POPC   C2B43448  31.204   4.332   6.606
 3310POPC   C3B43449  31.154   4.395   7.073
 3310POPC   C4B43450  31.164   4.219   7.501
 3311POPC   NC343451   0.221  44.018   5.497
 3311POPC   PO443452   0.728  43.571   5.364
 3311POPC   GL143453   0.501  43.701   5.789
 3311POPC   GL243454   0.569  44.063   5.862
 3311POPC   C1A43455   0.179  43.712   6.142
 3311POPC   D2A43456   0.214  43.844   6.579
 3311POPC   C3A43457   0.268  43.620   6.955
 3311POPC   C4A43458   0.480  43.739   7.348
 3311POPC   C1B43459   0.384  44.205   6.247
 3311POPC   C2B43460   0.298  44.331   6.700
 3311POPC   C3B43461   0.326  44.190   7.149
 3311POPC   C4B43462   0.710  44.189   7.439
 3312POPC   NC343463   0.302  12.294   5.386
 3312POPC   PO443464  44.622  12.122   5.287
 3312POPC   GL143465  44.986  12.085   5.725
 3312POPC   GL243466   0.387  12.059   5.822
 3312POPC   C1A43467   0.098  12.020   6.208
 3312POPC   D2A43468   0.447  11.975   6.535
 3312POPC   C3A43469   0.293  12.103   6.931
 3312POPC   C4A43470  44.988  11.841   7.166
 3312POPC   C1B43471   0.645  12.297   6.175
 3312POPC   C2B43472   0.759  12.371   6.669
 3312POPC   C3B43473   0.754  12.247   7.152
 3312POPC   C4B43474   0.945  12.090   7.577
 3313POPC   NC343475  34.763   8.094   5.037
 3313POPC   PO443476  34.780   8.520   5.570
 3313POPC   GL143477  34.459   8.376   5.871
 3313POPC   GL243478  34.252   8.699   5.965
 3313POPC   C1A43479  34.501   8.096   6.251
 3313POPC   D2A43480  34.513   7.714   6.523
 3313POPC   C3A43481  34.636   7.819   6.930
 3313POPC   C4A43482  34.628   8.192   7.143
 3313POPC   C1B43483  34.507   8.583   6.356
 3313POPC   C2B43484  34.391   8.338   6.712
 3313POPC   C3B43485  34.231   8.512   7.092
 3313POPC   C4B43486  34.250   8.790   7.430
 3314POPC   NC343487  12.184   7.672   5.538
 3314POPC   PO443488  12.092   7.151   5.132
 3314POPC   GL143489  12.292   7.203   5.654
 3314POPC   GL243490  12.282   6.982   5.971
 3314POPC   C1A43491  12.162   7.425   6.128
 3314POPC   D2A43492  11.918   7.513   6.512
 3314POPC   C3A43493  12.149   7.529   6.899
 3314POPC   C4A43494  12.296   7.425   7.316
 3314POPC   C1B43495  11.925   6.998   6.343
 3314POPC   C2B43496  11.794   7.110   6.812
 3314POPC   C3B43497  11.794   7.351   7.241
 3314POPC   C4B43498  11.885   7.280   7.718
 3315POPC   NC343499  20.345   8.819   5.452
 3315POPC   PO443500  20.834   9.294   5.376
 3315POPC   GL143501  20.748   9.051   5.731
 3315POPC   GL243502  20.411   9.184   5.778
 3315POPC   C1A43503  20.702   9.088   6.183
 3315POPC   D2A43504  20.700   9.324   6.589
 3315POPC   C3A43505  20.707   9.031   6.945
 3315POPC   C4A43506  20.761   8.614   7.204
 3315POPC   C1B43507  20.184   8.994   6.121
 3315POPC   C2B43508  20.297   8.980   6.540
 3315POPC   C3B43509  20.167   8.896   6.936
 3315POPC   C4B43510  20.378   8.949   7.314
 3316POPC   NC343511  14.353  38.191   5.477
 3316POPC   PO443512  14.159  38.759   5.295
 3316POPC   GL143513  14.217  38.609   5.728
 3316POPC   GL243514  14.071  38.294   5.892
 3316POPC   C1A43515  14.301  38.667   6.170
 3316POPC   D2A43516  14.424  38.950   6.500
 3316POPC   C3A43517  14.485  38.742   6.908
 3316POPC   C4A43518  14.599  38.576   7.320
 3316POPC   C1B43519  13.910  38.356   6.296
 3316POPC   C2B43520  14.145  38.423   6.686
 3316POPC   C3B43521  14.227  38.234   7.103
 3316POPC   C4B43522  14.162  38.296   7.574
 3317POPC   NC343523  37.936  40.393   5.389
 3317POPC   PO443524  37.452  39.946   5.360
 3317POPC   GL143525  37.607  40.069   5.767
 3317POPC   GL243526  37.984  40.087   5.786
 3317POPC   C1A43527  37.693  39.917   6.185
 3317POPC   D2A43528  37.777  39.704   6.579
 3317POPC   C3A43529  37.743  39.913   6.950
 3317POPC   C4A43530  37.514  39.843   7.304
 3317POPC   C1B43531  38.082  40.277   6.167
 3317POPC   C2B43532  37.901  40.233   6.556
 3317POPC   C3B43533  37.898  40.406   6.936
 3317POPC   C4B43534  37.620  40.331   7.246
 3318POPC   NC343535  10.958  27.846   5.429
 3318POPC   PO443536  11.611  28.057   5.402
 3318POPC   GL143537  11.342  28.271   5.744
 3318POPC   GL243538  10.969  28.246   5.812
 3318POPC   C1A43539  11.377  28.281   6.200
 3318POPC   D2A43540  11.655  28.261   6.570
 3318POPC   C3A43541  11.453  28.251   6.964
 3318POPC   C4A43542  11.241  27.930   7.211
 3318POPC   C1B43543  10.988  28.603   6.140
 3318POPC   C2B43544  11.166  28.592   6.565
 3318POPC   C3B43545  11.024  28.559   6.973
 3318POPC   C4B43546  11.167  28.431   7.361
 3319POPC   NC343547  27.651  39.923   5.546
 3319POPC   PO443548  27.447  40.533   5.389
 3319POPC   GL143549  27.428  40.354   5.823
 3319POPC   GL243550  27.349  40.016   5.942
 3319POPC   C1A43551  27.700  40.247   6.205
 3319POPC   D2A43552  27.794  40.008   6.552
 3319POPC   C3A43553  27.633  40.172   6.912
 3319POPC   C4A43554  27.730  40.024   7.319
 3319POPC   C1B43555  27.158  39.822   6.341
 3319POPC   C2B43556  27.273  39.716   6.797
 3319POPC   C3B43557  27.289  39.704   7.259
 3319POPC   C4B43558  27.164  39.800   7.700
 3320POPC   NC343559   7.841   0.442   5.415
 3320POPC   PO443560   8.398   0.055   5.245
 3320POPC   GL143561   8.255   0.221   5.643
 3320POPC   GL243562   7.966   0.057   5.796
 3320POPC   C1A43563   8.282   0.386   6.040
 3320POPC   D2A43564   8.464   0.499   6.392
 3320POPC   C3A43565   8.131   0.513   6.712
 3320POPC   C4A43566   8.007   0.457   7.152
 3320POPC   C1B43567   7.906   0.031   6.255
 3320POPC   C2B43568   7.876  44.803   6.648
 3320POPC   C3B43569   7.751  44.917   7.021
 3320POPC   C4B43570   7.792   0.078   7.416
 3321POPC   NC343571  31.432  31.423   5.272
 3321POPC   PO443572  32.030  31.640   5.506
 3321POPC   GL143573  31.756  31.359   5.768
 3321POPC   GL243574  31.377  31.445   5.794
 3321POPC   C1A43575  31.724  31.380   6.237
 3321POPC   D2A43576  31.817  31.702   6.562
 3321POPC   C3A43577  31.658  31.673   7.004
 3321POPC   C4A43578  31.643  31.252   7.200
 3321POPC   C1B43579  31.191  31.415   6.214
 3321POPC   C2B43580  31.333  31.515   6.616
 3321POPC   C3B43581  31.193  31.384   7.007
 3321POPC   C4B43582  31.090  31.560   7.382
 3322POPC   NC343583   0.210  18.183   5.452
 3322POPC   PO443584   0.785  17.865   5.738
 3322POPC   GL143585   0.425  18.183   5.919
 3322POPC   GL243586   0.159  18.510   5.841
 3322POPC   C1A43587   0.466  18.430   6.293
 3322POPC   D2A43588   0.634  18.416   6.727
 3322POPC   C3A43589   0.528  18.050   6.984
 3322POPC   C4A43590   0.573  18.049   7.423
 3322POPC   C1B43591  44.971  18.285   6.208
 3322POPC   C2B43592   0.101  18.272   6.659
 3322POPC   C3B43593   0.174  18.397   7.099
 3322POPC   C4B43594   0.065  18.140   7.448
 3323POPC   NC343595   4.030  12.927   5.478
 3323POPC   PO443596   4.519  12.503   5.481
 3323POPC   GL143597   4.416  12.783   5.794
 3323POPC   GL243598   4.634  13.067   5.875
 3323POPC   C1A43599   4.304  12.742   6.211
 3323POPC   D2A43600   4.436  12.815   6.616
 3323POPC   C3A43601   4.298  12.665   7.027
 3323POPC   C4A43602   4.509  12.867   7.359
 3323POPC   C1B43603   4.239  13.240   6.078
 3323POPC   C2B43604   4.046  13.205   6.505
 3323POPC   C3B43605   4.217  13.166   6.931
 3323POPC   C4B43606   3.975  13.182   7.288
 3324POPC   NC343607  37.863   7.560   5.398
 3324POPC   PO443608  37.270   7.630   5.398
 3324POPC   GL143609  37.529   7.624   5.798
 3324POPC   GL243610  37.764   7.312   5.822
 3324POPC   C1A43611  37.465   7.455   6.224
 3324POPC   D2A43612  37.649   7.549   6.616
 3324POPC   C3A43613  37.496   7.348   6.973
 3324POPC   C4A43614  37.268   7.293   7.333
 3324POPC   C1B43615  37.896   7.127   6.203
 3324POPC   C2B43616  37.755   7.052   6.599
 3324POPC   C3B43617  37.907   7.042   6.993
 3324POPC   C4B43618  37.780   7.179   7.397
 3325POPC   NC343619   9.849   1.624   5.416
 3325POPC   PO443620   9.585   1.004   5.427
 3325POPC   GL143621   9.830   1.123   5.852
 3325POPC   GL243622  10.081   0.866   5.919
 3325POPC   C1A43623   9.805   1.315   6.316
 3325POPC   D2A43624   9.573   1.527   6.665
 3325POPC   C3A43625   9.573   1.412   7.106
 3325POPC   C4A43626   9.621   1.236   7.527
 3325POPC   C1B43627   9.847   0.803   6.277
 3325POPC   C2B43628   9.725   0.893   6.699
 3325POPC   C3B43629   9.835   0.963   7.136
 3325POPC   C4B43630  10.006   0.919   7.585
 3326POPC   NC343631   5.418  42.460   5.584
 3326POPC   PO443632   4.732  42.544   5.584
 3326POPC   GL143633   5.013  42.349   5.881
 3326POPC   GL243634   5.000  42.008   5.938
 3326POPC   C1A43635   5.287  42.379   6.242
 3326POPC   D2A43636   5.172  42.761   6.455
 3326POPC   C3A43637   5.173  42.688   6.871
 3326POPC   C4A43638   5.401  42.583   7.225
 3326POPC   C1B43639   4.841  42.144   6.330
 3326POPC   C2B43640   5.120  42.005   6.613
 3326POPC   C3B43641   5.269  42.146   6.983
 3326POPC   C4B43642   5.078  42.110   7.364
 3327POPC   NC343643  20.088  32.135   5.535
 3327POPC   PO443644  19.614  32.673   5.468
 3327POPC   GL143645  19.720  32.419   5.838
 3327POPC   GL243646  19.594  32.077   5.906
 3327POPC   C1A43647  19.642  32.420   6.300
 3327POPC   D2A43648  19.950  32.339   6.640
 3327POPC   C3A43649  19.886  32.353   7.085
 3327POPC   C4A43650  20.091  32.379   7.480
 3327POPC   C1B43651  19.924  31.984   6.228
 3327POPC   C2B43652  19.975  31.809   6.666
 3327POPC   C3B43653  19.899  31.840   7.137
 3327POPC   C4B43654  20.102  31.866   7.592
 3328POPC   NC343655   8.364  31.908   5.393
 3328POPC   PO443656   8.372  32.533   5.398
 3328POPC   GL143657   8.088  32.390   5.696
 3328POPC   GL243658   8.388  32.244   5.836
 3328POPC   C1A43659   7.923  32.138   6.040
 3328POPC   D2A43660   8.128  31.894   6.382
 3328POPC   C3A43661   8.065  31.982   6.831
 3328POPC   C4A43662   8.182  31.802   7.233
 3328POPC   C1B43663   8.238  32.538   6.168
 3328POPC   C2B43664   8.346  32.756   6.536
 3328POPC   C3B43665   8.353  32.604   6.950
 3328POPC   C4B43666   8.625  32.429   7.235
 3329POPC   NC343667  19.321  17.716   5.399
 3329POPC   PO443668  18.905  17.229   5.388
 3329POPC   GL143669  18.845  17.373   5.822
 3329POPC   GL243670  19.181  17.522   5.890
 3329POPC   C1A43671  18.787  17.171   6.230
 3329POPC   D2A43672  19.006  17.167   6.639
 3329POPC   C3A43673  18.945  17.553   6.889
 3329POPC   C4A43674  18.673  17.439   7.171
 3329POPC   C1B43675  19.148  17.568   6.361
 3329POPC   C2B43676  19.425  17.487   6.753
 3329POPC   C3B43677  19.449  17.593   7.214
 3329POPC   C4B43678  19.475  17.806   7.668
 3330POPC   NC343679  33.101  36.732   5.480
 3330POPC   PO443680  32.693  37.220   5.576
 3330POPC   GL143681  33.038  37.128   5.859
 3330POPC   GL243682  33.121  36.790   5.988
 3330POPC   C1A43683  32.842  37.122   6.253
 3330POPC   D2A43684  32.825  36.869   6.554
 3330POPC   C3A43685  32.948  36.908   6.949
 3330POPC   C4A43686  32.701  36.968   7.289
 3330POPC   C1B43687  33.346  36.960   6.337
 3330POPC   C2B43688  33.420  36.906   6.792
 3330POPC   C3B43689  33.338  36.730   7.225
 3330POPC   C4B43690  33.541  36.801   7.652
 3331POPC   NC343691   8.035  16.046   5.508
 3331POPC   PO443692   8.406  15.537   5.372
 3331POPC   GL143693   8.549  15.843   5.768
 3331POPC   GL243694   8.501  16.226   5.845
 3331POPC   C1A43695   8.395  15.898   6.215
 3331POPC   D2A43696   8.145  16.076   6.548
 3331POPC   C3A43697   8.298  16.004   6.957
 3331POPC   C4A43698   7.991  15.870   7.204
 3331POPC   C1B43699   8.414  16.426   6.279
 3331POPC   C2B43700   8.615  16.329   6.680
 3331POPC   C3B43701   8.653  16.404   7.094
 3331POPC   C4B43702   8.278  16.435   7.289
 3332POPC   NC343703  18.575  28.029   5.606
 3332POPC   PO443704  18.056  28.260   5.261
 3332POPC   GL143705  18.218  28.312   5.787
 3332POPC   GL243706  18.360  28.123   6.045
 3332POPC   C1A43707  18.396  28.600   6.151
 3332POPC   D2A43708  18.351  28.510   6.588
 3332POPC   C3A43709  18.548  28.543   6.994
 3332POPC   C4A43710  18.202  28.413   7.213
 3332POPC   C1B43711  17.988  28.278   6.250
 3332POPC   C2B43712  17.902  28.004   6.563
 3332POPC   C3B43713  18.110  27.957   6.927
 3332POPC   C4B43714  18.027  27.914   7.332
 3333POPC   NC343715   8.542  29.710   5.381
 3333POPC   PO443716   7.980  30.018   5.534
 3333POPC   GL143717   8.152  30.019   5.919
 3333POPC   GL243718   8.511  30.059   5.907
 3333POPC   C1A43719   7.961  30.039   6.303
 3333POPC   D2A43720   8.085  29.916   6.694
 3333POPC   C3A43721   7.856  30.013   7.065
 3333POPC   C4A43722   7.980  29.961   7.512
 3333POPC   C1B43723   8.512  30.043   6.363
 3333POPC   C2B43724   8.572  29.894   6.788
 3333POPC   C3B43725   8.318  29.834   7.155
 3333POPC   C4B43726   8.444  29.787   7.614
 3334POPC   NC343727  31.967  12.936   5.564
 3334POPC   PO443728  32.609  12.636   5.697
 3334POPC   GL143729  32.261  12.755   5.914
 3334POPC   GL243730  32.096  13.095   6.011
 3334POPC   C1A43731  32.164  12.629   6.270
 3334POPC   D2A43732  32.451  12.412   6.517
 3334POPC   C3A43733  32.432  12.613   6.878
 3334POPC   C4A43734  32.675  12.639   7.220
 3334POPC   C1B43735  32.427  13.081   6.280
 3334POPC   C2B43736  32.352  13.129   6.695
 3334POPC   C3B43737  32.523  13.114   7.074
 3334POPC   C4B43738  32.185  12.896   7.218
 3335POPC   NC343739   2.537  25.006   5.341
 3335POPC   PO443740   3.022  25.393   5.374
 3335POPC   GL143741   2.795  25.210   5.779
 3335POPC   GL243742   2.415  25.127   5.852
 3335POPC   C1A43743   2.788  25.216   6.256
 3335POPC   D2A43744   2.552  25.425   6.597
 3335POPC   C3A43745   2.573  25.331   7.062
 3335POPC   C4A43746   2.667  25.264   7.501
 3335POPC   C1B43747   2.343  24.956   6.319
 3335POPC   C2B43748   2.581  24.937   6.734
 3335POPC   C3B43749   2.706  24.844   7.193
 3335POPC   C4B43750   2.780  24.462   7.462
 3336POPC   NC343751  14.501  18.958   5.479
 3336POPC   PO443752  14.252  19.634   5.500
 3336POPC   GL143753  14.156  19.263   5.753
 3336POPC   GL243754  13.990  18.974   5.558
 3336POPC   C1A43755  14.329  19.157   6.182
 3336POPC   D2A43756  14.502  19.126   6.613
 3336POPC   C3A43757  14.353  19.269   7.016
 3336POPC   C4A43758  14.450  19.182   7.430
 3336POPC   C1B43759  13.950  18.845   5.999
 3336POPC   C2B43760  14.137  18.734   6.428
 3336POPC   C3B43761  14.068  18.855   6.856
 3336POPC   C4B43762  14.094  18.851   7.296
 3337POPC   NC343763  12.836   6.263   5.461
 3337POPC   PO443764  12.903   5.721   5.179
 3337POPC   GL143765  12.662   5.812   5.664
 3337POPC   GL243766  12.880   5.658   5.977
 3337POPC   C1A43767  12.613   6.047   6.101
 3337POPC   D2A43768  12.632   5.813   6.497
 3337POPC   C3A43769  12.702   6.020   6.895
 3337POPC   C4A43770  12.770   5.895   7.361
 3337POPC   C1B43771  13.099   5.923   6.305
 3337POPC   C2B43772  13.187   5.878   6.752
 3337POPC   C3B43773  13.144   6.197   7.062
 3337POPC   C4B43774  13.140   6.221   7.494
 3338POPC   NC343775  14.198  39.608   5.407
 3338POPC   PO443776  14.642  40.171   5.501
 3338POPC   GL143777  14.391  39.936   5.770
 3338POPC   GL243778  14.679  39.835   5.952
 3338POPC   C1A43779  14.188  39.717   6.127
 3338POPC   D2A43780  14.312  39.573   6.531
 3338POPC   C3A43781  14.129  39.680   6.910
 3338POPC   C4A43782  14.231  39.579   7.297
 3338POPC   C1B43783  14.578  39.973   6.363
 3338POPC   C2B43784  14.548  39.953   6.804
 3338POPC   C3B43785  14.346  40.074   7.191
 3338POPC   C4B43786  14.298  40.481   7.436
 3339POPC   NC343787  28.805  31.626   5.472
 3339POPC   PO443788  29.349  31.221   5.395
 3339POPC   GL143789  29.447  31.343   5.786
 3339POPC   GL243790  29.216  31.609   5.805
 3339POPC   C1A43791  29.227  31.301   6.197
 3339POPC   D2A43792  29.025  31.433   6.555
 3339POPC   C3A43793  29.232  31.253   6.893
 3339POPC   C4A43794  29.159  31.220   7.303
 3339POPC   C1B43795  29.154  31.819   6.203
 3339POPC   C2B43796  29.059  31.933   6.593
 3339POPC   C3B43797  28.969  31.730   6.984
 3339POPC   C4B43798  28.854  32.030   7.304
 3340POPC   NC343799  38.820  14.692   5.519
 3340POPC   PO443800  38.397  14.185   5.229
 3340POPC   GL143801  38.500  14.280   5.699
 3340POPC   GL243802  38.623  14.009   5.912
 3340POPC   C1A43803  38.674  14.471   6.117
 3340POPC   D2A43804  38.645  14.329   6.566
 3340POPC   C3A43805  38.778  14.536   6.961
 3340POPC   C4A43806  38.626  14.630   7.381
 3340POPC   C1B43807  38.293  14.141   6.201
 3340POPC   C2B43808  38.096  14.304   6.581
 3340POPC   C3B43809  38.275  14.358   6.980
 3340POPC   C4B43810  38.561  14.136   7.256
 3341POPC   NC343811  28.362  18.296   5.553
 3341POPC   PO443812  27.722  18.477   5.338
 3341POPC   GL143813  27.899  18.367   5.780
 3341POPC   GL243814  27.949  18.010   5.807
 3341POPC   C1A43815  28.139  18.451   6.216
 3341POPC   D2A43816  28.406  18.508   6.605
 3341POPC   C3A43817  28.618  18.198   6.838
 3341POPC   C4A43818  28.694  18.081   7.272
 3341POPC   C1B43819  28.239  17.949   6.147
 3341POPC   C2B43820  28.168  17.895   6.594
 3341POPC   C3B43821  28.072  18.225   6.891
 3341POPC   C4B43822  28.211  18.354   7.288
 3342POPC   NC343823  24.269  34.244   5.474
 3342POPC   PO443824  24.311  34.874   5.304
 3342POPC   GL143825  24.395  34.722   5.744
 3342POPC   GL243826  24.229  34.443   5.957
 3342POPC   C1A43827  24.643  34.815   6.121
 3342POPC   D2A43828  24.582  34.954   6.530
 3342POPC   C3A43829  24.732  34.683   6.828
 3342POPC   C4A43830  24.734  34.413   7.161
 3342POPC   C1B43831  24.261  34.533   6.415
 3342POPC   C2B43832  24.240  34.543   6.876
 3342POPC   C3B43833  24.253  34.531   7.327
 3342POPC   C4B43834  24.190  34.722   7.801
 3343POPC   NC343835  35.547  24.720   5.589
 3343POPC   PO443836  35.088  24.184   5.437
 3343POPC   GL143837  35.242  24.360   5.805
 3343POPC   GL243838  35.565  24.310   5.971
 3343POPC   C1A43839  35.116  24.477   6.203
 3343POPC   D2A43840  34.944  24.218   6.498
 3343POPC   C3A43841  35.023  24.408   6.855
 3343POPC   C4A43842  35.049  24.722   7.154
 3343POPC   C1B43843  35.772  24.616   6.254
 3343POPC   C2B43844  35.723  24.792   6.689
 3343POPC   C3B43845  35.511  24.564   7.029
 3343POPC   C4B43846  35.337  24.163   7.172
 3344POPC   NC343847   6.740  44.226   5.454
 3344POPC   PO443848   6.637  44.897   5.498
 3344POPC   GL143849   6.509  44.567   5.797
 3344POPC   GL243850   6.308  44.253   5.772
 3344POPC   C1A43851   6.662  44.520   6.208
 3344POPC   D2A43852   6.764  44.776   6.541
 3344POPC   C3A43853   6.601  44.688   6.927
 3344POPC   C4A43854   6.623  44.654   7.362
 3344POPC   C1B43855   6.319  44.126   6.203
 3344POPC   C2B43856   6.357  44.344   6.590
 3344POPC   C3B43857   6.420  44.224   7.032
 3344POPC   C4B43858   6.364  44.215   7.472
 3345POPC   NC343859  25.971   9.207   5.349
 3345POPC   PO443860  26.344   8.617   5.417
 3345POPC   GL143861  26.182   8.896   5.730
 3345POPC   GL243862  26.282   9.219   5.802
 3345POPC   C1A43863  26.079   8.940   6.189
 3345POPC   D2A43864  25.761   8.802   6.486
 3345POPC   C3A43865  25.824   8.963   6.890
 3345POPC   C4A43866  25.739   8.837   7.320
 3345POPC   C1B43867  26.327   9.410   6.255
 3345POPC   C2B43868  26.337   9.156   6.660
 3345POPC   C3B43869  26.202   9.261   7.080
 3345POPC   C4B43870  26.220   9.092   7.517
 3346POPC   NC343871  12.267   9.560   5.494
 3346POPC   PO443872  12.378   8.919   5.324
 3346POPC   GL143873  12.226   9.049   5.737
 3346POPC   GL243874  11.877   9.200   5.732
 3346POPC   C1A43875  12.204   8.845   6.154
 3346POPC   D2A43876  12.075   8.771   6.589
 3346POPC   C3A43877  12.341   8.847   6.953
 3346POPC   C4A43878  12.235   8.777   7.346
 3346POPC   C1B43879  11.781   9.148   6.180
 3346POPC   C2B43880  11.977   9.297   6.571
 3346POPC   C3B43881  11.969   9.179   6.998
 3346POPC   C4B43882  12.268   9.274   7.293
 3347POPC   NC343883  43.575   0.467   5.561
 3347POPC   PO443884  43.919  44.885   5.555
 3347POPC   GL143885  43.918   0.223   5.860
 3347POPC   GL243886  44.072   0.531   5.741
 3347POPC   C1A43887  43.809   0.381   6.268
 3347POPC   D2A43888  43.673   0.533   6.670
 3347POPC   C3A43889  43.834   0.351   6.994
 3347POPC   C4A43890  43.656   0.359   7.373
 3347POPC   C1B43891  44.212   0.705   6.102
 3347POPC   C2B43892  44.047   0.813   6.488
 3347POPC   C3B43893  44.148   0.767   6.921
 3347POPC   C4B43894  44.094   0.632   7.351
 3348POPC   NC343895  31.818  13.708   5.379
 3348POPC   PO443896  31.191  13.424   5.272
 3348POPC   GL143897  31.390  13.628   5.642
 3348POPC   GL243898  31.668  13.378   5.775
 3348POPC   C1A43899  31.455  13.757   6.077
 3348POPC   D2A43900  31.375  13.520   6.478
 3348POPC   C3A43901  31.422  13.635   6.917
 3348POPC   C4A43902  31.277  13.544   7.346
 3348POPC   C1B43903  31.931  13.563   6.163
 3348POPC   C2B43904  32.003  13.516   6.636
 3348POPC   C3B43905  31.888  13.352   7.085
 3348POPC   C4B43906  31.774  13.395   7.562
 3349POPC   NC343907  36.156  37.405   5.454
 3349POPC   PO443908  36.458  37.914   5.287
 3349POPC   GL143909  36.217  37.852   5.700
 3349POPC   GL243910  35.902  37.653   5.802
 3349POPC   C1A43911  36.264  37.829   6.138
 3349POPC   D2A43912  36.354  37.935   6.577
 3349POPC   C3A43913  36.238  37.599   6.867
 3349POPC   C4A43914  36.107  37.462   7.270
 3349POPC   C1B43915  35.767  37.911   6.142
 3349POPC   C2B43916  35.776  37.963   6.602
 3349POPC   C3B43917  35.829  37.862   7.053
 3349POPC   C4B43918  36.129  37.944   7.386
 3350POPC   NC343919   9.271  20.648   5.365
 3350POPC   PO443920   9.848  20.347   5.511
 3350POPC   GL143921   9.655  20.670   5.745
 3350POPC   GL243922   9.962  20.865   5.861
 3350POPC   C1A43923   9.449  20.639   6.134
 3350POPC   D2A43924   9.581  20.905   6.469
 3350POPC   C3A43925   9.524  20.823   6.882
 3350POPC   C4A43926   9.447  20.579   7.249
 3350POPC   C1B43927   9.974  20.620   6.231
 3350POPC   C2B43928  10.012  20.691   6.669
 3350POPC   C3B43929   9.937  20.594   7.053
 3350POPC   C4B43930   9.804  20.932   7.306
 3351POPC   NC343931  44.237  17.959   5.510
 3351POPC   PO443932  44.792  18.450   5.439
 3351POPC   GL143933  44.532  18.360   5.782
 3351POPC   GL243934  44.703  18.060   5.794
 3351POPC   C1A43935  44.488  18.498   6.220
 3351POPC   D2A43936  44.366  18.245   6.615
 3351POPC   C3A43937  44.663  18.269   6.960
 3351POPC   C4A43938  44.521  18.583   7.245
 3351POPC   C1B43939  44.553  17.964   6.197
 3351POPC   C2B43940  44.591  17.759   6.596
 3351POPC   C3B43941  44.360  17.819   6.943
 3351POPC   C4B43942  44.265  18.111   7.240
 3352POPC   NC343943  31.009  37.341   5.478
 3352POPC   PO443944  30.730  37.890   5.419
 3352POPC   GL143945  30.740  37.652   5.821
 3352POPC   GL243946  31.083  37.585   5.948
 3352POPC   C1A43947  30.703  37.689   6.275
 3352POPC   D2A43948  30.897  37.551   6.653
 3352POPC   C3A43949  30.756  37.828   6.956
 3352POPC   C4A43950  30.516  37.730   7.299
 3352POPC   C1B43951  30.935  37.241   6.240
 3352POPC   C2B43952  30.658  37.082   6.611
 3352POPC   C3B43953  30.710  37.258   7.038
 3352POPC   C4B43954  31.068  37.474   7.204
 3353POPC   NC343955  17.983  41.602   5.025
 3353POPC   PO443956  18.233  41.437   5.629
 3353POPC   GL143957  18.448  41.505   5.950
 3353POPC   GL243958  18.439  41.863   5.901
 3353POPC   C1A43959  18.535  41.400   6.408
 3353POPC   D2A43960  18.380  41.198   6.788
 3353POPC   C3A43961  18.344  41.455   7.168
 3353POPC   C4A43962  18.452  41.470   7.608
 3353POPC   C1B43963  18.162  41.755   6.279
 3353POPC   C2B43964  18.204  41.682   6.728
 3353POPC   C3B43965  18.013  41.831   7.121
 3353POPC   C4B43966  18.153  41.889   7.551
 3354POPC   NC343967  22.730  13.792   5.537
 3354POPC   PO443968  23.078  13.302   5.528
 3354POPC   GL143969  23.031  13.451   5.905
 3354POPC   GL243970  23.141  13.808   5.865
 3354POPC   C1A43971  22.675  13.473   6.184
 3354POPC   D2A43972  22.653  13.677   6.585
 3354POPC   C3A43973  22.635  13.488   6.983
 3354POPC   C4A43974  22.835  13.555   7.401
 3354POPC   C1B43975  23.094  13.762   6.305
 3354POPC   C2B43976  23.184  13.953   6.707
 3354POPC   C3B43977  23.020  13.963   7.115
 3354POPC   C4B43978  23.081  13.987   7.568
 3355POPC   NC343979  30.484  11.493   5.139
 3355POPC   PO443980  30.915  11.125   5.488
 3355POPC   GL143981  30.733  11.466   5.742
 3355POPC   GL243982  30.359  11.500   5.715
 3355POPC   C1A43983  30.871  11.545   6.177
 3355POPC   D2A43984  30.940  11.284   6.558
 3355POPC   C3A43985  30.911  11.470   6.951
 3355POPC   C4A43986  31.011  11.455   7.353
 3355POPC   C1B43987  30.351  11.591   6.146
 3355POPC   C2B43988  30.409  11.368   6.537
 3355POPC   C3B43989  30.417  11.542   6.950
 3355POPC   C4B43990  30.451  11.346   7.337
 3356POPC   NC343991  43.820  27.424   5.354
 3356POPC   PO443992  43.818  28.118   5.280
 3356POPC   GL143993  43.749  27.821   5.673
 3356POPC   GL243994  44.058  27.571   5.787
 3356POPC   C1A43995  43.712  27.685   6.125
 3356POPC   D2A43996  43.962  27.598   6.487
 3356POPC   C3A43997  43.912  27.754   6.882
 3356POPC   C4A43998  43.780  27.738   7.301
 3356POPC   C1B43999  44.286  27.354   6.177
 3356POPC   C2B44000  44.152  27.133   6.576
 3356POPC   C3B44001  43.788  27.250   6.823
 3356POPC   C4B44002  44.068  27.340   7.161
 3357POPC   NC344003  25.489   4.304   5.306
 3357POPC   PO444004  26.111   4.625   5.408
 3357POPC   GL144005  25.934   4.443   5.794
 3357POPC   GL244006  26.180   4.208   5.933
 3357POPC   C1A44007  25.836   4.340   6.268
 3357POPC   D2A44008  26.120   4.429   6.633
 3357POPC   C3A44009  25.917   4.347   7.060
 3357POPC   C4A44010  25.860   4.151   7.485
 3357POPC   C1B44011  26.324   4.047   6.338
 3357POPC   C2B44012  26.325   3.970   6.803
 3357POPC   C3B44013  26.368   4.140   7.253
 3357POPC   C4B44014  26.329   4.221   7.709
 3358POPC   NC344015  34.089  17.305   5.427
 3358POPC   PO444016  33.803  17.960   5.283
 3358POPC   GL144017  33.910  17.712   5.661
 3358POPC   GL244018  33.712  17.459   5.785
 3358POPC   C1A44019  34.030  17.793   6.090
 3358POPC   D2A44020  33.937  17.599   6.480
 3358POPC   C3A44021  34.086  17.829   6.820
 3358POPC   C4A44022  34.039  17.653   7.212
 3358POPC   C1B44023  33.655  17.221   6.159
 3358POPC   C2B44024  33.451  17.126   6.550
 3358POPC   C3B44025  33.623  17.304   6.894
 3358POPC   C4B44026  33.831  17.168   7.238
 3359POPC   NC344027  23.429  31.871   5.602
 3359POPC   PO444028  23.749  31.462   5.133
 3359POPC   GL144029  23.709  31.397   5.602
 3359POPC   GL244030  23.951  31.636   5.691
 3359POPC   C1A44031  23.725  31.366   6.087
 3359POPC   D2A44032  23.804  31.259   6.539
 3359POPC   C3A44033  23.671  31.455   6.939
 3359POPC   C4A44034  23.583  31.241   7.351
 3359POPC   C1B44035  24.118  31.699   6.119
 3359POPC   C2B44036  23.965  31.772   6.537
 3359POPC   C3B44037  24.095  31.764   6.956
 3359POPC   C4B44038  23.987  31.562   7.331
 3360POPC   NC344039   6.101  30.211   5.441
 3360POPC   PO444040   5.823  29.618   5.374
 3360POPC   GL144041   5.869  29.582   5.822
 3360POPC   GL244042   6.031  29.910   5.855
 3360POPC   C1A44043   5.910  29.650   6.281
 3360POPC   D2A44044   6.056  29.563   6.720
 3360POPC   C3A44045   5.807  29.820   7.025
 3360POPC   C4A44046   5.749  29.858   7.466
 3360POPC   C1B44047   6.077  30.278   6.139
 3360POPC   C2B44048   5.880  30.467   6.498
 3360POPC   C3B44049   5.801  30.353   6.923
 3360POPC   C4B44050   5.938  30.328   7.349
 3361POPC   NC344051  13.366  40.154   5.320
 3361POPC   PO444052  13.741  39.667   5.332
 3361POPC   GL144053  13.858  39.803   5.750
 3361POPC   GL244054  13.896  40.153   5.738
 3361POPC   C1A44055  13.703  39.962   6.168
 3361POPC   D2A44056  13.599  40.197   6.549
 3361POPC   C3A44057  13.687  39.977   6.899
 3361POPC   C4A44058  13.776  39.828   7.276
 3361POPC   C1B44059  14.132  40.222   6.135
 3361POPC   C2B44060  14.095  40.081   6.572
 3361POPC   C3B44061  14.009  40.364   6.954
 3361POPC   C4B44062  13.799  40.368   7.398
 3362POPC   NC344063  43.891   5.912   5.236
 3362POPC   PO444064  43.547   6.192   5.740
 3362POPC   GL144065  43.891   6.063   5.941
 3362POPC   GL244066  44.013   5.760   5.747
 3362POPC   C1A44067  43.917   6.117   6.395
 3362POPC   D2A44068  43.987   5.952   6.819
 3362POPC   C3A44069  43.792   6.164   7.183
 3362POPC   C4A44070  44.041   6.298   7.590
 3362POPC   C1B44071  43.916   5.588   6.159
 3362POPC   C2B44072  43.632   5.440   6.451
 3362POPC   C3B44073  43.701   5.515   6.857
 3362POPC   C4B44074  43.816   5.658   7.246
 3363POPC   NC344075  17.637  13.903   5.407
 3363POPC   PO444076  17.522  13.283   5.472
 3363POPC   GL144077  17.454  13.520   5.857
 3363POPC   GL244078  17.491  13.892   5.891
 3363POPC   C1A44079  17.380  13.593   6.310
 3363POPC   D2A44080  17.716  13.668   6.604
 3363POPC   C3A44081  17.565  13.750   6.998
 3363POPC   C4A44082  17.224  13.566   7.203
 3363POPC   C1B44083  17.511  14.082   6.302
 3363POPC   C2B44084  17.161  14.071   6.524
 3363POPC   C3B44085  17.078  13.884   6.850
 3363POPC   C4B44086  17.224  14.081   7.212
 3364POPC   NC344087  41.851   4.962   5.490
 3364POPC   PO444088  41.326   5.459   5.349
 3364POPC   GL144089  41.593   5.308   5.765
 3364POPC   GL244090  41.960   5.195   5.929
 3364POPC   C1A44091  41.565   5.267   6.220
 3364POPC   D2A44092  41.497   4.991   6.566
 3364POPC   C3A44093  41.437   5.114   6.987
 3364POPC   C4A44094  41.171   4.859   7.221
 3364POPC   C1B44095  41.974   4.850   6.256
 3364POPC   C2B44096  41.925   4.695   6.682
 3364POPC   C3B44097  41.759   4.750   7.109
 3364POPC   C4B44098  41.807   5.181   7.338
 3365POPC   NC344099  34.430   0.252   5.564
 3365POPC   PO444100  34.843   0.845   5.429
 3365POPC   GL144101  34.774   0.629   5.797
 3365POPC   GL244102  34.434   0.721   5.813
 3365POPC   C1A44103  34.741   0.384   6.200
 3365POPC   D2A44104  34.510   0.216   6.562
 3365POPC   C3A44105  34.636   0.359   6.976
 3365POPC   C4A44106  34.680   0.430   7.431
 3365POPC   C1B44107  34.295   0.622   6.231
 3365POPC   C2B44108  34.127   0.547   6.636
 3365POPC   C3B44109  34.222   0.644   7.014
 3365POPC   C4B44110  34.303   0.751   7.432
 3366POPC   NC344111   6.440  11.255   5.382
 3366POPC   PO444112   6.735  11.843   5.427
 3366POPC   GL144113   6.656  11.516   5.791
 3366POPC   GL244114   6.450  11.557   6.107
 3366POPC   C1A44115   6.753  11.159   6.098
 3366POPC   D2A44116   6.590  11.225   6.506
 3366POPC   C3A44117   6.544  10.965   6.862
 3366POPC   C4A44118   6.459  11.312   7.162
 3366POPC   C1B44119   6.882  11.622   6.259
 3366POPC   C2B44120   7.090  11.558   6.627
 3366POPC   C3B44121   6.926  11.417   6.987
 3366POPC   C4B44122   6.949  11.568   7.387
 3367POPC   NC344123  28.498  44.498   5.375
 3367POPC   PO444124  28.123   0.016   5.449
 3367POPC   GL144125  28.266  44.688   5.769
 3367POPC   GL244126  28.607  44.707   5.892
 3367POPC   C1A44127  28.132  44.471   6.161
 3367POPC   D2A44128  27.910  44.679   6.516
 3367POPC   C3A44129  28.138  44.797   6.887
 3367POPC   C4A44130  28.237  44.708   7.305
 3367POPC   C1B44131  28.638  44.401   6.248
 3367POPC   C2B44132  28.422  44.301   6.649
 3367POPC   C3B44133  28.552  44.365   7.068
 3367POPC   C4B44134  28.541  44.331   7.522
 3368POPC   NC344135  29.102  30.800   5.476
 3368POPC   PO444136  29.625  30.476   5.399
 3368POPC   GL144137  29.439  30.505   5.803
 3368POPC   GL244138  29.080  30.399   5.806
 3368POPC   C1A44139  29.293  30.793   6.145
 3368POPC   D2A44140  28.987  30.933   6.505
 3368POPC   C3A44141  28.976  30.798   6.951
 3368POPC   C4A44142  29.367  30.781   7.162
 3368POPC   C1B44143  28.838  30.552   6.182
 3368POPC   C2B44144  28.600  30.600   6.569
 3368POPC   C3B44145  28.674  30.362   6.951
 3368POPC   C4B44146  28.897  30.412   7.352
 3369POPC   NC344147  20.250  43.310   5.707
 3369POPC   PO444148  20.656  42.819   5.380
 3369POPC   GL144149  20.633  42.943   5.813
 3369POPC   GL244150  20.334  42.730   5.882
 3369POPC   C1A44151  20.775  43.273   6.173
 3369POPC   D2A44152  20.647  43.373   6.660
 3369POPC   C3A44153  20.756  43.241   7.133
 3369POPC   C4A44154  20.855  43.262   7.626
 3369POPC   C1B44155  20.407  42.939   6.275
 3369POPC   C2B44156  20.459  42.890   6.687
 3369POPC   C3B44157  20.521  42.775   7.060
 3369POPC   C4B44158  20.537  42.905   7.465
 3370POPC   NC344159  23.443   0.975   5.431
 3370POPC   PO444160  23.949   1.340   5.558
 3370POPC   GL144161  23.570   1.344   5.806
 3370POPC   GL244162  23.650   1.017   5.889
 3370POPC   C1A44163  23.387   1.229   6.250
 3370POPC   D2A44164  23.578   0.926   6.562
 3370POPC   C3A44165  23.594   1.041   7.008
 3370POPC   C4A44166  23.894   1.340   7.065
 3370POPC   C1B44167  23.920   1.194   6.215
 3370POPC   C2B44168  24.104   1.183   6.612
 3370POPC   C3B44169  24.044   0.847   6.859
 3370POPC   C4B44170  24.035   0.895   7.272
 3371POPC   NC344171  33.900  43.660   5.417
 3371POPC   PO444172  34.088  44.331   5.398
 3371POPC   GL144173  33.943  43.993   5.806
 3371POPC   GL244174  33.759  43.605   5.883
 3371POPC   C1A44175  34.033  43.807   6.251
 3371POPC   D2A44176  34.056  44.004   6.655
 3371POPC   C3A44177  33.983  43.877   7.075
 3371POPC   C4A44178  34.006  44.168   7.433
 3371POPC   C1B44179  33.501  43.721   6.227
 3371POPC   C2B44180  33.585  43.776   6.657
 3371POPC   C3B44181  33.519  43.638   7.067
 3371POPC   C4B44182  33.235  43.828   7.365
 3372POPC   NC344183  20.194  41.785   5.549
 3372POPC   PO444184  19.798  42.330   5.368
 3372POPC   GL144185  19.648  42.313   5.781
 3372POPC   GL244186  19.944  42.318   5.964
 3372POPC   C1A44187  19.524  42.452   6.208
 3372POPC   D2A44188  19.684  42.418   6.636
 3372POPC   C3A44189  19.687  42.758   6.918
 3372POPC   C4A44190  19.699  42.510   7.281
 3372POPC   C1B44191  20.247  42.205   6.283
 3372POPC   C2B44192  20.383  42.393   6.660
 3372POPC   C3B44193  20.195  42.391   7.067
 3372POPC   C4B44194  19.972  42.076   7.245
 3373POPC   NC344195  25.804  28.363   5.373
 3373POPC   PO444196  26.145  27.803   5.468
 3373POPC   GL144197  26.162  28.264   5.738
 3373POPC   GL244198  25.832  28.331   5.876
 3373POPC   C1A44199  26.161  28.483   6.212
 3373POPC   D2A44200  25.998  28.422   6.659
 3373POPC   C3A44201  26.174  28.528   7.090
 3373POPC   C4A44202  26.168  28.389   7.528
 3373POPC   C1B44203  25.627  28.566   6.229
 3373POPC   C2B44204  25.582  28.761   6.660
 3373POPC   C3B44205  25.675  28.539   7.048
 3373POPC   C4B44206  25.647  28.358   7.469
 3374POPC   NC344207  36.519  22.944   5.137
 3374POPC   PO444208  36.984  22.562   5.396
 3374POPC   GL144209  36.895  22.604   5.845
 3374POPC   GL244210  36.737  22.284   5.911
 3374POPC   C1A44211  36.917  22.921   6.214
 3374POPC   D2A44212  36.777  23.264   6.502
 3374POPC   C3A44213  36.760  23.216   6.917
 3374POPC   C4A44214  37.068  23.114   7.208
 3374POPC   C1B44215  36.591  22.516   6.284
 3374POPC   C2B44216  36.638  22.771   6.665
 3374POPC   C3B44217  36.697  22.740   7.120
 3374POPC   C4B44218  36.781  22.394   7.382
 3375POPC   NC344219   9.514  40.293   5.558
 3375POPC   PO444220   9.775  39.758   5.170
 3375POPC   GL144221   9.908  39.970   5.622
 3375POPC   GL244222   9.629  39.942   5.903
 3375POPC   C1A44223  10.019  40.146   6.094
 3375POPC   D2A44224   9.744  40.090   6.485
 3375POPC   C3A44225   9.882  40.134   6.930
 3375POPC   C4A44226   9.661  40.397   7.230
 3375POPC   C1B44227   9.710  39.649   6.204
 3375POPC   C2B44228   9.989  39.642   6.541
 3375POPC   C3B44229   9.798  39.641   6.916
 3375POPC   C4B44230   9.647  39.570   7.278
 3376POPC   NC344231  32.365  21.916   5.492
 3376POPC   PO444232  32.331  22.542   5.245
 3376POPC   GL144233  32.235  22.377   5.695
 3376POPC   GL244234  32.528  22.462   5.815
 3376POPC   C1A44235  32.334  22.068   6.107
 3376POPC   D2A44236  32.468  21.970   6.553
 3376POPC   C3A44237  32.149  22.018   6.886
 3376POPC   C4A44238  32.144  21.842   7.298
 3376POPC   C1B44239  32.234  22.543   6.184
 3376POPC   C2B44240  32.104  22.476   6.588
 3376POPC   C3B44241  32.204  22.580   7.003
 3376POPC   C4B44242  32.060  22.336   7.298
 3377POPC   NC344243  40.102   3.563   5.499
 3377POPC   PO444244  39.424   3.394   5.370
 3377POPC   GL144245  39.698   3.498   5.830
 3377POPC   GL244246  39.944   3.794   5.914
 3377POPC   C1A44247  39.917   3.472   6.289
 3377POPC   D2A44248  40.197   3.324   6.642
 3377POPC   C3A44249  39.943   3.389   7.016
 3377POPC   C4A44250  39.880   3.621   7.398
 3377POPC   C1B44251  40.246   3.854   6.250
 3377POPC   C2B44252  40.142   3.842   6.704
 3377POPC   C3B44253  40.354   3.703   7.082
 3377POPC   C4B44254  40.380   3.636   7.541
 3378POPC   NC344255  24.677  35.929   5.419
 3378POPC   PO444256  24.226  36.468   5.538
 3378POPC   GL144257  24.403  36.188   5.816
 3378POPC   GL244258  24.725  36.273   5.836
 3378POPC   C1A44259  24.434  36.089   6.232
 3378POPC   D2A44260  24.410  36.257   6.640
 3378POPC   C3A44261  24.478  35.923   6.912
 3378POPC   C4A44262  24.357  35.916   7.336
 3378POPC   C1B44263  24.907  36.302   6.219
 3378POPC   C2B44264  24.899  36.122   6.617
 3378POPC   C3B44265  24.814  36.287   7.008
 3378POPC   C4B44266  24.809  36.184   7.412
 3379POPC   NC344267   6.560  24.906   5.421
 3379POPC   PO444268   6.993  25.335   5.280
 3379POPC   GL144269   6.794  25.295   5.706
 3379POPC   GL244270   6.461  25.399   5.611
 3379POPC   C1A44271   6.805  25.263   6.189
 3379POPC   D2A44272   6.954  25.473   6.591
 3379POPC   C3A44273   6.862  25.375   7.028
 3379POPC   C4A44274   7.031  25.387   7.436
 3379POPC   C1B44275   6.376  25.486   6.045
 3379POPC   C2B44276   6.442  25.479   6.510
 3379POPC   C3B44277   6.442  25.652   6.950
 3379POPC   C4B44278   6.190  25.679   7.344
 3380POPC   NC344279  37.710  20.049   5.380
 3380POPC   PO444280  37.380  19.505   5.453
 3380POPC   GL144281  37.666  19.705   5.764
 3380POPC   GL244282  37.550  20.045   5.862
 3380POPC   C1A44283  37.898  19.801   6.146
 3380POPC   D2A44284  37.695  19.887   6.549
 3380POPC   C3A44285  37.901  19.868   6.953
 3380POPC   C4A44286  37.760  19.911   7.400
 3380POPC   C1B44287  37.323  20.140   6.248
 3380POPC   C2B44288  37.192  19.970   6.652
 3380POPC   C3B44289  37.388  19.844   7.046
 3380POPC   C4B44290  37.210  19.826   7.466
 3381POPC   NC344291  23.042   7.112   5.161
 3381POPC   PO444292  23.591   7.472   5.482
 3381POPC   GL144293  23.758   7.166   5.799
 3381POPC   GL244294  23.590   7.402   5.997
 3381POPC   C1A44295  24.021   7.176   6.174
 3381POPC   D2A44296  24.177   7.324   6.577
 3381POPC   C3A44297  23.874   7.320   6.902
 3381POPC   C4A44298  23.810   7.090   7.279
 3381POPC   C1B44299  23.483   7.722   6.305
 3381POPC   C2B44300  23.721   7.991   6.601
 3381POPC   C3B44301  23.800   7.873   7.028
 3381POPC   C4B44302  23.539   7.564   7.240
 3382POPC   NC344303  42.497   7.533   5.252
 3382POPC   PO444304  42.118   7.085   5.488
 3382POPC   GL144305  42.166   7.321   5.851
 3382POPC   GL244306  42.153   7.701   5.894
 3382POPC   C1A44307  42.278   7.386   6.271
 3382POPC   D2A44308  42.146   7.691   6.588
 3382POPC   C3A44309  42.140   7.466   6.957
 3382POPC   C4A44310  42.355   7.248   7.281
 3382POPC   C1B44311  42.478   7.849   6.200
 3382POPC   C2B44312  42.665   7.626   6.576
 3382POPC   C3B44313  42.633   7.632   7.039
 3382POPC   C4B44314  42.491   7.748   7.440
 3383POPC   NC344315  34.626  24.348   5.468
 3383POPC   PO444316  34.123  24.761   5.364
 3383POPC   GL144317  34.280  24.669   5.789
 3383POPC   GL244318  34.250  24.332   5.871
 3383POPC   C1A44319  34.587  24.598   6.161
 3383POPC   D2A44320  34.773  24.750   6.554
 3383POPC   C3A44321  34.579  24.661   6.958
 3383POPC   C4A44322  34.582  24.711   7.378
 3383POPC   C1B44323  34.238  24.259   6.302
 3383POPC   C2B44324  34.459  24.269   6.665
 3383POPC   C3B44325  34.370  24.198   7.074
 3383POPC   C4B44326  34.114  24.469   7.230
 3384POPC   NC344327  30.132  12.729   5.552
 3384POPC   PO444328  29.811  13.365   5.706
 3384POPC   GL144329  30.135  13.118   5.917
 3384POPC   GL244330  29.984  12.794   6.028
 3384POPC   C1A44331  30.322  13.001   6.316
 3384POPC   D2A44332  30.110  12.757   6.598
 3384POPC   C3A44333  30.261  12.830   6.979
 3384POPC   C4A44334  30.127  12.903   7.371
 3384POPC   C1B44335  29.768  12.505   6.290
 3384POPC   C2B44336  29.919  12.288   6.661
 3384POPC   C3B44337  29.944  12.451   7.046
 3384POPC   C4B44338  29.588  12.536   7.220
 3385POPC   NC344339  21.152   7.361   5.392
 3385POPC   PO444340  21.791   7.151   5.329
 3385POPC   GL144341  21.535   7.249   5.737
 3385POPC   GL244342  21.383   7.583   5.799
 3385POPC   C1A44343  21.259   7.132   6.099
 3385POPC   D2A44344  21.133   7.323   6.494
 3385POPC   C3A44345  21.288   7.199   6.914
 3385POPC   C4A44346  21.503   7.396   7.290
 3385POPC   C1B44347  21.646   7.544   6.167
 3385POPC   C2B44348  21.597   7.576   6.615
 3385POPC   C3B44349  21.804   7.691   6.991
 3385POPC   C4B44350  21.990   7.859   7.344
 3386POPC   NC344351  16.106   2.113   5.170
 3386POPC   PO444352  15.533   1.950   5.301
 3386POPC   GL144353  15.858   1.987   5.643
 3386POPC   GL244354  15.685   1.783   5.846
 3386POPC   C1A44355  15.935   2.098   6.140
 3386POPC   D2A44356  15.921   1.896   6.535
 3386POPC   C3A44357  16.019   2.098   6.909
 3386POPC   C4A44358  15.882   2.159   7.295
 3386POPC   C1B44359  15.627   1.603   6.234
 3386POPC   C2B44360  15.599   1.497   6.665
 3386POPC   C3B44361  15.650   1.766   7.017
 3386POPC   C4B44362  15.792   1.680   7.431
 3387POPC   NC344363  42.802  43.642   5.268
 3387POPC   PO444364  42.352  43.285   5.448
 3387POPC   GL144365  42.364  43.130   5.834
 3387POPC   GL244366  42.007  43.136   5.828
 3387POPC   C1A44367  42.605  43.247   6.191
 3387POPC   D2A44368  42.788  43.159   6.604
 3387POPC   C3A44369  42.540  43.136   6.972
 3387POPC   C4A44370  42.478  43.378   7.325
 3387POPC   C1B44371  42.092  42.886   6.178
 3387POPC   C2B44372  41.949  42.799   6.570
 3387POPC   C3B44373  41.956  43.052   6.908
 3387POPC   C4B44374  42.139  42.977   7.260
 3388POPC   NC344375  44.855  41.243   5.724
 3388POPC   PO444376  44.373  41.360   5.297
 3388POPC   GL144377  44.295  41.537   5.797
 3388POPC   GL244378  44.594  41.672   5.864
 3388POPC   C1A44379  44.434  41.514   6.296
 3388POPC   D2A44380  44.573  41.683   6.714
 3388POPC   C3A44381  44.771  41.348   6.965
 3388POPC   C4A44382  44.598  41.073   7.289
 3388POPC   C1B44383  44.760  41.934   6.215
 3388POPC   C2B44384   0.028  41.929   6.583
 3388POPC   C3B44385  44.875  42.041   6.950
 3388POPC   C4B44386  44.753  41.766   7.269
 3389POPC   NC344387  12.402  19.420   5.499
 3389POPC   PO444388  12.828  18.812   5.457
 3389POPC   GL144389  12.919  19.013   5.861
 3389POPC   GL244390  13.119  19.306   5.871
 3389POPC   C1A44391  13.019  18.936   6.310
 3389POPC   D2A44392  12.972  19.171   6.708
 3389POPC   C3A44393  12.644  19.005   6.993
 3389POPC   C4A44394  12.367  19.007   7.362
 3389POPC   C1B44395  13.344  19.302   6.225
 3389POPC   C2B44396  13.476  19.319   6.642
 3389POPC   C3B44397  13.341  19.381   7.062
 3389POPC   C4B44398  13.070  19.656   7.268
 3390POPC   NC344399  37.136  26.844   5.432
 3390POPC   PO444400  36.791  26.334   5.267
 3390POPC   GL144401  36.780  26.590   5.727
 3390POPC   GL244402  36.752  26.943   5.791
 3390POPC   C1A44403  37.027  26.626   6.170
 3390POPC   D2A44404  37.090  26.825   6.576
 3390POPC   C3A44405  36.989  26.629   6.979
 3390POPC   C4A44406  36.720  26.461   7.306
 3390POPC   C1B44407  37.039  27.131   6.079
 3390POPC   C2B44408  36.996  27.316   6.483
 3390POPC   C3B44409  36.887  27.202   6.907
 3390POPC   C4B44410  36.929  27.016   7.314
 3391POPC   NC344411  41.001  28.220   5.519
 3391POPC   PO444412  40.655  28.745   5.555
 3391POPC   GL144413  40.468  28.600   5.914
 3391POPC   GL244414  40.497  28.227   5.931
 3391POPC   C1A44415  40.513  28.631   6.327
 3391POPC   D2A44416  40.604  28.322   6.584
 3391POPC   C3A44417  40.603  28.588   6.895
 3391POPC   C4A44418  40.640  28.802   7.258
 3391POPC   C1B44419  40.897  28.353   6.151
 3391POPC   C2B44420  41.110  28.235   6.537
 3391POPC   C3B44421  40.968  28.229   6.980
 3391POPC   C4B44422  41.021  28.050   7.403
 3392POPC   NC344423  29.935   3.667   5.443
 3392POPC   PO444424  29.408   3.096   5.482
 3392POPC   GL144425  29.609   3.436   5.804
 3392POPC   GL244426  29.804   3.772   5.936
 3392POPC   C1A44427  29.876   3.353   6.209
 3392POPC   D2A44428  30.067   3.421   6.633
 3392POPC   C3A44429  29.740   3.431   6.926
 3392POPC   C4A44430  29.616   3.508   7.322
 3392POPC   C1B44431  30.200   3.747   6.236
 3392POPC   C2B44432  30.222   3.933   6.685
 3392POPC   C3B44433  30.033   3.814   7.088
 3392POPC   C4B44434  29.961   3.783   7.572
 3393POPC   NC344435  40.022  22.642   5.485
 3393POPC   PO444436  40.318  23.278   5.553
 3393POPC   GL144437  40.150  22.973   5.884
 3393POPC   GL244438  40.377  22.657   5.878
 3393POPC   C1A44439  39.753  22.986   6.210
 3393POPC   D2A44440  39.501  22.787   6.569
 3393POPC   C3A44441  39.678  22.756   7.006
 3393POPC   C4A44442  39.633  22.915   7.446
 3393POPC   C1B44443  40.180  22.698   6.297
 3393POPC   C2B44444  40.039  22.898   6.653
 3393POPC   C3B44445  40.197  22.914   7.055
 3393POPC   C4B44446  40.143  23.083   7.476
 3394POPC   NC344447   4.552  27.024   5.440
 3394POPC   PO444448   4.207  27.687   5.473
 3394POPC   GL144449   4.339  27.809   5.867
 3394POPC   GL244450   4.483  27.464   5.869
 3394POPC   C1A44451   4.336  27.914   6.311
 3394POPC   D2A44452   4.665  27.965   6.596
 3394POPC   C3A44453   4.655  27.661   6.879
 3394POPC   C4A44454   4.400  27.640   7.201
 3394POPC   C1B44455   4.147  27.458   6.171
 3394POPC   C2B44456   4.273  27.442   6.607
 3394POPC   C3B44457   4.021  27.383   6.989
 3394POPC   C4B44458   4.114  27.270   7.417
 3395POPC   NC344459   6.417  16.523   5.124
 3395POPC   PO444460   6.714  17.081   5.479
 3395POPC   GL144461   6.834  16.832   5.845
 3395POPC   GL244462   7.100  17.010   5.920
 3395POPC   C1A44463   6.660  16.683   6.272
 3395POPC   D2A44464   6.336  16.812   6.600
 3395POPC   C3A44465   6.439  16.603   6.998
 3395POPC   C4A44466   6.692  16.473   7.336
 3395POPC   C1B44467   6.939  17.121   6.306
 3395POPC   C2B44468   6.733  17.180   6.707
 3395POPC   C3B44469   6.768  17.079   7.141
 3395POPC   C4B44470   6.951  16.878   7.526
 3396POPC   NC344471  41.904   9.964   5.401
 3396POPC   PO444472  41.678  10.637   5.325
 3396POPC   GL144473  41.519  10.481   5.734
 3396POPC   GL244474  41.822  10.294   5.813
 3396POPC   C1A44475  41.375  10.665   6.155
 3396POPC   D2A44476  41.591  10.836   6.547
 3396POPC   C3A44477  41.395  10.724   6.959
 3396POPC   C4A44478  41.442  10.435   7.323
 3396POPC   C1B44479  41.826  10.446   6.252
 3396POPC   C2B44480  41.704  10.370   6.676
 3396POPC   C3B44481  41.872  10.491   7.056
 3396POPC   C4B44482  41.914  10.276   7.449
 3397POPC   NC344483   8.174  21.753   5.373
 3397POPC   PO444484   7.977  22.388   5.520
 3397POPC   GL144485   8.356  22.258   5.806
 3397POPC   GL244486   8.410  21.898   5.820
 3397POPC   C1A44487   8.339  22.249   6.262
 3397POPC   D2A44488   7.969  22.258   6.550
 3397POPC   C3A44489   7.981  22.348   7.005
 3397POPC   C4A44490   7.937  22.211   7.445
 3397POPC   C1B44491   8.512  21.771   6.233
 3397POPC   C2B44492   8.510  21.911   6.678
 3397POPC   C3B44493   8.593  21.922   7.125
 3397POPC   C4B44494   8.439  22.279   7.318
 3398POPC   NC344495   2.814  39.501   5.535
 3398POPC   PO444496   3.249  38.937   5.543
 3398POPC   GL144497   2.920  38.877   5.854
 3398POPC   GL244498   2.637  39.118   5.850
 3398POPC   C1A44499   2.820  38.976   6.302
 3398POPC   D2A44500   2.734  39.237   6.629
 3398POPC   C3A44501   2.797  39.043   7.015
 3398POPC   C4A44502   2.764  39.316   7.368
 3398POPC   C1B44503   2.320  39.139   6.209
 3398POPC   C2B44504   2.247  39.354   6.615
 3398POPC   C3B44505   2.378  39.359   7.023
 3398POPC   C4B44506   2.330  38.985   7.269
 3399POPC   NC344507  34.814  19.588   5.587
 3399POPC   PO444508  34.483  20.019   5.175
 3399POPC   GL144509  34.406  19.898   5.656
 3399POPC   GL244510  34.432  19.582   5.923
 3399POPC   C1A44511  34.488  20.040   6.104
 3399POPC   D2A44512  34.402  19.772   6.452
 3399POPC   C3A44513  34.398  19.990   6.828
 3399POPC   C4A44514  34.547  20.011   7.229
 3399POPC   C1B44515  34.773  19.483   6.243
 3399POPC   C2B44516  34.716  19.424   6.692
 3399POPC   C3B44517  34.684  19.523   7.134
 3399POPC   C4B44518  35.016  19.430   7.416
 3400POPC   NC344519  30.989  24.473   5.466
 3400POPC   PO444520  30.385  24.406   5.409
 3400POPC   GL144521  30.578  24.557   5.771
 3400POPC   GL244522  30.580  24.200   5.894
 3400POPC   C1A44523  30.851  24.591   6.128
 3400POPC   D2A44524  30.853  24.423   6.522
 3400POPC   C3A44525  30.650  24.570   6.874
 3400POPC   C4A44526  30.807  24.669   7.253
 3400POPC   C1B44527  30.437  24.134   6.344
 3400POPC   C2B44528  30.387  24.094   6.808
 3400POPC   C3B44529  30.227  24.264   7.205
 3400POPC   C4B44530  30.207  24.249   7.660
 3401POPC   NC344531   2.587  34.754   5.366
 3401POPC   PO444532   2.550  34.095   5.692
 3401POPC   GL144533   2.812  34.323   5.903
 3401POPC   GL244534   2.750  34.666   5.865
 3401POPC   C1A44535   2.825  34.402   6.352
 3401POPC   D2A44536   2.512  34.442   6.682
 3401POPC   C3A44537   2.687  34.569   7.077
 3401POPC   C4A44538   2.690  34.352   7.456
 3401POPC   C1B44539   3.036  34.841   6.196
 3401POPC   C2B44540   3.047  34.890   6.645
 3401POPC   C3B44541   3.124  34.897   7.062
 3401POPC   C4B44542   3.145  34.588   7.368
 3402POPC   NC344543  15.601   0.153   5.587
 3402POPC   PO444544  14.995   0.079   5.208
 3402POPC   GL144545  15.079   0.115   5.700
 3402POPC   GL244546  15.216   0.415   5.847
 3402POPC   C1A44547  14.982   0.033   6.166
 3402POPC   D2A44548  14.878   0.062   6.638
 3402POPC   C3A44549  15.123   0.370   6.938
 3402POPC   C4A44550  15.286   0.349   7.378
 3402POPC   C1B44551  15.329   0.399   6.290
 3402POPC   C2B44552  15.568   0.336   6.649
 3402POPC   C3B44553  15.632   0.520   7.027
 3402POPC   C4B44554  15.409   0.822   7.212
 3403POPC   NC344555  35.586  31.465   5.340
 3403POPC   PO444556  34.965  31.525   5.435
 3403POPC   GL144557  35.159  31.338   5.777
 3403POPC   GL244558  35.454  31.143   5.716
 3403POPC   C1A44559  35.445  31.470   6.127
 3403POPC   D2A44560  35.590  31.518   6.584
 3403POPC   C3A44561  35.372  31.593   7.002
 3403POPC   C4A44562  35.345  31.792   7.421
 3403POPC   C1B44563  35.249  30.970   6.096
 3403POPC   C2B44564  35.238  31.146   6.506
 3403POPC   C3B44565  35.445  31.097   6.896
 3403POPC   C4B44566  35.340  31.195   7.312
 3404POPC   NC344567   8.907   1.902   5.231
 3404POPC   PO444568   8.843   2.416   5.630
 3404POPC   GL144569   8.822   1.959   5.740
 3404POPC   GL244570   9.148   1.758   5.725
 3404POPC   C1A44571   8.814   1.835   6.166
 3404POPC   D2A44572   9.047   2.104   6.467
 3404POPC   C3A44573   8.914   2.049   6.888
 3404POPC   C4A44574   8.971   2.430   7.120
 3404POPC   C1B44575   9.319   1.747   6.183
 3404POPC   C2B44576   9.086   1.614   6.561
 3404POPC   C3B44577   9.061   1.522   6.988
 3404POPC   C4B44578   8.746   1.576   7.269
 3405POPC   NC344579  44.161  21.291   5.508
 3405POPC   PO444580  43.807  21.821   5.337
 3405POPC   GL144581  43.830  21.628   5.734
 3405POPC   GL244582  43.753  21.252   5.793
 3405POPC   C1A44583  44.045  21.557   6.111
 3405POPC   D2A44584  44.013  21.431   6.533
 3405POPC   C3A44585  43.767  21.563   6.878
 3405POPC   C4A44586  43.579  21.648   7.284
 3405POPC   C1B44587  43.885  21.063   6.177
 3405POPC   C2B44588  43.929  20.889   6.585
 3405POPC   C3B44589  43.979  20.988   6.984
 3405POPC   C4B44590  43.859  21.233   7.299
 3406POPC   NC344591   5.393  43.264   5.304
 3406POPC   PO444592   5.991  42.889   5.432
 3406POPC   GL144593   6.091  42.926   5.875
 3406POPC   GL244594   6.020  43.297   5.888
 3406POPC   C1A44595   5.842  42.982   6.243
 3406POPC   D2A44596   5.892  43.137   6.648
 3406POPC   C3A44597   5.777  42.913   6.995
 3406POPC   C4A44598   5.946  42.940   7.389
 3406POPC   C1B44599   5.993  43.527   6.281
 3406POPC   C2B44600   6.186  43.562   6.702
 3406POPC   C3B44601   6.000  43.402   7.082
 3406POPC   C4B44602   6.104  43.396   7.510
 3407POPC   NC344603  25.459  43.605   5.514
 3407POPC   PO444604  25.101  44.211   5.333
 3407POPC   GL144605  25.244  44.011   5.764
 3407POPC   GL244606  25.570  43.810   5.956
 3407POPC   C1A44607  25.233  44.080   6.211
 3407POPC   D2A44608  25.503  44.017   6.565
 3407POPC   C3A44609  25.213  44.076   6.871
 3407POPC   C4A44610  25.111  43.903   7.233
 3407POPC   C1B44611  25.374  43.582   6.284
 3407POPC   C2B44612  25.046  43.689   6.544
 3407POPC   C3B44613  25.161  43.528   6.902
 3407POPC   C4B44614  24.977  43.351   7.214
 3408POPC   NC344615  26.540  20.766   5.369
 3408POPC   PO444616  27.031  20.280   5.185
 3408POPC   GL144617  26.997  20.431   5.645
 3408POPC   GL244618  26.661  20.491   5.792
 3408POPC   C1A44619  27.153  20.366   6.082
 3408POPC   D2A44620  27.273  20.380   6.545
 3408POPC   C3A44621  26.912  20.413   6.839
 3408POPC   C4A44622  26.904  20.342   7.276
 3408POPC   C1B44623  26.777  20.746   6.139
 3408POPC   C2B44624  26.599  20.778   6.527
 3408POPC   C3B44625  26.672  20.874   6.943
 3408POPC   C4B44626  26.505  20.723   7.273
 3409POPC   NC344627  23.817  23.492   5.483
 3409POPC   PO444628  23.538  24.026   5.180
 3409POPC   GL144629  23.609  23.938   5.683
 3409POPC   GL244630  23.422  23.621   5.785
 3409POPC   C1A44631  23.809  23.758   6.128
 3409POPC   D2A44632  23.785  23.516   6.535
 3409POPC   C3A44633  23.848  23.612   6.958
 3409POPC   C4A44634  23.540  23.804   7.197
 3409POPC   C1B44635  23.499  23.335   6.136
 3409POPC   C2B44636  23.315  23.309   6.505
 3409POPC   C3B44637  23.477  23.259   6.870
 3409POPC   C4B44638  23.507  23.255   7.269
 3410POPC   NC344639  28.091  42.158   5.334
 3410POPC   PO444640  28.654  42.495   5.573
 3410POPC   GL144641  28.248  42.339   5.805
 3410POPC   GL244642  28.159  41.952   5.824
 3410POPC   C1A44643  28.118  42.551   6.194
 3410POPC   D2A44644  27.999  42.449   6.633
 3410POPC   C3A44645  28.150  42.508   7.053
 3410POPC   C4A44646  28.555  42.402   7.265
 3410POPC   C1B44647  28.004  42.047   6.267
 3410POPC   C2B44648  27.870  41.966   6.714
 3410POPC   C3B44649  28.046  42.002   7.174
 3410POPC   C4B44650  28.241  42.171   7.599
 3411POPC   NC344651  12.388   4.742   5.472
 3411POPC   PO444652  12.031   5.240   5.264
 3411POPC   GL144653  11.970   5.121   5.720
 3411POPC   GL244654  11.732   5.386   5.867
 3411POPC   C1A44655  12.185   5.002   6.113
 3411POPC   D2A44656  12.384   4.736   6.443
 3411POPC   C3A44657  12.393   4.830   6.910
 3411POPC   C4A44658  12.467   5.216   7.157
 3411POPC   C1B44659  11.806   5.297   6.295
 3411POPC   C2B44660  12.044   5.109   6.617
 3411POPC   C3B44661  11.964   5.116   7.038
 3411POPC   C4B44662  11.677   4.975   7.352
 3412POPC   NC344663  20.990  27.701   5.446
 3412POPC   PO444664  20.336  27.457   5.419
 3412POPC   GL144665  20.470  27.631   5.804
 3412POPC   GL244666  20.785  27.531   5.899
 3412POPC   C1A44667  20.462  27.717   6.238
 3412POPC   D2A44668  20.666  27.625   6.602
 3412POPC   C3A44669  20.625  27.855   6.961
 3412POPC   C4A44670  20.354  27.800   7.272
 3412POPC   C1B44671  20.951  27.825   6.230
 3412POPC   C2B44672  21.151  27.759   6.644
 3412POPC   C3B44673  20.983  27.504   6.983
 3412POPC   C4B44674  20.801  27.576   7.363
 3413POPC   NC344675  37.232  15.222   5.488
 3413POPC   PO444676  36.673  14.694   5.559
 3413POPC   GL144677  36.807  14.971   5.934
 3413POPC   GL244678  37.045  15.279   5.960
 3413POPC   C1A44679  36.852  15.034   6.406
 3413POPC   D2A44680  37.075  15.235   6.768
 3413POPC   C3A44681  36.873  15.114   7.173
 3413POPC   C4A44682  36.633  15.297   7.533
 3413POPC   C1B44683  37.287  14.921   6.154
 3413POPC   C2B44684  37.268  14.722   6.543
 3413POPC   C3B44685  37.345  14.830   6.932
 3413POPC   C4B44686  37.296  14.748   7.331
 3414POPC   NC344687  27.505   3.530   5.039
 3414POPC   PO444688  27.430   3.219   5.664
 3414POPC   GL144689  27.442   3.604   5.896
 3414POPC   GL244690  27.795   3.653   5.821
 3414POPC   C1A44691  27.272   3.761   6.303
 3414POPC   D2A44692  27.134   3.516   6.675
 3414POPC   C3A44693  27.337   3.518   7.045
 3414POPC   C4A44694  27.613   3.810   7.232
 3414POPC   C1B44695  27.830   3.555   6.242
 3414POPC   C2B44696  27.679   3.640   6.635
 3414POPC   C3B44697  27.836   3.404   6.941
 3414POPC   C4B44698  27.992   3.496   7.324
 3415POPC   NC344699  32.676  10.375   5.005
 3415POPC   PO444700  32.330  10.634   5.489
 3415POPC   GL144701  32.179  10.713   5.821
 3415POPC   GL244702  32.512  10.905   5.866
 3415POPC   C1A44703  32.031  10.463   6.159
 3415POPC   D2A44704  32.206  10.407   6.573
 3415POPC   C3A44705  32.063  10.196   6.917
 3415POPC   C4A44706  32.125  10.503   7.234
 3415POPC   C1B44707  32.423  10.775   6.255
 3415POPC   C2B44708  32.272  10.923   6.571
 3415POPC   C3B44709  32.381  10.873   6.982
 3415POPC   C4B44710  32.553  10.883   7.392
 3416POPC   NC344711  22.432  14.486   5.295
 3416POPC   PO444712  21.825  14.200   5.169
 3416POPC   GL144713  21.991  14.292   5.632
 3416POPC   GL244714  22.317  14.431   5.795
 3416POPC   C1A44715  21.984  14.148   6.088
 3416POPC   D2A44716  21.768  14.305   6.456
 3416POPC   C3A44717  21.853  14.169   6.884
 3416POPC   C4A44718  22.160  14.258   7.231
 3416POPC   C1B44719  22.370  14.425   6.270
 3416POPC   C2B44720  22.230  14.486   6.727
 3416POPC   C3B44721  22.316  14.731   7.111
 3416POPC   C4B44722  22.550  14.627   7.516
 3417POPC   NC344723   0.405  11.230   5.280
 3417POPC   PO444724   0.307  11.822   5.366
 3417POPC   GL144725   0.419  11.537   5.719
 3417POPC   GL244726   0.309  11.190   5.845
 3417POPC   C1A44727   0.389  11.591   6.185
 3417POPC   D2A44728   0.200  11.541   6.618
 3417POPC   C3A44729   0.406  11.588   7.014
 3417POPC   C4A44730   0.363  11.437   7.442
 3417POPC   C1B44731   0.436  11.101   6.346
 3417POPC   C2B44732   0.427  11.098   6.842
 3417POPC   C3B44733   0.457  10.943   7.285
 3417POPC   C4B44734   0.865  10.859   7.549
 3418POPC   NC344735  15.915  28.694   5.721
 3418POPC   PO444736  16.216  28.079   5.492
 3418POPC   GL144737  16.271  28.264   5.881
 3418POPC   GL244738  15.948  28.200   5.913
 3418POPC   C1A44739  16.251  28.334   6.319
 3418POPC   D2A44740  16.021  28.539   6.651
 3418POPC   C3A44741  16.137  28.361   7.033
 3418POPC   C4A44742  15.965  28.038   7.268
 3418POPC   C1B44743  15.734  28.241   6.274
 3418POPC   C2B44744  15.662  28.066   6.665
 3418POPC   C3B44745  15.590  28.315   7.022
 3418POPC   C4B44746  15.764  28.519   7.364
 3419POPC   NC344747  19.450   0.213   5.144
 3419POPC   PO444748  18.923   0.643   5.367
 3419POPC   GL144749  19.103   0.619   5.844
 3419POPC   GL244750  19.003   0.312   6.039
 3419POPC   C1A44751  19.226   0.658   6.303
 3419POPC   D2A44752  18.937   0.473   6.609
 3419POPC   C3A44753  19.001   0.659   7.008
 3419POPC   C4A44754  18.731   0.635   7.340
 3419POPC   C1B44755  19.039   0.006   6.354
 3419POPC   C2B44756  18.861  44.917   6.718
 3419POPC   C3B44757  18.872   0.150   7.067
 3419POPC   C4B44758  19.299   0.275   7.171
 3420POPC   NC344759   4.400  37.384   5.423
 3420POPC   PO444760   4.512  38.105   5.429
 3420POPC   GL144761   4.503  37.867   5.820
 3420POPC   GL244762   4.754  37.610   5.773
 3420POPC   C1A44763   4.392  37.911   6.281
 3420POPC   D2A44764   4.069  37.860   6.623
 3420POPC   C3A44765   4.082  37.503   6.912
 3420POPC   C4A44766   4.014  37.612   7.352
 3420POPC   C1B44767   4.480  37.403   6.093
 3420POPC   C2B44768   4.547  37.261   6.514
 3420POPC   C3B44769   4.594  37.409   6.939
 3420POPC   C4B44770   4.359  37.245   7.271
 3421POPC   NC344771  31.045  17.718   5.259
 3421POPC   PO444772  30.745  17.291   5.653
 3421POPC   GL144773  30.618  17.357   6.038
 3421POPC   GL244774  30.387  17.628   5.957
 3421POPC   C1A44775  30.929  17.468   6.344
 3421POPC   D2A44776  31.065  17.311   6.733
 3421POPC   C3A44777  30.866  17.435   7.105
 3421POPC   C4A44778  30.909  17.586   7.521
 3421POPC   C1B44779  30.507  17.748   6.348
 3421POPC   C2B44780  30.644  17.691   6.736
 3421POPC   C3B44781  30.415  17.658   7.116
 3421POPC   C4B44782  30.477  17.879   7.493
 3422POPC   NC344783  21.869  43.342   5.484
 3422POPC   PO444784  22.312  42.864   5.414
 3422POPC   GL144785  22.090  42.998   5.785
 3422POPC   GL244786  22.187  43.393   5.881
 3422POPC   C1A44787  22.088  42.861   6.192
 3422POPC   D2A44788  22.242  43.097   6.509
 3422POPC   C3A44789  22.260  42.926   6.900
 3422POPC   C4A44790  22.256  43.134   7.311
 3422POPC   C1B44791  21.835  43.303   6.143
 3422POPC   C2B44792  21.726  43.106   6.505
 3422POPC   C3B44793  21.846  43.254   6.891
 3422POPC   C4B44794  21.761  43.291   7.303
 3423POPC   NC344795  15.337  44.383   5.498
 3423POPC   PO444796  15.014  43.925   5.125
 3423POPC   GL144797  15.044  44.004   5.651
 3423POPC   GL244798  15.340  43.846   5.869
 3423POPC   C1A44799  14.958  44.049   6.131
 3423POPC   D2A44800  15.170  44.052   6.549
 3423POPC   C3A44801  14.940  43.929   6.941
 3423POPC   C4A44802  14.965  43.681   7.331
 3423POPC   C1B44803  15.448  44.250   6.111
 3423POPC   C2B44804  15.562  44.423   6.514
 3423POPC   C3B44805  15.527  44.187   6.896
 3423POPC   C4B44806  15.338  44.031   7.263
 3424POPC   NC344807  13.071  44.125   5.647
 3424POPC   PO444808  12.701  44.513   5.150
 3424POPC   GL144809  12.638  44.693   5.643
 3424POPC   GL244810  12.643  44.399   5.841
 3424POPC   C1A44811  12.651  44.847   6.103
 3424POPC   D2A44812  12.906  44.795   6.505
 3424POPC   C3A44813  12.820  44.629   6.921
 3424POPC   C4A44814  12.738  44.881   7.282
 3424POPC   C1B44815  12.933  44.392   6.210
 3424POPC   C2B44816  13.174  44.321   6.590
 3424POPC   C3B44817  13.184  44.246   7.018
 3424POPC   C4B44818  12.900  44.356   7.362
 3425POPC   NC344819  20.597   7.949   5.414
 3425POPC   PO444820  20.747   8.585   5.396
 3425POPC   GL144821  20.733   8.341   5.750
 3425POPC   GL244822  20.392   8.425   5.792
 3425POPC   C1A44823  20.797   8.152   6.162
 3425POPC   D2A44824  20.758   8.306   6.602
 3425POPC   C3A44825  20.717   8.035   6.975
 3425POPC   C4A44826  21.047   8.142   7.268
 3425POPC   C1B44827  20.489   8.580   6.205
 3425POPC   C2B44828  20.272   8.460   6.579
 3425POPC   C3B44829  20.346   8.411   6.987
 3425POPC   C4B44830  20.134   8.512   7.354
 3426POPC   NC344831  19.088  34.377   5.366
 3426POPC   PO444832  18.569  34.673   5.549
 3426POPC   GL144833  18.942  34.612   5.839
 3426POPC   GL244834  19.291  34.406   5.841
 3426POPC   C1A44835  19.002  34.521   6.263
 3426POPC   D2A44836  19.239  34.545   6.638
 3426POPC   C3A44837  18.985  34.482   6.982
 3426POPC   C4A44838  19.015  34.261   7.305
 3426POPC   C1B44839  19.476  34.633   6.180
 3426POPC   C2B44840  19.383  34.994   6.439
 3426POPC   C3B44841  19.339  34.973   6.877
 3426POPC   C4B44842  19.452  34.601   7.125
 3427POPC   NC344843  33.191  41.747   5.400
 3427POPC   PO444844  32.547  41.559   5.459
 3427POPC   GL144845  32.878  41.673   5.788
 3427POPC   GL244846  33.097  41.419   5.813
 3427POPC   C1A44847  32.923  41.648   6.232
 3427POPC   D2A44848  33.103  41.634   6.642
 3427POPC   C3A44849  32.797  41.628   6.999
 3427POPC   C4A44850  32.947  41.636   7.444
 3427POPC   C1B44851  33.247  41.180   6.155
 3427POPC   C2B44852  33.320  41.151   6.610
 3427POPC   C3B44853  33.181  41.287   7.032
 3427POPC   C4B44854  33.238  41.216   7.496
 3428POPC   NC344855   1.507  17.088   5.403
 3428POPC   PO444856   1.058  17.609   5.276
 3428POPC   GL144857   1.297  17.458   5.728
 3428POPC   GL244858   1.555  17.276   5.867
 3428POPC   C1A44859   1.166  17.398   6.184
 3428POPC   D2A44860   1.159  17.384   6.639
 3428POPC   C3A44861   1.260  17.703   6.941
 3428POPC   C4A44862   0.969  17.714   7.268
 3428POPC   C1B44863   1.671  17.405   6.286
 3428POPC   C2B44864   1.662  17.489   6.726
 3428POPC   C3B44865   1.590  17.282   7.117
 3428POPC   C4B44866   1.398  17.473   7.493
 3429POPC   NC344867  26.365  22.472   5.673
 3429POPC   PO444868  26.040  22.069   5.171
 3429POPC   GL144869  25.985  22.073   5.648
 3429POPC   GL244870  25.866  22.359   5.787
 3429POPC   C1A44871  25.921  21.982   6.115
 3429POPC   D2A44872  26.067  22.163   6.521
 3429POPC   C3A44873  25.964  22.097   6.954
 3429POPC   C4A44874  26.286  22.072   7.255
 3429POPC   C1B44875  25.811  22.500   6.217
 3429POPC   C2B44876  25.849  22.625   6.643
 3429POPC   C3B44877  25.589  22.448   6.962
 3429POPC   C4B44878  25.656  22.379   7.400
 3430POPC   NC344879  32.749   5.406   5.645
 3430POPC   PO444880  32.882   6.076   5.386
 3430POPC   GL144881  33.007   6.016   5.804
 3430POPC   GL244882  33.061   5.708   5.942
 3430POPC   C1A44883  32.700   6.028   6.141
 3430POPC   D2A44884  32.629   5.710   6.487
 3430POPC   C3A44885  32.866   5.909   6.843
 3430POPC   C4A44886  33.006   5.825   7.236
 3430POPC   C1B44887  33.101   5.832   6.362
 3430POPC   C2B44888  33.331   5.676   6.642
 3430POPC   C3B44889  33.352   5.520   7.009
 3430POPC   C4B44890  33.404   5.592   7.443
 3431POPC   NC344891  20.775  44.814   5.412
 3431POPC   PO444892  20.240  44.306   5.249
 3431POPC   GL144893  20.249  44.599   5.648
 3431POPC   GL244894  20.581  44.535   5.774
 3431POPC   C1A44895  20.320  44.810   6.098
 3431POPC   D2A44896  20.337  44.631   6.517
 3431POPC   C3A44897  20.496  44.880   6.865
 3431POPC   C4A44898  20.501  44.749   7.288
 3431POPC   C1B44899  20.781  44.530   6.170
 3431POPC   C2B44900  20.899  44.680   6.571
 3431POPC   C3B44901  20.874  44.497   6.974
 3431POPC   C4B44902  20.954  44.521   7.402
 3432POPC   NC344903  32.269  41.150   5.422
 3432POPC   PO444904  32.068  41.798   5.602
 3432POPC   GL144905  32.332  41.542   5.938
 3432POPC   GL244906  32.587  41.266   5.865
 3432POPC   C1A44907  32.386  41.685   6.387
 3432POPC   D2A44908  32.066  41.785   6.720
 3432POPC   C3A44909  32.169  41.881   7.162
 3432POPC   C4A44910  32.039  41.770   7.607
 3432POPC   C1B44911  32.557  41.201   6.321
 3432POPC   C2B44912  32.259  41.221   6.672
 3432POPC   C3B44913  32.118  41.391   7.060
 3432POPC   C4B44914  32.444  41.511   7.355
 3433POPC   NC344915  32.496  41.974   5.714
 3433POPC   PO444916  32.139  42.511   5.401
 3433POPC   GL144917  32.234  42.412   5.841
 3433POPC   GL244918  32.593  42.508   5.821
 3433POPC   C1A44919  32.252  42.231   6.294
 3433POPC   D2A44920  32.416  42.169   6.737
 3433POPC   C3A44921  32.159  42.365   7.047
 3433POPC   C4A44922  31.769  42.588   7.039
 3433POPC   C1B44923  32.508  42.679   6.243
 3433POPC   C2B44924  32.609  42.648   6.680
 3433POPC   C3B44925  32.641  42.561   7.112
 3433POPC   C4B44926  32.543  42.694   7.531
 3434POPC   NC344927  31.198  26.825   5.166
 3434POPC   PO444928  31.604  27.216   5.497
 3434POPC   GL144929  31.521  27.077   5.854
 3434POPC   GL244930  31.552  26.754   5.861
 3434POPC   C1A44931  31.628  27.188   6.230
 3434POPC   D2A44932  31.529  27.005   6.582
 3434POPC   C3A44933  31.457  27.231   6.914
 3434POPC   C4A44934  31.468  27.008   7.243
 3434POPC   C1B44935  31.524  26.510   6.261
 3434POPC   C2B44936  31.344  26.524   6.680
 3434POPC   C3B44937  31.565  26.526   7.078
 3434POPC   C4B44938  31.489  26.556   7.531
 3435POPC   NC344939  37.911  32.517   5.307
 3435POPC   PO444940  37.452  32.098   5.463
 3435POPC   GL144941  37.528  32.322   5.805
 3435POPC   GL244942  37.150  32.293   5.849
 3435POPC   C1A44943  37.833  32.398   6.161
 3435POPC   D2A44944  38.002  32.221   6.557
 3435POPC   C3A44945  37.908  32.357   6.948
 3435POPC   C4A44946  37.853  32.098   7.344
 3435POPC   C1B44947  37.327  32.263   6.267
 3435POPC   C2B44948  37.491  32.203   6.663
 3435POPC   C3B44949  37.421  32.205   7.098
 3435POPC   C4B44950  37.135  32.307   7.395
 3436POPC   NC344951  38.431  20.084   5.249
 3436POPC   PO444952  38.065  19.639   5.470
 3436POPC   GL144953  38.263  19.901   5.799
 3436POPC   GL244954  38.602  19.818   5.952
 3436POPC   C1A44955  38.310  20.110   6.230
 3436POPC   D2A44956  38.667  20.123   6.534
 3436POPC   C3A44957  38.522  20.009   6.959
 3436POPC   C4A44958  38.249  19.985   7.302
 3436POPC   C1B44959  38.370  19.603   6.287
 3436POPC   C2B44960  38.279  19.619   6.738
 3436POPC   C3B44961  38.365  19.523   7.169
 3436POPC   C4B44962  38.585  19.642   7.575
 3437POPC   NC344963  27.769  35.921   5.552
 3437POPC   PO444964  27.737  36.597   5.430
 3437POPC   GL144965  27.478  36.340   5.751
 3437POPC   GL244966  27.271  36.025   5.608
 3437POPC   C1A44967  27.656  36.183   6.168
 3437POPC   D2A44968  27.774  35.972   6.570
 3437POPC   C3A44969  27.753  36.133   7.022
 3437POPC   C4A44970  27.805  35.875   7.417
 3437POPC   C1B44971  27.205  35.984   6.032
 3437POPC   C2B44972  27.245  36.004   6.485
 3437POPC   C3B44973  27.379  35.829   6.879
 3437POPC   C4B44974  27.314  35.947   7.319
 3438POPC   NC344975  15.231  38.147   5.377
 3438POPC   PO444976  14.725  38.489   5.577
 3438POPC   GL144977  15.150  38.379   5.861
 3438POPC   GL244978  15.419  38.092   5.849
 3438POPC   C1A44979  15.401  38.554   6.256
 3438POPC   D2A44980  15.333  38.734   6.702
 3438POPC   C3A44981  14.989  38.518   6.922
 3438POPC   C4A44982  15.020  38.302   7.303
 3438POPC   C1B44983  15.435  38.037   6.290
 3438POPC   C2B44984  15.591  38.221   6.679
 3438POPC   C3B44985  15.482  38.347   7.090
 3438POPC   C4B44986  15.430  38.091   7.499
 3439POPC   NC344987  31.996   1.851   5.201
 3439POPC   PO444988  32.351   2.323   5.533
 3439POPC   GL144989  32.402   1.991   5.770
 3439POPC   GL244990  32.290   1.676   5.615
 3439POPC   C1A44991  32.122   1.932   6.108
 3439POPC   D2A44992  32.148   1.979   6.551
 3439POPC   C3A44993  31.982   1.723   6.861
 3439POPC   C4A44994  31.953   2.001   7.257
 3439POPC   C1B44995  32.471   1.556   6.019
 3439POPC   C2B44996  32.564   1.769   6.377
 3439POPC   C3B44997  32.534   1.831   6.851
 3439POPC   C4B44998  32.330   1.626   7.202
 3440POPC   NC344999  43.704  25.404   5.620
 3440POPC   PO445000  44.323  25.209   5.547
 3440POPC   GL145001  44.043  25.009   5.897
 3440POPC   GL245002  43.675  25.042   5.954
 3440POPC   C1A45003  44.030  25.051   6.332
 3440POPC   D2A45004  44.106  25.370   6.593
 3440POPC   C3A45005  43.903  25.301   6.963
 3440POPC   C4A45006  44.055  25.560   7.248
 3440POPC   C1B45007  43.603  25.376   6.253
 3440POPC   C2B45008  43.518  25.181   6.618
 3440POPC   C3B45009  43.503  24.899   6.923
 3440POPC   C4B45010  43.545  25.098   7.270
 3441POPC   NC345011  29.446  42.814   5.447
 3441POPC   PO445012  28.914  43.361   5.335
 3441POPC   GL145013  29.033  43.222   5.801
 3441POPC   GL245014  29.343  43.331   6.021
 3441POPC   C1A45015  28.949  43.047   6.224
 3441POPC   D2A45016  29.209  43.106   6.598
 3441POPC   C3A45017  29.033  43.117   7.025
 3441POPC   C4A45018  29.137  43.264   7.445
 3441POPC   C1B45019  29.436  42.888   6.170
 3441POPC   C2B45020  29.449  42.644   6.562
 3441POPC   C3B45021  29.464  42.847   6.958
 3441POPC   C4B45022  29.358  42.803   7.355
 3442POPC   NC345023   5.286  37.137   5.026
 3442POPC   PO445024   5.440  36.624   5.552
 3442POPC   GL145025   5.311  36.976   5.816
 3442POPC   GL245026   4.973  37.132   5.660
 3442POPC   C1A45027   5.291  36.816   6.266
 3442POPC   D2A45028   5.135  36.539   6.627
 3442POPC   C3A45029   5.266  36.661   7.070
 3442POPC   C4A45030   5.338  37.126   7.177
 3442POPC   C1B45031   4.900  37.114   6.121
 3442POPC   C2B45032   5.051  37.143   6.562
 3442POPC   C3B45033   4.913  37.010   6.953
 3442POPC   C4B45034   4.866  37.182   7.384
 3443POPC   NC345035   3.120  40.379   5.329
 3443POPC   PO445036   2.773  40.916   5.541
 3443POPC   GL145037   2.970  40.658   5.824
 3443POPC   GL245038   3.032  40.931   6.003
 3443POPC   C1A45039   2.833  40.554   6.273
 3443POPC   D2A45040   2.660  40.823   6.599
 3443POPC   C3A45041   2.814  40.888   6.981
 3443POPC   C4A45042   2.591  40.810   7.312
 3443POPC   C1B45043   2.838  41.176   6.295
 3443POPC   C2B45044   2.886  41.313   6.702
 3443POPC   C3B45045   2.658  41.382   7.045
 3443POPC   C4B45046   2.761  41.268   7.447
 3444POPC   NC345047  13.676   3.881   5.060
 3444POPC   PO445048  13.722   4.461   5.425
 3444POPC   GL145049  13.553   4.620   5.852
 3444POPC   GL245050  13.562   4.279   5.991
 3444POPC   C1A45051  13.405   4.643   6.293
 3444POPC   D2A45052  13.707   4.464   6.564
 3444POPC   C3A45053  13.608   4.514   6.983
 3444POPC   C4A45054  13.863   4.522   7.373
 3444POPC   C1B45055  13.252   4.153   6.284
 3444POPC   C2B45056  13.159   4.238   6.682
 3444POPC   C3B45057  13.254   4.107   7.057
 3444POPC   C4B45058  13.400   4.300   7.399
 3445POPC   NC345059   8.011  36.959   5.565
 3445POPC   PO445060   8.620  36.869   5.527
 3445POPC   GL145061   8.445  37.074   5.869
 3445POPC   GL245062   8.373  37.398   5.733
 3445POPC   C1A45063   8.229  36.915   6.241
 3445POPC   D2A45064   8.342  36.693   6.609
 3445POPC   C3A45065   8.226  36.843   7.011
 3445POPC   C4A45066   8.326  36.776   7.419
 3445POPC   C1B45067   8.083  37.392   6.094
 3445POPC   C2B45068   7.991  37.283   6.530
 3445POPC   C3B45069   7.859  37.229   6.966
 3445POPC   C4B45070   7.936  37.132   7.395
 3446POPC   NC345071  32.882  36.046   5.410
 3446POPC   PO445072  33.435  36.415   5.478
 3446POPC   GL145073  33.260  36.254   5.838
 3446POPC   GL245074  32.948  36.348   5.812
 3446POPC   C1A45075  33.128  36.220   6.277
 3446POPC   D2A45076  33.138  36.482   6.671
 3446POPC   C3A45077  33.232  36.257   7.059
 3446POPC   C4A45078  33.251  36.004   7.454
 3446POPC   C1B45079  32.737  36.513   6.178
 3446POPC   C2B45080  32.622  36.416   6.600
 3446POPC   C3B45081  32.753  36.460   7.037
 3446POPC   C4B45082  32.970  36.452   7.434
 3447POPC   NC345083   8.623  11.136   5.504
 3447POPC   PO445084   8.105  11.617   5.442
 3447POPC   GL145085   8.237  11.329   5.811
 3447POPC   GL245086   8.089  11.025   5.999
 3447POPC   C1A45087   8.460  11.282   6.220
 3447POPC   D2A45088   8.234  11.227   6.607
 3447POPC   C3A45089   8.412  11.295   7.007
 3447POPC   C4A45090   8.396  11.649   7.297
 3447POPC   C1B45091   7.813  11.214   6.261
 3447POPC   C2B45092   7.753  11.038   6.640
 3447POPC   C3B45093   7.879  11.233   7.002
 3447POPC   C4B45094   7.852  11.192   7.393
 3448POPC   NC345095  14.475  13.987   5.632
 3448POPC   PO445096  14.266  13.363   5.408
 3448POPC   GL145097  14.345  13.523   5.820
 3448POPC   GL245098  14.094  13.794   5.934
 3448POPC   C1A45099  14.572  13.566   6.240
 3448POPC   D2A45100  14.673  13.354   6.648
 3448POPC   C3A45101  14.790  13.557   7.051
 3448POPC   C4A45102  14.694  13.630   7.490
 3448POPC   C1B45103  14.197  13.929   6.372
 3448POPC   C2B45104  14.340  13.763   6.790
 3448POPC   C3B45105  14.303  13.491   7.168
 3448POPC   C4B45106  14.207  13.669   7.593
 3449POPC   NC345107  20.885   5.383   5.427
 3449POPC   PO445108  20.643   4.721   5.500
 3449POPC   GL145109  20.811   4.962   5.803
 3449POPC   GL245110  20.567   5.200   5.773
 3449POPC   C1A45111  20.831   4.917   6.233
 3449POPC   D2A45112  20.570   4.944   6.610
 3449POPC   C3A45113  20.745   5.090   7.005
 3449POPC   C4A45114  20.913   5.302   7.358
 3449POPC   C1B45115  20.486   5.290   6.163
 3449POPC   C2B45116  20.336   5.400   6.535
 3449POPC   C3B45117  20.403   5.481   6.916
 3449POPC   C4B45118  20.373   5.299   7.315
 3450POPC   NC345119  40.396  19.192   5.375
 3450POPC   PO445120  39.875  18.669   5.440
 3450POPC   GL145121  39.862  18.948   5.830
 3450POPC   GL245122  40.092  19.255   5.862
 3450POPC   C1A45123  39.724  19.130   6.239
 3450POPC   D2A45124  39.876  19.166   6.699
 3450POPC   C3A45125  39.702  19.206   7.114
 3450POPC   C4A45126  39.864  19.284   7.540
 3450POPC   C1B45127  40.218  19.013   6.259
 3450POPC   C2B45128  40.354  18.988   6.714
 3450POPC   C3B45129  40.204  19.147   7.142
 3450POPC   C4B45130  40.292  19.007   7.569
 3451POPC   NC345131  11.056   2.509   5.410
 3451POPC   PO445132  11.295   3.057   5.634
 3451POPC   GL145133  11.292   2.649   5.857
 3451POPC   GL245134  11.629   2.491   5.788
 3451POPC   C1A45135  11.111   2.653   6.295
 3451POPC   D2A45136  11.145   2.955   6.640
 3451POPC   C3A45137  11.422   2.875   6.983
 3451POPC   C4A45138  11.635   3.202   7.192
 3451POPC   C1B45139  11.637   2.566   6.241
 3451POPC   C2B45140  11.814   2.461   6.663
 3451POPC   C3B45141  11.663   2.383   7.060
 3451POPC   C4B45142  11.231   2.458   7.225
 3452POPC   NC345143  39.761  34.629   5.264
 3452POPC   PO445144  40.373  34.757   5.339
 3452POPC   GL145145  40.153  34.675   5.747
 3452POPC   GL245146  39.847  34.447   5.755
 3452POPC   C1A45147  40.186  34.647   6.214
 3452POPC   D2A45148  40.401  34.691   6.614
 3452POPC   C3A45149  40.116  34.570   6.923
 3452POPC   C4A45150  40.130  34.486   7.353
 3452POPC   C1B45151  39.683  34.430   6.193
 3452POPC   C2B45152  39.787  34.241   6.612
 3452POPC   C3B45153  39.721  34.252   7.070
 3452POPC   C4B45154  39.679  34.239   7.515
 3453POPC   NC345155  39.870  15.899   5.302
 3453POPC   PO445156  40.300  16.395   5.545
 3453POPC   GL145157  40.074  16.079   5.765
 3453POPC   GL245158  40.307  16.107   6.018
 3453POPC   C1A45159  39.824  15.952   6.150
 3453POPC   D2A45160  39.730  16.058   6.593
 3453POPC   C3A45161  39.971  15.874   6.926
 3453POPC   C4A45162  39.828  15.687   7.310
 3453POPC   C1B45163  40.277  16.006   6.460
 3453POPC   C2B45164  40.417  16.190   6.843
 3453POPC   C3B45165  40.476  15.966   7.214
 3453POPC   C4B45166  40.293  15.539   7.188
 3454POPC   NC345167   4.685  39.184   5.528
 3454POPC   PO445168   5.219  39.636   5.435
 3454POPC   GL145169   5.100  39.340   5.794
 3454POPC   GL245170   5.234  39.027   5.791
 3454POPC   C1A45171   5.072  39.464   6.243
 3454POPC   D2A45172   4.974  39.318   6.641
 3454POPC   C3A45173   5.082  39.558   7.007
 3454POPC   C4A45174   4.978  39.493   7.439
 3454POPC   C1B45175   5.294  38.984   6.211
 3454POPC   C2B45176   5.418  39.084   6.602
 3454POPC   C3B45177   5.255  39.058   7.000
 3454POPC   C4B45178   5.461  38.897   7.324
 3455POPC   NC345179   6.572  15.787   5.519
 3455POPC   PO445180   6.837  16.427   5.340
 3455POPC   GL145181   6.805  16.198   5.767
 3455POPC   GL245182   6.465  16.135   5.940
 3455POPC   C1A45183   6.886  16.193   6.225
 3455POPC   D2A45184   6.543  16.213   6.541
 3455POPC   C3A45185   6.615  16.074   6.971
 3455POPC   C4A45186   6.504  16.001   7.406
 3455POPC   C1B45187   6.571  15.775   6.244
 3455POPC   C2B45188   6.555  15.633   6.693
 3455POPC   C3B45189   6.269  15.676   7.062
 3455POPC   C4B45190   6.281  15.549   7.535
 3456POPC   NC345191  39.533   9.858   5.534
 3456POPC   PO445192  39.733   9.368   5.094
 3456POPC   GL145193  39.995   9.505   5.543
 3456POPC   GL245194  39.766   9.512   5.815
 3456POPC   C1A45195  40.222   9.589   6.033
 3456POPC   D2A45196  40.335   9.811   6.477
 3456POPC   C3A45197  40.285   9.930   6.949
 3456POPC   C4A45198  40.213   9.912   7.409
 3456POPC   C1B45199  39.758   9.697   6.238
 3456POPC   C2B45200  39.835   9.638   6.659
 3456POPC   C3B45201  39.763   9.835   7.049
 3456POPC   C4B45202  39.372  10.113   7.143
 3457POPC   NC345203  31.042   0.541   5.364
 3457POPC   PO445204  30.482   0.123   5.235
 3457POPC   GL145205  30.524   0.296   5.668
 3457POPC   GL245206  30.629   0.641   5.701
 3457POPC   C1A45207  30.432   0.324   6.131
 3457POPC   D2A45208  30.323   0.386   6.599
 3457POPC   C3A45209  30.643   0.446   6.889
 3457POPC   C4A45210  30.663   0.592   7.277
 3457POPC   C1B45211  30.559   0.818   6.127
 3457POPC   C2B45212  30.771   0.825   6.546
 3457POPC   C3B45213  31.031   0.783   6.930
 3457POPC   C4B45214  31.067   0.902   7.349
 3458POPC   NC345215  41.826  27.743   5.401
 3458POPC   PO445216  41.801  27.072   5.349
 3458POPC   GL145217  41.514  27.254   5.722
 3458POPC   GL245218  41.485  27.638   5.758
 3458POPC   C1A45219  41.599  27.414   6.175
 3458POPC   D2A45220  41.860  27.343   6.508
 3458POPC   C3A45221  41.677  27.320   6.902
 3458POPC   C4A45222  41.515  27.440   7.282
 3458POPC   C1B45223  41.402  27.907   6.117
 3458POPC   C2B45224  41.375  27.787   6.540
 3458POPC   C3B45225  41.267  27.788   6.960
 3458POPC   C4B45226  41.554  27.941   7.250
 3459POPC   NC345227  42.022   1.719   5.593
 3459POPC   PO445228  42.590   2.093   5.660
 3459POPC   GL145229  42.276   2.009   5.943
 3459POPC   GL245230  42.067   2.276   5.840
 3459POPC   C1A45231  42.312   1.948   6.389
 3459POPC   D2A45232  42.175   1.714   6.719
 3459POPC   C3A45233  42.358   1.797   7.114
 3459POPC   C4A45234  42.421   1.866   7.576
 3459POPC   C1B45235  42.343   2.435   6.209
 3459POPC   C2B45236  42.345   2.400   6.677
 3459POPC   C3B45237  42.345   2.514   7.107
 3459POPC   C4B45238  42.214   2.315   7.468
 3460POPC   NC345239  18.468  22.962   5.505
 3460POPC   PO445240  17.831  23.160   5.310
 3460POPC   GL145241  17.994  23.203   5.787
 3460POPC   GL245242  18.364  23.147   5.959
 3460POPC   C1A45243  17.974  23.160   6.254
 3460POPC   D2A45244  18.095  22.940   6.640
 3460POPC   C3A45245  18.049  23.144   7.050
 3460POPC   C4A45246  18.205  23.013   7.438
 3460POPC   C1B45247  18.361  22.736   6.209
 3460POPC   C2B45248  18.382  22.519   6.628
 3460POPC   C3B45249  18.356  22.712   7.039
 3460POPC   C4B45250  18.621  22.705   7.410
 3461POPC   NC345251  44.371  33.985   5.396
 3461POPC   PO445252  44.931  33.633   5.190
 3461POPC   GL145253  44.788  33.790   5.629
 3461POPC   GL245254   0.060  33.875   5.854
 3461POPC   C1A45255  44.589  33.738   6.064
 3461POPC   D2A45256  44.759  33.620   6.499
 3461POPC   C3A45257  44.600  33.800   6.896
 3461POPC   C4A45258  44.516  33.585   7.302
 3461POPC   C1B45259  44.942  34.043   6.279
 3461POPC   C2B45260  44.798  34.248   6.667
 3461POPC   C3B45261  44.752  34.394   7.073
 3461POPC   C4B45262  44.642  34.073   7.345
 3462POPC   NC345263  39.285   3.735   5.645
 3462POPC   PO445264  39.307   4.270   5.173
 3462POPC   GL145265  39.319   4.247   5.658
 3462POPC   GL245266  39.534   4.088   5.922
 3462POPC   C1A45267  39.102   4.245   6.102
 3462POPC   D2A45268  39.246   4.382   6.508
 3462POPC   C3A45269  39.032   4.318   6.866
 3462POPC   C4A45270  39.174   4.480   7.216
 3462POPC   C1B45271  39.525   3.798   6.267
 3462POPC   C2B45272  39.641   3.708   6.704
 3462POPC   C3B45273  39.556   3.913   7.102
 3462POPC   C4B45274  39.444   3.852   7.539
 3463POPC   NC345275  40.007  25.716   5.354
 3463POPC   PO445276  39.729  26.234   5.289
 3463POPC   GL145277  39.840  26.233   5.740
 3463POPC   GL245278  40.092  26.021   5.781
 3463POPC   C1A45279  39.732  26.147   6.149
 3463POPC   D2A45280  39.937  26.273   6.514
 3463POPC   C3A45281  39.745  26.147   6.884
 3463POPC   C4A45282  39.902  26.274   7.270
 3463POPC   C1B45283  40.137  25.846   6.203
 3463POPC   C2B45284  40.051  25.767   6.643
 3463POPC   C3B45285  40.266  26.005   6.969
 3463POPC   C4B45286  40.366  26.108   7.391
 3464POPC   NC345287  22.987  30.370   5.316
 3464POPC   PO445288  23.169  29.678   5.389
 3464POPC   GL145289  22.983  29.922   5.764
 3464POPC   GL245290  23.132  30.234   5.825
 3464POPC   C1A45291  22.843  29.722   6.156
 3464POPC   D2A45292  22.947  29.818   6.580
 3464POPC   C3A45293  22.631  29.796   6.910
 3464POPC   C4A45294  22.844  29.677   7.290
 3464POPC   C1B45295  22.911  30.208   6.233
 3464POPC   C2B45296  22.729  30.274   6.678
 3464POPC   C3B45297  22.845  30.220   7.119
 3464POPC   C4B45298  22.778  30.104   7.539
 3465POPC   NC345299  44.347  31.924   5.407
 3465POPC   PO445300  43.885  32.442   5.291
 3465POPC   GL145301  43.793  32.353   5.759
 3465POPC   GL245302  43.761  31.981   5.707
 3465POPC   C1A45303  43.730  32.315   6.252
 3465POPC   D2A45304  43.695  32.209   6.734
 3465POPC   C3A45305  43.854  32.457   7.111
 3465POPC   C4A45306  43.936  32.496   7.565
 3465POPC   C1B45307  44.111  32.030   6.021
 3465POPC   C2B45308  44.089  31.989   6.473
 3465POPC   C3B45309  44.138  32.062   6.933
 3465POPC   C4B45310  43.951  32.020   7.356
 3466POPC   NC345311   5.948  21.777   5.149
 3466POPC   PO445312   6.067  22.446   5.368
 3466POPC   GL145313   5.958  22.195   5.716
 3466POPC   GL245314   5.616  22.237   5.741
 3466POPC   C1A45315   6.050  22.296   6.161
 3466POPC   D2A45316   5.930  22.260   6.612
 3466POPC   C3A45317   5.972  22.426   7.064
 3466POPC   C4A45318   6.238  22.442   7.452
 3466POPC   C1B45319   5.645  21.992   6.122
 3466POPC   C2B45320   5.572  21.798   6.541
 3466POPC   C3B45321   5.760  21.927   6.944
 3466POPC   C4B45322   5.656  22.034   7.393
 3467POPC   NC345323  30.041   0.236   5.331
 3467POPC   PO445324  29.902   0.877   5.544
 3467POPC   GL145325  30.097   0.611   5.852
 3467POPC   GL245326  30.007   0.243   5.833
 3467POPC   C1A45327  30.066   0.701   6.299
 3467POPC   D2A45328  29.855   0.614   6.721
 3467POPC   C3A45329  30.162   0.579   7.089
 3467POPC   C4A45330  30.321   0.195   7.271
 3467POPC   C1B45331  29.950   0.208   6.264
 3467POPC   C2B45332  29.960   0.023   6.666
 3467POPC   C3B45333  29.835   0.202   7.044
 3467POPC   C4B45334  29.545   0.172   7.337
 3468POPC   NC345335  39.256  33.979   5.368
 3468POPC   PO445336  39.341  33.374   5.558
 3468POPC   GL145337  39.259  33.756   5.822
 3468POPC   GL245338  39.462  34.071   5.818
 3468POPC   C1A45339  39.077  33.799   6.244
 3468POPC   D2A45340  39.119  33.817   6.713
 3468POPC   C3A45341  39.230  33.477   7.003
 3468POPC   C4A45342  39.100  33.715   7.354
 3468POPC   C1B45343  39.599  33.917   6.197
 3468POPC   C2B45344  39.521  33.594   6.485
 3468POPC   C3B45345  39.625  33.782   6.878
 3468POPC   C4B45346  39.590  33.782   7.308
 3469POPC   NC345347   9.926   9.484   5.541
 3469POPC   PO445348   9.286   9.667   5.396
 3469POPC   GL145349   9.520   9.693   5.801
 3469POPC   GL245350   9.628  10.016   5.846
 3469POPC   C1A45351   9.721   9.575   6.204
 3469POPC   D2A45352   9.566   9.324   6.570
 3469POPC   C3A45353   9.711   9.495   6.969
 3469POPC   C4A45354   9.634   9.603   7.411
 3469POPC   C1B45355   9.407   9.981   6.255
 3469POPC   C2B45356   9.611   9.884   6.638
 3469POPC   C3B45357   9.658  10.006   7.068
 3469POPC   C4B45358   9.839  10.059   7.515
 3470POPC   NC345359  21.164   2.489   5.404
 3470POPC   PO445360  21.279   3.174   5.430
 3470POPC   GL145361  21.274   2.907   5.774
 3470POPC   GL245362  21.493   2.637   5.867
 3470POPC   C1A45363  21.237   2.995   6.209
 3470POPC   D2A45364  21.100   2.950   6.626
 3470POPC   C3A45365  21.470   2.965   6.883
 3470POPC   C4A45366  21.490   2.624   7.177
 3470POPC   C1B45367  21.046   2.530   6.051
 3470POPC   C2B45368  20.899   2.461   6.474
 3470POPC   C3B45369  21.025   2.498   6.897
 3470POPC   C4B45370  21.056   2.431   7.333
 3471POPC   NC345371  15.424   1.445   5.022
 3471POPC   PO445372  14.917   1.371   5.485
 3471POPC   GL145373  15.001   1.328   5.903
 3471POPC   GL245374  15.354   1.297   5.914
 3471POPC   C1A45375  14.824   1.223   6.302
 3471POPC   D2A45376  14.781   1.430   6.683
 3471POPC   C3A45377  14.735   1.231   7.056
 3471POPC   C4A45378  14.914   0.842   7.101
 3471POPC   C1B45379  15.209   0.903   6.169
 3471POPC   C2B45380  15.088   0.897   6.620
 3471POPC   C3B45381  15.222   1.227   6.919
 3471POPC   C4B45382  15.568   1.299   7.182
 3472POPC   NC345383  29.228   8.026   5.300
 3472POPC   PO445384  29.686   8.364   5.163
 3472POPC   GL145385  29.514   8.122   5.688
 3472POPC   GL245386  29.105   8.068   5.790
 3472POPC   C1A45387  29.385   8.221   6.169
 3472POPC   D2A45388  29.007   8.203   6.474
 3472POPC   C3A45389  29.070   8.038   6.869
 3472POPC   C4A45390  29.158   8.010   7.293
 3472POPC   C1B45391  28.953   7.805   6.163
 3472POPC   C2B45392  28.716   7.752   6.586
 3472POPC   C3B45393  28.865   7.605   7.043
 3472POPC   C4B45394  28.808   7.728   7.512
 3473POPC   NC345395  33.189  32.350   5.439
 3473POPC   PO445396  33.207  31.689   5.493
 3473POPC   GL145397  32.903  31.978   5.712
 3473POPC   GL245398  33.057  32.287   5.917
 3473POPC   C1A45399  32.697  32.040   6.124
 3473POPC   D2A45400  32.772  32.241   6.477
 3473POPC   C3A45401  33.065  32.069   6.779
 3473POPC   C4A45402  33.051  32.146   7.207
 3473POPC   C1B45403  33.108  32.583   6.285
 3473POPC   C2B45404  33.060  32.577   6.739
 3473POPC   C3B45405  33.134  32.663   7.163
 3473POPC   C4B45406  33.228  32.513   7.554
 3474POPC   NC345407  28.606  21.582   5.339
 3474POPC   PO445408  29.236  21.212   5.221
 3474POPC   GL145409  29.064  21.395   5.613
 3474POPC   GL245410  29.347  21.557   5.733
 3474POPC   C1A45411  28.966  21.355   6.086
 3474POPC   D2A45412  28.813  21.504   6.513
 3474POPC   C3A45413  29.022  21.421   6.908
 3474POPC   C4A45414  29.185  21.763   7.160
 3474POPC   C1B45415  29.369  21.672   6.152
 3474POPC   C2B45416  29.403  21.576   6.573
 3474POPC   C3B45417  29.531  21.438   6.968
 3474POPC   C4B45418  29.506  21.187   7.345
 3475POPC   NC345419  32.422  42.902   5.391
 3475POPC   PO445420  31.899  43.267   5.517
 3475POPC   GL145421  32.244  43.275   5.778
 3475POPC   GL245422  32.249  42.935   5.869
 3475POPC   C1A45423  32.202  43.328   6.220
 3475POPC   D2A45424  32.346  43.095   6.545
 3475POPC   C3A45425  32.251  43.368   6.894
 3475POPC   C4A45426  32.044  43.547   7.249
 3475POPC   C1B45427  32.002  42.749   6.194
 3475POPC   C2B45428  32.096  42.624   6.606
 3475POPC   C3B45429  32.217  42.855   6.973
 3475POPC   C4B45430  31.890  43.075   7.141
 3476POPC   NC345431  17.995  39.077   5.441
 3476POPC   PO445432  18.539  39.518   5.367
 3476POPC   GL145433  18.454  39.263   5.706
 3476POPC   GL245434  18.141  39.398   5.815
 3476POPC   C1A45435  18.554  39.351   6.131
 3476POPC   D2A45436  18.507  39.171   6.535
 3476POPC   C3A45437  18.541  39.494   6.843
 3476POPC   C4A45438  18.543  39.416   7.266
 3476POPC   C1B45439  18.078  39.190   6.217
 3476POPC   C2B45440  18.041  39.000   6.643
 3476POPC   C3B45441  18.223  39.099   7.039
 3476POPC   C4B45442  18.081  39.292   7.452
 3477POPC   NC345443  29.768  41.280   5.545
 3477POPC   PO445444  30.205  41.861   5.531
 3477POPC   GL145445  29.972  41.661   5.849
 3477POPC   GL245446  30.180  41.360   5.855
 3477POPC   C1A45447  29.827  41.507   6.258
 3477POPC   D2A45448  29.761  41.682   6.665
 3477POPC   C3A45449  29.884  41.580   7.077
 3477POPC   C4A45450  29.761  41.402   7.478
 3477POPC   C1B45451  30.209  41.174   6.259
 3477POPC   C2B45452  30.065  41.257   6.687
 3477POPC   C3B45453  30.033  41.084   7.096
 3477POPC   C4B45454  30.268  41.004   7.469
 3478POPC   NC345455  10.056   0.963   5.405
 3478POPC   PO445456  10.130   0.323   5.229
 3478POPC   GL145457   9.953   0.409   5.726
 3478POPC   GL245458   9.656   0.623   5.769
 3478POPC   C1A45459  10.045   0.345   6.154
 3478POPC   D2A45460   9.894   0.384   6.562
 3478POPC   C3A45461  10.126   0.590   6.868
 3478POPC   C4A45462   9.990   0.492   7.281
 3478POPC   C1B45463   9.507   0.405   6.123
 3478POPC   C2B45464   9.376   0.309   6.543
 3478POPC   C3B45465   9.503   0.483   6.957
 3478POPC   C4B45466   9.550   0.212   7.317
 3479POPC   NC345467   5.481  10.124   5.349
 3479POPC   PO445468   5.984   9.583   5.400
 3479POPC   GL145469   5.847   9.919   5.684
 3479POPC   GL245470   6.150   9.965   5.856
 3479POPC   C1A45471   5.729   9.999   6.132
 3479POPC   D2A45472   5.844   9.731   6.466
 3479POPC   C3A45473   5.819   9.749   6.907
 3479POPC   C4A45474   6.010   9.614   7.290
 3479POPC   C1B45475   6.259   9.994   6.285
 3479POPC   C2B45476   6.259   9.933   6.715
 3479POPC   C3B45477   6.106  10.137   7.085
 3479POPC   C4B45478   5.954  10.098   7.495
 3480POPC   NC345479  35.905  19.900   5.432
 3480POPC   PO445480  36.582  20.036   5.489
 3480POPC   GL145481  36.476  20.139   5.888
 3480POPC   GL245482  36.116  20.189   5.831
 3480POPC   C1A45483  36.294  19.948   6.273
 3480POPC   D2A45484  36.020  19.905   6.640
 3480POPC   C3A45485  36.303  19.747   6.961
 3480POPC   C4A45486  36.360  19.486   7.337
 3480POPC   C1B45487  35.890  20.264   6.219
 3480POPC   C2B45488  35.739  20.395   6.626
 3480POPC   C3B45489  35.923  20.258   7.016
 3480POPC   C4B45490  35.674  19.993   7.252
 3481POPC   NC345491  31.418  37.854   5.265
 3481POPC   PO445492  31.724  37.466   5.706
 3481POPC   GL145493  31.574  37.700   6.029
 3481POPC   GL245494  31.447  37.988   5.845
 3481POPC   C1A45495  31.384  37.545   6.423
 3481POPC   D2A45496  31.616  37.300   6.739
 3481POPC   C3A45497  31.616  37.397   7.175
 3481POPC   C4A45498  31.895  37.630   7.400
 3481POPC   C1B45499  31.212  38.015   6.252
 3481POPC   C2B45500  31.208  37.956   6.703
 3481POPC   C3B45501  31.305  38.120   7.087
 3481POPC   C4B45502  31.435  37.840   7.383
 3482POPC   NC345503  31.798   5.531   5.358
 3482POPC   PO445504  31.258   5.954   5.320
 3482POPC   GL145505  31.247   5.965   5.760
 3482POPC   GL245506  31.264   5.675   5.892
 3482POPC   C1A45507  31.265   6.133   6.150
 3482POPC   D2A45508  31.378   6.139   6.569
 3482POPC   C3A45509  31.296   5.989   6.999
 3482POPC   C4A45510  31.543   6.015   7.426
 3482POPC   C1B45511  31.397   5.523   6.308
 3482POPC   C2B45512  31.578   5.658   6.672
 3482POPC   C3B45513  31.660   5.663   7.090
 3482POPC   C4B45514  31.382   5.517   7.436
 3483POPC   NC345515  23.365  12.195   5.476
 3483POPC   PO445516  23.950  12.160   5.125
 3483POPC   GL145517  23.914  12.239   5.614
 3483POPC   GL245518  23.717  11.987   5.786
 3483POPC   C1A45519  23.925  12.332   6.101
 3483POPC   D2A45520  23.856  12.305   6.562
 3483POPC   C3A45521  23.719  11.993   6.874
 3483POPC   C4A45522  23.580  11.935   7.320
 3483POPC   C1B45523  23.455  12.133   6.151
 3483POPC   C2B45524  23.343  12.282   6.571
 3483POPC   C3B45525  23.276  12.208   7.018
 3483POPC   C4B45526  23.166  12.292   7.439
 3484POPC   NC345527  43.312  25.277   5.202
 3484POPC   PO445528  42.910  24.891   5.449
 3484POPC   GL145529  43.171  25.175   5.724
 3484POPC   GL245530  43.151  25.512   5.673
 3484POPC   C1A45531  43.192  25.087   6.167
 3484POPC   D2A45532  42.910  25.098   6.485
 3484POPC   C3A45533  43.012  25.082   6.913
 3484POPC   C4A45534  43.057  25.170   7.369
 3484POPC   C1B45535  43.080  25.583   6.123
 3484POPC   C2B45536  43.202  25.571   6.562
 3484POPC   C3B45537  43.270  25.512   7.019
 3484POPC   C4B45538  42.895  25.638   7.297
 3485POPC   NC345539  12.249  44.605   5.342
 3485POPC   PO445540  11.740  44.894   5.647
 3485POPC   GL145541  12.124  44.678   5.831
 3485POPC   GL245542  11.902  44.488   5.947
 3485POPC   C1A45543  12.320  44.502   6.247
 3485POPC   D2A45544  12.291  44.694   6.669
 3485POPC   C3A45545  12.107  44.517   7.047
 3485POPC   C4A45546  12.416  44.489   7.327
 3485POPC   C1B45547  11.907  44.767   6.304
 3485POPC   C2B45548  11.755  44.705   6.691
 3485POPC   C3B45549  11.787  44.910   7.065
 3485POPC   C4B45550  12.210   0.021   7.180
 3486POPC   NC345551  40.297  32.788   5.496
 3486POPC   PO445552  40.991  32.980   5.504
 3486POPC   GL145553  40.668  32.966   5.825
 3486POPC   GL245554  40.570  33.279   5.997
 3486POPC   C1A45555  40.818  32.879   6.232
 3486POPC   D2A45556  40.924  33.022   6.605
 3486POPC   C3A45557  40.695  33.089   6.922
 3486POPC   C4A45558  40.820  32.807   7.234
 3486POPC   C1B45559  41.002  33.386   6.149
 3486POPC   C2B45560  41.236  33.419   6.524
 3486POPC   C3B45561  41.020  33.517   6.873
 3486POPC   C4B45562  40.943  33.356   7.247
 3487POPC   NC345563  23.358   3.378   5.729
 3487POPC   PO445564  22.676   3.673   5.578
 3487POPC   GL145565  22.903   3.559   5.888
 3487POPC   GL245566  23.158   3.784   5.978
 3487POPC   C1A45567  22.790   3.443   6.273
 3487POPC   D2A45568  22.919   3.248   6.617
 3487POPC   C3A45569  22.736   3.420   6.967
 3487POPC   C4A45570  22.912   3.399   7.334
 3487POPC   C1B45571  22.827   3.957   6.222
 3487POPC   C2B45572  22.975   3.792   6.615
 3487POPC   C3B45573  23.112   3.787   7.017
 3487POPC   C4B45574  23.076   3.873   7.427
 3488POPC   NC345575  19.772   7.669   5.600
 3488POPC   PO445576  19.968   7.059   5.278
 3488POPC   GL145577  19.991   7.186   5.782
 3488POPC   GL245578  19.935   7.515   6.026
 3488POPC   C1A45579  20.144   7.158   6.276
 3488POPC   D2A45580  20.014   7.577   6.531
 3488POPC   C3A45581  19.690   7.678   6.825
 3488POPC   C4A45582  19.868   7.651   7.227
 3488POPC   C1B45583  19.582   7.680   6.302
 3488POPC   C2B45584  19.212   7.548   6.568
 3488POPC   C3B45585  19.180   7.583   6.993
 3488POPC   C4B45586  19.468   7.322   7.165
 3489POPC   NC345587  38.193  31.613   5.214
 3489POPC   PO445588  38.726  31.196   5.401
 3489POPC   GL145589  38.490  31.392   5.807
 3489POPC   GL245590  38.136  31.566   5.937
 3489POPC   C1A45591  38.601  31.691   6.136
 3489POPC   D2A45592  38.493  31.839   6.523
 3489POPC   C3A45593  38.774  31.822   6.840
 3489POPC   C4A45594  38.589  31.596   7.149
 3489POPC   C1B45595  38.245  31.311   6.298
 3489POPC   C2B45596  38.296  31.043   6.670
 3489POPC   C3B45597  38.301  31.171   7.104
 3489POPC   C4B45598  38.361  31.302   7.524
 3490POPC   NC345599  15.662  36.431   5.418
 3490POPC   PO445600  16.119  35.883   5.444
 3490POPC   GL145601  15.869  35.957   5.803
 3490POPC   GL245602  16.120  35.809   6.017
 3490POPC   C1A45603  15.866  36.199   6.218
 3490POPC   D2A45604  15.910  36.015   6.647
 3490POPC   C3A45605  15.779  36.303   6.971
 3490POPC   C4A45606  15.918  36.556   7.324
 3490POPC   C1B45607  16.369  36.096   6.268
 3490POPC   C2B45608  16.267  36.383   6.614
 3490POPC   C3B45609  16.290  36.323   7.057
 3490POPC   C4B45610  16.069  36.014   7.268
 3491POPC   NC345611  21.578  43.837   5.214
 3491POPC   PO445612  21.150  44.233   5.026
 3491POPC   GL145613  21.229  44.032   5.536
 3491POPC   GL245614  21.372  43.739   5.669
 3491POPC   C1A45615  21.209  44.090   6.039
 3491POPC   D2A45616  21.185  43.864   6.473
 3491POPC   C3A45617  21.240  44.109   6.869
 3491POPC   C4A45618  21.047  44.064   7.266
 3491POPC   C1B45619  21.548  43.722   6.096
 3491POPC   C2B45620  21.625  43.607   6.535
 3491POPC   C3B45621  21.472  43.633   6.955
 3491POPC   C4B45622  21.541  43.908   7.262
 3492POPC   NC345623   2.490  39.858   5.157
 3492POPC   PO445624   3.088  39.915   5.429
 3492POPC   GL145625   2.817  39.950   5.799
 3492POPC   GL245626   2.647  40.265   5.836
 3492POPC   C1A45627   2.838  39.671   6.199
 3492POPC   D2A45628   3.086  39.614   6.594
 3492POPC   C3A45629   2.822  39.640   6.963
 3492POPC   C4A45630   2.766  39.961   7.250
 3492POPC   C1B45631   2.576  40.105   6.241
 3492POPC   C2B45632   2.743  40.045   6.645
 3492POPC   C3B45633   2.789  40.375   6.976
 3492POPC   C4B45634   2.874  40.429   7.438
 3493POPC   NC345635   6.799   4.415   5.615
 3493POPC   PO445636   6.298   4.525   5.193
 3493POPC   GL145637   6.295   4.258   5.684
 3493POPC   GL245638   6.560   3.994   5.809
 3493POPC   C1A45639   6.431   4.314   6.178
 3493POPC   D2A45640   6.659   4.465   6.558
 3493POPC   C3A45641   6.575   4.244   6.941
 3493POPC   C4A45642   6.452   4.062   7.322
 3493POPC   C1B45643   6.882   4.066   6.175
 3493POPC   C2B45644   6.949   3.993   6.637
 3493POPC   C3B45645   6.894   3.850   7.080
 3493POPC   C4B45646   6.948   3.966   7.532
 3494POPC   NC345647  18.307  34.279   5.407
 3494POPC   PO445648  17.860  34.745   5.194
 3494POPC   GL145649  18.053  34.718   5.664
 3494POPC   GL245650  18.234  34.423   5.875
 3494POPC   C1A45651  18.025  34.757   6.170
 3494POPC   D2A45652  18.257  34.531   6.517
 3494POPC   C3A45653  18.182  34.601   6.968
 3494POPC   C4A45654  18.325  34.832   7.325
 3494POPC   C1B45655  18.559  34.270   6.160
 3494POPC   C2B45656  18.707  34.290   6.598
 3494POPC   C3B45657  18.533  34.211   7.010
 3494POPC   C4B45658  18.508  34.375   7.387
 3495POPC   NC345659  34.380  42.167   5.352
 3495POPC   PO445660  34.996  41.991   5.476
 3495POPC   GL145661  34.680  42.181   5.798
 3495POPC   GL245662  34.304  42.260   5.847
 3495POPC   C1A45663  34.705  42.460   6.174
 3495POPC   D2A45664  34.644  42.699   6.579
 3495POPC   C3A45665  34.686  42.558   7.030
 3495POPC   C4A45666  34.807  42.697   7.462
 3495POPC   C1B45667  34.243  42.266   6.295
 3495POPC   C2B45668  34.577  42.197   6.630
 3495POPC   C3B45669  34.524  42.056   7.025
 3495POPC   C4B45670  34.116  42.074   7.133
 3496POPC   NC345671  37.356  29.165   5.157
 3496POPC   PO445672  36.827  29.107   5.586
 3496POPC   GL145673  37.096  29.028   5.958
 3496POPC   GL245674  36.769  28.900   6.069
 3496POPC   C1A45675  37.117  28.940   6.417
 3496POPC   D2A45676  36.733  29.052   6.701
 3496POPC   C3A45677  36.878  29.060   7.122
 3496POPC   C4A45678  37.320  29.184   7.235
 3496POPC   C1B45679  36.819  29.350   6.273
 3496POPC   C2B45680  36.552  29.579   6.575
 3496POPC   C3B45681  36.529  29.445   6.984
 3496POPC   C4B45682  36.315  29.052   7.132
 3497POPC   NC345683  41.115  25.335   5.383
 3497POPC   PO445684  40.467  25.606   5.441
 3497POPC   GL145685  40.587  25.314   5.811
 3497POPC   GL245686  40.951  25.278   5.878
 3497POPC   C1A45687  40.681  25.168   6.272
 3497POPC   D2A45688  40.898  25.230   6.658
 3497POPC   C3A45689  40.623  25.184   7.008
 3497POPC   C4A45690  40.693  25.259   7.414
 3497POPC   C1B45691  41.094  25.517   6.263
 3497POPC   C2B45692  41.181  25.715   6.678
 3497POPC   C3B45693  41.130  25.568   7.125
 3497POPC   C4B45694  40.985  25.612   7.594
 3498POPC   NC345695  26.068   8.212   5.352
 3498POPC   PO445696  26.292   7.686   5.755
 3498POPC   GL145697  26.266   8.115   5.863
 3498POPC   GL245698  26.027   8.404   5.819
 3498POPC   C1A45699  26.138   8.241   6.286
 3498POPC   D2A45700  25.879   8.066   6.575
 3498POPC   C3A45701  26.091   8.166   6.900
 3498POPC   C4A45702  26.005   8.321   7.264
 3498POPC   C1B45703  26.434   8.577   6.045
 3498POPC   C2B45704  26.486   8.693   6.439
 3498POPC   C3B45705  26.221   8.635   6.747
 3498POPC   C4B45706  26.216   8.754   7.144
 3499POPC   NC345707  21.543   0.467   5.256
 3499POPC   PO445708  20.916   0.475   5.388
 3499POPC   GL145709  21.093   0.141   5.725
 3499POPC   GL245710  21.490   0.116   5.742
 3499POPC   C1A45711  21.254   0.152   6.182
 3499POPC   D2A45712  21.290   0.578   6.408
 3499POPC   C3A45713  21.275   0.595   6.876
 3499POPC   C4A45714  21.169   0.255   7.169
 3499POPC   C1B45715  21.740   0.318   6.155
 3499POPC   C2B45716  21.698   0.369   6.627
 3499POPC   C3B45717  21.736   0.432   7.071
 3499POPC   C4B45718  21.638   0.207   7.368
 3500POPC   NC345719  23.028  36.024   5.351
 3500POPC   PO445720  22.462  36.282   5.367
 3500POPC   GL145721  22.712  36.123   5.769
 3500POPC   GL245722  23.073  36.250   5.829
 3500POPC   C1A45723  22.819  36.023   6.234
 3500POPC   D2A45724  22.860  35.820   6.652
 3500POPC   C3A45725  22.761  36.018   7.065
 3500POPC   C4A45726  23.055  36.065   7.437
 3500POPC   C1B45727  23.292  36.279   6.241
 3500POPC   C2B45728  23.104  36.269   6.639
 3500POPC   C3B45729  23.135  36.356   7.058
 3500POPC   C4B45730  22.929  36.557   7.419
 3501POPC   NC345731  41.428  13.081   5.366
 3501POPC   PO445732  41.808  12.502   5.382
 3501POPC   GL145733  41.718  12.719   5.767
 3501POPC   GL245734  41.733  13.102   5.773
 3501POPC   C1A45735  41.511  12.596   6.170
 3501POPC   D2A45736  41.352  12.413   6.531
 3501POPC   C3A45737  41.349  12.596   6.958
 3501POPC   C4A45738  41.743  12.638   7.159
 3501POPC   C1B45739  41.462  13.090   6.162
 3501POPC   C2B45740  41.546  12.902   6.587
 3501POPC   C3B45741  41.712  13.101   6.971
 3501POPC   C4B45742  41.501  13.137   7.341
 3502POPC   NC345743  20.414  17.507   5.487
 3502POPC   PO445744  20.902  17.883   5.587
 3502POPC   GL145745  20.679  17.651   5.888
 3502POPC   GL245746  20.347  17.780   5.925
 3502POPC   C1A45747  20.689  17.328   6.215
 3502POPC   D2A45748  21.046  17.220   6.454
 3502POPC   C3A45749  20.981  17.320   6.890
 3502POPC   C4A45750  20.700  17.524   7.176
 3502POPC   C1B45751  20.534  17.811   6.337
 3502POPC   C2B45752  20.496  17.565   6.703
 3502POPC   C3B45753  20.227  17.663   7.058
 3502POPC   C4B45754  20.335  17.693   7.514
 3503POPC   NC345755   1.896  39.075   5.343
 3503POPC   PO445756   2.401  39.428   5.345
 3503POPC   GL145757   2.159  39.250   5.728
 3503POPC   GL245758   2.190  38.869   5.738
 3503POPC   C1A45759   1.899  39.450   6.059
 3503POPC   D2A45760   1.809  39.558   6.484
 3503POPC   C3A45761   1.906  39.606   6.912
 3503POPC   C4A45762   1.928  39.335   7.257
 3503POPC   C1B45763   1.846  38.943   6.029
 3503POPC   C2B45764   1.821  39.053   6.444
 3503POPC   C3B45765   1.990  38.987   6.847
 3503POPC   C4B45766   1.780  38.858   7.188
 3504POPC   NC345767   3.120  16.817   5.418
 3504POPC   PO445768   2.504  16.530   5.477
 3504POPC   GL145769   2.781  16.688   5.784
 3504POPC   GL245770   3.034  16.418   5.770
 3504POPC   C1A45771   2.903  16.826   6.190
 3504POPC   D2A45772   2.954  17.028   6.584
 3504POPC   C3A45773   2.836  16.746   6.893
 3504POPC   C4A45774   2.890  16.879   7.271
 3504POPC   C1B45775   2.815  16.280   6.124
 3504POPC   C2B45776   2.646  16.403   6.504
 3504POPC   C3B45777   2.441  16.411   6.873
 3504POPC   C4B45778   2.602  16.434   7.284
 3505POPC   NC345779  14.536  20.499   5.330
 3505POPC   PO445780  13.978  20.588   5.694
 3505POPC   GL145781  14.445  20.594   5.844
 3505POPC   GL245782  14.678  20.855   5.686
 3505POPC   C1A45783  14.572  20.680   6.308
 3505POPC   D2A45784  14.486  20.849   6.758
 3505POPC   C3A45785  14.516  20.554   7.113
 3505POPC   C4A45786  14.207  20.343   7.413
 3505POPC   C1B45787  14.767  21.099   6.077
 3505POPC   C2B45788  14.764  21.224   6.538
 3505POPC   C3B45789  14.906  21.045   6.953
 3505POPC   C4B45790  14.877  20.805   7.362
 3506POPC   NC345791   3.387  42.651   5.564
 3506POPC   PO445792   3.473  41.925   5.438
 3506POPC   GL145793   3.508  42.158   5.831
 3506POPC   GL245794   3.184  42.105   5.909
 3506POPC   C1A45795   3.542  42.367   6.264
 3506POPC   D2A45796   3.581  42.592   6.680
 3506POPC   C3A45797   3.814  42.386   7.040
 3506POPC   C4A45798   3.859  42.050   7.373
 3506POPC   C1B45799   3.028  42.174   6.302
 3506POPC   C2B45800   3.110  42.340   6.673
 3506POPC   C3B45801   3.300  42.311   7.041
 3506POPC   C4B45802   3.247  42.001   7.314
 3507POPC   NC345803  32.450  44.533   5.300
 3507POPC   PO445804  31.944  44.876   5.249
 3507POPC   GL145805  32.119  44.670   5.675
 3507POPC   GL245806  31.889  44.522   5.913
 3507POPC   C1A45807  32.289  44.663   6.142
 3507POPC   D2A45808  32.221  44.514   6.567
 3507POPC   C3A45809  32.367  44.876   6.814
 3507POPC   C4A45810  32.587  44.884   7.209
 3507POPC   C1B45811  31.789  44.817   6.246
 3507POPC   C2B45812  31.820  44.783   6.698
 3507POPC   C3B45813  32.037  44.608   7.079
 3507POPC   C4B45814  32.234  44.483   7.457
 3508POPC   NC345815  19.411  32.253   5.423
 3508POPC   PO445816  18.668  32.365   5.299
 3508POPC   GL145817  18.876  32.371   5.703
 3508POPC   GL245818  18.590  32.477   5.837
 3508POPC   C1A45819  19.107  32.155   6.066
 3508POPC   D2A45820  19.344  31.992   6.452
 3508POPC   C3A45821  19.177  32.128   6.871
 3508POPC   C4A45822  19.178  32.500   7.117
 3508POPC   C1B45823  18.885  32.600   6.174
 3508POPC   C2B45824  19.048  32.563   6.573
 3508POPC   C3B45825  18.737  32.571   6.867
 3508POPC   C4B45826  18.692  32.382   7.242
 3509POPC   NC345827  30.714  30.288   5.408
 3509POPC   PO445828  31.005  30.843   5.447
 3509POPC   GL145829  30.781  30.664   5.777
 3509POPC   GL245830  30.471  30.826   5.875
 3509POPC   C1A45831  30.675  30.469   6.171
 3509POPC   D2A45832  30.514  30.629   6.541
 3509POPC   C3A45833  30.633  30.473   6.929
 3509POPC   C4A45834  30.590  30.691   7.274
 3509POPC   C1B45835  30.334  31.052   6.197
 3509POPC   C2B45836  30.458  31.134   6.585
 3509POPC   C3B45837  30.288  30.963   6.944
 3509POPC   C4B45838  30.383  31.157   7.305
 3510POPC   NC345839   7.676  23.638   5.365
 3510POPC   PO445840   7.609  24.270   5.485
 3510POPC   GL145841   7.484  23.888   5.793
 3510POPC   GL245842   7.374  23.547   5.796
 3510POPC   C1A45843   7.653  23.657   6.200
 3510POPC   D2A45844   7.892  23.765   6.573
 3510POPC   C3A45845   7.583  23.685   6.881
 3510POPC   C4A45846   7.435  23.688   7.277
 3510POPC   C1B45847   7.159  23.491   6.186
 3510POPC   C2B45848   7.269  23.344   6.606
 3510POPC   C3B45849   7.059  23.419   7.018
 3510POPC   C4B45850   7.016  23.505   7.479
 3511POPC   NC345851   2.872  34.142   5.370
 3511POPC   PO445852   2.561  33.410   5.440
 3511POPC   GL145853   2.709  33.613   5.825
 3511POPC   GL245854   3.015  33.812   5.776
 3511POPC   C1A45855   2.853  33.478   6.230
 3511POPC   D2A45856   2.644  33.370   6.600
 3511POPC   C3A45857   2.750  33.531   7.006
 3511POPC   C4A45858   2.413  33.703   7.226
 3511POPC   C1B45859   3.046  33.947   6.205
 3511POPC   C2B45860   2.781  33.913   6.588
 3511POPC   C3B45861   2.815  34.055   7.019
 3511POPC   C4B45862   3.214  34.066   7.253
 3512POPC   NC345863   0.794  44.973   5.636
 3512POPC   PO445864   0.351  44.464   5.548
 3512POPC   GL145865   0.488  44.623   5.908
 3512POPC   GL245866   0.357  44.946   5.951
 3512POPC   C1A45867   0.603  44.693   6.319
 3512POPC   D2A45868   0.477  44.814   6.686
 3512POPC   C3A45869   0.665  44.529   6.994
 3512POPC   C4A45870   0.499  44.633   7.401
 3512POPC   C1B45871   0.145   0.087   6.334
 3512POPC   C2B45872   0.188   0.246   6.701
 3512POPC   C3B45873   0.374   0.117   7.083
 3512POPC   C4B45874   0.755  44.999   7.107
 3513POPC   NC345875  17.848  27.916   5.490
 3513POPC   PO445876  17.174  27.812   5.409
 3513POPC   GL145877  17.418  27.887   5.781
 3513POPC   GL245878  17.504  27.545   5.907
 3513POPC   C1A45879  17.540  27.977   6.203
 3513POPC   D2A45880  17.465  27.720   6.567
 3513POPC   C3A45881  17.596  27.841   6.971
 3513POPC   C4A45882  17.587  27.665   7.382
 3513POPC   C1B45883  17.220  27.293   6.184
 3513POPC   C2B45884  17.083  27.380   6.590
 3513POPC   C3B45885  17.330  27.377   6.980
 3513POPC   C4B45886  17.199  27.343   7.410
 3514POPC   NC345887  16.040   9.285   5.420
 3514POPC   PO445888  15.728   9.935   5.383
 3514POPC   GL145889  15.902   9.666   5.736
 3514POPC   GL245890  16.269   9.642   5.777
 3514POPC   C1A45891  15.985   9.536   6.184
 3514POPC   D2A45892  16.152   9.502   6.612
 3514POPC   C3A45893  15.935   9.753   6.930
 3514POPC   C4A45894  15.869   9.933   7.351
 3514POPC   C1B45895  16.357   9.898   6.185
 3514POPC   C2B45896  16.349  10.005   6.663
 3514POPC   C3B45897  16.389   9.933   7.129
 3514POPC   C4B45898  16.303   9.955   7.617
 3515POPC   NC345899  41.865   7.626   5.490
 3515POPC   PO445900  41.358   7.182   5.571
 3515POPC   GL145901  41.648   7.398   5.891
 3515POPC   GL245902  41.789   7.117   6.167
 3515POPC   C1A45903  41.794   7.597   6.236
 3515POPC   D2A45904  41.699   7.376   6.629
 3515POPC   C3A45905  41.638   7.572   7.031
 3515POPC   C4A45906  41.823   7.284   7.325
 3515POPC   C1B45907  41.340   7.194   6.264
 3515POPC   C2B45908  41.105   7.055   6.621
 3515POPC   C3B45909  41.327   7.146   6.996
 3515POPC   C4B45910  41.290   7.359   7.357
 3516POPC   NC345911  10.516  36.613   5.453
 3516POPC   PO445912  10.089  37.097   5.328
 3516POPC   GL145913  10.346  37.104   5.729
 3516POPC   GL245914  10.676  37.039   5.751
 3516POPC   C1A45915  10.376  36.791   6.114
 3516POPC   D2A45916  10.653  36.716   6.527
 3516POPC   C3A45917  10.534  36.834   6.943
 3516POPC   C4A45918  10.463  37.231   7.165
 3516POPC   C1B45919  10.679  37.178   6.216
 3516POPC   C2B45920  10.759  37.243   6.676
 3516POPC   C3B45921  10.955  37.108   7.074
 3516POPC   C4B45922  10.739  36.882   7.417
 3517POPC   NC345923  11.851  37.670   5.353
 3517POPC   PO445924  12.424  37.399   5.456
 3517POPC   GL145925  12.210  37.610   5.770
 3517POPC   GL245926  12.280  37.370   6.008
 3517POPC   C1A45927  11.980  37.795   6.130
 3517POPC   D2A45928  11.987  37.933   6.570
 3517POPC   C3A45929  12.186  37.732   6.921
 3517POPC   C4A45930  11.928  37.613   7.255
 3517POPC   C1B45931  12.328  37.532   6.427
 3517POPC   C2B45932  12.010  37.320   6.685
 3517POPC   C3B45933  11.977  37.129   7.081
 3517POPC   C4B45934  11.666  37.179   7.403
 3518POPC   NC345935  31.631  20.221   5.080
 3518POPC   PO445936  32.145  20.532   5.383
 3518POPC   GL145937  32.106  20.657   5.810
 3518POPC   GL245938  32.446  20.767   5.781
 3518POPC   C1A45939  31.998  20.535   6.251
 3518POPC   D2A45940  32.085  20.561   6.704
 3518POPC   C3A45941  32.068  20.274   7.034
 3518POPC   C4A45942  31.954  20.334   7.472
 3518POPC   C1B45943  32.310  21.018   6.131
 3518POPC   C2B45944  32.435  20.910   6.541
 3518POPC   C3B45945  32.273  20.977   6.938
 3518POPC   C4B45946  32.353  20.671   7.225
 3519POPC   NC345947  37.228   3.316   5.542
 3519POPC   PO445948  36.543   3.359   5.520
 3519POPC   GL145949  36.733   3.640   5.831
 3519POPC   GL245950  37.090   3.777   5.793
 3519POPC   C1A45951  36.848   3.555   6.263
 3519POPC   D2A45952  36.634   3.330   6.597
 3519POPC   C3A45953  36.740   3.513   6.984
 3519POPC   C4A45954  36.699   3.908   7.139
 3519POPC   C1B45955  37.280   3.861   6.211
 3519POPC   C2B45956  37.281   3.600   6.584
 3519POPC   C3B45957  37.230   3.403   6.955
 3519POPC   C4B45958  37.138   3.651   7.289
 3520POPC   NC345959  20.530  22.190   5.383
 3520POPC   PO445960  21.094  21.948   5.417
 3520POPC   GL145961  20.787  21.902   5.739
 3520POPC   GL245962  20.720  22.274   5.853
 3520POPC   C1A45963  20.751  21.888   6.190
 3520POPC   D2A45964  20.647  22.180   6.536
 3520POPC   C3A45965  20.692  22.011   6.936
 3520POPC   C4A45966  20.657  22.211   7.277
 3520POPC   C1B45967  20.324  22.201   6.130
 3520POPC   C2B45968  20.138  22.280   6.586
 3520POPC   C3B45969  20.213  22.168   7.053
 3520POPC   C4B45970  20.290  22.047   7.555
 3521POPC   NC345971   7.396  35.506   5.626
 3521POPC   PO445972   7.351  34.902   5.369
 3521POPC   GL145973   7.162  35.081   5.792
 3521POPC   GL245974   6.922  35.390   5.717
 3521POPC   C1A45975   7.349  35.264   6.192
 3521POPC   D2A45976   7.696  35.425   6.446
 3521POPC   C3A45977   7.650  35.394   6.891
 3521POPC   C4A45978   7.520  35.427   7.295
 3521POPC   C1B45979   6.961  35.591   6.131
 3521POPC   C2B45980   7.132  35.546   6.565
 3521POPC   C3B45981   7.077  35.390   6.981
 3521POPC   C4B45982   7.043  35.607   7.363
 3522POPC   NC345983  37.451  24.467   5.309
 3522POPC   PO445984  36.779  24.467   5.224
 3522POPC   GL145985  36.779  24.419   5.694
 3522POPC   GL245986  36.536  24.210   5.830
 3522POPC   C1A45987  36.789  24.575   6.155
 3522POPC   D2A45988  36.740  24.685   6.638
 3522POPC   C3A45989  36.918  24.627   7.080
 3522POPC   C4A45990  37.042  24.445   7.453
 3522POPC   C1B45991  36.566  24.098   6.257
 3522POPC   C2B45992  36.402  24.271   6.636
 3522POPC   C3B45993  36.500  24.324   7.054
 3522POPC   C4B45994  36.720  24.089   7.330
 3523POPC   NC345995  38.254  21.423   5.519
 3523POPC   PO445996  38.831  21.060   5.446
 3523POPC   GL145997  38.634  21.278   5.841
 3523POPC   GL245998  38.268  21.224   5.988
 3523POPC   C1A45999  38.554  21.578   6.204
 3523POPC   D2A46000  38.354  21.385   6.529
 3523POPC   C3A46001  38.465  21.432   6.948
 3523POPC   C4A46002  38.182  21.632   7.178
 3523POPC   C1B46003  38.547  20.989   6.262
 3523POPC   C2B46004  38.588  20.980   6.731
 3523POPC   C3B46005  38.498  20.955   7.202
 3523POPC   C4B46006  38.752  20.954   7.612
 3524POPC   NC346007  28.265  32.011   5.458
 3524POPC   PO446008  28.732  32.442   5.323
 3524POPC   GL146009  28.568  32.386   5.794
 3524POPC   GL246010  28.216  32.252   5.897
 3524POPC   C1A46011  28.517  32.437   6.274
 3524POPC   D2A46012  28.666  32.293   6.685
 3524POPC   C3A46013  28.702  32.508   7.125
 3524POPC   C4A46014  28.603  32.434   7.566
 3524POPC   C1B46015  28.263  32.000   6.265
 3524POPC   C2B46016  28.113  32.064   6.674
 3524POPC   C3B46017  28.303  32.173   7.044
 3524POPC   C4B46018  28.238  32.111   7.465
 3525POPC   NC346019  42.874  13.305   5.271
 3525POPC   PO446020  43.064  12.675   5.410
 3525POPC   GL146021  43.057  12.745   5.828
 3525POPC   GL246022  43.122  13.084   5.825
 3525POPC   C1A46023  42.861  12.799   6.232
 3525POPC   D2A46024  42.953  13.010   6.606
 3525POPC   C3A46025  43.058  12.719   6.911
 3525POPC   C4A46026  43.070  12.807   7.337
 3525POPC   C1B46027  43.352  12.961   6.206
 3525POPC   C2B46028  43.495  12.853   6.619
 3525POPC   C3B46029  43.488  12.959   7.067
 3525POPC   C4B46030  43.567  12.770   7.465
 3526POPC   NC346031  41.971  34.839   5.670
 3526POPC   PO446032  41.517  34.520   5.268
 3526POPC   GL146033  41.379  34.590   5.715
 3526POPC   GL246034  41.082  34.370   5.748
 3526POPC   C1A46035  41.581  34.641   6.153
 3526POPC   D2A46036  41.844  34.593   6.511
 3526POPC   C3A46037  41.683  34.689   6.908
 3526POPC   C4A46038  41.861  34.956   7.179
 3526POPC   C1B46039  41.123  34.432   6.200
 3526POPC   C2B46040  41.293  34.460   6.623
 3526POPC   C3B46041  41.250  34.475   7.074
 3526POPC   C4B46042  41.304  34.276   7.472
 3527POPC   NC346043  42.656  19.577   5.633
 3527POPC   PO446044  42.248  20.078   5.421
 3527POPC   GL146045  42.317  19.959   5.833
 3527POPC   GL246046  42.212  19.626   5.883
 3527POPC   C1A46047  42.336  19.925   6.277
 3527POPC   D2A46048  42.422  19.851   6.688
 3527POPC   C3A46049  42.346  20.171   6.971
 3527POPC   C4A46050  42.231  20.096   7.374
 3527POPC   C1B46051  42.109  19.441   6.292
 3527POPC   C2B46052  41.866  19.601   6.635
 3527POPC   C3B46053  42.062  19.708   7.062
 3527POPC   C4B46054  42.519  19.690   7.176
 3528POPC   NC346055  15.978   4.707   5.346
 3528POPC   PO446056  16.233   5.318   5.437
 3528POPC   GL146057  15.864   5.115   5.701
 3528POPC   GL246058  15.620   4.798   5.737
 3528POPC   C1A46059  15.900   4.983   6.135
 3528POPC   D2A46060  15.778   4.974   6.562
 3528POPC   C3A46061  16.092   5.066   6.884
 3528POPC   C4A46062  16.096   5.159   7.321
 3528POPC   C1B46063  15.541   4.583   6.174
 3528POPC   C2B46064  15.606   4.506   6.645
 3528POPC   C3B46065  15.758   4.694   7.039
 3528POPC   C4B46066  15.717   4.563   7.460
 3529POPC   NC346067  27.305   8.664   5.526
 3529POPC   PO446068  27.907   8.391   5.436
 3529POPC   GL146069  27.530   8.139   5.691
 3529POPC   GL246070  27.282   8.330   5.885
 3529POPC   C1A46071  27.412   7.907   6.118
 3529POPC   D2A46072  27.682   7.962   6.488
 3529POPC   C3A46073  27.507   7.950   6.887
 3529POPC   C4A46074  27.721   7.968   7.278
 3529POPC   C1B46075  27.589   8.377   6.162
 3529POPC   C2B46076  27.378   8.369   6.529
 3529POPC   C3B46077  27.564   8.453   6.874
 3529POPC   C4B46078  27.478   8.414   7.271
 3530POPC   NC346079  18.085  38.141   5.536
 3530POPC   PO446080  18.406  38.773   5.466
 3530POPC   GL146081  18.295  38.532   5.821
 3530POPC   GL246082  18.063  38.811   5.887
 3530POPC   C1A46083  18.532  38.276   6.151
 3530POPC   D2A46084  18.678  38.365   6.566
 3530POPC   C3A46085  18.423  38.661   6.788
 3530POPC   C4A46086  18.396  38.633   7.226
 3530POPC   C1B46087  18.130  38.629   6.296
 3530POPC   C2B46088  17.810  38.507   6.573
 3530POPC   C3B46089  17.681  38.748   6.892
 3530POPC   C4B46090  17.906  38.784   7.288
 3531POPC   NC346091  19.368   0.983   5.631
 3531POPC   PO446092  19.096   1.534   5.258
 3531POPC   GL146093  19.012   1.386   5.742
 3531POPC   GL246094  18.850   1.055   5.671
 3531POPC   C1A46095  19.260   1.346   6.205
 3531POPC   D2A46096  19.393   1.080   6.579
 3531POPC   C3A46097  19.212   1.145   6.988
 3531POPC   C4A46098  19.430   1.010   7.331
 3531POPC   C1B46099  18.891   1.022   6.118
 3531POPC   C2B46100  18.881   0.990   6.598
 3531POPC   C3B46101  18.696   1.071   7.044
 3531POPC   C4B46102  18.525   1.329   7.396
 3532POPC   NC346103  10.163   2.195   5.607
 3532POPC   PO446104   9.547   2.021   5.417
 3532POPC   GL146105   9.596   2.055   5.863
 3532POPC   GL246106   9.252   2.207   5.952
 3532POPC   C1A46107   9.823   1.867   6.264
 3532POPC   D2A46108  10.106   1.885   6.642
 3532POPC   C3A46109   9.932   1.860   7.055
 3532POPC   C4A46110  10.081   1.978   7.476
 3532POPC   C1B46111   9.506   2.286   6.313
 3532POPC   C2B46112   9.583   2.054   6.679
 3532POPC   C3B46113   9.404   1.904   7.035
 3532POPC   C4B46114   9.122   1.990   7.355
 3533POPC   NC346115   6.631  41.830   5.401
 3533POPC   PO446116   6.891  41.125   5.338
 3533POPC   GL146117   6.693  41.394   5.694
 3533POPC   GL246118   6.799  41.734   5.873
 3533POPC   C1A46119   6.605  41.369   6.138
 3533POPC   D2A46120   6.781  41.459   6.537
 3533POPC   C3A46121   6.590  41.307   6.913
 3533POPC   C4A46122   6.582  41.352   7.356
 3533POPC   C1B46123   6.539  41.870   6.253
 3533POPC   C2B46124   6.491  41.851   6.716
 3533POPC   C3B46125   6.503  41.818   7.188
 3533POPC   C4B46126   6.443  41.792   7.658
 3534POPC   NC346127  32.431   8.458   5.497
 3534POPC   PO446128  32.207   7.840   5.501
 3534POPC   GL146129  32.135   8.029   5.887
 3534POPC   GL246130  32.091   8.366   5.848
 3534POPC   C1A46131  32.244   8.030   6.339
 3534POPC   D2A46132  32.521   7.959   6.708
 3534POPC   C3A46133  32.342   7.949   7.139
 3534POPC   C4A46134  32.104   8.203   7.425
 3534POPC   C1B46135  32.313   8.516   6.180
 3534POPC   C2B46136  32.476   8.454   6.578
 3534POPC   C3B46137  32.335   8.450   6.986
 3534POPC   C4B46138  32.519   8.502   7.374
 3535POPC   NC346139   6.479  16.552   5.628
 3535POPC   PO446140   5.886  16.762   5.335
 3535POPC   GL146141   6.000  16.792   5.825
 3535POPC   GL246142   6.293  16.881   5.994
 3535POPC   C1A46143   5.848  16.887   6.278
 3535POPC   D2A46144   5.717  16.708   6.684
 3535POPC   C3A46145   5.943  16.654   7.087
 3535POPC   C4A46146   5.744  16.534   7.499
 3535POPC   C1B46147   6.172  16.476   6.243
 3535POPC   C2B46148   6.071  16.345   6.687
 3535POPC   C3B46149   6.124  16.174   7.106
 3535POPC   C4B46150   6.219  16.426   7.468
 3536POPC   NC346151  15.453  13.913   5.440
 3536POPC   PO446152  14.809  13.667   5.576
 3536POPC   GL146153  15.053  13.485   5.914
 3536POPC   GL246154  15.397  13.549   5.828
 3536POPC   C1A46155  15.236  13.346   6.308
 3536POPC   D2A46156  15.184  13.433   6.739
 3536POPC   C3A46157  15.461  13.429   7.084
 3536POPC   C4A46158  15.170  13.513   7.407
 3536POPC   C1B46159  15.522  13.887   6.116
 3536POPC   C2B46160  15.431  13.850   6.553
 3536POPC   C3B46161  15.337  13.926   6.977
 3536POPC   C4B46162  15.538  13.932   7.397
 3537POPC   NC346163  31.413  38.827   5.494
 3537POPC   PO446164  31.703  38.211   5.393
 3537POPC   GL146165  31.641  38.465   5.784
 3537POPC   GL246166  31.241  38.514   5.854
 3537POPC   C1A46167  31.568  38.419   6.230
 3537POPC   D2A46168  31.385  38.423   6.621
 3537POPC   C3A46169  31.713  38.326   6.894
 3537POPC   C4A46170  31.773  38.478   7.341
 3537POPC   C1B46171  31.236  38.824   6.209
 3537POPC   C2B46172  31.511  38.925   6.560
 3537POPC   C3B46173  31.567  38.799   6.972
 3537POPC   C4B46174  31.284  38.662   7.283
 3538POPC   NC346175  37.683   0.764   5.509
 3538POPC   PO446176  37.668   1.504   5.552
 3538POPC   GL146177  37.838   1.316   5.880
 3538POPC   GL246178  37.541   1.092   5.868
 3538POPC   C1A46179  37.989   1.530   6.282
 3538POPC   D2A46180  37.889   1.347   6.662
 3538POPC   C3A46181  37.919   1.550   7.036
 3538POPC   C4A46182  37.669   1.413   7.358
 3538POPC   C1B46183  37.676   1.088   6.284
 3538POPC   C2B46184  37.749   0.842   6.606
 3538POPC   C3B46185  37.717   1.028   7.016
 3538POPC   C4B46186  37.495   0.943   7.374
 3539POPC   NC346187  28.155  23.129   5.362
 3539POPC   PO446188  27.585  22.695   5.456
 3539POPC   GL146189  27.881  22.840   5.706
 3539POPC   GL246190  27.687  23.159   5.779
 3539POPC   C1A46191  27.950  22.872   6.140
 3539POPC   D2A46192  27.668  22.902   6.469
 3539POPC   C3A46193  27.857  23.008   6.828
 3539POPC   C4A46194  27.612  22.917   7.153
 3539POPC   C1B46195  27.366  23.150   6.134
 3539POPC   C2B46196  27.148  23.060   6.553
 3539POPC   C3B46197  27.207  23.174   6.980
 3539POPC   C4B46198  27.306  23.237   7.394
 3540POPC   NC346199  33.284  19.665   5.575
 3540POPC   PO446200  32.776  20.054   5.477
 3540POPC   GL146201  32.972  19.976   5.856
 3540POPC   GL246202  33.292  20.161   5.813
 3540POPC   C1A46203  32.861  19.713   6.216
 3540POPC   D2A46204  32.579  19.699   6.572
 3540POPC   C3A46205  32.782  19.653   6.967
 3540POPC   C4A46206  32.825  19.820   7.399
 3540POPC   C1B46207  33.381  20.004   6.235
 3540POPC   C2B46208  33.451  19.934   6.668
 3540POPC   C3B46209  33.656  19.767   7.010
 3540POPC   C4B46210  33.329  19.738   7.286
 3541POPC   NC346211  41.606   1.122   5.500
 3541POPC   PO446212  41.107   0.723   5.709
 3541POPC   GL146213  41.228   1.092   5.974
 3541POPC   GL246214  41.226   1.468   5.906
 3541POPC   C1A46215  41.253   1.298   6.379
 3541POPC   D2A46216  41.454   1.162   6.725
 3541POPC   C3A46217  41.331   1.228   7.106
 3541POPC   C4A46218  41.738   1.175   7.296
 3541POPC   C1B46219  41.646   1.494   6.162
 3541POPC   C2B46220  41.697   1.606   6.569
 3541POPC   C3B46221  41.766   1.590   6.994
 3541POPC   C4B46222  41.504   1.654   7.319
 3542POPC   NC346223  33.177  17.129   5.513
 3542POPC   PO446224  32.887  16.472   5.581
 3542POPC   GL146225  33.080  16.764   5.847
 3542POPC   GL246226  32.861  17.036   5.947
 3542POPC   C1A46227  33.335  16.738   6.211
 3542POPC   D2A46228  33.367  16.452   6.562
 3542POPC   C3A46229  33.272  16.716   6.887
 3542POPC   C4A46230  33.359  16.960   7.221
 3542POPC   C1B46231  32.801  16.658   6.251
 3542POPC   C2B46232  32.835  16.539   6.673
 3542POPC   C3B46233  32.808  16.641   7.124
 3542POPC   C4B46234  32.600  16.783   7.497
 3543POPC   NC346235   6.934  38.515   5.341
 3543POPC   PO446236   6.285  38.201   5.264
 3543POPC   GL146237   6.563  38.291   5.718
 3543POPC   GL246238   6.770  38.596   5.820
 3543POPC   C1A46239   6.737  38.247   6.186
 3543POPC   D2A46240   6.602  38.375   6.606
 3543POPC   C3A46241   6.639  38.098   6.966
 3543POPC   C4A46242   6.553  38.191   7.393
 3543POPC   C1B46243   6.839  38.758   6.263
 3543POPC   C2B46244   7.056  38.615   6.679
 3543POPC   C3B46245   6.822  38.580   7.092
 3543POPC   C4B46246   6.962  38.712   7.511
 3544POPC   NC346247  15.495  30.750   5.514
 3544POPC   PO446248  15.746  31.290   5.185
 3544POPC   GL146249  16.001  31.047   5.584
 3544POPC   GL246250  15.972  30.661   5.709
 3544POPC   C1A46251  16.068  30.999   6.075
 3544POPC   D2A46252  15.923  30.734   6.455
 3544POPC   C3A46253  16.078  30.745   6.908
 3544POPC   C4A46254  15.824  30.756   7.311
 3544POPC   C1B46255  16.061  30.371   6.107
 3544POPC   C2B46256  16.248  30.324   6.557
 3544POPC   C3B46257  16.085  30.225   6.999
 3544POPC   C4B46258  16.207  30.439   7.384
 3545POPC   NC346259  10.828  33.291   5.590
 3545POPC   PO446260  10.583  33.852   5.233
 3545POPC   GL146261  10.517  33.743   5.698
 3545POPC   GL246262  10.154  33.697   5.877
 3545POPC   C1A46263  10.568  33.821   6.138
 3545POPC   D2A46264  10.417  33.916   6.520
 3545POPC   C3A46265  10.414  33.844   6.940
 3545POPC   C4A46266  10.520  34.181   7.193
 3545POPC   C1B46267  10.210  33.481   6.304
 3545POPC   C2B46268  10.542  33.434   6.626
 3545POPC   C3B46269  10.729  33.458   7.055
 3545POPC   C4B46270  10.514  33.611   7.452
 3546POPC   NC346271   4.157  38.374   5.275
 3546POPC   PO446272   3.515  38.185   5.429
 3546POPC   GL146273   3.386  38.248   5.847
 3546POPC   GL246274   3.469  38.602   5.857
 3546POPC   C1A46275   3.500  38.281   6.260
 3546POPC   D2A46276   3.733  38.265   6.591
 3546POPC   C3A46277   3.484  38.235   6.956
 3546POPC   C4A46278   3.641  38.364   7.318
 3546POPC   C1B46279   3.774  38.809   6.101
 3546POPC   C2B46280   3.684  38.829   6.498
 3546POPC   C3B46281   3.775  38.674   6.894
 3546POPC   C4B46282   3.783  38.838   7.285
 3547POPC   NC346283  16.929  16.997   5.441
 3547POPC   PO446284  16.558  16.507   5.566
 3547POPC   GL146285  16.673  16.765   5.855
 3547POPC   GL246286  17.022  16.657   5.826
 3547POPC   C1A46287  16.494  16.825   6.251
 3547POPC   D2A46288  16.672  16.848   6.641
 3547POPC   C3A46289  16.464  16.590   6.908
 3547POPC   C4A46290  16.461  16.740   7.286
 3547POPC   C1B46291  17.006  16.682   6.271
 3547POPC   C2B46292  17.202  16.968   6.553
 3547POPC   C3B46293  17.210  16.827   6.963
 3547POPC   C4B46294  16.922  16.471   7.084
 3548POPC   NC346295  26.699  30.237   5.275
 3548POPC   PO446296  26.911  29.625   5.272
 3548POPC   GL146297  26.696  29.660   5.737
 3548POPC   GL246298  26.682  30.039   5.819
 3548POPC   C1A46299  26.691  29.752   6.237
 3548POPC   D2A46300  26.458  29.867   6.656
 3548POPC   C3A46301  26.734  29.742   7.042
 3548POPC   C4A46302  27.094  29.535   7.252
 3548POPC   C1B46303  26.506  30.227   6.239
 3548POPC   C2B46304  26.468  30.424   6.652
 3548POPC   C3B46305  26.497  30.203   7.033
 3548POPC   C4B46306  26.614  30.069   7.424
 3549POPC   NC346307  11.709  10.943   5.698
 3549POPC   PO446308  12.349  10.796   5.474
 3549POPC   GL146309  12.087  10.565   5.777
 3549POPC   GL246310  11.810  10.322   5.726
 3549POPC   C1A46311  12.101  10.678   6.215
 3549POPC   D2A46312  12.319  10.766   6.594
 3549POPC   C3A46313  12.107  10.631   6.925
 3549POPC   C4A46314  11.847  10.772   7.198
 3549POPC   C1B46315  11.923  10.210   6.158
 3549POPC   C2B46316  12.291  10.240   6.450
 3549POPC   C3B46317  12.268  10.154   6.878
 3549POPC   C4B46318  11.844  10.189   7.055
 3550POPC   NC346319  34.325  20.421   5.331
 3550POPC   PO446320  34.575  20.969   5.489
 3550POPC   GL146321  34.345  20.750   5.801
 3550POPC   GL246322  34.642  20.511   5.830
 3550POPC   C1A46323  34.325  20.529   6.224
 3550POPC   D2A46324  34.655  20.380   6.534
 3550POPC   C3A46325  34.590  20.463   6.987
 3550POPC   C4A46326  34.333  20.518   7.376
 3550POPC   C1B46327  34.787  20.787   6.212
 3550POPC   C2B46328  34.921  20.866   6.680
 3550POPC   C3B46329  34.719  20.935   7.108
 3550POPC   C4B46330  34.716  20.821   7.558
 3551POPC   NC346331  30.414  23.097   5.440
 3551POPC   PO446332  30.631  22.414   5.198
 3551POPC   GL146333  30.700  22.728   5.629
 3551POPC   GL246334  30.831  22.549   5.874
 3551POPC   C1A46335  30.664  22.979   6.085
 3551POPC   D2A46336  30.880  23.005   6.503
 3551POPC   C3A46337  30.688  23.212   6.870
 3551POPC   C4A46338  30.573  23.115   7.307
 3551POPC   C1B46339  30.650  22.501   6.287
 3551POPC   C2B46340  30.609  22.393   6.688
 3551POPC   C3B46341  30.611  22.697   6.993
 3551POPC   C4B46342  30.873  22.689   7.327
 3552POPC   NC346343  14.328  11.767   5.445
 3552POPC   PO446344  14.396  12.472   5.281
 3552POPC   GL146345  14.500  12.224   5.726
 3552POPC   GL246346  14.732  11.933   5.742
 3552POPC   C1A46347  14.326  12.093   6.179
 3552POPC   D2A46348  14.276  11.820   6.589
 3552POPC   C3A46349  14.292  12.032   7.021
 3552POPC   C4A46350  14.201  12.489   7.078
 3552POPC   C1B46351  14.826  11.955   6.184
 3552POPC   C2B46352  14.674  12.124   6.572
 3552POPC   C3B46353  14.777  12.158   6.980
 3552POPC   C4B46354  14.664  12.303   7.380
 3553POPC   NC346355  40.865  29.905   5.003
 3553POPC   PO446356  41.216  29.568   5.465
 3553POPC   GL146357  40.987  29.900   5.705
 3553POPC   GL246358  40.631  29.971   5.874
 3553POPC   C1A46359  41.025  29.933   6.159
 3553POPC   D2A46360  40.726  29.900   6.489
 3553POPC   C3A46361  40.919  29.791   6.867
 3553POPC   C4A46362  40.816  29.951   7.250
 3553POPC   C1B46363  40.419  30.227   6.215
 3553POPC   C2B46364  40.254  30.169   6.622
 3553POPC   C3B46365  40.442  30.251   7.031
 3553POPC   C4B46366  40.472  30.248   7.483
 3554POPC   NC346367  12.669  11.992   5.472
 3554POPC   PO446368  13.347  12.149   5.333
 3554POPC   GL146369  13.100  12.181   5.775
 3554POPC   GL246370  13.177  12.425   5.971
 3554POPC   C1A46371  12.836  12.026   6.147
 3554POPC   D2A46372  12.765  12.154   6.601
 3554POPC   C3A46373  12.944  11.886   6.932
 3554POPC   C4A46374  12.769  11.758   7.375
 3554POPC   C1B46375  13.213  12.281   6.371
 3554POPC   C2B46376  13.375  12.060   6.705
 3554POPC   C3B46377  13.315  12.248   7.117
 3554POPC   C4B46378  13.182  12.249   7.574
 3555POPC   NC346379  24.683   5.999   5.003
 3555POPC   PO446380  24.240   6.087   5.515
 3555POPC   GL146381  24.524   5.897   5.829
 3555POPC   GL246382  24.372   6.144   6.028
 3555POPC   C1A46383  24.849   6.023   6.168
 3555POPC   D2A46384  24.764   6.230   6.553
 3555POPC   C3A46385  24.682   5.985   6.914
 3555POPC   C4A46386  24.526   5.760   7.267
 3555POPC   C1B46387  24.389   5.916   6.394
 3555POPC   C2B46388  24.188   6.034   6.761
 3555POPC   C3B46389  24.287   6.217   7.160
 3555POPC   C4B46390  24.263   6.119   7.613
 3556POPC   NC346391  32.599  15.308   5.427
 3556POPC   PO446392  31.947  15.018   5.389
 3556POPC   GL146393  32.257  15.058   5.732
 3556POPC   GL246394  32.193  15.400   5.744
 3556POPC   C1A46395  32.469  15.089   6.157
 3556POPC   D2A46396  32.368  15.188   6.607
 3556POPC   C3A46397  32.463  14.976   7.001
 3556POPC   C4A46398  32.401  15.102   7.457
 3556POPC   C1B46399  32.110  15.469   6.205
 3556POPC   C2B46400  31.897  15.370   6.620
 3556POPC   C3B46401  32.077  15.489   7.033
 3556POPC   C4B46402  32.240  15.575   7.491
 3557POPC   NC346403   7.110  43.564   5.473
 3557POPC   PO446404   6.426  43.885   5.430
 3557POPC   GL146405   6.599  43.777   5.853
 3557POPC   GL246406   6.943  43.655   5.963
 3557POPC   C1A46407   6.520  43.648   6.288
 3557POPC   D2A46408   6.576  43.898   6.644
 3557POPC   C3A46409   6.801  43.877   7.014
 3557POPC   C4A46410   6.479  43.638   7.193
 3557POPC   C1B46411   6.887  44.036   6.255
 3557POPC   C2B46412   6.878  44.302   6.672
 3557POPC   C3B46413   6.980  44.353   7.125
 3557POPC   C4B46414   6.853  44.250   7.577
 3558POPC   NC346415  17.827   7.777   5.406
 3558POPC   PO446416  18.018   8.436   5.480
 3558POPC   GL146417  18.155   8.275   5.873
 3558POPC   GL246418  18.504   8.234   5.901
 3558POPC   C1A46419  18.197   8.380   6.311
 3558POPC   D2A46420  17.946   8.397   6.680
 3558POPC   C3A46421  18.164   8.273   7.023
 3558POPC   C4A46422  18.045   8.163   7.443
 3558POPC   C1B46423  18.679   8.123   6.289
 3558POPC   C2B46424  18.887   8.097   6.678
 3558POPC   C3B46425  18.637   8.039   7.026
 3558POPC   C4B46426  18.535   8.265   7.380
 3559POPC   NC346427  11.317  44.955   5.512
 3559POPC   PO446428  11.094  44.382   5.711
 3559POPC   GL146429  11.226  44.669   5.944
 3559POPC   GL246430  11.472  44.873   6.078
 3559POPC   C1A46431  11.074  44.653   6.336
 3559POPC   D2A46432  11.240  44.719   6.722
 3559POPC   C3A46433  11.079  44.612   7.100
 3559POPC   C4A46434  11.318  44.768   7.466
 3559POPC   C1B46435  11.529  44.436   6.292
 3559POPC   C2B46436  11.580  44.218   6.661
 3559POPC   C3B46437  11.552  44.422   7.063
 3559POPC   C4B46438  11.703  44.405   7.447
 3560POPC   NC346439  43.340  12.313   5.335
 3560POPC   PO446440  42.703  12.077   5.513
 3560POPC   GL146441  43.051  12.213   5.740
 3560POPC   GL246442  43.312  11.967   5.729
 3560POPC   C1A46443  43.126  12.317   6.164
 3560POPC   D2A46444  42.859  12.177   6.519
 3560POPC   C3A46445  43.047  12.087   6.940
 3560POPC   C4A46446  43.248  12.315   7.280
 3560POPC   C1B46447  43.190  11.754   6.075
 3560POPC   C2B46448  43.204  11.732   6.501
 3560POPC   C3B46449  43.368  11.672   6.894
 3560POPC   C4B46450  43.145  11.694   7.278
 3561POPC   NC346451  21.103  42.006   5.500
 3561POPC   PO446452  21.710  42.185   5.348
 3561POPC   GL146453  21.524  42.427   5.696
 3561POPC   GL246454  21.659  42.763   5.617
 3561POPC   C1A46455  21.278  42.334   6.099
 3561POPC   D2A46456  21.185  41.967   6.385
 3561POPC   C3A46457  21.265  42.067   6.816
 3561POPC   C4A46458  21.259  42.420   7.104
 3561POPC   C1B46459  21.574  42.851   6.057
 3561POPC   C2B46460  21.400  42.713   6.468
 3561POPC   C3B46461  21.523  42.824   6.886
 3561POPC   C4B46462  21.554  42.774   7.330
 3562POPC   NC346463  44.766  29.783   5.533
 3562POPC   PO446464  44.368  30.359   5.464
 3562POPC   GL146465  44.446  30.173   5.854
 3562POPC   GL246466  44.791  30.154   5.896
 3562POPC   C1A46467  44.334  29.908   6.222
 3562POPC   D2A46468  44.462  29.650   6.553
 3562POPC   C3A46469  44.495  29.891   6.924
 3562POPC   C4A46470  44.321  29.720   7.276
 3562POPC   C1B46471  44.841  29.849   6.220
 3562POPC   C2B46472  44.961  29.753   6.633
 3562POPC   C3B46473   0.017  29.834   7.062
 3562POPC   C4B46474  44.811  29.714   7.465
 3563POPC   NC346475  18.429  27.182   5.555
 3563POPC   PO446476  18.443  26.611   5.312
 3563POPC   GL146477  18.145  26.663   5.675
 3563POPC   GL246478  17.968  26.987   5.749
 3563POPC   C1A46479  18.199  26.706   6.131
 3563POPC   D2A46480  18.456  26.582   6.483
 3563POPC   C3A46481  18.208  26.662   6.869
 3563POPC   C4A46482  18.178  26.497   7.280
 3563POPC   C1B46483  18.177  27.204   6.135
 3563POPC   C2B46484  18.264  27.059   6.534
 3563POPC   C3B46485  18.391  27.122   6.939
 3563POPC   C4B46486  18.169  27.023   7.288
 3564POPC   NC346487  14.257  41.358   5.301
 3564POPC   PO446488  14.705  41.654   5.630
 3564POPC   GL146489  14.434  41.527   5.879
 3564POPC   GL246490  14.195  41.769   5.737
 3564POPC   C1A46491  14.533  41.428   6.314
 3564POPC   D2A46492  14.525  41.618   6.724
 3564POPC   C3A46493  14.334  41.356   7.029
 3564POPC   C4A46494  14.660  41.143   7.237
 3564POPC   C1B46495  14.158  41.815   6.213
 3564POPC   C2B46496  14.210  42.012   6.644
 3564POPC   C3B46497  14.259  41.868   7.104
 3564POPC   C4B46498  14.262  41.563   7.482
 3565POPC   NC346499  20.256  15.797   5.568
 3565POPC   PO446500  20.769  16.216   5.339
 3565POPC   GL146501  20.695  16.044   5.771
 3565POPC   GL246502  20.408  16.057   5.967
 3565POPC   C1A46503  20.807  16.034   6.233
 3565POPC   D2A46504  20.817  15.790   6.592
 3565POPC   C3A46505  20.682  16.034   6.908
 3565POPC   C4A46506  20.832  16.035   7.293
 3565POPC   C1B46507  20.352  15.762   6.305
 3565POPC   C2B46508  20.241  15.766   6.741
 3565POPC   C3B46509  20.284  15.809   7.186
 3565POPC   C4B46510  20.094  15.548   7.555
 3566POPC   NC346511  22.684  27.712   5.430
 3566POPC   PO446512  23.275  27.342   5.557
 3566POPC   GL146513  22.918  27.464   5.864
 3566POPC   GL246514  22.687  27.770   5.927
 3566POPC   C1A46515  23.027  27.499   6.303
 3566POPC   D2A46516  23.210  27.301   6.666
 3566POPC   C3A46517  23.106  27.424   7.085
 3566POPC   C4A46518  23.257  27.848   7.205
 3566POPC   C1B46519  22.543  27.668   6.322
 3566POPC   C2B46520  22.716  27.561   6.710
 3566POPC   C3B46521  22.765  27.791   7.068
 3566POPC   C4B46522  22.585  27.515   7.314
 3567POPC   NC346523  15.856  41.017   5.480
 3567POPC   PO446524  16.268  40.574   5.591
 3567POPC   GL146525  15.942  40.632   5.883
 3567POPC   GL246526  15.684  40.910   5.933
 3567POPC   C1A46527  16.123  40.603   6.278
 3567POPC   D2A46528  16.010  40.771   6.638
 3567POPC   C3A46529  15.762  40.575   6.938
 3567POPC   C4A46530  16.048  40.746   7.236
 3567POPC   C1B46531  15.997  41.093   6.190
 3567POPC   C2B46532  15.909  41.295   6.585
 3567POPC   C3B46533  15.805  41.107   6.983
 3567POPC   C4B46534  15.731  41.085   7.445
 3568POPC   NC346535   9.289  14.581   5.432
 3568POPC   PO446536   8.791  14.065   5.445
 3568POPC   GL146537   8.927  14.067   5.838
 3568POPC   GL246538   8.645  13.929   5.951
 3568POPC   C1A46539   9.086  14.239   6.241
 3568POPC   D2A46540   8.880  14.551   6.527
 3568POPC   C3A46541   9.034  14.491   6.945
 3568POPC   C4A46542   9.212  14.166   7.133
 3568POPC   C1B46543   8.581  14.196   6.249
 3568POPC   C2B46544   8.420  14.288   6.609
 3568POPC   C3B46545   8.598  14.210   6.956
 3568POPC   C4B46546   8.698  14.212   7.341
 3569POPC   NC346547  43.730  31.143   5.501
 3569POPC   PO446548  44.210  31.497   5.324
 3569POPC   GL146549  44.075  31.523   5.743
 3569POPC   GL246550  44.124  31.179   5.893
 3569POPC   C1A46551  43.947  31.575   6.180
 3569POPC   D2A46552  44.076  31.301   6.517
 3569POPC   C3A46553  44.066  31.546   6.869
 3569POPC   C4A46554  44.020  31.357   7.261
 3569POPC   C1B46555  43.722  31.130   6.161
 3569POPC   C2B46556  43.573  31.390   6.521
 3569POPC   C3B46557  43.644  31.233   6.942
 3569POPC   C4B46558  43.398  31.197   7.294
 3570POPC   NC346559  35.242   0.616   5.461
 3570POPC   PO446560  35.612   0.009   5.336
 3570POPC   GL146561  35.620   0.175   5.774
 3570POPC   GL246562  35.516   0.518   5.877
 3570POPC   C1A46563  35.612   0.143   6.231
 3570POPC   D2A46564  35.766   0.189   6.655
 3570POPC   C3A46565  35.508   0.378   6.925
 3570POPC   C4A46566  35.605   0.661   7.229
 3570POPC   C1B46567  35.183   0.654   6.192
 3570POPC   C2B46568  35.084   0.547   6.662
 3570POPC   C3B46569  35.084   0.561   7.158
 3570POPC   C4B46570  35.091   0.590   7.670
 3571POPC   NC346571  30.964  16.091   5.514
 3571POPC   PO446572  30.371  15.941   5.208
 3571POPC   GL146573  30.392  15.902   5.685
 3571POPC   GL246574  30.690  15.713   5.765
 3571POPC   C1A46575  30.499  16.024   6.147
 3571POPC   D2A46576  30.452  16.016   6.614
 3571POPC   C3A46577  30.796  16.053   6.885
 3571POPC   C4A46578  30.961  16.212   7.250
 3571POPC   C1B46579  30.650  15.535   6.204
 3571POPC   C2B46580  30.803  15.518   6.606
 3571POPC   C3B46581  30.562  15.571   6.940
 3571POPC   C4B46582  30.659  15.767   7.307
 3572POPC   NC346583  28.097   3.463   5.472
 3572POPC   PO446584  28.770   3.731   5.360
 3572POPC   GL146585  28.499   3.663   5.729
 3572POPC   GL246586  28.252   3.921   5.664
 3572POPC   C1A46587  28.360   3.466   6.140
 3572POPC   D2A46588  28.211   3.327   6.558
 3572POPC   C3A46589  28.343   3.480   6.948
 3572POPC   C4A46590  28.501   3.633   7.303
 3572POPC   C1B46591  28.148   3.931   6.086
 3572POPC   C2B46592  28.176   3.854   6.530
 3572POPC   C3B46593  28.032   3.900   6.947
 3572POPC   C4B46594  28.095   3.988   7.385
 3573POPC   NC346595  28.830  23.185   5.542
 3573POPC   PO446596  28.335  22.676   5.411
 3573POPC   GL146597  28.431  22.930   5.777
 3573POPC   GL246598  28.189  23.211   5.854
 3573POPC   C1A46599  28.577  22.810   6.183
 3573POPC   D2A46600  28.285  22.842   6.529
 3573POPC   C3A46601  28.415  22.890   6.923
 3573POPC   C4A46602  28.120  22.851   7.266
 3573POPC   C1B46603  28.351  23.254   6.232
 3573POPC   C2B46604  28.187  23.351   6.645
 3573POPC   C3B46605  28.206  23.321   7.079
 3573POPC   C4B46606  28.595  23.185   7.309
 3574POPC   NC346607  14.481  16.189   5.100
 3574POPC   PO446608  14.549  15.581   5.402
 3574POPC   GL146609  14.643  15.805   5.788
 3574POPC   GL246610  14.663  16.138   5.648
 3574POPC   C1A46611  14.420  15.927   6.186
 3574POPC   D2A46612  14.365  15.845   6.636
 3574POPC   C3A46613  14.336  16.144   6.958
 3574POPC   C4A46614  14.375  15.828   7.247
 3574POPC   C1B46615  14.821  16.228   6.078
 3574POPC   C2B46616  14.700  16.240   6.512
 3574POPC   C3B46617  14.833  16.064   6.895
 3574POPC   C4B46618  14.817  16.071   7.325
 3575POPC   NC346619  31.081   5.144   5.586
 3575POPC   PO446620  30.415   4.953   5.425
 3575POPC   GL146621  30.622   4.938   5.805
 3575POPC   GL246622  30.871   4.733   5.926
 3575POPC   C1A46623  30.558   5.024   6.229
 3575POPC   D2A46624  30.825   5.148   6.582
 3575POPC   C3A46625  30.573   5.381   6.877
 3575POPC   C4A46626  30.492   5.376   7.297
 3575POPC   C1B46627  30.824   4.620   6.393
 3575POPC   C2B46628  30.781   4.679   6.830
 3575POPC   C3B46629  31.004   4.960   7.070
 3575POPC   C4B46630  30.928   5.144   7.445
 3576POPC   NC346631   7.942  22.836   5.603
 3576POPC   PO446632   7.312  22.749   5.375
 3576POPC   GL146633   7.351  23.012   5.744
 3576POPC   GL246634   7.663  23.150   5.883
 3576POPC   C1A46635   7.165  22.981   6.156
 3576POPC   D2A46636   7.086  22.775   6.532
 3576POPC   C3A46637   7.378  22.899   6.861
 3576POPC   C4A46638   7.456  23.155   7.237
 3576POPC   C1B46639   7.674  22.897   6.263
 3576POPC   C2B46640   7.882  22.775   6.665
 3576POPC   C3B46641   7.852  22.871   7.068
 3576POPC   C4B46642   7.675  22.628   7.318
 3577POPC   NC346643  42.800  42.308   5.429
 3577POPC   PO446644  43.495  42.585   5.409
 3577POPC   GL146645  43.180  42.590   5.709
 3577POPC   GL246646  43.232  42.248   5.706
 3577POPC   C1A46647  42.995  42.443   6.109
 3577POPC   D2A46648  43.108  42.561   6.530
 3577POPC   C3A46649  43.162  42.360   6.954
 3577POPC   C4A46650  43.265  42.609   7.334
 3577POPC   C1B46651  43.404  42.114   6.111
 3577POPC   C2B46652  43.348  42.063   6.531
 3577POPC   C3B46653  43.650  42.236   6.794
 3577POPC   C4B46654  43.590  42.223   7.233
 3578POPC   NC346655  11.457   6.060   5.024
 3578POPC   PO446656  11.165   5.673   5.517
 3578POPC   GL146657  11.344   5.802   5.881
 3578POPC   GL246658  11.143   6.062   6.024
 3578POPC   C1A46659  11.279   5.634   6.276
 3578POPC   D2A46660  11.003   5.419   6.518
 3578POPC   C3A46661  11.149   5.637   6.825
 3578POPC   C4A46662  11.361   5.711   7.174
 3578POPC   C1B46663  11.434   6.171   6.363
 3578POPC   C2B46664  11.475   6.127   6.798
 3578POPC   C3B46665  11.339   6.215   7.201
 3578POPC   C4B46666  10.898   6.212   7.362
 3579POPC   NC346667  28.453  14.106   5.533
 3579POPC   PO446668  28.289  14.748   5.686
 3579POPC   GL146669  28.340  14.453   5.947
 3579POPC   GL246670  28.722  14.358   5.933
 3579POPC   C1A46671  28.084  14.420   6.337
 3579POPC   D2A46672  28.176  14.595   6.745
 3579POPC   C3A46673  28.163  14.310   7.106
 3579POPC   C4A46674  28.073  14.021   7.447
 3579POPC   C1B46675  28.618  14.573   6.351
 3579POPC   C2B46676  28.685  14.576   6.786
 3579POPC   C3B46677  28.674  14.335   7.143
 3579POPC   C4B46678  28.760  14.568   7.488
 3580POPC   NC346679   3.120   7.508   5.215
 3580POPC   PO446680   3.716   7.671   5.486
 3580POPC   GL146681   3.680   7.709   5.910
 3580POPC   GL246682   3.491   7.409   5.897
 3580POPC   C1A46683   3.789   7.562   6.342
 3580POPC   D2A46684   3.678   7.278   6.695
 3580POPC   C3A46685   3.580   7.440   7.105
 3580POPC   C4A46686   3.860   7.434   7.444
 3580POPC   C1B46687   3.282   7.495   6.255
 3580POPC   C2B46688   3.174   7.444   6.655
 3580POPC   C3B46689   2.909   7.658   6.924
 3580POPC   C4B46690   3.105   7.573   7.304
 3581POPC   NC346691   9.110  30.429   5.397
 3581POPC   PO446692   8.584  30.839   5.448
 3581POPC   GL146693   8.782  30.589   5.800
 3581POPC   GL246694   9.151  30.659   5.852
 3581POPC   C1A46695   8.789  30.489   6.252
 3581POPC   D2A46696   8.680  30.390   6.705
 3581POPC   C3A46697   8.831  30.590   7.075
 3581POPC   C4A46698   9.177  30.791   7.280
 3581POPC   C1B46699   9.314  30.451   6.216
 3581POPC   C2B46700   9.179  30.437   6.641
 3581POPC   C3B46701   9.374  30.390   7.052
 3581POPC   C4B46702   9.136  30.324   7.452
 3582POPC   NC346703  16.656  29.344   5.526
 3582POPC   PO446704  16.341  28.830   5.794
 3582POPC   GL146705  16.657  29.047   5.984
 3582POPC   GL246706  17.010  29.094   5.911
 3582POPC   C1A46707  16.800  29.146   6.370
 3582POPC   D2A46708  16.664  29.299   6.712
 3582POPC   C3A46709  16.735  28.996   6.910
 3582POPC   C4A46710  16.717  28.922   7.267
 3582POPC   C1B46711  17.258  29.349   6.255
 3582POPC   C2B46712  17.198  29.276   6.717
 3582POPC   C3B46713  17.110  29.241   7.169
 3582POPC   C4B46714  16.898  29.283   7.593
 3583POPC   NC346715  20.082   1.290   5.422
 3583POPC   PO446716  19.489   1.432   5.607
 3583POPC   GL146717  19.781   1.279   5.872
 3583POPC   GL246718  19.893   0.941   5.797
 3583POPC   C1A46719  19.791   1.253   6.304
 3583POPC   D2A46720  19.816   1.449   6.712
 3583POPC   C3A46721  19.639   1.425   7.117
 3583POPC   C4A46722  19.711   1.330   7.596
 3583POPC   C1B46723  20.075   0.820   6.229
 3583POPC   C2B46724  19.893   0.900   6.643
 3583POPC   C3B46725  19.860   0.988   7.046
 3583POPC   C4B46726  20.020   0.954   7.453
 3584POPC   NC346727  27.892  21.573   5.359
 3584POPC   PO446728  28.398  21.088   5.358
 3584POPC   GL146729  28.292  21.390   5.711
 3584POPC   GL246730  28.072  21.219   5.910
 3584POPC   C1A46731  28.425  21.431   6.181
 3584POPC   D2A46732  28.274  21.508   6.627
 3584POPC   C3A46733  28.516  21.331   6.976
 3584POPC   C4A46734  28.551  21.533   7.395
 3584POPC   C1B46735  27.990  21.155   6.369
 3584POPC   C2B46736  27.986  21.119   6.834
 3584POPC   C3B46737  27.894  20.974   7.254
 3584POPC   C4B46738  27.874  20.859   7.732
 3585POPC   NC346739  44.567  36.470   5.142
 3585POPC   PO446740  44.843  36.868   5.549
 3585POPC   GL146741  44.600  36.840   5.902
 3585POPC   GL246742  44.655  37.181   5.983
 3585POPC   C1A46743  44.691  36.814   6.345
 3585POPC   D2A46744  44.725  36.869   6.756
 3585POPC   C3A46745  44.364  36.949   6.976
 3585POPC   C4A46746  44.325  36.579   7.221
 3585POPC   C1B46747  44.335  37.182   6.286
 3585POPC   C2B46748  44.400  37.379   6.684
 3585POPC   C3B46749  44.743  37.298   7.003
 3585POPC   C4B46750   0.179  37.318   7.161
 3586POPC   NC346751  10.145  28.703   5.221
 3586POPC   PO446752  10.662  28.315   5.400
 3586POPC   GL146753  10.401  28.331   5.732
 3586POPC   GL246754  10.401  28.677   5.711
 3586POPC   C1A46755  10.572  28.315   6.146
 3586POPC   D2A46756  10.747  28.272   6.539
 3586POPC   C3A46757  10.557  28.321   6.931
 3586POPC   C4A46758  10.667  28.437   7.366
 3586POPC   C1B46759  10.203  28.644   6.118
 3586POPC   C2B46760  10.229  28.462   6.543
 3586POPC   C3B46761  10.129  28.611   6.975
 3586POPC   C4B46762  10.294  28.780   7.374
 3587POPC   NC346763   8.686  43.345   5.227
 3587POPC   PO446764   9.231  42.931   5.431
 3587POPC   GL146765   9.100  43.081   5.823
 3587POPC   GL246766   9.047  43.427   5.735
 3587POPC   C1A46767   8.854  42.989   6.213
 3587POPC   D2A46768   8.828  42.771   6.621
 3587POPC   C3A46769   9.037  43.024   6.918
 3587POPC   C4A46770   9.332  42.924   7.250
 3587POPC   C1B46771   9.068  43.459   6.183
 3587POPC   C2B46772   9.242  43.549   6.567
 3587POPC   C3B46773   9.071  43.551   6.961
 3587POPC   C4B46774   9.032  43.333   7.335
 3588POPC   NC346775   6.355  43.156   5.500
 3588POPC   PO446776   6.977  43.053   5.454
 3588POPC   GL146777   6.880  43.140   5.882
 3588POPC   GL246778   6.544  43.255   5.950
 3588POPC   C1A46779   6.861  43.270   6.334
 3588POPC   D2A46780   7.006  43.557   6.668
 3588POPC   C3A46781   6.915  43.376   7.109
 3588POPC   C4A46782   6.659  43.312   7.522
 3588POPC   C1B46783   6.320  43.141   6.330
 3588POPC   C2B46784   6.185  42.722   6.520
 3588POPC   C3B46785   6.279  42.674   6.947
 3588POPC   C4B46786   6.405  43.082   7.147
 3589POPC   NC346787  27.274  14.042   5.508
 3589POPC   PO446788  27.835  14.208   5.496
 3589POPC   GL146789  27.802  14.447   5.864
 3589POPC   GL246790  27.453  14.491   5.767
 3589POPC   C1A46791  27.603  14.640   6.228
 3589POPC   D2A46792  27.385  14.524   6.592
 3589POPC   C3A46793  27.721  14.330   6.783
 3589POPC   C4A46794  27.678  14.212   7.173
 3589POPC   C1B46795  27.328  14.216   6.143
 3589POPC   C2B46796  27.390  13.988   6.553
 3589POPC   C3B46797  27.229  14.161   6.947
 3589POPC   C4B46798  27.219  14.560   7.220
 3590POPC   NC346799   0.762  35.497   5.563
 3590POPC   PO446800   1.282  35.065   5.490
 3590POPC   GL146801   1.211  35.309   5.839
 3590POPC   GL246802   1.233  35.669   5.782
 3590POPC   C1A46803   1.441  35.360   6.213
 3590POPC   D2A46804   1.308  35.370   6.630
 3590POPC   C3A46805   1.480  35.355   7.053
 3590POPC   C4A46806   1.270  35.573   7.409
 3590POPC   C1B46807   1.026  35.678   6.199
 3590POPC   C2B46808   0.807  35.510   6.572
 3590POPC   C3B46809   0.968  35.493   7.004
 3590POPC   C4B46810   0.776  35.692   7.351
 3591POPC   NC346811  25.508   6.088   5.443
 3591POPC   PO446812  25.560   5.386   5.543
 3591POPC   GL146813  25.419   5.720   5.792
 3591POPC   GL246814  25.075   5.832   5.755
 3591POPC   C1A46815  25.388   6.031   6.114
 3591POPC   D2A46816  25.490   6.149   6.501
 3591POPC   C3A46817  25.201   6.051   6.800
 3591POPC   C4A46818  25.153   6.296   7.152
 3591POPC   C1B46819  25.122   5.585   6.177
 3591POPC   C2B46820  25.221   5.538   6.601
 3591POPC   C3B46821  25.259   5.462   7.004
 3591POPC   C4B46822  25.028   5.765   7.210
 3592POPC   NC346823  32.397  19.796   5.467
 3592POPC   PO446824  31.828  19.586   5.306
 3592POPC   GL146825  31.919  19.786   5.729
 3592POPC   GL246826  32.047  20.142   5.746
 3592POPC   C1A46827  32.204  19.820   6.125
 3592POPC   D2A46828  32.164  20.056   6.517
 3592POPC   C3A46829  32.155  19.776   6.869
 3592POPC   C4A46830  32.365  19.719   7.250
 3592POPC   C1B46831  32.416  20.300   6.033
 3592POPC   C2B46832  32.540  20.402   6.473
 3592POPC   C3B46833  32.551  20.156   6.869
 3592POPC   C4B46834  32.531  20.211   7.303
 3593POPC   NC346835  41.777  22.963   5.480
 3593POPC   PO446836  41.253  23.215   5.204
 3593POPC   GL146837  41.314  23.120   5.730
 3593POPC   GL246838  41.496  22.787   5.853
 3593POPC   C1A46839  41.471  23.150   6.183
 3593POPC   D2A46840  41.694  22.922   6.495
 3593POPC   C3A46841  41.628  23.043   6.926
 3593POPC   C4A46842  41.331  23.166   7.224
 3593POPC   C1B46843  41.846  22.572   6.093
 3593POPC   C2B46844  41.916  22.447   6.516
 3593POPC   C3B46845  41.894  22.602   6.935
 3593POPC   C4B46846  42.048  22.728   7.320
 3594POPC   NC346847  35.488  21.698   5.530
 3594POPC   PO446848  35.319  20.921   5.505
 3594POPC   GL146849  35.399  21.164   5.872
 3594POPC   GL246850  35.228  21.471   5.905
 3594POPC   C1A46851  35.529  21.310   6.306
 3594POPC   D2A46852  35.431  21.539   6.714
 3594POPC   C3A46853  35.554  21.380   7.142
 3594POPC   C4A46854  35.670  21.614   7.544
 3594POPC   C1B46855  34.960  21.693   6.189
 3594POPC   C2B46856  34.857  21.905   6.582
 3594POPC   C3B46857  34.951  21.680   6.932
 3594POPC   C4B46858  35.049  21.291   6.975
 3595POPC   NC346859  19.895   4.267   5.455
 3595POPC   PO446860  19.435   4.647   5.569
 3595POPC   GL146861  19.671   4.514   5.903
 3595POPC   GL246862  19.956   4.322   5.963
 3595POPC   C1A46863  19.721   4.545   6.356
 3595POPC   D2A46864  19.966   4.437   6.702
 3595POPC   C3A46865  19.680   4.427   7.038
 3595POPC   C4A46866  19.603   4.098   7.313
 3595POPC   C1B46867  19.898   4.034   6.321
 3595POPC   C2B46868  20.141   3.910   6.685
 3595POPC   C3B46869  20.061   4.073   7.056
 3595POPC   C4B46870  20.134   4.426   7.263
 3596POPC   NC346871  38.517  42.650   5.089
 3596POPC   PO446872  38.580  42.350   5.712
 3596POPC   GL146873  38.506  42.573   6.075
 3596POPC   GL246874  38.165  42.548   6.053
 3596POPC   C1A46875  38.427  42.432   6.483
 3596POPC   D2A46876  38.555  42.082   6.708
 3596POPC   C3A46877  38.659  42.215   7.085
 3596POPC   C4A46878  38.519  42.502   7.367
 3596POPC   C1B46879  38.058  42.177   6.225
 3596POPC   C2B46880  38.029  42.169   6.640
 3596POPC   C3B46881  38.151  42.343   7.022
 3596POPC   C4B46882  38.174  42.146   7.423
 3597POPC   NC346883   9.109  33.396   5.147
 3597POPC   PO446884   9.018  32.760   5.199
 3597POPC   GL146885   8.969  33.132   5.561
 3597POPC   GL246886   8.826  32.888   5.763
 3597POPC   C1A46887   8.986  33.282   6.040
 3597POPC   D2A46888   9.001  33.436   6.496
 3597POPC   C3A46889   9.202  33.260   6.871
 3597POPC   C4A46890   9.104  33.288   7.310
 3597POPC   C1B46891   8.725  32.764   6.178
 3597POPC   C2B46892   8.857  32.887   6.601
 3597POPC   C3B46893   8.901  32.802   7.039
 3597POPC   C4B46894   8.753  32.858   7.483
 3598POPC   NC346895   3.437  19.269   5.360
 3598POPC   PO446896   3.430  18.646   5.485
 3598POPC   GL146897   3.521  18.957   5.800
 3598POPC   GL246898   3.805  19.178   5.744
 3598POPC   C1A46899   3.601  19.121   6.232
 3598POPC   D2A46900   3.409  19.323   6.595
 3598POPC   C3A46901   3.366  19.064   6.962
 3598POPC   C4A46902   3.333  18.862   7.357
 3598POPC   C1B46903   3.960  18.818   6.011
 3598POPC   C2B46904   3.931  18.720   6.457
 3598POPC   C3B46905   3.859  18.975   6.806
 3598POPC   C4B46906   3.858  19.071   7.232
 3599POPC   NC346907   7.629  14.451   5.527
 3599POPC   PO446908   6.905  14.398   5.508
 3599POPC   GL146909   7.201  14.333   5.806
 3599POPC   GL246910   7.269  14.689   5.810
 3599POPC   C1A46911   7.489  14.205   6.151
 3599POPC   D2A46912   7.739  14.070   6.544
 3599POPC   C3A46913   7.682  14.242   6.928
 3599POPC   C4A46914   7.268  14.300   7.026
 3599POPC   C1B46915   7.503  14.705   6.197
 3599POPC   C2B46916   7.425  14.502   6.564
 3599POPC   C3B46917   7.490  14.742   6.881
 3599POPC   C4B46918   7.634  14.650   7.263
 3600POPC   NC346919   7.890  10.011   5.430
 3600POPC   PO446920   8.495  10.111   5.041
 3600POPC   GL146921   8.343  10.082   5.602
 3600POPC   GL246922   8.186   9.747   5.754
 3600POPC   C1A46923   8.368  10.012   6.123
 3600POPC   D2A46924   8.153  10.025   6.542
 3600POPC   C3A46925   8.355   9.979   6.947
 3600POPC   C4A46926   8.401   9.614   7.158
 3600POPC   C1B46927   8.176   9.525   6.200
 3600POPC   C2B46928   8.192   9.532   6.674
 3600POPC   C3B46929   7.920   9.733   6.989
 3600POPC   C4B46930   7.952   9.520   7.369
 3601POPC   NC346931  24.476  25.137   5.234
 3601POPC   PO446932  24.093  25.574   5.563
 3601POPC   GL146933  24.332  25.182   5.721
 3601POPC   GL246934  24.712  25.252   5.681
 3601POPC   C1A46935  24.576  24.971   6.098
 3601POPC   D2A46936  24.482  24.834   6.519
 3601POPC   C3A46937  24.565  25.054   6.870
 3601POPC   C4A46938  24.225  25.165   7.078
 3601POPC   C1B46939  24.536  25.484   6.062
 3601POPC   C2B46940  24.574  25.392   6.464
 3601POPC   C3B46941  24.459  25.555   6.837
 3601POPC   C4B46942  24.644  25.446   7.228
 3602POPC   NC346943  29.852   6.263   5.456
 3602POPC   PO446944  30.130   6.876   5.412
 3602POPC   GL146945  30.048   6.616   5.821
 3602POPC   GL246946  30.238   6.272   5.844
 3602POPC   C1A46947  29.742   6.716   6.184
 3602POPC   D2A46948  29.753   6.981   6.588
 3602POPC   C3A46949  29.796   6.851   7.040
 3602POPC   C4A46950  29.716   6.873   7.528
 3602POPC   C1B46951  29.874   6.216   6.137
 3602POPC   C2B46952  29.665   6.334   6.533
 3602POPC   C3B46953  29.832   6.327   6.972
 3602POPC   C4B46954  30.207   6.154   7.146
 3603POPC   NC346955  21.797  29.227   5.505
 3603POPC   PO446956  21.192  28.844   5.437
 3603POPC   GL146957  21.142  29.066   5.835
 3603POPC   GL246958  21.515  29.067   5.911
 3603POPC   C1A46959  21.182  29.294   6.222
 3603POPC   D2A46960  21.474  29.093   6.500
 3603POPC   C3A46961  21.243  28.983   6.872
 3603POPC   C4A46962  21.237  29.130   7.286
 3603POPC   C1B46963  21.676  29.453   6.138
 3603POPC   C2B46964  21.737  29.523   6.591
 3603POPC   C3B46965  21.460  29.491   6.968
 3603POPC   C4B46966  21.598  29.497   7.395
 3604POPC   NC346967  38.298  38.906   5.342
 3604POPC   PO446968  38.750  39.378   5.307
 3604POPC   GL146969  38.538  39.310   5.679
 3604POPC   GL246970  38.729  39.053   5.727
 3604POPC   C1A46971  38.290  39.245   6.076
 3604POPC   D2A46972  38.397  39.124   6.511
 3604POPC   C3A46973  38.255  39.192   6.927
 3604POPC   C4A46974  38.414  39.468   7.193
 3604POPC   C1B46975  38.725  38.952   6.150
 3604POPC   C2B46976  38.809  38.822   6.589
 3604POPC   C3B46977  38.610  38.732   6.970
 3604POPC   C4B46978  38.538  38.985   7.322
 3605POPC   NC346979  13.344  11.793   5.622
 3605POPC   PO446980  13.390  11.267   5.204
 3605POPC   GL146981  13.619  11.349   5.624
 3605POPC   GL246982  13.833  11.580   5.734
 3605POPC   C1A46983  13.593  11.305   6.109
 3605POPC   D2A46984  13.738  11.043   6.456
 3605POPC   C3A46985  13.616  11.128   6.894
 3605POPC   C4A46986  13.860  11.191   7.244
 3605POPC   C1B46987  14.025  11.596   6.151
 3605POPC   C2B46988  13.827  11.550   6.560
 3605POPC   C3B46989  14.002  11.593   6.960
 3605POPC   C4B46990  13.878  11.719   7.358
 3606POPC   NC346991   6.400  31.425   5.317
 3606POPC   PO446992   5.704  31.402   5.407
 3606POPC   GL146993   5.887  31.471   5.787
 3606POPC   GL246994   5.569  31.591   5.885
 3606POPC   C1A46995   5.943  31.417   6.220
 3606POPC   D2A46996   5.983  31.623   6.601
 3606POPC   C3A46997   6.082  31.373   6.966
 3606POPC   C4A46998   6.251  31.498   7.350
 3606POPC   C1B46999   5.634  31.843   6.227
 3606POPC   C2B47000   5.589  31.947   6.673
 3606POPC   C3B47001   5.663  31.722   7.042
 3606POPC   C4B47002   5.827  31.763   7.474
 3607POPC   NC347003  41.934   9.263   5.429
 3607POPC   PO447004  41.488   9.844   5.254
 3607POPC   GL147005  41.483   9.755   5.736
 3607POPC   GL247006  41.833   9.655   5.814
 3607POPC   C1A47007  41.303   9.641   6.205
 3607POPC   D2A47008  41.131   9.715   6.655
 3607POPC   C3A47009  41.421   9.541   6.987
 3607POPC   C4A47010  41.510   9.482   7.447
 3607POPC   C1B47011  41.705   9.944   6.168
 3607POPC   C2B47012  41.623   9.878   6.620
 3607POPC   C3B47013  41.706   9.987   7.067
 3607POPC   C4B47014  41.976   9.767   7.372
 3608POPC   NC347015   7.718  31.153   5.508
 3608POPC   PO447016   7.230  31.583   5.407
 3608POPC   GL147017   7.374  31.501   5.820
 3608POPC   GL247018   7.700  31.650   5.793
 3608POPC   C1A47019   7.325  31.357   6.258
 3608POPC   D2A47020   7.512  31.077   6.577
 3608POPC   C3A47021   7.467  31.253   6.976
 3608POPC   C4A47022   7.120  31.459   7.192
 3608POPC   C1B47023   7.620  31.773   6.230
 3608POPC   C2B47024   7.720  31.596   6.648
 3608POPC   C3B47025   7.698  31.720   7.107
 3608POPC   C4B47026   7.828  31.813   7.587
 3609POPC   NC347027  31.447   7.331   5.317
 3609POPC   PO447028  31.241   7.893   5.574
 3609POPC   GL147029  31.508   7.618   5.864
 3609POPC   GL247030  31.378   7.292   5.832
 3609POPC   C1A47031  31.810   7.336   6.118
 3609POPC   D2A47032  31.867   7.090   6.503
 3609POPC   C3A47033  31.605   7.238   6.819
 3609POPC   C4A47034  31.568   7.410   7.218
 3609POPC   C1B47035  31.376   7.067   6.247
 3609POPC   C2B47036  31.147   7.006   6.653
 3609POPC   C3B47037  31.338   6.875   7.076
 3609POPC   C4B47038  31.176   7.104   7.434
 3610POPC   NC347039  13.325  28.486   5.470
 3610POPC   PO447040  13.913  28.671   5.160
 3610POPC   GL147041  13.851  28.415   5.634
 3610POPC   GL247042  13.555  28.520   5.906
 3610POPC   C1A47043  13.911  28.263   6.122
 3610POPC   D2A47044  13.700  28.277   6.549
 3610POPC   C3A47045  13.786  28.348   6.996
 3610POPC   C4A47046  13.822  28.024   7.335
 3610POPC   C1B47047  13.338  28.250   6.172
 3610POPC   C2B47048  13.251  28.040   6.575
 3610POPC   C3B47049  13.474  27.946   6.948
 3610POPC   C4B47050  13.339  27.806   7.366
 3611POPC   NC347051   9.816   3.123   5.476
 3611POPC   PO447052  10.156   3.660   5.401
 3611POPC   GL147053  10.041   3.463   5.792
 3611POPC   GL247054   9.721   3.612   5.853
 3611POPC   C1A47055   9.872   3.255   6.181
 3611POPC   D2A47056   9.936   3.471   6.559
 3611POPC   C3A47057   9.887   3.332   6.966
 3611POPC   C4A47058  10.029   3.521   7.341
 3611POPC   C1B47059   9.519   3.643   6.273
 3611POPC   C2B47060   9.514   3.692   6.737
 3611POPC   C3B47061   9.519   3.626   7.182
 3611POPC   C4B47062   9.385   3.788   7.576
 3612POPC   NC347063  33.700  24.924   5.204
 3612POPC   PO447064  33.778  25.538   5.528
 3612POPC   GL147065  33.608  25.366   5.879
 3612POPC   GL247066  33.850  25.110   6.014
 3612POPC   C1A47067  33.436  25.208   6.262
 3612POPC   D2A47068  33.718  25.009   6.575
 3612POPC   C3A47069  33.662  25.099   6.997
 3612POPC   C4A47070  33.868  25.332   7.330
 3612POPC   C1B47071  34.205  24.965   6.220
 3612POPC   C2B47072  34.244  24.732   6.577
 3612POPC   C3B47073  34.123  24.896   6.962
 3612POPC   C4B47074  34.137  24.932   7.410
 3613POPC   NC347075  17.311  11.548   5.458
 3613POPC   PO447076  16.613  11.306   5.463
 3613POPC   GL147077  16.761  11.407   5.842
 3613POPC   GL247078  17.083  11.304   5.845
 3613POPC   C1A47079  16.778  11.324   6.260
 3613POPC   D2A47080  16.960  11.467   6.601
 3613POPC   C3A47081  16.644  11.455   6.885
 3613POPC   C4A47082  16.663  11.340   7.283
 3613POPC   C1B47083  17.186  11.058   6.202
 3613POPC   C2B47084  17.192  10.986   6.632
 3613POPC   C3B47085  17.122  11.216   7.006
 3613POPC   C4B47086  17.059  11.049   7.395
 3614POPC   NC347087   1.412  27.072   5.394
 3614POPC   PO447088   0.942  26.535   5.482
 3614POPC   GL147089   1.276  26.691   5.778
 3614POPC   GL247090   1.312  27.079   5.875
 3614POPC   C1A47091   1.358  26.715   6.232
 3614POPC   D2A47092   1.160  27.001   6.534
 3614POPC   C3A47093   0.998  26.815   6.878
 3614POPC   C4A47094   0.929  27.032   7.224
 3614POPC   C1B47095   1.513  27.205   6.237
 3614POPC   C2B47096   1.654  27.087   6.637
 3614POPC   C3B47097   1.432  27.054   7.016
 3614POPC   C4B47098   1.361  26.664   7.247
 3615POPC   NC347099   7.730  18.758   5.397
 3615POPC   PO447100   7.350  18.143   5.431
 3615POPC   GL147101   7.449  18.278   5.804
 3615POPC   GL247102   7.340  18.588   5.740
 3615POPC   C1A47103   7.686  18.188   6.166
 3615POPC   D2A47104   7.823  18.404   6.555
 3615POPC   C3A47105   7.675  18.237   6.937
 3615POPC   C4A47106   7.346  18.339   7.221
 3615POPC   C1B47107   7.618  18.705   6.085
 3615POPC   C2B47108   7.499  18.844   6.486
 3615POPC   C3B47109   7.563  18.735   6.883
 3615POPC   C4B47110   7.414  18.835   7.262
 3616POPC   NC347111  17.285  12.275   5.368
 3616POPC   PO447112  17.553  11.794   5.149
 3616POPC   GL147113  17.419  11.955   5.709
 3616POPC   GL247114  17.088  11.826   5.843
 3616POPC   C1A47115  17.583  12.010   6.135
 3616POPC   D2A47116  17.521  12.341   6.439
 3616POPC   C3A47117  17.548  12.207   6.839
 3616POPC   C4A47118  17.494  12.258   7.229
 3616POPC   C1B47119  17.110  12.173   6.145
 3616POPC   C2B47120  17.037  12.322   6.587
 3616POPC   C3B47121  17.028  12.207   7.015
 3616POPC   C4B47122  17.097  11.990   7.408
 3617POPC   NC347123  38.755  16.052   5.080
 3617POPC   PO447124  38.179  15.772   5.310
 3617POPC   GL147125  38.268  16.012   5.674
 3617POPC   GL247126  38.618  16.079   5.613
 3617POPC   C1A47127  38.189  15.974   6.128
 3617POPC   D2A47128  38.288  15.744   6.502
 3617POPC   C3A47129  38.137  15.722   6.932
 3617POPC   C4A47130  37.921  16.041   7.182
 3617POPC   C1B47131  38.604  16.269   6.040
 3617POPC   C2B47132  38.446  16.267   6.477
 3617POPC   C3B47133  38.356  16.182   6.914
 3617POPC   C4B47134  38.591  15.899   7.191
 3618POPC   NC347135  39.310   5.205   5.320
 3618POPC   PO447136  38.699   5.028   5.409
 3618POPC   GL147137  38.992   5.210   5.737
 3618POPC   GL247138  39.362   5.030   5.796
 3618POPC   C1A47139  38.972   5.199   6.185
 3618POPC   D2A47140  38.935   4.794   6.443
 3618POPC   C3A47141  39.128   4.829   6.843
 3618POPC   C4A47142  39.097   5.066   7.219
 3618POPC   C1B47143  39.473   5.085   6.231
 3618POPC   C2B47144  39.264   5.264   6.603
 3618POPC   C3B47145  39.414   5.419   6.978
 3618POPC   C4B47146  39.575   5.191   7.330
 3619POPC   NC347147  11.132  10.878   5.119
 3619POPC   PO447148  11.090  10.312   5.494
 3619POPC   GL147149  11.277  10.612   5.799
 3619POPC   GL247150  11.017  10.797   5.997
 3619POPC   C1A47151  11.511  10.517   6.190
 3619POPC   D2A47152  11.745  10.439   6.583
 3619POPC   C3A47153  11.482  10.572   6.921
 3619POPC   C4A47154  11.504  10.430   7.341
 3619POPC   C1B47155  10.993  10.412   6.249
 3619POPC   C2B47156  11.237  10.267   6.588
 3619POPC   C3B47157  11.104  10.224   7.024
 3619POPC   C4B47158  11.052  10.638   7.213
 3620POPC   NC347159  38.989   6.138   5.310
 3620POPC   PO447160  39.479   5.646   5.309
 3620POPC   GL147161  39.383   5.558   5.756
 3620POPC   GL247162  39.064   5.738   5.778
 3620POPC   C1A47163  39.404   5.601   6.232
 3620POPC   D2A47164  39.354   5.957   6.539
 3620POPC   C3A47165  39.264   5.945   6.998
 3620POPC   C4A47166  39.478   6.288   7.212
 3620POPC   C1B47167  38.961   5.853   6.191
 3620POPC   C2B47168  38.935   5.674   6.605
 3620POPC   C3B47169  38.918   5.555   7.038
 3620POPC   C4B47170  38.833   5.849   7.350
 3621POPC   NC347171  34.682   9.963   5.546
 3621POPC   PO447172  34.175   9.632   5.261
 3621POPC   GL147173  34.220   9.686   5.736
 3621POPC   GL247174  34.210  10.023   5.874
 3621POPC   C1A47175  34.357   9.630   6.183
 3621POPC   D2A47176  34.542   9.555   6.544
 3621POPC   C3A47177  34.344   9.695   6.891
 3621POPC   C4A47178  34.374   9.684   7.311
 3621POPC   C1B47179  34.520  10.132   6.184
 3621POPC   C2B47180  34.707  10.046   6.604
 3621POPC   C3B47181  34.986  10.029   6.959
 3621POPC   C4B47182  34.671  10.081   7.248
 3622POPC   NC347183   1.548   1.043   5.356
 3622POPC   PO447184   1.030   1.252   5.367
 3622POPC   GL147185   0.996   1.093   5.834
 3622POPC   GL247186   1.222   0.811   5.794
 3622POPC   C1A47187   0.958   1.259   6.294
 3622POPC   D2A47188   0.953   1.156   6.762
 3622POPC   C3A47189   1.181   1.469   7.029
 3622POPC   C4A47190   1.571   1.549   7.283
 3622POPC   C1B47191   1.232   0.837   6.241
 3622POPC   C2B47192   1.428   0.985   6.640
 3622POPC   C3B47193   1.304   0.976   7.104
 3622POPC   C4B47194   0.939   0.895   7.410
 3623POPC   NC347195   9.785  19.082   5.352
 3623POPC   PO447196   9.311  19.526   5.701
 3623POPC   GL147197   9.631  19.248   5.804
 3623POPC   GL247198   9.578  18.896   5.771
 3623POPC   C1A47199   9.902  19.157   6.134
 3623POPC   D2A47200   9.893  19.390   6.521
 3623POPC   C3A47201   9.764  19.300   6.940
 3623POPC   C4A47202   9.916  19.130   7.304
 3623POPC   C1B47203   9.615  18.737   6.170
 3623POPC   C2B47204   9.685  18.896   6.601
 3623POPC   C3B47205   9.577  18.837   7.040
 3623POPC   C4B47206   9.714  18.666   7.403
 3624POPC   NC347207   7.326  12.456   5.416
 3624POPC   PO447208   7.599  13.079   5.491
 3624POPC   GL147209   7.363  12.892   5.851
 3624POPC   GL247210   7.300  12.515   5.936
 3624POPC   C1A47211   7.545  12.895   6.264
 3624POPC   D2A47212   7.485  13.106   6.647
 3624POPC   C3A47213   7.557  12.905   7.019
 3624POPC   C4A47214   7.922  13.016   7.242
 3624POPC   C1B47215   7.320  12.450   6.393
 3624POPC   C2B47216   7.503  12.451   6.801
 3624POPC   C3B47217   7.336  12.418   7.203
 3624POPC   C4B47218   7.051  12.660   7.464
 3625POPC   NC347219   5.391  27.564   5.500
 3625POPC   PO447220   5.989  27.908   5.493
 3625POPC   GL147221   5.809  27.663   5.822
 3625POPC   GL247222   6.050  27.403   5.945
 3625POPC   C1A47223   5.698  27.659   6.260
 3625POPC   D2A47224   5.595  27.473   6.654
 3625POPC   C3A47225   5.709  27.653   7.071
 3625POPC   C4A47226   5.658  27.535   7.550
 3625POPC   C1B47227   6.178  27.773   6.174
 3625POPC   C2B47228   6.069  27.816   6.613
 3625POPC   C3B47229   6.257  27.746   7.018
 3625POPC   C4B47230   6.118  27.895   7.417
 3626POPC   NC347231   7.178  27.200   5.408
 3626POPC   PO447232   7.231  26.560   5.314
 3626POPC   GL147233   7.377  26.755   5.696
 3626POPC   GL247234   7.020  26.845   5.768
 3626POPC   C1A47235   7.368  26.899   6.154
 3626POPC   D2A47236   7.158  26.836   6.558
 3626POPC   C3A47237   7.415  26.851   6.946
 3626POPC   C4A47238   7.400  26.612   7.304
 3626POPC   C1B47239   6.920  27.118   6.147
 3626POPC   C2B47240   6.963  27.305   6.574
 3626POPC   C3B47241   6.951  27.091   6.996
 3626POPC   C4B47242   7.184  27.068   7.389
 3627POPC   NC347243   1.493  36.176   5.492
 3627POPC   PO447244   0.849  35.965   5.537
 3627POPC   GL147245   1.094  36.191   5.887
 3627POPC   GL247246   1.429  36.111   5.966
 3627POPC   C1A47247   1.161  36.198   6.374
 3627POPC   D2A47248   1.163  35.870   6.705
 3627POPC   C3A47249   1.137  36.020   7.135
 3627POPC   C4A47250   1.114  36.417   7.395
 3627POPC   C1B47251   1.556  35.870   6.278
 3627POPC   C2B47252   1.619  36.085   6.640
 3627POPC   C3B47253   1.629  35.943   7.054
 3627POPC   C4B47254   1.534  35.989   7.492
 3628POPC   NC347255  10.096  41.850   5.655
 3628POPC   PO447256  10.311  41.392   5.269
 3628POPC   GL147257  10.437  41.477   5.745
 3628POPC   GL247258  10.554  41.828   5.895
 3628POPC   C1A47259  10.367  41.436   6.205
 3628POPC   D2A47260  10.471  41.399   6.651
 3628POPC   C3A47261  10.574  41.428   7.093
 3628POPC   C4A47262  11.000  41.568   7.171
 3628POPC   C1B47263  10.280  41.955   6.278
 3628POPC   C2B47264  10.101  41.765   6.668
 3628POPC   C3B47265  10.156  41.763   7.126
 3628POPC   C4B47266  10.456  41.912   7.447
 3629POPC   NC347267   3.423  37.730   5.377
 3629POPC   PO447268   3.944  37.283   5.456
 3629POPC   GL147269   3.789  37.670   5.749
 3629POPC   GL247270   3.406  37.730   5.888
 3629POPC   C1A47271   3.793  37.860   6.185
 3629POPC   D2A47272   3.486  37.830   6.520
 3629POPC   C3A47273   3.646  37.757   6.948
 3629POPC   C4A47274   3.567  37.879   7.387
 3629POPC   C1B47275   3.153  37.504   6.232
 3629POPC   C2B47276   3.115  37.524   6.688
 3629POPC   C3B47277   3.164  37.678   7.098
 3629POPC   C4B47278   3.267  37.476   7.474
 3630POPC   NC347279  23.490  11.444   5.398
 3630POPC   PO447280  24.019  11.328   5.676
 3630POPC   GL147281  23.893  11.519   6.017
 3630POPC   GL247282  23.521  11.574   5.998
 3630POPC   C1A47283  23.830  11.239   6.350
 3630POPC   D2A47284  23.953  11.008   6.697
 3630POPC   C3A47285  23.648  11.036   7.011
 3630POPC   C4A47286  23.600  11.124   7.426
 3630POPC   C1B47287  23.676  11.737   6.418
 3630POPC   C2B47288  23.991  11.574   6.732
 3630POPC   C3B47289  23.816  11.521   7.136
 3630POPC   C4B47290  23.344  11.501   7.147
 3631POPC   NC347291   6.313  28.239   5.344
 3631POPC   PO447292   6.889  28.592   5.435
 3631POPC   GL147293   6.606  28.507   5.799
 3631POPC   GL247294   6.390  28.217   5.839
 3631POPC   C1A47295   6.756  28.436   6.235
 3631POPC   D2A47296   6.688  28.606   6.661
 3631POPC   C3A47297   6.907  28.450   7.036
 3631POPC   C4A47298   6.856  28.555   7.467
 3631POPC   C1B47299   6.279  28.257   6.266
 3631POPC   C2B47300   6.488  28.124   6.596
 3631POPC   C3B47301   6.442  28.238   6.995
 3631POPC   C4B47302   6.616  28.055   7.341
 3632POPC   NC347303   7.612  26.299   5.379
 3632POPC   PO447304   7.035  26.051   5.576
 3632POPC   GL147305   7.162  26.324   5.877
 3632POPC   GL247306   7.500  26.190   5.860
 3632POPC   C1A47307   7.202  26.208   6.318
 3632POPC   D2A47308   7.331  25.813   6.530
 3632POPC   C3A47309   7.313  25.649   6.961
 3632POPC   C4A47310   7.189  25.888   7.330
 3632POPC   C1B47311   7.642  26.484   6.134
 3632POPC   C2B47312   7.544  26.500   6.574
 3632POPC   C3B47313   7.361  26.227   6.886
 3632POPC   C4B47314   7.612  26.156   7.236
 3633POPC   NC347315  42.584  34.453   5.144
 3633POPC   PO447316  42.339  35.018   5.462
 3633POPC   GL147317  42.469  34.794   5.819
 3633POPC   GL247318  42.556  34.426   5.711
 3633POPC   C1A47319  42.293  34.662   6.217
 3633POPC   D2A47320  42.344  34.425   6.559
 3633POPC   C3A47321  42.139  34.498   6.943
 3633POPC   C4A47322  42.249  34.297   7.302
 3633POPC   C1B47323  42.778  34.505   6.119
 3633POPC   C2B47324  42.732  34.764   6.507
 3633POPC   C3B47325  42.619  34.656   6.929
 3633POPC   C4B47326  42.369  34.839   7.262
 3634POPC   NC347327  14.161  15.315   5.465
 3634POPC   PO447328  14.544  14.791   5.467
 3634POPC   GL147329  14.437  14.953   5.869
 3634POPC   GL247330  14.598  15.280   5.931
 3634POPC   C1A47331  14.250  14.988   6.293
 3634POPC   D2A47332  14.366  15.061   6.735
 3634POPC   C3A47333  14.231  15.419   6.967
 3634POPC   C4A47334  13.987  15.499   7.366
 3634POPC   C1B47335  14.782  14.998   6.288
 3634POPC   C2B47336  14.884  15.000   6.760
 3634POPC   C3B47337  14.620  14.879   7.156
 3634POPC   C4B47338  14.685  14.906   7.619
 3635POPC   NC347339  26.332   1.696   5.427
 3635POPC   PO447340  25.901   2.129   5.226
 3635POPC   GL147341  25.913   1.967   5.691
 3635POPC   GL247342  26.261   1.987   5.842
 3635POPC   C1A47343  25.875   2.114   6.169
 3635POPC   D2A47344  25.803   2.338   6.583
 3635POPC   C3A47345  25.734   2.066   6.953
 3635POPC   C4A47346  25.688   2.208   7.379
 3635POPC   C1B47347  26.212   1.724   6.209
 3635POPC   C2B47348  26.200   2.023   6.551
 3635POPC   C3B47349  26.258   2.072   6.965
 3635POPC   C4B47350  26.169   1.811   7.315
 3636POPC   NC347351  36.290  19.016   5.256
 3636POPC   PO447352  35.717  19.464   5.340
 3636POPC   GL147353  35.812  19.292   5.774
 3636POPC   GL247354  35.923  18.954   5.851
 3636POPC   C1A47355  35.994  19.314   6.208
 3636POPC   D2A47356  36.248  19.441   6.552
 3636POPC   C3A47357  36.162  19.207   6.909
 3636POPC   C4A47358  36.407  18.982   7.183
 3636POPC   C1B47359  35.758  18.844   6.253
 3636POPC   C2B47360  35.941  18.788   6.633
 3636POPC   C3B47361  35.762  18.877   6.994
 3636POPC   C4B47362  35.931  18.989   7.327
 3637POPC   NC347363  31.083  44.086   5.405
 3637POPC   PO447364  31.704  44.169   5.611
 3637POPC   GL147365  31.686  43.987   5.941
 3637POPC   GL247366  31.419  43.777   5.826
 3637POPC   C1A47367  31.760  43.695   6.238
 3637POPC   D2A47368  31.528  43.821   6.573
 3637POPC   C3A47369  31.740  43.805   6.936
 3637POPC   C4A47370  31.530  43.882   7.286
 3637POPC   C1B47371  31.185  44.038   6.092
 3637POPC   C2B47372  31.105  44.198   6.502
 3637POPC   C3B47373  31.267  44.147   6.909
 3637POPC   C4B47374  31.045  44.022   7.261
 3638POPC   NC347375  42.354  23.908   5.454
 3638POPC   PO447376  42.039  23.327   5.591
 3638POPC   GL147377  42.269  23.555   5.900
 3638POPC   GL247378  42.619  23.656   5.863
 3638POPC   C1A47379  42.302  23.767   6.286
 3638POPC   D2A47380  42.180  23.866   6.695
 3638POPC   C3A47381  42.275  23.630   7.046
 3638POPC   C4A47382  42.111  23.971   7.270
 3638POPC   C1B47383  42.671  23.388   6.228
 3638POPC   C2B47384  42.620  23.540   6.649
 3638POPC   C3B47385  42.776  23.713   7.019
 3638POPC   C4B47386  42.712  23.470   7.403
 3639POPC   NC347387   8.547  23.421   5.420
 3639POPC   PO447388   8.081  23.987   5.266
 3639POPC   GL147389   7.997  23.974   5.732
 3639POPC   GL247390   7.969  23.595   5.810
 3639POPC   C1A47391   8.175  23.904   6.163
 3639POPC   D2A47392   8.429  23.615   6.429
 3639POPC   C3A47393   8.332  23.663   6.856
 3639POPC   C4A47394   8.015  23.917   7.082
 3639POPC   C1B47395   8.030  23.312   6.198
 3639POPC   C2B47396   7.802  23.269   6.600
 3639POPC   C3B47397   7.965  23.352   6.999
 3639POPC   C4B47398   7.891  23.521   7.381
 3640POPC   NC347399  27.684   0.054   5.568
 3640POPC   PO447400  27.472   0.719   5.418
 3640POPC   GL147401  27.561   0.505   5.790
 3640POPC   GL247402  27.922   0.556   5.751
 3640POPC   C1A47403  27.401   0.484   6.218
 3640POPC   D2A47404  27.360   0.682   6.626
 3640POPC   C3A47405  27.170   0.463   6.953
 3640POPC   C4A47406  27.377   0.304   7.250
 3640POPC   C1B47407  27.932   0.354   6.152
 3640POPC   C2B47408  27.923   0.191   6.564
 3640POPC   C3B47409  27.774   0.422   6.922
 3640POPC   C4B47410  28.035   0.549   7.252
 3641POPC   NC347411  12.729  28.215   5.469
 3641POPC   PO447412  12.994  28.813   5.527
 3641POPC   GL147413  12.994  28.441   5.840
 3641POPC   GL247414  12.698  28.490   5.898
 3641POPC   C1A47415  12.844  28.264   6.315
 3641POPC   D2A47416  12.525  28.195   6.664
 3641POPC   C3A47417  12.619  28.250   7.117
 3641POPC   C4A47418  12.920  28.149   7.468
 3641POPC   C1B47419  13.076  28.705   6.232
 3641POPC   C2B47420  13.271  28.546   6.594
 3641POPC   C3B47421  13.107  28.374   6.944
 3641POPC   C4B47422  12.979  28.619   7.270
 3642POPC   NC347423   3.887  14.684   5.589
 3642POPC   PO447424   3.211  14.629   5.522
 3642POPC   GL147425   3.444  14.611   5.866
 3642POPC   GL247426   3.663  14.313   5.898
 3642POPC   C1A47427   3.347  14.581   6.270
 3642POPC   D2A47428   3.565  14.436   6.594
 3642POPC   C3A47429   3.286  14.212   6.830
 3642POPC   C4A47430   3.233  14.441   7.177
 3642POPC   C1B47431   3.703  14.031   6.269
 3642POPC   C2B47432   3.742  13.990   6.728
 3642POPC   C3B47433   3.727  14.252   7.093
 3642POPC   C4B47434   4.001  14.174   7.415
 3643POPC   NC347435   2.052   8.910   5.467
 3643POPC   PO447436   1.606   9.447   5.511
 3643POPC   GL147437   1.877   9.228   5.852
 3643POPC   GL247438   1.899   8.846   5.937
 3643POPC   C1A47439   2.047   9.172   6.304
 3643POPC   D2A47440   1.858   8.991   6.679
 3643POPC   C3A47441   1.787   9.227   7.083
 3643POPC   C4A47442   1.521   9.410   7.431
 3643POPC   C1B47443   1.964   8.613   6.313
 3643POPC   C2B47444   1.925   8.492   6.746
 3643POPC   C3B47445   2.015   8.757   7.126
 3643POPC   C4B47446   2.290   8.983   7.469
 3644POPC   NC347447   7.631   8.332   5.301
 3644POPC   PO447448   7.032   8.123   5.563
 3644POPC   GL147449   7.388   8.195   5.821
 3644POPC   GL247450   7.720   8.030   5.774
 3644POPC   C1A47451   7.443   8.169   6.257
 3644POPC   D2A47452   7.191   8.070   6.624
 3644POPC   C3A47453   7.354   7.844   6.958
 3644POPC   C4A47454   7.134   8.122   7.259
 3644POPC   C1B47455   7.924   7.988   6.189
 3644POPC   C2B47456   7.833   8.079   6.621
 3644POPC   C3B47457   7.645   8.244   6.982
 3644POPC   C4B47458   7.535   8.555   7.214
 3645POPC   NC347459  24.075  28.318   5.337
 3645POPC   PO447460  23.635  28.799   5.492
 3645POPC   GL147461  23.817  28.516   5.800
 3645POPC   GL247462  24.148  28.383   5.831
 3645POPC   C1A47463  23.744  28.285   6.193
 3645POPC   D2A47464  23.415  28.289   6.526
 3645POPC   C3A47465  23.555  28.405   6.956
 3645POPC   C4A47466  23.445  28.299   7.385
 3645POPC   C1B47467  24.138  28.630   6.205
 3645POPC   C2B47468  23.945  28.556   6.606
 3645POPC   C3B47469  24.075  28.323   6.975
 3645POPC   C4B47470  23.927  28.426   7.361
 3646POPC   NC347471  31.291   2.559   5.225
 3646POPC   PO447472  31.153   3.198   5.344
 3646POPC   GL147473  31.403   2.902   5.751
 3646POPC   GL247474  31.305   2.566   5.763
 3646POPC   C1A47475  31.529   2.988   6.214
 3646POPC   D2A47476  31.706   2.908   6.658
 3646POPC   C3A47477  31.501   3.088   7.021
 3646POPC   C4A47478  31.396   2.906   7.426
 3646POPC   C1B47479  31.497   2.478   6.173
 3646POPC   C2B47480  31.388   2.409   6.620
 3646POPC   C3B47481  31.493   2.559   7.031
 3646POPC   C4B47482  31.713   2.511   7.443
 3647POPC   NC347483  31.339  14.609   5.071
 3647POPC   PO447484  31.546  14.103   5.431
 3647POPC   GL147485  31.393  14.227   5.811
 3647POPC   GL247486  31.575  14.519   5.887
 3647POPC   C1A47487  31.329  14.231   6.254
 3647POPC   D2A47488  31.575  14.371   6.602
 3647POPC   C3A47489  31.475  14.157   6.983
 3647POPC   C4A47490  31.447  14.222   7.420
 3647POPC   C1B47491  31.467  14.749   6.240
 3647POPC   C2B47492  31.362  14.854   6.648
 3647POPC   C3B47493  31.492  14.679   7.026
 3647POPC   C4B47494  31.716  14.654   7.428
 3648POPC   NC347495  33.831   1.446   5.312
 3648POPC   PO447496  33.662   0.940   5.103
 3648POPC   GL147497  33.659   1.074   5.602
 3648POPC   GL247498  33.980   1.201   5.780
 3648POPC   C1A47499  33.551   1.089   6.074
 3648POPC   D2A47500  33.678   1.094   6.552
 3648POPC   C3A47501  33.460   1.128   6.929
 3648POPC   C4A47502  33.649   1.480   7.191
 3648POPC   C1B47503  34.122   1.118   6.231
 3648POPC   C2B47504  34.187   1.063   6.702
 3648POPC   C3B47505  33.951   1.065   7.108
 3648POPC   C4B47506  33.651   1.045   7.432
 3649POPC   NC347507  17.809  16.951   5.074
 3649POPC   PO447508  17.490  16.413   5.215
 3649POPC   GL147509  17.516  16.657   5.621
 3649POPC   GL247510  17.608  17.018   5.725
 3649POPC   C1A47511  17.482  16.648   6.082
 3649POPC   D2A47512  17.448  16.511   6.529
 3649POPC   C3A47513  17.672  16.637   6.882
 3649POPC   C4A47514  17.557  16.643   7.324
 3649POPC   C1B47515  17.594  17.180   6.180
 3649POPC   C2B47516  17.672  17.134   6.646
 3649POPC   C3B47517  17.687  17.092   7.097
 3649POPC   C4B47518  17.873  17.004   7.502
 3650POPC   NC347519  38.923   1.567   5.331
 3650POPC   PO447520  38.986   0.861   5.342
 3650POPC   GL147521  39.094   1.191   5.694
 3650POPC   GL247522  39.399   1.423   5.710
 3650POPC   C1A47523  39.237   1.215   6.153
 3650POPC   D2A47524  39.346   1.026   6.561
 3650POPC   C3A47525  39.238   1.231   6.974
 3650POPC   C4A47526  39.217   1.070   7.415
 3650POPC   C1B47527  39.508   1.647   6.135
 3650POPC   C2B47528  39.471   1.518   6.586
 3650POPC   C3B47529  39.609   1.603   7.031
 3650POPC   C4B47530  39.326   1.549   7.390
 3651POPC   NC347531  35.024  25.570   5.523
 3651POPC   PO447532  35.553  25.178   5.530
 3651POPC   GL147533  35.531  25.290   5.894
 3651POPC   GL247534  35.523  25.669   5.840
 3651POPC   C1A47535  35.458  25.045   6.288
 3651POPC   D2A47536  35.228  24.955   6.705
 3651POPC   C3A47537  35.418  25.059   7.108
 3651POPC   C4A47538  35.548  24.886   7.535
 3651POPC   C1B47539  35.219  25.551   6.203
 3651POPC   C2B47540  35.006  25.413   6.586
 3651POPC   C3B47541  35.162  25.489   7.002
 3651POPC   C4B47542  35.549  25.722   7.095
 3652POPC   NC347543  18.306  35.853   5.334
 3652POPC   PO447544  18.034  36.369   5.598
 3652POPC   GL147545  18.431  36.234   5.804
 3652POPC   GL247546  18.225  35.977   5.890
 3652POPC   C1A47547  18.579  36.006   6.243
 3652POPC   D2A47548  18.538  35.868   6.704
 3652POPC   C3A47549  18.530  36.190   7.063
 3652POPC   C4A47550  18.205  36.542   7.213
 3652POPC   C1B47551  18.146  36.307   6.232
 3652POPC   C2B47552  18.298  36.352   6.631
 3652POPC   C3B47553  18.024  36.168   6.913
 3652POPC   C4B47554  17.771  36.233   7.263
 3653POPC   NC347555  25.811  12.263   5.491
 3653POPC   PO447556  26.397  12.030   5.384
 3653POPC   GL147557  26.181  12.060   5.790
 3653POPC   GL247558  25.857  11.886   5.857
 3653POPC   C1A47559  26.010  12.194   6.219
 3653POPC   D2A47560  25.956  11.903   6.558
 3653POPC   C3A47561  25.852  12.067   6.926
 3653POPC   C4A47562  26.007  12.297   7.231
 3653POPC   C1B47563  25.590  11.809   6.214
 3653POPC   C2B47564  25.525  11.650   6.649
 3653POPC   C3B47565  25.762  11.550   7.023
 3653POPC   C4B47566  25.732  11.634   7.478
 3654POPC   NC347567  36.108  42.167   5.460
 3654POPC   PO447568  36.626  42.556   5.340
 3654POPC   GL147569  36.330  42.542   5.776
 3654POPC   GL247570  35.927  42.526   5.829
 3654POPC   C1A47571  36.230  42.493   6.249
 3654POPC   D2A47572  36.280  42.643   6.654
 3654POPC   C3A47573  36.136  42.375   6.992
 3654POPC   C4A47574  36.256  42.045   7.213
 3654POPC   C1B47575  35.932  42.117   6.099
 3654POPC   C2B47576  35.944  42.009   6.554
 3654POPC   C3B47577  35.768  41.967   6.989
 3654POPC   C4B47578  35.800  42.152   7.403
 3655POPC   NC347579  26.335  31.673   5.730
 3655POPC   PO447580  26.070  32.221   5.414
 3655POPC   GL147581  26.159  32.311   5.809
 3655POPC   GL247582  26.395  32.542   5.780
 3655POPC   C1A47583  26.000  32.450   6.198
 3655POPC   D2A47584  25.881  32.226   6.566
 3655POPC   C3A47585  25.866  32.417   6.948
 3655POPC   C4A47586  25.763  32.296   7.360
 3655POPC   C1B47587  26.504  32.675   6.180
 3655POPC   C2B47588  26.344  32.591   6.581
 3655POPC   C3B47589  26.414  32.453   6.983
 3655POPC   C4B47590  26.236  32.144   7.231
 3656POPC   NC347591  15.055  37.170   5.260
 3656POPC   PO447592  15.340  36.578   5.112
 3656POPC   GL147593  15.262  36.697   5.616
 3656POPC   GL247594  15.223  37.065   5.747
 3656POPC   C1A47595  15.356  36.648   6.118
 3656POPC   D2A47596  15.148  36.511   6.549
 3656POPC   C3A47597  15.107  36.704   6.983
 3656POPC   C4A47598  15.241  36.850   7.409
 3656POPC   C1B47599  15.055  37.066   6.198
 3656POPC   C2B47600  15.092  37.102   6.675
 3656POPC   C3B47601  14.904  37.149   7.158
 3656POPC   C4B47602  14.980  37.225   7.653
 3657POPC   NC347603  18.104  18.898   5.447
 3657POPC   PO447604  18.541  19.395   5.495
 3657POPC   GL147605  18.238  19.292   5.853
 3657POPC   GL247606  18.099  18.950   5.958
 3657POPC   C1A47607  18.302  19.284   6.304
 3657POPC   D2A47608  18.544  19.034   6.617
 3657POPC   C3A47609  18.341  19.061   6.987
 3657POPC   C4A47610  18.466  19.218   7.336
 3657POPC   C1B47611  18.405  18.634   6.171
 3657POPC   C2B47612  18.536  18.436   6.588
 3657POPC   C3B47613  18.496  18.538   7.050
 3657POPC   C4B47614  18.165  18.712   7.333
 3658POPC   NC347615  39.020  43.468   5.368
 3658POPC   PO447616  39.442  43.038   5.592
 3658POPC   GL147617  39.193  43.225   5.879
 3658POPC   GL247618  39.280  43.575   5.875
 3658POPC   C1A47619  39.226  43.015   6.272
 3658POPC   D2A47620  39.383  42.722   6.571
 3658POPC   C3A47621  39.258  42.815   6.985
 3658POPC   C4A47622  39.441  42.877   7.382
 3658POPC   C1B47623  39.491  43.450   6.279
 3658POPC   C2B47624  39.453  43.245   6.689
 3658POPC   C3B47625  39.316  43.323   7.070
 3658POPC   C4B47626  39.087  43.655   7.185
 3659POPC   NC347627   7.660  30.359   5.461
 3659POPC   PO447628   7.302  30.895   5.649
 3659POPC   GL147629   7.495  30.594   5.925
 3659POPC   GL247630   7.251  30.361   5.841
 3659POPC   C1A47631   7.748  30.553   6.335
 3659POPC   D2A47632   7.836  30.708   6.790
 3659POPC   C3A47633   7.502  30.643   7.085
 3659POPC   C4A47634   7.222  30.941   7.304
 3659POPC   C1B47635   7.085  30.496   6.225
 3659POPC   C2B47636   7.281  30.571   6.612
 3659POPC   C3B47637   7.026  30.517   6.960
 3659POPC   C4B47638   7.111  30.448   7.390
 3660POPC   NC347639  29.348  30.096   5.459
 3660POPC   PO447640  29.075  29.509   5.467
 3660POPC   GL147641  29.203  29.661   5.892
 3660POPC   GL247642  29.374  29.974   5.943
 3660POPC   C1A47643  29.123  29.809   6.335
 3660POPC   D2A47644  29.367  29.948   6.667
 3660POPC   C3A47645  29.091  29.817   7.011
 3660POPC   C4A47646  29.115  29.953   7.435
 3660POPC   C1B47647  29.286  30.294   6.258
 3660POPC   C2B47648  29.119  30.417   6.636
 3660POPC   C3B47649  29.275  30.297   7.034
 3660POPC   C4B47650  29.432  30.351   7.441
 3661POPC   NC347651  18.876  10.090   5.405
 3661POPC   PO447652  19.356   9.641   5.328
 3661POPC   GL147653  19.193   9.652   5.728
 3661POPC   GL247654  19.125  10.009   5.842
 3661POPC   C1A47655  19.064   9.551   6.134
 3661POPC   D2A47656  19.067   9.787   6.504
 3661POPC   C3A47657  18.915   9.638   6.867
 3661POPC   C4A47658  19.078   9.629   7.269
 3661POPC   C1B47659  18.978  10.238   6.223
 3661POPC   C2B47660  19.000  10.370   6.672
 3661POPC   C3B47661  18.924  10.113   7.050
 3661POPC   C4B47662  18.676   9.937   7.381
 3662POPC   NC347663   9.412   5.195   5.549
 3662POPC   PO447664   8.711   5.273   5.538
 3662POPC   GL147665   8.958   4.995   5.836
 3662POPC   GL247666   9.282   4.789   5.833
 3662POPC   C1A47667   9.150   5.126   6.230
 3662POPC   D2A47668   9.047   5.329   6.602
 3662POPC   C3A47669   9.079   5.159   7.021
 3662POPC   C4A47670   8.994   5.069   7.452
 3662POPC   C1B47671   9.227   4.617   6.259
 3662POPC   C2B47672   9.292   4.802   6.687
 3662POPC   C3B47673   9.177   4.669   7.132
 3662POPC   C4B47674   8.867   4.591   7.502
 3663POPC   NC347675   5.283  39.200   5.285
 3663POPC   PO447676   5.944  39.038   5.305
 3663POPC   GL147677   5.893  39.213   5.698
 3663POPC   GL247678   5.597  39.396   5.702
 3663POPC   C1A47679   5.983  39.052   6.104
 3663POPC   D2A47680   5.907  39.220   6.513
 3663POPC   C3A47681   5.842  38.973   6.894
 3663POPC   C4A47682   5.904  39.238   7.226
 3663POPC   C1B47683   5.578  39.384   6.119
 3663POPC   C2B47684   5.537  39.594   6.493
 3663POPC   C3B47685   5.583  39.470   6.908
 3663POPC   C4B47686   5.459  39.422   7.361
 3664POPC   NC347687  17.238  21.130   5.542
 3664POPC   PO447688  17.403  21.758   5.322
 3664POPC   GL147689  17.547  21.571   5.739
 3664POPC   GL247690  17.759  21.290   5.637
 3664POPC   C1A47691  17.478  21.578   6.221
 3664POPC   D2A47692  17.475  21.739   6.685
 3664POPC   C3A47693  17.404  21.470   7.066
 3664POPC   C4A47694  17.353  21.512   7.526
 3664POPC   C1B47695  17.758  21.163   6.068
 3664POPC   C2B47696  17.699  21.222   6.523
 3664POPC   C3B47697  17.844  21.239   6.925
 3664POPC   C4B47698  17.812  21.355   7.357
 3665POPC   NC347699  35.491  28.809   5.494
 3665POPC   PO447700  35.160  29.411   5.426
 3665POPC   GL147701  35.189  29.146   5.774
 3665POPC   GL247702  35.528  29.222   5.817
 3665POPC   C1A47703  35.078  29.004   6.190
 3665POPC   D2A47704  35.211  28.939   6.618
 3665POPC   C3A47705  34.988  29.037   7.014
 3665POPC   C4A47706  35.237  29.148   7.382
 3665POPC   C1B47707  35.619  29.303   6.239
 3665POPC   C2B47708  35.604  29.281   6.653
 3665POPC   C3B47709  35.652  29.233   7.079
 3665POPC   C4B47710  35.659  29.436   7.484
 3666POPC   NC347711  38.369  42.744   5.610
 3666POPC   PO447712  38.635  43.266   5.198
 3666POPC   GL147713  38.692  43.231   5.689
 3666POPC   GL247714  38.772  43.569   5.858
 3666POPC   C1A47715  38.631  43.085   6.141
 3666POPC   D2A47716  38.274  42.916   6.428
 3666POPC   C3A47717  38.398  42.784   6.872
 3666POPC   C4A47718  38.403  42.970   7.290
 3666POPC   C1B47719  38.961  43.473   6.299
 3666POPC   C2B47720  38.941  43.153   6.678
 3666POPC   C3B47721  38.854  43.153   7.142
 3666POPC   C4B47722  38.792  43.405   7.567
 3667POPC   NC347723   8.624  31.278   5.607
 3667POPC   PO447724   9.048  31.826   5.474
 3667POPC   GL147725   9.133  31.697   5.890
 3667POPC   GL247726   8.942  31.395   6.005
 3667POPC   C1A47727   9.054  31.794   6.323
 3667POPC   D2A47728   9.011  31.492   6.645
 3667POPC   C3A47729   8.993  31.704   7.009
 3667POPC   C4A47730   9.175  31.630   7.379
 3667POPC   C1B47731   8.898  31.016   6.274
 3667POPC   C2B47732   8.907  30.963   6.731
 3667POPC   C3B47733   8.996  31.211   7.101
 3667POPC   C4B47734   8.951  31.191   7.546
 3668POPC   NC347735  20.211  33.995   5.483
 3668POPC   PO447736  19.802  33.508   5.511
 3668POPC   GL147737  19.925  33.735   5.869
 3668POPC   GL247738  19.802  34.060   5.794
 3668POPC   C1A47739  20.046  33.795   6.313
 3668POPC   D2A47740  20.238  33.692   6.736
 3668POPC   C3A47741  19.919  33.797   7.029
 3668POPC   C4A47742  19.597  33.495   7.197
 3668POPC   C1B47743  19.520  33.922   6.121
 3668POPC   C2B47744  19.542  33.715   6.491
 3668POPC   C3B47745  19.429  33.813   6.863
 3668POPC   C4B47746  19.488  34.099   7.173
 3669POPC   NC347747  17.465  43.431   5.408
 3669POPC   PO447748  17.831  42.835   5.568
 3669POPC   GL147749  17.583  43.106   5.807
 3669POPC   GL247750  17.827  43.395   5.786
 3669POPC   C1A47751  17.315  43.283   6.147
 3669POPC   D2A47752  17.457  43.431   6.574
 3669POPC   C3A47753  17.253  43.371   6.939
 3669POPC   C4A47754  17.413  43.027   7.209
 3669POPC   C1B47755  17.814  43.410   6.226
 3669POPC   C2B47756  17.950  43.203   6.620
 3669POPC   C3B47757  17.791  43.317   7.032
 3669POPC   C4B47758  17.909  43.504   7.417
 3670POPC   NC347759  27.899  37.044   5.515
 3670POPC   PO447760  27.214  37.136   5.431
 3670POPC   GL147761  27.437  36.902   5.794
 3670POPC   GL247762  27.695  37.032   5.980
 3670POPC   C1A47763  27.445  36.660   6.212
 3670POPC   D2A47764  27.608  36.450   6.600
 3670POPC   C3A47765  27.602  36.638   7.003
 3670POPC   C4A47766  27.206  36.774   7.170
 3670POPC   C1B47767  27.360  37.169   6.248
 3670POPC   C2B47768  27.342  37.024   6.675
 3670POPC   C3B47769  27.547  37.145   7.060
 3670POPC   C4B47770  27.663  37.331   7.432
 3671POPC   NC347771  38.382   5.389   5.487
 3671POPC   PO447772  38.083   4.782   5.580
 3671POPC   GL147773  38.359   5.058   5.901
 3671POPC   GL247774  38.553   5.426   5.958
 3671POPC   C1A47775  38.498   5.079   6.351
 3671POPC   D2A47776  38.756   5.201   6.697
 3671POPC   C3A47777  38.604   5.130   7.088
 3671POPC   C4A47778  38.273   4.911   7.278
 3671POPC   C1B47779  38.164   5.437   6.218
 3671POPC   C2B47780  38.078   5.216   6.622
 3671POPC   C3B47781  38.136   5.341   7.030
 3671POPC   C4B47782  38.423   5.585   7.213
 3672POPC   NC347783   2.981  36.915   5.002
 3672POPC   PO447784   2.596  36.970   5.524
 3672POPC   GL147785   2.716  36.773   5.900
 3672POPC   GL247786   2.579  36.417   5.851
 3672POPC   C1A47787   2.840  37.057   6.244
 3672POPC   D2A47788   2.703  37.220   6.663
 3672POPC   C3A47789   2.954  37.208   7.081
 3672POPC   C4A47790   2.856  37.196   7.535
 3672POPC   C1B47791   2.439  36.578   6.250
 3672POPC   C2B47792   2.728  36.699   6.574
 3672POPC   C3B47793   2.668  36.804   6.984
 3672POPC   C4B47794   2.885  36.684   7.335
 3673POPC   NC347795  20.721  30.442   5.177
 3673POPC   PO447796  20.348  30.993   5.396
 3673POPC   GL147797  20.492  30.630   5.620
 3673POPC   GL247798  20.766  30.758   5.820
 3673POPC   C1A47799  20.323  30.506   6.037
 3673POPC   D2A47800  20.383  30.803   6.376
 3673POPC   C3A47801  20.385  30.756   6.815
 3673POPC   C4A47802  20.486  31.075   7.158
 3673POPC   C1B47803  20.809  30.513   6.194
 3673POPC   C2B47804  20.844  30.672   6.601
 3673POPC   C3B47805  20.841  30.693   7.033
 3673POPC   C4B47806  20.919  30.425   7.368
 3674POPC   NC347807  24.830  31.927   5.501
 3674POPC   PO447808  24.148  32.095   5.580
 3674POPC   GL147809  24.446  32.068   5.923
 3674POPC   GL247810  24.786  32.196   5.925
 3674POPC   C1A47811  24.572  32.033   6.358
 3674POPC   D2A47812  24.621  31.987   6.777
 3674POPC   C3A47813  24.417  32.255   7.052
 3674POPC   C4A47814  24.174  32.059   7.384
 3674POPC   C1B47815  24.966  32.400   6.302
 3674POPC   C2B47816  24.937  32.385   6.761
 3674POPC   C3B47817  24.883  32.415   7.187
 3674POPC   C4B47818  24.624  32.731   7.229
 3675POPC   NC347819   9.667  12.969   5.388
 3675POPC   PO447820  10.241  12.554   5.532
 3675POPC   GL147821   9.873  12.629   5.823
 3675POPC   GL247822   9.878  12.973   5.857
 3675POPC   C1A47823   9.556  12.756   6.184
 3675POPC   D2A47824   9.396  12.942   6.576
 3675POPC   C3A47825   9.515  12.731   6.995
 3675POPC   C4A47826   9.381  12.725   7.443
 3675POPC   C1B47827   9.993  13.010   6.289
 3675POPC   C2B47828   9.909  12.911   6.707
 3675POPC   C3B47829   9.858  13.129   7.089
 3675POPC   C4B47830  10.148  12.877   7.305
 3676POPC   NC347831  32.022   4.730   5.757
 3676POPC   PO447832  31.897   4.118   5.443
 3676POPC   GL147833  32.177   4.232   5.779
 3676POPC   GL247834  32.500   4.344   5.635
 3676POPC   C1A47835  32.223   4.157   6.229
 3676POPC   D2A47836  32.363   4.123   6.661
 3676POPC   C3A47837  32.134   4.332   6.989
 3676POPC   C4A47838  32.004   3.964   7.154
 3676POPC   C1B47839  32.626   4.457   6.057
 3676POPC   C2B47840  32.468   4.586   6.448
 3676POPC   C3B47841  32.601   4.534   6.872
 3676POPC   C4B47842  32.531   4.704   7.257
 3677POPC   NC347843  16.516  27.657   5.528
 3677POPC   PO447844  16.994  27.130   5.588
 3677POPC   GL147845  16.776  27.317   5.891
 3677POPC   GL247846  16.949  27.617   5.835
 3677POPC   C1A47847  16.657  27.504   6.282
 3677POPC   D2A47848  16.524  27.520   6.712
 3677POPC   C3A47849  16.805  27.401   7.025
 3677POPC   C4A47850  16.721  27.508   7.405
 3677POPC   C1B47851  17.084  27.783   6.204
 3677POPC   C2B47852  17.087  28.153   6.460
 3677POPC   C3B47853  17.060  28.165   6.909
 3677POPC   C4B47854  17.116  27.814   7.196
 3678POPC   NC347855  16.268  21.605   5.434
 3678POPC   PO447856  16.703  21.058   5.463
 3678POPC   GL147857  16.768  21.466   5.716
 3678POPC   GL247858  16.516  21.710   5.862
 3678POPC   C1A47859  16.922  21.587   6.149
 3678POPC   D2A47860  17.083  21.391   6.524
 3678POPC   C3A47861  16.957  21.597   6.869
 3678POPC   C4A47862  16.918  21.535   7.268
 3678POPC   C1B47863  16.382  21.491   6.231
 3678POPC   C2B47864  16.541  21.412   6.627
 3678POPC   C3B47865  16.429  21.485   7.032
 3678POPC   C4B47866  16.479  21.738   7.390
 3679POPC   NC347867  24.578  27.923   5.457
 3679POPC   PO447868  24.792  27.233   5.485
 3679POPC   GL147869  24.485  27.417   5.818
 3679POPC   GL247870  24.492  27.775   5.929
 3679POPC   C1A47871  24.296  27.433   6.280
 3679POPC   D2A47872  24.432  27.259   6.690
 3679POPC   C3A47873  24.235  27.272   7.079
 3679POPC   C4A47874  24.453  27.312   7.503
 3679POPC   C1B47875  24.214  28.020   6.200
 3679POPC   C2B47876  24.343  28.064   6.610
 3679POPC   C3B47877  24.644  27.829   6.818
 3679POPC   C4B47878  24.505  27.687   7.175
 3680POPC   NC347879   3.939  40.866   5.611
 3680POPC   PO447880   3.570  40.424   5.189
 3680POPC   GL147881   3.483  40.628   5.673
 3680POPC   GL247882   3.514  40.948   5.864
 3680POPC   C1A47883   3.360  40.575   6.169
 3680POPC   D2A47884   3.183  40.817   6.566
 3680POPC   C3A47885   3.246  40.603   7.008
 3680POPC   C4A47886   3.358  40.625   7.467
 3680POPC   C1B47887   3.670  40.965   6.289
 3680POPC   C2B47888   3.684  40.733   6.685
 3680POPC   C3B47889   3.682  40.856   7.115
 3680POPC   C4B47890   3.648  41.029   7.521
 3681POPC   NC347891   6.007   4.703   5.507
 3681POPC   PO447892   5.676   5.282   5.393
 3681POPC   GL147893   6.049   5.278   5.688
 3681POPC   GL247894   5.807   5.367   5.909
 3681POPC   C1A47895   6.218   5.171   6.145
 3681POPC   D2A47896   6.292   4.844   6.496
 3681POPC   C3A47897   6.123   4.980   6.900
 3681POPC   C4A47898   6.220   5.312   7.177
 3681POPC   C1B47899   5.536   5.370   6.268
 3681POPC   C2B47900   5.648   5.514   6.686
 3681POPC   C3B47901   5.716   5.284   7.049
 3681POPC   C4B47902   5.651   4.831   7.088
 3682POPC   NC347903  34.640  26.057   5.211
 3682POPC   PO447904  35.268  25.962   5.446
 3682POPC   GL147905  35.305  26.183   5.852
 3682POPC   GL247906  35.589  26.429   5.932
 3682POPC   C1A47907  35.166  26.070   6.265
 3682POPC   D2A47908  35.296  25.867   6.650
 3682POPC   C3A47909  35.084  25.996   7.050
 3682POPC   C4A47910  35.119  25.776   7.437
 3682POPC   C1B47911  35.656  26.219   6.335
 3682POPC   C2B47912  35.813  26.304   6.765
 3682POPC   C3B47913  35.579  26.251   7.143
 3682POPC   C4B47914  35.452  26.613   7.400
 3683POPC   NC347915  29.792  32.767   5.468
 3683POPC   PO447916  30.293  33.194   5.476
 3683POPC   GL147917  30.126  32.984   5.818
 3683POPC   GL247918  29.762  33.115   5.840
 3683POPC   C1A47919  30.134  33.101   6.220
 3683POPC   D2A47920  29.859  33.176   6.516
 3683POPC   C3A47921  29.897  32.994   6.908
 3683POPC   C4A47922  29.778  33.205   7.251
 3683POPC   C1B47923  29.711  32.802   6.159
 3683POPC   C2B47924  29.719  32.636   6.562
 3683POPC   C3B47925  29.482  32.693   6.919
 3683POPC   C4B47926  29.388  32.894   7.295
 3684POPC   NC347927  10.780  27.141   5.353
 3684POPC   PO447928  10.311  26.700   5.361
 3684POPC   GL147929  10.319  27.005   5.710
 3684POPC   GL247930  10.680  27.058   5.854
 3684POPC   C1A47931  10.225  26.982   6.186
 3684POPC   D2A47932  10.398  26.882   6.620
 3684POPC   C3A47933  10.260  26.780   7.059
 3684POPC   C4A47934  10.359  26.739   7.537
 3684POPC   C1B47935  10.695  27.202   6.326
 3684POPC   C2B47936  10.811  27.148   6.783
 3684POPC   C3B47937  10.731  26.932   7.208
 3684POPC   C4B47938  10.821  27.071   7.633
 3685POPC   NC347939  43.658  26.155   5.292
 3685POPC   PO447940  44.308  26.264   5.487
 3685POPC   GL147941  43.969  26.085   5.783
 3685POPC   GL247942  43.704  26.359   5.806
 3685POPC   C1A47943  43.933  25.810   6.215
 3685POPC   D2A47944  43.700  25.699   6.640
 3685POPC   C3A47945  43.766  25.917   7.044
 3685POPC   C4A47946  43.733  25.856   7.537
 3685POPC   C1B47947  43.863  26.328   6.225
 3685POPC   C2B47948  43.721  26.225   6.611
 3685POPC   C3B47949  43.466  26.343   6.941
 3685POPC   C4B47950  43.679  26.326   7.342
 3686POPC   NC347951  43.579   4.193   5.268
 3686POPC   PO447952  44.136   4.491   5.432
 3686POPC   GL147953  44.035   4.297   5.831
 3686POPC   GL247954  43.712   4.095   5.760
 3686POPC   C1A47955  44.092   4.455   6.274
 3686POPC   D2A47956  43.942   4.241   6.633
 3686POPC   C3A47957  44.097   4.308   7.002
 3686POPC   C4A47958  44.147   4.666   7.196
 3686POPC   C1B47959  43.664   4.155   6.202
 3686POPC   C2B47960  43.435   4.162   6.615
 3686POPC   C3B47961  43.623   4.091   7.011
 3686POPC   C4B47962  43.740   4.359   7.362
 3687POPC   NC347963  16.831  10.173   5.514
 3687POPC   PO447964  16.885   9.600   5.201
 3687POPC   GL147965  16.985   9.581   5.647
 3687POPC   GL247966  16.709   9.386   5.801
 3687POPC   C1A47967  16.869   9.759   6.080
 3687POPC   D2A47968  16.701   9.659   6.488
 3687POPC   C3A47969  16.857   9.923   6.814
 3687POPC   C4A47970  17.008   9.809   7.204
 3687POPC   C1B47971  16.469   9.294   6.181
 3687POPC   C2B47972  16.546   9.175   6.604
 3687POPC   C3B47973  16.608   9.457   6.973
 3687POPC   C4B47974  16.424   9.499   7.400
 3688POPC   NC347975  42.301  32.549   5.104
 3688POPC   PO447976  42.545  33.098   5.502
 3688POPC   GL147977  42.250  33.024   5.794
 3688POPC   GL247978  42.474  33.118   6.032
 3688POPC   C1A47979  41.974  33.135   6.161
 3688POPC   D2A47980  41.758  33.227   6.558
 3688POPC   C3A47981  42.046  33.101   6.887
 3688POPC   C4A47982  42.161  33.072   7.330
 3688POPC   C1B47983  42.652  33.156   6.428
 3688POPC   C2B47984  42.564  33.070   6.864
 3688POPC   C3B47985  42.689  33.226   7.257
 3688POPC   C4B47986  42.661  33.044   7.701
 3689POPC   NC347987   2.218  15.334   5.026
 3689POPC   PO447988   1.924  15.671   5.558
 3689POPC   GL147989   1.938  15.453   5.915
 3689POPC   GL247990   1.868  15.109   5.901
 3689POPC   C1A47991   2.038  15.317   6.309
 3689POPC   D2A47992   2.132  15.051   6.588
 3689POPC   C3A47993   2.139  15.271   6.931
 3689POPC   C4A47994   1.869  15.209   7.258
 3689POPC   C1B47995   1.650  14.931   6.268
 3689POPC   C2B47996   1.397  14.837   6.650
 3689POPC   C3B47997   1.539  14.823   7.088
 3689POPC   C4B47998   1.786  14.723   7.480
 3690POPC   NC347999  16.364   0.026   5.284
 3690POPC   PO448000  16.954   0.440   5.378
 3690POPC   GL148001  16.729   0.386   5.767
 3690POPC   GL248002  16.696   0.742   5.834
 3690POPC   C1A48003  16.482   0.424   6.172
 3690POPC   D2A48004  16.724   0.429   6.535
 3690POPC   C3A48005  16.561   0.473   6.928
 3690POPC   C4A48006  16.615   0.321   7.337
 3690POPC   C1B48007  16.800   0.901   6.225
 3690POPC   C2B48008  17.015   0.834   6.606
 3690POPC   C3B48009  16.882   0.916   7.016
 3690POPC   C4B48010  17.003   0.692   7.353
 3691POPC   NC348011  11.920  31.102   5.304
 3691POPC   PO448012  12.144  30.498   5.499
 3691POPC   GL148013  12.245  30.822   5.779
 3691POPC   GL248014  12.013  30.674   5.972
 3691POPC   C1A48015  12.309  31.013   6.193
 3691POPC   D2A48016  12.127  30.818   6.558
 3691POPC   C3A48017  12.327  31.004   6.898
 3691POPC   C4A48018  12.318  30.887   7.310
 3691POPC   C1B48019  11.850  30.444   6.288
 3691POPC   C2B48020  11.769  30.455   6.713
 3691POPC   C3B48021  12.016  30.456   7.095
 3691POPC   C4B48022  12.113  30.414   7.545
 3692POPC   NC348023   4.727  43.078   5.453
 3692POPC   PO448024   5.264  42.802   5.327
 3692POPC   GL148025   5.105  42.885   5.765
 3692POPC   GL248026   5.125  43.239   5.754
 3692POPC   C1A48027   4.886  43.075   6.164
 3692POPC   D2A48028   4.910  43.221   6.605
 3692POPC   C3A48029   4.766  42.997   6.982
 3692POPC   C4A48030   5.092  42.984   7.287
 3692POPC   C1B48031   5.452  43.218   6.024
 3692POPC   C2B48032   5.422  43.216   6.469
 3692POPC   C3B48033   5.361  43.217   6.908
 3692POPC   C4B48034   5.555  43.272   7.320
 3693POPC   NC348035  13.405  21.758   5.351
 3693POPC   PO448036  13.542  21.081   5.427
 3693POPC   GL148037  13.506  21.444   5.772
 3693POPC   GL248038  13.821  21.604   5.917
 3693POPC   C1A48039  13.477  21.442   6.239
 3693POPC   D2A48040  13.698  21.153   6.487
 3693POPC   C3A48041  13.613  21.087   6.935
 3693POPC   C4A48042  13.331  21.297   7.238
 3693POPC   C1B48043  13.991  21.530   6.279
 3693POPC   C2B48044  13.774  21.671   6.629
 3693POPC   C3B48045  13.757  21.551   7.059
 3693POPC   C4B48046  13.918  21.692   7.437
 3694POPC   NC348047  10.741   1.757   5.447
 3694POPC   PO448048  10.164   1.742   5.728
 3694POPC   GL148049  10.332   1.954   6.028
 3694POPC   GL248050  10.616   2.038   5.892
 3694POPC   C1A48051  10.549   1.856   6.376
 3694POPC   D2A48052  10.495   1.500   6.628
 3694POPC   C3A48053  10.420   1.665   7.035
 3694POPC   C4A48054  10.409   2.104   7.118
 3694POPC   C1B48055  10.908   2.183   6.185
 3694POPC   C2B48056  10.828   2.272   6.593
 3694POPC   C3B48057  10.809   1.927   6.833
 3694POPC   C4B48058  10.914   2.039   7.223
 3695POPC   NC348059  19.370  25.569   5.472
 3695POPC   PO448060  18.895  25.055   5.423
 3695POPC   GL148061  19.109  25.225   5.767
 3695POPC   GL248062  18.978  25.540   5.814
 3695POPC   C1A48063  19.369  25.374   6.141
 3695POPC   D2A48064  19.303  25.570   6.550
 3695POPC   C3A48065  19.478  25.409   6.937
 3695POPC   C4A48066  19.342  25.166   7.301
 3695POPC   C1B48067  18.843  25.333   6.181
 3695POPC   C2B48068  18.774  25.491   6.559
 3695POPC   C3B48069  18.973  25.451   6.945
 3695POPC   C4B48070  18.850  25.350   7.350
 3696POPC   NC348071  29.032  41.099   5.449
 3696POPC   PO448072  29.433  41.688   5.492
 3696POPC   GL148073  29.242  41.562   5.833
 3696POPC   GL248074  28.928  41.719   5.923
 3696POPC   C1A48075  29.335  41.694   6.266
 3696POPC   D2A48076  29.317  41.363   6.559
 3696POPC   C3A48077  29.482  41.303   6.956
 3696POPC   C4A48078  29.347  41.572   7.246
 3696POPC   C1B48079  28.924  41.327   6.154
 3696POPC   C2B48080  28.816  41.185   6.538
 3696POPC   C3B48081  28.953  41.239   6.970
 3696POPC   C4B48082  28.841  41.526   7.301
 3697POPC   NC348083  29.270  20.041   5.455
 3697POPC   PO448084  28.681  19.662   5.635
 3697POPC   GL148085  29.037  19.775   5.817
 3697POPC   GL248086  28.899  20.062   5.849
 3697POPC   C1A48087  29.282  19.931   6.172
 3697POPC   D2A48088  29.306  19.736   6.574
 3697POPC   C3A48089  29.437  20.079   6.801
 3697POPC   C4A48090  29.350  20.150   7.249
 3697POPC   C1B48091  28.781  19.919   6.259
 3697POPC   C2B48092  28.948  20.118   6.594
 3697POPC   C3B48093  28.967  19.914   6.982
 3697POPC   C4B48094  28.868  20.007   7.389
 3698POPC   NC348095  21.326  10.113   5.488
 3698POPC   PO448096  21.705   9.485   5.353
 3698POPC   GL148097  21.469   9.678   5.732
 3698POPC   GL248098  21.159   9.492   5.749
 3698POPC   C1A48099  21.537   9.815   6.184
 3698POPC   D2A48100  21.720   9.974   6.583
 3698POPC   C3A48101  21.507   9.760   6.939
 3698POPC   C4A48102  21.397   9.935   7.361
 3698POPC   C1B48103  21.297   9.316   6.148
 3698POPC   C2B48104  21.223   9.423   6.564
 3698POPC   C3B48105  21.063   9.436   6.953
 3698POPC   C4B48106  21.267   9.447   7.321
 3699POPC   NC348107  20.258   4.967   5.435
 3699POPC   PO448108  19.654   5.060   5.212
 3699POPC   GL148109  19.816   4.972   5.666
 3699POPC   GL248110  19.723   5.238   5.855
 3699POPC   C1A48111  20.025   4.858   6.064
 3699POPC   D2A48112  20.056   4.932   6.515
 3699POPC   C3A48113  19.678   4.874   6.778
 3699POPC   C4A48114  19.605   4.918   7.219
 3699POPC   C1B48115  19.956   5.356   6.199
 3699POPC   C2B48116  19.825   5.375   6.620
 3699POPC   C3B48117  19.975   5.223   6.996
 3699POPC   C4B48118  19.866   5.337   7.398
 3700POPC   NC348119   3.242  28.689   5.063
 3700POPC   PO448120   3.790  28.537   5.382
 3700POPC   GL148121   3.599  28.331   5.754
 3700POPC   GL248122   3.707  28.618   5.900
 3700POPC   C1A48123   3.474  28.276   6.219
 3700POPC   D2A48124   3.319  28.404   6.638
 3700POPC   C3A48125   3.461  28.138   6.981
 3700POPC   C4A48126   3.354  28.030   7.422
 3700POPC   C1B48127   3.847  28.749   6.289
 3700POPC   C2B48128   3.712  28.767   6.695
 3700POPC   C3B48129   3.789  28.517   7.033
 3700POPC   C4B48130   3.754  28.585   7.461
 3701POPC   NC348131  24.540  18.868   5.444
 3701POPC   PO448132  24.141  19.358   5.632
 3701POPC   GL148133  24.365  19.066   5.922
 3701POPC   GL248134  24.738  19.014   5.899
 3701POPC   C1A48135  24.463  19.024   6.391
 3701POPC   D2A48136  24.747  18.933   6.758
 3701POPC   C3A48137  24.504  18.868   7.150
 3701POPC   C4A48138  24.109  19.092   7.261
 3701POPC   C1B48139  24.909  19.237   6.275
 3701POPC   C2B48140  24.710  19.454   6.622
 3701POPC   C3B48141  24.510  19.348   7.003
 3701POPC   C4B48142  24.554  19.334   7.456
 3702POPC   NC348143  12.100   3.990   5.686
 3702POPC   PO448144  11.734   3.486   5.407
 3702POPC   GL148145  11.884   3.531   5.844
 3702POPC   GL248146  12.248   3.539   5.871
 3702POPC   C1A48147  11.825   3.700   6.279
 3702POPC   D2A48148  11.778   3.493   6.689
 3702POPC   C3A48149  11.907   3.683   7.059
 3702POPC   C4A48150  11.869   3.521   7.499
 3702POPC   C1B48151  12.343   3.781   6.244
 3702POPC   C2B48152  12.229   3.737   6.630
 3702POPC   C3B48153  12.447   3.684   6.957
 3702POPC   C4B48154  12.356   3.770   7.338
 3703POPC   NC348155   7.030  17.403   5.622
 3703POPC   PO448156   6.508  17.883   5.528
 3703POPC   GL148157   6.563  17.641   5.900
 3703POPC   GL248158   6.597  17.290   5.917
 3703POPC   C1A48159   6.848  17.613   6.242
 3703POPC   D2A48160   6.969  17.837   6.587
 3703POPC   C3A48161   6.890  17.603   6.985
 3703POPC   C4A48162   6.825  17.855   7.319
 3703POPC   C1B48163   6.415  17.328   6.320
 3703POPC   C2B48164   6.509  17.655   6.639
 3703POPC   C3B48165   6.374  17.686   7.074
 3703POPC   C4B48166   6.246  17.274   7.162
 3704POPC   NC348167   8.468   4.877   5.458
 3704POPC   PO448168   7.892   5.166   5.518
 3704POPC   GL148169   8.067   4.990   5.861
 3704POPC   GL248170   8.435   5.005   5.942
 3704POPC   C1A48171   7.942   4.969   6.279
 3704POPC   D2A48172   8.227   4.842   6.572
 3704POPC   C3A48173   8.215   5.019   6.962
 3704POPC   C4A48174   7.974   5.074   7.312
 3704POPC   C1B48175   8.696   4.830   6.266
 3704POPC   C2B48176   8.777   4.868   6.697
 3704POPC   C3B48177   8.671   4.850   7.109
 3704POPC   C4B48178   8.483   5.055   7.477
 3705POPC   NC348179  28.070   4.258   5.319
 3705POPC   PO448180  28.617   4.637   5.382
 3705POPC   GL148181  28.509   4.414   5.766
 3705POPC   GL248182  28.703   4.126   5.878
 3705POPC   C1A48183  28.403   4.349   6.212
 3705POPC   D2A48184  28.545   4.295   6.608
 3705POPC   C3A48185  28.194   4.394   6.853
 3705POPC   C4A48186  28.222   4.484   7.276
 3705POPC   C1B48187  28.644   3.893   6.274
 3705POPC   C2B48188  28.654   3.794   6.704
 3705POPC   C3B48189  28.520   4.070   7.069
 3705POPC   C4B48190  28.567   4.078   7.526
 3706POPC   NC348191  33.434  40.777   5.409
 3706POPC   PO448192  34.013  40.410   5.461
 3706POPC   GL148193  33.762  40.549   5.832
 3706POPC   GL248194  33.658  40.927   5.873
 3706POPC   C1A48195  33.852  40.638   6.275
 3706POPC   D2A48196  33.730  40.847   6.664
 3706POPC   C3A48197  33.986  40.776   6.993
 3706POPC   C4A48198  33.883  40.628   7.356
 3706POPC   C1B48199  33.767  41.159   6.265
 3706POPC   C2B48200  34.066  41.302   6.595
 3706POPC   C3B48201  33.867  41.265   7.010
 3706POPC   C4B48202  33.546  40.969   7.183
 3707POPC   NC348203  44.413  43.456   5.677
 3707POPC   PO448204   0.017  43.597   5.482
 3707POPC   GL148205  44.758  43.822   5.786
 3707POPC   GL248206  44.755  44.183   5.677
 3707POPC   C1A48207  44.587  43.793   6.231
 3707POPC   D2A48208  44.784  43.547   6.539
 3707POPC   C3A48209  44.772  43.789   6.890
 3707POPC   C4A48210  44.957  43.875   7.309
 3707POPC   C1B48211  44.892  44.175   6.109
 3707POPC   C2B48212  44.839  44.198   6.550
 3707POPC   C3B48213  44.836  44.275   6.992
 3707POPC   C4B48214  44.604  44.266   7.366
 3708POPC   NC348215  26.248  36.168   5.362
 3708POPC   PO448216  25.694  36.620   5.596
 3708POPC   GL148217  25.941  36.246   5.807
 3708POPC   GL248218  26.321  36.208   5.856
 3708POPC   C1A48219  25.992  36.095   6.226
 3708POPC   D2A48220  25.724  36.014   6.570
 3708POPC   C3A48221  25.950  35.933   6.940
 3708POPC   C4A48222  25.703  35.913   7.317
 3708POPC   C1B48223  26.460  36.374   6.244
 3708POPC   C2B48224  26.260  36.311   6.646
 3708POPC   C3B48225  26.442  36.193   7.036
 3708POPC   C4B48226  26.478  36.402   7.416
 3709POPC   NC348227  13.054   5.484   5.537
 3709POPC   PO448228  12.892   4.779   5.478
 3709POPC   GL148229  12.653   5.074   5.765
 3709POPC   GL248230  12.604   4.763   5.951
 3709POPC   C1A48231  12.578   5.311   6.183
 3709POPC   D2A48232  12.571   5.245   6.631
 3709POPC   C3A48233  12.834   5.515   6.905
 3709POPC   C4A48234  12.899   5.416   7.341
 3709POPC   C1B48235  12.985   4.982   6.135
 3709POPC   C2B48236  13.107   5.042   6.567
 3709POPC   C3B48237  12.921   5.020   6.987
 3709POPC   C4B48238  13.015   4.939   7.410
 3710POPC   NC348239  15.294  42.111   5.433
 3710POPC   PO448240  14.838  42.519   5.631
 3710POPC   GL148241  15.234  42.412   5.835
 3710POPC   GL248242  15.083  42.085   5.914
 3710POPC   C1A48243  15.425  42.338   6.241
 3710POPC   D2A48244  15.399  42.586   6.621
 3710POPC   C3A48245  15.474  42.407   7.036
 3710POPC   C4A48246  15.221  42.625   7.369
 3710POPC   C1B48247  14.919  42.345   6.249
 3710POPC   C2B48248  14.857  42.610   6.574
 3710POPC   C3B48249  14.955  42.505   6.967
 3710POPC   C4B48250  15.071  42.130   7.193
 3711POPC   NC348251   1.589  28.951   5.570
 3711POPC   PO448252   2.151  29.234   5.391
 3711POPC   GL148253   2.134  28.993   5.737
 3711POPC   GL248254   2.480  28.935   5.725
 3711POPC   C1A48255   1.990  29.076   6.171
 3711POPC   D2A48256   1.827  29.057   6.593
 3711POPC   C3A48257   2.072  29.090   6.957
 3711POPC   C4A48258   2.075  29.186   7.402
 3711POPC   C1B48259   2.412  28.802   6.136
 3711POPC   C2B48260   2.161  28.669   6.475
 3711POPC   C3B48261   2.314  28.639   6.894
 3711POPC   C4B48262   2.407  28.781   7.294
 3712POPC   NC348263  17.321  15.415   5.603
 3712POPC   PO448264  17.785  15.053   5.384
 3712POPC   GL148265  17.634  15.135   5.853
 3712POPC   GL248266  17.315  15.074   6.044
 3712POPC   C1A48267  17.708  15.292   6.269
 3712POPC   D2A48268  17.513  15.173   6.669
 3712POPC   C3A48269  17.741  15.215   7.069
 3712POPC   C4A48270  17.729  14.936   7.416
 3712POPC   C1B48271  17.171  15.431   6.282
 3712POPC   C2B48272  17.076  15.554   6.701
 3712POPC   C3B48273  17.238  15.505   7.121
 3712POPC   C4B48274  17.449  15.353   7.489
 3713POPC   NC348275  42.485  23.169   5.597
 3713POPC   PO448276  42.063  22.604   5.422
 3713POPC   GL148277  42.196  22.799   5.792
 3713POPC   GL248278  42.553  22.709   5.804
 3713POPC   C1A48279  42.124  23.028   6.188
 3713POPC   D2A48280  42.188  22.875   6.608
 3713POPC   C3A48281  42.140  23.113   6.957
 3713POPC   C4A48282  42.543  23.152   7.057
 3713POPC   C1B48283  42.436  22.605   6.238
 3713POPC   C2B48284  42.432  22.400   6.671
 3713POPC   C3B48285  42.474  22.497   7.128
 3713POPC   C4B48286  42.450  22.569   7.605
 3714POPC   NC348287  35.923  22.387   5.339
 3714POPC   PO448288  36.361  21.873   5.344
 3714POPC   GL148289  36.123  21.995   5.713
 3714POPC   GL248290  36.267  22.293   5.711
 3714POPC   C1A48291  36.009  21.846   6.157
 3714POPC   D2A48292  35.971  21.656   6.592
 3714POPC   C3A48293  36.054  21.934   6.947
 3714POPC   C4A48294  35.866  22.065   7.325
 3714POPC   C1B48295  36.120  22.364   6.116
 3714POPC   C2B48296  36.248  22.170   6.510
 3714POPC   C3B48297  36.413  22.338   6.889
 3714POPC   C4B48298  36.286  22.451   7.291
 3715POPC   NC348299  43.715  43.793   5.460
 3715POPC   PO448300  44.416  43.906   5.407
 3715POPC   GL148301  44.139  43.889   5.758
 3715POPC   GL248302  44.317  44.111   5.925
 3715POPC   C1A48303  44.053  43.731   6.206
 3715POPC   D2A48304  44.111  43.634   6.670
 3715POPC   C3A48305  43.831  43.804   6.998
 3715POPC   C4A48306  43.656  44.081   7.314
 3715POPC   C1B48307  44.414  44.324   6.296
 3715POPC   C2B48308  44.358  44.089   6.669
 3715POPC   C3B48309  44.321  43.958   7.075
 3715POPC   C4B48310  44.141  44.072   7.448
 3716POPC   NC348311  39.853  16.472   5.479
 3716POPC   PO448312  40.254  16.984   5.211
 3716POPC   GL148313  40.022  16.901   5.721
 3716POPC   GL248314  40.111  16.624   5.951
 3716POPC   C1A48315  39.870  17.040   6.155
 3716POPC   D2A48316  39.998  16.997   6.621
 3716POPC   C3A48317  39.749  16.923   7.019
 3716POPC   C4A48318  39.790  17.005   7.503
 3716POPC   C1B48319  40.047  16.462   6.388
 3716POPC   C2B48320  39.972  16.463   6.852
 3716POPC   C3B48321  40.080  16.289   7.259
 3716POPC   C4B48322  40.343  16.316   7.605
 3717POPC   NC348323  37.613  35.524   5.269
 3717POPC   PO448324  38.134  35.767   5.542
 3717POPC   GL148325  37.759  35.644   5.761
 3717POPC   GL248326  37.639  35.285   5.723
 3717POPC   C1A48327  37.669  35.586   6.196
 3717POPC   D2A48328  37.870  35.503   6.602
 3717POPC   C3A48329  37.862  35.792   6.949
 3717POPC   C4A48330  37.747  35.611   7.335
 3717POPC   C1B48331  37.819  35.090   6.097
 3717POPC   C2B48332  37.823  34.981   6.538
 3717POPC   C3B48333  37.719  35.120   6.978
 3717POPC   C4B48334  37.573  35.100   7.417
 3718POPC   NC348335   0.016   7.088   5.688
 3718POPC   PO448336   0.200   6.490   5.385
 3718POPC   GL148337   0.304   6.660   5.780
 3718POPC   GL248338   0.635   6.515   5.840
 3718POPC   C1A48339   0.280   6.589   6.200
 3718POPC   D2A48340   0.582   6.390   6.432
 3718POPC   C3A48341   0.491   6.583   6.812
 3718POPC   C4A48342   0.577   6.405   7.193
 3718POPC   C1B48343   0.763   6.803   6.183
 3718POPC   C2B48344   0.942   6.772   6.617
 3718POPC   C3B48345   0.895   6.785   7.054
 3718POPC   C4B48346   0.504   6.942   7.215
 3719POPC   NC348347   0.070   0.662   5.605
 3719POPC   PO448348   0.497   0.180   5.362
 3719POPC   GL148349   0.479   0.420   5.819
 3719POPC   GL248350   0.769   0.567   6.019
 3719POPC   C1A48351   0.256   0.574   6.243
 3719POPC   D2A48352   0.171   0.774   6.668
 3719POPC   C3A48353   0.302   0.610   7.051
 3719POPC   C4A48354   0.239   0.451   7.448
 3719POPC   C1B48355   0.652   0.231   6.290
 3719POPC   C2B48356   0.665   0.385   6.692
 3719POPC   C3B48357   0.792   0.699   6.958
 3719POPC   C4B48358   0.743   0.458   7.320
 3720POPC   NC348359  16.328  37.181   5.476
 3720POPC   PO448360  15.731  36.941   5.583
 3720POPC   GL148361  15.979  37.025   5.877
 3720POPC   GL248362  16.257  36.789   5.799
 3720POPC   C1A48363  15.884  36.737   6.211
 3720POPC   D2A48364  15.659  36.587   6.577
 3720POPC   C3A48365  15.612  36.853   6.982
 3720POPC   C4A48366  15.757  37.032   7.393
 3720POPC   C1B48367  16.366  36.957   6.188
 3720POPC   C2B48368  16.179  36.874   6.588
 3720POPC   C3B48369  16.134  36.896   6.999
 3720POPC   C4B48370  16.224  37.197   7.293
 3721POPC   NC348371   7.393  42.934   5.590
 3721POPC   PO448372   7.625  43.530   5.484
 3721POPC   GL148373   7.412  43.371   5.874
 3721POPC   GL248374   7.647  43.095   5.983
 3721POPC   C1A48375   7.358  43.300   6.333
 3721POPC   D2A48376   7.234  43.090   6.720
 3721POPC   C3A48377   7.443  43.324   7.075
 3721POPC   C4A48378   7.666  43.308   7.483
 3721POPC   C1B48379   7.596  42.829   6.343
 3721POPC   C2B48380   7.888  42.817   6.665
 3721POPC   C3B48381   7.810  42.952   7.088
 3721POPC   C4B48382   7.872  42.832   7.524
 3722POPC   NC348383   6.345  12.304   5.540
 3722POPC   PO448384   6.911  12.511   5.190
 3722POPC   GL148385   6.874  12.345   5.686
 3722POPC   GL248386   6.714  12.058   5.879
 3722POPC   C1A48387   6.834  12.425   6.204
 3722POPC   D2A48388   6.587  12.412   6.647
 3722POPC   C3A48389   6.834  12.391   7.030
 3722POPC   C4A48390   6.877  12.156   7.409
 3722POPC   C1B48391   6.544  12.012   6.302
 3722POPC   C2B48392   6.581  11.728   6.668
 3722POPC   C3B48393   6.617  11.848   7.086
 3722POPC   C4B48394   6.369  12.212   7.204
 3723POPC   NC348395  35.977  23.444   5.222
 3723POPC   PO448396  36.353  23.963   5.404
 3723POPC   GL148397  36.071  23.762   5.672
 3723POPC   GL248398  36.368  23.734   5.863
 3723POPC   C1A48399  35.945  23.679   6.130
 3723POPC   D2A48400  35.758  23.543   6.509
 3723POPC   C3A48401  35.919  23.618   6.920
 3723POPC   C4A48402  35.843  23.986   7.187
 3723POPC   C1B48403  36.459  23.560   6.225
 3723POPC   C2B48404  36.323  23.750   6.560
 3723POPC   C3B48405  36.561  23.830   6.882
 3723POPC   C4B48406  36.319  23.777   7.221
 3724POPC   NC348407  30.819   6.008   5.474
 3724POPC   PO448408  30.763   5.429   5.774
 3724POPC   GL148409  30.555   5.825   5.933
 3724POPC   GL248410  30.786   6.089   5.982
 3724POPC   C1A48411  30.509   6.028   6.390
 3724POPC   D2A48412  30.519   6.288   6.758
 3724POPC   C3A48413  30.747   6.068   7.062
 3724POPC   C4A48414  30.553   5.866   7.405
 3724POPC   C1B48415  30.946   5.783   6.305
 3724POPC   C2B48416  31.047   5.614   6.714
 3724POPC   C3B48417  30.959   5.598   7.158
 3724POPC   C4B48418  31.056   5.919   7.453
 3725POPC   NC348419  15.257  26.554   5.448
 3725POPC   PO448420  15.155  27.217   5.400
 3725POPC   GL148421  15.293  26.994   5.770
 3725POPC   GL248422  15.076  26.704   5.890
 3725POPC   C1A48423  15.400  26.910   6.219
 3725POPC   D2A48424  15.191  27.033   6.626
 3725POPC   C3A48425  15.240  26.658   6.894
 3725POPC   C4A48426  15.500  26.439   7.234
 3725POPC   C1B48427  14.953  26.673   6.334
 3725POPC   C2B48428  14.660  26.907   6.616
 3725POPC   C3B48429  14.639  26.993   7.052
 3725POPC   C4B48430  15.011  26.990   7.274
 3726POPC   NC348431  19.511  12.256   5.180
 3726POPC   PO448432  20.020  12.014   5.457
 3726POPC   GL148433  19.896  11.927   5.854
 3726POPC   GL248434  19.529  11.903   5.878
 3726POPC   C1A48435  19.938  12.086   6.265
 3726POPC   D2A48436  20.216  12.102   6.636
 3726POPC   C3A48437  19.998  12.160   6.991
 3726POPC   C4A48438  20.148  11.939   7.329
 3726POPC   C1B48439  19.409  12.155   6.241
 3726POPC   C2B48440  19.589  12.292   6.630
 3726POPC   C3B48441  19.432  12.311   7.044
 3726POPC   C4B48442  19.680  12.179   7.417
 3727POPC   NC348443  21.418   3.629   5.397
 3727POPC   PO448444  20.955   4.021   5.417
 3727POPC   GL148445  21.212   3.878   5.809
 3727POPC   GL248446  21.596   3.872   5.811
 3727POPC   C1A48447  21.370   3.887   6.273
 3727POPC   D2A48448  21.078   3.694   6.553
 3727POPC   C3A48449  21.161   3.393   6.871
 3727POPC   C4A48450  21.279   3.527   7.240
 3727POPC   C1B48451  21.429   3.450   6.032
 3727POPC   C2B48452  21.495   3.400   6.490
 3727POPC   C3B48453  21.519   3.752   6.828
 3727POPC   C4B48454  21.728   3.770   7.239
 3728POPC   NC348455  13.396  30.063   5.367
 3728POPC   PO448456  12.732  30.213   5.347
 3728POPC   GL148457  12.926  29.933   5.642
 3728POPC   GL248458  13.170  30.073   5.821
 3728POPC   C1A48459  12.784  29.858   6.099
 3728POPC   D2A48460  12.672  30.005   6.538
 3728POPC   C3A48461  12.679  29.682   6.893
 3728POPC   C4A48462  12.627  29.776   7.336
 3728POPC   C1B48463  13.069  30.276   6.240
 3728POPC   C2B48464  13.011  30.400   6.685
 3728POPC   C3B48465  12.834  30.157   7.036
 3728POPC   C4B48466  12.963  30.125   7.464
 3729POPC   NC348467  44.965  22.535   5.116
 3729POPC   PO448468  44.455  22.833   5.421
 3729POPC   GL148469  44.518  22.806   5.857
 3729POPC   GL248470  44.388  22.465   5.913
 3729POPC   C1A48471  44.565  23.084   6.240
 3729POPC   D2A48472  44.646  23.286   6.656
 3729POPC   C3A48473  44.604  23.037   7.017
 3729POPC   C4A48474  44.934  22.913   7.315
 3729POPC   C1B48475  44.483  22.502   6.329
 3729POPC   C2B48476  44.668  22.572   6.753
 3729POPC   C3B48477  44.622  22.521   7.202
 3729POPC   C4B48478  44.635  22.620   7.654
 3730POPC   NC348479  40.177  18.285   5.438
 3730POPC   PO448480  39.711  17.725   5.385
 3730POPC   GL148481  39.710  17.906   5.808
 3730POPC   GL248482  39.761  18.261   5.758
 3730POPC   C1A48483  39.976  18.010   6.171
 3730POPC   D2A48484  39.873  18.203   6.563
 3730POPC   C3A48485  40.013  18.022   6.912
 3730POPC   C4A48486  40.199  18.142   7.258
 3730POPC   C1B48487  39.929  18.519   6.107
 3730POPC   C2B48488  39.880  18.700   6.498
 3730POPC   C3B48489  39.938  18.622   6.924
 3730POPC   C4B48490  40.311  18.643   7.159
 3731POPC   NC348491  30.620  36.539   5.625
 3731POPC   PO448492  30.366  35.910   5.346
 3731POPC   GL148493  30.454  36.087   5.800
 3731POPC   GL248494  30.825  36.129   5.855
 3731POPC   C1A48495  30.495  35.983   6.227
 3731POPC   D2A48496  30.494  36.262   6.551
 3731POPC   C3A48497  30.536  36.063   6.906
 3731POPC   C4A48498  30.578  36.021   7.325
 3731POPC   C1B48499  30.978  36.215   6.274
 3731POPC   C2B48500  31.029  36.111   6.701
 3731POPC   C3B48501  30.965  36.275   7.085
 3731POPC   C4B48502  31.223  36.514   7.351
 3732POPC   NC348503  19.956  34.826   5.378
 3732POPC   PO448504  19.263  34.785   5.473
 3732POPC   GL148505  19.630  34.850   5.756
 3732POPC   GL248506  19.873  34.571   5.835
 3732POPC   C1A48507  19.831  34.991   6.143
 3732POPC   D2A48508  19.853  34.735   6.534
 3732POPC   C3A48509  19.879  34.856   6.967
 3732POPC   C4A48510  20.102  34.714   7.376
 3732POPC   C1B48511  19.872  34.306   6.235
 3732POPC   C2B48512  19.691  34.242   6.671
 3732POPC   C3B48513  19.927  34.331   7.068
 3732POPC   C4B48514  20.184  34.213   7.448
 3733POPC   NC348515  10.746   6.762   5.073
 3733POPC   PO448516  10.523   6.346   5.523
 3733POPC   GL148517  10.379   6.628   5.836
 3733POPC   GL248518  10.737   6.741   5.843
 3733POPC   C1A48519  10.415   6.744   6.286
 3733POPC   D2A48520  10.473   6.464   6.638
 3733POPC   C3A48521  10.609   6.562   7.031
 3733POPC   C4A48522  10.384   6.836   7.287
 3733POPC   C1B48523  10.864   7.007   6.197
 3733POPC   C2B48524  10.808   6.883   6.625
 3733POPC   C3B48525  10.799   7.036   7.036
 3733POPC   C4B48526  10.891   7.099   7.474
 3734POPC   NC348527  12.788  22.406   5.369
 3734POPC   PO448528  12.776  23.114   5.394
 3734POPC   GL148529  12.921  22.954   5.763
 3734POPC   GL248530  13.247  22.780   5.806
 3734POPC   C1A48531  12.955  23.007   6.195
 3734POPC   D2A48532  12.858  22.841   6.588
 3734POPC   C3A48533  12.849  23.052   6.955
 3734POPC   C4A48534  12.689  22.952   7.354
 3734POPC   C1B48535  13.230  22.563   6.235
 3734POPC   C2B48536  13.342  22.653   6.646
 3734POPC   C3B48537  13.153  22.598   7.059
 3734POPC   C4B48538  13.268  22.313   7.398
 3735POPC   NC348539   7.614  41.960   5.532
 3735POPC   PO448540   7.503  42.588   5.303
 3735POPC   GL148541   7.299  42.410   5.683
 3735POPC   GL248542   7.048  42.642   5.804
 3735POPC   C1A48543   7.379  42.373   6.155
 3735POPC   D2A48544   7.703  42.341   6.536
 3735POPC   C3A48545   7.642  42.137   6.960
 3735POPC   C4A48546   7.816  42.200   7.374
 3735POPC   C1B48547   7.077  42.804   6.215
 3735POPC   C2B48548   7.142  42.581   6.577
 3735POPC   C3B48549   7.440  42.636   6.885
 3735POPC   C4B48550   7.506  42.574   7.295
 3736POPC   NC348551  25.077  34.268   5.491
 3736POPC   PO448552  25.050  34.908   5.571
 3736POPC   GL148553  25.415  34.670   5.756
 3736POPC   GL248554  25.508  34.305   5.805
 3736POPC   C1A48555  25.467  34.653   6.192
 3736POPC   D2A48556  25.120  34.721   6.456
 3736POPC   C3A48557  25.234  34.658   6.891
 3736POPC   C4A48558  25.519  34.646   7.193
 3736POPC   C1B48559  25.197  34.234   6.134
 3736POPC   C2B48560  25.248  34.225   6.558
 3736POPC   C3B48561  25.142  34.173   6.961
 3736POPC   C4B48562  25.416  34.145   7.295
 3737POPC   NC348563  16.491  20.946   5.072
 3737POPC   PO448564  16.628  20.432   5.486
 3737POPC   GL148565  16.657  20.716   5.883
 3737POPC   GL248566  16.469  21.094   5.916
 3737POPC   C1A48567  16.595  20.522   6.279
 3737POPC   D2A48568  16.795  20.430   6.656
 3737POPC   C3A48569  16.601  20.613   7.015
 3737POPC   C4A48570  16.977  20.639   7.199
 3737POPC   C1B48571  16.710  21.083   6.245
 3737POPC   C2B48572  16.639  20.922   6.614
 3737POPC   C3B48573  16.869  21.081   6.931
 3737POPC   C4B48574  16.656  21.093   7.263
 3738POPC   NC348575  36.365  26.424   5.408
 3738POPC   PO448576  36.257  25.815   5.429
 3738POPC   GL148577  36.024  25.914   5.808
 3738POPC   GL248578  36.073  26.251   5.879
 3738POPC   C1A48579  36.072  25.917   6.276
 3738POPC   D2A48580  35.834  25.815   6.654
 3738POPC   C3A48581  36.076  25.731   6.980
 3738POPC   C4A48582  36.039  25.967   7.316
 3738POPC   C1B48583  36.100  26.469   6.305
 3738POPC   C2B48584  36.309  26.451   6.734
 3738POPC   C3B48585  36.199  26.451   7.197
 3738POPC   C4B48586  36.302  26.470   7.647
 3739POPC   NC348587  24.017   7.289   5.379
 3739POPC   PO448588  24.568   7.708   5.412
 3739POPC   GL148589  24.371   7.465   5.727
 3739POPC   GL248590  24.042   7.598   5.801
 3739POPC   C1A48591  24.477   7.425   6.166
 3739POPC   D2A48592  24.703   7.252   6.534
 3739POPC   C3A48593  24.490   7.017   6.866
 3739POPC   C4A48594  24.394   7.163   7.254
 3739POPC   C1B48595  24.020   7.705   6.239
 3739POPC   C2B48596  24.234   7.855   6.606
 3739POPC   C3B48597  24.338   7.653   6.992
 3739POPC   C4B48598  24.061   7.535   7.335
 3740POPC   NC348599  37.600   0.573   5.049
 3740POPC   PO448600  37.900   0.291   5.588
 3740POPC   GL148601  37.656   0.432   5.894
 3740POPC   GL248602  37.873   0.711   6.015
 3740POPC   C1A48603  37.418   0.637   6.225
 3740POPC   D2A48604  37.400   0.409   6.604
 3740POPC   C3A48605  37.643   0.521   6.985
 3740POPC   C4A48606  37.443   0.435   7.352
 3740POPC   C1B48607  37.872   0.387   6.346
 3740POPC   C2B48608  37.961   0.190   6.708
 3740POPC   C3B48609  38.166   0.351   7.033
 3740POPC   C4B48610  38.104   0.762   7.228
 3741POPC   NC348611  12.396  16.007   5.552
 3741POPC   PO448612  12.145  15.433   5.354
 3741POPC   GL148613  12.041  15.654   5.760
 3741POPC   GL248614  11.984  16.020   5.847
 3741POPC   C1A48615  12.166  15.683   6.196
 3741POPC   D2A48616  12.150  15.910   6.582
 3741POPC   C3A48617  12.169  15.673   6.943
 3741POPC   C4A48618  12.122  15.875   7.299
 3741POPC   C1B48619  12.319  16.197   6.168
 3741POPC   C2B48620  12.344  16.393   6.571
 3741POPC   C3B48621  12.261  16.249   6.965
 3741POPC   C4B48622  12.200  16.375   7.382
 3742POPC   NC348623  31.931   4.998   5.241
 3742POPC   PO448624  32.432   4.937   5.651
 3742POPC   GL148625  32.263   5.187   5.925
 3742POPC   GL248626  31.952   5.223   5.744
 3742POPC   C1A48627  32.194   5.080   6.378
 3742POPC   D2A48628  32.025   4.756   6.676
 3742POPC   C3A48629  32.121   4.925   7.069
 3742POPC   C4A48630  32.476   5.218   7.202
 3742POPC   C1B48631  31.900   5.467   6.140
 3742POPC   C2B48632  32.074   5.594   6.525
 3742POPC   C3B48633  32.093   5.438   6.934
 3742POPC   C4B48634  32.114   5.644   7.329
 3743POPC   NC348635  10.401  17.884   5.431
 3743POPC   PO448636  10.694  17.202   5.388
 3743POPC   GL148637  10.530  17.457   5.702
 3743POPC   GL248638  10.811  17.671   5.718
 3743POPC   C1A48639  10.452  17.688   6.105
 3743POPC   D2A48640  10.287  17.745   6.524
 3743POPC   C3A48641  10.545  17.756   6.905
 3743POPC   C4A48642  10.371  17.545   7.230
 3743POPC   C1B48643  10.932  17.511   6.135
 3743POPC   C2B48644  10.768  17.438   6.571
 3743POPC   C3B48645  10.715  17.233   7.002
 3743POPC   C4B48646  10.759  17.310   7.483
 3744POPC   NC348647  38.431   3.617   5.397
 3744POPC   PO448648  38.188   2.971   5.275
 3744POPC   GL148649  38.438   3.152   5.719
 3744POPC   GL248650  38.442   3.518   5.884
 3744POPC   C1A48651  38.490   3.176   6.242
 3744POPC   D2A48652  38.458   3.083   6.704
 3744POPC   C3A48653  38.621   3.422   6.996
 3744POPC   C4A48654  38.579   3.744   7.320
 3744POPC   C1B48655  38.202   3.666   6.260
 3744POPC   C2B48656  38.234   3.669   6.712
 3744POPC   C3B48657  38.086   3.840   7.102
 3744POPC   C4B48658  37.966   4.127   7.441
 3745POPC   NC348659  28.070   5.889   5.589
 3745POPC   PO448660  27.387   5.911   5.554
 3745POPC   GL148661  27.642   5.820   5.875
 3745POPC   GL248662  27.789   5.485   5.771
 3745POPC   C1A48663  27.531   5.953   6.297
 3745POPC   D2A48664  27.186   5.859   6.585
 3745POPC   C3A48665  27.305   5.748   7.007
 3745POPC   C4A48666  27.415   6.006   7.366
 3745POPC   C1B48667  27.898   5.549   6.236
 3745POPC   C2B48668  27.701   5.607   6.652
 3745POPC   C3B48669  27.814   5.719   7.071
 3745POPC   C4B48670  28.061   6.071   7.192
 3746POPC   NC348671  26.581  13.982   5.493
 3746POPC   PO448672  27.111  14.390   5.213
 3746POPC   GL148673  26.938  14.532   5.649
 3746POPC   GL248674  27.081  14.831   5.837
 3746POPC   C1A48675  26.787  14.413   6.079
 3746POPC   D2A48676  26.892  14.185   6.476
 3746POPC   C3A48677  26.641  14.303   6.852
 3746POPC   C4A48678  26.817  14.209   7.241
 3746POPC   C1B48679  27.119  14.765   6.232
 3746POPC   C2B48680  26.852  14.680   6.556
 3746POPC   C3B48681  26.817  14.792   6.955
 3746POPC   C4B48682  26.575  14.667   7.281
 3747POPC   NC348683  20.012  28.876   5.312
 3747POPC   PO448684  19.923  29.541   5.352
 3747POPC   GL148685  19.720  29.220   5.639
 3747POPC   GL248686  19.869  28.889   5.791
 3747POPC   C1A48687  19.642  29.254   6.088
 3747POPC   D2A48688  19.796  29.448   6.482
 3747POPC   C3A48689  19.654  29.233   6.842
 3747POPC   C4A48690  19.359  29.105   7.180
 3747POPC   C1B48691  19.696  28.745   6.171
 3747POPC   C2B48692  19.483  28.680   6.558
 3747POPC   C3B48693  19.603  28.710   6.961
 3747POPC   C4B48694  19.890  28.952   7.193
 3748POPC   NC348695  31.927  26.876   5.474
 3748POPC   PO448696  32.587  26.851   5.526
 3748POPC   GL148697  32.324  26.552   5.848
 3748POPC   GL248698  31.968  26.429   5.773
 3748POPC   C1A48699  32.353  26.475   6.323
 3748POPC   D2A48700  32.432  26.781   6.620
 3748POPC   C3A48701  32.304  26.671   7.015
 3748POPC   C4A48702  32.352  27.067   7.191
 3748POPC   C1B48703  31.959  26.747   6.150
 3748POPC   C2B48704  31.927  26.706   6.603
 3748POPC   C3B48705  31.893  26.960   6.974
 3748POPC   C4B48706  31.908  26.845   7.417
 3749POPC   NC348707  14.217   5.449   5.485
 3749POPC   PO448708  14.596   4.844   5.389
 3749POPC   GL148709  14.351   4.896   5.790
 3749POPC   GL248710  13.981   4.990   5.766
 3749POPC   C1A48711  14.357   5.149   6.173
 3749POPC   D2A48712  14.504   5.319   6.577
 3749POPC   C3A48713  14.495   5.064   6.947
 3749POPC   C4A48714  14.579   5.319   7.304
 3749POPC   C1B48715  13.920   4.847   6.176
 3749POPC   C2B48716  14.157   4.852   6.560
 3749POPC   C3B48717  14.092   4.726   6.971
 3749POPC   C4B48718  14.196   4.943   7.362
 3750POPC   NC348719  28.835   7.517   5.379
 3750POPC   PO448720  29.489   7.640   5.391
 3750POPC   GL148721  29.337   7.600   5.813
 3750POPC   GL248722  29.013   7.406   5.843
 3750POPC   C1A48723  29.393   7.502   6.249
 3750POPC   D2A48724  29.186   7.571   6.623
 3750POPC   C3A48725  29.367   7.633   7.011
 3750POPC   C4A48726  29.235   7.499   7.398
 3750POPC   C1B48727  28.884   7.302   6.262
 3750POPC   C2B48728  28.791   7.237   6.687
 3750POPC   C3B48729  28.759   7.054   7.096
 3750POPC   C4B48730  28.810   7.228   7.516
 3751POPC   NC348731  17.034  26.690   5.494
 3751POPC   PO448732  16.438  26.478   5.498
 3751POPC   GL148733  16.651  26.762   5.842
 3751POPC   GL248734  16.987  26.691   5.990
 3751POPC   C1A48735  16.657  26.949   6.276
 3751POPC   D2A48736  16.406  26.954   6.648
 3751POPC   C3A48737  16.570  26.947   7.062
 3751POPC   C4A48738  16.368  27.135   7.404
 3751POPC   C1B48739  17.079  26.641   6.418
 3751POPC   C2B48740  17.107  26.899   6.787
 3751POPC   C3B48741  17.047  26.797   7.211
 3751POPC   C4B48742  17.071  26.473   7.552
 3752POPC   NC348743  15.508  31.749   5.565
 3752POPC   PO448744  14.921  31.632   5.211
 3752POPC   GL148745  15.020  31.518   5.756
 3752POPC   GL248746  15.090  31.151   5.870
 3752POPC   C1A48747  15.135  31.740   6.228
 3752POPC   D2A48748  15.516  31.686   6.564
 3752POPC   C3A48749  15.400  31.718   7.005
 3752POPC   C4A48750  15.427  31.586   7.464
 3752POPC   C1B48751  15.130  31.243   6.303
 3752POPC   C2B48752  15.251  31.258   6.743
 3752POPC   C3B48753  15.051  31.371   7.140
 3752POPC   C4B48754  14.665  31.602   7.208
 3753POPC   NC348755  30.458  27.101   5.348
 3753POPC   PO448756  30.104  26.586   5.447
 3753POPC   GL148757  30.200  26.880   5.754
 3753POPC   GL248758  29.851  26.980   5.833
 3753POPC   C1A48759  30.191  26.955   6.220
 3753POPC   D2A48760  29.869  27.115   6.546
 3753POPC   C3A48761  29.776  26.872   6.918
 3753POPC   C4A48762  30.093  26.784   7.204
 3753POPC   C1B48763  29.535  26.894   6.197
 3753POPC   C2B48764  29.311  26.962   6.625
 3753POPC   C3B48765  29.294  26.964   7.094
 3753POPC   C4B48766  29.605  26.907   7.419
 3754POPC   NC348767  14.059   2.202   5.352
 3754POPC   PO448768  13.439   1.782   5.530
 3754POPC   GL148769  13.479   2.082   5.884
 3754POPC   GL248770  13.847   2.226   5.875
 3754POPC   C1A48771  13.266   2.214   6.293
 3754POPC   D2A48772  13.231   2.114   6.735
 3754POPC   C3A48773  13.649   2.065   6.885
 3754POPC   C4A48774  13.880   2.342   7.123
 3754POPC   C1B48775  13.769   2.112   6.325
 3754POPC   C2B48776  13.986   1.795   6.566
 3754POPC   C3B48777  14.105   1.820   6.983
 3754POPC   C4B48778  13.892   1.840   7.338
 3755POPC   NC348779  34.612  44.174   5.353
 3755POPC   PO448780  34.342  43.492   5.443
 3755POPC   GL148781  34.390  43.738   5.853
 3755POPC   GL248782  34.656  44.013   5.850
 3755POPC   C1A48783  34.560  43.804   6.299
 3755POPC   D2A48784  34.754  43.638   6.661
 3755POPC   C3A48785  34.515  43.876   6.901
 3755POPC   C4A48786  34.451  43.967   7.278
 3755POPC   C1B48787  34.836  44.258   6.219
 3755POPC   C2B48788  34.952  44.166   6.680
 3755POPC   C3B48789  34.813  44.323   7.101
 3755POPC   C4B48790  34.819  44.159   7.546
 3756POPC   NC348791  19.821   6.621   5.327
 3756POPC   PO448792  19.703   6.028   5.460
 3756POPC   GL148793  19.926   6.288   5.813
 3756POPC   GL248794  20.046   6.662   5.824
 3756POPC   C1A48795  19.890   6.402   6.263
 3756POPC   D2A48796  19.652   6.667   6.572
 3756POPC   C3A48797  19.838   6.652   6.950
 3756POPC   C4A48798  20.264   6.817   7.033
 3756POPC   C1B48799  19.738   6.883   6.117
 3756POPC   C2B48800  19.668   7.186   6.504
 3756POPC   C3B48801  19.905   7.194   6.930
 3756POPC   C4B48802  19.889   6.950   7.356
 3757POPC   NC348803  13.612  30.937   5.456
 3757POPC   PO448804  14.077  30.479   5.267
 3757POPC   GL148805  13.854  30.499   5.728
 3757POPC   GL248806  13.532  30.399   5.973
 3757POPC   C1A48807  13.794  30.791   6.113
 3757POPC   D2A48808  13.792  30.787   6.576
 3757POPC   C3A48809  13.491  30.636   6.884
 3757POPC   C4A48810  13.535  30.768   7.307
 3757POPC   C1B48811  13.895  30.262   6.193
 3757POPC   C2B48812  14.022  30.313   6.604
 3757POPC   C3B48813  13.841  30.217   7.006
 3757POPC   C4B48814  13.912  30.356   7.428
 3758POPC   NC348815  32.971  33.655   5.364
 3758POPC   PO448816  32.983  33.006   5.147
 3758POPC   GL148817  33.057  33.129   5.649
 3758POPC   GL248818  33.024  32.795   5.814
 3758POPC   C1A48819  32.967  33.143   6.158
 3758POPC   D2A48820  33.120  33.071   6.608
 3758POPC   C3A48821  32.977  33.146   7.058
 3758POPC   C4A48822  33.148  33.061   7.506
 3758POPC   C1B48823  32.649  32.745   6.129
 3758POPC   C2B48824  32.658  32.869   6.558
 3758POPC   C3B48825  32.652  32.716   6.989
 3758POPC   C4B48826  32.685  32.842   7.391
 3759POPC   NC348827  14.851  27.565   5.367
 3759POPC   PO448828  14.194  27.823   5.353
 3759POPC   GL148829  14.394  27.545   5.688
 3759POPC   GL248830  14.570  27.786   5.819
 3759POPC   C1A48831  14.524  27.402   6.152
 3759POPC   D2A48832  14.335  27.351   6.600
 3759POPC   C3A48833  14.325  27.389   7.071
 3759POPC   C4A48834  14.426  27.179   7.500
 3759POPC   C1B48835  14.344  27.987   6.190
 3759POPC   C2B48836  14.126  27.975   6.579
 3759POPC   C3B48837  14.210  27.902   7.023
 3759POPC   C4B48838  14.202  27.686   7.459
 3760POPC   NC348839  17.944  35.171   5.369
 3760POPC   PO448840  18.523  35.457   5.426
 3760POPC   GL148841  18.387  35.497   5.821
 3760POPC   GL248842  18.200  35.187   5.828
 3760POPC   C1A48843  18.435  35.468   6.266
 3760POPC   D2A48844  18.379  35.057   6.453
 3760POPC   C3A48845  18.370  35.098   6.890
 3760POPC   C4A48846  18.480  35.447   7.191
 3760POPC   C1B48847  17.974  35.266   6.198
 3760POPC   C2B48848  18.004  35.381   6.610
 3760POPC   C3B48849  17.897  35.225   6.988
 3760POPC   C4B48850  18.038  35.233   7.386
 3761POPC   NC348851  44.470  23.275   5.565
 3761POPC   PO448852  44.902  23.764   5.461
 3761POPC   GL148853  44.550  23.788   5.760
 3761POPC   GL248854  44.608  23.517   5.973
 3761POPC   C1A48855  44.353  23.890   6.180
 3761POPC   D2A48856  44.553  24.058   6.522
 3761POPC   C3A48857  44.670  23.783   6.829
 3761POPC   C4A48858  44.540  23.855   7.229
 3761POPC   C1B48859  44.804  23.657   6.323
 3761POPC   C2B48860   0.126  23.619   6.614
 3761POPC   C3B48861   0.054  23.388   6.974
 3761POPC   C4B48862  44.790  23.420   7.285
 3762POPC   NC348863  15.299   1.640   5.536
 3762POPC   PO448864  14.872   2.210   5.661
 3762POPC   GL148865  15.255   2.094   5.881
 3762POPC   GL248866  15.188   1.793   6.004
 3762POPC   C1A48867  15.431   2.076   6.343
 3762POPC   D2A48868  15.276   2.293   6.744
 3762POPC   C3A48869  15.363   2.162   7.187
 3762POPC   C4A48870  15.164   2.287   7.573
 3762POPC   C1B48871  15.154   1.625   6.408
 3762POPC   C2B48872  15.150   1.766   6.847
 3762POPC   C3B48873  15.197   1.641   7.286
 3762POPC   C4B48874  15.353   1.616   7.721
 3763POPC   NC348875  42.821  27.644   5.416
 3763POPC   PO448876  43.378  27.418   5.505
 3763POPC   GL148877  43.272  27.659   5.837
 3763POPC   GL248878  43.014  27.927   5.818
 3763POPC   C1A48879  43.204  27.460   6.209
 3763POPC   D2A48880  42.943  27.408   6.534
 3763POPC   C3A48881  43.227  27.389   6.894
 3763POPC   C4A48882  43.161  27.262   7.306
 3763POPC   C1B48883  42.822  27.824   6.241
 3763POPC   C2B48884  42.947  27.869   6.691
 3763POPC   C3B48885  42.938  27.734   7.115
 3763POPC   C4B48886  42.900  27.891   7.476
 3764POPC   NC348887  36.514  15.918   5.476
 3764POPC   PO448888  35.790  15.797   5.493
 3764POPC   GL148889  36.000  15.872   5.889
 3764POPC   GL248890  36.331  16.041   5.930
 3764POPC   C1A48891  36.167  15.678   6.268
 3764POPC   D2A48892  36.396  15.808   6.645
 3764POPC   C3A48893  36.170  15.729   7.030
 3764POPC   C4A48894  35.891  15.756   7.397
 3764POPC   C1B48895  36.460  16.425   6.133
 3764POPC   C2B48896  36.269  16.524   6.519
 3764POPC   C3B48897  36.216  16.262   6.892
 3764POPC   C4B48898  36.200  16.146   7.324
 3765POPC   NC348899  32.299  18.816   5.413
 3765POPC   PO448900  31.695  18.976   5.477
 3765POPC   GL148901  31.992  18.843   5.855
 3765POPC   GL248902  32.387  18.932   5.891
 3765POPC   C1A48903  32.138  18.865   6.332
 3765POPC   D2A48904  32.337  18.794   6.742
 3765POPC   C3A48905  32.097  18.913   7.111
 3765POPC   C4A48906  31.965  19.338   7.171
 3765POPC   C1B48907  32.457  19.273   6.193
 3765POPC   C2B48908  32.240  19.314   6.587
 3765POPC   C3B48909  32.420  19.298   6.970
 3765POPC   C4B48910  32.447  19.236   7.391
 3766POPC   NC348911  16.576  16.075   5.709
 3766POPC   PO448912  16.962  15.634   5.404
 3766POPC   GL148913  16.959  15.684   5.865
 3766POPC   GL248914  16.623  15.586   5.931
 3766POPC   C1A48915  16.901  15.892   6.294
 3766POPC   D2A48916  16.858  16.227   6.631
 3766POPC   C3A48917  16.932  15.958   7.013
 3766POPC   C4A48918  16.738  15.628   7.248
 3766POPC   C1B48919  16.381  15.740   6.280
 3766POPC   C2B48920  16.509  15.856   6.703
 3766POPC   C3B48921  16.446  16.095   7.087
 3766POPC   C4B48922  16.281  15.944   7.503
 3767POPC   NC348923  26.960  18.381   5.501
 3767POPC   PO448924  26.412  17.983   5.608
 3767POPC   GL148925  26.700  17.976   5.908
 3767POPC   GL248926  27.033  18.104   5.964
 3767POPC   C1A48927  26.676  18.215   6.282
 3767POPC   D2A48928  26.792  18.388   6.659
 3767POPC   C3A48929  26.824  18.100   7.005
 3767POPC   C4A48930  26.659  18.150   7.435
 3767POPC   C1B48931  27.129  18.504   6.196
 3767POPC   C2B48932  27.265  18.615   6.612
 3767POPC   C3B48933  27.116  18.514   7.026
 3767POPC   C4B48934  27.183  18.159   7.352
 3768POPC   NC348935  33.376  15.439   5.543
 3768POPC   PO448936  32.945  14.985   5.345
 3768POPC   GL148937  32.967  15.071   5.799
 3768POPC   GL248938  32.906  15.387   5.961
 3768POPC   C1A48939  32.944  14.890   6.227
 3768POPC   D2A48940  32.876  15.062   6.636
 3768POPC   C3A48941  33.238  15.042   6.904
 3768POPC   C4A48942  33.258  14.834   7.324
 3768POPC   C1B48943  32.671  15.536   6.349
 3768POPC   C2B48944  32.531  15.686   6.751
 3768POPC   C3B48945  32.576  15.472   7.117
 3768POPC   C4B48946  32.884  15.189   7.229
 3769POPC   NC348947  18.134  20.675   5.562
 3769POPC   PO448948  18.834  20.708   5.304
 3769POPC   GL148949  18.647  20.630   5.828
 3769POPC   GL248950  18.335  20.807   6.026
 3769POPC   C1A48951  18.454  20.380   6.233
 3769POPC   D2A48952  18.142  20.384   6.598
 3769POPC   C3A48953  18.398  20.437   6.983
 3769POPC   C4A48954  18.319  20.485   7.415
 3769POPC   C1B48955  18.094  20.863   6.380
 3769POPC   C2B48956  18.204  20.885   6.813
 3769POPC   C3B48957  18.003  20.832   7.193
 3769POPC   C4B48958  18.096  20.939   7.584
 3770POPC   NC348959  21.456  20.769   5.223
 3770POPC   PO448960  21.791  20.188   5.499
 3770POPC   GL148961  21.529  20.527   5.704
 3770POPC   GL248962  21.201  20.673   5.695
 3770POPC   C1A48963  21.538  20.818   6.108
 3770POPC   D2A48964  21.354  20.829   6.535
 3770POPC   C3A48965  21.597  20.759   6.919
 3770POPC   C4A48966  21.535  20.937   7.333
 3770POPC   C1B48967  21.240  20.400   6.091
 3770POPC   C2B48968  21.038  20.433   6.473
 3770POPC   C3B48969  21.200  20.413   6.846
 3770POPC   C4B48970  21.244  20.490   7.242
 3771POPC   NC348971   7.747  21.134   5.170
 3771POPC   PO448972   8.376  21.315   5.505
 3771POPC   GL148973   8.238  21.407   5.897
 3771POPC   GL248974   7.935  21.557   5.801
 3771POPC   C1A48975   8.229  21.373   6.344
 3771POPC   D2A48976   8.171  21.526   6.754
 3771POPC   C3A48977   8.433  21.430   7.098
 3771POPC   C4A48978   8.401  21.527   7.541
 3771POPC   C1B48979   7.745  21.505   6.208
 3771POPC   C2B48980   7.769  21.226   6.559
 3771POPC   C3B48981   7.729  21.392   6.981
 3771POPC   C4B48982   8.001  21.227   7.291
 3772POPC   NC348983  20.602  39.719   5.259
 3772POPC   PO448984  20.158  39.428   5.697
 3772POPC   GL148985  20.537  39.608   5.901
 3772POPC   GL248986  20.876  39.611   5.730
 3772POPC   C1A48987  20.632  39.450   6.318
 3772POPC   D2A48988  20.510  39.161   6.652
 3772POPC   C3A48989  20.470  39.270   7.069
 3772POPC   C4A48990  20.149  39.329   7.368
 3772POPC   C1B48991  21.101  39.383   6.118
 3772POPC   C2B48992  21.043  39.241   6.576
 3772POPC   C3B48993  20.976  39.408   6.987
 3772POPC   C4B48994  20.732  39.678   7.229
 3773POPC   NC348995  27.104  36.666   5.498
 3773POPC   PO448996  26.877  36.103   5.285
 3773POPC   GL148997  26.746  35.967   5.694
 3773POPC   GL248998  26.844  36.279   5.812
 3773POPC   C1A48999  26.724  35.945   6.188
 3773POPC   D2A49000  26.765  36.172   6.603
 3773POPC   C3A49001  26.868  35.918   6.930
 3773POPC   C4A49002  26.736  35.842   7.339
 3773POPC   C1B49003  26.983  36.439   6.211
 3773POPC   C2B49004  27.110  36.559   6.617
 3773POPC   C3B49005  27.211  36.310   6.944
 3773POPC   C4B49006  26.947  36.300   7.281
 3774POPC   NC349007  42.928  26.134   5.402
 3774POPC   PO449008  43.480  25.705   5.338
 3774POPC   GL149009  43.476  25.899   5.758
 3774POPC   GL249010  43.142  26.017   5.837
 3774POPC   C1A49011  43.443  25.947   6.233
 3774POPC   D2A49012  43.109  26.094   6.503
 3774POPC   C3A49013  43.030  25.963   6.914
 3774POPC   C4A49014  43.312  25.955   7.278
 3774POPC   C1B49015  43.054  26.387   6.084
 3774POPC   C2B49016  42.973  26.599   6.491
 3774POPC   C3B49017  42.856  26.465   6.879
 3774POPC   C4B49018  43.019  26.357   7.257
 3775POPC   NC349019  43.333  21.833   5.363
 3775POPC   PO449020  43.017  21.216   5.441
 3775POPC   GL149021  43.074  21.291   5.835
 3775POPC   GL249022  43.335  21.522   5.789
 3775POPC   C1A49023  43.197  21.124   6.215
 3775POPC   D2A49024  43.045  21.269   6.626
 3775POPC   C3A49025  42.946  21.194   7.037
 3775POPC   C4A49026  42.755  21.528   7.274
 3775POPC   C1B49027  43.560  21.479   6.200
 3775POPC   C2B49028  43.550  21.216   6.560
 3775POPC   C3B49029  43.454  21.175   6.963
 3775POPC   C4B49030  43.342  21.188   7.356
 3776POPC   NC349031  44.978  19.795   5.224
 3776POPC   PO449032   0.603  19.891   5.322
 3776POPC   GL149033   0.420  19.821   5.711
 3776POPC   GL249034   0.719  19.999   5.820
 3776POPC   C1A49035   0.311  19.748   6.140
 3776POPC   D2A49036   0.119  19.811   6.550
 3776POPC   C3A49037   0.318  19.702   6.918
 3776POPC   C4A49038   0.568  19.761   7.245
 3776POPC   C1B49039   0.647  20.143   6.207
 3776POPC   C2B49040   0.634  19.946   6.571
 3776POPC   C3B49041   0.587  20.160   6.941
 3776POPC   C4B49042   0.431  20.302   7.302
 3777POPC   NC349043   5.567  12.732   5.381
 3777POPC   PO449044   5.887  12.170   5.527
 3777POPC   GL149045   5.928  12.161   5.912
 3777POPC   GL249046   6.212  11.939   5.882
 3777POPC   C1A49047   5.756  12.335   6.298
 3777POPC   D2A49048   5.517  12.215   6.658
 3777POPC   C3A49049   5.709  12.095   7.060
 3777POPC   C4A49050   5.855  12.332   7.360
 3777POPC   C1B49051   6.051  11.888   6.307
 3777POPC   C2B49052   6.078  12.108   6.672
 3777POPC   C3B49053   6.128  11.794   6.947
 3777POPC   C4B49054   6.099  11.795   7.338
 3778POPC   NC349055  29.043  20.783   5.277
 3778POPC   PO449056  28.821  20.183   5.322
 3778POPC   GL149057  28.884  20.530   5.704
 3778POPC   GL249058  29.077  20.851   5.770
 3778POPC   C1A49059  29.039  20.443   6.153
 3778POPC   D2A49060  29.343  20.509   6.492
 3778POPC   C3A49061  29.173  20.497   6.893
 3778POPC   C4A49062  28.934  20.478   7.233
 3778POPC   C1B49063  29.250  20.919   6.152
 3778POPC   C2B49064  29.274  21.061   6.535
 3778POPC   C3B49065  29.450  20.935   6.882
 3778POPC   C4B49066  29.102  20.951   7.140
 3779POPC   NC349067  14.541  31.541   5.440
 3779POPC   PO449068  13.927  31.315   5.449
 3779POPC   GL149069  14.209  31.449   5.809
 3779POPC   GL249070  14.526  31.263   5.869
 3779POPC   C1A49071  14.428  31.762   6.080
 3779POPC   D2A49072  14.466  31.780   6.539
 3779POPC   C3A49073  14.280  31.445   6.787
 3779POPC   C4A49074  14.147  31.567   7.176
 3779POPC   C1B49075  14.642  31.083   6.245
 3779POPC   C2B49076  14.745  31.284   6.638
 3779POPC   C3B49077  14.627  31.122   7.004
 3779POPC   C4B49078  14.274  31.090   7.256
 3780POPC   NC349079   2.178  12.986   5.394
 3780POPC   PO449080   1.697  12.536   5.432
 3780POPC   GL149081   1.808  12.790   5.809
 3780POPC   GL249082   2.168  12.870   5.930
 3780POPC   C1A49083   1.784  12.930   6.254
 3780POPC   D2A49084   2.122  13.101   6.553
 3780POPC   C3A49085   2.051  13.025   6.991
 3780POPC   C4A49086   1.683  12.985   7.231
 3780POPC   C1B49087   2.196  12.625   6.376
 3780POPC   C2B49088   1.948  12.486   6.766
 3780POPC   C3B49089   1.982  12.563   7.244
 3780POPC   C4B49090   2.395  12.666   7.446
 3781POPC   NC349091   6.282  21.545   5.550
 3781POPC   PO449092   5.758  21.320   5.271
 3781POPC   GL149093   5.874  21.293   5.716
 3781POPC   GL249094   5.772  21.674   5.705
 3781POPC   C1A49095   6.186  21.309   6.132
 3781POPC   D2A49096   6.357  21.415   6.547
 3781POPC   C3A49097   6.145  21.410   6.901
 3781POPC   C4A49098   6.097  21.150   7.317
 3781POPC   C1B49099   5.705  21.493   6.138
 3781POPC   C2B49100   5.792  21.323   6.514
 3781POPC   C3B49101   5.639  21.438   6.916
 3781POPC   C4B49102   5.876  21.592   7.301
 3782POPC   NC349103   7.385  16.307   5.257
 3782POPC   PO449104   7.673  15.689   5.509
 3782POPC   GL149105   7.631  15.963   5.817
 3782POPC   GL249106   7.300  16.065   5.795
 3782POPC   C1A49107   7.654  15.900   6.232
 3782POPC   D2A49108   7.384  15.982   6.539
 3782POPC   C3A49109   7.604  16.031   6.909
 3782POPC   C4A49110   7.537  16.154   7.322
 3782POPC   C1B49111   7.148  15.746   6.112
 3782POPC   C2B49112   7.036  15.603   6.534
 3782POPC   C3B49113   7.120  15.777   6.944
 3782POPC   C4B49114   7.009  16.025   7.305
 3783POPC   NC349115  36.361  43.679   5.445
 3783POPC   PO449116  36.131  44.219   5.612
 3783POPC   GL149117  36.209  43.885   5.906
 3783POPC   GL249118  36.009  43.591   5.819
 3783POPC   C1A49119  36.220  43.980   6.337
 3783POPC   D2A49120  36.437  44.272   6.596
 3783POPC   C3A49121  36.197  44.112   6.915
 3783POPC   C4A49122  36.248  43.757   7.151
 3783POPC   C1B49123  36.090  43.482   6.241
 3783POPC   C2B49124  36.124  43.526   6.680
 3783POPC   C3B49125  35.880  43.431   7.032
 3783POPC   C4B49126  36.073  43.312   7.396
 3784POPC   NC349127  14.859  14.007   5.236
 3784POPC   PO449128  15.456  14.388   5.396
 3784POPC   GL149129  15.274  14.324   5.799
 3784POPC   GL249130  15.116  14.006   5.819
 3784POPC   C1A49131  15.065  14.438   6.191
 3784POPC   D2A49132  15.019  14.329   6.620
 3784POPC   C3A49133  14.992  14.554   6.996
 3784POPC   C4A49134  15.285  14.382   7.216
 3784POPC   C1B49135  15.001  13.908   6.230
 3784POPC   C2B49136  14.839  13.847   6.623
 3784POPC   C3B49137  14.835  14.053   7.015
 3784POPC   C4B49138  15.017  13.985   7.387
 3785POPC   NC349139  30.237  31.881   5.403
 3785POPC   PO449140  29.655  32.299   5.466
 3785POPC   GL149141  29.899  32.420   5.835
 3785POPC   GL249142  30.207  32.225   5.821
 3785POPC   C1A49143  30.123  32.524   6.233
 3785POPC   D2A49144  30.113  32.291   6.620
 3785POPC   C3A49145  30.010  32.497   6.989
 3785POPC   C4A49146  29.753  32.560   7.331
 3785POPC   C1B49147  30.008  32.022   6.194
 3785POPC   C2B49148  29.929  31.816   6.590
 3785POPC   C3B49149  30.060  31.945   6.978
 3785POPC   C4B49150  29.974  32.107   7.356
 3786POPC   NC349151  18.478   8.554   5.502
 3786POPC   PO449152  18.571   9.269   5.476
 3786POPC   GL149153  18.282   9.071   5.760
 3786POPC   GL249154  18.357   8.759   5.950
 3786POPC   C1A49155  18.214   9.186   6.190
 3786POPC   D2A49156  18.354   8.945   6.542
 3786POPC   C3A49157  18.064   8.881   6.864
 3786POPC   C4A49158  18.185   9.145   7.175
 3786POPC   C1B49159  18.652   8.623   6.263
 3786POPC   C2B49160  18.572   8.492   6.696
 3786POPC   C3B49161  18.523   8.708   7.075
 3786POPC   C4B49162  18.190   8.674   7.326
 3787POPC   NC349163  35.311   1.378   5.641
 3787POPC   PO449164  35.258   2.013   5.341
 3787POPC   GL149165  35.190   1.996   5.754
 3787POPC   GL249166  34.910   1.811   5.825
 3787POPC   C1A49167  35.419   2.201   6.094
 3787POPC   D2A49168  35.660   2.140   6.465
 3787POPC   C3A49169  35.448   2.129   6.853
 3787POPC   C4A49170  35.504   1.839   7.149
 3787POPC   C1B49171  34.935   2.052   6.206
 3787POPC   C2B49172  34.962   1.977   6.647
 3787POPC   C3B49173  35.006   1.801   7.049
 3787POPC   C4B49174  35.095   1.887   7.457
 3788POPC   NC349175  36.812   4.768   5.509
 3788POPC   PO449176  37.233   5.302   5.495
 3788POPC   GL149177  36.985   5.136   5.814
 3788POPC   GL249178  37.185   4.859   5.851
 3788POPC   C1A49179  36.822   5.019   6.214
 3788POPC   D2A49180  36.923   5.210   6.610
 3788POPC   C3A49181  36.640   5.288   6.914
 3788POPC   C4A49182  36.813   5.275   7.294
 3788POPC   C1B49183  37.111   4.595   6.213
 3788POPC   C2B49184  36.947   4.696   6.610
 3788POPC   C3B49185  36.931   4.858   7.010
 3788POPC   C4B49186  37.200   4.652   7.291
 3789POPC   NC349187  11.506  32.961   5.374
 3789POPC   PO449188  10.813  32.821   5.521
 3789POPC   GL149189  11.172  32.947   5.810
 3789POPC   GL249190  11.512  32.879   5.914
 3789POPC   C1A49191  11.164  33.132   6.234
 3789POPC   D2A49192  10.990  33.203   6.659
 3789POPC   C3A49193  11.140  33.081   7.050
 3789POPC   C4A49194  11.366  32.958   7.389
 3789POPC   C1B49195  11.606  32.938   6.381
 3789POPC   C2B49196  11.522  33.242   6.725
 3789POPC   C3B49197  11.692  33.296   7.150
 3789POPC   C4B49198  11.712  33.252   7.635
 3790POPC   NC349199   7.817  32.745   5.421
 3790POPC   PO449200   7.364  33.178   5.177
 3790POPC   GL149201   7.491  33.221   5.697
 3790POPC   GL249202   7.534  32.873   5.813
 3790POPC   C1A49203   7.300  33.131   6.144
 3790POPC   D2A49204   7.282  33.189   6.571
 3790POPC   C3A49205   7.098  32.992   6.920
 3790POPC   C4A49206   7.386  32.909   7.208
 3790POPC   C1B49207   7.628  32.721   6.218
 3790POPC   C2B49208   7.534  32.697   6.677
 3790POPC   C3B49209   7.827  32.704   7.049
 3790POPC   C4B49210   7.751  32.744   7.507
 3791POPC   NC349211  17.579   8.657   5.443
 3791POPC   PO449212  17.682   9.372   5.367
 3791POPC   GL149213  17.738   9.102   5.699
 3791POPC   GL249214  17.386   9.088   5.759
 3791POPC   C1A49215  17.702   9.078   6.153
 3791POPC   D2A49216  17.559   9.340   6.482
 3791POPC   C3A49217  17.496   9.127   6.887
 3791POPC   C4A49218  17.709   9.072   7.274
 3791POPC   C1B49219  17.257   8.745   6.073
 3791POPC   C2B49220  17.133   8.608   6.508
 3791POPC   C3B49221  17.276   8.634   6.948
 3791POPC   C4B49222  17.205   8.948   7.322
 3792POPC   NC349223  44.589  43.512   5.212
 3792POPC   PO449224  44.394  42.951   5.651
 3792POPC   GL149225  44.597  42.977   6.012
 3792POPC   GL249226  44.709  43.334   6.043
 3792POPC   C1A49227  44.629  42.865   6.434
 3792POPC   D2A49228  44.892  43.059   6.701
 3792POPC   C3A49229  44.787  43.014   7.067
 3792POPC   C4A49230  44.773  43.402   7.201
 3792POPC   C1B49231  44.366  43.303   6.349
 3792POPC   C2B49232  44.422  43.258   6.801
 3792POPC   C3B49233  44.239  43.454   7.157
 3792POPC   C4B49234  44.439  43.656   7.525
 3793POPC   NC349235  15.443   9.613   5.205
 3793POPC   PO449236  14.771   9.649   5.327
 3793POPC   GL149237  15.057   9.674   5.731
 3793POPC   GL249238  15.388   9.514   5.712
 3793POPC   C1A49239  15.105   9.502   6.180
 3793POPC   D2A49240  15.095   9.301   6.611
 3793POPC   C3A49241  14.943   9.582   6.951
 3793POPC   C4A49242  14.936   9.575   7.394
 3793POPC   C1B49243  15.526   9.801   6.040
 3793POPC   C2B49244  15.630   9.847   6.471
 3793POPC   C3B49245  15.429   9.678   6.845
 3793POPC   C4B49246  15.415   9.712   7.273
 3794POPC   NC349247  12.669  42.280   5.370
 3794POPC   PO449248  13.383  42.382   5.385
 3794POPC   GL149249  13.050  42.364   5.754
 3794POPC   GL249250  12.773  42.090   5.834
 3794POPC   C1A49251  12.918  42.484   6.192
 3794POPC   D2A49252  12.879  42.665   6.624
 3794POPC   C3A49253  12.880  42.308   6.921
 3794POPC   C4A49254  13.004  42.170   7.336
 3794POPC   C1B49255  12.465  42.407   5.993
 3794POPC   C2B49256  12.410  42.572   6.401
 3794POPC   C3B49257  12.445  42.629   6.882
 3794POPC   C4B49258  12.567  42.498   7.275
 3795POPC   NC349259  20.883  16.624   5.519
 3795POPC   PO449260  20.399  17.062   5.702
 3795POPC   GL149261  20.364  16.802   5.996
 3795POPC   GL249262  20.509  16.535   5.859
 3795POPC   C1A49263  20.343  16.837   6.410
 3795POPC   D2A49264  20.607  17.045   6.643
 3795POPC   C3A49265  20.546  16.980   7.029
 3795POPC   C4A49266  20.322  17.223   7.300
 3795POPC   C1B49267  20.747  16.551   6.255
 3795POPC   C2B49268  20.622  16.522   6.706
 3795POPC   C3B49269  20.819  16.528   7.100
 3795POPC   C4B49270  20.992  16.483   7.491
 3796POPC   NC349271   0.622   6.126   5.401
 3796POPC   PO449272   0.617   5.496   5.637
 3796POPC   GL149273   0.430   5.823   5.808
 3796POPC   GL249274   0.118   5.633   5.845
 3796POPC   C1A49275   0.210   6.087   6.094
 3796POPC   D2A49276   0.079   6.189   6.514
 3796POPC   C3A49277   0.398   6.086   6.813
 3796POPC   C4A49278   0.431   5.872   7.181
 3796POPC   C1B49279   0.319   5.556   6.253
 3796POPC   C2B49280   0.479   5.591   6.691
 3796POPC   C3B49281   0.215   5.446   7.041
 3796POPC   C4B49282   0.067   5.530   7.480
 3797POPC   NC349283   4.348  29.824   5.406
 3797POPC   PO449284   3.690  29.924   5.514
 3797POPC   GL149285   4.128  30.061   5.812
 3797POPC   GL249286   4.516  30.040   5.833
 3797POPC   C1A49287   4.288  30.244   6.221
 3797POPC   D2A49288   4.418  29.990   6.598
 3797POPC   C3A49289   4.357  30.178   7.020
 3797POPC   C4A49290   4.216  30.125   7.461
 3797POPC   C1B49291   4.687  29.759   6.195
 3797POPC   C2B49292   4.695  29.520   6.618
 3797POPC   C3B49293   4.456  29.646   6.990
 3797POPC   C4B49294   4.633  29.872   7.357
 3798POPC   NC349295  35.953  18.110   5.494
 3798POPC   PO449296  35.987  18.696   5.155
 3798POPC   GL149297  36.238  18.626   5.626
 3798POPC   GL249298  36.314  18.308   5.781
 3798POPC   C1A49299  36.179  18.585   6.157
 3798POPC   D2A49300  36.281  18.339   6.548
 3798POPC   C3A49301  36.239  18.508   6.969
 3798POPC   C4A49302  35.920  18.475   7.266
 3798POPC   C1B49303  36.557  18.179   6.138
 3798POPC   C2B49304  36.545  17.892   6.458
 3798POPC   C3B49305  36.453  17.972   6.891
 3798POPC   C4B49306  36.278  17.729   7.204
 3799POPC   NC349307  40.357   9.081   5.472
 3799POPC   PO449308  40.933   8.796   5.332
 3799POPC   GL149309  40.799   8.936   5.730
 3799POPC   GL249310  40.489   8.745   5.822
 3799POPC   C1A49311  40.924   8.754   6.128
 3799POPC   D2A49312  41.092   8.677   6.551
 3799POPC   C3A49313  40.910   8.777   6.961
 3799POPC   C4A49314  40.780   9.064   7.263
 3799POPC   C1B49315  40.458   9.021   6.152
 3799POPC   C2B49316  40.661   8.955   6.526
 3799POPC   C3B49317  40.468   9.039   6.878
 3799POPC   C4B49318  40.266   9.009   7.261
 3800POPC   NC349319   9.367  19.961   5.581
 3800POPC   PO449320   9.738  19.540   5.307
 3800POPC   GL149321   9.753  19.754   5.823
 3800POPC   GL249322   9.514  19.712   6.120
 3800POPC   C1A49323  10.007  19.778   6.206
 3800POPC   D2A49324   9.746  19.869   6.587
 3800POPC   C3A49325   9.951  19.774   6.948
 3800POPC   C4A49326   9.855  19.632   7.358
 3800POPC   C1B49327   9.675  20.164   6.162
 3800POPC   C2B49328   9.632  20.379   6.544
 3800POPC   C3B49329   9.463  20.216   6.906
 3800POPC   C4B49330   9.752  20.132   7.239
 3801POPC   NC349331   7.456   1.065   5.422
 3801POPC   PO449332   7.105   1.421   5.848
 3801POPC   GL149333   7.536   1.309   5.889
 3801POPC   GL249334   7.577   0.930   5.895
 3801POPC   C1A49335   7.736   1.225   6.271
 3801POPC   D2A49336   7.535   1.160   6.639
 3801POPC   C3A49337   7.746   1.236   6.973
 3801POPC   C4A49338   7.586   1.315   7.351
 3801POPC   C1B49339   7.289   0.898   6.237
 3801POPC   C2B49340   7.192   0.780   6.674
 3801POPC   C3B49341   7.270   1.006   7.085
 3801POPC   C4B49342   7.130   0.897   7.564
 3802POPC   NC349343   7.703   6.892   5.581
 3802POPC   PO449344   7.259   6.506   5.204
 3802POPC   GL149345   7.213   6.721   5.677
 3802POPC   GL249346   7.451   6.608   5.907
 3802POPC   C1A49347   7.050   6.776   6.166
 3802POPC   D2A49348   7.155   6.673   6.645
 3802POPC   C3A49349   7.201   6.797   7.109
 3802POPC   C4A49350   7.437   6.726   7.507
 3802POPC   C1B49351   7.521   6.515   6.302
 3802POPC   C2B49352   7.711   6.774   6.600
 3802POPC   C3B49353   7.714   6.717   7.016
 3802POPC   C4B49354   7.764   6.376   7.290
 3803POPC   NC349355  40.412  39.752   5.531
 3803POPC   PO449356  41.084  40.045   5.428
 3803POPC   GL149357  40.912  40.084   5.841
 3803POPC   GL249358  40.573  40.207   5.941
 3803POPC   C1A49359  41.031  40.277   6.207
 3803POPC   D2A49360  40.865  40.327   6.603
 3803POPC   C3A49361  40.730  40.004   6.820
 3803POPC   C4A49362  40.740  40.113   7.231
 3803POPC   C1B49363  40.413  39.875   6.254
 3803POPC   C2B49364  40.399  39.606   6.650
 3803POPC   C3B49365  40.564  39.594   7.084
 3803POPC   C4B49366  40.630  39.710   7.510
 3804POPC   NC349367  33.324  25.739   5.596
 3804POPC   PO449368  33.834  26.213   5.428
 3804POPC   GL149369  33.918  26.224   5.845
 3804POPC   GL249370  33.790  25.888   5.903
 3804POPC   C1A49371  33.850  26.195   6.302
 3804POPC   D2A49372  33.692  26.029   6.665
 3804POPC   C3A49373  33.798  26.169   7.067
 3804POPC   C4A49374  33.417  26.076   7.283
 3804POPC   C1B49375  33.550  25.724   6.257
 3804POPC   C2B49376  33.521  25.507   6.665
 3804POPC   C3B49377  33.646  25.671   7.041
 3804POPC   C4B49378  34.101  25.769   7.157
 3805POPC   NC349379  23.510  26.440   5.342
 3805POPC   PO449380  23.931  26.957   5.463
 3805POPC   GL149381  23.750  26.778   5.798
 3805POPC   GL249382  23.765  26.438   5.811
 3805POPC   C1A49383  23.537  26.718   6.187
 3805POPC   D2A49384  23.306  26.784   6.550
 3805POPC   C3A49385  23.547  26.973   6.867
 3805POPC   C4A49386  23.799  27.051   7.189
 3805POPC   C1B49387  23.826  26.296   6.272
 3805POPC   C2B49388  23.720  26.494   6.688
 3805POPC   C3B49389  23.448  26.501   7.078
 3805POPC   C4B49390  23.332  26.352   7.512
 3806POPC   NC349391   0.964  42.566   5.422
 3806POPC   PO449392   1.484  42.939   5.533
 3806POPC   GL149393   1.334  42.547   5.791
 3806POPC   GL249394   1.169  42.205   5.783
 3806POPC   C1A49395   1.186  42.446   6.225
 3806POPC   D2A49396   1.467  42.321   6.537
 3806POPC   C3A49397   1.279  42.469   6.905
 3806POPC   C4A49398   1.224  42.316   7.273
 3806POPC   C1B49399   1.007  41.960   6.176
 3806POPC   C2B49400   0.976  42.086   6.593
 3806POPC   C3B49401   0.839  42.135   7.000
 3806POPC   C4B49402   0.697  41.811   7.273
 3807POPC   NC349403  30.222  10.552   5.298
 3807POPC   PO449404  29.550  10.248   5.393
 3807POPC   GL149405  29.792  10.422   5.710
 3807POPC   GL249406  30.129  10.601   5.801
 3807POPC   C1A49407  29.768  10.474   6.144
 3807POPC   D2A49408  29.727  10.375   6.562
 3807POPC   C3A49409  29.852  10.701   6.840
 3807POPC   C4A49410  30.009  10.499   7.177
 3807POPC   C1B49411  30.275  10.538   6.229
 3807POPC   C2B49412  30.262  10.841   6.558
 3807POPC   C3B49413  30.396  10.779   6.976
 3807POPC   C4B49414  30.194  10.921   7.334
 3808POPC   NC349415  38.525  19.489   5.568
 3808POPC   PO449416  38.140  18.903   5.481
 3808POPC   GL149417  38.357  19.072   5.820
 3808POPC   GL249418  38.117  19.357   5.914
 3808POPC   C1A49419  38.452  18.902   6.226
 3808POPC   D2A49420  38.373  19.155   6.563
 3808POPC   C3A49421  38.471  19.054   6.967
 3808POPC   C4A49422  38.665  19.161   7.348
 3808POPC   C1B49423  37.966  18.981   6.162
 3808POPC   C2B49424  38.057  18.763   6.587
 3808POPC   C3B49425  37.948  18.976   7.003
 3808POPC   C4B49426  38.162  19.099   7.418
 3809POPC   NC349427  17.905  11.499   5.168
 3809POPC   PO449428  17.466  11.097   5.509
 3809POPC   GL149429  17.592  10.981   5.926
 3809POPC   GL249430  17.573  11.355   5.964
 3809POPC   C1A49431  17.666  11.087   6.377
 3809POPC   D2A49432  17.501  11.384   6.658
 3809POPC   C3A49433  17.668  11.272   7.044
 3809POPC   C4A49434  17.566  11.104   7.451
 3809POPC   C1B49435  17.299  11.579   6.220
 3809POPC   C2B49436  17.279  11.867   6.544
 3809POPC   C3B49437  17.277  11.760   6.963
 3809POPC   C4B49438  17.346  11.540   7.331
 3810POPC   NC349439   2.239  17.847   5.557
 3810POPC   PO449440   1.924  17.260   5.506
 3810POPC   GL149441   1.976  17.543   5.856
 3810POPC   GL249442   2.313  17.527   5.959
 3810POPC   C1A49443   1.946  17.832   6.196
 3810POPC   D2A49444   2.093  17.665   6.518
 3810POPC   C3A49445   2.004  17.852   6.885
 3810POPC   C4A49446   1.831  17.699   7.256
 3810POPC   C1B49447   2.138  17.184   6.191
 3810POPC   C2B49448   2.010  17.137   6.596
 3810POPC   C3B49449   2.104  17.350   6.934
 3810POPC   C4B49450   2.124  17.267   7.297
 3811POPC   NC349451  17.661  33.552   5.485
 3811POPC   PO449452  17.057  33.497   5.435
 3811POPC   GL149453  17.258  33.747   5.780
 3811POPC   GL249454  17.585  33.945   5.796
 3811POPC   C1A49455  17.312  33.859   6.218
 3811POPC   D2A49456  17.392  33.638   6.590
 3811POPC   C3A49457  17.308  33.913   6.943
 3811POPC   C4A49458  17.046  34.271   7.083
 3811POPC   C1B49459  17.779  33.652   6.128
 3811POPC   C2B49460  17.895  33.713   6.560
 3811POPC   C3B49461  17.769  33.523   6.943
 3811POPC   C4B49462  17.686  33.806   7.262
 3812POPC   NC349463  42.448  22.295   5.427
 3812POPC   PO449464  42.253  21.684   5.527
 3812POPC   GL149465  42.309  22.032   5.838
 3812POPC   GL249466  42.633  22.207   5.901
 3812POPC   C1A49467  42.235  22.145   6.258
 3812POPC   D2A49468  42.277  21.913   6.616
 3812POPC   C3A49469  42.070  22.126   6.913
 3812POPC   C4A49470  42.086  22.179   7.320
 3812POPC   C1B49471  42.661  21.903   6.259
 3812POPC   C2B49472  42.834  21.925   6.668
 3812POPC   C3B49473  42.567  21.951   7.037
 3812POPC   C4B49474  42.560  22.086   7.453
 3813POPC   NC349475  44.830  30.538   5.520
 3813POPC   PO449476  44.584  31.146   5.551
 3813POPC   GL149477  44.657  30.998   5.902
 3813POPC   GL249478  44.935  30.779   5.956
 3813POPC   C1A49479  44.517  31.002   6.288
 3813POPC   D2A49480  44.487  30.752   6.668
 3813POPC   C3A49481  44.743  30.871   7.012
 3813POPC   C4A49482  44.665  30.948   7.433
 3813POPC   C1B49483  44.624  30.511   6.204
 3813POPC   C2B49484  44.687  30.222   6.551
 3813POPC   C3B49485  44.718  30.346   6.989
 3813POPC   C4B49486  44.889  30.222   7.382
 3814POPC   NC349487  18.594  26.199   5.475
 3814POPC   PO449488  17.976  25.772   5.472
 3814POPC   GL149489  18.205  25.965   5.778
 3814POPC   GL249490  18.474  25.773   5.755
 3814POPC   C1A49491  18.298  26.216   6.136
 3814POPC   D2A49492  18.013  26.324   6.504
 3814POPC   C3A49493  18.169  26.157   6.886
 3814POPC   C4A49494  18.262  25.979   7.273
 3814POPC   C1B49495  18.565  25.771   6.150
 3814POPC   C2B49496  18.354  25.859   6.506
 3814POPC   C3B49497  18.489  25.743   6.892
 3814POPC   C4B49498  18.771  25.834   7.212
 3815POPC   NC349499  31.040  19.869   5.514
 3815POPC   PO449500  30.462  20.245   5.532
 3815POPC   GL149501  30.608  20.071   5.947
 3815POPC   GL249502  30.953  20.072   5.987
 3815POPC   C1A49503  30.387  19.846   6.313
 3815POPC   D2A49504  30.198  19.990   6.710
 3815POPC   C3A49505  30.543  19.989   7.049
 3815POPC   C4A49506  30.405  19.987   7.485
 3815POPC   C1B49507  30.861  19.666   6.203
 3815POPC   C2B49508  30.814  19.516   6.591
 3815POPC   C3B49509  30.725  19.495   7.016
 3815POPC   C4B49510  30.748  19.648   7.414
 3816POPC   NC349511   3.687  31.352   5.496
 3816POPC   PO449512   3.105  31.299   5.518
 3816POPC   GL149513   3.278  31.466   5.876
 3816POPC   GL249514   3.447  31.757   5.775
 3816POPC   C1A49515   3.289  31.437   6.329
 3816POPC   D2A49516   3.278  31.085   6.626
 3816POPC   C3A49517   3.629  31.121   6.906
 3816POPC   C4A49518   3.626  31.179   7.345
 3816POPC   C1B49519   3.695  31.735   6.167
 3816POPC   C2B49520   3.714  31.578   6.624
 3816POPC   C3B49521   3.562  31.610   7.066
 3816POPC   C4B49522   3.625  31.670   7.525
 3817POPC   NC349523  38.609   7.016   5.598
 3817POPC   PO449524  38.365   6.469   5.304
 3817POPC   GL149525  38.340   6.590   5.752
 3817POPC   GL249526  38.162   6.908   5.826
 3817POPC   C1A49527  38.540   6.478   6.153
 3817POPC   D2A49528  38.719   6.680   6.540
 3817POPC   C3A49529  38.508   6.498   6.894
 3817POPC   C4A49530  38.387   6.587   7.304
 3817POPC   C1B49531  38.388   6.986   6.214
 3817POPC   C2B49532  38.259   6.895   6.621
 3817POPC   C3B49533  38.414   7.036   6.995
 3817POPC   C4B49534  38.259   7.066   7.396
 3818POPC   NC349535  17.904  31.404   5.417
 3818POPC   PO449536  17.243  31.470   5.641
 3818POPC   GL149537  17.543  31.552   5.949
 3818POPC   GL249538  17.789  31.753   5.834
 3818POPC   C1A49539  17.546  31.526   6.384
 3818POPC   D2A49540  17.425  31.806   6.709
 3818POPC   C3A49541  17.439  31.596   7.073
 3818POPC   C4A49542  17.280  31.172   7.146
 3818POPC   C1B49543  17.856  31.923   6.233
 3818POPC   C2B49544  17.920  31.753   6.655
 3818POPC   C3B49545  17.934  31.774   7.118
 3818POPC   C4B49546  17.714  31.628   7.510
 3819POPC   NC349547   3.097  20.204   5.398
 3819POPC   PO449548   3.706  20.369   5.497
 3819POPC   GL149549   3.416  20.344   5.850
 3819POPC   GL249550   3.240  20.028   5.866
 3819POPC   C1A49551   3.549  20.248   6.303
 3819POPC   D2A49552   3.792  20.424   6.668
 3819POPC   C3A49553   3.567  20.587   7.017
 3819POPC   C4A49554   3.237  20.876   7.192
 3819POPC   C1B49555   3.052  20.254   6.228
 3819POPC   C2B49556   3.199  20.348   6.677
 3819POPC   C3B49557   3.142  20.355   7.137
 3819POPC   C4B49558   2.923  20.572   7.491
 3820POPC   NC349559  34.977  28.211   5.593
 3820POPC   PO449560  35.667  28.400   5.612
 3820POPC   GL149561  35.352  28.464   5.875
 3820POPC   GL249562  35.342  28.103   5.951
 3820POPC   C1A49563  35.264  28.513   6.307
 3820POPC   D2A49564  35.469  28.365   6.682
 3820POPC   C3A49565  35.380  28.675   7.029
 3820POPC   C4A49566  35.201  28.642   7.438
 3820POPC   C1B49567  35.053  28.042   6.280
 3820POPC   C2B49568  34.995  28.197   6.703
 3820POPC   C3B49569  35.187  28.214   7.094
 3820POPC   C4B49570  35.054  28.116   7.473
 3821POPC   NC349571  25.016   7.864   5.565
 3821POPC   PO449572  25.552   8.209   5.331
 3821POPC   GL149573  25.486   8.299   5.787
 3821POPC   GL249574  25.166   8.184   6.018
 3821POPC   C1A49575  25.594   8.353   6.241
 3821POPC   D2A49576  25.362   8.139   6.598
 3821POPC   C3A49577  25.570   8.086   7.017
 3821POPC   C4A49578  25.524   8.369   7.388
 3821POPC   C1B49579  24.780   7.943   6.202
 3821POPC   C2B49580  24.747   7.753   6.612
 3821POPC   C3B49581  25.041   7.863   6.917
 3821POPC   C4B49582  25.096   8.176   7.201
 3822POPC   NC349583   8.776  21.095   5.437
 3822POPC   PO449584   8.853  20.367   5.413
 3822POPC   GL149585   8.868  20.490   5.822
 3822POPC   GL249586   9.043  20.803   5.828
 3822POPC   C1A49587   8.950  20.520   6.254
 3822POPC   D2A49588   9.171  20.578   6.612
 3822POPC   C3A49589   8.985  20.557   7.011
 3822POPC   C4A49590   9.038  20.367   7.456
 3822POPC   C1B49591   9.103  21.003   6.252
 3822POPC   C2B49592   8.997  21.054   6.671
 3822POPC   C3B49593   9.129  21.069   7.070
 3822POPC   C4B49594   9.041  20.873   7.406
 3823POPC   NC349595  38.667  44.396   5.250
 3823POPC   PO449596  38.080  44.680   5.495
 3823POPC   GL149597  38.300  44.778   5.872
 3823POPC   GL249598  38.696  44.883   5.819
 3823POPC   C1A49599  38.137  44.835   6.253
 3823POPC   D2A49600  38.378  44.736   6.589
 3823POPC   C3A49601  38.183  44.806   6.974
 3823POPC   C4A49602  38.039  44.570   7.321
 3823POPC   C1B49603  38.784  44.623   6.216
 3823POPC   C2B49604  38.863  44.453   6.626
 3823POPC   C3B49605  38.684  44.642   6.974
 3823POPC   C4B49606  38.543  44.529   7.325
 3824POPC   NC349607  41.660  24.492   5.295
 3824POPC   PO449608  41.243  24.645   5.741
 3824POPC   GL149609  41.397  24.343   5.956
 3824POPC   GL249610  41.733  24.483   5.815
 3824POPC   C1A49611  41.360  24.354   6.408
 3824POPC   D2A49612  41.559  24.671   6.692
 3824POPC   C3A49613  41.375  24.634   7.082
 3824POPC   C4A49614  41.353  24.310   7.343
 3824POPC   C1B49615  41.817  24.546   6.249
 3824POPC   C2B49616  41.828  24.224   6.584
 3824POPC   C3B49617  41.780  24.290   7.013
 3824POPC   C4B49618  41.922  24.658   7.211
 3825POPC   NC349619  10.778   9.971   5.351
 3825POPC   PO449620  10.351   9.606   5.596
 3825POPC   GL149621  10.467   9.819   5.901
 3825POPC   GL249622  10.106   9.864   5.962
 3825POPC   C1A49623  10.547  10.065   6.245
 3825POPC   D2A49624  10.454  10.252   6.661
 3825POPC   C3A49625  10.604  10.022   7.038
 3825POPC   C4A49626  10.543   9.619   7.237
 3825POPC   C1B49627  10.245   9.600   6.309
 3825POPC   C2B49628  10.315   9.708   6.740
 3825POPC   C3B49629  10.105   9.814   7.126
 3825POPC   C4B49630  10.137   9.629   7.564
 3826POPC   NC349631   9.503  33.183   5.581
 3826POPC   PO449632  10.131  32.961   5.288
 3826POPC   GL149633   9.935  32.981   5.775
 3826POPC   GL249634   9.726  32.743   5.906
 3826POPC   C1A49635   9.944  32.997   6.272
 3826POPC   D2A49636   9.812  32.790   6.675
 3826POPC   C3A49637   9.901  33.053   7.040
 3826POPC   C4A49638  10.061  33.460   7.199
 3826POPC   C1B49639   9.488  32.604   6.292
 3826POPC   C2B49640   9.299  32.617   6.720
 3826POPC   C3B49641   9.412  32.826   7.096
 3826POPC   C4B49642   9.705  32.746   7.394
 3827POPC   NC349643  37.480  21.539   5.041
 3827POPC   PO449644  36.867  21.570   5.452
 3827POPC   GL149645  36.935  21.420   5.917
 3827POPC   GL249646  37.223  21.187   6.013
 3827POPC   C1A49647  36.890  21.348   6.376
 3827POPC   D2A49648  36.994  21.603   6.731
 3827POPC   C3A49649  36.883  21.488   7.162
 3827POPC   C4A49650  36.589  21.179   7.331
 3827POPC   C1B49651  37.155  20.874   6.294
 3827POPC   C2B49652  37.241  20.905   6.699
 3827POPC   C3B49653  37.199  21.093   7.076
 3827POPC   C4B49654  37.085  21.134   7.490
 3828POPC   NC349655  12.878  14.147   5.472
 3828POPC   PO449656  12.826  14.788   5.407
 3828POPC   GL149657  12.842  14.550   5.835
 3828POPC   GL249658  12.690  14.200   5.920
 3828POPC   C1A49659  12.711  14.550   6.283
 3828POPC   D2A49660  12.756  14.756   6.660
 3828POPC   C3A49661  12.542  14.679   7.002
 3828POPC   C4A49662  12.796  14.762   7.318
 3828POPC   C1B49663  12.665  14.036   6.313
 3828POPC   C2B49664  12.629  14.220   6.700
 3828POPC   C3B49665  12.361  14.202   7.036
 3828POPC   C4B49666  12.575  14.316   7.390
 3829POPC   NC349667  21.759  11.610   5.476
 3829POPC   PO449668  21.399  11.123   5.380
 3829POPC   GL149669  21.301  11.205   5.793
 3829POPC   GL249670  21.380  11.507   5.831
 3829POPC   C1A49671  21.348  11.079   6.211
 3829POPC   D2A49672  21.106  10.909   6.544
 3829POPC   C3A49673  21.196  11.096   6.937
 3829POPC   C4A49674  21.426  11.088   7.326
 3829POPC   C1B49675  21.260  11.602   6.225
 3829POPC   C2B49676  21.193  11.558   6.638
 3829POPC   C3B49677  21.399  11.559   7.041
 3829POPC   C4B49678  21.549  11.568   7.464
 3830POPC   NC349679  39.438  21.675   5.612
 3830POPC   PO449680  39.681  21.072   5.575
 3830POPC   GL149681  39.496  21.229   5.939
 3830POPC   GL249682  39.154  21.261   5.866
 3830POPC   C1A49683  39.368  21.573   6.256
 3830POPC   D2A49684  39.056  21.814   6.538
 3830POPC   C3A49685  39.187  21.768   6.967
 3830POPC   C4A49686  39.352  21.456   7.192
 3830POPC   C1B49687  38.958  21.288   6.303
 3830POPC   C2B49688  38.946  21.352   6.751
 3830POPC   C3B49689  38.940  21.184   7.159
 3830POPC   C4B49690  39.287  20.965   7.364
 3831POPC   NC349691   5.284   8.268   5.341
 3831POPC   PO449692   4.562   8.407   5.328
 3831POPC   GL149693   4.911   8.313   5.669
 3831POPC   GL249694   4.851   7.980   5.841
 3831POPC   C1A49695   5.028   8.351   6.127
 3831POPC   D2A49696   5.005   8.169   6.550
 3831POPC   C3A49697   5.249   8.371   6.831
 3831POPC   C4A49698   5.184   8.378   7.253
 3831POPC   C1B49699   5.157   7.848   6.199
 3831POPC   C2B49700   5.205   7.704   6.627
 3831POPC   C3B49701   5.118   7.913   7.012
 3831POPC   C4B49702   5.246   7.819   7.419
 3832POPC   NC349703  40.030  10.715   5.400
 3832POPC   PO449704  39.934  10.105   5.510
 3832POPC   GL149705  40.044  10.421   5.818
 3832POPC   GL249706  40.364  10.575   5.790
 3832POPC   C1A49707  39.981  10.407   6.251
 3832POPC   D2A49708  39.945  10.138   6.624
 3832POPC   C3A49709  39.882  10.352   7.013
 3832POPC   C4A49710  39.799  10.813   7.049
 3832POPC   C1B49711  40.385  10.728   6.223
 3832POPC   C2B49712  40.160  10.670   6.650
 3832POPC   C3B49713  40.293  10.709   7.064
 3832POPC   C4B49714  40.482  10.775   7.450
 3833POPC   NC349715   1.202  26.096   5.439
 3833POPC   PO449716   0.784  25.583   5.713
 3833POPC   GL149717   1.102  25.909   5.943
 3833POPC   GL249718   1.394  26.172   5.894
 3833POPC   C1A49719   1.157  26.165   6.343
 3833POPC   D2A49720   1.252  26.032   6.758
 3833POPC   C3A49721   1.129  26.226   7.130
 3833POPC   C4A49722   1.206  26.280   7.572
 3833POPC   C1B49723   1.536  25.848   6.208
 3833POPC   C2B49724   1.697  25.828   6.621
 3833POPC   C3B49725   1.725  26.060   7.015
 3833POPC   C4B49726   1.746  25.836   7.381
 3834POPC   NC349727  14.895   9.222   5.486
 3834POPC   PO449728  15.584   9.178   5.365
 3834POPC   GL149729  15.378   8.983   5.730
 3834POPC   GL249730  15.119   8.747   5.724
 3834POPC   C1A49731  15.537   8.761   6.129
 3834POPC   D2A49732  15.422   8.882   6.547
 3834POPC   C3A49733  15.311   8.777   6.968
 3834POPC   C4A49734  15.199   9.185   7.179
 3834POPC   C1B49735  15.057   8.959   6.142
 3834POPC   C2B49736  14.888   8.818   6.534
 3834POPC   C3B49737  14.787   8.955   6.937
 3834POPC   C4B49738  14.912   8.754   7.301
 3835POPC   NC349739  43.872  38.832   5.346
 3835POPC   PO449740  43.670  38.177   5.395
 3835POPC   GL149741  43.726  38.461   5.730
 3835POPC   GL249742  43.743  38.180   5.927
 3835POPC   C1A49743  43.684  38.596   6.191
 3835POPC   D2A49744  43.906  38.736   6.559
 3835POPC   C3A49745  43.654  38.667   6.921
 3835POPC   C4A49746  44.003  38.618   7.149
 3835POPC   C1B49747  43.998  38.087   6.281
 3835POPC   C2B49748  43.960  38.243   6.692
 3835POPC   C3B49749  44.157  38.141   7.042
 3835POPC   C4B49750  44.013  37.891   7.323
 3836POPC   NC349751  43.517  18.491   5.064
 3836POPC   PO449752  43.038  18.102   5.517
 3836POPC   GL149753  43.158  18.187   5.918
 3836POPC   GL249754  42.990  18.474   5.923
 3836POPC   C1A49755  43.347  18.303   6.313
 3836POPC   D2A49756  43.204  18.347   6.720
 3836POPC   C3A49757  43.463  18.501   7.020
 3836POPC   C4A49758  43.273  18.369   7.414
 3836POPC   C1B49759  42.912  18.579   6.342
 3836POPC   C2B49760  42.731  18.524   6.723
 3836POPC   C3B49761  42.840  18.533   7.165
 3836POPC   C4B49762  42.827  18.510   7.627
 3837POPC   NC349763  20.792  44.211   5.380
 3837POPC   PO449764  20.551  43.583   5.494
 3837POPC   GL149765  20.782  43.850   5.785
 3837POPC   GL249766  20.497  44.039   5.785
 3837POPC   C1A49767  20.731  44.016   6.247
 3837POPC   D2A49768  20.738  44.034   6.726
 3837POPC   C3A49769  20.955  43.677   6.963
 3837POPC   C4A49770  21.164  43.591   7.397
 3837POPC   C1B49771  20.269  43.799   6.139
 3837POPC   C2B49772  20.171  43.640   6.592
 3837POPC   C3B49773  20.412  43.728   6.992
 3837POPC   C4B49774  20.538  44.175   7.213
 3838POPC   NC349775  25.795  29.097   5.408
 3838POPC   PO449776  25.139  29.066   5.634
 3838POPC   GL149777  25.479  29.154   5.855
 3838POPC   GL249778  25.567  29.469   5.734
 3838POPC   C1A49779  25.380  29.079   6.270
 3838POPC   D2A49780  25.106  29.332   6.491
 3838POPC   C3A49781  25.127  29.178   6.873
 3838POPC   C4A49782  25.044  29.257   7.245
 3838POPC   C1B49783  25.689  29.486   6.218
 3838POPC   C2B49784  25.575  29.336   6.676
 3838POPC   C3B49785  25.640  29.453   7.109
 3838POPC   C4B49786  25.577  29.299   7.538
 3839POPC   NC349787   9.221  21.968   5.215
 3839POPC   PO449788   8.617  21.946   5.346
 3839POPC   GL149789   8.871  22.133   5.675
 3839POPC   GL249790   9.227  22.246   5.689
 3839POPC   C1A49791   8.830  22.159   6.116
 3839POPC   D2A49792   8.808  22.304   6.556
 3839POPC   C3A49793   9.016  22.063   6.855
 3839POPC   C4A49794   9.127  21.916   7.257
 3839POPC   C1B49795   9.283  22.395   6.166
 3839POPC   C2B49796   9.282  22.519   6.645
 3839POPC   C3B49797   9.318  22.397   7.115
 3839POPC   C4B49798   9.391  22.456   7.586
 3840POPC   NC349799  26.688  12.388   5.414
 3840POPC   PO449800  27.142  11.738   5.403
 3840POPC   GL149801  27.027  11.842   5.784
 3840POPC   GL249802  26.724  12.005   5.770
 3840POPC   C1A49803  27.055  12.032   6.198
 3840POPC   D2A49804  26.916  12.103   6.615
 3840POPC   C3A49805  27.071  11.797   6.914
 3840POPC   C4A49806  27.005  11.914   7.338
 3840POPC   C1B49807  26.528  12.150   6.171
 3840POPC   C2B49808  26.425  12.319   6.621
 3840POPC   C3B49809  26.488  12.160   7.065
 3840POPC   C4B49810  26.392  12.201   7.534
 3841POPC   NC349811  44.284  34.780   5.406
 3841POPC   PO449812  43.753  35.105   5.202
 3841POPC   GL149813  43.814  34.873   5.670
 3841POPC   GL249814  43.957  34.500   5.676
 3841POPC   C1A49815  44.006  34.784   6.135
 3841POPC   D2A49816  43.971  34.572   6.585
 3841POPC   C3A49817  43.775  34.714   7.002
 3841POPC   C4A49818  43.914  34.801   7.472
 3841POPC   C1B49819  43.775  34.300   6.055
 3841POPC   C2B49820  43.612  34.215   6.480
 3841POPC   C3B49821  43.787  34.131   6.892
 3841POPC   C4B49822  43.813  34.321   7.301
 3842POPC   NC349823  10.109  19.586   5.549
 3842POPC   PO449824  10.657  19.907   5.452
 3842POPC   GL149825  10.478  19.803   5.832
 3842POPC   GL249826  10.490  19.425   5.880
 3842POPC   C1A49827  10.523  19.766   6.260
 3842POPC   D2A49828  10.329  19.695   6.630
 3842POPC   C3A49829  10.619  19.757   6.936
 3842POPC   C4A49830  10.715  20.098   7.201
 3842POPC   C1B49831  10.361  19.266   6.325
 3842POPC   C2B49832  10.271  19.197   6.807
 3842POPC   C3B49833  10.315  19.429   7.188
 3842POPC   C4B49834  10.292  19.853   7.318
 3843POPC   NC349835  31.405   1.062   5.369
 3843POPC   PO449836  31.885   0.782   5.668
 3843POPC   GL149837  31.569   1.055   5.872
 3843POPC   GL249838  31.388   1.366   5.762
 3843POPC   C1A49839  31.604   1.280   6.257
 3843POPC   D2A49840  31.782   1.254   6.695
 3843POPC   C3A49841  31.499   1.013   7.003
 3843POPC   C4A49842  31.552   0.757   7.369
 3843POPC   C1B49843  31.143   1.596   6.042
 3843POPC   C2B49844  31.347   1.671   6.443
 3843POPC   C3B49845  31.330   1.481   6.813
 3843POPC   C4B49846  31.160   1.379   7.192
 3844POPC   NC349847  27.973  22.363   5.471
 3844POPC   PO449848  27.483  21.854   5.455
 3844POPC   GL149849  27.331  22.015   5.882
 3844POPC   GL249850  27.329  22.423   5.883
 3844POPC   C1A49851  27.387  21.839   6.287
 3844POPC   D2A49852  27.567  22.114   6.585
 3844POPC   C3A49853  27.586  22.068   7.021
 3844POPC   C4A49854  27.728  21.911   7.406
 3844POPC   C1B49855  27.707  22.394   6.134
 3844POPC   C2B49856  27.925  22.470   6.516
 3844POPC   C3B49857  27.763  22.516   6.899
 3844POPC   C4B49858  27.773  22.448   7.350
 3845POPC   NC349859  41.843  19.906   5.642
 3845POPC   PO449860  41.387  19.579   5.318
 3845POPC   GL149861  41.399  19.650   5.801
 3845POPC   GL249862  41.710  19.606   6.028
 3845POPC   C1A49863  41.348  19.850   6.258
 3845POPC   D2A49864  41.437  20.074   6.653
 3845POPC   C3A49865  41.568  19.823   6.994
 3845POPC   C4A49866  41.634  19.357   7.039
 3845POPC   C1B49867  41.834  20.000   6.282
 3845POPC   C2B49868  41.947  20.089   6.695
 3845POPC   C3B49869  41.840  20.274   7.076
 3845POPC   C4B49870  41.486  20.312   7.323
 3846POPC   NC349871  19.507  21.019   5.385
 3846POPC   PO449872  19.043  21.680   5.303
 3846POPC   GL149873  18.990  21.534   5.750
 3846POPC   GL249874  18.653  21.582   5.767
 3846POPC   C1A49875  19.224  21.467   6.174
 3846POPC   D2A49876  19.045  21.258   6.534
 3846POPC   C3A49877  19.216  21.180   6.936
 3846POPC   C4A49878  19.338  21.376   7.304
 3846POPC   C1B49879  18.676  21.351   6.165
 3846POPC   C2B49880  18.549  21.161   6.566
 3846POPC   C3B49881  18.722  21.322   6.944
 3846POPC   C4B49882  18.835  21.430   7.346
 3847POPC   NC349883  29.943  20.782   5.410
 3847POPC   PO449884  29.393  20.513   5.449
 3847POPC   GL149885  29.626  20.786   5.832
 3847POPC   GL249886  29.992  20.930   5.891
 3847POPC   C1A49887  29.750  20.801   6.321
 3847POPC   D2A49888  29.871  20.527   6.687
 3847POPC   C3A49889  29.849  20.700   7.115
 3847POPC   C4A49890  29.451  20.634   7.316
 3847POPC   C1B49891  30.262  21.006   6.261
 3847POPC   C2B49892  30.282  20.860   6.683
 3847POPC   C3B49893  30.344  20.886   7.130
 3847POPC   C4B49894  30.321  20.866   7.608
 3848POPC   NC349895  24.637   3.894   5.345
 3848POPC   PO449896  24.392   4.576   5.325
 3848POPC   GL149897  24.467   4.276   5.667
 3848POPC   GL249898  24.393   4.532   5.907
 3848POPC   C1A49899  24.342   4.067   6.093
 3848POPC   D2A49900  24.261   4.256   6.521
 3848POPC   C3A49901  24.424   4.062   6.915
 3848POPC   C4A49902  24.232   3.976   7.300
 3848POPC   C1B49903  24.518   4.807   6.229
 3848POPC   C2B49904  24.773   4.851   6.600
 3848POPC   C3B49905  24.594   4.568   6.842
 3848POPC   C4B49906  24.509   4.484   7.225
 3849POPC   NC349907  16.237   7.082   5.541
 3849POPC   PO449908  15.918   7.637   5.227
 3849POPC   GL149909  15.966   7.560   5.698
 3849POPC   GL249910  16.310   7.681   5.750
 3849POPC   C1A49911  15.784   7.498   6.157
 3849POPC   D2A49912  15.757   7.385   6.625
 3849POPC   C3A49913  15.842   7.417   7.090
 3849POPC   C4A49914  16.211   7.222   7.317
 3849POPC   C1B49915  16.286   7.427   6.129
 3849POPC   C2B49916  16.295   7.301   6.567
 3849POPC   C3B49917  16.284   7.559   6.922
 3849POPC   C4B49918  16.374   7.703   7.321
 3850POPC   NC349919  20.126  21.428   5.415
 3850POPC   PO449920  19.440  21.440   5.553
 3850POPC   GL149921  19.767  21.227   5.815
 3850POPC   GL249922  20.147  21.148   5.836
 3850POPC   C1A49923  19.863  21.543   6.144
 3850POPC   D2A49924  19.621  21.709   6.509
 3850POPC   C3A49925  19.653  21.471   6.904
 3850POPC   C4A49926  19.906  21.294   7.236
 3850POPC   C1B49927  20.041  21.091   6.289
 3850POPC   C2B49928  20.111  21.129   6.737
 3850POPC   C3B49929  20.145  20.843   7.098
 3850POPC   C4B49930  20.077  20.930   7.539
 3851POPC   NC349931  40.213  11.561   5.238
 3851POPC   PO449932  39.768  11.087   5.421
 3851POPC   GL149933  40.016  11.002   5.821
 3851POPC   GL249934  40.141  11.345   5.828
 3851POPC   C1A49935  39.917  10.944   6.280
 3851POPC   D2A49936  40.082  11.173   6.678
 3851POPC   C3A49937  39.972  11.299   7.093
 3851POPC   C4A49938  39.948  11.527   7.488
 3851POPC   C1B49939  40.333  11.239   6.234
 3851POPC   C2B49940  40.592  11.164   6.617
 3851POPC   C3B49941  40.518  11.169   7.044
 3851POPC   C4B49942  40.394  11.310   7.436
 3852POPC   NC349943   8.855  36.444   5.569
 3852POPC   PO449944   9.090  35.793   5.550
 3852POPC   GL149945   9.068  36.059   5.864
 3852POPC   GL249946   8.701  36.052   5.902
 3852POPC   C1A49947   9.014  35.891   6.271
 3852POPC   D2A49948   8.701  35.862   6.584
 3852POPC   C3A49949   8.945  35.982   6.929
 3852POPC   C4A49950   8.838  36.010   7.309
 3852POPC   C1B49951   8.699  36.361   6.232
 3852POPC   C2B49952   8.749  36.396   6.679
 3852POPC   C3B49953   8.534  36.354   7.069
 3852POPC   C4B49954   8.690  36.450   7.498
 3853POPC   NC349955  22.873  12.296   5.111
 3853POPC   PO449956  23.148  11.777   5.474
 3853POPC   GL149957  23.019  12.029   5.839
 3853POPC   GL249958  22.709  12.230   5.818
 3853POPC   C1A49959  22.969  12.017   6.298
 3853POPC   D2A49960  23.109  11.824   6.683
 3853POPC   C3A49961  22.834  11.959   7.015
 3853POPC   C4A49962  22.957  11.797   7.409
 3853POPC   C1B49963  22.546  12.526   6.152
 3853POPC   C2B49964  22.582  12.676   6.602
 3853POPC   C3B49965  22.704  12.526   7.064
 3853POPC   C4B49966  22.655  12.211   7.425
 3854POPC   NC349967  38.769   9.220   5.639
 3854POPC   PO449968  38.266   8.793   5.463
 3854POPC   GL149969  38.428   8.803   5.818
 3854POPC   GL249970  38.732   8.699   5.690
 3854POPC   C1A49971  38.277   8.672   6.212
 3854POPC   D2A49972  38.265   8.911   6.581
 3854POPC   C3A49973  38.388   8.735   6.941
 3854POPC   C4A49974  38.554   9.046   7.207
 3854POPC   C1B49975  38.773   8.579   6.120
 3854POPC   C2B49976  38.749   8.742   6.532
 3854POPC   C3B49977  38.910   8.725   6.935
 3854POPC   C4B49978  39.003   8.857   7.335
 3855POPC   NC349979  26.118  42.854   5.471
 3855POPC   PO449980  25.492  43.047   5.289
 3855POPC   GL149981  25.752  43.199   5.741
 3855POPC   GL249982  26.128  43.123   5.884
 3855POPC   C1A49983  25.842  43.393   6.203
 3855POPC   D2A49984  25.801  43.589   6.647
 3855POPC   C3A49985  25.925  43.358   7.059
 3855POPC   C4A49986  26.262  43.351   7.380
 3855POPC   C1B49987  26.278  43.093   6.313
 3855POPC   C2B49988  25.974  43.089   6.618
 3855POPC   C3B49989  25.870  42.819   6.947
 3855POPC   C4B49990  25.970  42.837   7.376
 3856POPC   NC349991  16.355   7.531   5.253
 3856POPC   PO449992  16.780   7.150   5.436
 3856POPC   GL149993  16.663   7.236   5.829
 3856POPC   GL249994  16.792   7.540   5.872
 3856POPC   C1A49995  16.737   7.237   6.282
 3856POPC   D2A49996  16.815   6.999   6.629
 3856POPC   C3A49997  16.674   7.242   6.975
 3856POPC   C4A49998  16.708   7.303   7.410
 3856POPC   C1B49999  16.698   7.766   6.223
 3856POPC   C2B50000  16.692   7.710   6.670
 3856POPC   C3B50001  16.835   7.721   7.117
 3856POPC   C4B50002  16.827   7.781   7.600
 3857POPC   NC350003  28.134  24.025   5.439
 3857POPC   PO450004  28.525  23.440   5.315
 3857POPC   GL150005  28.484  23.597   5.809
 3857POPC   GL250006  28.309  23.855   5.867
 3857POPC   C1A50007  28.321  23.732   6.339
 3857POPC   D2A50008  28.593  23.898   6.695
 3857POPC   C3A50009  28.503  23.747   7.131
 3857POPC   C4A50010  28.196  23.624   7.470
 3857POPC   C1B50011  27.998  24.048   6.127
 3857POPC   C2B50012  27.930  24.075   6.557
 3857POPC   C3B50013  28.158  24.091   6.922
 3857POPC   C4B50014  28.213  24.111   7.356
 3858POPC   NC350015   4.299  42.648   5.451
 3858POPC   PO450016   4.244  41.956   5.457
 3858POPC   GL150017   4.364  42.267   5.816
 3858POPC   GL250018   4.126  42.543   5.906
 3858POPC   C1A50019   4.339  42.280   6.290
 3858POPC   D2A50020   4.060  42.137   6.621
 3858POPC   C3A50021   4.271  42.141   7.000
 3858POPC   C4A50022   4.357  42.395   7.325
 3858POPC   C1B50023   4.431  42.767   6.165
 3858POPC   C2B50024   4.672  42.633   6.532
 3858POPC   C3B50025   4.741  42.365   6.887
 3858POPC   C4B50026   4.847  42.535   7.281
 3859POPC   NC350027  17.951   1.101   5.526
 3859POPC   PO450028  17.472   1.536   5.401
 3859POPC   GL150029  17.387   1.170   5.700
 3859POPC   GL250030  17.127   1.358   5.838
 3859POPC   C1A50031  17.320   0.980   6.153
 3859POPC   D2A50032  17.407   1.151   6.604
 3859POPC   C3A50033  17.387   0.920   7.014
 3859POPC   C4A50034  17.555   1.056   7.406
 3859POPC   C1B50035  17.014   1.392   6.264
 3859POPC   C2B50036  16.994   1.622   6.652
 3859POPC   C3B50037  17.096   1.408   7.059
 3859POPC   C4B50038  17.113   1.304   7.499
 3860POPC   NC350039  41.897  36.898   5.558
 3860POPC   PO450040  42.550  36.868   5.600
 3860POPC   GL150041  42.402  37.144   5.925
 3860POPC   GL250042  42.120  37.359   5.836
 3860POPC   C1A50043  42.204  36.952   6.299
 3860POPC   D2A50044  42.394  36.662   6.625
 3860POPC   C3A50045  42.526  36.926   6.946
 3860POPC   C4A50046  42.254  37.007   7.288
 3860POPC   C1B50047  41.919  37.400   6.267
 3860POPC   C2B50048  41.834  37.187   6.674
 3860POPC   C3B50049  41.914  37.335   7.111
 3860POPC   C4B50050  41.936  37.247   7.592
 3861POPC   NC350051  37.876  37.818   5.341
 3861POPC   PO450052  37.366  37.497   5.318
 3861POPC   GL150053  37.587  37.443   5.736
 3861POPC   GL250054  37.610  37.793   5.813
 3861POPC   C1A50055  37.863  37.507   6.153
 3861POPC   D2A50056  37.936  37.784   6.561
 3861POPC   C3A50057  37.836  37.640   7.016
 3861POPC   C4A50058  37.636  37.385   7.359
 3861POPC   C1B50059  37.402  37.708   6.231
 3861POPC   C2B50060  37.438  37.677   6.674
 3861POPC   C3B50061  37.269  37.565   7.058
 3861POPC   C4B50062  37.472  37.874   7.308
 3862POPC   NC350063  23.584   8.768   5.465
 3862POPC   PO450064  23.377   9.405   5.575
 3862POPC   GL150065  23.502   9.091   5.870
 3862POPC   GL250066  23.870   8.974   5.820
 3862POPC   C1A50067  23.427   9.058   6.305
 3862POPC   D2A50068  23.600   9.235   6.664
 3862POPC   C3A50069  23.697   8.874   6.857
 3862POPC   C4A50070  23.844   8.803   7.224
 3862POPC   C1B50071  23.921   9.169   6.196
 3862POPC   C2B50072  24.067   9.052   6.558
 3862POPC   C3B50073  24.044   9.250   6.949
 3862POPC   C4B50074  23.725   9.383   7.197
 3863POPC   NC350075  27.961  34.381   5.431
 3863POPC   PO450076  27.379  34.776   5.427
 3863POPC   GL150077  27.369  34.698   5.829
 3863POPC   GL250078  27.712  34.646   5.871
 3863POPC   C1A50079  27.378  34.764   6.256
 3863POPC   D2A50080  27.493  34.489   6.568
 3863POPC   C3A50081  27.316  34.643   6.926
 3863POPC   C4A50082  27.567  34.810   7.198
 3863POPC   C1B50083  27.815  34.242   6.117
 3863POPC   C2B50084  28.099  34.054   6.458
 3863POPC   C3B50085  28.065  34.131   6.919
 3863POPC   C4B50086  27.648  34.303   7.113
 3864POPC   NC350087  10.110  11.343   5.363
 3864POPC   PO450088  10.810  11.072   5.395
 3864POPC   GL150089  10.527  11.103   5.783
 3864POPC   GL250090  10.330  11.431   5.826
 3864POPC   C1A50091  10.364  11.127   6.229
 3864POPC   D2A50092  10.432  11.283   6.665
 3864POPC   C3A50093  10.639  11.016   6.969
 3864POPC   C4A50094  10.683  10.905   7.419
 3864POPC   C1B50095  10.729  11.487   6.110
 3864POPC   C2B50096  10.830  11.637   6.567
 3864POPC   C3B50097  10.777  11.537   7.036
 3864POPC   C4B50098  10.469  11.363   7.328
 3865POPC   NC350099  38.612  13.821   5.421
 3865POPC   PO450100  38.472  13.189   5.491
 3865POPC   GL150101  38.498  13.507   5.815
 3865POPC   GL250102  38.205  13.754   5.824
 3865POPC   C1A50103  38.688  13.618   6.222
 3865POPC   D2A50104  38.806  13.492   6.650
 3865POPC   C3A50105  38.762  13.729   7.002
 3865POPC   C4A50106  38.658  13.657   7.417
 3865POPC   C1B50107  38.174  13.645   6.279
 3865POPC   C2B50108  38.311  13.644   6.726
 3865POPC   C3B50109  38.153  13.710   7.168
 3865POPC   C4B50110  37.871  13.556   7.544
 3866POPC   NC350111  31.887  22.402   5.311
 3866POPC   PO450112  31.295  22.062   5.318
 3866POPC   GL150113  31.612  22.099   5.657
 3866POPC   GL250114  31.353  22.005   5.895
 3866POPC   C1A50115  31.793  22.066   6.111
 3866POPC   D2A50116  31.478  21.888   6.423
 3866POPC   C3A50117  31.517  21.958   6.880
 3866POPC   C4A50118  31.640  22.041   7.298
 3866POPC   C1B50119  31.108  22.275   6.204
 3866POPC   C2B50120  31.093  22.524   6.584
 3866POPC   C3B50121  31.121  22.374   7.014
 3866POPC   C4B50122  31.223  22.355   7.477
 3867POPC   NC350123  29.469  17.700   5.495
 3867POPC   PO450124  28.913  18.165   5.488
 3867POPC   GL150125  29.020  18.091   5.886
 3867POPC   GL250126  29.397  18.032   5.888
 3867POPC   C1A50127  28.808  18.222   6.290
 3867POPC   D2A50128  28.912  18.580   6.568
 3867POPC   C3A50129  29.053  18.466   7.001
 3867POPC   C4A50130  29.436  18.570   7.222
 3867POPC   C1B50131  29.336  18.314   6.223
 3867POPC   C2B50132  29.218  18.151   6.605
 3867POPC   C3B50133  29.410  18.024   6.954
 3867POPC   C4B50134  29.225  18.057   7.343
 3868POPC   NC350135  41.642   4.159   5.404
 3868POPC   PO450136  41.539   4.751   5.747
 3868POPC   GL150137  41.599   4.319   5.887
 3868POPC   GL250138  41.744   3.977   5.855
 3868POPC   C1A50139  41.479   4.175   6.270
 3868POPC   D2A50140  41.432   4.479   6.600
 3868POPC   C3A50141  41.361   4.334   6.996
 3868POPC   C4A50142  41.669   4.220   7.262
 3868POPC   C1B50143  41.862   3.789   6.250
 3868POPC   C2B50144  41.782   3.687   6.672
 3868POPC   C3B50145  41.602   3.764   7.073
 3868POPC   C4B50146  41.604   3.778   7.550
 3869POPC   NC350147  31.136  43.088   5.422
 3869POPC   PO450148  30.490  43.019   5.255
 3869POPC   GL150149  30.648  43.064   5.677
 3869POPC   GL250150  30.773  42.722   5.678
 3869POPC   C1A50151  30.548  43.290   6.100
 3869POPC   D2A50152  30.538  43.556   6.508
 3869POPC   C3A50153  30.599  43.360   6.932
 3869POPC   C4A50154  30.515  42.928   7.132
 3869POPC   C1B50155  30.790  42.796   6.133
 3869POPC   C2B50156  30.764  43.044   6.526
 3869POPC   C3B50157  30.975  43.013   6.921
 3869POPC   C4B50158  30.951  42.709   7.265
 3870POPC   NC350159  10.545  32.817   5.137
 3870POPC   PO450160  10.349  33.243   5.695
 3870POPC   GL150161  10.415  33.052   6.074
 3870POPC   GL250162  10.713  32.912   6.020
 3870POPC   C1A50163  10.339  32.647   6.294
 3870POPC   D2A50164  10.291  32.610   6.704
 3870POPC   C3A50165  10.360  33.001   6.840
 3870POPC   C4A50166  10.419  33.110   7.238
 3870POPC   C1B50167  10.857  32.729   6.393
 3870POPC   C2B50168  10.801  32.744   6.834
 3870POPC   C3B50169  10.739  32.676   7.252
 3870POPC   C4B50170  10.976  32.697   7.643
 3871POPC   NC350171  12.413  33.320   5.167
 3871POPC   PO450172  11.982  32.932   5.212
 3871POPC   GL150173  11.950  32.864   5.657
 3871POPC   GL250174  11.975  32.527   5.733
 3871POPC   C1A50175  12.027  33.025   6.100
 3871POPC   D2A50176  12.004  33.243   6.523
 3871POPC   C3A50177  12.132  33.100   6.930
 3871POPC   C4A50178  12.509  32.925   7.128
 3871POPC   C1B50179  11.868  32.543   6.153
 3871POPC   C2B50180  12.098  32.674   6.530
 3871POPC   C3B50181  12.128  32.592   6.972
 3871POPC   C4B50182  11.820  32.793   7.232
 3872POPC   NC350183   5.199  26.226   5.457
 3872POPC   PO450184   4.580  25.883   5.517
 3872POPC   GL150185   4.827  26.156   5.838
 3872POPC   GL250186   5.191  26.123   5.941
 3872POPC   C1A50187   4.849  26.152   6.305
 3872POPC   D2A50188   5.047  26.183   6.730
 3872POPC   C3A50189   4.808  26.169   7.080
 3872POPC   C4A50190   4.747  26.534   7.279
 3872POPC   C1B50191   5.351  26.077   6.350
 3872POPC   C2B50192   5.331  25.771   6.677
 3872POPC   C3B50193   5.231  25.845   7.107
 3872POPC   C4B50194   5.407  26.081   7.440
 3873POPC   NC350195  31.268  42.072   5.400
 3873POPC   PO450196  31.268  42.666   5.536
 3873POPC   GL150197  31.348  42.397   5.846
 3873POPC   GL250198  31.699  42.331   5.697
 3873POPC   C1A50199  31.126  42.375   6.260
 3873POPC   D2A50200  30.996  42.525   6.671
 3873POPC   C3A50201  31.279  42.412   6.989
 3873POPC   C4A50202  31.393  42.459   7.392
 3873POPC   C1B50203  31.747  42.296   6.145
 3873POPC   C2B50204  31.641  42.352   6.574
 3873POPC   C3B50205  31.705  42.095   6.930
 3873POPC   C4B50206  31.791  42.161   7.350
 3874POPC   NC350207  25.457   2.192   5.342
 3874POPC   PO450208  25.099   1.665   5.134
 3874POPC   GL150209  25.090   1.875   5.531
 3874POPC   GL250210  25.091   1.614   5.724
 3874POPC   C1A50211  25.070   2.083   5.969
 3874POPC   D2A50212  25.360   2.119   6.359
 3874POPC   C3A50213  25.224   2.124   6.808
 3874POPC   C4A50214  25.198   2.312   7.224
 3874POPC   C1B50215  25.283   1.617   6.108
 3874POPC   C2B50216  25.131   1.676   6.518
 3874POPC   C3B50217  25.342   1.626   6.891
 3874POPC   C4B50218  25.370   1.818   7.284
 3875POPC   NC350219  24.409  26.938   5.487
 3875POPC   PO450220  24.650  26.277   5.320
 3875POPC   GL150221  24.639  26.483   5.719
 3875POPC   GL250222  24.272  26.556   5.800
 3875POPC   C1A50223  24.720  26.777   6.062
 3875POPC   D2A50224  24.519  26.809   6.450
 3875POPC   C3A50225  24.708  26.811   6.843
 3875POPC   C4A50226  24.606  26.956   7.199
 3875POPC   C1B50227  24.083  26.744   6.191
 3875POPC   C2B50228  24.053  26.882   6.650
 3875POPC   C3B50229  24.162  26.720   7.056
 3875POPC   C4B50230  24.191  26.877   7.494
 3876POPC   NC350231  20.176   5.961   5.506
 3876POPC   PO450232  20.898   5.871   5.425
 3876POPC   GL150233  20.614   5.719   5.759
 3876POPC   GL250234  20.596   6.048   5.821
 3876POPC   C1A50235  20.391   5.791   6.192
 3876POPC   D2A50236  20.595   5.863   6.606
 3876POPC   C3A50237  20.394   5.991   7.005
 3876POPC   C4A50238  20.613   5.735   7.290
 3876POPC   C1B50239  20.896   5.941   6.168
 3876POPC   C2B50240  20.980   6.202   6.561
 3876POPC   C3B50241  20.894   6.100   7.015
 3876POPC   C4B50242  20.888   6.093   7.504
 3877POPC   NC350243  43.235  22.697   5.051
 3877POPC   PO450244  42.941  23.063   5.560
 3877POPC   GL150245  43.210  22.888   5.857
 3877POPC   GL250246  43.033  22.571   5.927
 3877POPC   C1A50247  43.421  22.686   6.232
 3877POPC   D2A50248  43.284  22.732   6.654
 3877POPC   C3A50249  43.437  23.059   6.905
 3877POPC   C4A50250  43.335  22.961   7.303
 3877POPC   C1B50251  42.892  22.853   6.254
 3877POPC   C2B50252  42.720  22.811   6.671
 3877POPC   C3B50253  42.926  22.766   7.055
 3877POPC   C4B50254  42.809  22.922   7.457
 3878POPC   NC350255  20.873  32.126   5.514
 3878POPC   PO450256  20.293  32.571   5.527
 3878POPC   GL150257  20.448  32.220   5.888
 3878POPC   GL250258  20.721  31.950   5.967
 3878POPC   C1A50259  20.404  32.244   6.364
 3878POPC   D2A50260  20.379  32.618   6.680
 3878POPC   C3A50261  20.401  32.455   7.084
 3878POPC   C4A50262  20.369  32.026   7.163
 3878POPC   C1B50263  20.890  32.045   6.394
 3878POPC   C2B50264  20.774  32.252   6.791
 3878POPC   C3B50265  20.851  32.222   7.242
 3878POPC   C4B50266  21.017  32.074   7.630
 3879POPC   NC350267  15.086  28.515   5.572
 3879POPC   PO450268  15.702  28.505   5.346
 3879POPC   GL150269  15.475  28.270   5.768
 3879POPC   GL250270  15.148  28.072   5.814
 3879POPC   C1A50271  15.243  28.413   6.190
 3879POPC   D2A50272  15.369  28.537   6.597
 3879POPC   C3A50273  15.044  28.540   6.891
 3879POPC   C4A50274  15.139  28.377   7.265
 3879POPC   C1B50275  15.355  27.920   6.159
 3879POPC   C2B50276  15.157  28.043   6.528
 3879POPC   C3B50277  15.173  28.022   6.902
 3879POPC   C4B50278  15.079  27.885   7.286
 3880POPC   NC350279  35.586  29.620   5.478
 3880POPC   PO450280  35.340  30.220   5.439
 3880POPC   GL150281  35.255  29.997   5.812
 3880POPC   GL250282  34.965  29.745   5.777
 3880POPC   C1A50283  35.400  30.083   6.233
 3880POPC   D2A50284  35.458  30.164   6.665
 3880POPC   C3A50285  35.152  30.003   6.934
 3880POPC   C4A50286  35.411  30.159   7.259
 3880POPC   C1B50287  35.200  29.568   6.114
 3880POPC   C2B50288  35.292  29.669   6.537
 3880POPC   C3B50289  35.234  29.487   6.935
 3880POPC   C4B50290  35.227  29.673   7.318
 3881POPC   NC350291  28.457  13.314   5.616
 3881POPC   PO450292  28.180  13.862   5.234
 3881POPC   GL150293  28.125  13.732   5.713
 3881POPC   GL250294  28.104  14.013   5.918
 3881POPC   C1A50295  28.230  13.601   6.198
 3881POPC   D2A50296  28.585  13.649   6.545
 3881POPC   C3A50297  28.544  13.348   6.893
 3881POPC   C4A50298  28.217  13.352   7.237
 3881POPC   C1B50299  28.444  14.065   6.253
 3881POPC   C2B50300  28.397  14.137   6.680
 3881POPC   C3B50301  28.326  13.840   6.986
 3881POPC   C4B50302  28.590  13.694   7.269
 3882POPC   NC350303  30.262  18.318   5.421
 3882POPC   PO450304  29.580  18.135   5.428
 3882POPC   GL150305  29.850  18.342   5.749
 3882POPC   GL250306  30.138  18.145   5.876
 3882POPC   C1A50307  29.865  18.463   6.180
 3882POPC   D2A50308  29.751  18.238   6.539
 3882POPC   C3A50309  29.835  18.352   6.941
 3882POPC   C4A50310  29.735  18.163   7.321
 3882POPC   C1B50311  30.268  18.178   6.278
 3882POPC   C2B50312  30.221  18.022   6.688
 3882POPC   C3B50313  30.287  18.159   7.109
 3882POPC   C4B50314  30.156  18.484   7.365
 3883POPC   NC350315  26.738   8.855   5.461
 3883POPC   PO450316  26.459   9.451   5.351
 3883POPC   GL150317  26.779   9.287   5.731
 3883POPC   GL250318  27.032   8.965   5.853
 3883POPC   C1A50319  26.681   9.083   6.157
 3883POPC   D2A50320  27.001   9.160   6.441
 3883POPC   C3A50321  26.881   9.136   6.858
 3883POPC   C4A50322  26.637   9.055   7.209
 3883POPC   C1B50323  27.247   8.778   6.205
 3883POPC   C2B50324  27.409   8.882   6.633
 3883POPC   C3B50325  27.228   8.816   7.061
 3883POPC   C4B50326  27.024   8.834   7.458
 3884POPC   NC350327  13.315  12.626   5.351
 3884POPC   PO450328  12.732  12.434   5.579
 3884POPC   GL150329  12.672  12.845   5.818
 3884POPC   GL250330  13.009  12.854   5.787
 3884POPC   C1A50331  12.886  13.059   6.216
 3884POPC   D2A50332  13.145  12.854   6.553
 3884POPC   C3A50333  13.067  13.071   6.936
 3884POPC   C4A50334  12.713  13.035   7.154
 3884POPC   C1B50335  12.775  12.573   6.217
 3884POPC   C2B50336  12.650  12.676   6.643
 3884POPC   C3B50337  12.899  12.580   6.983
 3884POPC   C4B50338  12.810  12.258   7.216
 3885POPC   NC350339   4.171   6.267   5.549
 3885POPC   PO450340   4.755   6.199   5.217
 3885POPC   GL150341   4.531   5.875   5.603
 3885POPC   GL250342   4.187   5.832   5.785
 3885POPC   C1A50343   4.578   5.826   6.103
 3885POPC   D2A50344   4.652   5.598   6.460
 3885POPC   C3A50345   4.432   5.731   6.784
 3885POPC   C4A50346   4.355   5.768   7.200
 3885POPC   C1B50347   4.040   5.910   6.237
 3885POPC   C2B50348   4.243   6.153   6.528
 3885POPC   C3B50349   4.347   6.226   6.957
 3885POPC   C4B50350   4.078   6.175   7.292
 3886POPC   NC350351   4.862   3.197   5.271
 3886POPC   PO450352   5.107   3.743   5.366
 3886POPC   GL150353   5.168   3.688   5.797
 3886POPC   GL250354   5.019   3.379   5.826
 3886POPC   C1A50355   5.360   3.523   6.193
 3886POPC   D2A50356   5.219   3.295   6.571
 3886POPC   C3A50357   5.274   3.463   6.980
 3886POPC   C4A50358   5.323   3.671   7.365
 3886POPC   C1B50359   4.862   3.532   6.271
 3886POPC   C2B50360   4.807   3.568   6.759
 3886POPC   C3B50361   4.817   3.458   7.213
 3886POPC   C4B50362   4.750   3.356   7.684
 3887POPC   NC350363  31.657   8.547   5.174
 3887POPC   PO450364  31.259   9.178   5.047
 3887POPC   GL150365  31.326   8.994   5.546
 3887POPC   GL250366  31.642   8.804   5.704
 3887POPC   C1A50367  31.253   8.955   6.031
 3887POPC   D2A50368  31.502   8.902   6.452
 3887POPC   C3A50369  31.416   8.790   6.893
 3887POPC   C4A50370  31.199   8.977   7.244
 3887POPC   C1B50371  31.817   8.666   6.136
 3887POPC   C2B50372  32.002   8.697   6.588
 3887POPC   C3B50373  31.925   8.743   7.059
 3887POPC   C4B50374  32.055   8.708   7.519
 3888POPC   NC350375  18.733  14.647   5.395
 3888POPC   PO450376  18.973  14.024   5.434
 3888POPC   GL150377  19.047  14.366   5.745
 3888POPC   GL250378  19.250  14.664   5.624
 3888POPC   C1A50379  18.951  14.408   6.193
 3888POPC   D2A50380  19.111  14.240   6.583
 3888POPC   C3A50381  18.852  14.287   6.929
 3888POPC   C4A50382  18.906  13.997   7.235
 3888POPC   C1B50383  19.354  14.748   6.061
 3888POPC   C2B50384  19.150  14.797   6.478
 3888POPC   C3B50385  19.201  14.670   6.897
 3888POPC   C4B50386  19.151  14.784   7.353
 3889POPC   NC350387  10.412   3.797   5.041
 3889POPC   PO450388  10.685   3.323   5.438
 3889POPC   GL150389  10.538   3.365   5.868
 3889POPC   GL250390  10.624   3.730   6.043
 3889POPC   C1A50391  10.356   3.393   6.267
 3889POPC   D2A50392  10.377   3.742   6.524
 3889POPC   C3A50393  10.352   3.551   6.890
 3889POPC   C4A50394  10.525   3.545   7.250
 3889POPC   C1B50395  10.876   3.749   6.414
 3889POPC   C2B50396  10.839   3.797   6.874
 3889POPC   C3B50397  10.972   3.749   7.304
 3889POPC   C4B50398  10.857   3.675   7.792
 3890POPC   NC350399  39.267  21.212   5.362
 3890POPC   PO450400  39.135  20.475   5.299
 3890POPC   GL150401  39.153  20.748   5.689
 3890POPC   GL250402  39.455  20.693   5.869
 3890POPC   C1A50403  39.016  20.827   6.103
 3890POPC   D2A50404  38.905  20.630   6.492
 3890POPC   C3A50405  39.037  20.761   6.896
 3890POPC   C4A50406  38.927  20.584   7.298
 3890POPC   C1B50407  39.661  20.677   6.284
 3890POPC   C2B50408  39.710  20.519   6.711
 3890POPC   C3B50409  39.450  20.520   7.078
 3890POPC   C4B50410  39.481  20.538   7.526
 3891POPC   NC350411   9.438  35.529   5.377
 3891POPC   PO450412   9.956  35.101   5.294
 3891POPC   GL150413  10.009  35.137   5.735
 3891POPC   GL250414   9.869  35.484   5.732
 3891POPC   C1A50415   9.772  35.122   6.154
 3891POPC   D2A50416   9.694  35.069   6.596
 3891POPC   C3A50417   9.939  34.957   6.972
 3891POPC   C4A50418   9.740  35.048   7.365
 3891POPC   C1B50419   9.755  35.653   6.121
 3891POPC   C2B50420   9.674  35.576   6.536
 3891POPC   C3B50421   9.867  35.462   6.919
 3891POPC   C4B50422   9.686  35.562   7.292
 3892POPC   NC350423   6.651   8.365   5.639
 3892POPC   PO450424   6.206   7.859   5.597
 3892POPC   GL150425   6.378   8.066   5.946
 3892POPC   GL250426   6.783   8.062   6.016
 3892POPC   C1A50427   6.442   8.286   6.308
 3892POPC   D2A50428   6.778   8.411   6.533
 3892POPC   C3A50429   6.578   8.548   6.852
 3892POPC   C4A50430   6.661   8.186   7.052
 3892POPC   C1B50431   7.027   7.771   6.245
 3892POPC   C2B50432   7.076   7.554   6.635
 3892POPC   C3B50433   6.884   7.696   7.029
 3892POPC   C4B50434   6.710   7.855   7.422
 3893POPC   NC350435  40.595  43.474   5.486
 3893POPC   PO450436  41.024  44.042   5.411
 3893POPC   GL150437  40.876  43.831   5.757
 3893POPC   GL250438  40.548  43.974   5.732
 3893POPC   C1A50439  41.045  43.813   6.173
 3893POPC   D2A50440  41.029  43.611   6.570
 3893POPC   C3A50441  40.824  43.771   6.922
 3893POPC   C4A50442  41.011  43.880   7.300
 3893POPC   C1B50443  40.487  43.857   6.171
 3893POPC   C2B50444  40.409  43.681   6.587
 3893POPC   C3B50445  40.373  43.526   7.001
 3893POPC   C4B50446  40.508  43.789   7.354
 3894POPC   NC350447   3.306  29.904   5.819
 3894POPC   PO450448   2.855  29.563   5.428
 3894POPC   GL150449   2.766  29.858   5.835
 3894POPC   GL250450   2.895  30.208   5.939
 3894POPC   C1A50451   2.526  29.946   6.257
 3894POPC   D2A50452   2.567  30.011   6.725
 3894POPC   C3A50453   2.620  29.691   7.014
 3894POPC   C4A50454   2.701  29.616   7.460
 3894POPC   C1B50455   3.005  30.102   6.383
 3894POPC   C2B50456   3.088  29.844   6.740
 3894POPC   C3B50457   3.073  29.885   7.179
 3894POPC   C4B50458   2.941  30.031   7.567
 3895POPC   NC350459  40.657   8.408   5.409
 3895POPC   PO450460  41.269   8.104   5.560
 3895POPC   GL150461  40.936   8.042   5.892
 3895POPC   GL250462  40.702   8.285   5.896
 3895POPC   C1A50463  40.848   8.079   6.353
 3895POPC   D2A50464  41.067   8.092   6.754
 3895POPC   C3A50465  40.864   8.261   7.116
 3895POPC   C4A50466  41.025   8.255   7.539
 3895POPC   C1B50467  40.503   8.468   6.255
 3895POPC   C2B50468  40.602   8.454   6.680
 3895POPC   C3B50469  40.431   8.566   7.066
 3895POPC   C4B50470  40.593   8.541   7.470
 3896POPC   NC350471  27.353  25.602   5.309
 3896POPC   PO450472  27.641  25.004   5.414
 3896POPC   GL150473  27.591  25.076   5.860
 3896POPC   GL250474  27.911  24.893   5.911
 3896POPC   C1A50475  27.532  25.376   6.252
 3896POPC   D2A50476  27.627  25.635   6.694
 3896POPC   C3A50477  27.351  25.752   7.061
 3896POPC   C4A50478  27.264  25.922   7.531
 3896POPC   C1B50479  27.730  24.885   6.321
 3896POPC   C2B50480  27.699  25.127   6.668
 3896POPC   C3B50481  27.588  25.255   7.061
 3896POPC   C4B50482  27.913  25.243   7.401
 3897POPC   NC350483  12.938  16.850   5.429
 3897POPC   PO450484  12.646  16.312   5.304
 3897POPC   GL150485  12.734  16.497   5.745
 3897POPC   GL250486  12.814  16.869   5.918
 3897POPC   C1A50487  12.860  16.439   6.154
 3897POPC   D2A50488  12.849  16.667   6.539
 3897POPC   C3A50489  12.875  16.501   6.953
 3897POPC   C4A50490  12.686  16.191   7.236
 3897POPC   C1B50491  13.098  17.042   6.272
 3897POPC   C2B50492  13.235  16.955   6.704
 3897POPC   C3B50493  13.181  17.180   7.105
 3897POPC   C4B50494  12.890  16.881   7.332
 3898POPC   NC350495  40.288  44.988   5.183
 3898POPC   PO450496  39.704   0.333   5.430
 3898POPC   GL150497  39.795   0.553   5.812
 3898POPC   GL250498  40.125   0.707   5.790
 3898POPC   C1A50499  39.849   0.397   6.222
 3898POPC   D2A50500  40.097   0.208   6.511
 3898POPC   C3A50501  39.994   0.321   6.900
 3898POPC   C4A50502  39.761   0.477   7.220
 3898POPC   C1B50503  40.334   0.560   6.181
 3898POPC   C2B50504  40.554   0.454   6.563
 3898POPC   C3B50505  40.516   0.307   6.936
 3898POPC   C4B50506  40.329   0.480   7.258
 3899POPC   NC350507   9.085  44.216   5.495
 3899POPC   PO450508   8.614  43.674   5.532
 3899POPC   GL150509   8.851  43.881   5.888
 3899POPC   GL250510   9.168  44.113   5.983
 3899POPC   C1A50511   8.790  43.878   6.329
 3899POPC   D2A50512   8.682  44.145   6.668
 3899POPC   C3A50513   8.847  44.079   7.068
 3899POPC   C4A50514   8.788  43.767   7.353
 3899POPC   C1B50515   9.186  44.171   6.454
 3899POPC   C2B50516   9.365  43.995   6.832
 3899POPC   C3B50517   9.291  43.888   7.256
 3899POPC   C4B50518   9.126  44.092   7.557
 3900POPC   NC350519  22.502  34.210   5.397
 3900POPC   PO450520  22.308  33.453   5.456
 3900POPC   GL150521  22.151  33.726   5.822
 3900POPC   GL250522  22.343  34.055   5.854
 3900POPC   C1A50523  22.077  33.903   6.255
 3900POPC   D2A50524  21.906  33.859   6.648
 3900POPC   C3A50525  22.056  33.927   7.023
 3900POPC   C4A50526  22.010  33.589   7.258
 3900POPC   C1B50527  22.530  34.094   6.276
 3900POPC   C2B50528  22.379  34.173   6.695
 3900POPC   C3B50529  22.514  34.122   7.132
 3900POPC   C4B50530  22.604  33.913   7.534
 3901POPC   NC350531  16.743  23.938   5.476
 3901POPC   PO450532  16.356  23.446   5.646
 3901POPC   GL150533  16.747  23.550   5.842
 3901POPC   GL250534  16.696  23.849   5.961
 3901POPC   C1A50535  16.779  23.476   6.282
 3901POPC   D2A50536  16.514  23.505   6.639
 3901POPC   C3A50537  16.791  23.613   6.963
 3901POPC   C4A50538  16.947  23.408   7.341
 3901POPC   C1B50539  16.695  23.991   6.347
 3901POPC   C2B50540  16.384  24.112   6.625
 3901POPC   C3B50541  16.474  24.144   7.067
 3901POPC   C4B50542  16.638  23.824   7.388
 3902POPC   NC350543  27.433  41.284   5.215
 3902POPC   PO450544  27.820  41.795   5.453
 3902POPC   GL150545  27.694  41.592   5.825
 3902POPC   GL250546  27.681  41.261   5.741
 3902POPC   C1A50547  27.624  41.703   6.256
 3902POPC   D2A50548  27.508  41.504   6.618
 3902POPC   C3A50549  27.724  41.562   6.971
 3902POPC   C4A50550  27.600  41.785   7.310
 3902POPC   C1B50551  27.475  41.218   6.188
 3902POPC   C2B50552  27.294  41.049   6.621
 3902POPC   C3B50553  27.337  41.239   7.082
 3902POPC   C4B50554  27.478  41.330   7.553
 3903POPC   NC350555  37.265  21.334   5.541
 3903POPC   PO450556  37.891  21.520   5.250
 3903POPC   GL150557  37.880  21.547   5.816
 3903POPC   GL250558  37.552  21.589   5.874
 3903POPC   C1A50559  37.879  21.447   6.258
 3903POPC   D2A50560  37.660  21.230   6.577
 3903POPC   C3A50561  37.888  21.233   6.972
 3903POPC   C4A50562  37.631  21.147   7.341
 3903POPC   C1B50563  37.351  21.655   6.225
 3903POPC   C2B50564  37.482  21.723   6.618
 3903POPC   C3B50565  37.453  21.510   6.969
 3903POPC   C4B50566  37.347  21.571   7.354
 3904POPC   NC350567  12.735  20.234   5.457
 3904POPC   PO450568  12.549  20.965   5.410
 3904POPC   GL150569  12.647  20.665   5.795
 3904POPC   GL250570  12.816  20.337   5.943
 3904POPC   C1A50571  12.801  20.740   6.245
 3904POPC   D2A50572  12.944  20.538   6.624
 3904POPC   C3A50573  12.668  20.486   6.969
 3904POPC   C4A50574  12.610  20.599   7.404
 3904POPC   C1B50575  13.119  20.174   6.279
 3904POPC   C2B50576  13.316  20.192   6.704
 3904POPC   C3B50577  13.183  20.311   7.156
 3904POPC   C4B50578  13.194  20.064   7.549
 3905POPC   NC350579  14.787  17.545   5.735
 3905POPC   PO450580  14.128  17.488   5.488
 3905POPC   GL150581  14.116  17.632   5.877
 3905POPC   GL250582  14.370  17.440   6.035
 3905POPC   C1A50583  14.148  17.882   6.241
 3905POPC   D2A50584  14.374  17.775   6.599
 3905POPC   C3A50585  14.078  17.783   6.948
 3905POPC   C4A50586  14.272  17.494   7.270
 3905POPC   C1B50587  14.703  17.132   6.203
 3905POPC   C2B50588  14.867  17.108   6.612
 3905POPC   C3B50589  14.793  17.495   6.826
 3905POPC   C4B50590  14.788  17.547   7.262
 3906POPC   NC350591  10.041  10.590   5.279
 3906POPC   PO450592   9.382  10.380   5.415
 3906POPC   GL150593   9.474  10.497   5.873
 3906POPC   GL250594   9.620  10.857   6.011
 3906POPC   C1A50595   9.621  10.434   6.280
 3906POPC   D2A50596   9.604  10.773   6.564
 3906POPC   C3A50597   9.669  10.678   6.974
 3906POPC   C4A50598   9.521  10.430   7.278
 3906POPC   C1B50599  10.019  10.738   6.252
 3906POPC   C2B50600  10.246  10.751   6.682
 3906POPC   C3B50601  10.124  10.872   7.132
 3906POPC   C4B50602   9.688  10.984   7.381
 3907POPC   NC350603  16.008  10.273   5.564
 3907POPC   PO450604  15.737  10.882   5.375
 3907POPC   GL150605  15.855  10.775   5.784
 3907POPC   GL250606  15.598  10.527   5.748
 3907POPC   C1A50607  16.120  10.751   6.172
 3907POPC   D2A50608  16.333  10.599   6.571
 3907POPC   C3A50609  16.094  10.394   6.913
 3907POPC   C4A50610  16.209  10.370   7.338
 3907POPC   C1B50611  15.657  10.358   6.153
 3907POPC   C2B50612  15.758  10.570   6.522
 3907POPC   C3B50613  15.574  10.646   6.904
 3907POPC   C4B50614  15.713  10.490   7.271
 3908POPC   NC350615  41.800  28.554   5.306
 3908POPC   PO450616  41.407  27.977   5.397
 3908POPC   GL150617  41.523  28.255   5.760
 3908POPC   GL250618  41.756  28.533   5.830
 3908POPC   C1A50619  41.394  28.471   6.164
 3908POPC   D2A50620  41.539  28.606   6.571
 3908POPC   C3A50621  41.481  28.299   6.876
 3908POPC   C4A50622  41.353  28.414   7.269
 3908POPC   C1B50623  41.880  28.326   6.266
 3908POPC   C2B50624  41.989  28.263   6.740
 3908POPC   C3B50625  41.871  28.484   7.146
 3908POPC   C4B50626  41.671  28.731   7.506
 3909POPC   NC350627   4.089  28.799   5.110
 3909POPC   PO450628   4.363  29.326   5.463
 3909POPC   GL150629   4.230  29.249   5.869
 3909POPC   GL250630   4.285  29.583   5.924
 3909POPC   C1A50631   4.317  28.924   6.204
 3909POPC   D2A50632   4.587  29.026   6.562
 3909POPC   C3A50633   4.424  29.110   6.959
 3909POPC   C4A50634   4.143  28.849   7.186
 3909POPC   C1B50635   4.289  29.407   6.346
 3909POPC   C2B50636   4.054  29.140   6.605
 3909POPC   C3B50637   3.860  29.233   6.978
 3909POPC   C4B50638   4.147  29.383   7.284
 3910POPC   NC350639  42.039  35.669   5.604
 3910POPC   PO450640  42.597  35.890   5.399
 3910POPC   GL150641  42.540  36.211   5.744
 3910POPC   GL250642  42.300  35.987   5.894
 3910POPC   C1A50643  42.415  36.381   6.192
 3910POPC   D2A50644  42.410  36.127   6.606
 3910POPC   C3A50645  42.271  36.276   7.026
 3910POPC   C4A50646  41.885  36.362   7.232
 3910POPC   C1B50647  42.219  35.712   6.242
 3910POPC   C2B50648  42.375  35.603   6.611
 3910POPC   C3B50649  42.251  35.759   6.972
 3910POPC   C4B50650  42.453  35.742   7.318
 3911POPC   NC350651  36.098  33.013   5.509
 3911POPC   PO450652  35.541  32.681   5.530
 3911POPC   GL150653  35.878  32.684   5.917
 3911POPC   GL250654  36.276  32.728   5.915
 3911POPC   C1A50655  35.963  32.699   6.422
 3911POPC   D2A50656  35.923  32.996   6.827
 3911POPC   C3A50657  36.030  32.942   7.284
 3911POPC   C4A50658  36.235  32.674   7.624
 3911POPC   C1B50659  36.339  33.055   6.262
 3911POPC   C2B50660  36.243  33.348   6.636
 3911POPC   C3B50661  36.131  33.429   7.087
 3911POPC   C4B50662  36.377  33.536   7.456
 3912POPC   NC350663  38.563  35.610   5.625
 3912POPC   PO450664  38.057  35.402   5.172
 3912POPC   GL150665  38.148  35.302   5.710
 3912POPC   GL250666  38.412  35.131   5.869
 3912POPC   C1A50667  38.171  35.457   6.180
 3912POPC   D2A50668  38.365  35.333   6.605
 3912POPC   C3A50669  38.198  35.386   6.998
 3912POPC   C4A50670  38.093  35.218   7.361
 3912POPC   C1B50671  38.678  35.321   6.215
 3912POPC   C2B50672  38.894  35.266   6.593
 3912POPC   C3B50673  38.771  35.409   6.994
 3912POPC   C4B50674  38.587  35.342   7.393
 3913POPC   NC350675   1.661  15.306   5.487
 3913POPC   PO450676   1.008  15.334   5.342
 3913POPC   GL150677   0.998  15.198   5.785
 3913POPC   GL250678   1.352  15.235   5.875
 3913POPC   C1A50679   1.086  15.058   6.245
 3913POPC   D2A50680   1.140  15.294   6.602
 3913POPC   C3A50681   1.005  15.088   6.965
 3913POPC   C4A50682   1.016  15.317   7.331
 3913POPC   C1B50683   1.515  15.416   6.248
 3913POPC   C2B50684   1.661  15.287   6.662
 3913POPC   C3B50685   1.440  15.336   7.027
 3913POPC   C4B50686   1.457  15.613   7.363
 3914POPC   NC350687  42.306  17.122   5.471
 3914POPC   PO450688  42.619  16.756   5.081
 3914POPC   GL150689  42.513  16.691   5.613
 3914POPC   GL250690  42.174  16.558   5.732
 3914POPC   C1A50691  42.523  16.641   6.097
 3914POPC   D2A50692  42.268  16.591   6.487
 3914POPC   C3A50693  42.415  16.752   6.891
 3914POPC   C4A50694  42.627  16.508   7.195
 3914POPC   C1B50695  41.986  16.325   6.104
 3914POPC   C2B50696  42.007  16.157   6.546
 3914POPC   C3B50697  42.174  16.272   6.969
 3914POPC   C4B50698  42.110  16.600   7.294
 3915POPC   NC350699  26.659  41.569   5.324
 3915POPC   PO450700  27.208  41.351   5.617
 3915POPC   GL150701  27.030  41.615   5.912
 3915POPC   GL250702  26.681  41.591   5.850
 3915POPC   C1A50703  27.042  41.451   6.313
 3915POPC   D2A50704  26.991  41.441   6.740
 3915POPC   C3A50705  26.891  41.659   7.083
 3915POPC   C4A50706  27.125  41.655   7.417
 3915POPC   C1B50707  26.657  41.792   6.284
 3915POPC   C2B50708  26.493  41.690   6.717
 3915POPC   C3B50709  26.456  41.435   7.109
 3915POPC   C4B50710  26.618  41.614   7.530
 3916POPC   NC350711  40.194  42.519   5.386
 3916POPC   PO450712  39.689  42.196   5.699
 3916POPC   GL150713  40.142  42.299   5.861
 3916POPC   GL250714  40.322  42.634   5.864
 3916POPC   C1A50715  40.285  42.395   6.308
 3916POPC   D2A50716  40.207  42.165   6.669
 3916POPC   C3A50717  40.218  42.418   7.013
 3916POPC   C4A50718  40.297  42.110   7.290
 3916POPC   C1B50719  39.903  42.652   6.129
 3916POPC   C2B50720  39.841  42.510   6.573
 3916POPC   C3B50721  39.786  42.732   6.965
 3916POPC   C4B50722  39.975  42.714   7.370
 3917POPC   NC350723  16.118  18.240   5.462
 3917POPC   PO450724  16.826  18.178   5.525
 3917POPC   GL150725  16.564  18.272   5.878
 3917POPC   GL250726  16.378  18.586   5.789
 3917POPC   C1A50727  16.834  18.177   6.233
 3917POPC   D2A50728  17.022  17.929   6.540
 3917POPC   C3A50729  16.862  18.164   6.889
 3917POPC   C4A50730  16.895  18.184   7.316
 3917POPC   C1B50731  16.323  18.599   6.242
 3917POPC   C2B50732  16.467  18.352   6.588
 3917POPC   C3B50733  16.448  18.447   7.050
 3917POPC   C4B50734  16.439  18.386   7.517
 3918POPC   NC350735  27.426  30.907   5.424
 3918POPC   PO450736  27.926  30.429   5.584
 3918POPC   GL150737  27.792  30.696   5.896
 3918POPC   GL250738  27.479  30.707   5.890
 3918POPC   C1A50739  27.761  30.922   6.286
 3918POPC   D2A50740  27.723  30.724   6.672
 3918POPC   C3A50741  27.859  30.846   7.081
 3918POPC   C4A50742  27.909  30.563   7.397
 3918POPC   C1B50743  27.359  30.565   6.276
 3918POPC   C2B50744  27.397  30.328   6.650
 3918POPC   C3B50745  27.622  30.366   7.015
 3918POPC   C4B50746  27.411  30.458   7.381
 3919POPC   NC350747  21.073   4.550   5.586
 3919POPC   PO450748  20.352   4.350   5.305
 3919POPC   GL150749  20.446   4.384   5.819
 3919POPC   GL250750  20.780   4.254   5.856
 3919POPC   C1A50751  20.589   4.458   6.298
 3919POPC   D2A50752  20.810   4.489   6.736
 3919POPC   C3A50753  20.576   4.611   7.101
 3919POPC   C4A50754  20.556   4.499   7.547
 3919POPC   C1B50755  20.891   4.035   6.205
 3919POPC   C2B50756  20.656   3.986   6.565
 3919POPC   C3B50757  20.556   4.095   6.981
 3919POPC   C4B50758  20.449   4.019   7.411
 3920POPC   NC350759  40.745  22.456   5.534
 3920POPC   PO450760  41.213  22.026   5.471
 3920POPC   GL150761  40.946  22.167   5.902
 3920POPC   GL250762  40.564  22.096   5.904
 3920POPC   C1A50763  40.707  22.476   6.228
 3920POPC   D2A50764  40.608  22.753   6.610
 3920POPC   C3A50765  40.702  22.506   6.961
 3920POPC   C4A50766  41.060  22.274   7.144
 3920POPC   C1B50767  40.565  21.888   6.331
 3920POPC   C2B50768  40.501  21.868   6.806
 3920POPC   C3B50769  40.534  22.093   7.220
 3920POPC   C4B50770  40.625  21.842   7.594
 3921POPC   NC350771   9.637  36.997   5.445
 3921POPC   PO450772  10.058  36.435   5.518
 3921POPC   GL150773   9.825  36.624   5.855
 3921POPC   GL250774   9.900  36.941   5.885
 3921POPC   C1A50775   9.706  36.676   6.307
 3921POPC   D2A50776   9.643  36.485   6.746
 3921POPC   C3A50777   9.562  36.796   7.081
 3921POPC   C4A50778   9.550  37.055   7.454
 3921POPC   C1B50779  10.117  37.216   6.193
 3921POPC   C2B50780  10.256  37.128   6.610
 3921POPC   C3B50781  10.011  37.107   6.998
 3921POPC   C4B50782   9.981  37.347   7.391
 3922POPC   NC350783  12.499  15.144   5.508
 3922POPC   PO450784  11.994  14.831   5.127
 3922POPC   GL150785  11.978  14.977   5.599
 3922POPC   GL250786  11.725  15.249   5.681
 3922POPC   C1A50787  12.017  14.850   6.076
 3922POPC   D2A50788  11.933  15.008   6.535
 3922POPC   C3A50789  12.218  15.082   6.908
 3922POPC   C4A50790  12.378  15.035   7.376
 3922POPC   C1B50791  11.781  15.317   6.140
 3922POPC   C2B50792  11.782  15.523   6.549
 3922POPC   C3B50793  11.753  15.380   6.943
 3922POPC   C4B50794  11.959  15.306   7.288
 3923POPC   NC350795  43.068   2.678   5.351
 3923POPC   PO450796  42.836   3.295   5.451
 3923POPC   GL150797  43.023   3.093   5.843
 3923POPC   GL250798  43.200   2.757   5.827
 3923POPC   C1A50799  43.120   2.946   6.303
 3923POPC   D2A50800  43.296   2.623   6.633
 3923POPC   C3A50801  43.261   2.721   7.107
 3923POPC   C4A50802  43.290   2.760   7.569
 3923POPC   C1B50803  42.952   2.496   6.086
 3923POPC   C2B50804  42.776   2.583   6.486
 3923POPC   C3B50805  42.839   2.518   6.908
 3923POPC   C4B50806  42.797   2.660   7.323
 3924POPC   NC350807  11.614  27.608   5.338
 3924POPC   PO450808  11.057  27.417   5.596
 3924POPC   GL150809  11.194  27.758   5.879
 3924POPC   GL250810  11.562  27.825   5.868
 3924POPC   C1A50811  11.008  27.942   6.243
 3924POPC   D2A50812  11.114  27.964   6.692
 3924POPC   C3A50813  11.062  27.564   6.934
 3924POPC   C4A50814  11.152  27.372   7.352
 3924POPC   C1B50815  11.502  27.809   6.355
 3924POPC   C2B50816  11.569  27.766   6.823
 3924POPC   C3B50817  11.628  27.558   7.234
 3924POPC   C4B50818  11.683  27.280   7.621
 3925POPC   NC350819  39.644  33.029   5.633
 3925POPC   PO450820  40.307  33.321   5.534
 3925POPC   GL150821  40.100  33.085   5.901
 3925POPC   GL250822  40.000  32.738   5.922
 3925POPC   C1A50823  39.916  33.003   6.343
 3925POPC   D2A50824  39.758  32.843   6.760
 3925POPC   C3A50825  39.893  33.045   7.173
 3925POPC   C4A50826  39.931  33.007   7.647
 3925POPC   C1B50827  40.348  32.710   6.176
 3925POPC   C2B50828  40.381  32.928   6.570
 3925POPC   C3B50829  40.307  32.773   7.017
 3925POPC   C4B50830  40.024  32.585   7.347
 3926POPC   NC350831  23.094  10.528   5.327
 3926POPC   PO450832  22.518  10.874   5.524
 3926POPC   GL150833  22.914  10.730   5.785
 3926POPC   GL250834  23.052  10.375   5.808
 3926POPC   C1A50835  23.110  10.644   6.222
 3926POPC   D2A50836  22.986  10.334   6.568
 3926POPC   C3A50837  22.762  10.583   6.867
 3926POPC   C4A50838  22.900  10.597   7.256
 3926POPC   C1B50839  22.717  10.284   6.139
 3926POPC   C2B50840  22.464  10.133   6.498
 3926POPC   C3B50841  22.616  10.103   6.910
 3926POPC   C4B50842  22.492  10.283   7.259
 3927POPC   NC350843  21.042  19.258   5.668
 3927POPC   PO450844  20.408  18.948   5.540
 3927POPC   GL150845  20.533  19.330   5.827
 3927POPC   GL250846  20.231  19.529   5.934
 3927POPC   C1A50847  20.748  19.305   6.261
 3927POPC   D2A50848  20.885  18.894   6.455
 3927POPC   C3A50849  20.776  18.733   6.867
 3927POPC   C4A50850  20.674  18.832   7.284
 3927POPC   C1B50851  20.263  19.135   6.220
 3927POPC   C2B50852  20.419  19.076   6.629
 3927POPC   C3B50853  20.290  19.077   7.012
 3927POPC   C4B50854  20.529  19.354   7.168
 3928POPC   NC350855  21.349  32.988   5.336
 3928POPC   PO450856  21.172  32.470   5.644
 3928POPC   GL150857  21.376  32.827   5.854
 3928POPC   GL250858  21.477  33.170   5.800
 3928POPC   C1A50859  21.504  32.826   6.282
 3928POPC   D2A50860  21.588  32.827   6.731
 3928POPC   C3A50861  21.347  33.051   7.072
 3928POPC   C4A50862  21.327  32.985   7.523
 3928POPC   C1B50863  21.362  33.308   6.223
 3928POPC   C2B50864  21.150  33.215   6.635
 3928POPC   C3B50865  21.100  33.487   7.041
 3928POPC   C4B50866  21.339  33.486   7.467
 3929POPC   NC350867  17.340  39.640   5.714
 3929POPC   PO450868  16.816  39.201   5.425
 3929POPC   GL150869  16.700  39.310   5.841
 3929POPC   GL250870  16.947  39.545   6.025
 3929POPC   C1A50871  16.693  39.188   6.270
 3929POPC   D2A50872  16.979  39.314   6.569
 3929POPC   C3A50873  16.770  39.223   6.932
 3929POPC   C4A50874  16.882  38.896   7.194
 3929POPC   C1B50875  17.179  39.744   6.372
 3929POPC   C2B50876  17.106  39.763   6.822
 3929POPC   C3B50877  16.847  39.674   7.153
 3929POPC   C4B50878  16.819  39.349   7.463
 3930POPC   NC350879  18.632  21.483   5.249
 3930POPC   PO450880  18.451  21.028   5.609
 3930POPC   GL150881  18.229  21.304   5.879
 3930POPC   GL250882  18.119  21.658   5.793
 3930POPC   C1A50883  18.158  21.369   6.298
 3930POPC   D2A50884  17.960  21.691   6.486
 3930POPC   C3A50885  18.122  21.654   6.890
 3930POPC   C4A50886  18.289  21.319   7.206
 3930POPC   C1B50887  18.383  21.797   6.159
 3930POPC   C2B50888  18.574  21.686   6.591
 3930POPC   C3B50889  18.572  21.797   7.071
 3930POPC   C4B50890  18.206  21.789   7.370
 3931POPC   NC350891  25.371  18.849   5.331
 3931POPC   PO450892  24.841  19.246   5.349
 3931POPC   GL150893  25.181  19.141   5.688
 3931POPC   GL250894  25.120  19.411   5.849
 3931POPC   C1A50895  25.432  19.093   6.097
 3931POPC   D2A50896  25.293  19.019   6.570
 3931POPC   C3A50897  25.495  18.987   7.000
 3931POPC   C4A50898  25.293  18.830   7.412
 3931POPC   C1B50899  25.314  19.566   6.224
 3931POPC   C2B50900  25.223  19.516   6.647
 3931POPC   C3B50901  25.051  19.291   7.000
 3931POPC   C4B50902  25.100  19.347   7.439
 3932POPC   NC350903  32.704  27.618   5.508
 3932POPC   PO450904  32.161  27.730   5.233
 3932POPC   GL150905  32.143  27.695   5.657
 3932POPC   GL250906  31.960  27.979   5.721
 3932POPC   C1A50907  32.173  27.426   6.042
 3932POPC   D2A50908  32.378  27.360   6.469
 3932POPC   C3A50909  32.129  27.442   6.857
 3932POPC   C4A50910  32.208  27.544   7.295
 3932POPC   C1B50911  32.255  27.938   6.095
 3932POPC   C2B50912  32.283  27.866   6.548
 3932POPC   C3B50913  32.246  27.957   6.998
 3932POPC   C4B50914  32.034  28.002   7.434
 3933POPC   NC350915  19.726  37.391   5.329
 3933POPC   PO450916  20.320  37.633   5.472
 3933POPC   GL150917  19.949  37.759   5.722
 3933POPC   GL250918  19.595  37.957   5.771
 3933POPC   C1A50919  19.901  37.798   6.158
 3933POPC   D2A50920  19.928  37.550   6.529
 3933POPC   C3A50921  19.855  37.708   6.922
 3933POPC   C4A50922  19.765  37.475   7.269
 3933POPC   C1B50923  19.412  37.817   6.213
 3933POPC   C2B50924  19.401  37.674   6.632
 3933POPC   C3B50925  19.373  37.761   7.080
 3933POPC   C4B50926  19.386  37.740   7.555
 3934POPC   NC350927   7.837  27.936   5.534
 3934POPC   PO450928   8.413  27.553   5.527
 3934POPC   GL150929   8.166  27.455   5.885
 3934POPC   GL250930   8.036  27.771   5.971
 3934POPC   C1A50931   8.260  27.326   6.312
 3934POPC   D2A50932   8.093  27.341   6.715
 3934POPC   C3A50933   8.408  27.494   6.988
 3934POPC   C4A50934   8.738  27.247   7.180
 3934POPC   C1B50935   7.862  27.656   6.365
 3934POPC   C2B50936   7.927  27.850   6.796
 3934POPC   C3B50937   7.743  27.854   7.223
 3934POPC   C4B50938   7.917  27.590   7.596
 3935POPC   NC350939  14.781  13.185   5.591
 3935POPC   PO450940  15.352  12.741   5.402
 3935POPC   GL150941  15.355  12.729   5.845
 3935POPC   GL250942  15.068  12.917   5.913
 3935POPC   C1A50943  15.350  12.762   6.309
 3935POPC   D2A50944  15.532  13.028   6.635
 3935POPC   C3A50945  15.451  12.892   7.023
 3935POPC   C4A50946  15.357  13.051   7.422
 3935POPC   C1B50947  14.835  13.001   6.289
 3935POPC   C2B50948  14.999  12.946   6.691
 3935POPC   C3B50949  14.979  13.096   7.096
 3935POPC   C4B50950  14.825  13.134   7.513
 3936POPC   NC350951  15.635  37.383   5.640
 3936POPC   PO450952  16.248  37.668   5.452
 3936POPC   GL150953  16.082  37.540   5.844
 3936POPC   GL250954  15.754  37.648   6.039
 3936POPC   C1A50955  16.252  37.475   6.225
 3936POPC   D2A50956  16.336  37.762   6.518
 3936POPC   C3A50957  16.029  37.782   6.827
 3936POPC   C4A50958  16.128  37.709   7.286
 3936POPC   C1B50959  15.782  37.273   6.294
 3936POPC   C2B50960  15.919  37.277   6.706
 3936POPC   C3B50961  15.778  37.413   7.066
 3936POPC   C4B50962  15.614  37.826   7.121
 3937POPC   NC350963   5.994  32.906   5.341
 3937POPC   PO450964   5.561  33.323   5.469
 3937POPC   GL150965   5.765  33.111   5.862
 3937POPC   GL250966   6.130  33.079   5.804
 3937POPC   C1A50967   5.682  32.880   6.295
 3937POPC   D2A50968   5.924  32.645   6.657
 3937POPC   C3A50969   5.855  32.770   7.097
 3937POPC   C4A50970   5.669  32.851   7.546
 3937POPC   C1B50971   6.169  32.878   6.195
 3937POPC   C2B50972   6.070  33.130   6.568
 3937POPC   C3B50973   6.217  33.208   6.984
 3937POPC   C4B50974   5.963  33.245   7.366
 3938POPC   NC350975  17.176  19.392   5.445
 3938POPC   PO450976  17.695  19.803   5.551
 3938POPC   GL150977  17.445  19.711   5.913
 3938POPC   GL250978  17.268  20.007   5.906
 3938POPC   C1A50979  17.425  19.833   6.376
 3938POPC   D2A50980  17.705  20.037   6.704
 3938POPC   C3A50981  17.790  19.818   7.068
 3938POPC   C4A50982  17.578  19.597   7.361
 3938POPC   C1B50983  17.007  20.139   6.247
 3938POPC   C2B50984  16.999  19.956   6.672
 3938POPC   C3B50985  17.278  19.912   7.033
 3938POPC   C4B50986  17.470  20.110   7.395
 3939POPC   NC350987  26.667  42.550   5.518
 3939POPC   PO450988  26.856  41.947   5.508
 3939POPC   GL150989  26.546  42.097   5.795
 3939POPC   GL250990  26.840  42.264   5.947
 3939POPC   C1A50991  26.417  42.261   6.215
 3939POPC   D2A50992  26.806  42.302   6.475
 3939POPC   C3A50993  26.809  42.121   6.886
 3939POPC   C4A50994  26.728  42.314   7.297
 3939POPC   C1B50995  27.131  42.588   6.123
 3939POPC   C2B50996  27.211  42.721   6.547
 3939POPC   C3B50997  27.069  42.563   6.948
 3939POPC   C4B50998  27.018  42.723   7.365
 3940POPC   NC350999  40.781  40.424   5.471
 3940POPC   PO451000  40.419  41.016   5.428
 3940POPC   GL151001  40.518  40.744   5.806
 3940POPC   GL251002  40.890  40.728   5.869
 3940POPC   C1A51003  40.583  40.608   6.263
 3940POPC   D2A51004  40.728  40.800   6.663
 3940POPC   C3A51005  40.628  40.588   7.058
 3940POPC   C4A51006  40.737  40.631   7.521
 3940POPC   C1B51007  41.128  40.770   6.265
 3940POPC   C2B51008  41.322  40.557   6.628
 3940POPC   C3B51009  41.133  40.629   7.036
 3940POPC   C4B51010  41.245  40.849   7.424
 3941POPC   NC351011  41.179  21.598   5.261
 3941POPC   PO451012  40.562  21.285   5.303
 3941POPC   GL151013  40.706  21.393   5.702
 3941POPC   GL251014  40.857  21.705   5.671
 3941POPC   C1A51015  40.522  21.419   6.100
 3941POPC   D2A51016  40.431  21.226   6.474
 3941POPC   C3A51017  40.609  21.332   6.863
 3941POPC   C4A51018  40.513  21.123   7.231
 3941POPC   C1B51019  40.992  21.625   6.092
 3941POPC   C2B51020  40.962  21.395   6.479
 3941POPC   C3B51021  41.100  21.466   6.889
 3941POPC   C4B51022  40.901  21.764   7.144
 3942POPC   NC351023  35.517   9.633   5.486
 3942POPC   PO451024  35.101  10.205   5.471
 3942POPC   GL151025  35.279   9.964   5.866
 3942POPC   GL251026  35.120   9.681   5.827
 3942POPC   C1A51027  35.405   9.638   6.252
 3942POPC   D2A51028  35.514   9.419   6.683
 3942POPC   C3A51029  35.363   9.659   7.036
 3942POPC   C4A51030  35.534   9.959   7.314
 3942POPC   C1B51031  34.913   9.786   6.213
 3942POPC   C2B51032  35.041   9.646   6.617
 3942POPC   C3B51033  34.821   9.555   6.989
 3942POPC   C4B51034  34.956   9.624   7.377
 3943POPC   NC351035  29.834  40.506   5.516
 3943POPC   PO451036  30.166  41.008   5.473
 3943POPC   GL151037  30.017  40.868   5.847
 3943POPC   GL251038  30.193  40.557   5.872
 3943POPC   C1A51039  29.731  40.993   6.170
 3943POPC   D2A51040  29.658  40.982   6.601
 3943POPC   C3A51041  29.856  40.683   6.822
 3943POPC   C4A51042  29.786  40.501   7.206
 3943POPC   C1B51043  30.112  40.651   6.326
 3943POPC   C2B51044  30.298  40.461   6.688
 3943POPC   C3B51045  30.288  40.574   7.124
 3943POPC   C4B51046  30.578  40.543   7.460
 3944POPC   NC351047  16.993   0.897   5.437
 3944POPC   PO451048  16.714   1.493   5.563
 3944POPC   GL151049  16.601   1.270   5.887
 3944POPC   GL251050  16.330   1.124   5.724
 3944POPC   C1A51051  16.510   1.348   6.298
 3944POPC   D2A51052  16.690   1.221   6.643
 3944POPC   C3A51053  16.587   1.430   6.976
 3944POPC   C4A51054  16.589   1.336   7.375
 3944POPC   C1B51055  16.258   0.917   6.119
 3944POPC   C2B51056  16.388   0.826   6.535
 3944POPC   C3B51057  16.379   0.960   6.962
 3944POPC   C4B51058  16.510   0.833   7.369
 3945POPC   NC351059  44.063  22.956   5.209
 3945POPC   PO451060  43.450  22.925   5.371
 3945POPC   GL151061  43.699  22.988   5.727
 3945POPC   GL251062  44.050  22.992   5.735
 3945POPC   C1A51063  43.684  23.127   6.151
 3945POPC   D2A51064  43.767  22.923   6.546
 3945POPC   C3A51065  43.949  23.122   6.911
 3945POPC   C4A51066  43.801  23.234   7.277
 3945POPC   C1B51067  44.110  22.846   6.162
 3945POPC   C2B51068  44.268  22.874   6.592
 3945POPC   C3B51069  44.219  22.700   6.972
 3945POPC   C4B51070  44.237  22.908   7.353
 3946POPC   NC351071   8.229  28.852   5.622
 3946POPC   PO451072   8.228  28.195   5.580
 3946POPC   GL151073   8.155  28.299   5.965
 3946POPC   GL251074   8.397  28.091   6.117
 3946POPC   C1A51075   7.926  28.194   6.342
 3946POPC   D2A51076   7.789  28.363   6.749
 3946POPC   C3A51077   8.005  28.297   7.163
 3946POPC   C4A51078   8.116  28.052   7.532
 3946POPC   C1B51079   8.369  28.478   6.399
 3946POPC   C2B51080   8.298  28.591   6.843
 3946POPC   C3B51081   8.416  28.598   7.290
 3946POPC   C4B51082   8.536  28.768   7.719
 3947POPC   NC351083  44.208  21.883   5.098
 3947POPC   PO451084  43.786  22.420   5.315
 3947POPC   GL151085  43.773  22.177   5.717
 3947POPC   GL251086  43.865  22.501   5.849
 3947POPC   C1A51087  43.588  21.985   6.087
 3947POPC   D2A51088  43.784  21.906   6.492
 3947POPC   C3A51089  43.622  22.047   6.931
 3947POPC   C4A51090  43.754  22.120   7.359
 3947POPC   C1B51091  43.971  22.339   6.238
 3947POPC   C2B51092  43.855  22.424   6.655
 3947POPC   C3B51093  43.729  22.660   7.017
 3947POPC   C4B51094  43.772  22.746   7.467
 3948POPC   NC351095  17.166   3.439   5.472
 3948POPC   PO451096  16.606   3.811   5.502
 3948POPC   GL151097  16.834   3.677   5.849
 3948POPC   GL251098  17.152   3.870   5.811
 3948POPC   C1A51099  16.779   3.345   6.169
 3948POPC   D2A51100  16.773   3.186   6.583
 3948POPC   C3A51101  16.481   3.305   6.868
 3948POPC   C4A51102  16.483   3.519   7.251
 3948POPC   C1B51103  17.209   3.638   6.203
 3948POPC   C2B51104  17.059   3.736   6.618
 3948POPC   C3B51105  16.936   3.550   6.997
 3948POPC   C4B51106  17.174   3.454   7.353
 3949POPC   NC351107  15.006  15.609   5.463
 3949POPC   PO451108  15.314  16.218   5.323
 3949POPC   GL151109  15.176  16.113   5.736
 3949POPC   GL251110  15.154  15.785   5.905
 3949POPC   C1A51111  15.328  16.258   6.152
 3949POPC   D2A51112  15.185  16.092   6.525
 3949POPC   C3A51113  15.333  16.265   6.918
 3949POPC   C4A51114  15.240  16.354   7.361
 3949POPC   C1B51115  14.894  15.749   6.265
 3949POPC   C2B51116  14.722  15.468   6.583
 3949POPC   C3B51117  14.833  15.546   7.011
 3949POPC   C4B51118  15.223  15.803   7.134
 3950POPC   NC351119  39.221  31.020   5.456
 3950POPC   PO451120  38.893  30.411   5.515
 3950POPC   GL151121  38.995  30.691   5.804
 3950POPC   GL251122  39.350  30.672   5.835
 3950POPC   C1A51123  38.995  30.699   6.235
 3950POPC   D2A51124  39.019  30.906   6.621
 3950POPC   C3A51125  39.065  30.619   6.944
 3950POPC   C4A51126  39.027  30.794   7.312
 3950POPC   C1B51127  39.504  30.857   6.194
 3950POPC   C2B51128  39.518  31.078   6.564
 3950POPC   C3B51129  39.476  30.910   6.953
 3950POPC   C4B51130  39.558  30.616   7.234
 3951POPC   NC351131  13.300  29.155   5.590
 3951POPC   PO451132  12.728  29.475   5.550
 3951POPC   GL151133  12.832  29.313   5.948
 3951POPC   GL251134  12.767  28.983   5.950
 3951POPC   C1A51135  12.863  29.157   6.406
 3951POPC   D2A51136  13.226  29.042   6.656
 3951POPC   C3A51137  13.138  29.154   7.075
 3951POPC   C4A51138  12.763  29.304   7.269
 3951POPC   C1B51139  12.564  28.741   6.286
 3951POPC   C2B51140  12.761  28.659   6.654
 3951POPC   C3B51141  12.699  28.903   6.966
 3951POPC   C4B51142  12.406  28.917   7.295
 3952POPC   NC351143   1.643  19.450   5.515
 3952POPC   PO451144   2.018  18.946   5.290
 3952POPC   GL151145   1.991  18.919   5.759
 3952POPC   GL251146   1.735  19.089   5.892
 3952POPC   C1A51147   2.146  18.760   6.141
 3952POPC   D2A51148   1.904  18.675   6.522
 3952POPC   C3A51149   2.059  18.879   6.905
 3952POPC   C4A51150   1.949  18.902   7.341
 3952POPC   C1B51151   1.893  19.174   6.314
 3952POPC   C2B51152   2.006  19.345   6.728
 3952POPC   C3B51153   1.768  19.318   7.106
 3952POPC   C4B51154   1.650  19.276   7.520
 3953POPC   NC351155   0.124  39.766   5.484
 3953POPC   PO451156   0.622  40.253   5.523
 3953POPC   GL151157   0.508  40.076   5.881
 3953POPC   GL251158   0.733  40.355   6.027
 3953POPC   C1A51159   0.232  39.825   6.178
 3953POPC   D2A51160   0.032  39.873   6.600
 3953POPC   C3A51161   0.116  39.630   6.968
 3953POPC   C4A51162   0.249  39.927   7.226
 3953POPC   C1B51163   0.670  40.015   6.359
 3953POPC   C2B51164   0.622  39.854   6.794
 3953POPC   C3B51165   0.890  39.985   7.164
 3953POPC   C4B51166   0.957  40.440   7.274
 3954POPC   NC351167  14.956  22.453   5.457
 3954POPC   PO451168  14.853  21.837   5.446
 3954POPC   GL151169  14.991  22.094   5.820
 3954POPC   GL251170  15.343  22.258   5.771
 3954POPC   C1A51171  15.097  22.240   6.260
 3954POPC   D2A51172  15.121  22.292   6.722
 3954POPC   C3A51173  15.054  21.953   7.011
 3954POPC   C4A51174  15.191  22.069   7.421
 3954POPC   C1B51175  15.503  22.564   6.095
 3954POPC   C2B51176  15.422  22.692   6.554
 3954POPC   C3B51177  15.444  22.603   7.038
 3954POPC   C4B51178  15.405  22.526   7.522
 3955POPC   NC351179  16.003  33.981   5.432
 3955POPC   PO451180  15.453  33.537   5.498
 3955POPC   GL151181  15.737  33.765   5.814
 3955POPC   GL251182  16.084  33.671   5.861
 3955POPC   C1A51183  15.844  33.868   6.258
 3955POPC   D2A51184  15.783  33.581   6.605
 3955POPC   C3A51185  15.999  33.617   6.954
 3955POPC   C4A51186  16.121  33.977   7.183
 3955POPC   C1B51187  16.305  33.588   6.269
 3955POPC   C2B51188  16.431  33.513   6.710
 3955POPC   C3B51189  16.441  33.565   7.195
 3955POPC   C4B51190  16.091  33.449   7.448
 3956POPC   NC351191  31.727  15.447   5.453
 3956POPC   PO451192  31.398  14.803   5.482
 3956POPC   GL151193  31.462  15.071   5.840
 3956POPC   GL251194  31.774  15.144   5.865
 3956POPC   C1A51195  31.521  15.256   6.276
 3956POPC   D2A51196  31.309  15.381   6.653
 3956POPC   C3A51197  31.534  15.302   7.016
 3956POPC   C4A51198  31.398  15.053   7.333
 3956POPC   C1B51199  31.958  14.960   6.232
 3956POPC   C2B51200  31.876  14.858   6.668
 3956POPC   C3B51201  31.942  14.985   7.100
 3956POPC   C4B51202  31.849  15.262   7.455
 3957POPC   NC351203  29.800   5.426   5.186
 3957POPC   PO451204  30.269   5.883   5.452
 3957POPC   GL151205  30.017   5.802   5.788
 3957POPC   GL251206  29.792   5.544   5.737
 3957POPC   C1A51207  30.125   5.781   6.207
 3957POPC   D2A51208  30.047   5.976   6.621
 3957POPC   C3A51209  30.104   5.692   6.981
 3957POPC   C4A51210  29.906   5.803   7.391
 3957POPC   C1B51211  29.645   5.692   6.185
 3957POPC   C2B51212  29.681   5.598   6.618
 3957POPC   C3B51213  29.602   5.561   7.052
 3957POPC   C4B51214  29.299   5.390   7.314
 3958POPC   NC351215  24.940  31.128   5.346
 3958POPC   PO451216  25.559  31.434   5.508
 3958POPC   GL151217  25.228  31.281   5.795
 3958POPC   GL251218  24.934  31.452   5.760
 3958POPC   C1A51219  25.152  31.333   6.251
 3958POPC   D2A51220  25.054  31.446   6.688
 3958POPC   C3A51221  25.392  31.356   7.008
 3958POPC   C4A51222  25.797  31.387   7.245
 3958POPC   C1B51223  24.766  31.105   6.006
 3958POPC   C2B51224  24.708  31.118   6.450
 3958POPC   C3B51225  24.711  31.124   6.894
 3958POPC   C4B51226  24.935  31.314   7.240
 3959POPC   NC351227  25.231  27.387   5.421
 3959POPC   PO451228  25.168  28.083   5.454
 3959POPC   GL151229  25.223  27.789   5.811
 3959POPC   GL251230  24.972  27.545   5.856
 3959POPC   C1A51231  25.328  27.572   6.218
 3959POPC   D2A51232  25.530  27.697   6.616
 3959POPC   C3A51233  25.271  27.619   6.962
 3959POPC   C4A51234  24.993  27.866   7.213
 3959POPC   C1B51235  24.809  27.329   6.253
 3959POPC   C2B51236  24.946  27.279   6.706
 3959POPC   C3B51237  24.884  27.359   7.158
 3959POPC   C4B51238  24.951  27.188   7.575
 3960POPC   NC351239  29.570  11.328   5.370
 3960POPC   PO451240  30.178  11.148   5.309
 3960POPC   GL151241  29.968  11.160   5.712
 3960POPC   GL251242  29.728  10.916   5.797
 3960POPC   C1A51243  30.039  11.165   6.162
 3960POPC   D2A51244  29.888  11.318   6.551
 3960POPC   C3A51245  30.055  11.200   6.928
 3960POPC   C4A51246  29.978  11.552   7.228
 3960POPC   C1B51247  29.560  10.979   6.245
 3960POPC   C2B51248  29.371  11.212   6.607
 3960POPC   C3B51249  29.564  11.344   6.968
 3960POPC   C4B51250  29.693  11.062   7.269
 3961POPC   NC351251  27.215  32.871   5.337
 3961POPC   PO451252  26.527  32.714   5.291
 3961POPC   GL151253  26.734  32.917   5.703
 3961POPC   GL251254  27.076  32.806   5.825
 3961POPC   C1A51255  26.722  33.145   6.127
 3961POPC   D2A51256  26.808  33.130   6.570
 3961POPC   C3A51257  27.043  33.222   6.915
 3961POPC   C4A51258  26.967  33.160   7.336
 3961POPC   C1B51259  27.083  32.771   6.277
 3961POPC   C2B51260  26.880  32.630   6.662
 3961POPC   C3B51261  26.822  32.750   7.066
 3961POPC   C4B51262  27.087  32.635   7.347
 3962POPC   NC351263   4.480  34.938   5.313
 3962POPC   PO451264   3.886  34.732   5.474
 3962POPC   GL151265   4.217  34.719   5.764
 3962POPC   GL251266   4.320  34.383   5.650
 3962POPC   C1A51267   4.143  34.713   6.226
 3962POPC   D2A51268   3.894  34.542   6.589
 3962POPC   C3A51269   4.062  34.695   6.989
 3962POPC   C4A51270   4.456  34.776   7.189
 3962POPC   C1B51271   4.315  34.243   6.097
 3962POPC   C2B51272   4.452  34.197   6.529
 3962POPC   C3B51273   4.421  34.258   6.983
 3962POPC   C4B51274   4.723  34.324   7.316
 3963POPC   NC351275  29.759  38.282   5.102
 3963POPC   PO451276  30.211  38.626   5.456
 3963POPC   GL151277  29.958  38.472   5.803
 3963POPC   GL251278  29.721  38.263   5.679
 3963POPC   C1A51279  29.934  38.414   6.242
 3963POPC   D2A51280  29.919  38.266   6.665
 3963POPC   C3A51281  30.032  38.493   7.031
 3963POPC   C4A51282  30.422  38.705   7.091
 3963POPC   C1B51283  29.544  38.106   6.067
 3963POPC   C2B51284  29.462  38.141   6.518
 3963POPC   C3B51285  29.559  38.015   6.955
 3963POPC   C4B51286  29.525  38.233   7.363
 3964POPC   NC351287  37.781   3.153   5.157
 3964POPC   PO451288  37.505   3.676   5.466
 3964POPC   GL151289  37.678   3.494   5.787
 3964POPC   GL251290  37.981   3.375   5.589
 3964POPC   C1A51291  37.685   3.538   6.263
 3964POPC   D2A51292  37.748   3.866   6.602
 3964POPC   C3A51293  37.592   3.764   7.029
 3964POPC   C4A51294  37.631   3.415   7.326
 3964POPC   C1B51295  38.032   3.249   6.023
 3964POPC   C2B51296  38.013   3.197   6.472
 3964POPC   C3B51297  37.881   3.329   6.880
 3964POPC   C4B51298  38.151   3.352   7.218
 3965POPC   NC351299  41.665  34.081   5.271
 3965POPC   PO451300  41.639  33.513   5.419
 3965POPC   GL151301  41.430  33.691   5.774
 3965POPC   GL251302  41.489  34.059   5.784
 3965POPC   C1A51303  41.561  33.627   6.204
 3965POPC   D2A51304  41.847  33.738   6.540
 3965POPC   C3A51305  41.778  33.553   6.958
 3965POPC   C4A51306  41.423  33.514   7.182
 3965POPC   C1B51307  41.550  34.133   6.245
 3965POPC   C2B51308  41.379  33.932   6.617
 3965POPC   C3B51309  41.504  34.008   7.041
 3965POPC   C4B51310  41.750  34.320   7.257
 3966POPC   NC351311  31.797   2.240   5.595
 3966POPC   PO451312  31.550   1.938   5.076
 3966POPC   GL151313  31.447   1.845   5.555
 3966POPC   GL251314  31.222   2.056   5.777
 3966POPC   C1A51315  31.596   1.812   6.027
 3966POPC   D2A51316  31.678   2.052   6.402
 3966POPC   C3A51317  31.540   1.966   6.845
 3966POPC   C4A51318  31.580   1.666   7.223
 3966POPC   C1B51319  31.149   2.099   6.238
 3966POPC   C2B51320  31.017   1.962   6.674
 3966POPC   C3B51321  31.104   1.878   7.100
 3966POPC   C4B51322  31.375   2.138   7.316
 3967POPC   NC351323  43.897  19.248   5.465
 3967POPC   PO451324  43.998  19.892   5.492
 3967POPC   GL151325  43.945  19.624   5.821
 3967POPC   GL251326  44.205  19.391   5.862
 3967POPC   C1A51327  43.778  19.678   6.221
 3967POPC   D2A51328  43.471  19.760   6.511
 3967POPC   C3A51329  43.681  19.865   6.879
 3967POPC   C4A51330  43.592  19.714   7.293
 3967POPC   C1B51331  44.286  19.652   6.222
 3967POPC   C2B51332  44.169  19.669   6.657
 3967POPC   C3B51333  44.180  19.928   7.022
 3967POPC   C4B51334  43.880  20.162   7.277
 3968POPC   NC351335   6.121  18.980   5.719
 3968POPC   PO451336   5.640  19.338   5.404
 3968POPC   GL151337   5.741  19.225   5.897
 3968POPC   GL251338   6.089  19.309   6.102
 3968POPC   C1A51339   5.777  18.889   6.245
 3968POPC   D2A51340   5.789  18.562   6.566
 3968POPC   C3A51341   5.869  18.745   6.965
 3968POPC   C4A51342   6.006  18.577   7.369
 3968POPC   C1B51343   5.758  19.508   6.345
 3968POPC   C2B51344   5.542  19.422   6.736
 3968POPC   C3B51345   5.696  19.334   7.179
 3968POPC   C4B51346   6.056  19.082   7.310
 3969POPC   NC351347   5.613  16.060   5.436
 3969POPC   PO451348   6.315  16.166   5.416
 3969POPC   GL151349   6.060  15.941   5.686
 3969POPC   GL251350   5.952  16.270   5.805
 3969POPC   C1A51351   6.031  15.866   6.131
 3969POPC   D2A51352   6.129  15.862   6.564
 3969POPC   C3A51353   5.805  15.802   6.868
 3969POPC   C4A51354   5.796  15.637   7.275
 3969POPC   C1B51355   5.674  16.346   6.164
 3969POPC   C2B51356   5.588  16.191   6.587
 3969POPC   C3B51357   5.632  16.266   7.035
 3969POPC   C4B51358   5.558  16.066   7.459
 3970POPC   NC351359   8.326  30.961   5.076
 3970POPC   PO451360   8.223  31.485   5.473
 3970POPC   GL151361   8.215  31.700   5.852
 3970POPC   GL251362   8.594  31.763   5.834
 3970POPC   C1A51363   8.006  31.436   6.192
 3970POPC   D2A51364   8.033  31.156   6.558
 3970POPC   C3A51365   8.038  31.340   6.987
 3970POPC   C4A51366   8.057  31.371   7.453
 3970POPC   C1B51367   8.512  31.552   6.220
 3970POPC   C2B51368   8.536  31.307   6.539
 3970POPC   C3B51369   8.552  31.397   6.937
 3970POPC   C4B51370   8.604  31.520   7.334
 3971POPC   NC351371  38.692  27.927   5.379
 3971POPC   PO451372  38.318  27.314   5.487
 3971POPC   GL151373  38.528  27.283   5.854
 3971POPC   GL251374  38.554  27.650   5.815
 3971POPC   C1A51375  38.473  27.375   6.275
 3971POPC   D2A51376  38.689  27.483   6.625
 3971POPC   C3A51377  38.462  27.455   6.979
 3971POPC   C4A51378  38.142  27.383   7.241
 3971POPC   C1B51379  38.732  27.828   6.163
 3971POPC   C2B51380  38.858  27.980   6.545
 3971POPC   C3B51381  38.706  27.903   6.915
 3971POPC   C4B51382  38.642  27.817   7.317
 3972POPC   NC351383   5.263  22.454   5.420
 3972POPC   PO451384   5.509  21.888   5.258
 3972POPC   GL151385   5.223  21.906   5.654
 3972POPC   GL251386   4.978  22.173   5.748
 3972POPC   C1A51387   5.164  21.827   6.134
 3972POPC   D2A51388   5.028  21.731   6.586
 3972POPC   C3A51389   5.261  21.831   6.999
 3972POPC   C4A51390   5.164  21.923   7.452
 3972POPC   C1B51391   5.261  22.346   6.117
 3972POPC   C2B51392   5.410  22.281   6.565
 3972POPC   C3B51393   5.455  22.328   7.030
 3972POPC   C4B51394   5.267  22.419   7.460
 3973POPC   NC351395  23.676   3.257   5.287
 3973POPC   PO451396  24.172   3.725   5.479
 3973POPC   GL151397  23.840   3.628   5.796
 3973POPC   GL251398  23.926   3.300   5.891
 3973POPC   C1A51399  23.617   3.700   6.243
 3973POPC   D2A51400  23.459   3.571   6.689
 3973POPC   C3A51401  23.638   3.818   7.073
 3973POPC   C4A51402  23.551   3.792   7.548
 3973POPC   C1B51403  24.118   3.575   6.237
 3973POPC   C2B51404  23.969   3.620   6.675
 3973POPC   C3B51405  23.841   3.270   6.958
 3973POPC   C4B51406  24.087   2.981   7.230
 3974POPC   NC351407  35.918  41.169   5.432
 3974POPC   PO451408  36.338  41.757   5.435
 3974POPC   GL151409  36.185  41.743   5.814
 3974POPC   GL251410  36.336  41.415   5.858
 3974POPC   C1A51411  35.997  41.591   6.187
 3974POPC   D2A51412  36.187  41.383   6.514
 3974POPC   C3A51413  36.173  41.650   6.861
 3974POPC   C4A51414  36.210  41.544   7.263
 3974POPC   C1B51415  36.592  41.188   6.172
 3974POPC   C2B51416  36.571  41.022   6.595
 3974POPC   C3B51417  36.463  41.202   6.960
 3974POPC   C4B51418  36.678  41.337   7.296
 3975POPC   NC351419  18.144   7.043   5.534
 3975POPC   PO451420  18.763   7.203   5.368
 3975POPC   GL151421  18.541   7.308   5.771
 3975POPC   GL251422  18.465   7.693   5.802
 3975POPC   C1A51423  18.257   7.348   6.137
 3975POPC   D2A51424  18.214   7.452   6.577
 3975POPC   C3A51425  18.034   7.278   6.959
 3975POPC   C4A51426  18.132   7.335   7.396
 3975POPC   C1B51427  18.231   7.862   6.185
 3975POPC   C2B51428  18.291   7.971   6.620
 3975POPC   C3B51429  18.218   7.756   7.018
 3975POPC   C4B51430  18.387   7.776   7.434
 3976POPC   NC351431  27.490  33.482   5.424
 3976POPC   PO451432  27.895  33.920   5.454
 3976POPC   GL151433  27.671  33.765   5.845
 3976POPC   GL251434  27.319  33.641   5.877
 3976POPC   C1A51435  27.547  33.831   6.291
 3976POPC   D2A51436  27.632  34.013   6.682
 3976POPC   C3A51437  27.631  33.805   7.081
 3976POPC   C4A51438  27.457  33.893   7.503
 3976POPC   C1B51439  27.137  33.508   6.299
 3976POPC   C2B51440  27.309  33.614   6.716
 3976POPC   C3B51441  27.139  33.668   7.149
 3976POPC   C4B51442  27.125  33.542   7.643
 3977POPC   NC351443  33.241  25.957   5.124
 3977POPC   PO451444  32.858  25.893   5.628
 3977POPC   GL151445  33.064  26.101   5.874
 3977POPC   GL251446  33.380  26.218   5.684
 3977POPC   C1A51447  33.099  25.960   6.296
 3977POPC   D2A51448  33.184  25.894   6.731
 3977POPC   C3A51449  32.911  26.102   7.013
 3977POPC   C4A51450  32.903  26.058   7.450
 3977POPC   C1B51451  33.421  26.352   6.093
 3977POPC   C2B51452  33.323  26.353   6.496
 3977POPC   C3B51453  33.329  26.392   6.897
 3977POPC   C4B51454  33.084  26.501   7.254
 3978POPC   NC351455   0.695  24.797   5.509
 3978POPC   PO451456   0.477  24.154   5.433
 3978POPC   GL151457   0.369  24.467   5.780
 3978POPC   GL251458   0.564  24.286   6.002
 3978POPC   C1A51459   0.267  24.701   6.198
 3978POPC   D2A51460   0.418  24.772   6.655
 3978POPC   C3A51461   0.200  24.620   7.056
 3978POPC   C4A51462   0.294  24.633   7.534
 3978POPC   C1B51463   0.449  24.282   6.442
 3978POPC   C2B51464   0.544  24.076   6.813
 3978POPC   C3B51465   0.523  24.282   7.226
 3978POPC   C4B51466   0.552  24.212   7.677
 3979POPC   NC351467  20.133  43.775   5.312
 3979POPC   PO451468  19.508  43.947   5.336
 3979POPC   GL151469  19.776  43.865   5.710
 3979POPC   GL251470  20.000  44.114   5.794
 3979POPC   C1A51471  19.754  43.753   6.165
 3979POPC   D2A51472  19.512  43.914   6.523
 3979POPC   C3A51473  19.694  43.816   6.917
 3979POPC   C4A51474  19.583  43.919   7.319
 3979POPC   C1B51475  20.195  44.318   6.106
 3979POPC   C2B51476  20.121  44.152   6.492
 3979POPC   C3B51477  20.090  44.140   6.913
 3979POPC   C4B51478  20.098  43.946   7.327
 3980POPC   NC351479  35.549  26.353   5.424
 3980POPC   PO451480  35.127  26.917   5.185
 3980POPC   GL151481  35.193  26.684   5.600
 3980POPC   GL251482  35.510  26.858   5.647
 3980POPC   C1A51483  35.171  26.711   6.083
 3980POPC   D2A51484  35.241  27.085   6.391
 3980POPC   C3A51485  35.200  27.168   6.839
 3980POPC   C4A51486  35.110  26.924   7.210
 3980POPC   C1B51487  35.615  26.967   6.071
 3980POPC   C2B51488  35.683  26.746   6.463
 3980POPC   C3B51489  35.506  26.719   6.871
 3980POPC   C4B51490  35.600  27.026   7.145
 3981POPC   NC351491  11.021  37.179   5.398
 3981POPC   PO451492  10.954  36.570   5.595
 3981POPC   GL151493  11.138  36.833   5.872
 3981POPC   GL251494  10.903  36.725   6.084
 3981POPC   C1A51495  11.199  37.147   6.206
 3981POPC   D2A51496  11.268  37.270   6.629
 3981POPC   C3A51497  11.481  37.054   6.943
 3981POPC   C4A51498  11.492  36.724   7.224
 3981POPC   C1B51499  11.195  36.629   6.369
 3981POPC   C2B51500  11.109  36.731   6.775
 3981POPC   C3B51501  10.998  36.546   7.151
 3981POPC   C4B51502  11.111  36.578   7.594
 3982POPC   NC351503  41.196   2.636   5.042
 3982POPC   PO451504  41.767   2.452   5.341
 3982POPC   GL151505  41.631   2.702   5.706
 3982POPC   GL251506  41.589   2.423   5.900
 3982POPC   C1A51507  41.434   2.853   6.151
 3982POPC   D2A51508  41.137   2.991   6.533
 3982POPC   C3A51509  41.313   2.971   6.949
 3982POPC   C4A51510  41.602   2.907   7.289
 3982POPC   C1B51511  41.431   2.356   6.283
 3982POPC   C2B51512  41.413   2.575   6.627
 3982POPC   C3B51513  41.479   2.478   7.000
 3982POPC   C4B51514  41.740   2.412   7.308
 3983POPC   NC351515  44.212  44.568   5.384
 3983POPC   PO451516  43.552  44.278   5.520
 3983POPC   GL151517  43.891  44.391   5.802
 3983POPC   GL251518  44.193  44.612   5.901
 3983POPC   C1A51519  43.908  44.265   6.223
 3983POPC   D2A51520  43.997  44.468   6.597
 3983POPC   C3A51521  43.952  44.353   7.003
 3983POPC   C4A51522  43.683  44.638   7.245
 3983POPC   C1B51523  43.925  44.817   6.203
 3983POPC   C2B51524  43.824  44.970   6.601
 3983POPC   C3B51525  44.057  44.882   6.954
 3983POPC   C4B51526  44.035   0.033   7.339
 3984POPC   NC351527   6.802  20.803   5.453
 3984POPC   PO451528   6.617  20.186   5.356
 3984POPC   GL151529   6.558  20.466   5.749
 3984POPC   GL251530   6.840  20.657   5.922
 3984POPC   C1A51531   6.403  20.663   6.152
 3984POPC   D2A51532   6.428  20.520   6.574
 3984POPC   C3A51533   6.305  20.685   6.968
 3984POPC   C4A51534   6.631  20.565   7.200
 3984POPC   C1B51535   6.908  20.610   6.351
 3984POPC   C2B51536   6.959  20.589   6.788
 3984POPC   C3B51537   7.121  20.699   7.176
 3984POPC   C4B51538   7.081  20.367   7.463
 3985POPC   NC351539  15.923  23.356   5.726
 3985POPC   PO451540  15.991  22.854   5.288
 3985POPC   GL151541  15.836  22.836   5.754
 3985POPC   GL251542  16.170  22.832   5.853
 3985POPC   C1A51543  15.787  22.977   6.247
 3985POPC   D2A51544  15.680  23.120   6.691
 3985POPC   C3A51545  15.918  23.057   7.080
 3985POPC   C4A51546  15.934  23.357   7.424
 3985POPC   C1B51547  16.157  22.637   6.265
 3985POPC   C2B51548  15.954  22.616   6.678
 3985POPC   C3B51549  16.127  22.601   7.097
 3985POPC   C4B51550  15.910  22.559   7.478
 3986POPC   NC351551  41.059   7.674   5.552
 3986POPC   PO451552  40.621   7.105   5.426
 3986POPC   GL151553  40.715   7.362   5.792
 3986POPC   GL251554  40.423   7.503   5.964
 3986POPC   C1A51555  40.822   7.258   6.212
 3986POPC   D2A51556  40.582   7.176   6.569
 3986POPC   C3A51557  40.553   7.390   6.962
 3986POPC   C4A51558  40.842   7.125   7.160
 3986POPC   C1B51559  40.519   7.655   6.382
 3986POPC   C2B51560  40.910   7.589   6.643
 3986POPC   C3B51561  40.970   7.662   7.095
 3986POPC   C4B51562  40.712   7.867   7.408
 3987POPC   NC351563  32.775   2.392   5.739
 3987POPC   PO451564  33.076   3.005   5.610
 3987POPC   GL151565  33.002   2.797   5.998
 3987POPC   GL251566  32.698   2.878   6.068
 3987POPC   C1A51567  33.165   2.564   6.339
 3987POPC   D2A51568  32.968   2.522   6.733
 3987POPC   C3A51569  33.220   2.529   7.073
 3987POPC   C4A51570  33.319   2.820   7.348
 3987POPC   C1B51571  32.434   2.908   6.424
 3987POPC   C2B51572  32.506   2.825   6.860
 3987POPC   C3B51573  32.733   2.620   7.186
 3987POPC   C4B51574  32.878   2.769   7.562
 3988POPC   NC351575  44.418  35.598   5.571
 3988POPC   PO451576  44.800  35.083   5.298
 3988POPC   GL151577  44.673  35.169   5.723
 3988POPC   GL251578  44.856  35.469   5.847
 3988POPC   C1A51579  44.540  34.977   6.122
 3988POPC   D2A51580  44.405  35.198   6.480
 3988POPC   C3A51581  44.496  35.228   6.911
 3988POPC   C4A51582  44.376  35.231   7.333
 3988POPC   C1B51583  44.903  35.344   6.306
 3988POPC   C2B51584  44.982  35.343   6.792
 3988POPC   C3B51585  44.817  35.477   7.217
 3988POPC   C4B51586  44.992  35.654   7.612
 3989POPC   NC351587  12.427  18.634   5.272
 3989POPC   PO451588  11.798  18.350   5.374
 3989POPC   GL151589  12.065  18.295   5.777
 3989POPC   GL251590  12.211  17.950   5.889
 3989POPC   C1A51591  12.159  18.375   6.230
 3989POPC   D2A51592  12.396  18.222   6.611
 3989POPC   C3A51593  12.213  18.178   7.015
 3989POPC   C4A51594  12.118  18.546   7.241
 3989POPC   C1B51595  11.796  18.002   6.089
 3989POPC   C2B51596  11.629  17.980   6.472
 3989POPC   C3B51597  11.762  18.232   6.807
 3989POPC   C4B51598  11.736  18.200   7.263
 3990POPC   NC351599  23.769  35.504   5.195
 3990POPC   PO451600  23.448  34.919   5.495
 3990POPC   GL151601  23.631  35.226   5.812
 3990POPC   GL251602  23.835  35.558   5.737
 3990POPC   C1A51603  23.692  35.384   6.252
 3990POPC   D2A51604  23.832  35.457   6.687
 3990POPC   C3A51605  23.585  35.564   7.030
 3990POPC   C4A51606  23.369  35.294   7.224
 3990POPC   C1B51607  24.111  35.701   6.100
 3990POPC   C2B51608  24.065  35.878   6.520
 3990POPC   C3B51609  23.981  35.881   6.971
 3990POPC   C4B51610  24.118  35.479   7.140
 3991POPC   NC351611  42.634  40.701   5.502
 3991POPC   PO451612  41.939  40.556   5.516
 3991POPC   GL151613  42.232  40.800   5.835
 3991POPC   GL251614  42.516  40.633   5.978
 3991POPC   C1A51615  42.240  41.026   6.256
 3991POPC   D2A51616  42.401  41.212   6.680
 3991POPC   C3A51617  42.267  41.070   7.081
 3991POPC   C4A51618  42.141  40.656   7.225
 3991POPC   C1B51619  42.523  40.619   6.392
 3991POPC   C2B51620  42.416  40.684   6.780
 3991POPC   C3B51621  42.640  40.686   7.165
 3991POPC   C4B51622  42.528  40.405   7.501
 3992POPC   NC351623  37.062  33.581   5.434
 3992POPC   PO451624  37.831  33.796   5.389
 3992POPC   GL151625  37.738  33.918   5.812
 3992POPC   GL251626  37.424  33.769   5.743
 3992POPC   C1A51627  37.775  34.025   6.259
 3992POPC   D2A51628  37.788  33.927   6.671
 3992POPC   C3A51629  37.991  34.148   6.999
 3992POPC   C4A51630  37.868  33.899   7.315
 3992POPC   C1B51631  37.346  33.720   6.163
 3992POPC   C2B51632  37.376  33.606   6.596
 3992POPC   C3B51633  37.558  33.575   7.000
 3992POPC   C4B51634  37.345  33.766   7.339
 3993POPC   NC351635   4.495  26.342   5.480
 3993POPC   PO451636   4.066  26.947   5.365
 3993POPC   GL151637   4.180  27.021   5.803
 3993POPC   GL251638   4.332  26.675   5.847
 3993POPC   C1A51639   4.341  27.003   6.252
 3993POPC   D2A51640   4.645  26.935   6.596
 3993POPC   C3A51641   4.438  27.055   6.962
 3993POPC   C4A51642   4.064  26.851   7.107
 3993POPC   C1B51643   4.658  26.602   6.185
 3993POPC   C2B51644   4.608  26.435   6.655
 3993POPC   C3B51645   4.327  26.391   7.024
 3993POPC   C4B51646   4.264  26.450   7.473
 3994POPC   NC351647   5.985  44.069   5.376
 3994POPC   PO451648   5.441  43.723   5.375
 3994POPC   GL151649   5.599  43.995   5.694
 3994POPC   GL251650   5.613  43.719   5.921
 3994POPC   C1A51651   5.810  44.219   6.043
 3994POPC   D2A51652   5.825  44.341   6.491
 3994POPC   C3A51653   5.936  44.050   6.821
 3994POPC   C4A51654   6.053  43.891   7.221
 3994POPC   C1B51655   5.598  43.846   6.352
 3994POPC   C2B51656   5.680  43.605   6.708
 3994POPC   C3B51657   5.534  43.714   7.076
 3994POPC   C4B51658   5.589  44.054   7.314
 3995POPC   NC351659  11.020  33.693   5.048
 3995POPC   PO451660  11.309  33.396   5.588
 3995POPC   GL151661  11.145  33.576   5.953
 3995POPC   GL251662  10.999  33.902   5.884
 3995POPC   C1A51663  10.962  33.608   6.352
 3995POPC   D2A51664  10.904  33.824   6.744
 3995POPC   C3A51665  11.223  33.595   6.987
 3995POPC   C4A51666  11.299  33.482   7.408
 3995POPC   C1B51667  10.970  34.122   6.302
 3995POPC   C2B51668  11.180  34.294   6.672
 3995POPC   C3B51669  11.253  34.103   7.066
 3995POPC   C4B51670  10.934  33.886   7.310
 3996POPC   NC351671  13.410  40.936   5.333
 3996POPC   PO451672  13.769  40.396   5.296
 3996POPC   GL151673  13.557  40.564   5.688
 3996POPC   GL251674  13.595  40.942   5.812
 3996POPC   C1A51675  13.666  40.484   6.120
 3996POPC   D2A51676  13.927  40.585   6.476
 3996POPC   C3A51677  13.722  40.847   6.785
 3996POPC   C4A51678  13.874  40.804   7.180
 3996POPC   C1B51679  13.308  40.855   6.155
 3996POPC   C2B51680  13.268  40.654   6.564
 3996POPC   C3B51681  13.182  40.883   6.940
 3996POPC   C4B51682  13.422  40.944   7.306
 3997POPC   NC351683  18.893  11.498   5.012
 3997POPC   PO451684  19.067  11.178   5.568
 3997POPC   GL151685  18.951  11.349   5.946
 3997POPC   GL251686  19.285  11.419   6.005
 3997POPC   C1A51687  18.969  11.352   6.403
 3997POPC   D2A51688  18.953  11.210   6.807
 3997POPC   C3A51689  18.720  11.347   7.121
 3997POPC   C4A51690  18.854  11.392   7.522
 3997POPC   C1B51691  19.410  11.622   6.309
 3997POPC   C2B51692  19.438  11.399   6.681
 3997POPC   C3B51693  19.381  11.245   7.061
 3997POPC   C4B51694  19.350  11.459   7.445
 3998POPC   NC351695   2.799  14.580   5.333
 3998POPC   PO451696   2.261  14.928   5.611
 3998POPC   GL151697   2.531  14.576   5.932
 3998POPC   GL251698   2.375  14.224   5.973
 3998POPC   C1A51699   2.843  14.391   6.235
 3998POPC   D2A51700   2.969  14.594   6.654
 3998POPC   C3A51701   2.753  14.367   6.997
 3998POPC   C4A51702   2.881  14.178   7.435
 3998POPC   C1B51703   2.373  14.242   6.420
 3998POPC   C2B51704   2.441  13.959   6.771
 3998POPC   C3B51705   2.474  13.969   7.217
 3998POPC   C4B51706   2.418  14.121   7.662
 3999POPC   NC351707  20.316  26.937   5.456
 3999POPC   PO451708  20.899  26.632   5.457
 3999POPC   GL151709  20.662  26.761   5.877
 3999POPC   GL251710  20.477  27.105   5.902
 3999POPC   C1A51711  20.766  26.754   6.345
 3999POPC   D2A51712  20.927  26.474   6.683
 3999POPC   C3A51713  20.716  26.639   7.061
 3999POPC   C4A51714  20.804  27.050   7.273
 3999POPC   C1B51715  20.560  27.212   6.313
 3999POPC   C2B51716  20.763  27.128   6.716
 3999POPC   C3B51717  20.490  27.340   7.003
 3999POPC   C4B51718  20.181  27.331   7.280
 4000POPC   NC351719  29.040   4.109   5.509
 4000POPC   PO451720  29.349   4.713   5.538
 4000POPC   GL151721  29.037   4.558   5.829
 4000POPC   GL251722  29.292   4.309   5.902
 4000POPC   C1A51723  28.954   4.363   6.264
 4000POPC   D2A51724  29.062   4.100   6.616
 4000POPC   C3A51725  28.965   4.340   6.976
 4000POPC   C4A51726  29.070   4.735   7.096
 4000POPC   C1B51727  29.493   4.111   6.276
 4000POPC   C2B51728  29.544   3.862   6.681
 4000POPC   C3B51729  29.486   3.943   7.137
 4000POPC   C4B51730  29.514   4.011   7.617
 4001POPC   NC351731  42.407  41.715   5.398
 4001POPC   PO451732  42.669  41.158   5.542
 4001POPC   GL151733  42.369  41.365   5.828
 4001POPC   GL251734  42.315  41.756   5.885
 4001POPC   C1A51735  42.496  41.483   6.263
 4001POPC   D2A51736  42.588  41.715   6.653
 4001POPC   C3A51737  42.434  41.591   7.063
 4001POPC   C4A51738  42.297  41.820   7.418
 4001POPC   C1B51739  42.120  41.852   6.296
 4001POPC   C2B51740  42.060  41.610   6.641
 4001POPC   C3B51741  41.924  41.489   7.033
 4001POPC   C4B51742  42.045  41.359   7.436
 4002POPC   NC351743  36.696   0.606   5.478
 4002POPC   PO451744  37.309   0.286   5.301
 4002POPC   GL151745  37.150   0.474   5.753
 4002POPC   GL251746  37.056   0.856   5.820
 4002POPC   C1A51747  36.932   0.491   6.196
 4002POPC   D2A51748  36.973   0.732   6.591
 4002POPC   C3A51749  37.067   0.521   6.988
 4002POPC   C4A51750  36.786   0.332   7.309
 4002POPC   C1B51751  36.730   0.965   6.171
 4002POPC   C2B51752  36.487   0.920   6.583
 4002POPC   C3B51753  36.629   0.831   7.013
 4002POPC   C4B51754  36.528   0.756   7.446
 4003POPC   NC351755  31.198  10.770   5.297
 4003POPC   PO451756  31.862  10.538   5.161
 4003POPC   GL151757  31.693  10.652   5.629
 4003POPC   GL251758  31.364  10.548   5.757
 4003POPC   C1A51759  31.678  10.822   6.082
 4003POPC   D2A51760  31.802  10.720   6.536
 4003POPC   C3A51761  31.568  10.641   6.924
 4003POPC   C4A51762  31.642  10.289   7.218
 4003POPC   C1B51763  31.372  10.410   6.211
 4003POPC   C2B51764  31.114  10.254   6.570
 4003POPC   C3B51765  31.155  10.330   7.027
 4003POPC   C4B51766  31.127  10.148   7.447
 4004POPC   NC351767   1.141  43.512   5.148
 4004POPC   PO451768   1.534  43.819   5.622
 4004POPC   GL151769   1.327  43.731   5.962
 4004POPC   GL251770   1.013  43.704   5.812
 4004POPC   C1A51771   1.368  43.777   6.381
 4004POPC   D2A51772   1.137  43.750   6.740
 4004POPC   C3A51773   1.348  44.004   7.046
 4004POPC   C4A51774   1.522  43.743   7.349
 4004POPC   C1B51775   0.839  43.831   6.218
 4004POPC   C2B51776   0.741  44.074   6.582
 4004POPC   C3B51777   0.742  43.957   6.981
 4004POPC   C4B51778   0.995  43.710   7.265
 4005POPC   NC351779  39.701   4.500   5.251
 4005POPC   PO451780  39.706   3.883   5.472
 4005POPC   GL151781  39.940   4.244   5.657
 4005POPC   GL251782  39.735   4.535   5.752
 4005POPC   C1A51783  39.986   4.286   6.128
 4005POPC   D2A51784  39.741   4.203   6.528
 4005POPC   C3A51785  39.924   4.290   6.955
 4005POPC   C4A51786  40.095   4.077   7.324
 4005POPC   C1B51787  39.561   4.580   6.162
 4005POPC   C2B51788  39.621   4.740   6.604
 4005POPC   C3B51789  39.617   4.740   7.064
 4005POPC   C4B51790  39.886   4.811   7.433
 4006POPC   NC351791   6.837  14.108   5.135
 4006POPC   PO451792   6.750  13.463   5.324
 4006POPC   GL151793   6.640  13.488   5.774
 4006POPC   GL251794   6.914  13.523   5.918
 4006POPC   C1A51795   6.435  13.649   6.160
 4006POPC   D2A51796   6.253  13.467   6.543
 4006POPC   C3A51797   6.251  13.733   6.916
 4006POPC   C4A51798   6.473  13.873   7.287
 4006POPC   C1B51799   6.963  13.852   6.223
 4006POPC   C2B51800   7.122  14.025   6.597
 4006POPC   C3B51801   6.889  13.872   6.958
 4006POPC   C4B51802   6.868  13.571   7.317
 4007POPC   NC351803  35.224  44.722   5.269
 4007POPC   PO451804  35.047  44.073   5.519
 4007POPC   GL151805  35.100  44.485   5.779
 4007POPC   GL251806  35.443  44.692   5.747
 4007POPC   C1A51807  35.213  44.676   6.204
 4007POPC   D2A51808  35.490  44.752   6.572
 4007POPC   C3A51809  35.256  44.568   6.906
 4007POPC   C4A51810  35.158  44.733   7.306
 4007POPC   C1B51811  35.634  44.424   6.107
 4007POPC   C2B51812  35.494  44.255   6.518
 4007POPC   C3B51813  35.713  44.350   6.898
 4007POPC   C4B51814  35.653  44.448   7.306
 4008POPC   NC351815   9.614  34.778   5.208
 4008POPC   PO451816   9.947  34.138   5.321
 4008POPC   GL151817   9.928  34.528   5.653
 4008POPC   GL251818   9.622  34.759   5.710
 4008POPC   C1A51819   9.843  34.609   6.137
 4008POPC   D2A51820  10.051  34.641   6.546
 4008POPC   C3A51821  10.135  34.279   6.800
 4008POPC   C4A51822   9.942  34.456   7.139
 4008POPC   C1B51823   9.334  34.903   6.042
 4008POPC   C2B51824   9.382  34.694   6.447
 4008POPC   C3B51825   9.474  34.732   6.902
 4008POPC   C4B51826   9.495  34.616   7.310
 4009POPC   NC351827   6.264   8.451   5.266
 4009POPC   PO451828   5.709   8.109   5.233
 4009POPC   GL151829   5.815   8.235   5.737
 4009POPC   GL251830   5.470   8.199   5.884
 4009POPC   C1A51831   5.910   8.017   6.191
 4009POPC   D2A51832   6.142   7.993   6.603
 4009POPC   C3A51833   6.125   8.170   7.045
 4009POPC   C4A51834   5.935   8.504   7.286
 4009POPC   C1B51835   5.479   8.241   6.347
 4009POPC   C2B51836   5.616   8.018   6.709
 4009POPC   C3B51837   5.607   8.148   7.131
 4009POPC   C4B51838   5.535   8.207   7.597
 4010POPC   NC351839  25.855  38.028   5.561
 4010POPC   PO451840  26.179  37.475   5.316
 4010POPC   GL151841  26.208  37.575   5.767
 4010POPC   GL251842  26.445  37.866   5.751
 4010POPC   C1A51843  25.978  37.665   6.197
 4010POPC   D2A51844  25.775  37.809   6.608
 4010POPC   C3A51845  25.910  37.642   7.019
 4010POPC   C4A51846  25.816  37.709   7.477
 4010POPC   C1B51847  26.489  37.684   6.186
 4010POPC   C2B51848  26.341  37.845   6.606
 4010POPC   C3B51849  26.307  37.997   7.039
 4010POPC   C4B51850  26.343  37.619   7.303
 4011POPC   NC351851  21.216  13.149   5.531
 4011POPC   PO451852  21.703  12.681   5.439
 4011POPC   GL151853  21.449  12.778   5.819
 4011POPC   GL251854  21.563  12.469   5.918
 4011POPC   C1A51855  21.208  12.963   6.208
 4011POPC   D2A51856  21.374  13.028   6.648
 4011POPC   C3A51857  21.198  12.946   7.064
 4011POPC   C4A51858  20.982  12.813   7.437
 4011POPC   C1B51859  21.301  12.470   6.235
 4011POPC   C2B51860  21.559  12.504   6.564
 4011POPC   C3B51861  21.462  12.523   6.950
 4011POPC   C4B51862  21.354  12.485   7.344
 4012POPC   NC351863  29.946  13.992   5.305
 4012POPC   PO451864  29.920  14.637   5.370
 4012POPC   GL151865  29.850  14.414   5.775
 4012POPC   GL251866  30.145  14.160   5.780
 4012POPC   C1A51867  29.641  14.517   6.171
 4012POPC   D2A51868  29.464  14.350   6.546
 4012POPC   C3A51869  29.581  14.549   6.919
 4012POPC   C4A51870  29.744  14.539   7.315
 4012POPC   C1B51871  30.082  14.242   6.232
 4012POPC   C2B51872  29.993  14.571   6.558
 4012POPC   C3B51873  30.129  14.579   6.985
 4012POPC   C4B51874  30.128  14.207   7.243
 4013POPC   NC351875  42.907   8.004   5.495
 4013POPC   PO451876  43.429   8.380   5.515
 4013POPC   GL151877  43.205   8.190   5.903
 4013POPC   GL251878  42.803   8.215   5.936
 4013POPC   C1A51879  43.406   8.060   6.328
 4013POPC   D2A51880  43.370   8.070   6.789
 4013POPC   C3A51881  43.182   8.371   7.092
 4013POPC   C4A51882  43.158   8.366   7.550
 4013POPC   C1B51883  42.911   8.074   6.361
 4013POPC   C2B51884  42.865   8.036   6.812
 4013POPC   C3B51885  42.841   8.063   7.266
 4013POPC   C4B51886  42.685   8.159   7.715
 4014POPC   NC351887   6.281  19.117   5.276
 4014POPC   PO451888   6.920  18.840   5.457
 4014POPC   GL151889   6.665  19.121   5.722
 4014POPC   GL251890   6.584  18.823   5.865
 4014POPC   C1A51891   6.684  19.153   6.200
 4014POPC   D2A51892   6.826  18.836   6.497
 4014POPC   C3A51893   6.651  19.028   6.843
 4014POPC   C4A51894   6.695  19.140   7.243
 4014POPC   C1B51895   6.429  18.612   6.229
 4014POPC   C2B51896   6.292  18.713   6.639
 4014POPC   C3B51897   6.427  18.614   7.049
 4014POPC   C4B51898   6.478  18.753   7.475
 4015POPC   NC351899   0.633  14.895   5.446
 4015POPC   PO451900   0.210  14.276   5.420
 4015POPC   GL151901   0.237  14.408   5.806
 4015POPC   GL251902  44.878  14.328   5.849
 4015POPC   C1A51903   0.538  14.438   6.143
 4015POPC   D2A51904   0.666  14.256   6.515
 4015POPC   C3A51905   0.587  14.436   6.892
 4015POPC   C4A51906   0.694  14.404   7.305
 4015POPC   C1B51907   0.039  14.375   6.282
 4015POPC   C2B51908   0.146  14.239   6.714
 4015POPC   C3B51909   0.206  14.255   7.184
 4015POPC   C4B51910   0.254  14.632   7.443
 4016POPC   NC351911  17.822  12.974   5.293
 4016POPC   PO451912  17.177  12.713   5.269
 4016POPC   GL151913  17.443  12.777   5.624
 4016POPC   GL251914  17.279  13.022   5.831
 4016POPC   C1A51915  17.624  12.641   6.025
 4016POPC   D2A51916  17.814  12.774   6.432
 4016POPC   C3A51917  17.586  12.722   6.824
 4016POPC   C4A51918  17.610  12.765   7.265
 4016POPC   C1B51919  17.494  13.109   6.213
 4016POPC   C2B51920  17.449  13.202   6.658
 4016POPC   C3B51921  17.621  13.250   7.069
 4016POPC   C4B51922  17.698  13.215   7.503
 4017POPC   NC351923  13.032  20.951   5.469
 4017POPC   PO451924  12.880  21.602   5.328
 4017POPC   GL151925  12.995  21.428   5.731
 4017POPC   GL251926  12.786  21.150   5.870
 4017POPC   C1A51927  12.959  21.501   6.190
 4017POPC   D2A51928  12.673  21.239   6.445
 4017POPC   C3A51929  12.551  21.458   6.815
 4017POPC   C4A51930  12.840  21.377   7.127
 4017POPC   C1B51931  13.184  21.044   6.117
 4017POPC   C2B51932  13.179  21.141   6.575
 4017POPC   C3B51933  13.084  20.909   6.964
 4017POPC   C4B51934  12.960  20.974   7.392
 4018POPC   NC351935   7.753   2.998   5.133
 4018POPC   PO451936   7.299   2.777   5.579
 4018POPC   GL151937   7.245   2.709   5.985
 4018POPC   GL251938   7.553   2.526   5.959
 4018POPC   C1A51939   7.453   2.831   6.367
 4018POPC   D2A51940   7.677   3.031   6.683
 4018POPC   C3A51941   7.576   3.163   7.096
 4018POPC   C4A51942   7.271   3.131   7.420
 4018POPC   C1B51943   7.663   2.321   6.341
 4018POPC   C2B51944   7.612   2.498   6.716
 4018POPC   C3B51945   7.356   2.698   6.975
 4018POPC   C4B51946   7.480   2.676   7.356
 4019POPC   NC351947  38.391  36.948   5.645
 4019POPC   PO451948  38.427  36.331   5.175
 4019POPC   GL151949  38.629  36.537   5.597
 4019POPC   GL251950  38.321  36.480   5.852
 4019POPC   C1A51951  38.736  36.633   6.087
 4019POPC   D2A51952  38.646  36.944   6.434
 4019POPC   C3A51953  38.744  36.967   6.880
 4019POPC   C4A51954  38.823  37.015   7.346
 4019POPC   C1B51955  38.381  36.308   6.280
 4019POPC   C2B51956  38.546  36.442   6.645
 4019POPC   C3B51957  38.287  36.740   6.834
 4019POPC   C4B51958  38.342  36.926   7.210
 4020POPC   NC351959  23.348  43.478   5.523
 4020POPC   PO451960  22.717  43.555   5.335
 4020POPC   GL151961  22.905  43.513   5.789
 4020POPC   GL251962  22.927  43.867   5.905
 4020POPC   C1A51963  23.232  43.569   6.175
 4020POPC   D2A51964  23.419  43.664   6.579
 4020POPC   C3A51965  23.098  43.701   6.828
 4020POPC   C4A51966  22.850  43.553   7.171
 4020POPC   C1B51967  22.753  44.197   6.214
 4020POPC   C2B51968  22.635  44.150   6.638
 4020POPC   C3B51969  22.835  44.066   7.043
 4020POPC   C4B51970  22.830  44.058   7.477
 4021POPC   NC351971   5.483   1.478   5.529
 4021POPC   PO451972   4.853   1.247   5.421
 4021POPC   GL151973   5.009   0.984   5.777
 4021POPC   GL251974   5.371   0.964   5.905
 4021POPC   C1A51975   4.909   1.093   6.216
 4021POPC   D2A51976   4.988   1.337   6.628
 4021POPC   C3A51977   4.914   1.332   7.088
 4021POPC   C4A51978   5.088   1.198   7.517
 4021POPC   C1B51979   5.409   1.224   6.305
 4021POPC   C2B51980   5.414   1.119   6.752
 4021POPC   C3B51981   5.459   1.200   7.164
 4021POPC   C4B51982   5.609   1.163   7.597
 4022POPC   NC351983  22.663  24.161   5.599
 4022POPC   PO451984  22.539  24.891   5.452
 4022POPC   GL151985  22.793  24.715   5.863
 4022POPC   GL251986  22.820  24.380   6.016
 4022POPC   C1A51987  23.110  24.730   6.220
 4022POPC   D2A51988  23.256  24.596   6.631
 4022POPC   C3A51989  23.007  24.778   6.964
 4022POPC   C4A51990  23.046  24.936   7.371
 4022POPC   C1B51991  22.979  24.185   6.378
 4022POPC   C2B51992  22.843  23.852   6.660
 4022POPC   C3B51993  22.963  24.054   7.028
 4022POPC   C4B51994  23.267  24.362   7.124
 4023POPC   NC351995  26.327  24.356   5.374
 4023POPC   PO451996  25.684  24.478   5.532
 4023POPC   GL151997  26.009  24.436   5.810
 4023POPC   GL251998  26.267  24.731   5.724
 4023POPC   C1A51999  25.924  24.256   6.242
 4023POPC   D2A52000  25.739  24.388   6.660
 4023POPC   C3A52001  25.977  24.513   7.038
 4023POPC   C4A52002  26.146  24.512   7.476
 4023POPC   C1B52003  26.206  24.717   6.185
 4023POPC   C2B52004  26.264  24.624   6.631
 4023POPC   C3B52005  26.492  24.516   7.036
 4023POPC   C4B52006  26.659  24.863   7.237
 4024POPC   NC352007  19.303  43.462   5.425
 4024POPC   PO452008  19.175  42.699   5.364
 4024POPC   GL152009  19.122  42.949   5.711
 4024POPC   GL252010  18.775  42.805   5.772
 4024POPC   C1A52011  19.243  43.147   6.101
 4024POPC   D2A52012  19.112  43.163   6.534
 4024POPC   C3A52013  19.215  43.040   6.973
 4024POPC   C4A52014  19.084  43.198   7.376
 4024POPC   C1B52015  18.714  43.035   6.144
 4024POPC   C2B52016  18.683  42.917   6.556
 4024POPC   C3B52017  18.617  43.032   6.975
 4024POPC   C4B52018  18.780  42.753   7.263
 4025POPC   NC352019  44.050  17.784   5.033
 4025POPC   PO452020  43.740  17.997   5.579
 4025POPC   GL152021  43.910  17.646   5.773
 4025POPC   GL252022  43.644  17.406   5.808
 4025POPC   C1A52023  44.024  17.458   6.163
 4025POPC   D2A52024  44.206  17.321   6.542
 4025POPC   C3A52025  44.058  17.415   6.916
 4025POPC   C4A52026  43.952  17.213   7.265
 4025POPC   C1B52027  43.459  17.351   6.208
 4025POPC   C2B52028  43.671  17.407   6.574
 4025POPC   C3B52029  43.564  17.514   6.965
 4025POPC   C4B52030  43.502  17.471   7.373
 4026POPC   NC352031  12.651  30.658   5.464
 4026POPC   PO452032  13.369  30.497   5.518
 4026POPC   GL152033  13.014  30.561   5.818
 4026POPC   GL252034  12.703  30.334   5.856
 4026POPC   C1A52035  12.941  30.783   6.220
 4026POPC   D2A52036  13.149  30.949   6.611
 4026POPC   C3A52037  12.883  30.843   6.950
 4026POPC   C4A52038  13.073  30.584   7.205
 4026POPC   C1B52039  12.467  30.511   6.174
 4026POPC   C2B52040  12.584  30.626   6.565
 4026POPC   C3B52041  12.494  30.523   6.962
 4026POPC   C4B52042  12.611  30.481   7.376
 4027POPC   NC352043  14.308  44.968   5.039
 4027POPC   PO452044  14.423   0.501   5.476
 4027POPC   GL152045  14.355   0.348   5.855
 4027POPC   GL252046  14.703   0.421   5.946
 4027POPC   C1A52047  14.344   0.344   6.285
 4027POPC   D2A52048  14.211   0.560   6.606
 4027POPC   C3A52049  14.212   0.201   6.825
 4027POPC   C4A52050  14.294   0.124   7.213
 4027POPC   C1B52051  14.798   0.530   6.407
 4027POPC   C2B52052  14.639   0.467   6.861
 4027POPC   C3B52053  14.667   0.469   7.322
 4027POPC   C4B52054  14.977   0.700   7.592
 4028POPC   NC352055  34.095  28.334   5.521
 4028POPC   PO452056  33.467  28.603   5.413
 4028POPC   GL152057  33.690  28.506   5.801
 4028POPC   GL252058  33.524  28.212   5.891
 4028POPC   C1A52059  33.770  28.490   6.267
 4028POPC   D2A52060  33.655  28.292   6.652
 4028POPC   C3A52061  33.794  28.502   6.974
 4028POPC   C4A52062  33.514  28.557   7.243
 4028POPC   C1B52063  33.645  27.987   6.242
 4028POPC   C2B52064  34.050  28.020   6.472
 4028POPC   C3B52065  34.075  28.072   6.914
 4028POPC   C4B52066  33.723  28.025   7.230
 4029POPC   NC352067  25.065  37.499   5.371
 4029POPC   PO452068  25.399  38.065   5.527
 4029POPC   GL152069  25.413  37.655   5.725
 4029POPC   GL252070  25.073  37.564   5.867
 4029POPC   C1A52071  25.494  37.454   6.126
 4029POPC   D2A52072  25.245  37.460   6.506
 4029POPC   C3A52073  25.415  37.527   6.918
 4029POPC   C4A52074  25.487  37.915   7.138
 4029POPC   C1B52075  25.212  37.881   6.168
 4029POPC   C2B52076  25.291  38.003   6.604
 4029POPC   C3B52077  25.021  37.913   6.944
 4029POPC   C4B52078  24.915  37.925   7.364
 4030POPC   NC352079  24.371  22.923   5.292
 4030POPC   PO452080  24.276  23.483   5.627
 4030POPC   GL152081  24.480  23.125   5.821
 4030POPC   GL252082  24.338  22.811   5.776
 4030POPC   C1A52083  24.659  22.883   6.179
 4030POPC   D2A52084  24.911  22.812   6.528
 4030POPC   C3A52085  24.743  23.038   6.861
 4030POPC   C4A52086  24.579  23.016   7.253
 4030POPC   C1B52087  24.149  22.840   6.165
 4030POPC   C2B52088  24.217  22.688   6.553
 4030POPC   C3B52089  24.290  22.671   6.962
 4030POPC   C4B52090  24.163  22.747   7.368
 4031POPC   NC352091  38.366  24.754   5.375
 4031POPC   PO452092  38.049  24.146   5.545
 4031POPC   GL152093  38.331  24.209   5.874
 4031POPC   GL252094  38.444  24.520   5.844
 4031POPC   C1A52095  38.546  24.153   6.253
 4031POPC   D2A52096  38.527  24.038   6.695
 4031POPC   C3A52097  38.397  24.418   6.926
 4031POPC   C4A52098  38.328  24.708   7.276
 4031POPC   C1B52099  38.695  24.654   6.173
 4031POPC   C2B52100  38.868  24.663   6.597
 4031POPC   C3B52101  38.829  24.677   7.023
 4031POPC   C4B52102  38.928  24.450   7.341
 4032POPC   NC352103  22.648  33.466   5.136
 4032POPC   PO452104  23.001  34.038   5.337
 4032POPC   GL152105  22.874  33.964   5.789
 4032POPC   GL252106  22.678  33.643   5.792
 4032POPC   C1A52107  22.965  33.830   6.240
 4032POPC   D2A52108  22.854  33.963   6.692
 4032POPC   C3A52109  22.982  33.956   7.158
 4032POPC   C4A52110  22.996  34.234   7.566
 4032POPC   C1B52111  22.473  33.549   6.193
 4032POPC   C2B52112  22.413  33.676   6.621
 4032POPC   C3B52113  22.487  33.626   7.066
 4032POPC   C4B52114  22.816  33.499   7.345
 4033POPC   NC352115  35.273  30.541   5.120
 4033POPC   PO452116  35.803  31.012   5.273
 4033POPC   GL152117  35.552  30.666   5.595
 4033POPC   GL252118  35.178  30.679   5.638
 4033POPC   C1A52119  35.598  30.562   6.066
 4033POPC   D2A52120  35.396  30.664   6.491
 4033POPC   C3A52121  35.563  30.605   6.932
 4033POPC   C4A52122  35.344  30.682   7.307
 4033POPC   C1B52123  35.085  30.479   6.053
 4033POPC   C2B52124  35.007  30.331   6.492
 4033POPC   C3B52125  35.070  30.498   6.908
 4033POPC   C4B52126  34.960  30.357   7.347
 4034POPC   NC352127   6.122   4.110   5.228
 4034POPC   PO452128   5.555   4.503   5.392
 4034POPC   GL152129   5.756   4.252   5.661
 4034POPC   GL252130   5.596   3.933   5.531
 4034POPC   C1A52131   5.930   4.293   6.121
 4034POPC   D2A52132   6.136   4.198   6.586
 4034POPC   C3A52133   6.094   4.435   7.013
 4034POPC   C4A52134   6.008   4.669   7.409
 4034POPC   C1B52135   5.591   3.921   5.991
 4034POPC   C2B52136   5.641   4.014   6.435
 4034POPC   C3B52137   5.663   4.274   6.787
 4034POPC   C4B52138   5.664   4.246   7.219
 4035POPC   NC352139  26.945  15.757   5.524
 4035POPC   PO452140  26.521  16.192   5.286
 4035POPC   GL152141  26.727  16.145   5.804
 4035POPC   GL252142  26.978  15.855   5.999
 4035POPC   C1A52143  26.911  16.238   6.293
 4035POPC   D2A52144  27.067  16.067   6.725
 4035POPC   C3A52145  26.822  16.180   7.104
 4035POPC   C4A52146  26.850  16.375   7.542
 4035POPC   C1B52147  26.792  15.645   6.358
 4035POPC   C2B52148  26.748  15.524   6.795
 4035POPC   C3B52149  26.975  15.705   7.112
 4035POPC   C4B52150  26.960  15.877   7.508
 4036POPC   NC352151  41.792  25.293   5.521
 4036POPC   PO452152  41.277  24.922   5.230
 4036POPC   GL152153  41.400  25.099   5.745
 4036POPC   GL252154  41.477  25.390   5.951
 4036POPC   C1A52155  41.322  25.030   6.258
 4036POPC   D2A52156  41.418  25.260   6.649
 4036POPC   C3A52157  41.609  25.085   7.037
 4036POPC   C4A52158  41.850  25.129   7.417
 4036POPC   C1B52159  41.808  25.387   6.273
 4036POPC   C2B52160  41.903  25.434   6.723
 4036POPC   C3B52161  41.767  25.566   7.142
 4036POPC   C4B52162  41.859  25.614   7.604
 4037POPC   NC352163  24.254   0.998   5.661
 4037POPC   PO452164  24.728   1.379   5.464
 4037POPC   GL152165  24.633   1.357   5.889
 4037POPC   GL252166  24.290   1.489   5.898
 4037POPC   C1A52167  24.501   1.190   6.292
 4037POPC   D2A52168  24.532   0.855   6.612
 4037POPC   C3A52169  24.503   0.989   7.034
 4037POPC   C4A52170  24.563   0.856   7.461
 4037POPC   C1B52171  24.211   1.623   6.297
 4037POPC   C2B52172  24.458   1.588   6.648
 4037POPC   C3B52173  24.312   1.620   7.044
 4037POPC   C4B52174  24.292   1.328   7.375
 4038POPC   NC352175  21.029  26.197   5.522
 4038POPC   PO452176  20.471  25.728   5.455
 4038POPC   GL152177  20.668  25.810   5.814
 4038POPC   GL252178  20.581  26.160   5.783
 4038POPC   C1A52179  20.568  25.791   6.254
 4038POPC   D2A52180  20.754  25.975   6.588
 4038POPC   C3A52181  20.683  26.090   6.952
 4038POPC   C4A52182  20.777  25.891   7.286
 4038POPC   C1B52183  20.679  26.285   6.193
 4038POPC   C2B52184  20.430  26.404   6.569
 4038POPC   C3B52185  20.272  26.362   6.986
 4038POPC   C4B52186  20.464  26.271   7.424
 4039POPC   NC352187  23.975  22.047   5.252
 4039POPC   PO452188  23.490  22.249   5.692
 4039POPC   GL152189  23.857  22.102   5.857
 4039POPC   GL252190  23.978  22.447   5.825
 4039POPC   C1A52191  23.806  21.877   6.282
 4039POPC   D2A52192  23.437  21.903   6.566
 4039POPC   C3A52193  23.517  21.947   6.998
 4039POPC   C4A52194  23.728  21.952   7.399
 4039POPC   C1B52195  23.913  22.389   6.274
 4039POPC   C2B52196  23.949  22.255   6.707
 4039POPC   C3B52197  23.835  22.378   7.126
 4039POPC   C4B52198  23.916  22.367   7.598
 4040POPC   NC352199  32.279  28.168   5.319
 4040POPC   PO452200  31.884  28.771   5.343
 4040POPC   GL152201  32.003  28.485   5.665
 4040POPC   GL252202  32.359  28.376   5.774
 4040POPC   C1A52203  31.966  28.351   6.080
 4040POPC   D2A52204  32.160  28.359   6.462
 4040POPC   C3A52205  31.929  28.335   6.831
 4040POPC   C4A52206  32.177  28.425   7.201
 4040POPC   C1B52207  32.601  28.320   6.166
 4040POPC   C2B52208  32.666  28.235   6.601
 4040POPC   C3B52209  32.658  28.326   7.032
 4040POPC   C4B52210  32.535  28.085   7.428
 4041POPC   NC352211   8.134  25.318   5.328
 4041POPC   PO452212   8.776  25.329   5.488
 4041POPC   GL152213   8.630  25.329   5.908
 4041POPC   GL252214   8.375  25.608   5.884
 4041POPC   C1A52215   8.488  25.300   6.352
 4041POPC   D2A52216   8.291  25.531   6.716
 4041POPC   C3A52217   8.201  25.363   7.096
 4041POPC   C4A52218   8.042  24.998   7.252
 4041POPC   C1B52219   8.079  25.623   6.240
 4041POPC   C2B52220   7.825  25.712   6.629
 4041POPC   C3B52221   7.809  25.710   7.087
 4041POPC   C4B52222   7.912  25.519   7.492
 4042POPC   NC352223  13.977  42.687   5.601
 4042POPC   PO452224  13.438  43.054   5.353
 4042POPC   GL152225  13.580  43.247   5.769
 4042POPC   GL252226  13.654  42.942   5.893
 4042POPC   C1A52227  13.787  43.296   6.227
 4042POPC   D2A52228  13.705  43.553   6.605
 4042POPC   C3A52229  13.696  43.314   7.000
 4042POPC   C4A52230  13.463  43.327   7.385
 4042POPC   C1B52231  13.865  42.779   6.249
 4042POPC   C2B52232  13.864  42.914   6.672
 4042POPC   C3B52233  13.776  42.732   7.049
 4042POPC   C4B52234  13.533  42.832   7.332
 4043POPC   NC352235  15.869  14.639   5.410
 4043POPC   PO452236  16.249  14.060   5.513
 4043POPC   GL152237  15.903  14.246   5.786
 4043POPC   GL252238  15.989  14.621   5.917
 4043POPC   C1A52239  15.926  14.211   6.237
 4043POPC   D2A52240  16.078  14.437   6.590
 4043POPC   C3A52241  16.240  14.232   6.943
 4043POPC   C4A52242  16.054  14.092   7.307
 4043POPC   C1B52243  15.582  14.554   6.134
 4043POPC   C2B52244  15.524  14.354   6.543
 4043POPC   C3B52245  15.726  14.346   6.960
 4043POPC   C4B52246  16.021  14.682   7.122
 4044POPC   NC352247  14.943  36.326   5.070
 4044POPC   PO452248  15.404  36.022   5.421
 4044POPC   GL152249  15.392  36.196   5.831
 4044POPC   GL252250  15.058  36.294   5.903
 4044POPC   C1A52251  15.377  36.112   6.291
 4044POPC   D2A52252  15.408  35.907   6.698
 4044POPC   C3A52253  15.259  36.219   6.966
 4044POPC   C4A52254  15.424  36.378   7.335
 4044POPC   C1B52255  14.864  36.162   6.296
 4044POPC   C2B52256  14.888  35.941   6.705
 4044POPC   C3B52257  14.736  36.100   7.097
 4044POPC   C4B52258  14.919  36.395   7.331
 4045POPC   NC352259  43.821  36.390   5.445
 4045POPC   PO452260  43.583  35.756   5.301
 4045POPC   GL152261  43.617  35.914   5.724
 4045POPC   GL252262  43.975  35.802   5.798
 4045POPC   C1A52263  43.622  36.198   6.110
 4045POPC   D2A52264  43.841  36.376   6.480
 4045POPC   C3A52265  43.684  36.244   6.902
 4045POPC   C4A52266  43.601  36.076   7.319
 4045POPC   C1B52267  44.112  36.101   6.127
 4045POPC   C2B52268  44.289  36.085   6.526
 4045POPC   C3B52269  44.371  36.151   6.922
 4045POPC   C4B52270  44.095  36.112   7.221
 4046POPC   NC352271  44.913  15.588   5.421
 4046POPC   PO452272  44.553  15.029   5.422
 4046POPC   GL152273  44.580  15.243   5.808
 4046POPC   GL252274  44.918  15.265   5.831
 4046POPC   C1A52275  44.594  15.190   6.265
 4046POPC   D2A52276  44.392  14.990   6.617
 4046POPC   C3A52277  44.669  15.104   6.913
 4046POPC   C4A52278  44.745  15.407   7.225
 4046POPC   C1B52279   0.072  15.008   6.149
 4046POPC   C2B52280   0.091  15.208   6.535
 4046POPC   C3B52281   0.143  15.284   6.929
 4046POPC   C4B52282   0.190  15.137   7.304
 4047POPC   NC352283  24.811  22.045   5.396
 4047POPC   PO452284  24.247  22.447   5.238
 4047POPC   GL152285  24.434  22.304   5.659
 4047POPC   GL252286  24.361  21.995   5.865
 4047POPC   C1A52287  24.439  22.422   6.125
 4047POPC   D2A52288  24.640  22.387   6.546
 4047POPC   C3A52289  24.449  22.166   6.874
 4047POPC   C4A52290  24.273  22.223   7.270
 4047POPC   C1B52291  24.302  21.985   6.364
 4047POPC   C2B52292  24.136  21.775   6.760
 4047POPC   C3B52293  24.277  21.719   7.185
 4047POPC   C4B52294  24.668  21.912   7.288
 4048POPC   NC352295  20.427   2.141   5.543
 4048POPC   PO452296  20.994   1.755   5.343
 4048POPC   GL152297  20.803   1.837   5.751
 4048POPC   GL252298  20.491   1.654   5.727
 4048POPC   C1A52299  20.794   2.022   6.194
 4048POPC   D2A52300  20.693   1.850   6.622
 4048POPC   C3A52301  20.736   2.032   7.036
 4048POPC   C4A52302  20.307   2.131   7.169
 4048POPC   C1B52303  20.392   1.657   6.184
 4048POPC   C2B52304  20.184   1.783   6.584
 4048POPC   C3B52305  20.302   1.655   6.988
 4048POPC   C4B52306  20.148   1.479   7.363
 4049POPC   NC352307  37.615   4.995   5.538
 4049POPC   PO452308  37.929   5.618   5.486
 4049POPC   GL152309  37.825   5.347   5.855
 4049POPC   GL252310  37.470   5.316   5.946
 4049POPC   C1A52311  37.861   5.004   6.200
 4049POPC   D2A52312  37.850   4.745   6.618
 4049POPC   C3A52313  37.795   4.966   7.054
 4049POPC   C4A52314  37.727   5.088   7.532
 4049POPC   C1B52315  37.342   5.070   6.314
 4049POPC   C2B52316  37.371   4.987   6.760
 4049POPC   C3B52317  37.322   5.131   7.197
 4049POPC   C4B52318  37.245   5.349   7.582
 4050POPC   NC352319  37.203  16.846   5.422
 4050POPC   PO452320  36.677  16.363   5.405
 4050POPC   GL152321  36.800  16.663   5.714
 4050POPC   GL252322  37.110  16.545   5.825
 4050POPC   C1A52323  36.846  16.923   6.096
 4050POPC   D2A52324  36.638  16.881   6.506
 4050POPC   C3A52325  36.653  16.672   6.914
 4050POPC   C4A52326  36.677  16.893   7.319
 4050POPC   C1B52327  36.988  16.458   6.258
 4050POPC   C2B52328  37.119  16.559   6.701
 4050POPC   C3B52329  37.104  16.508   7.158
 4050POPC   C4B52330  37.132  16.769   7.531
 4051POPC   NC352331  37.658  44.925   5.428
 4051POPC   PO452332  37.580  44.307   5.254
 4051POPC   GL152333  37.623  44.528   5.739
 4051POPC   GL252334  37.772  44.874   5.906
 4051POPC   C1A52335  37.539  44.527   6.215
 4051POPC   D2A52336  37.779  44.741   6.572
 4051POPC   C3A52337  37.691  44.590   6.952
 4051POPC   C4A52338  37.289  44.527   7.103
 4051POPC   C1B52339  37.486   0.035   6.234
 4051POPC   C2B52340  37.295  44.832   6.616
 4051POPC   C3B52341  37.498   0.044   6.957
 4051POPC   C4B52342  37.824   0.050   7.285
 4052POPC   NC352343  32.145  21.005   5.429
 4052POPC   PO452344  31.958  21.667   5.428
 4052POPC   GL152345  32.199  21.437   5.752
 4052POPC   GL252346  32.545  21.279   5.673
 4052POPC   C1A52347  32.384  21.544   6.149
 4052POPC   D2A52348  32.280  21.381   6.540
 4052POPC   C3A52349  32.247  21.499   6.946
 4052POPC   C4A52350  32.131  21.278   7.331
 4052POPC   C1B52351  32.845  21.313   6.020
 4052POPC   C2B52352  32.828  21.412   6.459
 4052POPC   C3B52353  32.698  21.257   6.852
 4052POPC   C4B52354  32.620  21.395   7.288
 4053POPC   NC352355  24.182  43.535   5.096
 4053POPC   PO452356  23.757  43.778   5.530
 4053POPC   GL152357  23.545  43.865   5.893
 4053POPC   GL252358  23.343  44.164   5.858
 4053POPC   C1A52359  23.719  43.964   6.280
 4053POPC   D2A52360  23.965  43.779   6.591
 4053POPC   C3A52361  23.750  43.728   6.981
 4053POPC   C4A52362  23.810  43.800   7.420
 4053POPC   C1B52363  23.235  44.092   6.305
 4053POPC   C2B52364  23.463  44.165   6.695
 4053POPC   C3B52365  23.348  44.039   7.105
 4053POPC   C4B52366  23.338  44.035   7.536
 4054POPC   NC352367  30.407  42.573   5.312
 4054POPC   PO452368  30.746  42.010   5.040
 4054POPC   GL152369  30.723  42.186   5.524
 4054POPC   GL252370  30.412  42.316   5.746
 4054POPC   C1A52371  30.798  42.068   5.993
 4054POPC   D2A52372  30.660  42.065   6.445
 4054POPC   C3A52373  30.776  42.049   6.888
 4054POPC   C4A52374  30.909  42.207   7.293
 4054POPC   C1B52375  30.340  42.390   6.201
 4054POPC   C2B52376  30.486  42.524   6.636
 4054POPC   C3B52377  30.435  42.411   7.079
 4054POPC   C4B52378  30.541  42.493   7.526
 4055POPC   NC352379  44.083  26.664   5.593
 4055POPC   PO452380  43.666  26.991   5.244
 4055POPC   GL152381  43.683  27.104   5.758
 4055POPC   GL252382  43.984  27.070   5.891
 4055POPC   C1A52383  43.697  27.161   6.279
 4055POPC   D2A52384  43.699  26.776   6.600
 4055POPC   C3A52385  43.811  26.805   7.050
 4055POPC   C4A52386  43.647  27.135   7.329
 4055POPC   C1B52387  44.084  26.789   6.223
 4055POPC   C2B52388  44.146  26.574   6.614
 4055POPC   C3B52389  44.079  26.375   7.007
 4055POPC   C4B52390  44.110  26.579   7.411
 4056POPC   NC352391  22.381  10.408   5.612
 4056POPC   PO452392  21.840  10.509   5.226
 4056POPC   GL152393  21.921  10.657   5.697
 4056POPC   GL252394  21.647  10.818   5.859
 4056POPC   C1A52395  22.082  10.519   6.157
 4056POPC   D2A52396  22.386  10.626   6.499
 4056POPC   C3A52397  22.204  10.429   6.871
 4056POPC   C4A52398  21.954  10.280   7.263
 4056POPC   C1B52399  21.850  10.948   6.246
 4056POPC   C2B52400  22.025  10.942   6.669
 4056POPC   C3B52401  21.850  10.757   7.039
 4056POPC   C4B52402  21.873  10.882   7.450
 4057POPC   NC352403  14.781  32.385   5.544
 4057POPC   PO452404  14.107  32.043   5.497
 4057POPC   GL152405  14.163  32.259   5.887
 4057POPC   GL252406  14.452  32.515   5.945
 4057POPC   C1A52407  14.051  32.158   6.308
 4057POPC   D2A52408  14.271  32.268   6.662
 4057POPC   C3A52409  14.352  32.037   7.038
 4057POPC   C4A52410  14.747  32.121   7.283
 4057POPC   C1B52411  14.561  32.768   6.334
 4057POPC   C2B52412  14.508  32.702   6.788
 4057POPC   C3B52413  14.235  32.548   7.111
 4057POPC   C4B52414  14.135  32.761   7.476
 4058POPC   NC352415  42.201   2.662   5.316
 4058POPC   PO452416  42.778   2.380   5.173
 4058POPC   GL152417  42.639   2.634   5.650
 4058POPC   GL252418  42.270   2.757   5.788
 4058POPC   C1A52419  42.620   2.890   6.095
 4058POPC   D2A52420  42.319   2.886   6.469
 4058POPC   C3A52421  42.515   2.946   6.881
 4058POPC   C4A52422  42.589   3.114   7.305
 4058POPC   C1B52423  41.954   2.755   6.096
 4058POPC   C2B52424  41.898   2.562   6.474
 4058POPC   C3B52425  41.924   2.708   6.902
 4058POPC   C4B52426  42.109   2.953   7.245
 4059POPC   NC352427  33.678  27.428   5.383
 4059POPC   PO452428  33.728  28.069   5.446
 4059POPC   GL152429  33.808  27.797   5.786
 4059POPC   GL252430  33.526  27.619   5.861
 4059POPC   C1A52431  33.964  27.598   6.193
 4059POPC   D2A52432  33.813  27.589   6.622
 4059POPC   C3A52433  34.056  27.575   6.988
 4059POPC   C4A52434  33.958  27.538   7.381
 4059POPC   C1B52435  33.578  27.264   6.145
 4059POPC   C2B52436  33.519  27.175   6.599
 4059POPC   C3B52437  33.604  27.326   7.037
 4059POPC   C4B52438  33.599  27.180   7.456
 4060POPC   NC352439  37.775  14.552   5.445
 4060POPC   PO452440  37.337  14.082   5.431
 4060POPC   GL152441  37.544  14.269   5.819
 4060POPC   GL252442  37.936  14.286   5.859
 4060POPC   C1A52443  37.357  14.310   6.244
 4060POPC   D2A52444  37.555  14.304   6.652
 4060POPC   C3A52445  37.282  14.324   6.976
 4060POPC   C4A52446  37.367  14.263   7.393
 4060POPC   C1B52447  37.792  14.030   6.236
 4060POPC   C2B52448  37.846  13.873   6.675
 4060POPC   C3B52449  37.823  14.100   7.066
 4060POPC   C4B52450  37.807  14.055   7.512
 4061POPC   NC352451  13.322  39.490   5.405
 4061POPC   PO452452  13.987  39.249   5.612
 4061POPC   GL152453  13.632  39.341   5.781
 4061POPC   GL252454  13.412  39.097   5.748
 4061POPC   C1A52455  13.601  39.468   6.170
 4061POPC   D2A52456  13.807  39.624   6.524
 4061POPC   C3A52457  13.663  39.461   6.915
 4061POPC   C4A52458  13.465  39.410   7.264
 4061POPC   C1B52459  13.364  39.019   6.158
 4061POPC   C2B52460  13.451  39.151   6.567
 4061POPC   C3B52461  13.398  38.999   6.963
 4061POPC   C4B52462  13.510  38.858   7.346
 4062POPC   NC352463  22.031   8.305   5.159
 4062POPC   PO452464  22.281   7.879   5.562
 4062POPC   GL152465  22.347   8.267   5.769
 4062POPC   GL252466  22.033   8.256   5.846
 4062POPC   C1A52467  22.446   8.218   6.209
 4062POPC   D2A52468  22.241   8.252   6.600
 4062POPC   C3A52469  22.416   8.346   7.014
 4062POPC   C4A52470  22.437   8.104   7.410
 4062POPC   C1B52471  21.871   8.043   6.206
 4062POPC   C2B52472  21.715   8.089   6.621
 4062POPC   C3B52473  21.911   8.213   6.992
 4062POPC   C4B52474  22.008   8.377   7.371
 4063POPC   NC352475  23.350   7.983   5.535
 4063POPC   PO452476  23.884   8.426   5.539
 4063POPC   GL152477  23.894   8.444   5.937
 4063POPC   GL252478  23.820   8.078   5.953
 4063POPC   C1A52479  23.754   8.670   6.300
 4063POPC   D2A52480  23.377   8.592   6.567
 4063POPC   C3A52481  23.544   8.372   6.927
 4063POPC   C4A52482  23.804   8.320   7.309
 4063POPC   C1B52483  23.456   8.232   6.196
 4063POPC   C2B52484  23.206   8.099   6.570
 4063POPC   C3B52485  23.266   7.882   6.932
 4063POPC   C4B52486  23.376   8.071   7.298
 4064POPC   NC352487  39.083  15.657   5.534
 4064POPC   PO452488  39.471  16.214   5.415
 4064POPC   GL152489  39.415  15.962   5.796
 4064POPC   GL252490  39.052  16.034   5.899
 4064POPC   C1A52491  39.331  15.743   6.197
 4064POPC   D2A52492  39.198  15.941   6.552
 4064POPC   C3A52493  39.367  15.892   6.950
 4064POPC   C4A52494  39.601  16.181   7.146
 4064POPC   C1B52495  38.778  15.810   6.238
 4064POPC   C2B52496  38.727  15.870   6.700
 4064POPC   C3B52497  38.921  16.200   6.931
 4064POPC   C4B52498  39.116  16.218   7.350
 4065POPC   NC352499  27.228  24.776   5.479
 4065POPC   PO452500  27.730  24.274   5.413
 4065POPC   GL152501  27.621  24.205   5.830
 4065POPC   GL252502  27.532  24.556   5.823
 4065POPC   C1A52503  27.640  24.384   6.273
 4065POPC   D2A52504  27.421  24.374   6.633
 4065POPC   C3A52505  27.670  24.273   6.969
 4065POPC   C4A52506  27.615  24.424   7.361
 4065POPC   C1B52507  27.269  24.770   6.149
 4065POPC   C2B52508  27.271  24.870   6.602
 4065POPC   C3B52509  27.525  24.761   6.991
 4065POPC   C4B52510  27.511  24.924   7.451
 4066POPC   NC352511  41.846  37.703   5.516
 4066POPC   PO452512  41.210  37.475   5.347
 4066POPC   GL152513  41.385  37.686   5.774
 4066POPC   GL252514  41.542  37.996   5.810
 4066POPC   C1A52515  41.504  37.715   6.236
 4066POPC   D2A52516  41.357  37.931   6.611
 4066POPC   C3A52517  41.458  37.667   6.955
 4066POPC   C4A52518  41.600  37.625   7.367
 4066POPC   C1B52519  41.938  37.958   6.113
 4066POPC   C2B52520  41.893  37.932   6.561
 4066POPC   C3B52521  41.960  37.844   6.999
 4066POPC   C4B52522  41.905  38.028   7.385
 4067POPC   NC352523  21.984   1.357   5.138
 4067POPC   PO452524  22.552   1.061   5.372
 4067POPC   GL152525  22.239   1.252   5.706
 4067POPC   GL252526  21.887   1.172   5.673
 4067POPC   C1A52527  22.044   1.352   6.148
 4067POPC   D2A52528  21.954   1.303   6.605
 4067POPC   C3A52529  22.238   1.067   6.866
 4067POPC   C4A52530  22.299   1.202   7.282
 4067POPC   C1B52531  21.943   0.848   6.032
 4067POPC   C2B52532  22.004   0.770   6.488
 4067POPC   C3B52533  21.768   0.891   6.888
 4067POPC   C4B52534  21.807   0.953   7.344
 4068POPC   NC352535  29.757   2.755   5.433
 4068POPC   PO452536  29.637   2.168   5.777
 4068POPC   GL152537  29.793   2.583   5.930
 4068POPC   GL252538  29.703   2.946   5.894
 4068POPC   C1A52539  30.029   2.810   6.254
 4068POPC   D2A52540  30.315   2.605   6.508
 4068POPC   C3A52541  30.076   2.586   6.830
 4068POPC   C4A52542  30.202   2.518   7.206
 4068POPC   C1B52543  29.529   3.001   6.292
 4068POPC   C2B52544  29.760   2.977   6.693
 4068POPC   C3B52545  29.921   2.969   7.134
 4068POPC   C4B52546  29.727   3.084   7.548
 4069POPC   NC352547  43.279  14.886   5.373
 4069POPC   PO452548  43.121  14.287   5.242
 4069POPC   GL152549  43.075  14.439   5.700
 4069POPC   GL252550  43.207  14.750   5.854
 4069POPC   C1A52551  43.004  14.407   6.187
 4069POPC   D2A52552  43.198  14.167   6.559
 4069POPC   C3A52553  43.027  14.223   6.994
 4069POPC   C4A52554  42.837  14.569   7.235
 4069POPC   C1B52555  43.530  14.809   6.131
 4069POPC   C2B52556  43.408  14.651   6.513
 4069POPC   C3B52557  43.270  14.712   6.908
 4069POPC   C4B52558  43.341  14.500   7.280
 4070POPC   NC352559   4.554  14.651   5.465
 4070POPC   PO452560   3.953  14.250   5.447
 4070POPC   GL152561   4.197  14.266   5.819
 4070POPC   GL252562   4.406  14.570   5.935
 4070POPC   C1A52563   4.090  14.359   6.258
 4070POPC   D2A52564   4.375  14.468   6.579
 4070POPC   C3A52565   4.199  14.432   6.972
 4070POPC   C4A52566   4.357  14.580   7.325
 4070POPC   C1B52567   4.584  14.219   6.174
 4070POPC   C2B52568   4.658  13.963   6.535
 4070POPC   C3B52569   4.644  14.163   6.944
 4070POPC   C4B52570   4.490  14.085   7.370
 4071POPC   NC352571  21.376  40.114   5.400
 4071POPC   PO452572  21.808  39.717   5.584
 4071POPC   GL152573  21.522  40.016   5.902
 4071POPC   GL252574  21.161  40.078   5.865
 4071POPC   C1A52575  21.322  40.100   6.360
 4071POPC   D2A52576  21.583  40.135   6.744
 4071POPC   C3A52577  21.554  40.080   7.216
 4071POPC   C4A52578  21.592  39.905   7.669
 4071POPC   C1B52579  20.927  39.850   6.170
 4071POPC   C2B52580  20.955  39.763   6.598
 4071POPC   C3B52581  21.126  39.919   6.974
 4071POPC   C4B52582  21.145  39.882   7.430
 4072POPC   NC352583   4.180  39.276   5.020
 4072POPC   PO452584   4.309  38.927   5.590
 4072POPC   GL152585   4.310  39.217   5.899
 4072POPC   GL252586   4.619  39.362   6.011
 4072POPC   C1A52587   4.280  39.088   6.309
 4072POPC   D2A52588   4.097  39.051   6.656
 4072POPC   C3A52589   4.246  38.890   7.007
 4072POPC   C4A52590   4.246  39.257   7.205
 4072POPC   C1B52591   4.778  39.010   6.239
 4072POPC   C2B52592   4.633  38.946   6.674
 4072POPC   C3B52593   4.726  39.163   7.075
 4072POPC   C4B52594   4.624  39.154   7.551
 4073POPC   NC352595  32.730  11.220   5.320
 4073POPC   PO452596  33.228  11.667   5.415
 4073POPC   GL152597  33.143  11.407   5.814
 4073POPC   GL252598  32.993  11.084   5.813
 4073POPC   C1A52599  33.298  11.206   6.222
 4073POPC   D2A52600  33.546  11.243   6.599
 4073POPC   C3A52601  33.282  11.374   6.930
 4073POPC   C4A52602  33.330  11.484   7.371
 4073POPC   C1B52603  32.793  11.127   6.241
 4073POPC   C2B52604  32.786  11.041   6.680
 4073POPC   C3B52605  32.782  11.253   7.091
 4073POPC   C4B52606  32.911  11.271   7.535
 4074POPC   NC352607  26.097   2.415   5.535
 4074POPC   PO452608  26.491   2.941   5.462
 4074POPC   GL152609  26.305   2.787   5.850
 4074POPC   GL252610  26.578   2.554   5.859
 4074POPC   C1A52611  26.041   2.790   6.254
 4074POPC   D2A52612  25.812   2.870   6.662
 4074POPC   C3A52613  25.889   2.595   7.055
 4074POPC   C4A52614  26.090   2.776   7.492
 4074POPC   C1B52615  26.371   2.373   6.207
 4074POPC   C2B52616  26.304   2.518   6.636
 4074POPC   C3B52617  26.379   2.570   7.077
 4074POPC   C4B52618  26.193   2.313   7.400
 4075POPC   NC352619  16.125  25.338   5.414
 4075POPC   PO452620  15.623  25.028   5.670
 4075POPC   GL152621  15.956  25.145   5.877
 4075POPC   GL252622  16.203  24.908   5.687
 4075POPC   C1A52623  15.833  25.380   6.262
 4075POPC   D2A52624  15.713  25.293   6.684
 4075POPC   C3A52625  15.942  25.438   7.047
 4075POPC   C4A52626  15.786  25.212   7.379
 4075POPC   C1B52627  16.246  24.788   6.147
 4075POPC   C2B52628  16.049  24.964   6.503
 4075POPC   C3B52629  16.007  24.936   6.954
 4075POPC   C4B52630  16.301  25.061   7.292
 4076POPC   NC352631  13.364   4.763   5.411
 4076POPC   PO452632  13.782   5.287   5.377
 4076POPC   GL152633  13.500   5.172   5.712
 4076POPC   GL252634  13.538   5.491   5.817
 4076POPC   C1A52635  13.473   5.130   6.183
 4076POPC   D2A52636  13.657   4.985   6.598
 4076POPC   C3A52637  13.443   5.052   6.979
 4076POPC   C4A52638  13.489   4.842   7.371
 4076POPC   C1B52639  13.894   5.383   6.090
 4076POPC   C2B52640  13.993   5.375   6.521
 4076POPC   C3B52641  14.007   5.235   6.926
 4076POPC   C4B52642  13.796   5.243   7.294
 4077POPC   NC352643  24.216  40.726   5.461
 4077POPC   PO452644  24.682  41.110   5.635
 4077POPC   GL152645  24.572  41.093   6.022
 4077POPC   GL252646  24.331  40.862   5.961
 4077POPC   C1A52647  24.427  41.069   6.427
 4077POPC   D2A52648  24.485  40.770   6.728
 4077POPC   C3A52649  24.378  40.931   7.084
 4077POPC   C4A52650  24.697  40.967   7.336
 4077POPC   C1B52651  24.428  40.529   6.266
 4077POPC   C2B52652  24.457  40.272   6.663
 4077POPC   C3B52653  24.450  40.270   7.121
 4077POPC   C4B52654  24.687  40.181   7.508
 4078POPC   NC352655   4.997   5.810   5.279
 4078POPC   PO452656   4.752   6.298   5.725
 4078POPC   GL152657   5.000   5.915   5.818
 4078POPC   GL252658   5.325   5.811   5.726
 4078POPC   C1A52659   5.044   5.588   6.126
 4078POPC   D2A52660   5.153   5.547   6.564
 4078POPC   C3A52661   4.957   5.799   6.872
 4078POPC   C4A52662   4.844   5.660   7.276
 4078POPC   C1B52663   5.445   5.872   6.196
 4078POPC   C2B52664   5.405   5.986   6.623
 4078POPC   C3B52665   5.517   5.867   7.034
 4078POPC   C4B52666   5.238   5.977   7.312
 4079POPC   NC352667  12.053  41.854   5.417
 4079POPC   PO452668  11.667  41.337   5.340
 4079POPC   GL152669  11.755  41.507   5.754
 4079POPC   GL252670  12.102  41.611   5.850
 4079POPC   C1A52671  11.683  41.249   6.127
 4079POPC   D2A52672  11.518  41.423   6.531
 4079POPC   C3A52673  11.794  41.384   6.871
 4079POPC   C4A52674  11.971  41.296   7.260
 4079POPC   C1B52675  11.947  41.631   6.293
 4079POPC   C2B52676  12.111  41.717   6.675
 4079POPC   C3B52677  12.356  41.497   6.961
 4079POPC   C4B52678  12.491  41.600   7.380
 4080POPC   NC352679  13.580   9.409   5.452
 4080POPC   PO452680  13.944   8.805   5.500
 4080POPC   GL152681  13.757   9.041   5.834
 4080POPC   GL252682  13.937   9.351   5.866
 4080POPC   C1A52683  13.491   8.976   6.219
 4080POPC   D2A52684  13.298   8.876   6.645
 4080POPC   C3A52685  13.398   8.810   7.078
 4080POPC   C4A52686  13.480   8.433   7.321
 4080POPC   C1B52687  13.836   9.374   6.312
 4080POPC   C2B52688  13.471   9.348   6.574
 4080POPC   C3B52689  13.347   9.325   6.987
 4080POPC   C4B52690  13.689   9.215   7.202
 4081POPC   NC352691  43.089   5.030   5.180
 4081POPC   PO452692  43.567   5.298   5.585
 4081POPC   GL152693  43.191   5.197   5.791
 4081POPC   GL252694  43.020   4.878   5.666
 4081POPC   C1A52695  43.216   5.187   6.233
 4081POPC   D2A52696  43.341   5.022   6.612
 4081POPC   C3A52697  43.231   5.305   6.891
 4081POPC   C4A52698  43.445   5.309   7.249
 4081POPC   C1B52699  42.898   4.813   6.103
 4081POPC   C2B52700  42.822   4.936   6.538
 4081POPC   C3B52701  42.967   4.870   6.978
 4081POPC   C4B52702  43.016   4.762   7.420
 4082POPC   NC352703  40.540   2.668   5.413
 4082POPC   PO452704  41.148   3.066   5.246
 4082POPC   GL152705  41.157   2.932   5.701
 4082POPC   GL252706  41.119   2.557   5.751
 4082POPC   C1A52707  40.888   2.879   6.095
 4082POPC   D2A52708  40.605   3.001   6.459
 4082POPC   C3A52709  40.535   2.729   6.820
 4082POPC   C4A52710  40.597   2.732   7.254
 4082POPC   C1B52711  40.947   2.352   6.113
 4082POPC   C2B52712  40.915   2.524   6.511
 4082POPC   C3B52713  40.911   2.390   6.922
 4082POPC   C4B52714  41.055   2.535   7.262
 4083POPC   NC352715  38.209  15.417   5.626
 4083POPC   PO452716  38.069  14.845   5.231
 4083POPC   GL152717  37.846  14.999   5.682
 4083POPC   GL252718  37.705  14.761   5.900
 4083POPC   C1A52719  37.717  15.249   6.086
 4083POPC   D2A52720  37.853  15.417   6.512
 4083POPC   C3A52721  37.695  15.207   6.890
 4083POPC   C4A52722  37.365  15.253   7.218
 4083POPC   C1B52723  37.779  14.574   6.271
 4083POPC   C2B52724  37.810  14.740   6.673
 4083POPC   C3B52725  37.771  14.601   7.089
 4083POPC   C4B52726  37.776  14.939   7.330
 4084POPC   NC352727  44.146  13.508   5.390
 4084POPC   PO452728  43.460  13.370   5.457
 4084POPC   GL152729  43.650  13.626   5.807
 4084POPC   GL252730  44.027  13.614   5.877
 4084POPC   C1A52731  43.717  13.817   6.227
 4084POPC   D2A52732  43.763  13.633   6.647
 4084POPC   C3A52733  43.765  13.718   7.126
 4084POPC   C4A52734  43.625  13.593   7.588
 4084POPC   C1B52735  44.213  13.676   6.295
 4084POPC   C2B52736  44.195  13.936   6.685
 4084POPC   C3B52737  44.346  13.929   7.114
 4084POPC   C4B52738  44.308  13.519   7.313
 4085POPC   NC352739  37.504  39.504   5.233
 4085POPC   PO452740  37.841  38.983   5.437
 4085POPC   GL152741  37.566  39.209   5.776
 4085POPC   GL252742  37.331  39.539   5.747
 4085POPC   C1A52743  37.788  39.380   6.171
 4085POPC   D2A52744  37.864  39.199   6.599
 4085POPC   C3A52745  37.775  39.399   7.026
 4085POPC   C4A52746  37.973  39.619   7.397
 4085POPC   C1B52747  37.318  39.523   6.232
 4085POPC   C2B52748  37.360  39.436   6.702
 4085POPC   C3B52749  37.259  39.420   7.167
 4085POPC   C4B52750  37.532  39.379   7.525
 4086POPC   NC352751  34.007  29.922   5.465
 4086POPC   PO452752  33.311  30.032   5.547
 4086POPC   GL152753  33.644  29.864   5.846
 4086POPC   GL252754  33.960  29.624   5.855
 4086POPC   C1A52755  33.861  29.957   6.244
 4086POPC   D2A52756  34.033  30.119   6.601
 4086POPC   C3A52757  33.829  30.212   6.974
 4086POPC   C4A52758  34.155  30.107   7.264
 4086POPC   C1B52759  33.800  29.456   6.223
 4086POPC   C2B52760  33.986  29.496   6.627
 4086POPC   C3B52761  33.801  29.457   7.017
 4086POPC   C4B52762  33.770  29.799   7.295
 4087POPC   NC352763   1.733  44.870   5.309
 4087POPC   PO452764   2.118  44.410   5.482
 4087POPC   GL152765   2.092  44.409   5.912
 4087POPC   GL252766   2.406  44.346   6.037
 4087POPC   C1A52767   2.013  44.658   6.266
 4087POPC   D2A52768   1.958  44.978   6.533
 4087POPC   C3A52769   1.925  44.845   6.958
 4087POPC   C4A52770   1.993  44.968   7.382
 4087POPC   C1B52771   2.224  44.198   6.387
 4087POPC   C2B52772   2.115  44.423   6.749
 4087POPC   C3B52773   2.224  44.446   7.166
 4087POPC   C4B52774   2.520  44.435   7.512
 4088POPC   NC352775  14.025  17.958   5.486
 4088POPC   PO452776  14.349  18.553   5.288
 4088POPC   GL152777  14.549  18.417   5.714
 4088POPC   GL252778  14.419  18.684   5.906
 4088POPC   C1A52779  14.533  18.241   6.204
 4088POPC   D2A52780  14.445  18.268   6.693
 4088POPC   C3A52781  14.539  17.960   7.051
 4088POPC   C4A52782  14.226  17.974   7.399
 4088POPC   C1B52783  14.649  18.738   6.276
 4088POPC   C2B52784  14.723  18.678   6.702
 4088POPC   C3B52785  14.577  18.795   7.079
 4088POPC   C4B52786  14.387  18.422   7.226
 4089POPC   NC352787  21.097  29.340   5.416
 4089POPC   PO452788  20.464  29.046   5.208
 4089POPC   GL152789  20.555  29.182   5.634
 4089POPC   GL252790  20.224  29.303   5.752
 4089POPC   C1A52791  20.648  29.188   6.100
 4089POPC   D2A52792  20.516  29.334   6.534
 4089POPC   C3A52793  20.738  29.191   6.948
 4089POPC   C4A52794  20.759  29.312   7.388
 4089POPC   C1B52795  20.127  29.117   6.170
 4089POPC   C2B52796  20.064  28.997   6.607
 4089POPC   C3B52797  20.224  29.233   6.964
 4089POPC   C4B52798  20.268  29.183   7.456
 4090POPC   NC352799  10.844   8.367   5.641
 4090POPC   PO452800  10.279   8.108   5.454
 4090POPC   GL152801  10.464   8.008   5.869
 4090POPC   GL252802  10.460   8.348   5.952
 4090POPC   C1A52803  10.541   8.062   6.348
 4090POPC   D2A52804  10.333   8.370   6.575
 4090POPC   C3A52805  10.394   8.312   7.008
 4090POPC   C4A52806  10.323   7.932   7.270
 4090POPC   C1B52807  10.729   8.576   6.262
 4090POPC   C2B52808  10.768   8.600   6.708
 4090POPC   C3B52809  10.909   8.348   7.018
 4090POPC   C4B52810  10.792   8.411   7.413
 4091POPC   NC352811   0.700  41.371   5.455
 4091POPC   PO452812   0.855  42.023   5.441
 4091POPC   GL152813   0.761  41.717   5.815
 4091POPC   GL252814   0.403  41.659   5.872
 4091POPC   C1A52815   0.712  41.333   6.136
 4091POPC   D2A52816   0.513  41.222   6.568
 4091POPC   C3A52817   0.636  41.324   7.017
 4091POPC   C4A52818   0.563  41.350   7.480
 4091POPC   C1B52819   0.530  41.792   6.302
 4091POPC   C2B52820   0.515  41.774   6.761
 4091POPC   C3B52821   0.230  41.662   7.087
 4091POPC   C4B52822   0.206  41.745   7.538
 4092POPC   NC352823  35.745  15.361   5.304
 4092POPC   PO452824  36.167  14.997   5.026
 4092POPC   GL152825  36.151  15.135   5.550
 4092POPC   GL252826  35.928  15.364   5.776
 4092POPC   C1A52827  36.122  14.931   6.012
 4092POPC   D2A52828  35.878  14.868   6.424
 4092POPC   C3A52829  36.063  14.910   6.861
 4092POPC   C4A52830  36.346  15.240   7.067
 4092POPC   C1B52831  35.754  15.300   6.193
 4092POPC   C2B52832  35.871  15.364   6.637
 4092POPC   C3B52833  35.750  15.409   7.071
 4092POPC   C4B52834  35.602  15.373   7.524
 4093POPC   NC352835  34.608  14.053   4.999
 4093POPC   PO452836  34.724  14.576   5.478
 4093POPC   GL152837  34.495  14.427   5.815
 4093POPC   GL252838  34.412  14.065   5.766
 4093POPC   C1A52839  34.399  14.594   6.214
 4093POPC   D2A52840  34.448  14.862   6.553
 4093POPC   C3A52841  34.583  14.707   6.939
 4093POPC   C4A52842  34.430  14.490   7.259
 4093POPC   C1B52843  34.560  14.095   6.209
 4093POPC   C2B52844  34.563  14.289   6.627
 4093POPC   C3B52845  34.524  14.059   7.002
 4093POPC   C4B52846  34.798  13.844   7.287
 4094POPC   NC352847  10.760  10.644   5.592
 4094POPC   PO452848  10.356  10.189   5.291
 4094POPC   GL152849  10.350  10.315   5.767
 4094POPC   GL252850  10.002  10.391   5.869
 4094POPC   C1A52851  10.479  10.565   6.169
 4094POPC   D2A52852  10.727  10.835   6.437
 4094POPC   C3A52853  10.840  10.585   6.758
 4094POPC   C4A52854  10.543  10.523   7.098
 4094POPC   C1B52855  10.071  10.224   6.307
 4094POPC   C2B52856   9.923  10.318   6.719
 4094POPC   C3B52857  10.061  10.348   7.156
 4094POPC   C4B52858  10.334  10.107   7.469
 4095POPC   NC352859   8.939  12.635   5.489
 4095POPC   PO452860   9.262  13.294   5.324
 4095POPC   GL152861   9.221  13.086   5.774
 4095POPC   GL252862   9.112  12.762   5.948
 4095POPC   C1A52863   9.076  13.185   6.222
 4095POPC   D2A52864   8.983  13.310   6.663
 4095POPC   C3A52865   9.110  13.054   6.992
 4095POPC   C4A52866   8.882  12.915   7.298
 4095POPC   C1B52867   8.793  12.757   6.306
 4095POPC   C2B52868   8.694  12.817   6.746
 4095POPC   C3B52869   8.759  12.489   7.039
 4095POPC   C4B52870   9.155  12.389   7.147
 4096POPC   NC352871  36.468  27.423   4.963
 4096POPC   PO452872  35.928  27.472   5.381
 4096POPC   GL152873  36.139  27.679   5.734
 4096POPC   GL252874  36.265  27.448   5.995
 4096POPC   C1A52875  36.097  27.892   6.144
 4096POPC   D2A52876  35.853  27.872   6.532
 4096POPC   C3A52877  36.056  27.621   6.848
 4096POPC   C4A52878  36.145  27.687   7.288
 4096POPC   C1B52879  36.547  27.240   6.223
 4096POPC   C2B52880  36.496  27.409   6.617
 4096POPC   C3B52881  36.558  27.603   6.964
 4096POPC   C4B52882  36.590  27.420   7.337
 4097POPC   NC352883  25.167   1.235   5.331
 4097POPC   PO452884  25.819   1.133   5.187
 4097POPC   GL152885  25.536   1.274   5.678
 4097POPC   GL252886  25.168   1.124   5.836
 4097POPC   C1A52887  25.567   1.124   6.135
 4097POPC   D2A52888  25.481   1.296   6.520
 4097POPC   C3A52889  25.558   1.121   6.912
 4097POPC   C4A52890  25.400   1.301   7.274
 4097POPC   C1B52891  25.012   1.218   6.281
 4097POPC   C2B52892  24.867   1.283   6.743
 4097POPC   C3B52893  24.895   1.255   7.213
 4097POPC   C4B52894  25.041   0.996   7.575
 4098POPC   NC352895   9.131  18.328   5.291
 4098POPC   PO452896   8.891  17.866   5.645
 4098POPC   GL152897   9.017  18.177   5.929
 4098POPC   GL252898   9.151  18.523   5.839
 4098POPC   C1A52899   8.887  18.160   6.342
 4098POPC   D2A52900   9.023  18.262   6.726
 4098POPC   C3A52901   8.697  18.333   6.974
 4098POPC   C4A52902   8.515  18.323   7.363
 4098POPC   C1B52903   9.121  18.643   6.307
 4098POPC   C2B52904   9.162  18.745   6.768
 4098POPC   C3B52905   9.227  18.460   7.166
 4098POPC   C4B52906   8.975  18.450   7.571
 4099POPC   NC352907  10.569  41.057   5.473
 4099POPC   PO452908  10.743  40.490   5.266
 4099POPC   GL152909  10.724  40.616   5.708
 4099POPC   GL252910  10.361  40.662   5.783
 4099POPC   C1A52911  10.680  40.756   6.168
 4099POPC   D2A52912  10.648  40.609   6.605
 4099POPC   C3A52913  10.733  40.953   6.893
 4099POPC   C4A52914  10.772  40.988   7.327
 4099POPC   C1B52915  10.161  40.636   6.197
 4099POPC   C2B52916  10.179  40.813   6.628
 4099POPC   C3B52917  10.293  40.781   7.074
 4099POPC   C4B52918  10.289  41.089   7.402
 4100POPC   NC352919  11.385  13.979   5.506
 4100POPC   PO452920  10.980  13.476   5.369
 4100POPC   GL152921  11.244  13.532   5.789
 4100POPC   GL252922  11.556  13.302   5.774
 4100POPC   C1A52923  11.370  13.839   6.170
 4100POPC   D2A52924  11.678  13.813   6.540
 4100POPC   C3A52925  11.473  13.781   6.951
 4100POPC   C4A52926  11.332  13.680   7.375
 4100POPC   C1B52927  11.554  13.373   6.222
 4100POPC   C2B52928  11.279  13.483   6.560
 4100POPC   C3B52929  11.127  13.401   6.954
 4100POPC   C4B52930  11.448  13.225   7.164
 4101POPC   NC352931   7.933  24.558   5.661
 4101POPC   PO452932   7.430  24.859   5.350
 4101POPC   GL152933   7.463  24.693   5.813
 4101POPC   GL252934   7.370  24.382   5.900
 4101POPC   C1A52935   7.511  24.644   6.304
 4101POPC   D2A52936   7.764  24.728   6.653
 4101POPC   C3A52937   7.607  24.695   7.063
 4101POPC   C4A52938   7.652  24.787   7.481
 4101POPC   C1B52939   7.600  24.153   6.224
 4101POPC   C2B52940   7.580  24.178   6.671
 4101POPC   C3B52941   7.539  24.174   7.115
 4101POPC   C4B52942   7.406  24.359   7.528
 4102POPC   NC352943   8.303  27.088   5.507
 4102POPC   PO452944   8.029  26.494   5.408
 4102POPC   GL152945   7.972  26.761   5.804
 4102POPC   GL252946   7.798  27.095   5.728
 4102POPC   C1A52947   8.242  26.818   6.208
 4102POPC   D2A52948   8.458  26.961   6.636
 4102POPC   C3A52949   8.447  26.783   7.099
 4102POPC   C4A52950   8.279  26.729   7.554
 4102POPC   C1B52951   7.815  27.136   6.187
 4102POPC   C2B52952   7.899  26.879   6.583
 4102POPC   C3B52953   7.933  26.853   7.043
 4102POPC   C4B52954   7.744  27.001   7.426
 4103POPC   NC352955  24.026  21.396   5.351
 4103POPC   PO452956  23.323  21.469   5.423
 4103POPC   GL152957  23.479  21.307   5.828
 4103POPC   GL252958  23.789  21.105   5.727
 4103POPC   C1A52959  23.494  21.412   6.295
 4103POPC   D2A52960  23.753  21.467   6.657
 4103POPC   C3A52961  23.733  21.498   7.108
 4103POPC   C4A52962  23.504  21.509   7.501
 4103POPC   C1B52963  23.922  21.081   6.162
 4103POPC   C2B52964  23.893  20.982   6.599
 4103POPC   C3B52965  23.764  20.971   7.007
 4103POPC   C4B52966  23.818  21.094   7.418
 4104POPC   NC352967  15.712  16.389   5.170
 4104POPC   PO452968  16.131  15.970   5.600
 4104POPC   GL152969  15.952  15.896   5.960
 4104POPC   GL252970  15.641  15.952   5.865
 4104POPC   C1A52971  15.874  16.119   6.332
 4104POPC   D2A52972  16.127  16.275   6.661
 4104POPC   C3A52973  15.948  16.084   6.991
 4104POPC   C4A52974  15.671  16.108   7.281
 4104POPC   C1B52975  15.499  15.765   6.268
 4104POPC   C2B52976  15.532  15.798   6.722
 4104POPC   C3B52977  15.708  15.620   7.069
 4104POPC   C4B52978  15.852  15.680   7.489
 4105POPC   NC352979  17.954  42.583   5.206
 4105POPC   PO452980  17.535  42.135   5.471
 4105POPC   GL152981  17.588  42.268   5.852
 4105POPC   GL252982  17.475  42.613   6.017
 4105POPC   C1A52983  17.522  42.082   6.205
 4105POPC   D2A52984  17.435  42.188   6.604
 4105POPC   C3A52985  17.708  42.207   6.922
 4105POPC   C4A52986  17.649  42.202   7.352
 4105POPC   C1B52987  17.712  42.888   6.265
 4105POPC   C2B52988  17.757  42.691   6.655
 4105POPC   C3B52989  17.389  42.606   6.903
 4105POPC   C4B52990  17.167  42.578   7.266
 4106POPC   NC352991   4.799  36.467   5.440
 4106POPC   PO452992   4.391  35.934   5.493
 4106POPC   GL152993   4.591  36.062   5.848
 4106POPC   GL252994   4.480  36.403   5.828
 4106POPC   C1A52995   4.489  35.894   6.247
 4106POPC   D2A52996   4.207  35.974   6.588
 4106POPC   C3A52997   4.373  36.019   7.000
 4106POPC   C4A52998   4.111  36.034   7.376
 4106POPC   C1B52999   4.280  36.359   6.232
 4106POPC   C2B53000   4.218  36.489   6.664
 4106POPC   C3B53001   4.180  36.476   7.124
 4106POPC   C4B53002   4.372  36.434   7.579
 4107POPC   NC353003  35.158  14.784   5.465
 4107POPC   PO453004  35.716  14.481   5.396
 4107POPC   GL153005  35.478  14.571   5.812
 4107POPC   GL253006  35.091  14.514   5.877
 4107POPC   C1A53007  35.453  14.492   6.275
 4107POPC   D2A53008  35.527  14.636   6.715
 4107POPC   C3A53009  35.396  14.414   7.091
 4107POPC   C4A53010  35.263  14.046   7.400
 4107POPC   C1B53011  34.930  14.628   6.274
 4107POPC   C2B53012  35.065  14.441   6.638
 4107POPC   C3B53013  35.042  14.093   6.880
 4107POPC   C4B53014  34.907  14.356   7.178
 4108POPC   NC353015  28.964  33.326   5.432
 4108POPC   PO453016  29.088  34.056   5.482
 4108POPC   GL153017  28.933  33.731   5.769
 4108POPC   GL253018  29.250  33.558   5.786
 4108POPC   C1A53019  28.955  33.524   6.198
 4108POPC   D2A53020  28.946  33.819   6.527
 4108POPC   C3A53021  29.075  33.670   6.900
 4108POPC   C4A53022  28.899  33.750   7.276
 4108POPC   C1B53023  29.285  33.921   6.116
 4108POPC   C2B53024  29.374  34.106   6.547
 4108POPC   C3B53025  29.520  34.004   6.973
 4108POPC   C4B53026  29.764  34.147   7.311
 4109POPC   NC353027  22.991   4.001   5.543
 4109POPC   PO453028  22.939   4.668   5.568
 4109POPC   GL153029  22.835   4.400   5.894
 4109POPC   GL253030  23.143   4.293   5.937
 4109POPC   C1A53031  22.878   4.460   6.348
 4109POPC   D2A53032  22.629   4.696   6.635
 4109POPC   C3A53033  22.863   4.641   7.003
 4109POPC   C4A53034  22.818   4.260   7.240
 4109POPC   C1B53035  23.295   4.138   6.334
 4109POPC   C2B53036  23.170   4.250   6.763
 4109POPC   C3B53037  23.334   4.238   7.181
 4109POPC   C4B53038  23.355   4.247   7.645
 4110POPC   NC353039  39.548  26.584   5.543
 4110POPC   PO453040  40.196  26.463   5.468
 4110POPC   GL153041  40.035  26.706   5.822
 4110POPC   GL253042  39.770  26.951   5.792
 4110POPC   C1A53043  40.077  26.758   6.273
 4110POPC   D2A53044  40.406  26.706   6.618
 4110POPC   C3A53045  40.259  26.872   7.013
 4110POPC   C4A53046  39.983  26.815   7.316
 4110POPC   C1B53047  39.647  27.124   6.159
 4110POPC   C2B53048  39.677  27.030   6.583
 4110POPC   C3B53049  39.372  27.086   6.894
 4110POPC   C4B53050  39.560  27.118   7.284
 4111POPC   NC353051  22.741  19.455   5.487
 4111POPC   PO453052  22.932  18.800   5.371
 4111POPC   GL153053  22.961  19.052   5.749
 4111POPC   GL253054  22.622  19.040   5.789
 4111POPC   C1A53055  23.094  19.076   6.198
 4111POPC   D2A53056  23.225  19.135   6.642
 4111POPC   C3A53057  23.026  19.066   7.059
 4111POPC   C4A53058  23.058  18.830   7.469
 4111POPC   C1B53059  22.646  19.309   6.147
 4111POPC   C2B53060  22.696  19.210   6.601
 4111POPC   C3B53061  22.527  19.205   7.051
 4111POPC   C4B53062  22.740  19.238   7.453
 4112POPC   NC353063  44.830  11.707   5.428
 4112POPC   PO453064   0.041  10.979   5.371
 4112POPC   GL153065  44.798  11.270   5.736
 4112POPC   GL253066  44.944  11.593   5.913
 4112POPC   C1A53067  44.523  11.421   6.134
 4112POPC   D2A53068  44.700  11.544   6.580
 4112POPC   C3A53069  44.505  11.456   6.966
 4112POPC   C4A53070  44.540  11.299   7.411
 4112POPC   C1B53071  44.978  11.262   6.242
 4112POPC   C2B53072  44.941  11.092   6.678
 4112POPC   C3B53073  44.982  11.245   7.118
 4112POPC   C4B53074  44.998  11.104   7.564
 4113POPC   NC353075  38.518  28.707   5.346
 4113POPC   PO453076  38.176  28.100   5.265
 4113POPC   GL153077  38.309  28.163   5.717
 4113POPC   GL253078  38.456  28.481   5.814
 4113POPC   C1A53079  38.317  28.167   6.194
 4113POPC   D2A53080  38.462  28.379   6.588
 4113POPC   C3A53081  38.406  28.285   7.022
 4113POPC   C4A53082  38.812  28.310   7.212
 4113POPC   C1B53083  38.307  28.695   6.210
 4113POPC   C2B53084  38.106  28.787   6.622
 4113POPC   C3B53085  38.217  28.741   7.058
 4113POPC   C4B53086  38.032  28.556   7.446
 4114POPC   NC353087  22.776  22.813   5.354
 4114POPC   PO453088  23.348  23.120   5.557
 4114POPC   GL153089  23.108  22.970   5.879
 4114POPC   GL253090  22.802  22.758   5.855
 4114POPC   C1A53091  23.147  22.868   6.289
 4114POPC   D2A53092  22.900  22.788   6.632
 4114POPC   C3A53093  23.100  22.910   7.015
 4114POPC   C4A53094  23.004  23.201   7.313
 4114POPC   C1B53095  22.642  23.006   6.198
 4114POPC   C2B53096  22.416  22.991   6.588
 4114POPC   C3B53097  22.590  22.970   7.011
 4114POPC   C4B53098  22.675  22.828   7.444
 4115POPC   NC353099  22.683  11.354   5.492
 4115POPC   PO453100  23.263  11.034   5.329
 4115POPC   GL153101  23.199  11.188   5.770
 4115POPC   GL253102  23.016  11.491   5.875
 4115POPC   C1A53103  23.286  11.192   6.226
 4115POPC   D2A53104  23.403  11.326   6.641
 4115POPC   C3A53105  23.152  11.057   6.892
 4115POPC   C4A53106  23.083  11.062   7.300
 4115POPC   C1B53107  22.664  11.620   6.144
 4115POPC   C2B53108  22.622  11.640   6.612
 4115POPC   C3B53109  22.826  11.456   6.995
 4115POPC   C4B53110  22.701  11.351   7.407
 4116POPC   NC353111   5.714  20.834   5.384
 4116POPC   PO453112   5.878  20.194   5.504
 4116POPC   GL153113   6.051  20.433   5.827
 4116POPC   GL253114   6.133  20.791   5.710
 4116POPC   C1A53115   6.012  20.364   6.268
 4116POPC   D2A53116   5.902  20.517   6.646
 4116POPC   C3A53117   5.981  20.278   6.980
 4116POPC   C4A53118   5.632  20.280   7.209
 4116POPC   C1B53119   5.935  20.873   6.113
 4116POPC   C2B53120   6.136  20.950   6.516
 4116POPC   C3B53121   5.895  20.975   6.882
 4116POPC   C4B53122   5.839  20.726   7.227
 4117POPC   NC353123  37.756  28.279   5.391
 4117POPC   PO453124  38.135  28.814   5.578
 4117POPC   GL153125  37.928  28.526   5.886
 4117POPC   GL253126  37.796  28.190   5.886
 4117POPC   C1A53127  37.871  28.416   6.327
 4117POPC   D2A53128  37.973  28.224   6.694
 4117POPC   C3A53129  37.771  28.437   7.012
 4117POPC   C4A53130  37.520  28.414   7.369
 4117POPC   C1B53131  37.475  28.072   6.211
 4117POPC   C2B53132  37.477  27.997   6.649
 4117POPC   C3B53133  37.331  28.055   7.058
 4117POPC   C4B53134  37.373  27.876   7.491
 4118POPC   NC353135  41.391  29.976   5.190
 4118POPC   PO453136  42.086  29.688   5.179
 4118POPC   GL153137  41.771  29.820   5.563
 4118POPC   GL253138  41.668  30.183   5.657
 4118POPC   C1A53139  41.518  29.810   5.980
 4118POPC   D2A53140  41.583  29.902   6.426
 4118POPC   C3A53141  41.546  29.598   6.783
 4118POPC   C4A53142  41.599  29.677   7.227
 4118POPC   C1B53143  41.392  30.288   6.068
 4118POPC   C2B53144  41.201  30.237   6.518
 4118POPC   C3B53145  41.200  30.237   6.981
 4118POPC   C4B53146  41.610  30.200   7.223
 4119POPC   NC353147  21.559  28.549   5.474
 4119POPC   PO453148  21.572  27.920   5.379
 4119POPC   GL153149  21.403  28.188   5.777
 4119POPC   GL253150  21.297  28.568   5.898
 4119POPC   C1A53151  21.306  28.179   6.214
 4119POPC   D2A53152  21.525  28.131   6.562
 4119POPC   C3A53153  21.308  28.169   6.960
 4119POPC   C4A53154  21.174  27.938   7.309
 4119POPC   C1B53155  21.634  28.640   6.239
 4119POPC   C2B53156  21.729  28.578   6.704
 4119POPC   C3B53157  21.530  28.614   7.131
 4119POPC   C4B53158  21.084  28.632   7.242
 4120POPC   NC353159  42.624  28.252   5.616
 4120POPC   PO453160  42.355  28.725   5.167
 4120POPC   GL153161  42.223  28.549   5.634
 4120POPC   GL253162  42.149  28.185   5.809
 4120POPC   C1A53163  42.292  28.596   6.134
 4120POPC   D2A53164  42.480  28.481   6.586
 4120POPC   C3A53165  42.383  28.410   7.064
 4120POPC   C4A53166  42.575  28.677   7.408
 4120POPC   C1B53167  42.356  28.081   6.247
 4120POPC   C2B53168  42.454  27.987   6.699
 4120POPC   C3B53169  42.442  27.913   7.150
 4120POPC   C4B53170  42.071  28.031   7.373
 4121POPC   NC353171  38.839  36.177   5.324
 4121POPC   PO453172  39.482  36.302   5.356
 4121POPC   GL153173  39.263  36.041   5.659
 4121POPC   GL253174  39.046  36.298   5.828
 4121POPC   C1A53175  39.334  35.968   6.120
 4121POPC   D2A53176  39.380  36.202   6.523
 4121POPC   C3A53177  39.336  36.029   6.943
 4121POPC   C4A53178  39.423  36.358   7.199
 4121POPC   C1B53179  38.893  36.185   6.272
 4121POPC   C2B53180  38.876  36.025   6.687
 4121POPC   C3B53181  38.856  36.193   7.077
 4121POPC   C4B53182  38.714  36.547   7.233
 4122POPC   NC353183   6.527  37.856   5.463
 4122POPC   PO453184   6.690  37.290   5.191
 4122POPC   GL153185   6.862  37.504   5.646
 4122POPC   GL253186   6.787  37.829   5.873
 4122POPC   C1A53187   6.829  37.412   6.135
 4122POPC   D2A53188   6.683  37.712   6.487
 4122POPC   C3A53189   6.808  37.604   6.908
 4122POPC   C4A53190   6.961  37.693   7.300
 4122POPC   C1B53191   6.377  37.907   6.108
 4122POPC   C2B53192   6.248  37.988   6.526
 4122POPC   C3B53193   6.306  37.702   6.884
 4122POPC   C4B53194   6.456  37.677   7.291
 4123POPC   NC353195  22.531  44.045   5.408
 4123POPC   PO453196  21.898  43.794   5.523
 4123POPC   GL153197  22.066  43.960   5.838
 4123POPC   GL253198  22.411  43.922   5.898
 4123POPC   C1A53199  22.027  43.798   6.247
 4123POPC   D2A53200  22.143  43.602   6.605
 4123POPC   C3A53201  21.941  43.801   6.928
 4123POPC   C4A53202  22.021  43.750   7.335
 4123POPC   C1B53203  22.249  44.253   6.207
 4123POPC   C2B53204  22.118  44.178   6.629
 4123POPC   C3B53205  22.338  44.110   7.054
 4123POPC   C4B53206  22.320  44.176   7.508
 4124POPC   NC353207  21.734   4.816   5.312
 4124POPC   PO453208  21.119   4.986   5.393
 4124POPC   GL153209  21.353   4.987   5.789
 4124POPC   GL253210  21.629   5.250   5.754
 4124POPC   C1A53211  21.340   4.968   6.260
 4124POPC   D2A53212  21.097   4.930   6.668
 4124POPC   C3A53213  21.288   5.091   7.052
 4124POPC   C4A53214  21.756   5.084   7.145
 4124POPC   C1B53215  21.511   5.459   6.169
 4124POPC   C2B53216  21.423   5.357   6.619
 4124POPC   C3B53217  21.537   5.530   7.030
 4124POPC   C4B53218  21.514   5.455   7.470
 4125POPC   NC353219   7.282  15.400   5.567
 4125POPC   PO453220   7.647  14.916   5.521
 4125POPC   GL153221   7.548  15.122   5.905
 4125POPC   GL253222   7.641  15.447   5.957
 4125POPC   C1A53223   7.159  15.088   6.137
 4125POPC   D2A53224   7.122  14.909   6.523
 4125POPC   C3A53225   7.165  15.201   6.856
 4125POPC   C4A53226   7.479  15.155   7.179
 4125POPC   C1B53227   7.483  15.424   6.371
 4125POPC   C2B53228   7.563  15.530   6.803
 4125POPC   C3B53229   7.513  15.650   7.254
 4125POPC   C4B53230   7.575  15.390   7.646
 4126POPC   NC353231  37.911  24.579   5.674
 4126POPC   PO453232  37.216  24.691   5.635
 4126POPC   GL153233  37.483  24.414   5.931
 4126POPC   GL253234  37.820  24.203   6.006
 4126POPC   C1A53235  37.538  24.456   6.380
 4126POPC   D2A53236  37.281  24.587   6.731
 4126POPC   C3A53237  37.442  24.511   7.124
 4126POPC   C4A53238  37.715  24.855   7.146
 4126POPC   C1B53239  38.067  24.396   6.368
 4126POPC   C2B53240  37.891  24.460   6.824
 4126POPC   C3B53241  37.924  24.398   7.304
 4126POPC   C4B53242  37.964  24.290   7.768
 4127POPC   NC353243  22.467  18.613   5.403
 4127POPC   PO453244  22.239  19.306   5.473
 4127POPC   GL153245  22.161  19.228   5.891
 4127POPC   GL253246  22.135  18.878   5.834
 4127POPC   C1A53247  22.244  19.051   6.316
 4127POPC   D2A53248  22.353  18.836   6.698
 4127POPC   C3A53249  22.111  18.880   7.058
 4127POPC   C4A53250  21.988  19.311   7.120
 4127POPC   C1B53251  21.832  18.771   6.143
 4127POPC   C2B53252  21.853  18.604   6.565
 4127POPC   C3B53253  21.607  18.680   6.912
 4127POPC   C4B53254  21.648  18.912   7.270
 4128POPC   NC353255   9.936  29.401   5.444
 4128POPC   PO453256   9.485  28.958   5.390
 4128POPC   GL153257   9.645  28.911   5.806
 4128POPC   GL253258   9.979  28.969   5.751
 4128POPC   C1A53259   9.507  28.977   6.236
 4128POPC   D2A53260   9.678  29.118   6.628
 4128POPC   C3A53261   9.679  28.913   7.047
 4128POPC   C4A53262   9.539  28.983   7.489
 4128POPC   C1B53263  10.004  29.093   6.209
 4128POPC   C2B53264  10.175  28.981   6.604
 4128POPC   C3B53265  10.128  29.131   7.037
 4128POPC   C4B53266  10.000  29.300   7.449
 4129POPC   NC353267  38.511   4.613   5.425
 4129POPC   PO453268  38.152   3.973   5.329
 4129POPC   GL153269  38.227   4.039   5.778
 4129POPC   GL253270  38.343   4.406   5.876
 4129POPC   C1A53271  38.559   4.006   6.103
 4129POPC   D2A53272  38.724   4.208   6.467
 4129POPC   C3A53273  38.641   3.983   6.848
 4129POPC   C4A53274  38.435   4.196   7.157
 4129POPC   C1B53275  38.335   4.586   6.318
 4129POPC   C2B53276  38.440   4.729   6.752
 4129POPC   C3B53277  38.695   4.638   7.120
 4129POPC   C4B53278  38.753   4.833   7.537
 4130POPC   NC353279  34.576  31.729   5.519
 4130POPC   PO453280  34.276  31.089   5.706
 4130POPC   GL153281  34.584  31.390   5.926
 4130POPC   GL253282  34.841  31.691   5.961
 4130POPC   C1A53283  34.563  31.486   6.368
 4130POPC   D2A53284  34.421  31.275   6.731
 4130POPC   C3A53285  34.563  31.282   7.143
 4130POPC   C4A53286  34.550  31.443   7.549
 4130POPC   C1B53287  35.043  31.615   6.386
 4130POPC   C2B53288  34.920  31.464   6.795
 4130POPC   C3B53289  34.879  31.699   7.190
 4130POPC   C4B53290  34.968  32.135   7.315
 4131POPC   NC353291  13.745  10.975   5.268
 4131POPC   PO453292  13.238  10.624   5.415
 4131POPC   GL153293  13.580  10.575   5.645
 4131POPC   GL253294  13.352  10.461   5.890
 4131POPC   C1A53295  13.785  10.721   6.030
 4131POPC   D2A53296  13.858  10.496   6.419
 4131POPC   C3A53297  13.654  10.632   6.768
 4131POPC   C4A53298  13.788  10.679   7.191
 4131POPC   C1B53299  13.429  10.248   6.284
 4131POPC   C2B53300  13.246  10.292   6.667
 4131POPC   C3B53301  13.432  10.281   7.051
 4131POPC   C4B53302  13.361  10.513   7.420
 4132POPC   NC353303  35.392   5.950   5.426
 4132POPC   PO453304  36.057   6.052   5.669
 4132POPC   GL153305  35.660   5.936   5.934
 4132POPC   GL253306  35.326   5.772   5.897
 4132POPC   C1A53307  35.404   6.128   6.293
 4132POPC   D2A53308  35.362   6.280   6.725
 4132POPC   C3A53309  35.448   5.961   7.070
 4132POPC   C4A53310  35.605   6.005   7.510
 4132POPC   C1B53311  35.136   5.690   6.308
 4132POPC   C2B53312  34.962   5.936   6.651
 4132POPC   C3B53313  34.959   5.826   7.081
 4132POPC   C4B53314  35.145   5.790   7.480
 4133POPC   NC353315  23.377  20.052   5.551
 4133POPC   PO453316  23.913  19.740   5.228
 4133POPC   GL153317  23.844  19.727   5.780
 4133POPC   GL253318  24.150  19.907   5.962
 4133POPC   C1A53319  23.808  19.758   6.290
 4133POPC   D2A53320  23.537  19.901   6.658
 4133POPC   C3A53321  23.667  19.837   7.099
 4133POPC   C4A53322  23.716  19.465   7.405
 4133POPC   C1B53323  24.082  20.183   6.346
 4133POPC   C2B53324  24.044  19.999   6.740
 4133POPC   C3B53325  24.091  20.103   7.136
 4133POPC   C4B53326  23.745  20.339   7.258
 4134POPC   NC353327  41.697  11.537   5.357
 4134POPC   PO453328  41.187  11.279   5.674
 4134POPC   GL153329  41.522  11.502   5.859
 4134POPC   GL253330  41.886  11.499   5.834
 4134POPC   C1A53331  41.496  11.563   6.263
 4134POPC   D2A53332  41.484  11.314   6.600
 4134POPC   C3A53333  41.627  11.351   7.001
 4134POPC   C4A53334  41.332  11.624   7.199
 4134POPC   C1B53335  41.940  11.318   6.273
 4134POPC   C2B53336  42.041  11.214   6.699
 4134POPC   C3B53337  42.018  10.991   7.098
 4134POPC   C4B53338  41.708  10.867   7.387
 4135POPC   NC353339  11.693  28.524   5.448
 4135POPC   PO453340  12.401  28.564   5.466
 4135POPC   GL153341  12.245  28.270   5.742
 4135POPC   GL253342  11.884  28.244   5.834
 4135POPC   C1A53343  12.294  28.295   6.187
 4135POPC   D2A53344  12.116  28.553   6.498
 4135POPC   C3A53345  12.291  28.590   6.906
 4135POPC   C4A53346  12.110  28.454   7.298
 4135POPC   C1B53347  11.757  28.596   6.111
 4135POPC   C2B53348  11.646  28.764   6.526
 4135POPC   C3B53349  11.791  28.678   6.897
 4135POPC   C4B53350  11.609  28.640   7.250
 4136POPC   NC353351  28.344  10.187   5.578
 4136POPC   PO453352  28.832  10.505   5.255
 4136POPC   GL153353  28.442  10.668   5.682
 4136POPC   GL253354  28.277  11.016   5.674
 4136POPC   C1A53355  28.090  10.503   6.067
 4136POPC   D2A53356  27.979  10.293   6.500
 4136POPC   C3A53357  28.361  10.280   6.771
 4136POPC   C4A53358  28.559  10.330   7.188
 4136POPC   C1B53359  28.215  10.982   6.127
 4136POPC   C2B53360  28.112  10.796   6.529
 4136POPC   C3B53361  28.383  10.787   6.890
 4136POPC   C4B53362  28.238  10.739   7.283
 4137POPC   NC353363  40.061  15.516   5.685
 4137POPC   PO453364  40.315  14.843   5.437
 4137POPC   GL153365  40.063  14.970   5.782
 4137POPC   GL253366  39.710  15.044   5.813
 4137POPC   C1A53367  40.016  15.001   6.224
 4137POPC   D2A53368  40.050  15.277   6.564
 4137POPC   C3A53369  40.080  14.965   6.848
 4137POPC   C4A53370  40.037  15.090   7.221
 4137POPC   C1B53371  39.694  15.390   6.191
 4137POPC   C2B53372  39.563  15.532   6.623
 4137POPC   C3B53373  39.583  15.333   7.043
 4137POPC   C4B53374  39.596  15.277   7.515
 4138POPC   NC353375  26.011   5.489   5.506
 4138POPC   PO453376  25.972   6.164   5.433
 4138POPC   GL153377  25.874   6.068   5.903
 4138POPC   GL253378  25.900   5.701   5.961
 4138POPC   C1A53379  25.970   5.995   6.387
 4138POPC   D2A53380  26.166   5.786   6.755
 4138POPC   C3A53381  26.034   5.904   7.177
 4138POPC   C4A53382  26.164   6.021   7.598
 4138POPC   C1B53383  25.628   5.643   6.324
 4138POPC   C2B53384  25.649   5.765   6.786
 4138POPC   C3B53385  25.528   5.882   7.198
 4138POPC   C4B53386  25.689   5.781   7.623
 4139POPC   NC353387  12.610  39.515   5.464
 4139POPC   PO453388  13.116  39.039   5.338
 4139POPC   GL153389  12.899  39.121   5.714
 4139POPC   GL253390  13.005  39.434   5.810
 4139POPC   C1A53391  12.853  39.078   6.191
 4139POPC   D2A53392  12.757  39.206   6.622
 4139POPC   C3A53393  12.860  38.964   7.006
 4139POPC   C4A53394  12.695  38.962   7.450
 4139POPC   C1B53395  13.113  39.645   6.184
 4139POPC   C2B53396  13.299  39.639   6.560
 4139POPC   C3B53397  13.105  39.431   6.908
 4139POPC   C4B53398  12.665  39.443   7.100
 4140POPC   NC353399  26.628  29.246   5.390
 4140POPC   PO453400  26.077  28.734   5.437
 4140POPC   GL153401  25.919  28.859   5.852
 4140POPC   GL253402  25.994  29.238   5.878
 4140POPC   C1A53403  25.881  28.983   6.284
 4140POPC   D2A53404  26.039  29.195   6.569
 4140POPC   C3A53405  25.961  29.040   6.973
 4140POPC   C4A53406  26.065  29.270   7.357
 4140POPC   C1B53407  26.356  29.397   6.100
 4140POPC   C2B53408  26.492  29.385   6.527
 4140POPC   C3B53409  26.364  29.395   6.940
 4140POPC   C4B53410  26.615  29.313   7.320
 4141POPC   NC353411  42.937  19.244   5.184
 4141POPC   PO453412  43.084  18.571   5.265
 4141POPC   GL153413  43.231  18.840   5.647
 4141POPC   GL253414  43.414  19.171   5.700
 4141POPC   C1A53415  43.396  18.775   6.085
 4141POPC   D2A53416  43.444  18.778   6.541
 4141POPC   C3A53417  43.118  18.856   6.856
 4141POPC   C4A53418  43.196  18.865   7.299
 4141POPC   C1B53419  43.416  19.295   6.173
 4141POPC   C2B53420  43.273  19.293   6.625
 4141POPC   C3B53421  43.385  19.290   7.077
 4141POPC   C4B53422  43.081  19.434   7.408
 4142POPC   NC353423  14.812  29.519   5.131
 4142POPC   PO453424  14.609  30.119   5.427
 4142POPC   GL153425  14.507  30.033   5.825
 4142POPC   GL253426  14.402  29.702   5.735
 4142POPC   C1A53427  14.401  30.184   6.214
 4142POPC   D2A53428  14.551  30.335   6.595
 4142POPC   C3A53429  14.366  30.226   6.968
 4142POPC   C4A53430  14.604  30.168   7.317
 4142POPC   C1B53431  14.431  29.672   6.186
 4142POPC   C2B53432  14.326  29.842   6.588
 4142POPC   C3B53433  14.117  29.770   6.948
 4142POPC   C4B53434  14.143  29.920   7.325
 4143POPC   NC353435   4.560   8.791   5.595
 4143POPC   PO453436   5.228   8.961   5.435
 4143POPC   GL153437   5.096   9.138   5.826
 4143POPC   GL253438   4.948   8.812   5.900
 4143POPC   C1A53439   5.133   9.079   6.289
 4143POPC   D2A53440   5.326   9.025   6.684
 4143POPC   C3A53441   5.159   9.275   7.017
 4143POPC   C4A53442   4.740   9.255   7.189
 4143POPC   C1B53443   4.684   8.695   6.245
 4143POPC   C2B53444   4.928   8.667   6.577
 4143POPC   C3B53445   4.941   8.774   6.979
 4143POPC   C4B53446   5.085   8.885   7.351
 4144POPC   NC353447   4.639   6.617   5.417
 4144POPC   PO453448   3.965   6.704   5.559
 4144POPC   GL153449   4.344   6.626   5.870
 4144POPC   GL253450   4.320   6.271   6.019
 4144POPC   C1A53451   4.519   6.601   6.313
 4144POPC   D2A53452   4.277   6.652   6.674
 4144POPC   C3A53453   4.586   6.692   6.965
 4144POPC   C4A53454   4.715   6.626   7.388
 4144POPC   C1B53455   3.995   6.531   6.242
 4144POPC   C2B53456   3.730   6.701   6.596
 4144POPC   C3B53457   3.920   6.893   6.962
 4144POPC   C4B53458   4.183   6.664   7.240
 4145POPC   NC353459  30.801  12.310   5.426
 4145POPC   PO453460  30.332  11.860   5.378
 4145POPC   GL153461  30.518  11.989   5.788
 4145POPC   GL253462  30.890  11.946   5.822
 4145POPC   C1A53463  30.613  12.031   6.239
 4145POPC   D2A53464  30.687  11.797   6.581
 4145POPC   C3A53465  30.724  11.965   6.962
 4145POPC   C4A53466  30.625  11.812   7.363
 4145POPC   C1B53467  31.120  12.040   6.194
 4145POPC   C2B53468  30.963  12.258   6.570
 4145POPC   C3B53469  31.092  12.309   6.986
 4145POPC   C4B53470  30.857  12.245   7.380
 4146POPC   NC353471  42.540  35.422   5.386
 4146POPC   PO453472  41.837  35.257   5.547
 4146POPC   GL153473  42.106  35.274   5.922
 4146POPC   GL253474  42.419  35.433   5.867
 4146POPC   C1A53475  42.294  35.163   6.311
 4146POPC   D2A53476  42.259  34.946   6.692
 4146POPC   C3A53477  42.233  35.253   6.987
 4146POPC   C4A53478  42.078  35.402   7.339
 4146POPC   C1B53479  42.688  35.460   6.198
 4146POPC   C2B53480  42.781  35.284   6.589
 4146POPC   C3B53481  42.728  35.175   7.006
 4146POPC   C4B53482  42.664  35.280   7.436
 4147POPC   NC353483  16.938  31.166   5.476
 4147POPC   PO453484  17.080  30.560   5.543
 4147POPC   GL153485  16.719  30.711   5.800
 4147POPC   GL253486  16.497  30.983   5.693
 4147POPC   C1A53487  16.534  30.599   6.208
 4147POPC   D2A53488  16.769  30.543   6.600
 4147POPC   C3A53489  16.539  30.498   6.968
 4147POPC   C4A53490  16.714  30.451   7.384
 4147POPC   C1B53491  16.570  31.109   6.140
 4147POPC   C2B53492  16.372  31.005   6.525
 4147POPC   C3B53493  16.553  31.025   6.923
 4147POPC   C4B53494  16.431  30.876   7.293
 4148POPC   NC353495  38.339  38.175   5.381
 4148POPC   PO453496  38.708  38.651   5.362
 4148POPC   GL153497  38.607  38.570   5.777
 4148POPC   GL253498  38.267  38.477   5.807
 4148POPC   C1A53499  38.682  38.451   6.202
 4148POPC   D2A53500  38.669  38.327   6.626
 4148POPC   C3A53501  38.305  38.306   6.901
 4148POPC   C4A53502  38.425  38.386   7.330
 4148POPC   C1B53503  38.221  38.719   6.217
 4148POPC   C2B53504  38.122  38.736   6.687
 4148POPC   C3B53505  38.140  38.741   7.158
 4148POPC   C4B53506  38.231  38.750   7.661
 4149POPC   NC353507   1.538  36.871   5.246
 4149POPC   PO453508   0.886  36.954   5.389
 4149POPC   GL153509   1.277  37.021   5.658
 4149POPC   GL253510   1.351  36.646   5.686
 4149POPC   C1A53511   1.458  37.164   6.064
 4149POPC   D2A53512   1.265  37.039   6.466
 4149POPC   C3A53513   1.350  37.099   6.916
 4149POPC   C4A53514   1.032  36.889   7.145
 4149POPC   C1B53515   1.409  36.628   6.126
 4149POPC   C2B53516   1.533  36.588   6.560
 4149POPC   C3B53517   1.421  36.489   6.986
 4149POPC   C4B53518   1.481  36.755   7.375
 4150POPC   NC353519  43.347  40.428   5.630
 4150POPC   PO453520  43.280  39.805   5.600
 4150POPC   GL153521  43.031  40.000   5.892
 4150POPC   GL253522  42.928  40.330   5.910
 4150POPC   C1A53523  43.178  40.092   6.311
 4150POPC   D2A53524  43.138  39.859   6.688
 4150POPC   C3A53525  43.324  40.045   7.025
 4150POPC   C4A53526  43.210  39.874   7.394
 4150POPC   C1B53527  42.685  40.160   6.257
 4150POPC   C2B53528  42.788  40.270   6.703
 4150POPC   C3B53529  42.872  40.226   7.158
 4150POPC   C4B53530  43.104  40.359   7.546
 4151POPC   NC353531  40.434  38.333   5.085
 4151POPC   PO453532  41.030  38.525   5.392
 4151POPC   GL153533  40.905  38.455   5.755
 4151POPC   GL253534  40.528  38.450   5.652
 4151POPC   C1A53535  41.049  38.274   6.143
 4151POPC   D2A53536  40.871  38.410   6.530
 4151POPC   C3A53537  40.995  38.248   6.939
 4151POPC   C4A53538  40.763  38.525   7.243
 4151POPC   C1B53539  40.537  38.366   6.100
 4151POPC   C2B53540  40.406  38.174   6.479
 4151POPC   C3B53541  40.477  38.269   6.902
 4151POPC   C4B53542  40.647  38.032   7.267
 4152POPC   NC353543  18.545  13.852   5.413
 4152POPC   PO453544  18.062  13.372   5.257
 4152POPC   GL153545  18.035  13.635   5.666
 4152POPC   GL253546  18.376  13.641   5.867
 4152POPC   C1A53547  17.920  13.674   6.115
 4152POPC   D2A53548  18.235  13.611   6.458
 4152POPC   C3A53549  18.161  13.654   6.896
 4152POPC   C4A53550  18.414  13.815   7.221
 4152POPC   C1B53551  18.646  13.433   6.204
 4152POPC   C2B53552  18.635  13.269   6.611
 4152POPC   C3B53553  18.515  13.255   7.021
 4152POPC   C4B53554  18.691  13.449   7.406
 4153POPC   NC353555  16.741   9.193   5.339
 4153POPC   PO453556  17.039   8.621   5.384
 4153POPC   GL153557  16.917   8.924   5.728
 4153POPC   GL253558  16.720   8.825   5.968
 4153POPC   C1A53559  17.010   9.197   6.153
 4153POPC   D2A53560  17.061   9.296   6.608
 4153POPC   C3A53561  16.923   9.012   6.911
 4153POPC   C4A53562  16.622   9.009   7.232
 4153POPC   C1B53563  16.475   8.737   6.281
 4153POPC   C2B53564  16.643   8.656   6.669
 4153POPC   C3B53565  16.447   8.558   7.019
 4153POPC   C4B53566  16.384   8.593   7.433
 4154POPC   NC353567  36.907  14.294   5.419
 4154POPC   PO453568  37.373  14.778   5.509
 4154POPC   GL153569  37.115  14.554   5.823
 4154POPC   GL253570  37.033  14.175   5.880
 4154POPC   C1A53571  36.894  14.546   6.212
 4154POPC   D2A53572  36.892  14.345   6.592
 4154POPC   C3A53573  36.862  14.631   6.927
 4154POPC   C4A53574  36.862  14.478   7.327
 4154POPC   C1B53575  36.696  14.027   6.156
 4154POPC   C2B53576  36.492  14.018   6.567
 4154POPC   C3B53577  36.640  14.085   7.016
 4154POPC   C4B53578  36.643  13.993   7.471
 4155POPC   NC353579  13.857  29.229   5.064
 4155POPC   PO453580  13.689  28.904   5.618
 4155POPC   GL153581  13.645  29.216   5.970
 4155POPC   GL253582  13.306  29.130   6.100
 4155POPC   C1A53583  13.637  29.341   6.432
 4155POPC   D2A53584  13.903  29.316   6.791
 4155POPC   C3A53585  13.633  29.266   7.143
 4155POPC   C4A53586  13.678  29.317   7.574
 4155POPC   C1B53587  13.605  28.833   6.314
 4155POPC   C2B53588  13.707  28.829   6.745
 4155POPC   C3B53589  13.457  28.746   7.067
 4155POPC   C4B53590  13.457  28.854   7.464
 4156POPC   NC353591  18.512   2.441   5.504
 4156POPC   PO453592  18.578   3.079   5.323
 4156POPC   GL153593  18.452   2.904   5.735
 4156POPC   GL253594  18.170   2.635   5.805
 4156POPC   C1A53595  18.550   2.735   6.144
 4156POPC   D2A53596  18.468   2.576   6.558
 4156POPC   C3A53597  18.449   2.870   6.919
 4156POPC   C4A53598  18.282   2.858   7.346
 4156POPC   C1B53599  18.092   2.449   6.200
 4156POPC   C2B53600  17.993   2.385   6.639
 4156POPC   C3B53601  18.051   2.530   7.067
 4156POPC   C4B53602  18.052   2.437   7.539
 4157POPC   NC353603  29.684  38.766   5.470
 4157POPC   PO453604  30.066  39.327   5.393
 4157POPC   GL153605  29.858  39.260   5.753
 4157POPC   GL253606  30.032  38.978   5.794
 4157POPC   C1A53607  29.962  39.443   6.168
 4157POPC   D2A53608  30.073  39.306   6.568
 4157POPC   C3A53609  29.928  39.495   6.941
 4157POPC   C4A53610  29.694  39.404   7.279
 4157POPC   C1B53611  29.830  38.936   6.177
 4157POPC   C2B53612  29.860  38.798   6.589
 4157POPC   C3B53613  29.797  38.992   6.968
 4157POPC   C4B53614  29.983  38.906   7.344
 4158POPC   NC353615  12.341   1.385   5.418
 4158POPC   PO453616  12.033   0.796   5.408
 4158POPC   GL153617  12.122   1.102   5.792
 4158POPC   GL253618  12.195   1.490   5.890
 4158POPC   C1A53619  12.049   1.154   6.259
 4158POPC   D2A53620  12.062   0.889   6.646
 4158POPC   C3A53621  11.893   1.052   7.024
 4158POPC   C4A53622  12.001   1.121   7.432
 4158POPC   C1B53623  12.154   1.666   6.306
 4158POPC   C2B53624  11.998   1.456   6.691
 4158POPC   C3B53625  12.106   1.514   7.152
 4158POPC   C4B53626  11.989   1.598   7.633
 4159POPC   NC353627  44.676  42.593   5.493
 4159POPC   PO453628  44.881  41.913   5.531
 4159POPC   GL153629  44.591  42.172   5.776
 4159POPC   GL253630  44.915  42.313   5.872
 4159POPC   C1A53631  44.488  42.409   6.159
 4159POPC   D2A53632  44.735  42.362   6.531
 4159POPC   C3A53633  44.527  42.436   6.908
 4159POPC   C4A53634  44.448  42.168   7.257
 4159POPC   C1B53635  44.998  42.639   6.130
 4159POPC   C2B53636   0.145  42.661   6.548
 4159POPC   C3B53637   0.016  42.552   6.969
 4159POPC   C4B53638  44.719  42.603   7.352
 4160POPC   NC353639  15.787  23.727   5.264
 4160POPC   PO453640  16.373  23.926   5.201
 4160POPC   GL153641  16.273  23.965   5.690
 4160POPC   GL253642  15.931  23.880   5.753
 4160POPC   C1A53643  16.246  23.786   6.182
 4160POPC   D2A53644  16.021  23.457   6.429
 4160POPC   C3A53645  16.043  23.499   6.872
 4160POPC   C4A53646  16.171  23.756   7.204
 4160POPC   C1B53647  15.734  23.784   6.161
 4160POPC   C2B53648  15.868  23.951   6.568
 4160POPC   C3B53649  15.752  23.922   7.007
 4160POPC   C4B53650  15.500  23.619   7.230
 4161POPC   NC353651  39.514   6.938   5.602
 4161POPC   PO453652  39.172   7.346   5.171
 4161POPC   GL153653  39.161   7.502   5.701
 4161POPC   GL253654  38.818   7.520   5.810
 4161POPC   C1A53655  39.424   7.420   6.103
 4161POPC   D2A53656  39.534   7.653   6.492
 4161POPC   C3A53657  39.473   7.526   6.932
 4161POPC   C4A53658  39.179   7.389   7.244
 4161POPC   C1B53659  38.919   7.331   6.226
 4161POPC   C2B53660  39.071   7.351   6.656
 4161POPC   C3B53661  38.926   7.049   6.967
 4161POPC   C4B53662  38.757   6.947   7.372
 4162POPC   NC353663   9.143  10.060   5.658
 4162POPC   PO453664   8.988  10.749   5.485
 4162POPC   GL153665   8.958  10.536   5.869
 4162POPC   GL253666   8.741  10.255   5.895
 4162POPC   C1A53667   9.122  10.471   6.294
 4162POPC   D2A53668   9.345  10.342   6.705
 4162POPC   C3A53669   9.128  10.582   7.029
 4162POPC   C4A53670   8.977  10.418   7.464
 4162POPC   C1B53671   8.877  10.016   6.258
 4162POPC   C2B53672   8.852  10.201   6.661
 4162POPC   C3B53673   8.725  10.295   7.046
 4162POPC   C4B53674   8.411  10.355   7.306
 4163POPC   NC353675  26.961  10.467   5.338
 4163POPC   PO453676  26.693  10.949   5.658
 4163POPC   GL153677  26.684  10.563   5.913
 4163POPC   GL253678  26.982  10.359   5.838
 4163POPC   C1A53679  26.690  10.442   6.373
 4163POPC   D2A53680  27.097  10.525   6.570
 4163POPC   C3A53681  27.171  10.710   6.965
 4163POPC   C4A53682  26.905  10.646   7.289
 4163POPC   C1B53683  27.050  10.135   6.204
 4163POPC   C2B53684  26.969  10.010   6.635
 4163POPC   C3B53685  26.950  10.183   7.061
 4163POPC   C4B53686  27.035  10.221   7.511
 4164POPC   NC353687  44.104  38.119   5.558
 4164POPC   PO453688  44.035  37.436   5.591
 4164POPC   GL153689  43.835  37.513   5.941
 4164POPC   GL253690  43.608  37.720   5.769
 4164POPC   C1A53691  43.975  37.560   6.375
 4164POPC   D2A53692  43.933  37.718   6.788
 4164POPC   C3A53693  44.041  37.427   7.099
 4164POPC   C4A53694  44.237  37.474   7.497
 4164POPC   C1B53695  43.551  37.823   6.229
 4164POPC   C2B53696  43.484  38.017   6.623
 4164POPC   C3B53697  43.601  38.029   7.034
 4164POPC   C4B53698  43.528  37.653   7.265
 4165POPC   NC353699   1.049  20.009   5.415
 4165POPC   PO453700   1.709  19.907   5.414
 4165POPC   GL153701   1.389  19.827   5.768
 4165POPC   GL253702   1.485  19.545   5.984
 4165POPC   C1A53703   1.096  19.828   6.137
 4165POPC   D2A53704   1.254  19.903   6.546
 4165POPC   C3A53705   1.009  19.870   6.906
 4165POPC   C4A53706   0.965  20.055   7.293
 4165POPC   C1B53707   1.354  19.400   6.381
 4165POPC   C2B53708   1.389  19.499   6.817
 4165POPC   C3B53709   1.438  19.771   7.159
 4165POPC   C4B53710   1.325  19.667   7.565
 4166POPC   NC353711  17.876  16.278   5.486
 4166POPC   PO453712  18.366  15.789   5.338
 4166POPC   GL153713  18.239  15.938   5.765
 4166POPC   GL253714  17.923  16.003   5.933
 4166POPC   C1A53715  18.391  16.071   6.190
 4166POPC   D2A53716  18.571  16.325   6.520
 4166POPC   C3A53717  18.336  16.214   6.887
 4166POPC   C4A53718  18.387  16.030   7.266
 4166POPC   C1B53719  17.869  16.261   6.293
 4166POPC   C2B53720  17.804  16.168   6.734
 4166POPC   C3B53721  17.895  16.247   7.157
 4166POPC   C4B53722  18.011  16.470   7.513
 4167POPC   NC353723  31.596  40.241   5.344
 4167POPC   PO453724  31.288  39.726   5.202
 4167POPC   GL153725  31.314  39.752   5.683
 4167POPC   GL253726  31.205  40.089   5.839
 4167POPC   C1A53727  31.534  39.794   6.120
 4167POPC   D2A53728  31.530  39.930   6.572
 4167POPC   C3A53729  31.371  39.691   6.928
 4167POPC   C4A53730  31.120  39.699   7.288
 4167POPC   C1B53731  31.311  40.293   6.252
 4167POPC   C2B53732  31.131  40.220   6.667
 4167POPC   C3B53733  31.270  40.178   7.074
 4167POPC   C4B53734  31.705  39.999   7.127
 4168POPC   NC353735  22.621   8.113   5.360
 4168POPC   PO453736  23.205   8.431   5.427
 4168POPC   GL153737  22.937   8.252   5.783
 4168POPC   GL253738  22.723   7.946   5.844
 4168POPC   C1A53739  22.956   8.399   6.222
 4168POPC   D2A53740  22.791   8.397   6.640
 4168POPC   C3A53741  23.026   8.401   7.042
 4168POPC   C4A53742  22.818   8.452   7.466
 4168POPC   C1B53743  22.933   7.884   6.191
 4168POPC   C2B53744  22.686   7.918   6.553
 4168POPC   C3B53745  22.764   7.968   6.974
 4168POPC   C4B53746  22.909   7.936   7.368
 4169POPC   NC353747  44.094  24.812   5.440
 4169POPC   PO453748  43.671  24.217   5.437
 4169POPC   GL153749  43.783  24.541   5.748
 4169POPC   GL253750  44.133  24.463   5.816
 4169POPC   C1A53751  43.782  24.618   6.199
 4169POPC   D2A53752  43.626  24.436   6.587
 4169POPC   C3A53753  43.861  24.534   6.958
 4169POPC   C4A53754  44.008  24.846   7.260
 4169POPC   C1B53755  43.913  24.137   6.095
 4169POPC   C2B53756  43.957  23.948   6.527
 4169POPC   C3B53757  44.178  24.047   6.897
 4169POPC   C4B53758  44.252  24.349   7.222
 4170POPC   NC353759  15.526  20.586   5.486
 4170POPC   PO453760  14.920  20.340   5.505
 4170POPC   GL153761  15.159  20.468   5.827
 4170POPC   GL253762  15.177  20.822   5.838
 4170POPC   C1A53763  15.144  20.512   6.249
 4170POPC   D2A53764  15.069  20.790   6.556
 4170POPC   C3A53765  15.024  20.538   6.946
 4170POPC   C4A53766  14.935  20.119   7.153
 4170POPC   C1B53767  15.463  20.898   6.163
 4170POPC   C2B53768  15.598  20.859   6.562
 4170POPC   C3B53769  15.419  20.913   6.949
 4170POPC   C4B53770  15.364  20.701   7.323
 4171POPC   NC353771  23.992   1.799   5.568
 4171POPC   PO453772  23.343   2.134   5.592
 4171POPC   GL153773  23.623   1.987   5.871
 4171POPC   GL253774  23.891   2.243   5.874
 4171POPC   C1A53775  23.704   1.660   6.186
 4171POPC   D2A53776  23.693   1.490   6.614
 4171POPC   C3A53777  23.771   1.827   6.942
 4171POPC   C4A53778  23.521   2.132   7.195
 4171POPC   C1B53779  23.782   2.152   6.323
 4171POPC   C2B53780  23.763   2.309   6.735
 4171POPC   C3B53781  23.983   2.317   7.126
 4171POPC   C4B53782  23.860   2.204   7.583
 4172POPC   NC353783  43.492   8.802   5.352
 4172POPC   PO453784  43.175   9.337   5.374
 4172POPC   GL153785  43.218   9.139   5.821
 4172POPC   GL253786  43.294   8.774   5.842
 4172POPC   C1A53787  43.194   9.044   6.314
 4172POPC   D2A53788  42.847   8.841   6.599
 4172POPC   C3A53789  43.003   8.873   7.032
 4172POPC   C4A53790  43.156   9.268   7.175
 4172POPC   C1B53791  43.063   8.573   6.193
 4172POPC   C2B53792  43.237   8.515   6.590
 4172POPC   C3B53793  43.490   8.717   6.911
 4172POPC   C4B53794  43.507   8.701   7.360
 4173POPC   NC353795  18.818   3.631   5.450
 4173POPC   PO453796  19.356   3.219   5.519
 4173POPC   GL153797  19.109   3.391   5.851
 4173POPC   GL253798  19.183   3.740   5.856
 4173POPC   C1A53799  18.946   3.560   6.264
 4173POPC   D2A53800  18.966   3.968   6.484
 4173POPC   C3A53801  18.817   3.917   6.907
 4173POPC   C4A53802  18.816   3.596   7.231
 4173POPC   C1B53803  19.407   3.772   6.271
 4173POPC   C2B53804  19.313   3.632   6.683
 4173POPC   C3B53805  19.284   3.755   7.092
 4173POPC   C4B53806  19.228   3.825   7.516
 4174POPC   NC353807  29.885   1.771   5.545
 4174POPC   PO453808  29.656   2.338   5.265
 4174POPC   GL153809  30.095   2.242   5.624
 4174POPC   GL253810  30.048   1.959   5.979
 4174POPC   C1A53811  30.244   2.392   6.050
 4174POPC   D2A53812  29.912   2.300   6.414
 4174POPC   C3A53813  30.027   2.087   6.843
 4174POPC   C4A53814  29.842   2.163   7.246
 4174POPC   C1B53815  29.719   1.653   6.171
 4174POPC   C2B53816  29.467   1.537   6.526
 4174POPC   C3B53817  29.631   1.480   6.915
 4174POPC   C4B53818  29.674   1.702   7.281
 4175POPC   NC353819  28.450   8.607   5.484
 4175POPC   PO453820  28.054   9.109   5.404
 4175POPC   GL153821  28.146   8.905   5.809
 4175POPC   GL253822  28.497   8.992   5.847
 4175POPC   C1A53823  28.222   8.999   6.269
 4175POPC   D2A53824  28.144   9.319   6.562
 4175POPC   C3A53825  28.149   9.182   7.003
 4175POPC   C4A53826  28.248   8.852   7.287
 4175POPC   C1B53827  28.720   9.040   6.266
 4175POPC   C2B53828  28.555   9.023   6.688
 4175POPC   C3B53829  28.706   8.988   7.080
 4175POPC   C4B53830  28.623   9.179   7.456
 4176POPC   NC353831  17.580   6.831   5.196
 4176POPC   PO453832  17.203   6.402   5.513
 4176POPC   GL153833  17.557   6.576   5.771
 4176POPC   GL253834  17.662   6.914   5.717
 4176POPC   C1A53835  17.706   6.598   6.215
 4176POPC   D2A53836  17.457   6.586   6.619
 4176POPC   C3A53837  17.676   6.418   6.991
 4176POPC   C4A53838  17.716   6.490   7.455
 4176POPC   C1B53839  17.790   7.092   6.122
 4176POPC   C2B53840  17.822   6.951   6.560
 4176POPC   C3B53841  17.649   6.942   6.940
 4176POPC   C4B53842  17.716   7.057   7.327
 4177POPC   NC353843  42.481  15.252   5.451
 4177POPC   PO453844  42.179  14.616   5.289
 4177POPC   GL153845  42.194  14.887   5.734
 4177POPC   GL253846  42.518  15.077   5.917
 4177POPC   C1A53847  42.068  15.158   6.133
 4177POPC   D2A53848  42.002  15.328   6.545
 4177POPC   C3A53849  42.280  15.174   6.837
 4177POPC   C4A53850  42.280  15.126   7.264
 4177POPC   C1B53851  42.825  14.892   6.231
 4177POPC   C2B53852  42.799  14.738   6.682
 4177POPC   C3B53853  42.765  15.038   7.052
 4177POPC   C4B53854  42.704  15.002   7.515
 4178POPC   NC353855  29.725   9.749   5.479
 4178POPC   PO453856  30.257  10.182   5.556
 4178POPC   GL153857  30.052  10.045   5.925
 4178POPC   GL253858  29.953   9.698   5.938
 4178POPC   C1A53859  30.107  10.018   6.360
 4178POPC   D2A53860  30.187  10.235   6.761
 4178POPC   C3A53861  29.927  10.010   7.076
 4178POPC   C4A53862  29.946   9.577   7.194
 4178POPC   C1B53863  29.631   9.451   6.144
 4178POPC   C2B53864  29.569   9.309   6.554
 4178POPC   C3B53865  29.740   9.176   6.927
 4178POPC   C4B53866  29.561   9.262   7.312
 4179POPC   NC353867   2.279   7.160   5.371
 4179POPC   PO453868   1.779   7.523   5.378
 4179POPC   GL153869   2.109   7.426   5.768
 4179POPC   GL253870   2.192   7.710   5.984
 4179POPC   C1A53871   2.065   7.245   6.198
 4179POPC   D2A53872   1.660   7.270   6.455
 4179POPC   C3A53873   1.699   7.129   6.881
 4179POPC   C4A53874   2.044   7.148   7.156
 4179POPC   C1B53875   1.956   7.715   6.369
 4179POPC   C2B53876   1.992   7.534   6.762
 4179POPC   C3B53877   1.961   7.662   7.164
 4179POPC   C4B53878   2.160   7.529   7.559
 4180POPC   NC353879   1.394  33.347   5.533
 4180POPC   PO453880   1.133  32.819   5.200
 4180POPC   GL153881   1.272  32.831   5.658
 4180POPC   GL253882   0.999  32.671   5.811
 4180POPC   C1A53883   1.469  32.894   6.124
 4180POPC   D2A53884   1.255  33.095   6.519
 4180POPC   C3A53885   1.304  32.925   6.952
 4180POPC   C4A53886   1.525  32.719   7.290
 4180POPC   C1B53887   0.897  32.809   6.258
 4180POPC   C2B53888   0.871  32.755   6.717
 4180POPC   C3B53889   0.809  32.905   7.159
 4180POPC   C4B53890   0.631  32.594   7.444
 4181POPC   NC353891  24.213   5.013   5.233
 4181POPC   PO453892  23.644   5.286   5.517
 4181POPC   GL153893  23.736   5.324   5.914
 4181POPC   GL253894  23.745   4.963   5.952
 4181POPC   C1A53895  23.688   5.305   6.333
 4181POPC   D2A53896  23.669   5.035   6.661
 4181POPC   C3A53897  23.842   5.167   7.057
 4181POPC   C4A53898  23.733   5.404   7.436
 4181POPC   C1B53899  23.979   4.723   6.278
 4181POPC   C2B53900  24.074   4.697   6.727
 4181POPC   C3B53901  24.031   4.684   7.177
 4181POPC   C4B53902  23.939   4.943   7.537
 4182POPC   NC353903  37.211   1.449   5.321
 4182POPC   PO453904  36.649   1.099   5.497
 4182POPC   GL153905  36.832   1.381   5.812
 4182POPC   GL253906  37.181   1.475   5.833
 4182POPC   C1A53907  36.820   1.530   6.232
 4182POPC   D2A53908  36.843   1.289   6.598
 4182POPC   C3A53909  36.862   1.547   6.931
 4182POPC   C4A53910  36.683   1.319   7.241
 4182POPC   C1B53911  37.189   1.182   6.216
 4182POPC   C2B53912  37.319   1.101   6.663
 4182POPC   C3B53913  37.119   1.106   7.071
 4182POPC   C4B53914  37.096   1.218   7.549
 4183POPC   NC353915  21.697  30.864   5.545
 4183POPC   PO453916  21.063  30.654   5.381
 4183POPC   GL153917  21.272  30.648   5.834
 4183POPC   GL253918  21.586  30.476   5.954
 4183POPC   C1A53919  21.229  30.812   6.240
 4183POPC   D2A53920  21.305  30.901   6.685
 4183POPC   C3A53921  21.394  30.578   6.986
 4183POPC   C4A53922  21.254  30.861   7.265
 4183POPC   C1B53923  21.762  30.849   6.217
 4183POPC   C2B53924  21.806  31.048   6.645
 4183POPC   C3B53925  21.725  30.971   7.072
 4183POPC   C4B53926  21.720  30.815   7.473
 4184POPC   NC353927  24.674  35.166   5.450
 4184POPC   PO453928  24.200  35.671   5.373
 4184POPC   GL153929  24.460  35.539   5.746
 4184POPC   GL253930  24.682  35.752   5.931
 4184POPC   C1A53931  24.445  35.305   6.163
 4184POPC   D2A53932  24.329  35.395   6.630
 4184POPC   C3A53933  24.410  35.085   6.989
 4184POPC   C4A53934  24.265  35.051   7.421
 4184POPC   C1B53935  24.677  35.700   6.403
 4184POPC   C2B53936  24.791  35.540   6.789
 4184POPC   C3B53937  24.665  35.518   7.195
 4184POPC   C4B53938  24.811  35.725   7.576
 4185POPC   NC353939  37.045  28.690   5.575
 4185POPC   PO453940  36.632  28.169   5.481
 4185POPC   GL153941  36.926  28.229   5.871
 4185POPC   GL253942  37.288  28.304   5.793
 4185POPC   C1A53943  37.009  28.250   6.342
 4185POPC   D2A53944  36.885  28.556   6.677
 4185POPC   C3A53945  36.817  28.532   7.123
 4185POPC   C4A53946  37.021  28.265   7.409
 4185POPC   C1B53947  37.407  28.582   6.139
 4185POPC   C2B53948  37.430  28.533   6.599
 4185POPC   C3B53949  37.299  28.724   6.996
 4185POPC   C4B53950  37.150  28.753   7.439
 4186POPC   NC353951   0.567   6.931   5.442
 4186POPC   PO453952   0.958   6.434   5.446
 4186POPC   GL153953   1.156   6.430   5.827
 4186POPC   GL253954   1.114   6.768   5.812
 4186POPC   C1A53955   1.143   6.466   6.270
 4186POPC   D2A53956   1.342   6.287   6.634
 4186POPC   C3A53957   1.111   6.307   7.026
 4186POPC   C4A53958   1.278   6.481   7.377
 4186POPC   C1B53959   1.310   6.952   6.158
 4186POPC   C2B53960   1.444   6.812   6.530
 4186POPC   C3B53961   1.388   6.731   6.932
 4186POPC   C4B53962   1.295   7.058   7.228
 4187POPC   NC353963  33.639  18.392   5.283
 4187POPC   PO453964  34.238  18.591   5.499
 4187POPC   GL153965  33.866  18.493   5.734
 4187POPC   GL253966  33.709  18.158   5.758
 4187POPC   C1A53967  33.738  18.408   6.186
 4187POPC   D2A53968  33.692  18.111   6.522
 4187POPC   C3A53969  33.853  18.274   6.925
 4187POPC   C4A53970  34.172  18.151   7.261
 4187POPC   C1B53971  33.519  17.839   6.073
 4187POPC   C2B53972  33.439  17.653   6.503
 4187POPC   C3B53973  33.547  17.811   6.923
 4187POPC   C4B53974  33.423  18.149   7.195
 4188POPC   NC353975  17.063  22.285   5.614
 4188POPC   PO453976  16.460  22.028   5.454
 4188POPC   GL153977  16.512  22.252   5.832
 4188POPC   GL253978  16.611  22.559   5.749
 4188POPC   C1A53979  16.739  22.162   6.202
 4188POPC   D2A53980  16.701  21.890   6.532
 4188POPC   C3A53981  16.818  22.078   6.916
 4188POPC   C4A53982  16.817  22.138   7.360
 4188POPC   C1B53983  16.661  22.668   6.192
 4188POPC   C2B53984  16.777  22.510   6.618
 4188POPC   C3B53985  16.623  22.526   7.050
 4188POPC   C4B53986  16.524  22.537   7.512
 4189POPC   NC353987  42.330  13.480   5.516
 4189POPC   PO453988  42.830  13.969   5.698
 4189POPC   GL153989  42.442  13.802   5.921
 4189POPC   GL253990  42.075  13.806   5.836
 4189POPC   C1A53991  42.321  13.470   6.234
 4189POPC   D2A53992  42.479  13.219   6.602
 4189POPC   C3A53993  42.257  13.327   6.986
 4189POPC   C4A53994  42.373  13.449   7.409
 4189POPC   C1B53995  42.026  13.906   6.251
 4189POPC   C2B53996  42.027  13.661   6.627
 4189POPC   C3B53997  42.169  13.825   7.022
 4189POPC   C4B53998  41.987  13.962   7.378
 4190POPC   NC353999  10.904  12.387   5.424
 4190POPC   PO454000  10.492  11.791   5.442
 4190POPC   GL154001  10.503  11.913   5.862
 4190POPC   GL254002  10.578  12.240   5.794
 4190POPC   C1A54003  10.352  11.802   6.282
 4190POPC   D2A54004  10.296  12.072   6.643
 4190POPC   C3A54005  10.653  12.026   6.935
 4190POPC   C4A54006  10.504  11.971   7.329
 4190POPC   C1B54007  10.503  12.323   6.232
 4190POPC   C2B54008  10.643  12.454   6.676
 4190POPC   C3B54009  10.362  12.436   7.071
 4190POPC   C4B54010  10.407  12.493   7.539
 4191POPC   NC354011  24.380  26.101   4.984
 4191POPC   PO454012  24.603  25.599   5.264
 4191POPC   GL154013  24.773  25.759   5.721
 4191POPC   GL254014  24.574  26.000   5.940
 4191POPC   C1A54015  24.956  25.770   6.155
 4191POPC   D2A54016  24.658  25.910   6.473
 4191POPC   C3A54017  24.802  25.920   6.896
 4191POPC   C4A54018  24.523  25.965   7.229
 4191POPC   C1B54019  24.390  26.305   6.210
 4191POPC   C2B54020  24.232  26.388   6.589
 4191POPC   C3B54021  24.485  26.348   6.908
 4191POPC   C4B54022  24.638  26.470   7.259
 4192POPC   NC354023  43.483   5.738   5.701
 4192POPC   PO454024  43.428   6.216   5.213
 4192POPC   GL154025  43.071   6.070   5.673
 4192POPC   GL254026  43.074   5.787   5.980
 4192POPC   C1A54027  42.873   6.225   6.102
 4192POPC   D2A54028  42.950   6.218   6.587
 4192POPC   C3A54029  42.886   5.836   6.868
 4192POPC   C4A54030  43.025   5.596   7.256
 4192POPC   C1B54031  43.398   5.915   6.321
 4192POPC   C2B54032  43.493   6.096   6.708
 4192POPC   C3B54033  43.387   5.876   7.031
 4192POPC   C4B54034  43.351   5.995   7.410
 4193POPC   NC354035  17.881  24.417   5.343
 4193POPC   PO454036  17.496  24.890   5.406
 4193POPC   GL154037  17.799  24.755   5.779
 4193POPC   GL254038  17.785  24.399   5.895
 4193POPC   C1A54039  17.771  24.806   6.277
 4193POPC   D2A54040  17.844  24.805   6.759
 4193POPC   C3A54041  17.547  24.539   7.017
 4193POPC   C4A54042  17.134  24.658   7.185
 4193POPC   C1B54043  17.673  24.123   6.262
 4193POPC   C2B54044  17.528  24.070   6.715
 4193POPC   C3B54045  17.677  24.031   7.147
 4193POPC   C4B54046  17.866  24.247   7.503
 4194POPC   NC354047  29.270  37.913   5.418
 4194POPC   PO454048  28.922  37.384   5.605
 4194POPC   GL154049  29.144  37.702   5.870
 4194POPC   GL254050  29.057  38.083   5.869
 4194POPC   C1A54051  29.217  37.758   6.289
 4194POPC   D2A54052  29.386  37.607   6.658
 4194POPC   C3A54053  29.149  37.479   7.019
 4194POPC   C4A54054  29.313  37.510   7.418
 4194POPC   C1B54055  28.991  38.233   6.301
 4194POPC   C2B54056  29.010  38.001   6.709
 4194POPC   C3B54057  29.085  37.971   7.157
 4194POPC   C4B54058  29.132  37.987   7.606
 4195POPC   NC354059  40.344   7.478   5.460
 4195POPC   PO454060  39.783   7.711   5.487
 4195POPC   GL154061  39.909   7.597   5.871
 4195POPC   GL254062  39.981   7.266   5.797
 4195POPC   C1A54063  40.005   7.536   6.294
 4195POPC   D2A54064  40.119   7.367   6.685
 4195POPC   C3A54065  39.966   7.514   7.071
 4195POPC   C4A54066  39.923   7.754   7.468
 4195POPC   C1B54067  39.806   7.081   6.166
 4195POPC   C2B54068  39.655   7.150   6.549
 4195POPC   C3B54069  39.650   7.010   6.943
 4195POPC   C4B54070  39.664   7.187   7.312
 4196POPC   NC354071  29.433  44.591   5.513
 4196POPC   PO454072  28.782  44.858   5.428
 4196POPC   GL154073  29.104  44.912   5.770
 4196POPC   GL254074  29.487   0.008   5.827
 4196POPC   C1A54075  29.148  44.744   6.195
 4196POPC   D2A54076  28.982  44.634   6.606
 4196POPC   C3A54077  29.264  44.542   6.943
 4196POPC   C4A54078  29.026  44.391   7.279
 4196POPC   C1B54079  29.451   0.150   6.268
 4196POPC   C2B54080  29.437   0.015   6.724
 4196POPC   C3B54081  29.136   0.014   7.086
 4196POPC   C4B54082  29.089   0.066   7.565
 4197POPC   NC354083   8.110  16.962   5.113
 4197POPC   PO454084   8.174  16.490   5.566
 4197POPC   GL154085   8.209  16.703   5.915
 4197POPC   GL254086   8.354  17.019   5.803
 4197POPC   C1A54087   7.998  16.767   6.310
 4197POPC   D2A54088   8.165  16.620   6.704
 4197POPC   C3A54089   7.974  16.826   7.008
 4197POPC   C4A54090   7.842  16.697   7.368
 4197POPC   C1B54091   8.442  17.007   6.239
 4197POPC   C2B54092   8.611  16.829   6.588
 4197POPC   C3B54093   8.517  16.893   7.005
 4197POPC   C4B54094   8.322  16.946   7.375
 4198POPC   NC354095  11.782  15.284   5.101
 4198POPC   PO454096  11.203  15.272   5.517
 4198POPC   GL154097  11.319  14.958   5.818
 4198POPC   GL254098  11.284  15.240   6.029
 4198POPC   C1A54099  11.513  14.859   6.245
 4198POPC   D2A54100  11.442  15.139   6.609
 4198POPC   C3A54101  11.424  14.995   7.040
 4198POPC   C4A54102  11.493  15.187   7.468
 4198POPC   C1B54103  11.275  15.563   6.334
 4198POPC   C2B54104  11.298  15.677   6.740
 4198POPC   C3B54105  11.310  15.524   7.127
 4198POPC   C4B54106  11.139  15.614   7.534
 4199POPC   NC354107  29.267  12.393   5.525
 4199POPC   PO454108  29.407  11.723   5.571
 4199POPC   GL154109  29.145  12.007   5.907
 4199POPC   GL254110  28.907  12.303   5.883
 4199POPC   C1A54111  29.160  12.167   6.351
 4199POPC   D2A54112  29.393  12.312   6.727
 4199POPC   C3A54113  29.200  12.172   7.117
 4199POPC   C4A54114  29.064  12.033   7.523
 4199POPC   C1B54115  28.747  12.439   6.309
 4199POPC   C2B54116  28.747  12.384   6.827
 4199POPC   C3B54117  28.771  12.408   7.307
 4199POPC   C4B54118  28.775  12.376   7.790
 4200POPC   NC354119  30.632  44.689   5.260
 4200POPC   PO454120  31.270  44.510   5.175
 4200POPC   GL154121  31.035  44.584   5.584
 4200POPC   GL254122  30.894  44.913   5.635
 4200POPC   C1A54123  30.909  44.476   6.048
 4200POPC   D2A54124  30.816  44.636   6.484
 4200POPC   C3A54125  30.870  44.498   6.931
 4200POPC   C4A54126  30.607  44.295   7.233
 4200POPC   C1B54127  30.829  44.994   6.064
 4200POPC   C2B54128  30.753   0.134   6.478
 4200POPC   C3B54129  30.571  44.939   6.857
 4200POPC   C4B54130  30.781  44.941   7.254
 4201POPC   NC354131  16.410  39.460   5.392
 4201POPC   PO454132  15.819  39.258   5.380
 4201POPC   GL154133  15.791  39.252   5.824
 4201POPC   GL254134  16.154  39.341   5.820
 4201POPC   C1A54135  15.628  39.256   6.264
 4201POPC   D2A54136  15.820  39.330   6.657
 4201POPC   C3A54137  15.643  39.418   7.035
 4201POPC   C4A54138  15.644  39.034   7.234
 4201POPC   C1B54139  16.155  39.241   6.251
 4201POPC   C2B54140  16.310  39.204   6.657
 4201POPC   C3B54141  16.123  39.197   7.067
 4201POPC   C4B54142  16.430  39.075   7.304
 4202POPC   NC354143  31.519  44.925   5.076
 4202POPC   PO454144  31.468   0.623   5.193
 4202POPC   GL154145  31.398   0.587   5.714
 4202POPC   GL254146  31.085   0.363   5.816
 4202POPC   C1A54147  31.480   0.350   6.137
 4202POPC   D2A54148  31.631   0.232   6.571
 4202POPC   C3A54149  31.505   0.435   6.979
 4202POPC   C4A54150  31.535   0.254   7.441
 4202POPC   C1B54151  30.987   0.541   6.168
 4202POPC   C2B54152  31.158   0.443   6.555
 4202POPC   C3B54153  31.085   0.156   6.875
 4202POPC   C4B54154  31.092   0.354   7.263
 4203POPC   NC354155  26.245  40.641   5.436
 4203POPC   PO454156  25.632  40.803   5.579
 4203POPC   GL154157  26.008  40.854   5.854
 4203POPC   GL254158  26.385  40.974   5.795
 4203POPC   C1A54159  25.892  40.709   6.260
 4203POPC   D2A54160  25.771  40.530   6.660
 4203POPC   C3A54161  25.836  40.762   7.007
 4203POPC   C4A54162  26.129  40.532   7.239
 4203POPC   C1B54163  26.399  40.764   6.209
 4203POPC   C2B54164  26.237  40.780   6.639
 4203POPC   C3B54165  26.314  40.943   7.033
 4203POPC   C4B54166  26.033  41.125   7.318
 4204POPC   NC354167  23.677  30.163   5.358
 4204POPC   PO454168  23.272  30.657   5.564
 4204POPC   GL154169  23.677  30.785   5.768
 4204POPC   GL254170  23.927  30.496   5.805
 4204POPC   C1A54171  23.864  30.860   6.182
 4204POPC   D2A54172  23.720  30.720   6.573
 4204POPC   C3A54173  23.665  30.929   6.959
 4204POPC   C4A54174  23.962  30.832   7.322
 4204POPC   C1B54175  23.721  30.354   6.204
 4204POPC   C2B54176  23.755  30.214   6.670
 4204POPC   C3B54177  23.853  30.458   6.993
 4204POPC   C4B54178  23.619  30.437   7.374
 4205POPC   NC354179  28.517  10.826   5.211
 4205POPC   PO454180  28.281  11.499   5.253
 4205POPC   GL154181  28.277  11.533   5.698
 4205POPC   GL254182  28.037  11.785   5.761
 4205POPC   C1A54183  28.500  11.405   6.120
 4205POPC   D2A54184  28.383  11.242   6.549
 4205POPC   C3A54185  28.527  11.462   6.922
 4205POPC   C4A54186  28.475  11.192   7.241
 4205POPC   C1B54187  28.104  11.710   6.176
 4205POPC   C2B54188  28.325  11.745   6.508
 4205POPC   C3B54189  28.062  11.642   6.840
 4205POPC   C4B54190  28.110  11.560   7.269
 4206POPC   NC354191  41.918  18.929   5.444
 4206POPC   PO454192  42.465  19.356   5.274
 4206POPC   GL154193  42.314  19.169   5.678
 4206POPC   GL254194  42.397  18.846   5.654
 4206POPC   C1A54195  42.129  18.958   6.084
 4206POPC   D2A54196  42.002  18.904   6.526
 4206POPC   C3A54197  42.110  19.217   6.849
 4206POPC   C4A54198  42.201  19.234   7.298
 4206POPC   C1B54199  42.631  18.887   6.043
 4206POPC   C2B54200  42.512  18.941   6.503
 4206POPC   C3B54201  42.428  18.845   6.960
 4206POPC   C4B54202  42.720  19.064   7.220
 4207POPC   NC354203  31.207  40.934   5.502
 4207POPC   PO454204  31.874  40.939   5.626
 4207POPC   GL154205  31.522  40.984   5.901
 4207POPC   GL254206  31.448  40.625   5.868
 4207POPC   C1A54207  31.217  40.863   6.243
 4207POPC   D2A54208  31.339  40.677   6.658
 4207POPC   C3A54209  31.438  40.928   7.023
 4207POPC   C4A54210  31.686  41.179   7.259
 4207POPC   C1B54211  31.698  40.629   6.248
 4207POPC   C2B54212  31.804  40.386   6.611
 4207POPC   C3B54213  31.707  40.484   7.010
 4207POPC   C4B54214  31.500  40.539   7.375
 4208POPC   NC354215   5.245  14.335   5.428
 4208POPC   PO454216   4.596  14.189   5.467
 4208POPC   GL154217   4.903  14.245   5.795
 4208POPC   GL254218   4.970  14.565   5.814
 4208POPC   C1A54219   5.084  14.280   6.243
 4208POPC   D2A54220   4.894  14.466   6.594
 4208POPC   C3A54221   5.099  14.416   6.975
 4208POPC   C4A54222   4.856  14.453   7.351
 4208POPC   C1B54223   5.294  14.734   6.124
 4208POPC   C2B54224   5.382  14.620   6.559
 4208POPC   C3B54225   5.437  14.821   6.951
 4208POPC   C4B54226   5.307  14.707   7.341
 4209POPC   NC354227  11.905   2.213   5.396
 4209POPC   PO454228  11.867   1.502   5.510
 4209POPC   GL154229  11.860   1.879   5.792
 4209POPC   GL254230  12.198   2.037   5.785
 4209POPC   C1A54231  11.883   2.117   6.173
 4209POPC   D2A54232  11.791   1.968   6.558
 4209POPC   C3A54233  12.091   1.929   6.851
 4209POPC   C4A54234  11.936   1.978   7.263
 4209POPC   C1B54235  12.362   2.307   6.141
 4209POPC   C2B54236  12.309   2.334   6.597
 4209POPC   C3B54237  12.191   2.379   7.046
 4209POPC   C4B54238  12.089   2.492   7.471
 4210POPC   NC354239  27.865  18.937   5.361
 4210POPC   PO454240  27.383  19.392   5.259
 4210POPC   GL154241  27.415  19.105   5.668
 4210POPC   GL254242  27.765  19.041   5.850
 4210POPC   C1A54243  27.329  19.008   6.135
 4210POPC   D2A54244  27.587  19.013   6.533
 4210POPC   C3A54245  27.353  19.098   6.921
 4210POPC   C4A54246  27.074  18.989   7.239
 4210POPC   C1B54247  28.049  18.981   6.218
 4210POPC   C2B54248  28.078  18.877   6.646
 4210POPC   C3B54249  28.148  18.794   7.058
 4210POPC   C4B54250  27.985  19.105   7.318
 4211POPC   NC354251   7.199  36.496   5.639
 4211POPC   PO454252   7.152  35.869   5.523
 4211POPC   GL154253   7.352  36.027   5.884
 4211POPC   GL254254   7.713  36.165   5.877
 4211POPC   C1A54255   7.468  35.852   6.279
 4211POPC   D2A54256   7.697  35.882   6.690
 4211POPC   C3A54257   7.366  35.821   6.982
 4211POPC   C4A54258   7.105  36.109   7.197
 4211POPC   C1B54259   7.712  36.310   6.340
 4211POPC   C2B54260   7.518  36.360   6.760
 4211POPC   C3B54261   7.621  36.221   7.162
 4211POPC   C4B54262   7.516  36.374   7.560
 4212POPC   NC354263  33.285  24.096   5.522
 4212POPC   PO454264  32.771  23.688   5.595
 4212POPC   GL154265  33.095  23.711   5.945
 4212POPC   GL254266  33.319  23.415   6.005
 4212POPC   C1A54267  33.108  23.703   6.396
 4212POPC   D2A54268  32.877  23.787   6.770
 4212POPC   C3A54269  33.135  24.063   6.967
 4212POPC   C4A54270  33.284  24.042   7.346
 4212POPC   C1B54271  33.359  23.180   6.357
 4212POPC   C2B54272  33.227  23.320   6.757
 4212POPC   C3B54273  33.231  23.580   7.134
 4212POPC   C4B54274  33.162  23.586   7.615
 4213POPC   NC354275  33.918  24.350   5.473
 4213POPC   PO454276  33.582  24.887   5.641
 4213POPC   GL154277  33.776  24.605   5.893
 4213POPC   GL254278  33.630  24.277   5.902
 4213POPC   C1A54279  33.832  24.594   6.308
 4213POPC   D2A54280  33.570  24.445   6.657
 4213POPC   C3A54281  33.635  24.589   7.089
 4213POPC   C4A54282  33.566  24.426   7.514
 4213POPC   C1B54283  33.758  24.096   6.303
 4213POPC   C2B54284  33.948  24.082   6.739
 4213POPC   C3B54285  33.792  24.095   7.192
 4213POPC   C4B54286  33.902  24.052   7.680
 4214POPC   NC354287  13.908  13.656   5.464
 4214POPC   PO454288  13.255  13.886   5.434
 4214POPC   GL154289  13.543  13.752   5.826
 4214POPC   GL254290  13.730  13.412   5.895
 4214POPC   C1A54291  13.694  13.801   6.267
 4214POPC   D2A54292  13.762  14.006   6.690
 4214POPC   C3A54293  13.417  13.974   6.980
 4214POPC   C4A54294  13.369  13.676   7.309
 4214POPC   C1B54295  14.078  13.368   6.212
 4214POPC   C2B54296  14.137  13.297   6.643
 4214POPC   C3B54297  13.849  13.475   6.920
 4214POPC   C4B54298  13.860  13.786   7.207
 4215POPC   NC354299  26.821  38.259   5.444
 4215POPC   PO454300  26.980  38.960   5.521
 4215POPC   GL154301  26.862  38.618   5.805
 4215POPC   GL254302  26.553  38.389   5.836
 4215POPC   C1A54303  26.859  38.536   6.220
 4215POPC   D2A54304  27.124  38.560   6.558
 4215POPC   C3A54305  26.927  38.771   6.879
 4215POPC   C4A54306  26.650  38.761   7.252
 4215POPC   C1B54307  26.518  38.174   6.237
 4215POPC   C2B54308  26.674  38.287   6.649
 4215POPC   C3B54309  26.759  38.288   7.072
 4215POPC   C4B54310  26.613  38.270   7.477
 4216POPC   NC354311  26.341  21.715   5.126
 4216POPC   PO454312  25.829  21.583   5.574
 4216POPC   GL154313  25.927  21.422   5.958
 4216POPC   GL254314  25.929  21.070   5.903
 4216POPC   C1A54315  26.136  21.582   6.369
 4216POPC   D2A54316  26.293  21.742   6.768
 4216POPC   C3A54317  26.099  21.599   7.153
 4216POPC   C4A54318  26.369  21.628   7.523
 4216POPC   C1B54319  26.083  21.083   6.297
 4216POPC   C2B54320  25.941  21.154   6.693
 4216POPC   C3B54321  26.110  20.968   7.046
 4216POPC   C4B54322  26.210  21.146   7.437
 4217POPC   NC354323  24.163  32.545   5.680
 4217POPC   PO454324  24.620  33.075   5.516
 4217POPC   GL154325  24.479  32.962   5.887
 4217POPC   GL254326  24.736  32.696   5.901
 4217POPC   C1A54327  24.639  33.001   6.287
 4217POPC   D2A54328  24.699  32.830   6.681
 4217POPC   C3A54329  24.567  33.148   6.957
 4217POPC   C4A54330  24.660  33.198   7.401
 4217POPC   C1B54331  24.467  32.524   6.238
 4217POPC   C2B54332  24.174  32.752   6.474
 4217POPC   C3B54333  24.230  32.715   6.891
 4217POPC   C4B54334  24.123  32.592   7.298
 4218POPC   NC354335   4.868  12.806   5.476
 4218POPC   PO454336   5.457  13.149   5.585
 4218POPC   GL154337   5.183  12.911   5.872
 4218POPC   GL254338   5.359  12.623   5.835
 4218POPC   C1A54339   4.895  12.872   6.266
 4218POPC   D2A54340   4.882  13.050   6.681
 4218POPC   C3A54341   5.133  12.954   7.004
 4218POPC   C4A54342   5.063  12.999   7.425
 4218POPC   C1B54343   5.243  12.501   6.254
 4218POPC   C2B54344   5.066  12.542   6.656
 4218POPC   C3B54345   4.795  12.580   6.977
 4218POPC   C4B54346   4.965  12.516   7.352
 4219POPC   NC354347  10.898  15.405   5.156
 4219POPC   PO454348  10.406  14.909   5.242
 4219POPC   GL154349  10.496  14.829   5.703
 4219POPC   GL254350  10.790  15.052   5.750
 4219POPC   C1A54351  10.401  14.977   6.149
 4219POPC   D2A54352  10.449  15.199   6.581
 4219POPC   C3A54353  10.449  15.117   7.044
 4219POPC   C4A54354  10.161  15.408   7.283
 4219POPC   C1B54355  10.797  15.308   6.130
 4219POPC   C2B54356  10.952  15.208   6.522
 4219POPC   C3B54357  10.889  15.354   6.918
 4219POPC   C4B54358  11.003  15.157   7.283
 4220POPC   NC354359   8.599  18.217   5.638
 4220POPC   PO454360   8.138  18.531   5.339
 4220POPC   GL154361   7.962  18.359   5.723
 4220POPC   GL254362   8.092  18.011   5.797
 4220POPC   C1A54363   8.140  18.400   6.155
 4220POPC   D2A54364   8.381  18.323   6.555
 4220POPC   C3A54365   8.170  18.314   6.972
 4220POPC   C4A54366   7.905  18.604   7.232
 4220POPC   C1B54367   8.327  17.934   6.210
 4220POPC   C2B54368   8.165  17.871   6.657
 4220POPC   C3B54369   8.273  17.824   7.121
 4220POPC   C4B54370   8.235  17.939   7.570
 4221POPC   NC354371  10.332  40.292   5.414
 4221POPC   PO454372  10.685  39.760   5.417
 4221POPC   GL154373  10.404  39.878   5.721
 4221POPC   GL254374  10.605  40.134   5.822
 4221POPC   C1A54375  10.300  39.731   6.138
 4221POPC   D2A54376  10.478  39.832   6.543
 4221POPC   C3A54377  10.309  39.776   6.948
 4221POPC   C4A54378  10.558  39.941   7.295
 4221POPC   C1B54379  10.507  40.259   6.221
 4221POPC   C2B54380  10.223  40.281   6.562
 4221POPC   C3B54381  10.386  40.288   6.939
 4221POPC   C4B54382  10.707  40.474   7.163
 4222POPC   NC354383   4.743  41.090   5.639
 4222POPC   PO454384   5.158  40.509   5.729
 4222POPC   GL154385   4.966  40.793   6.023
 4222POPC   GL254386   5.188  41.040   5.919
 4222POPC   C1A54387   5.026  40.758   6.475
 4222POPC   D2A54388   5.242  40.509   6.810
 4222POPC   C3A54389   5.040  40.490   7.230
 4222POPC   C4A54390   4.849  40.815   7.472
 4222POPC   C1B54391   5.217  41.225   6.329
 4222POPC   C2B54392   5.290  41.109   6.762
 4222POPC   C3B54393   4.993  41.167   7.100
 4222POPC   C4B54394   4.925  41.539   7.357
 4223POPC   NC354395  31.281  28.856   5.167
 4223POPC   PO454396  31.521  29.397   5.443
 4223POPC   GL154397  31.362  29.358   5.846
 4223POPC   GL254398  31.128  29.077   5.857
 4223POPC   C1A54399  31.545  29.375   6.266
 4223POPC   D2A54400  31.631  29.111   6.627
 4223POPC   C3A54401  31.521  29.215   7.049
 4223POPC   C4A54402  31.717  29.511   7.301
 4223POPC   C1B54403  31.148  28.919   6.296
 4223POPC   C2B54404  31.194  28.911   6.752
 4223POPC   C3B54405  31.053  29.003   7.129
 4223POPC   C4B54406  31.175  28.880   7.506
 4224POPC   NC354407  26.415   7.293   5.543
 4224POPC   PO454408  27.034   7.472   5.466
 4224POPC   GL154409  26.848   7.217   5.804
 4224POPC   GL254410  26.706   7.486   5.944
 4224POPC   C1A54411  26.699   7.080   6.235
 4224POPC   D2A54412  26.690   7.300   6.651
 4224POPC   C3A54413  26.795   7.121   7.070
 4224POPC   C4A54414  26.696   7.198   7.538
 4224POPC   C1B54415  27.013   7.559   6.251
 4224POPC   C2B54416  27.071   7.771   6.624
 4224POPC   C3B54417  26.703   7.786   6.887
 4224POPC   C4B54418  26.693   7.624   7.260
 4225POPC   NC354419  36.227  27.183   5.585
 4225POPC   PO454420  35.935  26.595   5.495
 4225POPC   GL154421  36.008  26.766   5.853
 4225POPC   GL254422  36.310  26.700   5.859
 4225POPC   C1A54423  36.100  26.993   6.225
 4225POPC   D2A54424  36.067  27.124   6.603
 4225POPC   C3A54425  36.019  26.851   6.916
 4225POPC   C4A54426  36.135  27.192   7.174
 4225POPC   C1B54427  36.540  26.722   6.221
 4225POPC   C2B54428  36.556  26.899   6.613
 4225POPC   C3B54429  36.519  26.852   7.028
 4225POPC   C4B54430  36.447  26.897   7.439
 4226POPC   NC354431  36.079  13.787   5.352
 4226POPC   PO454432  36.182  13.207   5.693
 4226POPC   GL154433  36.123  13.630   5.844
 4226POPC   GL254434  35.937  13.525   6.140
 4226POPC   C1A54435  36.157  13.978   6.149
 4226POPC   D2A54436  35.949  13.892   6.537
 4226POPC   C3A54437  36.132  13.966   6.922
 4226POPC   C4A54438  36.054  13.685   7.255
 4226POPC   C1B54439  36.304  13.539   6.442
 4226POPC   C2B54440  36.425  13.562   6.903
 4226POPC   C3B54441  36.373  13.293   7.310
 4226POPC   C4B54442  36.367  13.145   7.757
 4227POPC   NC354443  29.037  29.196   5.155
 4227POPC   PO454444  29.417  28.842   5.555
 4227POPC   GL154445  29.289  28.994   5.975
 4227POPC   GL254446  29.604  29.085   6.103
 4227POPC   C1A54447  29.034  29.304   6.259
 4227POPC   D2A54448  28.847  29.499   6.670
 4227POPC   C3A54449  29.027  29.276   7.061
 4227POPC   C4A54450  28.915  29.089   7.496
 4227POPC   C1B54451  29.518  29.485   6.281
 4227POPC   C2B54452  29.364  29.453   6.696
 4227POPC   C3B54453  29.556  29.252   7.041
 4227POPC   C4B54454  29.463  28.996   7.361
 4228POPC   NC354455   4.176  31.036   5.195
 4228POPC   PO454456   4.322  30.324   5.414
 4228POPC   GL154457   4.214  30.614   5.780
 4228POPC   GL254458   4.050  30.972   5.718
 4228POPC   C1A54459   4.087  30.725   6.208
 4228POPC   D2A54460   4.259  30.627   6.604
 4228POPC   C3A54461   4.129  30.856   6.940
 4228POPC   C4A54462   4.107  30.575   7.260
 4228POPC   C1B54463   4.414  31.059   6.020
 4228POPC   C2B54464   4.487  31.131   6.473
 4228POPC   C3B54465   4.590  31.193   6.916
 4228POPC   C4B54466   4.432  31.079   7.336
 4229POPC   NC354467  28.827  43.783   5.541
 4229POPC   PO454468  29.457  44.127   5.532
 4229POPC   GL154469  29.264  43.868   5.921
 4229POPC   GL254470  28.925  43.688   6.006
 4229POPC   C1A54471  29.034  44.058   6.334
 4229POPC   D2A54472  28.952  44.146   6.789
 4229POPC   C3A54473  29.298  44.034   7.056
 4229POPC   C4A54474  29.591  43.736   7.139
 4229POPC   C1B54475  29.041  43.545   6.374
 4229POPC   C2B54476  29.221  43.608   6.748
 4229POPC   C3B54477  29.010  43.620   7.094
 4229POPC   C4B54478  28.788  43.936   7.253
 4230POPC   NC354479  10.463  21.772   5.326
 4230POPC   PO454480  10.520  22.425   5.432
 4230POPC   GL154481  10.452  22.184   5.794
 4230POPC   GL254482  10.193  21.960   5.736
 4230POPC   C1A54483  10.638  22.028   6.160
 4230POPC   D2A54484  10.588  21.766   6.503
 4230POPC   C3A54485  10.633  22.041   6.816
 4230POPC   C4A54486  10.691  22.104   7.227
 4230POPC   C1B54487  10.140  21.890   6.184
 4230POPC   C2B54488  10.177  22.115   6.591
 4230POPC   C3B54489  10.208  22.179   7.060
 4230POPC   C4B54490  10.288  22.305   7.531
 4231POPC   NC354491  34.385   7.276   5.471
 4231POPC   PO454492  34.406   8.005   5.327
 4231POPC   GL154493  34.353   7.820   5.810
 4231POPC   GL254494  34.689   7.698   6.036
 4231POPC   C1A54495  34.148   7.577   6.168
 4231POPC   D2A54496  34.186   7.245   6.505
 4231POPC   C3A54497  34.212   7.400   6.944
 4231POPC   C4A54498  34.582   7.395   7.210
 4231POPC   C1B54499  34.980   7.534   6.398
 4231POPC   C2B54500  34.974   7.371   6.862
 4231POPC   C3B54501  34.981   7.070   7.258
 4231POPC   C4B54502  35.195   6.957   7.701
 4232POPC   NC354503  35.639   3.338   5.428
 4232POPC   PO454504  35.147   3.781   5.508
 4232POPC   GL154505  35.287   3.637   5.876
 4232POPC   GL254506  35.434   3.302   5.887
 4232POPC   C1A54507  35.219   3.650   6.314
 4232POPC   D2A54508  35.342   3.473   6.689
 4232POPC   C3A54509  35.215   3.597   7.115
 4232POPC   C4A54510  35.345   3.694   7.550
 4232POPC   C1B54511  35.439   3.127   6.283
 4232POPC   C2B54512  35.215   2.968   6.632
 4232POPC   C3B54513  35.319   3.108   7.060
 4232POPC   C4B54514  35.169   3.213   7.495
 4233POPC   NC354515   4.752  23.115   5.614
 4233POPC   PO454516   5.133  23.631   5.363
 4233POPC   GL154517   5.216  23.730   5.812
 4233POPC   GL254518   4.946  23.509   5.906
 4233POPC   C1A54519   5.169  23.887   6.270
 4233POPC   D2A54520   5.254  24.182   6.627
 4233POPC   C3A54521   5.122  24.080   7.036
 4233POPC   C4A54522   4.727  23.943   7.143
 4233POPC   C1B54523   4.851  23.474   6.347
 4233POPC   C2B54524   4.908  23.706   6.721
 4233POPC   C3B54525   5.148  23.592   7.072
 4233POPC   C4B54526   5.579  23.587   7.231
 4234POPC   NC354527  16.129  31.509   5.365
 4234POPC   PO454528  15.557  31.250   5.674
 4234POPC   GL154529  15.822  31.462   5.896
 4234POPC   GL254530  15.564  31.559   6.075
 4234POPC   C1A54531  16.034  31.468   6.307
 4234POPC   D2A54532  16.102  31.739   6.654
 4234POPC   C3A54533  15.885  31.553   7.001
 4234POPC   C4A54534  16.048  31.191   7.199
 4234POPC   C1B54535  15.626  31.168   6.340
 4234POPC   C2B54536  15.743  31.116   6.767
 4234POPC   C3B54537  15.547  31.177   7.177
 4234POPC   C4B54538  15.693  31.151   7.645
 4235POPC   NC354539   9.550  13.706   5.320
 4235POPC   PO454540  10.002  13.293   5.261
 4235POPC   GL154541   9.651  13.383   5.675
 4235POPC   GL254542   9.675  13.735   5.832
 4235POPC   C1A54543   9.558  13.328   6.138
 4235POPC   D2A54544   9.701  13.359   6.586
 4235POPC   C3A54545   9.864  13.639   6.925
 4235POPC   C4A54546   9.963  13.618   7.360
 4235POPC   C1B54547   9.660  13.980   6.238
 4235POPC   C2B54548   9.736  14.083   6.679
 4235POPC   C3B54549   9.721  14.127   7.135
 4235POPC   C4B54550   9.510  14.175   7.565
 4236POPC   NC354551   7.697   3.004   5.652
 4236POPC   PO454552   7.908   2.451   5.280
 4236POPC   GL154553   8.012   2.595   5.678
 4236POPC   GL254554   8.294   2.809   5.746
 4236POPC   C1A54555   8.049   2.563   6.111
 4236POPC   D2A54556   8.051   2.707   6.524
 4236POPC   C3A54557   8.159   2.420   6.850
 4236POPC   C4A54558   8.233   2.453   7.307
 4236POPC   C1B54559   8.130   3.066   6.141
 4236POPC   C2B54560   8.130   3.226   6.554
 4236POPC   C3B54561   8.113   3.000   6.961
 4236POPC   C4B54562   7.956   2.913   7.395
 4237POPC   NC354563  19.341   5.092   5.565
 4237POPC   PO454564  18.730   4.778   5.449
 4237POPC   GL154565  18.955   4.912   5.852
 4237POPC   GL254566  19.280   4.816   6.017
 4237POPC   C1A54567  18.909   5.041   6.307
 4237POPC   D2A54568  18.855   4.950   6.758
 4237POPC   C3A54569  19.005   5.211   7.123
 4237POPC   C4A54570  18.877   5.176   7.588
 4237POPC   C1B54571  19.536   5.025   6.304
 4237POPC   C2B54572  19.318   5.222   6.652
 4237POPC   C3B54573  19.481   5.375   7.035
 4237POPC   C4B54574  19.360   5.304   7.472
 4238POPC   NC354575  36.344   7.160   5.421
 4238POPC   PO454576  35.688   7.230   5.286
 4238POPC   GL154577  35.835   7.356   5.727
 4238POPC   GL254578  36.196   7.365   5.855
 4238POPC   C1A54579  35.833   7.287   6.186
 4238POPC   D2A54580  35.944   7.452   6.560
 4238POPC   C3A54581  35.969   7.265   6.939
 4238POPC   C4A54582  35.881   7.411   7.341
 4238POPC   C1B54583  36.361   7.539   6.269
 4238POPC   C2B54584  36.433   7.500   6.745
 4238POPC   C3B54585  36.376   7.564   7.220
 4238POPC   C4B54586  36.430   7.416   7.667
 4239POPC   NC354587   1.318  27.831   5.349
 4239POPC   PO454588   0.986  27.292   5.383
 4239POPC   GL154589   1.125  27.545   5.756
 4239POPC   GL254590   1.439  27.648   5.837
 4239POPC   C1A54591   1.129  27.564   6.220
 4239POPC   D2A54592   0.926  27.716   6.578
 4239POPC   C3A54593   1.017  27.405   6.875
 4239POPC   C4A54594   1.198  27.513   7.266
 4239POPC   C1B54595   1.652  27.696   6.232
 4239POPC   C2B54596   1.494  27.587   6.658
 4239POPC   C3B54597   1.597  27.778   7.063
 4239POPC   C4B54598   1.507  27.895   7.495
 4240POPC   NC354599  26.779  16.641   5.442
 4240POPC   PO454600  27.214  16.154   5.646
 4240POPC   GL154601  27.036  16.557   5.895
 4240POPC   GL254602  26.664  16.636   5.975
 4240POPC   C1A54603  26.971  16.740   6.353
 4240POPC   D2A54604  26.840  16.560   6.733
 4240POPC   C3A54605  27.010  16.644   7.129
 4240POPC   C4A54606  26.983  16.861   7.520
 4240POPC   C1B54607  26.562  17.031   6.282
 4240POPC   C2B54608  26.645  17.226   6.689
 4240POPC   C3B54609  26.606  16.953   7.048
 4240POPC   C4B54610  26.438  16.509   7.064
 4241POPC   NC354611  28.114  36.485   5.153
 4241POPC   PO454612  28.432  36.960   5.443
 4241POPC   GL154613  28.302  36.716   5.786
 4241POPC   GL254614  28.202  37.009   5.968
 4241POPC   C1A54615  28.506  36.610   6.202
 4241POPC   D2A54616  28.511  36.857   6.578
 4241POPC   C3A54617  28.485  36.813   7.021
 4241POPC   C4A54618  28.647  37.207   7.189
 4241POPC   C1B54619  27.994  36.651   6.232
 4241POPC   C2B54620  28.090  36.575   6.689
 4241POPC   C3B54621  28.010  36.977   6.903
 4241POPC   C4B54622  28.129  37.184   7.293
 4242POPC   NC354623   6.888   3.471   5.299
 4242POPC   PO454624   7.565   3.386   5.365
 4242POPC   GL154625   7.435   3.531   5.759
 4242POPC   GL254626   7.739   3.640   5.847
 4242POPC   C1A54627   7.301   3.756   6.132
 4242POPC   D2A54628   7.190   3.553   6.498
 4242POPC   C3A54629   7.292   3.565   6.921
 4242POPC   C4A54630   7.296   3.633   7.356
 4242POPC   C1B54631   7.690   3.412   6.261
 4242POPC   C2B54632   7.748   3.537   6.697
 4242POPC   C3B54633   7.753   3.677   7.136
 4242POPC   C4B54634   7.680   3.859   7.588
 4243POPC   NC354635  43.236  24.378   5.488
 4243POPC   PO454636  43.582  24.996   5.456
 4243POPC   GL154637  43.302  24.712   5.846
 4243POPC   GL254638  42.917  24.571   5.850
 4243POPC   C1A54639  43.167  24.564   6.288
 4243POPC   D2A54640  43.139  24.229   6.608
 4243POPC   C3A54641  43.277  24.435   6.975
 4243POPC   C4A54642  43.122  24.707   7.247
 4243POPC   C1B54643  42.757  24.223   6.156
 4243POPC   C2B54644  42.626  24.120   6.597
 4243POPC   C3B54645  42.798  24.227   7.020
 4243POPC   C4B54646  43.026  24.246   7.403
 4244POPC   NC354647  42.863  34.031   5.421
 4244POPC   PO454648  43.275  33.574   5.354
 4244POPC   GL154649  43.071  33.680   5.746
 4244POPC   GL254650  42.883  33.983   5.924
 4244POPC   C1A54651  42.975  33.513   6.135
 4244POPC   D2A54652  43.233  33.626   6.483
 4244POPC   C3A54653  43.151  33.934   6.796
 4244POPC   C4A54654  43.098  33.743   7.203
 4244POPC   C1B54655  42.814  33.939   6.392
 4244POPC   C2B54656  42.711  33.673   6.796
 4244POPC   C3B54657  42.605  33.879   7.230
 4244POPC   C4B54658  42.878  34.008   7.600
 4245POPC   NC354659  14.850   8.396   5.239
 4245POPC   PO454660  15.480   8.145   5.305
 4245POPC   GL154661  15.244   8.008   5.691
 4245POPC   GL254662  15.534   7.858   5.878
 4245POPC   C1A54663  15.053   8.063   6.102
 4245POPC   D2A54664  14.992   7.992   6.548
 4245POPC   C3A54665  14.940   8.377   6.804
 4245POPC   C4A54666  15.046   8.279   7.178
 4245POPC   C1B54667  15.546   8.243   6.091
 4245POPC   C2B54668  15.323   8.377   6.456
 4245POPC   C3B54669  15.452   8.239   6.880
 4245POPC   C4B54670  15.526   8.393   7.322
 4246POPC   NC354671  36.426  21.406   5.371
 4246POPC   PO454672  35.697  21.291   5.460
 4246POPC   GL154673  35.832  21.446   5.857
 4246POPC   GL254674  36.178  21.494   5.801
 4246POPC   C1A54675  36.043  21.271   6.239
 4246POPC   D2A54676  36.302  21.239   6.608
 4246POPC   C3A54677  36.037  21.231   6.997
 4246POPC   C4A54678  35.908  21.147   7.442
 4246POPC   C1B54679  36.464  21.571   6.147
 4246POPC   C2B54680  36.501  21.711   6.574
 4246POPC   C3B54681  36.421  21.571   6.989
 4246POPC   C4B54682  36.177  21.559   7.369
 4247POPC   NC354683  25.805  39.745   5.373
 4247POPC   PO454684  26.262  40.203   5.266
 4247POPC   GL154685  26.239  40.180   5.734
 4247POPC   GL254686  26.183  39.814   5.847
 4247POPC   C1A54687  26.116  40.241   6.170
 4247POPC   D2A54688  25.930  40.045   6.547
 4247POPC   C3A54689  26.248  39.900   6.818
 4247POPC   C4A54690  26.505  40.232   7.046
 4247POPC   C1B54691  25.840  39.677   6.163
 4247POPC   C2B54692  25.617  39.656   6.599
 4247POPC   C3B54693  25.819  39.697   7.027
 4247POPC   C4B54694  26.079  39.999   7.282
 4248POPC   NC354695  36.085   0.243   5.251
 4248POPC   PO454696  36.537   0.131   5.720
 4248POPC   GL154697  36.145   0.189   5.904
 4248POPC   GL254698  36.029   0.480   5.780
 4248POPC   C1A54699  36.169   0.148   6.350
 4248POPC   D2A54700  36.496   0.405   6.571
 4248POPC   C3A54701  36.383   0.361   6.992
 4248POPC   C4A54702  35.962   0.264   7.161
 4248POPC   C1B54703  36.180   0.630   6.220
 4248POPC   C2B54704  36.052   0.634   6.691
 4248POPC   C3B54705  36.099   0.757   7.122
 4248POPC   C4B54706  36.053   0.678   7.573
 4249POPC   NC354707  23.748  29.845   4.934
 4249POPC   PO454708  24.072  30.056   5.581
 4249POPC   GL154709  23.841  29.919   5.900
 4249POPC   GL254710  23.504  29.771   5.811
 4249POPC   C1A54711  23.894  29.895   6.326
 4249POPC   D2A54712  23.637  29.699   6.635
 4249POPC   C3A54713  23.685  29.809   7.065
 4249POPC   C4A54714  23.953  30.066   7.265
 4249POPC   C1B54715  23.371  29.971   6.223
 4249POPC   C2B54716  23.280  30.315   6.547
 4249POPC   C3B54717  23.342  30.253   6.984
 4249POPC   C4B54718  23.262  30.004   7.349
 4250POPC   NC354719  44.488   2.121   5.198
 4250POPC   PO454720   0.021   1.884   5.351
 4250POPC   GL154721  44.673   1.946   5.691
 4250POPC   GL254722  44.384   2.189   5.745
 4250POPC   C1A54723  44.751   1.975   6.174
 4250POPC   D2A54724  44.907   1.753   6.595
 4250POPC   C3A54725  44.768   1.890   7.022
 4250POPC   C4A54726  44.927   2.212   7.290
 4250POPC   C1B54727  44.310   2.215   6.237
 4250POPC   C2B54728  44.246   2.223   6.712
 4250POPC   C3B54729  44.360   2.210   7.149
 4250POPC   C4B54730  44.505   2.173   7.590
 4251POPC   NC354731  32.207  32.050   5.352
 4251POPC   PO454732  32.744  32.495   5.537
 4251POPC   GL154733  32.387  32.352   5.781
 4251POPC   GL254734  31.995  32.325   5.723
 4251POPC   C1A54735  32.317  32.361   6.214
 4251POPC   D2A54736  32.354  32.485   6.623
 4251POPC   C3A54737  32.548  32.203   6.935
 4251POPC   C4A54738  32.364  32.344   7.278
 4251POPC   C1B54739  31.846  32.217   6.135
 4251POPC   C2B54740  31.846  32.445   6.542
 4251POPC   C3B54741  31.958  32.317   6.958
 4251POPC   C4B54742  31.914  32.049   7.328
 4252POPC   NC354743  43.411  22.515   5.584
 4252POPC   PO454744  42.912  22.076   5.401
 4252POPC   GL154745  43.139  22.080   5.773
 4252POPC   GL254746  42.952  21.816   5.875
 4252POPC   C1A54747  43.107  22.161   6.215
 4252POPC   D2A54748  43.368  22.229   6.527
 4252POPC   C3A54749  43.151  22.291   6.907
 4252POPC   C4A54750  43.363  22.435   7.252
 4252POPC   C1B54751  43.087  21.636   6.248
 4252POPC   C2B54752  43.327  21.702   6.608
 4252POPC   C3B54753  43.172  21.672   6.996
 4252POPC   C4B54754  43.027  21.970   7.288
 4253POPC   NC354755  36.146  14.670   5.356
 4253POPC   PO454756  36.486  14.075   5.302
 4253POPC   GL154757  36.451  14.219   5.707
 4253POPC   GL254758  36.090  14.232   5.677
 4253POPC   C1A54759  36.405  14.442   6.104
 4253POPC   D2A54760  36.415  14.714   6.440
 4253POPC   C3A54761  36.388  14.477   6.795
 4253POPC   C4A54762  36.337  14.430   7.214
 4253POPC   C1B54763  35.910  14.432   6.059
 4253POPC   C2B54764  35.972  14.388   6.508
 4253POPC   C3B54765  35.896  14.408   6.960
 4253POPC   C4B54766  35.738  14.077   7.214
 4254POPC   NC354767  14.635  37.385   5.624
 4254POPC   PO454768  15.256  37.544   5.430
 4254POPC   GL154769  15.178  37.612   5.830
 4254POPC   GL254770  14.954  37.874   5.735
 4254POPC   C1A54771  15.307  37.530   6.251
 4254POPC   D2A54772  15.538  37.654   6.622
 4254POPC   C3A54773  15.274  37.489   6.936
 4254POPC   C4A54774  15.342  37.354   7.322
 4254POPC   C1B54775  14.941  37.932   6.168
 4254POPC   C2B54776  15.013  37.817   6.578
 4254POPC   C3B54777  15.177  37.983   6.922
 4254POPC   C4B54778  15.046  37.784   7.304
 4255POPC   NC354779  27.920  14.710   5.422
 4255POPC   PO454780  27.425  15.215   5.496
 4255POPC   GL154781  27.527  15.098   5.915
 4255POPC   GL254782  27.796  15.349   5.977
 4255POPC   C1A54783  27.456  15.152   6.367
 4255POPC   D2A54784  27.702  15.386   6.672
 4255POPC   C3A54785  27.688  15.234   7.104
 4255POPC   C4A54786  27.482  14.964   7.438
 4255POPC   C1B54787  27.921  15.018   6.268
 4255POPC   C2B54788  27.761  14.872   6.694
 4255POPC   C3B54789  27.839  14.726   7.137
 4255POPC   C4B54790  27.984  14.897   7.552
 4256POPC   NC354791   5.594  19.819   5.465
 4256POPC   PO454792   6.231  19.461   5.622
 4256POPC   GL154793   5.910  19.720   5.856
 4256POPC   GL254794   5.498  19.663   5.928
 4256POPC   C1A54795   6.136  19.871   6.215
 4256POPC   D2A54796   6.295  20.037   6.590
 4256POPC   C3A54797   6.198  19.754   6.878
 4256POPC   C4A54798   6.122  19.606   7.261
 4256POPC   C1B54799   5.621  20.004   6.189
 4256POPC   C2B54800   5.778  19.987   6.603
 4256POPC   C3B54801   5.703  19.825   7.013
 4256POPC   C4B54802   5.695  19.830   7.456
 4257POPC   NC354803  35.473   7.631   5.420
 4257POPC   PO454804  34.783   7.543   5.574
 4257POPC   GL154805  35.136   7.463   5.831
 4257POPC   GL254806  35.192   7.803   5.856
 4257POPC   C1A54807  35.330   7.209   6.184
 4257POPC   D2A54808  35.442   7.401   6.601
 4257POPC   C3A54809  35.444   7.219   7.015
 4257POPC   C4A54810  35.359   7.357   7.444
 4257POPC   C1B54811  35.476   7.701   6.156
 4257POPC   C2B54812  35.572   7.892   6.505
 4257POPC   C3B54813  35.290   7.858   6.833
 4257POPC   C4B54814  35.554   7.716   7.125
 4258POPC   NC354815  39.736  43.400   5.509
 4258POPC   PO454816  39.817  42.755   5.226
 4258POPC   GL154817  39.934  42.917   5.665
 4258POPC   GL254818  40.227  43.142   5.737
 4258POPC   C1A54819  39.838  43.146   6.080
 4258POPC   D2A54820  39.855  43.020   6.489
 4258POPC   C3A54821  39.954  43.301   6.794
 4258POPC   C4A54822  39.786  43.213   7.197
 4258POPC   C1B54823  40.306  43.015   6.202
 4258POPC   C2B54824  40.295  42.795   6.633
 4258POPC   C3B54825  40.273  42.999   7.051
 4258POPC   C4B54826  40.198  43.155   7.472
 4259POPC   NC354827  33.055  29.645   5.417
 4259POPC   PO454828  32.674  29.032   5.268
 4259POPC   GL154829  32.659  29.269   5.650
 4259POPC   GL254830  32.997  29.213   5.765
 4259POPC   C1A54831  32.610  29.206   6.109
 4259POPC   D2A54832  32.892  29.158   6.483
 4259POPC   C3A54833  32.736  29.279   6.901
 4259POPC   C4A54834  32.998  29.198   7.260
 4259POPC   C1B54835  33.289  29.299   6.125
 4259POPC   C2B54836  33.433  29.297   6.554
 4259POPC   C3B54837  33.231  29.480   6.895
 4259POPC   C4B54838  33.363  29.523   7.301
 4260POPC   NC354839  19.538   8.390   5.046
 4260POPC   PO454840  19.948   8.594   5.553
 4260POPC   GL154841  19.836   8.191   5.754
 4260POPC   GL254842  20.145   7.968   5.771
 4260POPC   C1A54843  19.643   8.186   6.166
 4260POPC   D2A54844  19.886   8.105   6.526
 4260POPC   C3A54845  19.821   8.335   6.917
 4260POPC   C4A54846  19.754   8.156   7.329
 4260POPC   C1B54847  20.271   8.094   6.171
 4260POPC   C2B54848  20.384   7.948   6.561
 4260POPC   C3B54849  20.164   7.929   6.911
 4260POPC   C4B54850  20.244   8.019   7.296
 4261POPC   NC354851   5.004  40.132   5.521
 4261POPC   PO454852   4.655  39.588   5.245
 4261POPC   GL154853   4.776  39.727   5.703
 4261POPC   GL254854   5.120  39.830   5.896
 4261POPC   C1A54855   4.681  39.889   6.150
 4261POPC   D2A54856   4.779  39.787   6.605
 4261POPC   C3A54857   4.865  40.020   7.005
 4261POPC   C4A54858   4.913  39.989   7.422
 4261POPC   C1B54859   5.162  40.030   6.296
 4261POPC   C2B54860   5.272  39.967   6.713
 4261POPC   C3B54861   5.368  40.106   7.102
 4261POPC   C4B54862   5.534  40.373   7.417
 4262POPC   NC354863  44.438   5.303   4.973
 4262POPC   PO454864  44.796   5.173   5.546
 4262POPC   GL154865  44.552   5.025   5.864
 4262POPC   GL254866  44.772   5.245   6.074
 4262POPC   C1A54867  44.454   4.866   6.272
 4262POPC   D2A54868  44.615   5.125   6.602
 4262POPC   C3A54869  44.481   5.047   6.987
 4262POPC   C4A54870  44.836   5.138   7.224
 4262POPC   C1B54871  44.377   5.387   6.246
 4262POPC   C2B54872  44.137   5.375   6.625
 4262POPC   C3B54873  44.245   5.513   7.023
 4262POPC   C4B54874  44.623   5.615   7.214
 4263POPC   NC354875  37.903  18.488   5.454
 4263POPC   PO454876  37.453  17.983   5.378
 4263POPC   GL154877  37.530  18.247   5.733
 4263POPC   GL254878  37.889  18.171   5.851
 4263POPC   C1A54879  37.463  18.132   6.145
 4263POPC   D2A54880  37.672  17.972   6.491
 4263POPC   C3A54881  37.381  18.005   6.823
 4263POPC   C4A54882  37.398  18.278   7.183
 4263POPC   C1B54883  37.743  18.528   6.136
 4263POPC   C2B54884  37.623  18.489   6.586
 4263POPC   C3B54885  37.842  18.461   6.992
 4263POPC   C4B54886  37.838  18.625   7.425
 4264POPC   NC354887  22.940  32.414   5.131
 4264POPC   PO454888  22.784  31.766   5.331
 4264POPC   GL154889  22.916  32.043   5.662
 4264POPC   GL254890  22.776  32.376   5.688
 4264POPC   C1A54891  23.077  32.163   6.067
 4264POPC   D2A54892  23.282  32.170   6.451
 4264POPC   C3A54893  23.066  32.251   6.811
 4264POPC   C4A54894  23.196  32.065   7.160
 4264POPC   C1B54895  22.579  32.255   6.108
 4264POPC   C2B54896  22.562  32.464   6.529
 4264POPC   C3B54897  22.772  32.668   6.852
 4264POPC   C4B54898  22.848  32.433   7.233
 4265POPC   NC354899  42.091   5.928   5.561
 4265POPC   PO454900  42.716   5.777   5.369
 4265POPC   GL154901  42.580   5.844   5.824
 4265POPC   GL254902  42.316   5.625   5.949
 4265POPC   C1A54903  42.607   5.856   6.313
 4265POPC   D2A54904  42.403   5.674   6.675
 4265POPC   C3A54905  42.363   5.935   7.043
 4265POPC   C4A54906  42.739   6.147   7.241
 4265POPC   C1B54907  42.090   5.900   6.301
 4265POPC   C2B54908  41.915   5.847   6.717
 4265POPC   C3B54909  42.056   5.518   7.037
 4265POPC   C4B54910  42.058   5.596   7.490
 4266POPC   NC354911  33.986  41.610   5.453
 4266POPC   PO454912  33.366  41.264   5.411
 4266POPC   GL154913  33.615  41.443   5.785
 4266POPC   GL254914  34.005  41.395   5.903
 4266POPC   C1A54915  33.510  41.608   6.182
 4266POPC   D2A54916  33.633  41.560   6.593
 4266POPC   C3A54917  33.758  41.756   6.943
 4266POPC   C4A54918  33.500  41.589   7.261
 4266POPC   C1B54919  34.152  41.691   6.233
 4266POPC   C2B54920  34.179  41.855   6.634
 4266POPC   C3B54921  34.282  41.615   6.956
 4266POPC   C4B54922  34.176  41.516   7.336
 4267POPC   NC354923  41.217  13.963   5.037
 4267POPC   PO454924  40.712  13.930   5.350
 4267POPC   GL154925  40.737  13.688   5.725
 4267POPC   GL254926  40.420  13.528   5.793
 4267POPC   C1A54927  40.820  13.564   6.168
 4267POPC   D2A54928  40.938  13.703   6.588
 4267POPC   C3A54929  40.871  13.446   6.969
 4267POPC   C4A54930  41.057  13.405   7.395
 4267POPC   C1B54931  40.440  13.930   6.054
 4267POPC   C2B54932  40.492  14.065   6.488
 4267POPC   C3B54933  40.672  14.033   6.891
 4267POPC   C4B54934  40.709  13.810   7.288
 4268POPC   NC354935  12.993  41.339   5.361
 4268POPC   PO454936  12.572  41.797   5.419
 4268POPC   GL154937  12.615  41.552   5.842
 4268POPC   GL254938  12.942  41.382   5.862
 4268POPC   C1A54939  12.487  41.611   6.305
 4268POPC   D2A54940  12.584  41.902   6.681
 4268POPC   C3A54941  12.847  41.774   7.047
 4268POPC   C4A54942  13.308  41.754   7.167
 4268POPC   C1B54943  12.850  41.215   6.254
 4268POPC   C2B54944  12.792  41.404   6.661
 4268POPC   C3B54945  12.799  41.258   7.054
 4268POPC   C4B54946  13.088  41.303   7.315
 4269POPC   NC354947  10.241  16.102   5.443
 4269POPC   PO454948  10.802  15.827   5.324
 4269POPC   GL154949  10.680  15.985   5.751
 4269POPC   GL254950  10.532  16.313   5.821
 4269POPC   C1A54951  10.701  15.976   6.215
 4269POPC   D2A54952  10.691  15.642   6.530
 4269POPC   C3A54953  10.494  15.688   6.946
 4269POPC   C4A54954  10.499  16.097   7.176
 4269POPC   C1B54955  10.279  16.298   6.192
 4269POPC   C2B54956  10.323  16.048   6.582
 4269POPC   C3B54957  10.066  15.972   6.936
 4269POPC   C4B54958  10.029  16.245   7.315
 4270POPC   NC354959   2.698  31.128   5.380
 4270POPC   PO454960   2.608  31.793   5.191
 4270POPC   GL154961   2.536  31.633   5.706
 4270POPC   GL254962   2.588  31.320   5.837
 4270POPC   C1A54963   2.830  31.612   6.128
 4270POPC   D2A54964   2.805  31.472   6.531
 4270POPC   C3A54965   3.106  31.542   6.818
 4270POPC   C4A54966   3.146  31.313   7.189
 4270POPC   C1B54967   2.428  31.211   6.259
 4270POPC   C2B54968   2.330  31.365   6.685
 4270POPC   C3B54969   2.663  31.263   6.979
 4270POPC   C4B54970   2.661  31.089   7.349
 4271POPC   NC354971   7.196  24.479   5.418
 4271POPC   PO454972   6.520  24.445   5.348
 4271POPC   GL154973   6.666  24.535   5.766
 4271POPC   GL254974   6.941  24.780   5.775
 4271POPC   C1A54975   6.488  24.482   6.181
 4271POPC   D2A54976   6.638  24.207   6.525
 4271POPC   C3A54977   6.629  24.442   6.917
 4271POPC   C4A54978   6.750  24.855   7.081
 4271POPC   C1B54979   6.996  24.546   6.183
 4271POPC   C2B54980   7.120  24.402   6.605
 4271POPC   C3B54981   7.129  24.475   7.056
 4271POPC   C4B54982   6.898  24.492   7.442
 4272POPC   NC354983  14.885  41.253   5.505
 4272POPC   PO454984  14.956  41.889   5.225
 4272POPC   GL154985  15.205  41.655   5.651
 4272POPC   GL254986  15.371  41.319   5.740
 4272POPC   C1A54987  15.111  41.623   6.133
 4272POPC   D2A54988  15.186  41.915   6.488
 4272POPC   C3A54989  15.031  41.717   6.893
 4272POPC   C4A54990  14.715  41.706   7.240
 4272POPC   C1B54991  15.562  41.365   6.164
 4272POPC   C2B54992  15.425  41.466   6.594
 4272POPC   C3B54993  15.391  41.372   7.029
 4272POPC   C4B54994  15.092  41.376   7.317
 4273POPC   NC354995   7.955  39.388   5.616
 4273POPC   PO454996   8.459  38.988   5.473
 4273POPC   GL154997   8.338  38.909   5.881
 4273POPC   GL254998   7.974  38.878   5.866
 4273POPC   C1A54999   8.509  39.106   6.231
 4273POPC   D2A55000   8.433  39.377   6.565
 4273POPC   C3A55001   8.527  39.209   6.996
 4273POPC   C4A55002   8.253  38.917   7.219
 4273POPC   C1B55003   8.048  38.848   6.340
 4273POPC   C2B55004   8.061  39.090   6.776
 4273POPC   C3B55005   8.071  39.395   7.148
 4273POPC   C4B55006   7.923  39.193   7.527
 4274POPC   NC355007  33.312  43.310   5.597
 4274POPC   PO455008  32.804  43.133   5.312
 4274POPC   GL155009  32.770  43.007   5.738
 4274POPC   GL255010  33.040  42.817   5.833
 4274POPC   C1A55011  32.667  43.146   6.126
 4274POPC   D2A55012  32.857  43.051   6.511
 4274POPC   C3A55013  32.699  43.104   6.933
 4274POPC   C4A55014  32.913  42.965   7.301
 4274POPC   C1B55015  33.248  42.860   6.236
 4274POPC   C2B55016  33.213  42.719   6.664
 4274POPC   C3B55017  33.344  42.985   6.985
 4274POPC   C4B55018  33.422  42.959   7.396
 4275POPC   NC355019  17.146  32.696   5.515
 4275POPC   PO455020  17.788  32.816   5.447
 4275POPC   GL155021  17.510  33.079   5.710
 4275POPC   GL255022  17.454  32.802   5.921
 4275POPC   C1A55023  17.401  33.292   6.131
 4275POPC   D2A55024  17.512  33.129   6.569
 4275POPC   C3A55025  17.319  33.270   6.980
 4275POPC   C4A55026  17.490  33.364   7.398
 4275POPC   C1B55027  17.838  32.871   6.183
 4275POPC   C2B55028  17.893  32.741   6.615
 4275POPC   C3B55029  17.754  32.875   7.025
 4275POPC   C4B55030  17.875  32.648   7.409
 4276POPC   NC355031   9.607  27.946   5.357
 4276POPC   PO455032  10.085  27.510   5.376
 4276POPC   GL155033   9.909  27.426   5.754
 4276POPC   GL255034   9.573  27.620   5.787
 4276POPC   C1A55035   9.940  27.635   6.142
 4276POPC   D2A55036   9.705  27.629   6.479
 4276POPC   C3A55037   9.914  27.572   6.828
 4276POPC   C4A55038   9.880  27.698   7.200
 4276POPC   C1B55039   9.589  28.001   6.070
 4276POPC   C2B55040   9.655  28.135   6.504
 4276POPC   C3B55041   9.535  27.931   6.870
 4276POPC   C4B55042   9.343  27.757   7.178
 4277POPC   NC355043  42.256  42.845   5.405
 4277POPC   PO455044  42.302  42.161   5.495
 4277POPC   GL155045  42.215  42.455   5.823
 4277POPC   GL255046  42.537  42.602   5.805
 4277POPC   C1A55047  42.143  42.388   6.279
 4277POPC   D2A55048  42.342  42.187   6.643
 4277POPC   C3A55049  42.097  42.007   6.971
 4277POPC   C4A55050  41.969  42.208   7.337
 4277POPC   C1B55051  42.588  42.741   6.237
 4277POPC   C2B55052  42.439  42.745   6.668
 4277POPC   C3B55053  42.305  42.518   7.055
 4277POPC   C4B55054  42.603  42.184   7.225
 4278POPC   NC355055   6.788  25.733   5.380
 4278POPC   PO455056   6.313  26.197   5.474
 4278POPC   GL155057   6.521  25.927   5.776
 4278POPC   GL255058   6.644  26.206   5.930
 4278POPC   C1A55059   6.773  25.786   6.171
 4278POPC   D2A55060   6.669  25.948   6.569
 4278POPC   C3A55061   6.881  25.935   6.939
 4278POPC   C4A55062   6.675  25.873   7.368
 4278POPC   C1B55063   6.369  26.439   6.244
 4278POPC   C2B55064   6.340  26.336   6.653
 4278POPC   C3B55065   6.530  26.295   7.036
 4278POPC   C4B55066   6.287  26.421   7.374
 4279POPC   NC355067  27.862   1.022   5.391
 4279POPC   PO455068  27.390   1.497   5.421
 4279POPC   GL155069  27.592   1.380   5.816
 4279POPC   GL255070  27.627   1.015   5.831
 4279POPC   C1A55071  27.518   1.243   6.266
 4279POPC   D2A55072  27.296   1.204   6.633
 4279POPC   C3A55073  27.578   1.210   6.963
 4279POPC   C4A55074  27.569   0.811   7.183
 4279POPC   C1B55075  27.910   0.885   6.163
 4279POPC   C2B55076  27.819   0.889   6.607
 4279POPC   C3B55077  28.025   0.982   6.987
 4279POPC   C4B55078  27.963   1.030   7.449
 4280POPC   NC355079   6.912  21.644   5.379
 4280POPC   PO455080   6.464  21.131   5.494
 4280POPC   GL155081   6.673  21.195   5.856
 4280POPC   GL255082   6.705  21.547   5.835
 4280POPC   C1A55083   6.647  21.088   6.292
 4280POPC   D2A55084   6.642  20.976   6.720
 4280POPC   C3A55085   6.570  21.183   7.113
 4280POPC   C4A55086   6.390  21.556   7.305
 4280POPC   C1B55087   6.712  21.633   6.236
 4280POPC   C2B55088   6.851  21.481   6.605
 4280POPC   C3B55089   6.736  21.668   6.956
 4280POPC   C4B55090   6.903  21.660   7.365
 4281POPC   NC355091  17.403  38.105   5.277
 4281POPC   PO455092  17.493  38.750   5.437
 4281POPC   GL155093  17.551  38.637   5.871
 4281POPC   GL255094  17.789  38.368   5.912
 4281POPC   C1A55095  17.407  38.428   6.264
 4281POPC   D2A55096  17.375  38.214   6.682
 4281POPC   C3A55097  17.197  38.527   6.970
 4281POPC   C4A55098  17.389  38.832   7.306
 4281POPC   C1B55099  18.039  38.130   6.205
 4281POPC   C2B55100  18.203  38.187   6.619
 4281POPC   C3B55101  18.040  38.333   7.024
 4281POPC   C4B55102  17.611  38.327   7.150
 4282POPC   NC355103  13.917  37.961   5.232
 4282POPC   PO455104  14.566  37.789   5.411
 4282POPC   GL155105  14.374  37.809   5.824
 4282POPC   GL255106  14.547  38.116   5.925
 4282POPC   C1A55107  14.296  37.645   6.241
 4282POPC   D2A55108  14.300  37.451   6.645
 4282POPC   C3A55109  14.678  37.524   6.886
 4282POPC   C4A55110  14.459  37.640   7.236
 4282POPC   C1B55111  14.379  38.146   6.301
 4282POPC   C2B55112  14.481  37.949   6.671
 4282POPC   C3B55113  14.690  38.046   7.012
 4282POPC   C4B55114  14.596  38.073   7.431
 4283POPC   NC355115  14.404  21.703   5.346
 4283POPC   PO455116  14.107  22.349   5.288
 4283POPC   GL155117  14.410  22.177   5.635
 4283POPC   GL255118  14.170  21.960   5.768
 4283POPC   C1A55119  14.548  22.096   6.103
 4283POPC   D2A55120  14.654  22.266   6.534
 4283POPC   C3A55121  14.558  22.110   6.958
 4283POPC   C4A55122  14.654  22.074   7.414
 4283POPC   C1B55123  14.025  22.025   6.186
 4283POPC   C2B55124  14.241  21.914   6.566
 4283POPC   C3B55125  14.082  21.931   6.989
 4283POPC   C4B55126  14.165  22.165   7.351
 4284POPC   NC355127  37.665  26.451   5.445
 4284POPC   PO455128  37.980  25.824   5.338
 4284POPC   GL155129  37.765  25.992   5.723
 4284POPC   GL255130  38.018  26.207   5.834
 4284POPC   C1A55131  37.544  26.016   6.159
 4284POPC   D2A55132  37.659  25.834   6.585
 4284POPC   C3A55133  37.426  25.897   6.974
 4284POPC   C4A55134  37.351  26.297   7.192
 4284POPC   C1B55135  38.061  25.944   6.204
 4284POPC   C2B55136  38.183  26.094   6.600
 4284POPC   C3B55137  38.127  26.027   6.993
 4284POPC   C4B55138  37.817  26.132   7.230
 4285POPC   NC355139  26.540  25.021   5.267
 4285POPC   PO455140  26.903  25.572   5.300
 4285POPC   GL155141  26.860  25.340   5.740
 4285POPC   GL255142  26.727  24.991   5.756
 4285POPC   C1A55143  27.015  25.245   6.204
 4285POPC   D2A55144  27.184  25.401   6.615
 4285POPC   C3A55145  26.957  25.374   6.980
 4285POPC   C4A55146  27.118  25.024   7.130
 4285POPC   C1B55147  26.527  25.114   6.151
 4285POPC   C2B55148  26.560  25.275   6.587
 4285POPC   C3B55149  26.413  25.368   7.004
 4285POPC   C4B55150  26.531  25.351   7.452
 4286POPC   NC355151  40.937  32.416   5.682
 4286POPC   PO455152  40.292  32.331   5.568
 4286POPC   GL155153  40.469  32.081   5.892
 4286POPC   GL255154  40.786  31.891   5.887
 4286POPC   C1A55155  40.651  32.215   6.277
 4286POPC   D2A55156  40.664  32.505   6.594
 4286POPC   C3A55157  40.672  32.269   6.952
 4286POPC   C4A55158  40.503  32.391   7.319
 4286POPC   C1B55159  41.121  31.964   6.227
 4286POPC   C2B55160  41.062  32.038   6.625
 4286POPC   C3B55161  41.153  32.025   7.023
 4286POPC   C4B55162  41.009  32.303   7.342
 4287POPC   NC355163   0.373  25.790   5.549
 4287POPC   PO455164   0.905  25.838   5.178
 4287POPC   GL155165   0.736  26.106   5.646
 4287POPC   GL255166   0.519  26.394   5.805
 4287POPC   C1A55167   0.651  26.075   6.150
 4287POPC   D2A55168   0.412  26.055   6.543
 4287POPC   C3A55169   0.738  25.989   6.846
 4287POPC   C4A55170   0.795  25.854   7.260
 4287POPC   C1B55171   0.181  26.332   6.123
 4287POPC   C2B55172  44.993  26.400   6.515
 4287POPC   C3B55173   0.046  26.192   6.913
 4287POPC   C4B55174   0.384  26.145   7.198
 4288POPC   NC355175  20.857  31.128   5.473
 4288POPC   PO455176  20.466  31.776   5.502
 4288POPC   GL155177  20.392  31.562   5.880
 4288POPC   GL255178  20.691  31.373   5.879
 4288POPC   C1A55179  20.533  31.587   6.321
 4288POPC   D2A55180  20.510  31.805   6.699
 4288POPC   C3A55181  20.654  31.593   7.060
 4288POPC   C4A55182  20.618  31.717   7.485
 4288POPC   C1B55183  20.797  31.119   6.240
 4288POPC   C2B55184  20.704  31.155   6.668
 4288POPC   C3B55185  20.960  31.191   6.987
 4288POPC   C4B55186  20.952  31.251   7.424
 4289POPC   NC355187  19.209  11.625   5.566
 4289POPC   PO455188  19.090  12.263   5.384
 4289POPC   GL155189  19.094  12.226   5.827
 4289POPC   GL255190  19.003  11.889   5.951
 4289POPC   C1A55191  18.885  12.350   6.214
 4289POPC   D2A55192  19.072  12.363   6.625
 4289POPC   C3A55193  18.902  12.151   6.980
 4289POPC   C4A55194  18.746  11.828   7.272
 4289POPC   C1B55195  18.974  11.886   6.388
 4289POPC   C2B55196  19.262  11.891   6.702
 4289POPC   C3B55197  19.159  11.690   7.020
 4289POPC   C4B55198  19.238  11.942   7.333
 4290POPC   NC355199  32.790  12.912   5.375
 4290POPC   PO455200  33.405  13.161   5.395
 4290POPC   GL155201  33.150  13.000   5.776
 4290POPC   GL255202  33.106  12.632   5.823
 4290POPC   C1A55203  32.911  12.937   6.186
 4290POPC   D2A55204  32.856  13.097   6.591
 4290POPC   C3A55205  32.993  12.938   6.973
 4290POPC   C4A55206  32.985  13.058   7.395
 4290POPC   C1B55207  32.959  12.429   6.199
 4290POPC   C2B55208  32.946  12.570   6.604
 4290POPC   C3B55209  33.132  12.449   6.966
 4290POPC   C4B55210  33.228  12.603   7.341
 4291POPC   NC355211  16.273  32.425   5.624
 4291POPC   PO455212  15.831  32.019   5.360
 4291POPC   GL155213  15.790  32.117   5.824
 4291POPC   GL255214  16.007  32.370   6.059
 4291POPC   C1A55215  15.837  31.951   6.244
 4291POPC   D2A55216  15.889  32.248   6.569
 4291POPC   C3A55217  15.818  32.065   6.923
 4291POPC   C4A55218  15.704  31.988   7.313
 4291POPC   C1B55219  16.335  32.194   6.327
 4291POPC   C2B55220  16.361  32.175   6.783
 4291POPC   C3B55221  16.174  32.418   7.151
 4291POPC   C4B55222  16.286  32.543   7.640
 4292POPC   NC355223  42.535  32.634   5.550
 4292POPC   PO455224  42.216  32.082   5.384
 4292POPC   GL155225  42.244  32.259   5.805
 4292POPC   GL255226  42.057  32.534   5.829
 4292POPC   C1A55227  42.278  32.195   6.269
 4292POPC   D2A55228  42.139  32.188   6.707
 4292POPC   C3A55229  42.479  32.203   7.013
 4292POPC   C4A55230  42.325  32.300   7.411
 4292POPC   C1B55231  42.265  32.687   6.173
 4292POPC   C2B55232  42.403  32.638   6.583
 4292POPC   C3B55233  42.270  32.656   6.992
 4292POPC   C4B55234  42.549  32.744   7.313
 4293POPC   NC355235   6.078   3.113   5.300
 4293POPC   PO455236   5.761   2.557   5.363
 4293POPC   GL155237   5.832   2.750   5.736
 4293POPC   GL255238   5.673   3.008   5.630
 4293POPC   C1A55239   5.882   2.685   6.170
 4293POPC   D2A55240   6.215   2.730   6.483
 4293POPC   C3A55241   6.029   2.815   6.873
 4293POPC   C4A55242   5.787   2.781   7.249
 4293POPC   C1B55243   5.578   3.099   6.058
 4293POPC   C2B55244   5.644   3.016   6.505
 4293POPC   C3B55245   5.523   3.029   6.909
 4293POPC   C4B55246   5.606   3.245   7.313
 4294POPC   NC355247  29.052  39.505   5.292
 4294POPC   PO455248  29.266  38.939   5.390
 4294POPC   GL155249  29.247  39.202   5.711
 4294POPC   GL255250  28.897  39.141   5.768
 4294POPC   C1A55251  29.464  39.320   6.101
 4294POPC   D2A55252  29.572  39.227   6.549
 4294POPC   C3A55253  29.344  39.445   6.895
 4294POPC   C4A55254  28.861  39.409   6.996
 4294POPC   C1B55255  29.056  39.016   6.162
 4294POPC   C2B55256  29.067  39.183   6.549
 4294POPC   C3B55257  29.204  38.975   6.910
 4294POPC   C4B55258  28.904  38.900   7.184
 4295POPC   NC355259  15.326  19.190   5.304
 4295POPC   PO455260  15.161  19.852   5.277
 4295POPC   GL155261  15.180  19.605   5.668
 4295POPC   GL255262  15.195  19.935   5.811
 4295POPC   C1A55263  15.232  19.547   6.149
 4295POPC   D2A55264  15.146  19.742   6.552
 4295POPC   C3A55265  15.447  19.755   6.910
 4295POPC   C4A55266  15.219  19.666   7.289
 4295POPC   C1B55267  15.409  20.063   6.195
 4295POPC   C2B55268  15.345  20.233   6.634
 4295POPC   C3B55269  15.458  20.260   7.071
 4295POPC   C4B55270  15.376  20.168   7.507
 4296POPC   NC355271   7.980  15.301   5.496
 4296POPC   PO455272   8.640  15.034   5.541
 4296POPC   GL155273   8.399  15.293   5.880
 4296POPC   GL255274   8.129  15.583   5.897
 4296POPC   C1A55275   8.050  15.107   6.163
 4296POPC   D2A55276   7.773  15.050   6.548
 4296POPC   C3A55277   7.962  14.954   6.949
 4296POPC   C4A55278   8.233  14.963   7.302
 4296POPC   C1B55279   8.013  15.567   6.372
 4296POPC   C2B55280   8.072  15.469   6.823
 4296POPC   C3B55281   7.938  15.370   7.251
 4296POPC   C4B55282   8.100  15.452   7.654
 4297POPC   NC355283  11.259  13.090   5.349
 4297POPC   PO455284  11.357  12.444   5.336
 4297POPC   GL155285  11.463  12.767   5.709
 4297POPC   GL255286  11.179  12.949   5.840
 4297POPC   C1A55287  11.515  12.821   6.194
 4297POPC   D2A55288  11.460  13.001   6.630
 4297POPC   C3A55289  11.539  12.720   6.992
 4297POPC   C4A55290  11.338  12.530   7.358
 4297POPC   C1B55291  11.093  13.144   6.222
 4297POPC   C2B55292  10.944  13.040   6.644
 4297POPC   C3B55293  11.057  12.888   7.062
 4297POPC   C4B55294  11.114  13.032   7.485
 4298POPC   NC355295  31.043  27.912   5.392
 4298POPC   PO455296  30.686  27.381   5.616
 4298POPC   GL155297  30.887  27.535   5.935
 4298POPC   GL255298  31.120  27.309   6.083
 4298POPC   C1A55299  30.820  27.664   6.338
 4298POPC   D2A55300  30.865  27.488   6.704
 4298POPC   C3A55301  30.795  27.764   7.028
 4298POPC   C4A55302  30.442  27.831   7.228
 4298POPC   C1B55303  30.719  27.144   6.266
 4298POPC   C2B55304  30.413  27.220   6.602
 4298POPC   C3B55305  30.486  27.318   7.022
 4298POPC   C4B55306  30.909  27.259   7.155
 4299POPC   NC355307  38.084  26.995   5.711
 4299POPC   PO455308  37.588  26.941   5.364
 4299POPC   GL155309  37.509  26.850   5.798
 4299POPC   GL255310  37.772  26.647   5.924
 4299POPC   C1A55311  37.521  27.001   6.233
 4299POPC   D2A55312  37.630  26.839   6.639
 4299POPC   C3A55313  37.365  26.968   6.998
 4299POPC   C4A55314  37.381  26.750   7.402
 4299POPC   C1B55315  37.840  26.417   6.315
 4299POPC   C2B55316  37.725  26.327   6.753
 4299POPC   C3B55317  37.770  26.616   7.098
 4299POPC   C4B55318  37.911  26.675   7.529
 4300POPC   NC355319  32.311   2.825   5.398
 4300POPC   PO455320  31.699   2.651   5.418
 4300POPC   GL155321  31.925   2.834   5.795
 4300POPC   GL255322  32.267   2.668   5.886
 4300POPC   C1A55323  31.959   2.722   6.260
 4300POPC   D2A55324  31.933   2.445   6.624
 4300POPC   C3A55325  32.019   2.643   7.020
 4300POPC   C4A55326  32.270   2.708   7.388
 4300POPC   C1B55327  32.366   2.390   6.272
 4300POPC   C2B55328  32.489   2.328   6.722
 4300POPC   C3B55329  32.393   2.242   7.175
 4300POPC   C4B55330  32.600   2.318   7.598
 4301POPC   NC355331  18.894  35.077   5.544
 4301POPC   PO455332  19.156  35.703   5.596
 4301POPC   GL155333  19.065  35.413   5.925
 4301POPC   GL255334  19.213  35.065   5.953
 4301POPC   C1A55335  18.948  35.536   6.343
 4301POPC   D2A55336  18.776  35.356   6.706
 4301POPC   C3A55337  18.995  35.442   7.087
 4301POPC   C4A55338  18.950  35.450   7.540
 4301POPC   C1B55339  18.880  35.024   6.263
 4301POPC   C2B55340  18.779  34.823   6.662
 4301POPC   C3B55341  18.806  34.949   7.099
 4301POPC   C4B55342  19.154  35.018   7.343
 4302POPC   NC355343  24.335  36.865   5.357
 4302POPC   PO455344  24.841  37.144   5.574
 4302POPC   GL155345  24.624  36.787   5.817
 4302POPC   GL255346  24.287  36.884   5.869
 4302POPC   C1A55347  24.462  36.581   6.215
 4302POPC   D2A55348  24.190  36.730   6.540
 4302POPC   C3A55349  24.330  36.696   6.956
 4302POPC   C4A55350  24.384  36.413   7.282
 4302POPC   C1B55351  24.444  37.091   6.269
 4302POPC   C2B55352  24.588  37.126   6.727
 4302POPC   C3B55353  24.379  37.183   7.130
 4302POPC   C4B55354  23.937  37.014   7.156
 4303POPC   NC355355   7.021  42.588   5.276
 4303POPC   PO455356   6.462  42.260   5.256
 4303POPC   GL155357   6.645  42.358   5.664
 4303POPC   GL255358   6.556  42.721   5.692
 4303POPC   C1A55359   6.812  42.305   6.123
 4303POPC   D2A55360   6.581  42.361   6.543
 4303POPC   C3A55361   6.684  42.289   6.990
 4303POPC   C4A55362   7.116  42.278   7.132
 4303POPC   C1B55363   6.562  42.746   6.136
 4303POPC   C2B55364   6.684  42.858   6.575
 4303POPC   C3B55365   6.868  42.782   6.962
 4303POPC   C4B55366   7.150  42.941   7.248
 4304POPC   NC355367  10.634  18.737   5.320
 4304POPC   PO455368  10.220  19.154   5.514
 4304POPC   GL155369  10.460  18.904   5.796
 4304POPC   GL255370  10.130  18.721   5.836
 4304POPC   C1A55371  10.770  19.003   6.152
 4304POPC   D2A55372  10.736  19.068   6.633
 4304POPC   C3A55373  10.845  19.272   7.064
 4304POPC   C4A55374  11.006  19.250   7.553
 4304POPC   C1B55375  10.323  18.710   6.259
 4304POPC   C2B55376  10.376  18.704   6.703
 4304POPC   C3B55377  10.671  18.771   7.069
 4304POPC   C4B55378  10.568  19.043   7.427
 4305POPC   NC355379  12.894  32.290   5.351
 4305POPC   PO455380  13.405  32.593   5.369
 4305POPC   GL155381  13.193  32.374   5.759
 4305POPC   GL255382  12.864  32.181   5.835
 4305POPC   C1A55383  13.208  32.266   6.210
 4305POPC   D2A55384  12.990  32.388   6.591
 4305POPC   C3A55385  13.074  32.206   6.986
 4305POPC   C4A55386  13.191  31.968   7.335
 4305POPC   C1B55387  12.650  32.157   6.256
 4305POPC   C2B55388  12.485  32.252   6.711
 4305POPC   C3B55389  12.578  32.391   7.166
 4305POPC   C4B55390  12.730  32.692   7.515
 4306POPC   NC355391   6.893   0.189   5.230
 4306POPC   PO455392   7.397   0.585   5.405
 4306POPC   GL155393   7.303   0.506   5.840
 4306POPC   GL255394   7.485   0.210   5.861
 4306POPC   C1A55395   7.292   0.385   6.302
 4306POPC   D2A55396   7.529   0.179   6.619
 4306POPC   C3A55397   7.407   0.286   7.020
 4306POPC   C4A55398   7.065   0.545   7.119
 4306POPC   C1B55399   7.760   0.494   6.091
 4306POPC   C2B55400   7.697   0.693   6.483
 4306POPC   C3B55401   7.670   0.734   6.916
 4306POPC   C4B55402   7.522   0.645   7.344
 4307POPC   NC355403  30.594  25.373   5.413
 4307POPC   PO455404  31.262  25.668   5.214
 4307POPC   GL155405  31.108  25.402   5.667
 4307POPC   GL255406  30.904  25.061   5.692
 4307POPC   C1A55407  30.923  25.381   6.158
 4307POPC   D2A55408  30.661  25.470   6.578
 4307POPC   C3A55409  30.778  25.494   7.064
 4307POPC   C4A55410  30.665  25.486   7.549
 4307POPC   C1B55411  30.574  25.011   6.038
 4307POPC   C2B55412  30.524  24.944   6.500
 4307POPC   C3B55413  30.394  25.153   6.870
 4307POPC   C4B55414  30.503  25.105   7.267
 4308POPC   NC355415  16.866  25.839   5.071
 4308POPC   PO455416  16.345  25.730   5.528
 4308POPC   GL155417  16.753  25.896   5.690
 4308POPC   GL255418  16.852  26.260   5.736
 4308POPC   C1A55419  16.904  25.912   6.118
 4308POPC   D2A55420  16.923  26.152   6.479
 4308POPC   C3A55421  16.656  25.999   6.794
 4308POPC   C4A55422  16.885  25.776   7.099
 4308POPC   C1B55423  16.556  26.302   6.111
 4308POPC   C2B55424  16.492  26.449   6.525
 4308POPC   C3B55425  16.749  26.524   6.839
 4308POPC   C4B55426  16.812  26.290   7.178
 4309POPC   NC355427  18.295  13.174   5.594
 4309POPC   PO455428  18.137  12.565   5.405
 4309POPC   GL155429  18.073  12.764   5.825
 4309POPC   GL255430  17.840  13.076   5.822
 4309POPC   C1A55431  18.313  12.708   6.234
 4309POPC   D2A55432  18.341  12.841   6.655
 4309POPC   C3A55433  18.458  12.648   7.038
 4309POPC   C4A55434  18.569  12.887   7.399
 4309POPC   C1B55435  18.047  13.179   6.226
 4309POPC   C2B55436  17.977  13.199   6.684
 4309POPC   C3B55437  18.061  12.988   7.086
 4309POPC   C4B55438  18.202  13.246   7.416
 4310POPC   NC355439  14.989  39.711   5.521
 4310POPC   PO455440  15.439  40.179   5.476
 4310POPC   GL155441  15.253  40.047   5.851
 4310POPC   GL255442  14.976  40.236   5.889
 4310POPC   C1A55443  15.472  39.964   6.236
 4310POPC   D2A55444  15.563  39.762   6.596
 4310POPC   C3A55445  15.482  39.948   7.001
 4310POPC   C4A55446  15.445  39.777   7.381
 4310POPC   C1B55447  15.028  40.213   6.321
 4310POPC   C2B55448  15.066  39.944   6.694
 4310POPC   C3B55449  14.931  39.954   7.142
 4310POPC   C4B55450  14.744  40.231   7.462
 4311POPC   NC355451  41.382  44.367   5.345
 4311POPC   PO455452  41.931  44.746   5.233
 4311POPC   GL155453  41.667  44.738   5.689
 4311POPC   GL255454  41.269  44.791   5.727
 4311POPC   C1A55455  41.595  44.770   6.192
 4311POPC   D2A55456  41.823  44.786   6.622
 4311POPC   C3A55457  41.668  44.720   7.066
 4311POPC   C4A55458  41.750  44.914   7.480
 4311POPC   C1B55459  41.092  44.803   6.179
 4311POPC   C2B55460  41.268  44.864   6.612
 4311POPC   C3B55461  41.153  44.683   7.006
 4311POPC   C4B55462  41.212  44.857   7.408
 4312POPC   NC355463  43.438   6.599   5.517
 4312POPC   PO455464  43.800   7.115   5.449
 4312POPC   GL155465  44.037   6.885   5.794
 4312POPC   GL255466  43.813   6.608   5.902
 4312POPC   C1A55467  44.257   6.937   6.203
 4312POPC   D2A55468  44.116   7.131   6.586
 4312POPC   C3A55469  44.173   6.860   6.922
 4312POPC   C4A55470  44.187   6.469   7.123
 4312POPC   C1B55471  43.810   6.728   6.335
 4312POPC   C2B55472  43.804   6.531   6.737
 4312POPC   C3B55473  43.698   6.671   7.143
 4312POPC   C4B55474  43.579   6.469   7.528
 4313POPC   NC355475  23.801  20.648   5.376
 4313POPC   PO455476  23.728  20.208   5.790
 4313POPC   GL155477  23.655  20.627   5.901
 4313POPC   GL255478  23.370  20.809   5.773
 4313POPC   C1A55479  23.601  20.687   6.319
 4313POPC   D2A55480  23.604  20.415   6.660
 4313POPC   C3A55481  23.974  20.510   6.836
 4313POPC   C4A55482  24.138  20.680   7.222
 4313POPC   C1B55483  23.215  20.996   6.180
 4313POPC   C2B55484  23.382  21.033   6.639
 4313POPC   C3B55485  23.328  20.710   6.975
 4313POPC   C4B55486  23.425  20.703   7.394
 4314POPC   NC355487  32.708   5.029   5.287
 4314POPC   PO455488  33.192   5.503   5.502
 4314POPC   GL155489  33.268   5.169   5.756
 4314POPC   GL255490  32.967   4.964   5.812
 4314POPC   C1A55491  33.214   5.280   6.196
 4314POPC   D2A55492  33.163   5.178   6.624
 4314POPC   C3A55493  32.876   5.410   6.896
 4314POPC   C4A55494  32.987   5.321   7.322
 4314POPC   C1B55495  32.802   4.940   6.241
 4314POPC   C2B55496  32.656   5.008   6.677
 4314POPC   C3B55497  32.923   4.919   7.037
 4314POPC   C4B55498  32.995   4.811   7.481
 4315POPC   NC355499  30.484  36.559   5.139
 4315POPC   PO455500  30.893  36.920   5.597
 4315POPC   GL155501  30.722  36.850   6.006
 4315POPC   GL255502  30.572  36.516   6.115
 4315POPC   C1A55503  30.978  36.735   6.341
 4315POPC   D2A55504  30.836  36.586   6.691
 4315POPC   C3A55505  30.890  36.777   7.042
 4315POPC   C4A55506  30.927  36.969   7.415
 4315POPC   C1B55507  30.293  36.787   6.320
 4315POPC   C2B55508  30.086  36.601   6.630
 4315POPC   C3B55509  30.382  36.588   6.968
 4315POPC   C4B55510  30.449  36.880   7.289
 4316POPC   NC355511  12.175   5.639   5.085
 4316POPC   PO455512  12.189   6.278   5.372
 4316POPC   GL155513  12.029   6.030   5.745
 4316POPC   GL255514  11.712   6.163   5.909
 4316POPC   C1A55515  12.227   5.694   6.028
 4316POPC   D2A55516  12.179   5.577   6.471
 4316POPC   C3A55517  12.328   5.654   6.892
 4316POPC   C4A55518  12.301   5.995   7.195
 4316POPC   C1B55519  11.757   5.804   6.220
 4316POPC   C2B55520  11.656   5.645   6.659
 4316POPC   C3B55521  11.856   5.710   7.085
 4316POPC   C4B55522  11.932   5.432   7.441
 4317POPC   NC355523   0.946  34.687   5.436
 4317POPC   PO455524   1.474  34.253   5.450
 4317POPC   GL155525   1.442  34.634   5.733
 4317POPC   GL255526   1.138  34.785   5.901
 4317POPC   C1A55527   1.560  34.833   6.145
 4317POPC   D2A55528   1.349  34.842   6.541
 4317POPC   C3A55529   1.598  34.809   6.920
 4317POPC   C4A55530   1.541  34.656   7.358
 4317POPC   C1B55531   1.260  34.406   6.153
 4317POPC   C2B55532   1.202  34.352   6.582
 4317POPC   C3B55533   1.258  34.427   6.978
 4317POPC   C4B55534   1.022  34.465   7.332
 4318POPC   NC355535   2.269  16.957   5.539
 4318POPC   PO455536   1.613  16.619   5.489
 4318POPC   GL155537   1.844  16.817   5.838
 4318POPC   GL255538   2.116  16.562   5.839
 4318POPC   C1A55539   1.918  16.721   6.302
 4318POPC   D2A55540   1.844  16.647   6.754
 4318POPC   C3A55541   1.839  16.578   7.187
 4318POPC   C4A55542   1.906  16.886   7.527
 4318POPC   C1B55543   2.409  16.730   6.158
 4318POPC   C2B55544   2.430  16.864   6.588
 4318POPC   C3B55545   2.251  16.849   7.029
 4318POPC   C4B55546   2.419  16.867   7.460
 4319POPC   NC355547  14.246  23.122   5.358
 4319POPC   PO455548  14.749  22.840   5.621
 4319POPC   GL155549  14.602  22.930   5.959
 4319POPC   GL255550  14.428  22.604   5.961
 4319POPC   C1A55551  14.507  23.007   6.354
 4319POPC   D2A55552  14.259  23.311   6.527
 4319POPC   C3A55553  14.193  23.113   6.912
 4319POPC   C4A55554  14.217  23.075   7.351
 4319POPC   C1B55555  14.247  22.467   6.325
 4319POPC   C2B55556  14.324  22.649   6.704
 4319POPC   C3B55557  14.234  22.619   7.110
 4319POPC   C4B55558  14.466  22.636   7.509
 4320POPC   NC355559  27.377   2.793   5.451
 4320POPC   PO455560  27.847   2.315   5.572
 4320POPC   GL155561  27.763   2.688   5.828
 4320POPC   GL255562  27.922   3.000   5.683
 4320POPC   C1A55563  27.516   2.811   6.205
 4320POPC   D2A55564  27.363   2.571   6.576
 4320POPC   C3A55565  27.381   2.736   7.010
 4320POPC   C4A55566  27.232   2.469   7.361
 4320POPC   C1B55567  28.002   3.060   6.132
 4320POPC   C2B55568  27.863   2.955   6.556
 4320POPC   C3B55569  27.922   2.886   6.989
 4320POPC   C4B55570  27.684   3.068   7.294
 4321POPC   NC355571  18.986  15.460   5.111
 4321POPC   PO455572  19.236  16.096   5.062
 4321POPC   GL155573  19.127  16.138   5.595
 4321POPC   GL255574  19.418  16.031   5.862
 4321POPC   C1A55575  18.954  16.148   6.084
 4321POPC   D2A55576  19.056  16.095   6.577
 4321POPC   C3A55577  18.843  16.212   6.996
 4321POPC   C4A55578  18.861  16.012   7.434
 4321POPC   C1B55579  19.292  15.755   6.238
 4321POPC   C2B55580  19.129  15.538   6.633
 4321POPC   C3B55581  19.033  15.726   7.041
 4321POPC   C4B55582  19.326  16.090   7.153
 4322POPC   NC355583   2.506  37.737   5.203
 4322POPC   PO455584   3.079  37.303   5.252
 4322POPC   GL155585   2.821  37.490   5.637
 4322POPC   GL255586   2.913  37.851   5.779
 4322POPC   C1A55587   2.638  37.522   6.098
 4322POPC   D2A55588   2.688  37.769   6.505
 4322POPC   C3A55589   2.654  37.634   6.955
 4322POPC   C4A55590   2.681  37.667   7.428
 4322POPC   C1B55591   3.057  38.014   6.223
 4322POPC   C2B55592   3.055  38.069   6.705
 4322POPC   C3B55593   2.849  38.065   7.132
 4322POPC   C4B55594   3.078  37.945   7.553
 4323POPC   NC355595   4.685  27.869   5.494
 4323POPC   PO455596   5.009  27.273   5.450
 4323POPC   GL155597   4.984  27.574   5.801
 4323POPC   GL255598   5.297  27.775   5.949
 4323POPC   C1A55599   4.831  27.763   6.149
 4323POPC   D2A55600   5.180  27.733   6.448
 4323POPC   C3A55601   5.179  27.749   6.894
 4323POPC   C4A55602   4.953  27.764   7.277
 4323POPC   C1B55603   5.320  27.339   6.144
 4323POPC   C2B55604   5.327  27.041   6.501
 4323POPC   C3B55605   5.476  27.067   6.943
 4323POPC   C4B55606   5.300  27.378   7.234
 4324POPC   NC355607  42.016  29.366   5.488
 4324POPC   PO455608  41.525  28.885   5.474
 4324POPC   GL155609  41.510  29.027   5.866
 4324POPC   GL255610  41.642  29.347   5.831
 4324POPC   C1A55611  41.341  28.978   6.265
 4324POPC   D2A55612  41.317  29.108   6.679
 4324POPC   C3A55613  41.585  28.920   6.998
 4324POPC   C4A55614  41.469  29.162   7.343
 4324POPC   C1B55615  41.637  29.397   6.274
 4324POPC   C2B55616  41.806  29.188   6.601
 4324POPC   C3B55617  41.972  29.279   6.965
 4324POPC   C4B55618  41.945  29.344   7.388
 4325POPC   NC355619  16.370  13.515   5.486
 4325POPC   PO455620  15.621  13.485   5.361
 4325POPC   GL155621  15.891  13.655   5.698
 4325POPC   GL255622  16.009  13.322   5.821
 4325POPC   C1A55623  16.037  13.720   6.145
 4325POPC   D2A55624  16.143  13.887   6.567
 4325POPC   C3A55625  15.856  13.813   6.912
 4325POPC   C4A55626  15.929  13.603   7.301
 4325POPC   C1B55627  16.249  13.257   6.239
 4325POPC   C2B55628  16.154  13.379   6.661
 4325POPC   C3B55629  16.350  13.421   7.046
 4325POPC   C4B55630  16.339  13.180   7.400
 4326POPC   NC355631  18.724   1.734   5.484
 4326POPC   PO455632  18.157   2.167   5.395
 4326POPC   GL155633  18.297   2.084   5.859
 4326POPC   GL255634  18.556   1.801   5.988
 4326POPC   C1A55635  18.181   1.953   6.296
 4326POPC   D2A55636  18.350   1.860   6.685
 4326POPC   C3A55637  18.407   2.196   6.938
 4326POPC   C4A55638  18.079   2.046   7.203
 4326POPC   C1B55639  18.710   2.064   6.363
 4326POPC   C2B55640  18.873   1.890   6.752
 4326POPC   C3B55641  18.862   1.571   7.054
 4326POPC   C4B55642  18.510   1.769   7.176
 4327POPC   NC355643  34.060   8.331   5.457
 4327POPC   PO455644  33.433   8.094   5.541
 4327POPC   GL155645  33.575   8.292   5.904
 4327POPC   GL255646  33.917   8.318   5.956
 4327POPC   C1A55647  33.432   8.242   6.355
 4327POPC   D2A55648  33.710   8.202   6.696
 4327POPC   C3A55649  33.661   8.215   7.112
 4327POPC   C4A55650  33.300   8.003   7.212
 4327POPC   C1B55651  33.999   8.047   6.317
 4327POPC   C2B55652  34.101   7.887   6.766
 4327POPC   C3B55653  34.151   8.023   7.217
 4327POPC   C4B55654  33.944   8.366   7.522
 4328POPC   NC355655  11.019  36.116   5.418
 4328POPC   PO455656  11.584  35.811   5.433
 4328POPC   GL155657  11.422  36.008   5.885
 4328POPC   GL255658  11.146  36.241   5.912
 4328POPC   C1A55659  11.412  36.146   6.371
 4328POPC   D2A55660  11.510  36.430   6.747
 4328POPC   C3A55661  11.452  36.236   7.145
 4328POPC   C4A55662  11.566  36.250   7.596
 4328POPC   C1B55663  10.951  36.003   6.209
 4328POPC   C2B55664  10.927  36.231   6.599
 4328POPC   C3B55665  11.000  36.065   6.994
 4328POPC   C4B55666  11.062  36.101   7.446
 4329POPC   NC355667  39.588  33.414   5.173
 4329POPC   PO455668  39.229  32.876   5.430
 4329POPC   GL155669  39.147  33.005   5.872
 4329POPC   GL255670  39.040  33.330   5.980
 4329POPC   C1A55671  39.383  32.970   6.284
 4329POPC   D2A55672  39.215  32.831   6.700
 4329POPC   C3A55673  39.383  32.919   7.113
 4329POPC   C4A55674  39.525  32.729   7.503
 4329POPC   C1B55675  38.901  33.103   6.312
 4329POPC   C2B55676  38.884  33.237   6.688
 4329POPC   C3B55677  38.892  33.059   7.057
 4329POPC   C4B55678  39.024  33.235   7.454
 4330POPC   NC355679  44.678  31.522   5.307
 4330POPC   PO455680   0.118  31.854   5.594
 4330POPC   GL155681  44.928  31.484   5.775
 4330POPC   GL255682  44.578  31.588   5.815
 4330POPC   C1A55683  44.938  31.421   6.221
 4330POPC   D2A55684   0.037  31.740   6.552
 4330POPC   C3A55685  44.889  31.650   6.980
 4330POPC   C4A55686  44.977  31.286   7.244
 4330POPC   C1B55687  44.444  31.508   6.236
 4330POPC   C2B55688  44.589  31.327   6.661
 4330POPC   C3B55689  44.493  31.338   7.081
 4330POPC   C4B55690  44.386  31.746   7.243
 4331POPC   NC355691  10.194  17.056   5.508
 4331POPC   PO455692   9.514  16.856   5.396
 4331POPC   GL155693   9.778  16.641   5.770
 4331POPC   GL255694  10.094  16.740   5.936
 4331POPC   C1A55695   9.722  16.529   6.226
 4331POPC   D2A55696   9.557  16.764   6.611
 4331POPC   C3A55697   9.657  16.612   7.047
 4331POPC   C4A55698   9.445  16.587   7.446
 4331POPC   C1B55699  10.015  17.003   6.288
 4331POPC   C2B55700   9.954  17.321   6.612
 4331POPC   C3B55701   9.745  17.137   6.972
 4331POPC   C4B55702   9.734  16.996   7.387
 4332POPC   NC355703  29.086  40.307   5.594
 4332POPC   PO455704  29.487  40.860   5.523
 4332POPC   GL155705  29.263  41.024   5.894
 4332POPC   GL255706  28.898  40.884   5.895
 4332POPC   C1A55707  29.236  40.923   6.325
 4332POPC   D2A55708  29.340  40.574   6.622
 4332POPC   C3A55709  29.378  40.772   7.037
 4332POPC   C4A55710  29.333  40.635   7.485
 4332POPC   C1B55711  28.853  40.623   6.273
 4332POPC   C2B55712  28.871  40.737   6.742
 4332POPC   C3B55713  28.893  40.785   7.192
 4332POPC   C4B55714  28.972  41.068   7.517
 4333POPC   NC355715  11.914  38.664   5.440
 4333POPC   PO455716  12.166  38.021   5.413
 4333POPC   GL155717  12.263  38.131   5.829
 4333POPC   GL255718  12.180  38.476   5.846
 4333POPC   C1A55719  12.313  38.200   6.275
 4333POPC   D2A55720  12.208  38.391   6.679
 4333POPC   C3A55721  11.989  38.199   7.030
 4333POPC   C4A55722  12.316  38.085   7.289
 4333POPC   C1B55723  11.985  38.661   6.210
 4333POPC   C2B55724  11.893  38.810   6.632
 4333POPC   C3B55725  11.977  38.717   7.063
 4333POPC   C4B55726  12.093  38.509   7.470
 4334POPC   NC355727   0.987   5.318   5.416
 4334POPC   PO455728   1.653   5.146   5.359
 4334POPC   GL155729   1.337   5.035   5.716
 4334POPC   GL255730   1.330   5.379   5.840
 4334POPC   C1A55731   1.225   4.944   6.204
 4334POPC   D2A55732   1.341   5.129   6.633
 4334POPC   C3A55733   1.589   4.923   7.002
 4334POPC   C4A55734   1.561   4.876   7.465
 4334POPC   C1B55735   1.165   5.467   6.266
 4334POPC   C2B55736   1.035   5.546   6.677
 4334POPC   C3B55737   1.200   5.384   7.062
 4334POPC   C4B55738   1.085   4.967   7.092
 4335POPC   NC355739  17.991   3.780   5.502
 4335POPC   PO455740  17.607   3.317   5.348
 4335POPC   GL155741  17.509   3.266   5.794
 4335POPC   GL255742  17.604   3.583   5.835
 4335POPC   C1A55743  17.559   3.248   6.248
 4335POPC   D2A55744  17.266   3.261   6.582
 4335POPC   C3A55745  17.466   3.258   6.973
 4335POPC   C4A55746  17.805   3.373   7.195
 4335POPC   C1B55747  17.704   3.765   6.224
 4335POPC   C2B55748  17.621   3.645   6.647
 4335POPC   C3B55749  17.414   3.782   7.021
 4335POPC   C4B55750  17.553   3.824   7.433
 4336POPC   NC355751  41.088  29.120   5.521
 4336POPC   PO455752  40.619  29.572   5.197
 4336POPC   GL155753  40.685  29.438   5.675
 4336POPC   GL255754  40.484  29.146   5.850
 4336POPC   C1A55755  40.705  29.512   6.136
 4336POPC   D2A55756  40.893  29.377   6.537
 4336POPC   C3A55757  40.661  29.165   6.874
 4336POPC   C4A55758  40.432  29.258   7.266
 4336POPC   C1B55759  40.825  28.994   6.168
 4336POPC   C2B55760  40.976  28.733   6.549
 4336POPC   C3B55761  41.077  28.794   7.002
 4336POPC   C4B55762  40.972  29.189   7.276
 4337POPC   NC355763  30.679  35.694   5.601
 4337POPC   PO455764  31.015  35.154   5.431
 4337POPC   GL155765  30.940  35.181   5.883
 4337POPC   GL255766  30.579  35.128   5.870
 4337POPC   C1A55767  31.003  35.366   6.326
 4337POPC   D2A55768  30.771  35.679   6.613
 4337POPC   C3A55769  30.728  35.599   7.071
 4337POPC   C4A55770  30.863  35.613   7.532
 4337POPC   C1B55771  30.707  34.940   6.288
 4337POPC   C2B55772  30.596  35.191   6.643
 4337POPC   C3B55773  30.371  35.241   7.015
 4337POPC   C4B55774  30.642  35.157   7.346
 4338POPC   NC355775  36.233  23.283   5.658
 4338POPC   PO455776  36.057  22.816   5.207
 4338POPC   GL155777  36.058  22.757   5.709
 4338POPC   GL255778  36.395  22.775   5.857
 4338POPC   C1A55779  35.915  22.844   6.187
 4338POPC   D2A55780  35.954  22.592   6.590
 4338POPC   C3A55781  36.189  22.814   6.929
 4338POPC   C4A55782  36.110  22.909   7.389
 4338POPC   C1B55783  36.394  23.009   6.263
 4338POPC   C2B55784  36.273  23.243   6.639
 4338POPC   C3B55785  36.286  23.292   7.090
 4338POPC   C4B55786  36.329  23.347   7.541
 4339POPC   NC355787   0.625  19.427   5.434
 4339POPC   PO455788   0.475  18.734   5.445
 4339POPC   GL155789   0.425  18.987   5.808
 4339POPC   GL255790   0.131  19.174   5.888
 4339POPC   C1A55791   0.433  18.943   6.258
 4339POPC   D2A55792   0.260  18.768   6.627
 4339POPC   C3A55793   0.466  18.871   7.002
 4339POPC   C4A55794   0.538  19.258   7.217
 4339POPC   C1B55795   0.078  19.308   6.321
 4339POPC   C2B55796   0.100  19.254   6.765
 4339POPC   C3B55797   0.041  19.368   7.193
 4339POPC   C4B55798   0.249  19.372   7.632
 4340POPC   NC355799  31.392  36.776   5.497
 4340POPC   PO455800  31.375  37.393   5.219
 4340POPC   GL155801  31.347  37.171   5.794
 4340POPC   GL255802  31.653  36.968   5.867
 4340POPC   C1A55803  31.402  37.040   6.291
 4340POPC   D2A55804  31.167  37.059   6.713
 4340POPC   C3A55805  31.374  36.955   7.139
 4340POPC   C4A55806  31.346  36.919   7.645
 4340POPC   C1B55807  31.865  36.774   6.190
 4340POPC   C2B55808  31.778  36.827   6.619
 4340POPC   C3B55809  31.800  36.631   7.001
 4340POPC   C4B55810  31.709  36.658   7.433
 4341POPC   NC355811  17.193  16.055   5.231
 4341POPC   PO455812  17.738  15.784   5.511
 4341POPC   GL155813  17.427  15.942   5.768
 4341POPC   GL255814  17.506  15.678   5.992
 4341POPC   C1A55815  17.352  16.139   6.193
 4341POPC   D2A55816  17.316  16.018   6.661
 4341POPC   C3A55817  17.383  16.165   7.116
 4341POPC   C4A55818  17.221  15.881   7.493
 4341POPC   C1B55819  17.676  15.783   6.387
 4341POPC   C2B55820  17.655  15.659   6.821
 4341POPC   C3B55821  17.686  15.767   7.261
 4341POPC   C4B55822  17.995  15.944   7.556
 4342POPC   NC355823  17.288  41.055   5.351
 4342POPC   PO455824  17.773  40.654   5.147
 4342POPC   GL155825  17.640  40.671   5.668
 4342POPC   GL255826  17.316  40.834   5.809
 4342POPC   C1A55827  17.568  40.616   6.166
 4342POPC   D2A55828  17.612  40.864   6.556
 4342POPC   C3A55829  17.399  40.771   6.935
 4342POPC   C4A55830  17.679  40.768   7.283
 4342POPC   C1B55831  17.350  41.125   6.209
 4342POPC   C2B55832  17.381  41.303   6.685
 4342POPC   C3B55833  17.424  41.227   7.177
 4342POPC   C4B55834  17.283  40.989   7.554
 4343POPC   NC355835  17.757   5.267   5.570
 4343POPC   PO455836  17.166   4.991   5.587
 4343POPC   GL155837  17.434   5.090   5.930
 4343POPC   GL255838  17.626   4.807   5.815
 4343POPC   C1A55839  17.553   5.158   6.388
 4343POPC   D2A55840  17.402   5.135   6.839
 4343POPC   C3A55841  17.624   5.337   7.201
 4343POPC   C4A55842  17.549   5.482   7.647
 4343POPC   C1B55843  17.821   4.777   6.183
 4343POPC   C2B55844  17.956   4.856   6.585
 4343POPC   C3B55845  17.806   4.871   6.976
 4343POPC   C4B55846  17.863   4.652   7.312
 4344POPC   NC355847  43.032  41.375   5.702
 4344POPC   PO455848  43.270  40.829   5.383
 4344POPC   GL155849  43.027  40.834   5.843
 4344POPC   GL255850  42.765  41.066   6.034
 4344POPC   C1A55851  43.053  40.636   6.301
 4344POPC   D2A55852  43.288  40.457   6.690
 4344POPC   C3A55853  43.175  40.647   7.102
 4344POPC   C4A55854  43.361  40.802   7.503
 4344POPC   C1B55855  43.100  41.165   6.325
 4344POPC   C2B55856  43.279  41.021   6.716
 4344POPC   C3B55857  43.170  41.170   7.137
 4344POPC   C4B55858  42.733  41.204   7.269
 4345POPC   NC355859  11.779  39.311   5.565
 4345POPC   PO455860  12.331  38.876   5.406
 4345POPC   GL155861  12.153  39.011   5.827
 4345POPC   GL255862  12.434  39.221   5.917
 4345POPC   C1A55863  11.835  39.169   6.186
 4345POPC   D2A55864  11.737  39.576   6.405
 4345POPC   C3A55865  11.790  39.569   6.842
 4345POPC   C4A55866  11.790  39.227   7.118
 4345POPC   C1B55867  12.312  39.188   6.359
 4345POPC   C2B55868  12.240  39.307   6.802
 4345POPC   C3B55869  12.275  39.093   7.219
 4345POPC   C4B55870  12.240  38.953   7.660
 4346POPC   NC355871  35.629  17.139   5.351
 4346POPC   PO455872  35.617  17.788   5.505
 4346POPC   GL155873  35.555  17.434   5.745
 4346POPC   GL255874  35.210  17.394   5.673
 4346POPC   C1A55875  35.724  17.262   6.111
 4346POPC   D2A55876  35.792  17.533   6.447
 4346POPC   C3A55877  35.484  17.591   6.764
 4346POPC   C4A55878  35.479  17.448   7.185
 4346POPC   C1B55879  35.263  17.552   6.135
 4346POPC   C2B55880  35.044  17.728   6.491
 4346POPC   C3B55881  35.008  17.784   6.928
 4346POPC   C4B55882  34.971  17.475   7.240
 4347POPC   NC355883  43.291  37.913   5.405
 4347POPC   PO455884  43.223  37.373   5.789
 4347POPC   GL155885  43.124  37.745   5.970
 4347POPC   GL255886  43.237  38.067   5.872
 4347POPC   C1A55887  43.081  37.715   6.399
 4347POPC   D2A55888  43.301  37.476   6.715
 4347POPC   C3A55889  42.973  37.335   6.979
 4347POPC   C4A55890  42.988  37.438   7.373
 4347POPC   C1B55891  43.167  38.217   6.266
 4347POPC   C2B55892  42.960  38.125   6.651
 4347POPC   C3B55893  43.097  37.862   7.006
 4347POPC   C4B55894  43.126  37.940   7.458
 4348POPC   NC355895  36.260  31.220   5.343
 4348POPC   PO455896  35.908  31.751   5.503
 4348POPC   GL155897  35.890  31.447   5.787
 4348POPC   GL255898  36.228  31.346   5.842
 4348POPC   C1A55899  35.940  31.576   6.205
 4348POPC   D2A55900  36.117  31.549   6.588
 4348POPC   C3A55901  35.928  31.335   6.924
 4348POPC   C4A55902  35.781  31.466   7.292
 4348POPC   C1B55903  36.242  31.149   6.237
 4348POPC   C2B55904  36.460  31.194   6.628
 4348POPC   C3B55905  36.437  31.416   6.993
 4348POPC   C4B55906  36.278  31.135   7.269
 4349POPC   NC355907  32.859  31.412   5.345
 4349POPC   PO455908  33.524  31.180   5.382
 4349POPC   GL155909  33.214  31.221   5.763
 4349POPC   GL255910  32.939  31.447   5.849
 4349POPC   C1A55911  33.197  31.328   6.243
 4349POPC   D2A55912  33.153  31.605   6.579
 4349POPC   C3A55913  33.203  31.344   6.914
 4349POPC   C4A55914  33.002  31.154   7.239
 4349POPC   C1B55915  32.696  31.553   6.222
 4349POPC   C2B55916  32.656  31.745   6.660
 4349POPC   C3B55917  32.827  31.702   7.092
 4349POPC   C4B55918  32.845  31.829   7.576
 4350POPC   NC355919  37.719   4.100   5.461
 4350POPC   PO455920  37.305   4.645   5.360
 4350POPC   GL155921  37.493   4.457   5.806
 4350POPC   GL255922  37.837   4.417   5.884
 4350POPC   C1A55923  37.532   4.323   6.298
 4350POPC   D2A55924  37.392   4.457   6.740
 4350POPC   C3A55925  37.566   4.293   7.149
 4350POPC   C4A55926  37.495   4.372   7.620
 4350POPC   C1B55927  38.034   4.167   6.246
 4350POPC   C2B55928  38.171   4.216   6.690
 4350POPC   C3B55929  38.048   4.496   7.040
 4350POPC   C4B55930  37.866   4.628   7.423
 4351POPC   NC355931  26.291  21.631   5.662
 4351POPC   PO455932  26.724  21.223   5.311
 4351POPC   GL155933  26.795  21.074   5.741
 4351POPC   GL255934  26.443  21.028   5.825
 4351POPC   C1A55935  27.031  21.194   6.154
 4351POPC   D2A55936  26.951  21.413   6.541
 4351POPC   C3A55937  26.994  21.308   6.985
 4351POPC   C4A55938  26.853  21.669   7.268
 4351POPC   C1B55939  26.538  21.268   6.202
 4351POPC   C2B55940  26.449  21.253   6.644
 4351POPC   C3B55941  26.502  21.337   7.064
 4351POPC   C4B55942  26.694  21.210   7.442
 4352POPC   NC355943  32.194  31.220   5.447
 4352POPC   PO455944  32.521  31.720   5.218
 4352POPC   GL155945  32.491  31.567   5.674
 4352POPC   GL255946  32.387  31.840   5.801
 4352POPC   C1A55947  32.241  31.374   6.065
 4352POPC   D2A55948  32.279  31.425   6.518
 4352POPC   C3A55949  32.015  31.320   6.856
 4352POPC   C4A55950  32.140  31.377   7.293
 4352POPC   C1B55951  32.215  31.855   6.203
 4352POPC   C2B55952  32.209  32.009   6.590
 4352POPC   C3B55953  32.196  31.797   6.959
 4352POPC   C4B55954  32.397  31.827   7.339
 4353POPC   NC355955  32.118  35.377   5.322
 4353POPC   PO455956  32.501  35.808   5.488
 4353POPC   GL155957  32.306  35.511   5.776
 4353POPC   GL255958  32.560  35.562   6.009
 4353POPC   C1A55959  32.054  35.210   6.046
 4353POPC   D2A55960  31.954  35.091   6.483
 4353POPC   C3A55961  32.277  35.113   6.817
 4353POPC   C4A55962  32.295  35.058   7.256
 4353POPC   C1B55963  32.207  35.644   6.304
 4353POPC   C2B55964  32.000  35.551   6.677
 4353POPC   C3B55965  32.147  35.534   7.097
 4353POPC   C4B55966  32.420  35.731   7.399
 4354POPC   NC355967  21.971  41.813   5.304
 4354POPC   PO455968  21.865  41.202   5.441
 4354POPC   GL155969  21.864  41.410   5.844
 4354POPC   GL255970  22.142  41.650   5.845
 4354POPC   C1A55971  21.901  41.497   6.290
 4354POPC   D2A55972  22.191  41.638   6.622
 4354POPC   C3A55973  22.093  41.476   7.021
 4354POPC   C4A55974  21.734  41.450   7.297
 4354POPC   C1B55975  22.397  41.408   6.196
 4354POPC   C2B55976  22.611  41.345   6.623
 4354POPC   C3B55977  22.533  41.221   7.077
 4354POPC   C4B55978  22.698  41.337   7.485
 4355POPC   NC355979  44.763  27.363   5.455
 4355POPC   PO455980  44.288  27.817   5.387
 4355POPC   GL155981  44.640  27.910   5.662
 4355POPC   GL255982  44.568  27.627   5.833
 4355POPC   C1A55983  44.725  28.003   6.108
 4355POPC   D2A55984  44.615  27.745   6.508
 4355POPC   C3A55985  44.434  27.600   6.910
 4355POPC   C4A55986  44.552  27.680   7.365
 4355POPC   C1B55987  44.805  27.439   6.140
 4355POPC   C2B55988  44.684  27.241   6.536
 4355POPC   C3B55989  44.902  27.404   6.875
 4355POPC   C4B55990  44.978  27.386   7.266
 4356POPC   NC355991   2.480  40.505   5.407
 4356POPC   PO455992   1.959  40.973   5.273
 4356POPC   GL155993   2.259  40.897   5.658
 4356POPC   GL255994   2.182  40.541   5.810
 4356POPC   C1A55995   2.443  40.874   6.110
 4356POPC   D2A55996   2.171  40.893   6.484
 4356POPC   C3A55997   2.247  40.909   6.934
 4356POPC   C4A55998   1.848  40.998   7.180
 4356POPC   C1B55999   2.193  40.429   6.249
 4356POPC   C2B56000   2.378  40.409   6.670
 4356POPC   C3B56001   2.294  40.400   7.129
 4356POPC   C4B56002   2.424  40.201   7.528
 4357POPC   NC356003  27.456  30.329   5.556
 4357POPC   PO456004  27.725  29.778   5.294
 4357POPC   GL156005  27.750  29.957   5.746
 4357POPC   GL256006  27.747  29.657   5.922
 4357POPC   C1A56007  27.545  30.084   6.188
 4357POPC   D2A56008  27.377  29.825   6.569
 4357POPC   C3A56009  27.405  29.910   7.042
 4357POPC   C4A56010  27.698  30.034   7.404
 4357POPC   C1B56011  27.958  29.816   6.295
 4357POPC   C2B56012  27.876  29.991   6.702
 4357POPC   C3B56013  27.897  29.728   7.047
 4357POPC   C4B56014  27.588  29.401   7.188
 4358POPC   NC356015  21.494  14.220   5.521
 4358POPC   PO456016  21.455  13.543   5.370
 4358POPC   GL156017  21.603  13.488   5.802
 4358POPC   GL256018  21.619  13.849   5.899
 4358POPC   C1A56019  21.532  13.379   6.258
 4358POPC   D2A56020  21.381  13.578   6.647
 4358POPC   C3A56021  21.468  13.394   7.033
 4358POPC   C4A56022  21.226  13.381   7.403
 4358POPC   C1B56023  21.356  14.003   6.245
 4358POPC   C2B56024  21.366  14.090   6.697
 4358POPC   C3B56025  21.306  13.873   7.100
 4358POPC   C4B56026  21.479  13.830   7.516
 4359POPC   NC356027  11.890   0.310   5.488
 4359POPC   PO456028  11.154   0.371   5.412
 4359POPC   GL156029  11.405   0.370   5.795
 4359POPC   GL256030  11.493   0.725   5.798
 4359POPC   C1A56031  11.410   0.361   6.249
 4359POPC   D2A56032  11.511   0.153   6.637
 4359POPC   C3A56033  11.325   0.119   7.064
 4359POPC   C4A56034  11.600   0.217   7.459
 4359POPC   C1B56035  11.091   0.727   6.056
 4359POPC   C2B56036  11.089   0.685   6.509
 4359POPC   C3B56037  11.379   0.679   6.851
 4359POPC   C4B56038  11.281   0.577   7.255
 4360POPC   NC356039  32.310   3.867   5.417
 4360POPC   PO456040  32.088   3.227   5.454
 4360POPC   GL156041  32.160   3.476   5.785
 4360POPC   GL256042  32.297   3.183   5.947
 4360POPC   C1A56043  32.367   3.655   6.139
 4360POPC   D2A56044  32.556   3.434   6.480
 4360POPC   C3A56045  32.405   3.618   6.877
 4360POPC   C4A56046  32.401   3.557   7.296
 4360POPC   C1B56047  32.016   3.238   6.280
 4360POPC   C2B56048  32.111   3.231   6.694
 4360POPC   C3B56049  32.180   3.135   7.107
 4360POPC   C4B56050  31.867   3.040   7.373
 4361POPC   NC356051  33.663  21.892   5.314
 4361POPC   PO456052  34.196  22.380   5.367
 4361POPC   GL156053  33.961  22.198   5.686
 4361POPC   GL256054  34.162  22.011   5.944
 4361POPC   C1A56055  33.712  22.286   6.044
 4361POPC   D2A56056  33.840  22.167   6.443
 4361POPC   C3A56057  33.587  22.090   6.769
 4361POPC   C4A56058  33.523  22.336   7.094
 4361POPC   C1B56059  34.200  22.433   6.180
 4361POPC   C2B56060  34.108  22.549   6.633
 4361POPC   C3B56061  34.035  22.371   7.041
 4361POPC   C4B56062  33.925  22.572   7.455
 4362POPC   NC356063   8.499  44.316   5.440
 4362POPC   PO456064   8.187  43.895   5.139
 4362POPC   GL156065   8.257  43.991   5.710
 4362POPC   GL256066   8.225  43.718   5.938
 4362POPC   C1A56067   8.371  44.142   6.157
 4362POPC   D2A56068   8.274  43.820   6.498
 4362POPC   C3A56069   8.415  43.792   6.940
 4362POPC   C4A56070   8.308  43.908   7.353
 4362POPC   C1B56071   7.865  43.524   6.121
 4362POPC   C2B56072   7.853  43.288   6.491
 4362POPC   C3B56073   8.109  43.325   6.852
 4362POPC   C4B56074   8.100  43.464   7.263
 4363POPC   NC356075   5.413   2.448   5.641
 4363POPC   PO456076   5.697   1.860   5.307
 4363POPC   GL156077   5.659   1.918   5.772
 4363POPC   GL256078   5.991   1.953   5.922
 4363POPC   C1A56079   5.542   1.784   6.222
 4363POPC   D2A56080   5.598   2.002   6.650
 4363POPC   C3A56081   5.851   1.831   6.990
 4363POPC   C4A56082   5.634   1.630   7.371
 4363POPC   C1B56083   5.860   2.188   6.242
 4363POPC   C2B56084   6.048   2.246   6.627
 4363POPC   C3B56085   5.865   2.336   7.001
 4363POPC   C4B56086   6.203   2.417   7.215
 4364POPC   NC356087  13.374  38.019   5.587
 4364POPC   PO456088  13.965  37.602   5.540
 4364POPC   GL156089  13.580  37.596   5.784
 4364POPC   GL256090  13.727  37.423   6.043
 4364POPC   C1A56091  13.311  37.720   6.175
 4364POPC   D2A56092  13.471  37.908   6.586
 4364POPC   C3A56093  13.465  37.896   7.056
 4364POPC   C4A56094  13.537  37.533   7.334
 4364POPC   C1B56095  13.833  37.860   6.165
 4364POPC   C2B56096  13.986  37.931   6.582
 4364POPC   C3B56097  14.002  37.753   6.991
 4364POPC   C4B56098  13.877  37.926   7.372
 4365POPC   NC356099   1.337  38.596   5.534
 4365POPC   PO456100   1.159  37.915   5.344
 4365POPC   GL156101   1.248  38.153   5.777
 4365POPC   GL256102   1.043  38.456   5.931
 4365POPC   C1A56103   1.357  38.196   6.234
 4365POPC   D2A56104   1.138  38.390   6.603
 4365POPC   C3A56105   1.338  38.273   6.993
 4365POPC   C4A56106   1.591  38.412   7.322
 4365POPC   C1B56107   1.346  38.723   6.231
 4365POPC   C2B56108   1.515  38.730   6.700
 4365POPC   C3B56109   1.286  38.784   7.106
 4365POPC   C4B56110   0.915  38.910   7.320
 4366POPC   NC356111  44.236  11.918   5.138
 4366POPC   PO456112  43.636  11.964   5.345
 4366POPC   GL156113  43.819  12.233   5.693
 4366POPC   GL256114  43.993  11.954   5.750
 4366POPC   C1A56115  44.098  12.256   6.141
 4366POPC   D2A56116  44.208  12.080   6.565
 4366POPC   C3A56117  44.159  12.327   6.955
 4366POPC   C4A56118  43.769  12.395   7.170
 4366POPC   C1B56119  43.671  11.976   6.118
 4366POPC   C2B56120  43.733  11.772   6.525
 4366POPC   C3B56121  43.861  11.890   6.948
 4366POPC   C4B56122  43.588  11.931   7.291
 4367POPC   NC356123  41.103  19.349   5.045
 4367POPC   PO456124  40.825  18.921   5.467
 4367POPC   GL156125  40.899  19.002   5.900
 4367POPC   GL256126  41.155  18.765   5.909
 4367POPC   C1A56127  40.710  19.130   6.310
 4367POPC   D2A56128  40.553  19.513   6.519
 4367POPC   C3A56129  40.592  19.408   6.943
 4367POPC   C4A56130  40.697  18.985   7.123
 4367POPC   C1B56131  41.140  18.842   6.320
 4367POPC   C2B56132  40.989  18.835   6.723
 4367POPC   C3B56133  41.221  18.730   7.090
 4367POPC   C4B56134  41.121  18.908   7.479
 4368POPC   NC356135  30.641  41.683   5.397
 4368POPC   PO456136  30.808  41.055   5.327
 4368POPC   GL156137  30.909  41.281   5.757
 4368POPC   GL256138  30.666  41.544   5.875
 4368POPC   C1A56139  31.023  41.410   6.197
 4368POPC   D2A56140  30.936  41.637   6.559
 4368POPC   C3A56141  30.850  41.464   6.952
 4368POPC   C4A56142  30.809  41.704   7.332
 4368POPC   C1B56143  30.391  41.682   6.196
 4368POPC   C2B56144  30.417  41.617   6.617
 4368POPC   C3B56145  30.395  41.712   7.022
 4368POPC   C4B56146  30.275  41.518   7.396
 4369POPC   NC356147  36.788  22.032   5.445
 4369POPC   PO456148  37.407  21.777   5.417
 4369POPC   GL156149  37.149  21.884   5.782
 4369POPC   GL256150  37.212  22.213   5.688
 4369POPC   C1A56151  36.889  21.870   6.188
 4369POPC   D2A56152  36.793  22.127   6.562
 4369POPC   C3A56153  36.754  21.974   6.987
 4369POPC   C4A56154  36.448  21.982   7.313
 4369POPC   C1B56155  37.201  22.296   6.139
 4369POPC   C2B56156  37.091  22.531   6.512
 4369POPC   C3B56157  37.077  22.385   6.944
 4369POPC   C4B56158  37.369  22.125   7.207
 4370POPC   NC356159  13.299  23.187   5.484
 4370POPC   PO456160  13.413  23.895   5.462
 4370POPC   GL156161  13.550  23.554   5.768
 4370POPC   GL256162  13.921  23.479   5.757
 4370POPC   C1A56163  13.365  23.504   6.200
 4370POPC   D2A56164  13.556  23.695   6.578
 4370POPC   C3A56165  13.560  23.823   7.018
 4370POPC   C4A56166  13.494  23.980   7.428
 4370POPC   C1B56167  13.854  23.373   6.197
 4370POPC   C2B56168  13.761  23.254   6.627
 4370POPC   C3B56169  13.792  23.383   7.037
 4370POPC   C4B56170  13.916  23.662   7.350
 4371POPC   NC356171  33.712   2.055   5.595
 4371POPC   PO456172  33.362   1.507   5.409
 4371POPC   GL156173  33.647   1.575   5.802
 4371POPC   GL256174  33.979   1.780   5.922
 4371POPC   C1A56175  33.736   1.525   6.262
 4371POPC   D2A56176  33.797   1.895   6.496
 4371POPC   C3A56177  33.768   1.893   6.925
 4371POPC   C4A56178  34.007   1.836   7.323
 4371POPC   C1B56179  34.105   2.182   6.163
 4371POPC   C2B56180  34.044   2.347   6.590
 4371POPC   C3B56181  34.156   2.201   6.985
 4371POPC   C4B56182  34.093   2.354   7.386
 4372POPC   NC356183  19.556  38.507   5.349
 4372POPC   PO456184  20.207  38.470   5.413
 4372POPC   GL156185  19.844  38.427   5.765
 4372POPC   GL256186  19.631  38.732   5.842
 4372POPC   C1A56187  19.601  38.304   6.159
 4372POPC   D2A56188  19.720  38.071   6.549
 4372POPC   C3A56189  19.781  38.241   6.960
 4372POPC   C4A56190  19.732  38.025   7.336
 4372POPC   C1B56191  19.756  38.807   6.298
 4372POPC   C2B56192  19.849  38.861   6.774
 4372POPC   C3B56193  20.141  38.836   7.162
 4372POPC   C4B56194  20.267  38.618   7.580
 4373POPC   NC356195  16.974  31.847   5.611
 4373POPC   PO456196  16.610  31.399   5.268
 4373POPC   GL156197  16.682  31.459   5.787
 4373POPC   GL256198  16.326  31.450   5.865
 4373POPC   C1A56199  16.949  31.478   6.220
 4373POPC   D2A56200  17.131  31.371   6.658
 4373POPC   C3A56201  16.929  31.536   7.034
 4373POPC   C4A56202  16.812  31.222   7.340
 4373POPC   C1B56203  16.487  31.679   6.245
 4373POPC   C2B56204  16.570  31.475   6.648
 4373POPC   C3B56205  16.418  31.527   7.075
 4373POPC   C4B56206  16.202  31.895   7.194
 4374POPC   NC356207  14.250   8.472   5.631
 4374POPC   PO456208  14.543   8.043   5.251
 4374POPC   GL156209  14.631   8.094   5.729
 4374POPC   GL256210  14.703   8.435   5.896
 4374POPC   C1A56211  14.535   8.015   6.205
 4374POPC   D2A56212  14.494   8.167   6.661
 4374POPC   C3A56213  14.422   8.006   7.105
 4374POPC   C4A56214  14.729   7.823   7.410
 4374POPC   C1B56215  14.423   8.557   6.279
 4374POPC   C2B56216  14.137   8.519   6.686
 4374POPC   C3B56217  14.370   8.564   7.107
 4374POPC   C4B56218  14.175   8.494   7.530
 4375POPC   NC356219  15.506   7.675   5.412
 4375POPC   PO456220  14.969   7.283   5.399
 4375POPC   GL156221  15.187   7.451   5.756
 4375POPC   GL256222  15.143   7.156   5.920
 4375POPC   C1A56223  15.260   7.590   6.201
 4375POPC   D2A56224  15.515   7.850   6.483
 4375POPC   C3A56225  15.390   7.673   6.892
 4375POPC   C4A56226  15.028   7.504   7.134
 4375POPC   C1B56227  15.442   7.102   6.243
 4375POPC   C2B56228  15.277   7.211   6.636
 4375POPC   C3B56229  15.400   7.147   7.046
 4375POPC   C4B56230  15.116   7.076   7.409
 4376POPC   NC356231  32.678  40.239   5.361
 4376POPC   PO456232  32.012  40.048   5.479
 4376POPC   GL156233  32.157  39.866   5.846
 4376POPC   GL256234  32.464  40.002   5.836
 4376POPC   C1A56235  32.040  39.732   6.273
 4376POPC   D2A56236  32.005  39.847   6.713
 4376POPC   C3A56237  32.087  39.631   7.086
 4376POPC   C4A56238  32.037  39.851   7.482
 4376POPC   C1B56239  32.501  40.096   6.275
 4376POPC   C2B56240  32.320  40.231   6.661
 4376POPC   C3B56241  32.162  40.219   7.083
 4376POPC   C4B56242  32.093  40.573   7.387
 4377POPC   NC356243  16.964  10.902   5.569
 4377POPC   PO456244  16.446  10.422   5.562
 4377POPC   GL156245  16.704  10.557   5.873
 4377POPC   GL256246  16.546  10.924   5.876
 4377POPC   C1A56247  16.959  10.361   6.244
 4377POPC   D2A56248  16.989  10.507   6.690
 4377POPC   C3A56249  16.636  10.383   6.972
 4377POPC   C4A56250  16.700  10.246   7.393
 4377POPC   C1B56251  16.725  10.822   6.290
 4377POPC   C2B56252  16.691  10.990   6.664
 4377POPC   C3B56253  16.714  10.892   7.045
 4377POPC   C4B56254  16.541  10.782   7.426
 4378POPC   NC356255   0.814  38.235   5.352
 4378POPC   PO456256   0.174  38.324   5.295
 4378POPC   GL156257   0.427  38.465   5.683
 4378POPC   GL256258   0.142  38.533   5.890
 4378POPC   C1A56259   0.570  38.597   6.138
 4378POPC   D2A56260   0.306  38.517   6.528
 4378POPC   C3A56261   0.510  38.615   6.927
 4378POPC   C4A56262   0.864  38.449   7.117
 4378POPC   C1B56263   0.283  38.152   6.125
 4378POPC   C2B56264   0.263  37.980   6.534
 4378POPC   C3B56265   0.260  38.160   6.934
 4378POPC   C4B56266   0.414  38.250   7.321
 4379POPC   NC356267  22.943   9.547   5.449
 4379POPC   PO456268  22.749  10.204   5.417
 4379POPC   GL156269  22.803   9.920   5.769
 4379POPC   GL256270  23.199   9.880   5.757
 4379POPC   C1A56271  22.611   9.765   6.169
 4379POPC   D2A56272  22.839   9.801   6.568
 4379POPC   C3A56273  22.743   9.620   6.978
 4379POPC   C4A56274  22.837   9.910   7.349
 4379POPC   C1B56275  23.090   9.627   6.131
 4379POPC   C2B56276  23.127   9.395   6.528
 4379POPC   C3B56277  23.257   9.489   6.950
 4379POPC   C4B56278  23.061   9.453   7.350
 4380POPC   NC356279   6.082  24.603   5.280
 4380POPC   PO456280   5.543  24.238   5.391
 4380POPC   GL156281   5.805  24.350   5.779
 4380POPC   GL256282   6.129  24.576   5.781
 4380POPC   C1A56283   5.836  24.243   6.236
 4380POPC   D2A56284   5.638  24.535   6.543
 4380POPC   C3A56285   5.779  24.564   6.957
 4380POPC   C4A56286   6.130  24.319   7.103
 4380POPC   C1B56287   6.007  24.718   6.196
 4380POPC   C2B56288   6.175  24.572   6.604
 4380POPC   C3B56289   6.244  24.801   6.976
 4380POPC   C4B56290   5.970  24.897   7.312
 4381POPC   NC356291  10.614   9.358   5.324
 4381POPC   PO456292  10.914   8.809   5.582
 4381POPC   GL156293  10.456   8.834   5.682
 4381POPC   GL256294  10.279   9.155   5.795
 4381POPC   C1A56295  10.266   8.773   6.102
 4381POPC   D2A56296  10.442   8.941   6.470
 4381POPC   C3A56297  10.304   8.816   6.868
 4381POPC   C4A56298  10.622   8.816   7.163
 4381POPC   C1B56299  10.631   9.257   6.082
 4381POPC   C2B56300  10.712   9.436   6.488
 4381POPC   C3B56301  10.560   9.265   6.868
 4381POPC   C4B56302  10.167   9.311   7.110
 4382POPC   NC356303   3.943  28.094   5.455
 4382POPC   PO456304   4.383  28.671   5.454
 4382POPC   GL156305   4.207  28.436   5.779
 4382POPC   GL256306   4.530  28.293   5.929
 4382POPC   C1A56307   3.986  28.240   6.112
 4382POPC   D2A56308   3.891  28.288   6.554
 4382POPC   C3A56309   4.235  28.184   6.852
 4382POPC   C4A56310   4.183  28.299   7.311
 4382POPC   C1B56311   4.394  28.429   6.354
 4382POPC   C2B56312   4.246  28.666   6.697
 4382POPC   C3B56313   4.538  28.573   7.030
 4382POPC   C4B56314   4.664  28.367   7.431
 4383POPC   NC356315  22.376  12.052   5.451
 4383POPC   PO456316  21.994  11.800   5.813
 4383POPC   GL156317  22.251  12.056   5.956
 4383POPC   GL256318  22.162  12.356   5.784
 4383POPC   C1A56319  22.459  12.060   6.309
 4383POPC   D2A56320  22.496  12.182   6.687
 4383POPC   C3A56321  22.262  11.894   6.862
 4383POPC   C4A56322  22.407  11.744   7.238
 4383POPC   C1B56323  21.988  12.424   6.179
 4383POPC   C2B56324  21.975  12.182   6.506
 4383POPC   C3B56325  22.040  12.424   6.823
 4383POPC   C4B56326  22.251  12.292   7.148
 4384POPC   NC356327  41.804  30.859   5.410
 4384POPC   PO456328  41.262  30.408   5.339
 4384POPC   GL156329  41.403  30.655   5.708
 4384POPC   GL256330  41.748  30.648   5.873
 4384POPC   C1A56331  41.313  30.789   6.146
 4384POPC   D2A56332  41.149  30.746   6.552
 4384POPC   C3A56333  41.274  30.966   6.927
 4384POPC   C4A56334  41.350  30.653   7.250
 4384POPC   C1B56335  41.753  30.569   6.322
 4384POPC   C2B56336  41.707  30.754   6.735
 4384POPC   C3B56337  41.864  30.657   7.158
 4384POPC   C4B56338  42.077  30.925   7.460
 4385POPC   NC356339   4.785  10.337   5.431
 4385POPC   PO456340   5.339  10.573   5.383
 4385POPC   GL156341   5.206  10.341   5.764
 4385POPC   GL256342   4.922  10.135   5.882
 4385POPC   C1A56343   5.170  10.526   6.189
 4385POPC   D2A56344   4.976  10.434   6.569
 4385POPC   C3A56345   4.957  10.724   6.897
 4385POPC   C4A56346   4.981  10.677   7.317
 4385POPC   C1B56347   5.228  10.027   6.195
 4385POPC   C2B56348   5.393  10.121   6.604
 4385POPC   C3B56349   5.147  10.241   7.028
 4385POPC   C4B56350   4.834  10.182   7.392
 4386POPC   NC356351  25.720  33.587   5.379
 4386POPC   PO456352  26.323  33.979   5.494
 4386POPC   GL156353  26.250  33.869   5.895
 4386POPC   GL256354  26.035  33.610   5.800
 4386POPC   C1A56355  25.923  33.845   6.236
 4386POPC   D2A56356  25.686  33.930   6.609
 4386POPC   C3A56357  25.865  33.691   6.917
 4386POPC   C4A56358  26.038  33.788   7.315
 4386POPC   C1B56359  26.247  33.437   6.156
 4386POPC   C2B56360  26.295  33.646   6.584
 4386POPC   C3B56361  26.344  33.498   6.988
 4386POPC   C4B56362  26.026  33.292   7.203
 4387POPC   NC356363  43.206   3.560   5.349
 4387POPC   PO456364  42.748   4.011   5.359
 4387POPC   GL156365  42.915   3.727   5.727
 4387POPC   GL256366  43.304   3.713   5.821
 4387POPC   C1A56367  42.864   3.536   6.137
 4387POPC   D2A56368  42.692   3.564   6.560
 4387POPC   C3A56369  42.893   3.389   6.939
 4387POPC   C4A56370  42.840   3.619   7.314
 4387POPC   C1B56371  43.269   3.841   6.247
 4387POPC   C2B56372  43.202   3.700   6.664
 4387POPC   C3B56373  43.295   3.703   7.105
 4387POPC   C4B56374  43.665   3.760   7.394
 4388POPC   NC356375   7.500  22.316   5.444
 4388POPC   PO456376   6.916  22.007   5.658
 4388POPC   GL156377   7.273  22.137   5.847
 4388POPC   GL256378   7.239  22.516   5.885
 4388POPC   C1A56379   7.569  22.192   6.174
 4388POPC   D2A56380   7.500  22.478   6.503
 4388POPC   C3A56381   7.449  22.374   6.916
 4388POPC   C4A56382   7.199  22.572   7.222
 4388POPC   C1B56383   7.061  22.296   6.267
 4388POPC   C2B56384   7.064  21.979   6.608
 4388POPC   C3B56385   6.994  22.114   7.042
 4388POPC   C4B56386   7.083  22.134   7.488
 4389POPC   NC356387  21.806  17.111   5.411
 4389POPC   PO456388  21.327  16.702   5.552
 4389POPC   GL156389  21.285  16.904   5.935
 4389POPC   GL256390  21.597  17.071   5.883
 4389POPC   C1A56391  21.226  16.757   6.368
 4389POPC   D2A56392  21.066  16.823   6.782
 4389POPC   C3A56393  21.336  16.718   7.125
 4389POPC   C4A56394  21.493  16.518   7.471
 4389POPC   C1B56395  21.669  17.027   6.345
 4389POPC   C2B56396  21.643  16.973   6.808
 4389POPC   C3B56397  21.840  16.884   7.267
 4389POPC   C4B56398  21.932  17.044   7.720
 4390POPC   NC356399   8.807  38.725   5.312
 4390POPC   PO456400   9.184  38.304   5.557
 4390POPC   GL156401   8.989  38.611   5.786
 4390POPC   GL256402   8.721  38.382   5.827
 4390POPC   C1A56403   9.086  38.736   6.200
 4390POPC   D2A56404   8.932  38.615   6.591
 4390POPC   C3A56405   9.172  38.526   6.957
 4390POPC   C4A56406   8.995  38.483   7.361
 4390POPC   C1B56407   8.922  38.220   6.247
 4390POPC   C2B56408   8.917  38.119   6.717
 4390POPC   C3B56409   8.670  38.124   7.085
 4390POPC   C4B56410   8.756  38.046   7.508
 4391POPC   NC356411   2.183  41.384   5.391
 4391POPC   PO456412   1.729  41.939   5.393
 4391POPC   GL156413   1.832  41.762   5.765
 4391POPC   GL256414   2.177  41.707   5.836
 4391POPC   C1A56415   1.767  41.553   6.150
 4391POPC   D2A56416   1.914  41.615   6.556
 4391POPC   C3A56417   1.629  41.503   6.918
 4391POPC   C4A56418   1.807  41.496   7.316
 4391POPC   C1B56419   2.280  41.370   6.136
 4391POPC   C2B56420   2.389  41.361   6.576
 4391POPC   C3B56421   2.167  41.428   6.969
 4391POPC   C4B56422   2.267  41.223   7.363
 4392POPC   NC356423  25.900  14.702   5.361
 4392POPC   PO456424  26.183  14.146   5.274
 4392POPC   GL156425  26.051  14.315   5.694
 4392POPC   GL256426  26.316  14.532   5.880
 4392POPC   C1A56427  25.928  14.303   6.134
 4392POPC   D2A56428  26.161  14.107   6.485
 4392POPC   C3A56429  26.083  14.179   6.899
 4392POPC   C4A56430  26.126  14.400   7.260
 4392POPC   C1B56431  26.361  14.571   6.377
 4392POPC   C2B56432  26.262  14.674   6.843
 4392POPC   C3B56433  26.016  14.882   7.224
 4392POPC   C4B56434  25.752  14.659   7.536
 4393POPC   NC356435  13.215   0.846   5.438
 4393POPC   PO456436  12.709   1.137   5.304
 4393POPC   GL156437  12.874   1.112   5.739
 4393POPC   GL256438  12.802   1.447   5.802
 4393POPC   C1A56439  13.044   1.104   6.194
 4393POPC   D2A56440  12.793   0.926   6.571
 4393POPC   C3A56441  12.907   1.055   6.998
 4393POPC   C4A56442  13.123   1.205   7.366
 4393POPC   C1B56443  12.570   1.298   6.159
 4393POPC   C2B56444  12.477   1.338   6.582
 4393POPC   C3B56445  12.597   1.468   6.983
 4393POPC   C4B56446  12.507   1.247   7.359
 4394POPC   NC356447   7.767   6.284   5.430
 4394POPC   PO456448   8.325   6.418   5.797
 4394POPC   GL156449   8.287   6.782   5.988
 4394POPC   GL256450   7.934   6.786   6.071
 4394POPC   C1A56451   8.407   6.798   6.395
 4394POPC   D2A56452   8.220   6.715   6.766
 4394POPC   C3A56453   8.480   6.799   7.058
 4394POPC   C4A56454   8.514   7.085   7.367
 4394POPC   C1B56455   8.024   6.414   6.380
 4394POPC   C2B56456   7.954   6.297   6.820
 4394POPC   C3B56457   8.256   6.321   7.206
 4394POPC   C4B56458   8.274   6.264   7.682
 4395POPC   NC356459  39.258  22.630   5.379
 4395POPC   PO456460  39.162  22.024   5.534
 4395POPC   GL156461  39.293  22.316   5.826
 4395POPC   GL256462  39.591  22.511   5.758
 4395POPC   C1A56463  39.237  22.201   6.246
 4395POPC   D2A56464  39.271  22.331   6.647
 4395POPC   C3A56465  39.012  22.233   6.998
 4395POPC   C4A56466  39.057  22.336   7.434
 4395POPC   C1B56467  39.691  22.477   6.183
 4395POPC   C2B56468  39.808  22.356   6.598
 4395POPC   C3B56469  39.627  22.241   6.999
 4395POPC   C4B56470  39.538  22.398   7.384
 4396POPC   NC356471  11.023  40.140   5.412
 4396POPC   PO456472  11.460  39.648   5.426
 4396POPC   GL156473  11.411  39.948   5.784
 4396POPC   GL256474  11.080  39.953   5.892
 4396POPC   C1A56475  11.444  40.008   6.254
 4396POPC   D2A56476  11.302  39.852   6.668
 4396POPC   C3A56477  11.557  39.986   7.029
 4396POPC   C4A56478  11.704  39.720   7.361
 4396POPC   C1B56479  10.922  39.977   6.310
 4396POPC   C2B56480  10.858  40.144   6.739
 4396POPC   C3B56481  11.043  40.084   7.164
 4396POPC   C4B56482  10.943  40.045   7.625
 4397POPC   NC356483  27.729  19.813   5.296
 4397POPC   PO456484  27.128  19.797   5.620
 4397POPC   GL156485  27.399  19.848   5.960
 4397POPC   GL256486  27.528  19.511   5.970
 4397POPC   C1A56487  27.557  19.960   6.400
 4397POPC   D2A56488  27.914  20.209   6.607
 4397POPC   C3A56489  28.106  19.980   6.891
 4397POPC   C4A56490  27.945  19.580   7.031
 4397POPC   C1B56491  27.342  19.471   6.386
 4397POPC   C2B56492  27.459  19.593   6.796
 4397POPC   C3B56493  27.574  19.987   6.953
 4397POPC   C4B56494  27.448  20.151   7.320
 4398POPC   NC356495   8.077  13.107   5.527
 4398POPC   PO456496   8.450  12.553   5.505
 4398POPC   GL156497   8.369  12.815   5.859
 4398POPC   GL256498   8.662  12.995   5.867
 4398POPC   C1A56499   8.055  12.824   6.189
 4398POPC   D2A56500   7.902  12.740   6.611
 4398POPC   C3A56501   8.214  12.937   6.845
 4398POPC   C4A56502   8.393  12.817   7.199
 4398POPC   C1B56503   8.467  13.159   6.275
 4398POPC   C2B56504   8.478  13.392   6.660
 4398POPC   C3B56505   8.573  13.276   7.076
 4398POPC   C4B56506   8.299  13.278   7.444
 4399POPC   NC356507  16.292  19.136   5.054
 4399POPC   PO456508  16.882  19.012   5.397
 4399POPC   GL156509  16.737  18.968   5.824
 4399POPC   GL256510  16.908  18.650   5.869
 4399POPC   C1A56511  16.518  19.084   6.246
 4399POPC   D2A56512  16.433  19.181   6.718
 4399POPC   C3A56513  16.801  19.181   7.005
 4399POPC   C4A56514  17.182  19.315   7.217
 4399POPC   C1B56515  16.831  18.685   6.304
 4399POPC   C2B56516  16.785  18.727   6.735
 4399POPC   C3B56517  16.853  18.700   7.170
 4399POPC   C4B56518  16.536  18.872   7.422
 4400POPC   NC356519  38.660  41.973   5.451
 4400POPC   PO456520  38.066  41.527   5.460
 4400POPC   GL156521  38.352  41.627   5.804
 4400POPC   GL256522  38.611  41.374   5.732
 4400POPC   C1A56523  38.429  41.826   6.246
 4400POPC   D2A56524  38.244  41.683   6.640
 4400POPC   C3A56525  38.268  41.800   7.067
 4400POPC   C4A56526  38.331  41.501   7.423
 4400POPC   C1B56527  38.732  41.427   6.157
 4400POPC   C2B56528  38.792  41.617   6.599
 4400POPC   C3B56529  38.769  41.707   7.057
 4400POPC   C4B56530  38.633  41.899   7.477
 4401POPC   NC356531  28.968   4.943   5.446
 4401POPC   PO456532  28.895   5.597   5.423
 4401POPC   GL156533  29.074   5.310   5.745
 4401POPC   GL256534  29.401   5.237   5.592
 4401POPC   C1A56535  29.046   5.101   6.150
 4401POPC   D2A56536  29.151   5.302   6.540
 4401POPC   C3A56537  28.929   5.169   6.928
 4401POPC   C4A56538  28.882   5.060   7.418
 4401POPC   C1B56539  29.509   5.228   6.037
 4401POPC   C2B56540  29.637   5.109   6.471
 4401POPC   C3B56541  29.454   5.099   6.907
 4401POPC   C4B56542  29.510   4.927   7.330
 4402POPC   NC356543   7.504  38.024   5.598
 4402POPC   PO456544   7.810  37.451   5.462
 4402POPC   GL156545   7.664  37.637   5.865
 4402POPC   GL256546   7.296  37.634   5.860
 4402POPC   C1A56547   7.536  37.529   6.283
 4402POPC   D2A56548   7.144  37.459   6.560
 4402POPC   C3A56549   7.326  37.547   6.951
 4402POPC   C4A56550   7.500  37.403   7.307
 4402POPC   C1B56551   7.118  37.832   6.239
 4402POPC   C2B56552   7.270  37.961   6.636
 4402POPC   C3B56553   7.179  38.079   7.030
 4402POPC   C4B56554   7.063  38.232   7.412
 4403POPC   NC356555  15.632  12.074   5.471
 4403POPC   PO456556  16.203  12.213   5.344
 4403POPC   GL156557  16.087  12.121   5.748
 4403POPC   GL256558  16.213  12.407   5.893
 4403POPC   C1A56559  16.063  11.944   6.168
 4403POPC   D2A56560  15.969  11.686   6.550
 4403POPC   C3A56561  15.728  11.900   6.835
 4403POPC   C4A56562  15.644  11.804   7.254
 4403POPC   C1B56563  16.151  12.432   6.311
 4403POPC   C2B56564  16.164  12.188   6.683
 4403POPC   C3B56565  16.111  12.084   7.127
 4403POPC   C4B56566  16.284  12.154   7.514
 4404POPC   NC356567  24.859  41.491   5.436
 4404POPC   PO456568  25.524  41.786   5.569
 4404POPC   GL156569  25.223  41.658   5.877
 4404POPC   GL256570  24.960  41.426   5.943
 4404POPC   C1A56571  25.359  41.507   6.270
 4404POPC   D2A56572  25.312  41.323   6.639
 4404POPC   C3A56573  25.526  41.500   6.950
 4404POPC   C4A56574  25.552  41.169   7.200
 4404POPC   C1B56575  24.882  41.301   6.371
 4404POPC   C2B56576  24.872  41.107   6.784
 4404POPC   C3B56577  25.052  41.289   7.162
 4404POPC   C4B56578  25.172  41.051   7.564
 4405POPC   NC356579   9.799  30.132   5.546
 4405POPC   PO456580   9.442  29.591   5.375
 4405POPC   GL156581   9.608  29.696   5.790
 4405POPC   GL256582   9.714  29.404   5.922
 4405POPC   C1A56583   9.520  29.952   6.192
 4405POPC   D2A56584   9.632  30.115   6.632
 4405POPC   C3A56585   9.477  29.898   7.020
 4405POPC   C4A56586   9.572  30.054   7.424
 4405POPC   C1B56587   9.917  29.621   6.253
 4405POPC   C2B56588  10.046  29.724   6.686
 4405POPC   C3B56589  10.000  29.997   7.063
 4405POPC   C4B56590  10.005  29.818   7.488
 4406POPC   NC356591  37.062   8.969   5.330
 4406POPC   PO456592  36.580   9.389   5.349
 4406POPC   GL156593  36.823   9.172   5.761
 4406POPC   GL256594  37.137   8.899   5.823
 4406POPC   C1A56595  36.912   9.111   6.240
 4406POPC   D2A56596  37.002   8.859   6.627
 4406POPC   C3A56597  36.899   9.041   7.030
 4406POPC   C4A56598  36.743   9.442   7.168
 4406POPC   C1B56599  37.341   8.746   6.220
 4406POPC   C2B56600  37.481   8.661   6.654
 4406POPC   C3B56601  37.210   8.637   7.061
 4406POPC   C4B56602  37.243   9.001   7.391
 4407POPC   NC356603  15.583  18.125   5.122
 4407POPC   PO456604  16.005  18.717   5.438
 4407POPC   GL156605  15.878  18.414   5.846
 4407POPC   GL256606  15.708  18.083   5.779
 4407POPC   C1A56607  16.075  18.167   6.159
 4407POPC   D2A56608  15.941  18.271   6.557
 4407POPC   C3A56609  16.128  18.099   6.882
 4407POPC   C4A56610  16.001  18.320   7.258
 4407POPC   C1B56611  15.572  18.089   6.195
 4407POPC   C2B56612  15.445  18.095   6.619
 4407POPC   C3B56613  15.654  17.970   7.007
 4407POPC   C4B56614  15.657  18.016   7.458
 4408POPC   NC356615  21.798  23.021   5.364
 4408POPC   PO456616  22.411  23.121   5.207
 4408POPC   GL156617  22.326  22.915   5.659
 4408POPC   GL256618  22.035  22.691   5.660
 4408POPC   C1A56619  22.134  22.979   6.112
 4408POPC   D2A56620  21.972  23.260   6.466
 4408POPC   C3A56621  22.005  23.103   6.904
 4408POPC   C4A56622  22.199  22.989   7.308
 4408POPC   C1B56623  21.872  22.546   6.060
 4408POPC   C2B56624  22.104  22.498   6.468
 4408POPC   C3B56625  22.192  22.616   6.899
 4408POPC   C4B56626  21.857  22.633   7.215
 4409POPC   NC356627  26.148   3.350   5.414
 4409POPC   PO456628  25.810   3.999   5.462
 4409POPC   GL156629  26.048   3.723   5.806
 4409POPC   GL256630  26.126   3.323   5.912
 4409POPC   C1A56631  25.988   3.650   6.267
 4409POPC   D2A56632  26.128   3.270   6.514
 4409POPC   C3A56633  26.153   3.420   6.933
 4409POPC   C4A56634  25.979   3.794   7.142
 4409POPC   C1B56635  25.730   3.223   6.150
 4409POPC   C2B56636  25.512   3.382   6.524
 4409POPC   C3B56637  25.610   3.400   6.953
 4409POPC   C4B56638  25.845   3.091   7.181
 4410POPC   NC356639  39.458  42.576   5.472
 4410POPC   PO456640  38.833  42.346   5.205
 4410POPC   GL156641  39.055  42.408   5.685
 4410POPC   GL256642  39.190  42.123   5.884
 4410POPC   C1A56643  39.030  42.551   6.156
 4410POPC   D2A56644  38.907  42.533   6.615
 4410POPC   C3A56645  39.159  42.305   6.922
 4410POPC   C4A56646  39.033  42.484   7.322
 4410POPC   C1B56647  39.385  42.206   6.327
 4410POPC   C2B56648  39.625  42.038   6.692
 4410POPC   C3B56649  39.786  42.120   7.095
 4410POPC   C4B56650  39.532  42.385   7.327
 4411POPC   NC356651  14.232  40.362   5.389
 4411POPC   PO456652  14.526  40.996   5.356
 4411POPC   GL156653  14.592  40.955   5.801
 4411POPC   GL256654  14.677  40.625   5.741
 4411POPC   C1A56655  14.483  40.914   6.257
 4411POPC   D2A56656  14.552  41.026   6.693
 4411POPC   C3A56657  14.347  40.811   7.037
 4411POPC   C4A56658  14.235  40.997   7.490
 4411POPC   C1B56659  14.588  40.436   6.148
 4411POPC   C2B56660  14.439  40.454   6.590
 4411POPC   C3B56661  14.677  40.425   6.980
 4411POPC   C4B56662  14.903  40.679   7.282
 4412POPC   NC356663  12.914  31.623   5.473
 4412POPC   PO456664  12.334  31.224   5.479
 4412POPC   GL156665  12.571  31.378   5.816
 4412POPC   GL256666  12.601  31.718   5.901
 4412POPC   C1A56667  12.814  31.307   6.176
 4412POPC   D2A56668  12.683  31.116   6.542
 4412POPC   C3A56669  12.742  31.331   6.904
 4412POPC   C4A56670  12.530  31.346   7.254
 4412POPC   C1B56671  13.004  31.793   6.112
 4412POPC   C2B56672  13.141  31.849   6.527
 4412POPC   C3B56673  13.079  31.697   6.935
 4412POPC   C4B56674  12.669  31.861   7.169
 4413POPC   NC356675  35.614   8.459   5.414
 4413POPC   PO456676  35.613   9.170   5.478
 4413POPC   GL156677  35.450   9.272   5.882
 4413POPC   GL256678  35.114   9.168   5.842
 4413POPC   C1A56679  35.431   9.106   6.300
 4413POPC   D2A56680  35.610   8.791   6.578
 4413POPC   C3A56681  35.466   8.786   7.025
 4413POPC   C4A56682  35.576   9.218   7.199
 4413POPC   C1B56683  34.935   9.277   6.232
 4413POPC   C2B56684  34.847   9.163   6.622
 4413POPC   C3B56685  35.132   9.165   6.913
 4413POPC   C4B56686  35.091   9.033   7.286
 4414POPC   NC356687   3.136   0.625   5.273
 4414POPC   PO456688   2.446   0.326   5.251
 4414POPC   GL156689   2.517   0.186   5.698
 4414POPC   GL256690   2.891   0.170   5.791
 4414POPC   C1A56691   2.543   0.355   6.132
 4414POPC   D2A56692   2.761   0.463   6.538
 4414POPC   C3A56693   2.697   0.316   6.958
 4414POPC   C4A56694   2.715   0.607   7.311
 4414POPC   C1B56695   2.974   0.085   6.233
 4414POPC   C2B56696   2.946  44.941   6.667
 4414POPC   C3B56697   3.126   0.053   7.039
 4414POPC   C4B56698   2.967   0.152   7.439
 4415POPC   NC356699  16.932   6.715   5.252
 4415POPC   PO456700  16.337   6.729   5.272
 4415POPC   GL156701  16.589   6.725   5.671
 4415POPC   GL256702  16.948   6.782   5.765
 4415POPC   C1A56703  16.535   6.784   6.107
 4415POPC   D2A56704  16.495   6.611   6.505
 4415POPC   C3A56705  16.366   6.852   6.844
 4415POPC   C4A56706  16.541   6.803   7.243
 4415POPC   C1B56707  17.009   6.528   6.145
 4415POPC   C2B56708  16.952   6.393   6.566
 4415POPC   C3B56709  17.011   6.626   6.953
 4415POPC   C4B56710  17.311   6.720   7.255
 4416POPC   NC356711  14.571  10.098   5.274
 4416POPC   PO456712  14.094   9.644   5.460
 4416POPC   GL156713  14.234   9.788   5.837
 4416POPC   GL256714  14.549   9.697   5.793
 4416POPC   C1A56715  14.314   9.551   6.229
 4416POPC   D2A56716  14.553   9.452   6.628
 4416POPC   C3A56717  14.439   9.661   7.008
 4416POPC   C4A56718  14.157   9.941   7.188
 4416POPC   C1B56719  14.734   9.863   6.189
 4416POPC   C2B56720  14.805  10.014   6.622
 4416POPC   C3B56721  14.602  10.183   6.986
 4416POPC   C4B56722  14.658  10.162   7.415
 4417POPC   NC356723  23.299  34.475   5.397
 4417POPC   PO456724  22.656  34.717   5.340
 4417POPC   GL156725  22.876  34.492   5.724
 4417POPC   GL256726  23.238  34.632   5.875
 4417POPC   C1A56727  22.922  34.394   6.177
 4417POPC   D2A56728  23.082  34.617   6.532
 4417POPC   C3A56729  22.838  34.438   6.875
 4417POPC   C4A56730  22.682  34.592   7.239
 4417POPC   C1B56731  23.439  34.897   6.198
 4417POPC   C2B56732  23.504  35.060   6.621
 4417POPC   C3B56733  23.392  34.842   6.996
 4417POPC   C4B56734  23.185  34.574   7.243
 4418POPC   NC356735   6.949   6.180   5.400
 4418POPC   PO456736   6.408   5.680   5.382
 4418POPC   GL156737   6.621   5.928   5.687
 4418POPC   GL256738   6.934   5.784   5.738
 4418POPC   C1A56739   6.565   5.922   6.109
 4418POPC   D2A56740   6.380   5.829   6.490
 4418POPC   C3A56741   6.480   5.987   6.876
 4418POPC   C4A56742   6.532   5.832   7.279
 4418POPC   C1B56743   7.053   5.928   6.159
 4418POPC   C2B56744   6.894   5.789   6.552
 4418POPC   C3B56745   6.982   5.909   6.953
 4418POPC   C4B56746   6.996   6.008   7.362
 4419POPC   NC356747  39.941   8.172   5.454
 4419POPC   PO456748  40.600   7.869   5.505
 4419POPC   GL156749  40.278   7.975   5.835
 4419POPC   GL256750  40.189   8.310   5.864
 4419POPC   C1A56751  40.135   8.046   6.291
 4419POPC   D2A56752  39.964   7.892   6.691
 4419POPC   C3A56753  40.305   7.882   7.000
 4419POPC   C4A56754  40.302   8.150   7.334
 4419POPC   C1B56755  39.746   8.316   6.074
 4419POPC   C2B56756  39.758   8.483   6.506
 4419POPC   C3B56757  39.960   8.426   6.893
 4419POPC   C4B56758  39.816   8.284   7.279
 4420POPC   NC356759  23.144   6.378   5.416
 4420POPC   PO456760  22.807   7.029   5.552
 4420POPC   GL156761  23.017   6.703   5.800
 4420POPC   GL256762  22.885   6.360   5.843
 4420POPC   C1A56763  23.189   6.647   6.228
 4420POPC   D2A56764  23.103   6.861   6.626
 4420POPC   C3A56765  23.055   6.689   7.027
 4420POPC   C4A56766  23.096   6.743   7.483
 4420POPC   C1B56767  22.637   6.238   6.183
 4420POPC   C2B56768  22.750   6.386   6.585
 4420POPC   C3B56769  22.808   6.221   6.970
 4420POPC   C4B56770  22.810   6.362   7.356
 4421POPC   NC356771   7.452  25.321   5.244
 4421POPC   PO456772   7.976  24.877   5.307
 4421POPC   GL156773   7.731  25.120   5.670
 4421POPC   GL256774   7.327  25.189   5.723
 4421POPC   C1A56775   7.673  25.298   6.106
 4421POPC   D2A56776   7.459  25.297   6.520
 4421POPC   C3A56777   7.713  25.232   6.880
 4421POPC   C4A56778   7.544  25.264   7.271
 4421POPC   C1B56779   7.233  25.020   6.122
 4421POPC   C2B56780   7.070  24.934   6.532
 4421POPC   C3B56781   7.229  25.023   6.929
 4421POPC   C4B56782   7.180  24.904   7.350
 4422POPC   NC356783   5.968  38.576   5.263
 4422POPC   PO456784   5.605  38.012   5.275
 4422POPC   GL156785   5.690  38.337   5.641
 4422POPC   GL256786   6.059  38.468   5.764
 4422POPC   C1A56787   5.623  38.676   5.947
 4422POPC   D2A56788   5.725  38.724   6.393
 4422POPC   C3A56789   5.540  38.563   6.763
 4422POPC   C4A56790   5.683  38.460   7.179
 4422POPC   C1B56791   6.208  38.476   6.232
 4422POPC   C2B56792   6.101  38.522   6.692
 4422POPC   C3B56793   6.218  38.477   7.125
 4422POPC   C4B56794   6.054  38.322   7.533
 4423POPC   NC356795   3.904  41.629   5.710
 4423POPC   PO456796   4.175  41.151   5.301
 4423POPC   GL156797   4.418  41.507   5.677
 4423POPC   GL256798   4.543  41.383   6.033
 4423POPC   C1A56799   4.490  41.851   6.074
 4423POPC   D2A56800   4.488  41.837   6.573
 4423POPC   C3A56801   4.136  41.672   6.870
 4423POPC   C4A56802   4.183  41.665   7.336
 4423POPC   C1B56803   4.697  41.150   6.358
 4423POPC   C2B56804   4.445  41.274   6.684
 4423POPC   C3B56805   4.538  41.431   7.062
 4423POPC   C4B56806   4.540  41.219   7.433
 4424POPC   NC356807  15.872   5.682   5.543
 4424POPC   PO456808  16.323   6.274   5.596
 4424POPC   GL156809  16.004   6.104   5.843
 4424POPC   GL256810  16.161   5.798   5.966
 4424POPC   C1A56811  15.721   6.052   6.202
 4424POPC   D2A56812  15.931   5.979   6.589
 4424POPC   C3A56813  15.716   5.968   6.965
 4424POPC   C4A56814  15.900   6.076   7.297
 4424POPC   C1B56815  15.837   5.541   6.214
 4424POPC   C2B56816  15.807   5.480   6.663
 4424POPC   C3B56817  16.057   5.587   7.008
 4424POPC   C4B56818  15.807   5.585   7.332
 4425POPC   NC356819   8.699  40.828   5.330
 4425POPC   PO456820   9.340  40.651   5.283
 4425POPC   GL156821   9.097  40.633   5.672
 4425POPC   GL256822   8.737  40.514   5.723
 4425POPC   C1A56823   9.223  40.607   6.101
 4425POPC   D2A56824   9.167  40.813   6.500
 4425POPC   C3A56825   9.298  40.713   6.934
 4425POPC   C4A56826   9.166  40.427   7.280
 4425POPC   C1B56827   8.715  40.752   6.104
 4425POPC   C2B56828   8.655  40.898   6.503
 4425POPC   C3B56829   8.803  40.658   6.857
 4425POPC   C4B56830   8.710  40.633   7.285
 4426POPC   NC356831   0.334  33.769   5.381
 4426POPC   PO456832   0.953  33.501   5.359
 4426POPC   GL156833   0.717  33.692   5.769
 4426POPC   GL256834   0.551  34.032   5.762
 4426POPC   C1A56835   0.440  33.716   6.184
 4426POPC   D2A56836   0.294  33.542   6.599
 4426POPC   C3A56837   0.533  33.733   6.953
 4426POPC   C4A56838   0.382  33.688   7.385
 4426POPC   C1B56839   0.394  34.237   6.162
 4426POPC   C2B56840   0.332  34.135   6.623
 4426POPC   C3B56841   0.147  34.066   7.045
 4426POPC   C4B56842   0.123  34.132   7.493
 4427POPC   NC356843  23.593   2.529   5.548
 4427POPC   PO456844  24.067   2.987   5.382
 4427POPC   GL156845  23.967   2.781   5.802
 4427POPC   GL256846  23.638   2.872   5.932
 4427POPC   C1A56847  23.963   2.624   6.261
 4427POPC   D2A56848  23.997   2.762   6.709
 4427POPC   C3A56849  23.670   2.758   7.011
 4427POPC   C4A56850  23.705   2.656   7.429
 4427POPC   C1B56851  23.692   3.071   6.332
 4427POPC   C2B56852  23.379   2.975   6.637
 4427POPC   C3B56853  23.217   3.073   7.019
 4427POPC   C4B56854  23.398   3.411   7.220
 4428POPC   NC356855  15.393  44.908   5.077
 4428POPC   PO456856  14.926  44.638   5.525
 4428POPC   GL156857  15.089  44.585   5.907
 4428POPC   GL256858  15.378  44.750   5.868
 4428POPC   C1A56859  15.078  44.538   6.343
 4428POPC   D2A56860  14.948  44.483   6.764
 4428POPC   C3A56861  15.242  44.539   7.113
 4428POPC   C4A56862  15.165  44.805   7.462
 4428POPC   C1B56863  15.487  44.886   6.253
 4428POPC   C2B56864  15.345  44.857   6.672
 4428POPC   C3B56865  15.442  44.994   7.050
 4428POPC   C4B56866  15.662  44.894   7.403
 4429POPC   NC356867  44.590   4.495   5.508
 4429POPC   PO456868  44.656   3.854   5.340
 4429POPC   GL156869  44.522   4.045   5.730
 4429POPC   GL256870  44.849   4.200   5.823
 4429POPC   C1A56871  44.484   4.162   6.156
 4429POPC   D2A56872  44.643   4.304   6.544
 4429POPC   C3A56873  44.575   4.160   6.949
 4429POPC   C4A56874  44.503   4.295   7.336
 4429POPC   C1B56875  44.869   4.555   6.135
 4429POPC   C2B56876  44.933   4.719   6.571
 4429POPC   C3B56877  44.812   4.633   7.011
 4429POPC   C4B56878   0.103   4.622   7.360
 4430POPC   NC356879   4.006  24.392   5.655
 4430POPC   PO456880   4.609  24.482   5.331
 4430POPC   GL156881   4.491  24.624   5.774
 4430POPC   GL256882   4.630  24.966   5.783
 4430POPC   C1A56883   4.350  24.519   6.229
 4430POPC   D2A56884   4.118  24.435   6.624
 4430POPC   C3A56885   4.289  24.586   6.993
 4430POPC   C4A56886   4.127  24.515   7.445
 4430POPC   C1B56887   4.707  24.897   6.243
 4430POPC   C2B56888   4.764  24.922   6.721
 4430POPC   C3B56889   4.656  24.886   7.172
 4430POPC   C4B56890   4.500  24.823   7.590
 4431POPC   NC356891  31.764  29.795   5.540
 4431POPC   PO456892  31.156  30.061   5.459
 4431POPC   GL156893  31.297  29.878   5.824
 4431POPC   GL256894  31.511  30.146   5.856
 4431POPC   C1A56895  31.348  29.898   6.293
 4431POPC   D2A56896  31.198  30.061   6.707
 4431POPC   C3A56897  31.364  29.835   7.068
 4431POPC   C4A56898  31.437  29.886   7.500
 4431POPC   C1B56899  31.668  30.328   6.218
 4431POPC   C2B56900  31.522  30.458   6.629
 4431POPC   C3B56901  31.518  30.318   7.083
 4431POPC   C4B56902  31.786  30.277   7.452
 4432POPC   NC356903  34.994  39.126   5.526
 4432POPC   PO456904  34.362  39.477   5.406
 4432POPC   GL156905  34.563  39.357   5.774
 4432POPC   GL256906  34.507  39.018   5.720
 4432POPC   C1A56907  34.400  39.272   6.181
 4432POPC   D2A56908  34.344  39.409   6.586
 4432POPC   C3A56909  34.600  39.259   6.885
 4432POPC   C4A56910  34.475  39.211   7.287
 4432POPC   C1B56911  34.766  38.939   6.100
 4432POPC   C2B56912  34.724  38.890   6.556
 4432POPC   C3B56913  34.907  38.871   6.999
 4432POPC   C4B56914  34.827  38.920   7.482
 4433POPC   NC356915  33.673  11.675   5.504
 4433POPC   PO456916  34.220  11.301   5.529
 4433POPC   GL156917  33.849  11.167   5.735
 4433POPC   GL256918  33.647  11.367   5.885
 4433POPC   C1A56919  33.805  11.028   6.203
 4433POPC   D2A56920  34.167  11.041   6.496
 4433POPC   C3A56921  34.048  11.141   6.918
 4433POPC   C4A56922  33.669  11.108   7.106
 4433POPC   C1B56923  33.589  11.646   6.197
 4433POPC   C2B56924  33.429  11.769   6.594
 4433POPC   C3B56925  33.619  11.793   7.001
 4433POPC   C4B56926  33.829  11.552   7.315
 4434POPC   NC356927  23.450  40.799   5.341
 4434POPC   PO456928  23.966  40.379   5.573
 4434POPC   GL156929  23.852  40.719   5.847
 4434POPC   GL256930  23.577  40.956   5.848
 4434POPC   C1A56931  23.954  40.770   6.292
 4434POPC   D2A56932  24.015  40.932   6.712
 4434POPC   C3A56933  23.955  40.637   7.067
 4434POPC   C4A56934  23.906  40.303   7.405
 4434POPC   C1B56935  23.693  41.206   6.246
 4434POPC   C2B56936  23.604  41.198   6.703
 4434POPC   C3B56937  23.762  41.151   7.134
 4434POPC   C4B56938  23.626  41.233   7.555
 4435POPC   NC356939  13.730  20.230   5.560
 4435POPC   PO456940  13.346  19.622   5.492
 4435POPC   GL156941  13.477  19.743   5.898
 4435POPC   GL256942  13.848  19.793   5.874
 4435POPC   C1A56943  13.483  19.767   6.347
 4435POPC   D2A56944  13.712  19.801   6.717
 4435POPC   C3A56945  13.494  19.885   7.090
 4435POPC   C4A56946  13.622  19.750   7.489
 4435POPC   C1B56947  13.747  20.152   6.186
 4435POPC   C2B56948  13.801  20.319   6.587
 4435POPC   C3B56949  13.895  20.205   7.018
 4435POPC   C4B56950  13.672  20.286   7.413
 4436POPC   NC356951   1.709  35.315   5.584
 4436POPC   PO456952   2.167  34.950   5.267
 4436POPC   GL156953   2.179  35.003   5.733
 4436POPC   GL256954   2.194  35.365   5.844
 4436POPC   C1A56955   2.033  35.023   6.174
 4436POPC   D2A56956   1.776  35.123   6.517
 4436POPC   C3A56957   1.993  35.148   6.876
 4436POPC   C4A56958   1.869  35.069   7.279
 4436POPC   C1B56959   1.966  35.553   6.230
 4436POPC   C2B56960   1.789  35.599   6.695
 4436POPC   C3B56961   1.957  35.570   7.155
 4436POPC   C4B56962   2.407  35.485   7.243
 4437POPC   NC356963  29.127  24.128   5.395
 4437POPC   PO456964  29.454  24.770   5.384
 4437POPC   GL156965  29.297  24.572   5.798
 4437POPC   GL256966  28.981  24.440   5.810
 4437POPC   C1A56967  29.322  24.383   6.236
 4437POPC   D2A56968  29.069  24.394   6.642
 4437POPC   C3A56969  29.283  24.440   7.037
 4437POPC   C4A56970  29.420  24.051   7.102
 4437POPC   C1B56971  28.832  24.588   6.214
 4437POPC   C2B56972  28.835  24.847   6.585
 4437POPC   C3B56973  28.894  24.756   7.030
 4437POPC   C4B56974  28.893  24.565   7.452
 4438POPC   NC356975  23.776  12.646   4.864
 4438POPC   PO456976  23.979  13.129   5.368
 4438POPC   GL156977  23.867  12.902   5.747
 4438POPC   GL256978  23.606  12.667   5.634
 4438POPC   C1A56979  23.877  13.012   6.209
 4438POPC   D2A56980  23.778  13.256   6.601
 4438POPC   C3A56981  23.514  13.080   6.939
 4438POPC   C4A56982  23.629  12.941   7.342
 4438POPC   C1B56983  23.522  12.671   6.102
 4438POPC   C2B56984  23.603  12.748   6.561
 4438POPC   C3B56985  23.683  12.555   6.991
 4438POPC   C4B56986  23.651  12.442   7.451
 4439POPC   NC356987  37.423  37.046   5.411
 4439POPC   PO456988  38.032  36.761   5.439
 4439POPC   GL156989  37.869  36.980   5.803
 4439POPC   GL256990  37.545  36.888   5.883
 4439POPC   C1A56991  37.864  37.007   6.269
 4439POPC   D2A56992  37.782  37.272   6.637
 4439POPC   C3A56993  37.909  37.090   7.031
 4439POPC   C4A56994  37.860  36.937   7.480
 4439POPC   C1B56995  37.385  37.200   6.152
 4439POPC   C2B56996  37.284  37.173   6.579
 4439POPC   C3B56997  37.415  37.047   6.995
 4439POPC   C4B56998  37.242  37.060   7.408
 4440POPC   NC356999   3.934  19.961   5.403
 4440POPC   PO457000   3.286  19.752   5.349
 4440POPC   GL157001   3.599  19.681   5.719
 4440POPC   GL257002   3.771  19.985   5.866
 4440POPC   C1A57003   3.527  19.705   6.207
 4440POPC   D2A57004   3.244  19.846   6.532
 4440POPC   C3A57005   3.433  19.966   6.927
 4440POPC   C4A57006   3.555  19.883   7.335
 4440POPC   C1B57007   3.998  20.046   6.223
 4440POPC   C2B57008   3.883  19.933   6.657
 4440POPC   C3B57009   3.944  20.128   7.091
 4440POPC   C4B57010   3.971  20.027   7.555
 4441POPC   NC357011  44.051  16.128   5.429
 4441POPC   PO457012  43.785  15.589   5.489
 4441POPC   GL157013  43.794  15.868   5.806
 4441POPC   GL257014  43.594  16.161   5.711
 4441POPC   C1A57015  44.072  15.954   6.176
 4441POPC   D2A57016  44.270  15.800   6.568
 4441POPC   C3A57017  44.043  15.827   6.969
 4441POPC   C4A57018  43.698  15.550   7.072
 4441POPC   C1B57019  43.572  16.124   6.173
 4441POPC   C2B57020  43.741  15.967   6.577
 4441POPC   C3B57021  43.587  16.055   6.997
 4441POPC   C4B57022  43.583  16.222   7.408
 4442POPC   NC357023   6.929   6.806   5.271
 4442POPC   PO457024   6.500   6.333   5.385
 4442POPC   GL157025   6.712   6.553   5.709
 4442POPC   GL257026   6.933   6.336   5.883
 4442POPC   C1A57027   6.535   6.831   6.034
 4442POPC   D2A57028   6.518   6.869   6.501
 4442POPC   C3A57029   6.434   6.737   6.936
 4442POPC   C4A57030   6.322   6.942   7.344
 4442POPC   C1B57031   6.685   6.392   6.234
 4442POPC   C2B57032   6.773   6.308   6.618
 4442POPC   C3B57033   6.850   6.408   7.010
 4442POPC   C4B57034   6.523   6.342   7.263
 4443POPC   NC357035   6.223  27.478   5.485
 4443POPC   PO457036   6.668  27.931   5.334
 4443POPC   GL157037   6.595  27.762   5.725
 4443POPC   GL257038   6.790  27.441   5.720
 4443POPC   C1A57039   6.696  27.922   6.150
 4443POPC   D2A57040   6.980  27.827   6.502
 4443POPC   C3A57041   6.790  27.833   6.907
 4443POPC   C4A57042   6.783  27.522   7.244
 4443POPC   C1B57043   6.541  27.436   6.110
 4443POPC   C2B57044   6.522  27.587   6.523
 4443POPC   C3B57045   6.517  27.328   6.849
 4443POPC   C4B57046   6.402  27.197   7.243
 4444POPC   NC357047  31.498  35.139   5.458
 4444POPC   PO457048  31.808  35.756   5.329
 4444POPC   GL157049  31.681  35.545   5.722
 4444POPC   GL257050  31.846  35.680   5.965
 4444POPC   C1A57051  31.527  35.279   6.113
 4444POPC   D2A57052  31.458  35.198   6.571
 4444POPC   C3A57053  31.095  35.298   6.855
 4444POPC   C4A57054  31.150  35.273   7.291
 4444POPC   C1B57055  31.427  35.782   6.175
 4444POPC   C2B57056  31.304  35.689   6.614
 4444POPC   C3B57057  31.571  35.529   6.965
 4444POPC   C4B57058  31.743  35.737   7.317
 4445POPC   NC357059  23.663  25.533   5.390
 4445POPC   PO457060  23.466  24.844   5.288
 4445POPC   GL157061  23.860  24.909   5.609
 4445POPC   GL257062  23.751  25.198   5.784
 4445POPC   C1A57063  24.064  24.936   6.088
 4445POPC   D2A57064  24.099  25.175   6.526
 4445POPC   C3A57065  23.772  25.088   6.856
 4445POPC   C4A57066  23.795  25.198   7.328
 4445POPC   C1B57067  23.827  25.431   6.171
 4445POPC   C2B57068  23.621  25.551   6.568
 4445POPC   C3B57069  23.711  25.585   7.000
 4445POPC   C4B57070  24.098  25.671   7.181
 4446POPC   NC357071  44.326  30.818   5.393
 4446POPC   PO457072  43.710  30.671   5.450
 4446POPC   GL157073  43.847  30.690   5.860
 4446POPC   GL257074  44.232  30.673   5.885
 4446POPC   C1A57075  43.613  30.558   6.247
 4446POPC   D2A57076  43.675  30.396   6.669
 4446POPC   C3A57077  43.606  30.661   7.040
 4446POPC   C4A57078  43.787  30.896   7.367
 4446POPC   C1B57079  44.066  30.789   6.314
 4446POPC   C2B57080  43.988  30.846   6.759
 4446POPC   C3B57081  44.236  30.887   7.153
 4446POPC   C4B57082  44.215  31.066   7.616
 4447POPC   NC357083  35.387  32.285   5.337
 4447POPC   PO457084  34.700  32.486   5.518
 4447POPC   GL157085  35.036  32.231   5.799
 4447POPC   GL257086  35.372  32.350   5.848
 4447POPC   C1A57087  35.255  32.065   6.231
 4447POPC   D2A57088  35.321  31.962   6.671
 4447POPC   C3A57089  35.625  32.039   7.035
 4447POPC   C4A57090  35.505  32.273   7.427
 4447POPC   C1B57091  35.521  32.514   6.238
 4447POPC   C2B57092  35.567  32.413   6.676
 4447POPC   C3B57093  35.256  32.387   6.993
 4447POPC   C4B57094  35.132  32.629   7.382
 4448POPC   NC357095  40.270  33.786   5.436
 4448POPC   PO457096  39.689  33.857   5.183
 4448POPC   GL157097  39.768  33.675   5.630
 4448POPC   GL257098  39.953  33.942   5.791
 4448POPC   C1A57099  39.917  33.535   6.096
 4448POPC   D2A57100  40.008  33.748   6.533
 4448POPC   C3A57101  40.059  33.527   6.985
 4448POPC   C4A57102  39.990  33.473   7.450
 4448POPC   C1B57103  40.126  34.137   6.142
 4448POPC   C2B57104  40.300  34.179   6.549
 4448POPC   C3B57105  40.183  34.030   6.941
 4448POPC   C4B57106  40.053  33.957   7.339
 4449POPC   NC357107  35.491  27.332   5.322
 4449POPC   PO457108  34.975  27.733   5.538
 4449POPC   GL157109  35.281  27.581   5.849
 4449POPC   GL257110  35.631  27.674   5.796
 4449POPC   C1A57111  35.293  27.598   6.304
 4449POPC   D2A57112  35.354  27.841   6.691
 4449POPC   C3A57113  35.099  27.713   7.038
 4449POPC   C4A57114  35.227  27.413   7.348
 4449POPC   C1B57115  35.782  27.451   6.184
 4449POPC   C2B57116  35.629  27.369   6.612
 4449POPC   C3B57117  35.600  27.515   7.022
 4449POPC   C4B57118  35.742  27.387   7.444
 4450POPC   NC357119   4.207  40.661   5.231
 4450POPC   PO457120   4.309  41.028   5.825
 4450POPC   GL157121   4.278  40.599   5.918
 4450POPC   GL257122   3.897  40.555   6.030
 4450POPC   C1A57123   4.617  40.428   6.200
 4450POPC   D2A57124   4.807  40.306   6.606
 4450POPC   C3A57125   4.547  40.403   7.021
 4450POPC   C4A57126   4.122  40.589   7.017
 4450POPC   C1B57127   4.142  40.714   6.395
 4450POPC   C2B57128   4.524  40.740   6.631
 4450POPC   C3B57129   4.541  40.911   7.028
 4450POPC   C4B57130   4.127  41.126   7.129
 4451POPC   NC357131  39.205  39.372   5.294
 4451POPC   PO457132  39.550  38.859   5.552
 4451POPC   GL157133  39.255  39.134   5.837
 4451POPC   GL257134  39.053  39.452   5.780
 4451POPC   C1A57135  39.157  39.215   6.265
 4451POPC   D2A57136  39.247  39.175   6.699
 4451POPC   C3A57137  38.897  39.157   6.988
 4451POPC   C4A57138  39.025  38.882   7.321
 4451POPC   C1B57139  39.431  39.592   6.026
 4451POPC   C2B57140  39.554  39.517   6.457
 4451POPC   C3B57141  39.548  39.545   6.906
 4451POPC   C4B57142  39.313  39.313   7.226
 4452POPC   NC357143   5.554  25.308   5.632
 4452POPC   PO457144   6.126  25.050   5.410
 4452POPC   GL157145   6.110  25.097   5.859
 4452POPC   GL257146   6.447  24.971   5.927
 4452POPC   C1A57147   5.909  25.370   6.219
 4452POPC   D2A57148   5.666  25.404   6.623
 4452POPC   C3A57149   5.614  25.074   6.935
 4452POPC   C4A57150   5.621  25.279   7.336
 4452POPC   C1B57151   6.404  24.986   6.361
 4452POPC   C2B57152   6.062  25.095   6.617
 4452POPC   C3B57153   6.061  25.309   7.002
 4452POPC   C4B57154   6.413  25.205   7.259
 4453POPC   NC357155  32.612  16.084   5.540
 4453POPC   PO457156  32.033  15.808   5.470
 4453POPC   GL157157  32.220  15.926   5.836
 4453POPC   GL257158  32.518  15.738   5.912
 4453POPC   C1A57159  32.068  16.041   6.216
 4453POPC   D2A57160  32.079  15.849   6.587
 4453POPC   C3A57161  31.972  16.111   6.907
 4453POPC   C4A57162  32.135  16.024   7.279
 4453POPC   C1B57163  32.576  16.050   6.239
 4453POPC   C2B57164  32.451  16.198   6.643
 4453POPC   C3B57165  32.608  16.116   7.055
 4453POPC   C4B57166  32.616  15.919   7.449
 4454POPC   NC357167   9.256  11.862   5.408
 4454POPC   PO457168   9.413  12.575   5.521
 4454POPC   GL157169   9.186  12.276   5.812
 4454POPC   GL257170   9.148  11.918   5.900
 4454POPC   C1A57171   9.044  12.289   6.261
 4454POPC   D2A57172   8.659  12.236   6.525
 4454POPC   C3A57173   8.619  12.000   6.937
 4454POPC   C4A57174   8.776  11.999   7.387
 4454POPC   C1B57175   9.310  11.859   6.315
 4454POPC   C2B57176   9.172  11.907   6.761
 4454POPC   C3B57177   9.257  11.919   7.231
 4454POPC   C4B57178   9.172  11.768   7.664
 4455POPC   NC357179  34.682  18.752   5.416
 4455POPC   PO457180  34.403  19.319   5.491
 4455POPC   GL157181  34.653  19.124   5.778
 4455POPC   GL257182  34.411  18.910   5.890
 4455POPC   C1A57183  34.945  18.943   6.057
 4455POPC   D2A57184  35.093  19.101   6.454
 4455POPC   C3A57185  34.898  18.951   6.819
 4455POPC   C4A57186  34.754  19.003   7.224
 4455POPC   C1B57187  34.518  19.054   6.318
 4455POPC   C2B57188  34.370  19.005   6.740
 4455POPC   C3B57189  34.288  19.166   7.148
 4455POPC   C4B57190  34.195  19.007   7.563
 4456POPC   NC357191  40.681  44.373   5.387
 4456POPC   PO457192  40.586   0.013   5.548
 4456POPC   GL157193  40.713  44.671   5.841
 4456POPC   GL257194  40.966  44.377   5.801
 4456POPC   C1A57195  40.581  44.736   6.278
 4456POPC   D2A57196  40.736  44.945   6.638
 4456POPC   C3A57197  40.651  44.765   7.048
 4456POPC   C4A57198  40.750  44.650   7.490
 4456POPC   C1B57199  40.831  44.287   6.224
 4456POPC   C2B57200  40.799  44.431   6.654
 4456POPC   C3B57201  40.796  44.279   7.060
 4456POPC   C4B57202  40.451  44.308   7.299
 4457POPC   NC357203  13.826  44.479   5.444
 4457POPC   PO457204  13.131  44.557   5.514
 4457POPC   GL157205  13.439  44.760   5.811
 4457POPC   GL257206  13.806  44.692   5.916
 4457POPC   C1A57207  13.404  44.642   6.242
 4457POPC   D2A57208  13.656  44.541   6.588
 4457POPC   C3A57209  13.424  44.681   6.929
 4457POPC   C4A57210  13.489  44.747   7.356
 4457POPC   C1B57211  13.774  44.993   6.292
 4457POPC   C2B57212  13.751   0.031   6.759
 4457POPC   C3B57213  13.928  44.809   7.093
 4457POPC   C4B57214  13.998  44.864   7.564
 4458POPC   NC357215  22.291  26.818   5.318
 4458POPC   PO457216  21.721  26.538   5.192
 4458POPC   GL157217  21.882  26.577   5.689
 4458POPC   GL257218  22.250  26.653   5.799
 4458POPC   C1A57219  21.910  26.763   6.160
 4458POPC   D2A57220  22.237  26.911   6.507
 4458POPC   C3A57221  22.233  27.012   6.965
 4458POPC   C4A57222  22.022  26.806   7.322
 4458POPC   C1B57223  22.450  26.568   6.222
 4458POPC   C2B57224  22.519  26.420   6.669
 4458POPC   C3B57225  22.456  26.583   7.069
 4458POPC   C4B57226  22.448  26.654   7.523
 4459POPC   NC357227  43.529  10.595   5.353
 4459POPC   PO457228  44.164  10.519   5.233
 4459POPC   GL157229  43.862  10.476   5.698
 4459POPC   GL257230  43.997  10.717   5.993
 4459POPC   C1A57231  43.565  10.514   6.069
 4459POPC   D2A57232  43.746  10.646   6.443
 4459POPC   C3A57233  43.528  10.741   6.784
 4459POPC   C4A57234  43.569  10.580   7.198
 4459POPC   C1B57235  44.240  10.620   6.353
 4459POPC   C2B57236  44.194  10.374   6.707
 4459POPC   C3B57237  44.092  10.464   7.125
 4459POPC   C4B57238  44.371  10.433   7.511
 4460POPC   NC357239  18.655  23.814   5.535
 4460POPC   PO457240  19.175  23.355   5.486
 4460POPC   GL157241  19.313  23.635   5.837
 4460POPC   GL257242  19.053  23.933   5.842
 4460POPC   C1A57243  19.171  23.698   6.282
 4460POPC   D2A57244  18.907  23.476   6.597
 4460POPC   C3A57245  19.148  23.540   6.968
 4460POPC   C4A57246  19.262  23.903   7.240
 4460POPC   C1B57247  18.744  23.990   6.199
 4460POPC   C2B57248  18.855  24.010   6.615
 4460POPC   C3B57249  18.736  23.838   7.001
 4460POPC   C4B57250  18.781  24.049   7.357
 4461POPC   NC357251  10.988  39.387   5.400
 4461POPC   PO457252  11.515  38.911   5.564
 4461POPC   GL157253  11.280  39.244   5.801
 4461POPC   GL257254  10.932  39.098   5.851
 4461POPC   C1A57255  11.275  39.502   6.197
 4461POPC   D2A57256  11.352  39.322   6.641
 4461POPC   C3A57257  11.331  39.496   7.063
 4461POPC   C4A57258  11.415  39.278   7.469
 4461POPC   C1B57259  10.970  39.084   6.320
 4461POPC   C2B57260  11.197  38.826   6.664
 4461POPC   C3B57261  11.233  38.975   7.081
 4461POPC   C4B57262  10.833  38.995   7.282
 4462POPC   NC357263  16.186  11.060   5.441
 4462POPC   PO457264  15.828  11.655   5.501
 4462POPC   GL157265  15.875  11.320   5.779
 4462POPC   GL257266  16.232  11.402   5.818
 4462POPC   C1A57267  15.846  11.236   6.233
 4462POPC   D2A57268  15.693  11.080   6.650
 4462POPC   C3A57269  15.712  11.349   7.023
 4462POPC   C4A57270  15.766  11.350   7.501
 4462POPC   C1B57271  16.306  11.475   6.233
 4462POPC   C2B57272  16.228  11.182   6.587
 4462POPC   C3B57273  16.224  11.160   7.040
 4462POPC   C4B57274  16.150  11.584   7.197
 4463POPC   NC357275  23.720  19.366   5.426
 4463POPC   PO457276  23.929  18.718   5.362
 4463POPC   GL157277  23.830  18.990   5.798
 4463POPC   GL257278  23.473  19.153   5.820
 4463POPC   C1A57279  23.966  19.166   6.256
 4463POPC   D2A57280  24.066  19.067   6.721
 4463POPC   C3A57281  23.696  19.003   6.953
 4463POPC   C4A57282  23.520  18.999   7.332
 4463POPC   C1B57283  23.497  19.383   6.205
 4463POPC   C2B57284  23.650  19.411   6.646
 4463POPC   C3B57285  23.370  19.441   7.033
 4463POPC   C4B57286  23.213  19.378   7.479
 4464POPC   NC357287  11.600  30.198   5.021
 4464POPC   PO457288  11.158  29.854   5.422
 4464POPC   GL157289  11.448  29.902   5.768
 4464POPC   GL257290  11.283  30.202   5.834
 4464POPC   C1A57291  11.651  29.977   6.169
 4464POPC   D2A57292  11.508  30.004   6.585
 4464POPC   C3A57293  11.646  30.044   6.998
 4464POPC   C4A57294  11.373  29.934   7.304
 4464POPC   C1B57295  11.116  29.931   6.148
 4464POPC   C2B57296  11.002  30.014   6.533
 4464POPC   C3B57297  11.055  30.023   6.933
 4464POPC   C4B57298  11.083  30.358   7.219
 4465POPC   NC357299  12.590  37.835   5.505
 4465POPC   PO457300  13.140  38.041   5.185
 4465POPC   GL157301  13.034  37.664   5.702
 4465POPC   GL257302  12.745  37.491   5.854
 4465POPC   C1A57303  12.757  37.826   6.213
 4465POPC   D2A57304  12.577  37.949   6.658
 4465POPC   C3A57305  12.714  37.729   7.068
 4465POPC   C4A57306  13.070  37.753   7.375
 4465POPC   C1B57307  12.918  37.358   6.269
 4465POPC   C2B57308  13.018  37.631   6.614
 4465POPC   C3B57309  13.181  37.475   6.961
 4465POPC   C4B57310  12.943  37.270   7.264
 4466POPC   NC357311  10.452   2.933   5.527
 4466POPC   PO457312  10.648   2.266   5.455
 4466POPC   GL157313  10.471   2.533   5.807
 4466POPC   GL257314  10.766   2.581   5.924
 4466POPC   C1A57315  10.452   2.882   6.185
 4466POPC   D2A57316  10.640   2.807   6.625
 4466POPC   C3A57317  10.576   3.037   7.065
 4466POPC   C4A57318  10.535   2.897   7.520
 4466POPC   C1B57319  10.445   2.384   6.270
 4466POPC   C2B57320  10.238   2.408   6.661
 4466POPC   C3B57321  10.334   2.597   7.037
 4466POPC   C4B57322  10.723   2.521   7.241
 4467POPC   NC357323   0.173  28.166   5.374
 4467POPC   PO457324   0.907  28.086   5.419
 4467POPC   GL157325   0.546  28.143   5.740
 4467POPC   GL257326   0.398  28.497   5.713
 4467POPC   C1A57327   0.354  28.247   6.166
 4467POPC   D2A57328   0.210  28.384   6.605
 4467POPC   C3A57329   0.369  28.279   7.038
 4467POPC   C4A57330   0.706  27.983   7.180
 4467POPC   C1B57331   0.764  28.544   6.007
 4467POPC   C2B57332   0.820  28.785   6.392
 4467POPC   C3B57333   0.683  28.623   6.782
 4467POPC   C4B57334   0.840  28.487   7.188
 4468POPC   NC357335  39.101  38.743   5.573
 4468POPC   PO457336  39.099  38.144   5.600
 4468POPC   GL157337  39.120  38.388   5.927
 4468POPC   GL257338  39.464  38.502   5.905
 4468POPC   C1A57339  39.171  38.691   6.266
 4468POPC   D2A57340  39.310  38.666   6.701
 4468POPC   C3A57341  39.037  38.451   6.954
 4468POPC   C4A57342  38.924  38.365   7.360
 4468POPC   C1B57343  39.565  38.373   6.307
 4468POPC   C2B57344  39.521  38.197   6.701
 4468POPC   C3B57345  39.508  38.361   7.114
 4468POPC   C4B57346  39.520  38.750   7.306
 4469POPC   NC357347  12.574  21.923   5.504
 4469POPC   PO457348  13.249  22.234   5.333
 4469POPC   GL157349  13.044  22.209   5.776
 4469POPC   GL257350  12.846  22.490   5.945
 4469POPC   C1A57351  12.984  22.104   6.233
 4469POPC   D2A57352  12.926  22.337   6.636
 4469POPC   C3A57353  13.029  22.097   6.993
 4469POPC   C4A57354  12.860  21.837   7.311
 4469POPC   C1B57355  12.566  22.518   6.318
 4469POPC   C2B57356  12.426  22.593   6.766
 4469POPC   C3B57357  12.525  22.492   7.221
 4469POPC   C4B57358  12.475  22.632   7.683
 4470POPC   NC357359  13.792  27.604   5.437
 4470POPC   PO457360  13.225  28.027   5.493
 4470POPC   GL157361  13.606  27.982   5.804
 4470POPC   GL257362  13.979  27.849   5.839
 4470POPC   C1A57363  13.616  27.832   6.266
 4470POPC   D2A57364  13.325  27.536   6.525
 4470POPC   C3A57365  13.298  27.465   6.983
 4470POPC   C4A57366  13.424  27.299   7.405
 4470POPC   C1B57367  14.053  27.586   6.231
 4470POPC   C2B57368  13.837  27.548   6.655
 4470POPC   C3B57369  13.808  27.540   7.121
 4470POPC   C4B57370  13.923  27.214   7.444
 4471POPC   NC357371   9.341   3.558   5.534
 4471POPC   PO457372   8.691   3.530   5.455
 4471POPC   GL157373   8.952   3.359   5.799
 4471POPC   GL257374   9.040   3.666   5.975
 4471POPC   C1A57375   9.105   3.220   6.229
 4471POPC   D2A57376   9.073   3.471   6.604
 4471POPC   C3A57377   9.068   3.436   7.039
 4471POPC   C4A57378   9.189   3.344   7.478
 4471POPC   C1B57379   8.678   3.810   6.235
 4471POPC   C2B57380   8.652   3.945   6.671
 4471POPC   C3B57381   8.652   3.780   7.083
 4471POPC   C4B57382   8.933   3.806   7.390
 4472POPC   NC357383  11.130  15.715   5.633
 4472POPC   PO457384  11.517  16.193   5.750
 4472POPC   GL157385  11.296  15.980   6.034
 4472POPC   GL257386  11.544  15.702   5.935
 4472POPC   C1A57387  11.145  16.083   6.452
 4472POPC   D2A57388  10.825  16.060   6.772
 4472POPC   C3A57389  10.955  15.877   7.111
 4472POPC   C4A57390  11.277  16.048   7.327
 4472POPC   C1B57391  11.726  15.944   6.287
 4472POPC   C2B57392  11.631  16.106   6.664
 4472POPC   C3B57393  11.683  15.902   7.033
 4472POPC   C4B57394  11.666  15.687   7.420
 4473POPC   NC357395   1.323  14.220   5.339
 4473POPC   PO457396   0.781  14.467   5.517
 4473POPC   GL157397   0.972  14.222   5.876
 4473POPC   GL257398   1.336  14.129   5.858
 4473POPC   C1A57399   1.065  14.512   6.247
 4473POPC   D2A57400   0.891  14.735   6.601
 4473POPC   C3A57401   1.078  14.576   6.995
 4473POPC   C4A57402   1.090  14.749   7.414
 4473POPC   C1B57403   1.292  14.066   6.291
 4473POPC   C2B57404   1.361  14.275   6.664
 4473POPC   C3B57405   1.619  14.305   7.000
 4473POPC   C4B57406   1.429  14.381   7.342
 4474POPC   NC357407  31.119  27.221   5.572
 4474POPC   PO457408  30.752  26.731   5.297
 4474POPC   GL157409  30.732  26.855   5.715
 4474POPC   GL257410  31.047  26.824   5.863
 4474POPC   C1A57411  30.629  26.655   6.103
 4474POPC   D2A57412  30.752  26.618   6.538
 4474POPC   C3A57413  30.540  26.803   6.890
 4474POPC   C4A57414  30.591  26.899   7.315
 4474POPC   C1B57415  31.144  26.848   6.280
 4474POPC   C2B57416  31.031  27.010   6.687
 4474POPC   C3B57417  31.052  26.783   7.057
 4474POPC   C4B57418  31.067  26.901   7.502
 4475POPC   NC357419   6.357  41.096   5.402
 4475POPC   PO457420   6.720  40.605   5.677
 4475POPC   GL157421   6.777  40.930   5.913
 4475POPC   GL257422   6.418  40.982   5.884
 4475POPC   C1A57423   6.665  40.921   6.351
 4475POPC   D2A57424   6.632  40.627   6.641
 4475POPC   C3A57425   6.836  40.797   6.988
 4475POPC   C4A57426   6.707  40.526   7.257
 4475POPC   C1B57427   6.155  41.028   6.219
 4475POPC   C2B57428   6.173  40.844   6.620
 4475POPC   C3B57429   6.335  40.868   7.015
 4475POPC   C4B57430   6.177  41.075   7.301
 4476POPC   NC357431  42.251  27.166   5.277
 4476POPC   PO457432  42.400  27.869   5.425
 4476POPC   GL157433  42.501  27.740   5.832
 4476POPC   GL257434  42.799  27.458   5.872
 4476POPC   C1A57435  42.111  27.651   6.093
 4476POPC   D2A57436  41.901  27.844   6.453
 4476POPC   C3A57437  42.029  27.723   6.886
 4476POPC   C4A57438  42.081  27.515   7.289
 4476POPC   C1B57439  42.545  27.384   6.182
 4476POPC   C2B57440  42.360  27.510   6.523
 4476POPC   C3B57441  42.555  27.508   6.880
 4476POPC   C4B57442  42.589  27.348   7.291
 4477POPC   NC357443  25.415  35.208   5.546
 4477POPC   PO457444  24.965  35.573   5.476
 4477POPC   GL157445  24.985  35.328   5.887
 4477POPC   GL257446  25.286  35.107   6.019
 4477POPC   C1A57447  24.948  35.271   6.351
 4477POPC   D2A57448  25.045  35.109   6.769
 4477POPC   C3A57449  25.259  35.372   7.034
 4477POPC   C4A57450  25.243  35.448   7.473
 4477POPC   C1B57451  25.647  35.119   6.327
 4477POPC   C2B57452  25.604  35.007   6.769
 4477POPC   C3B57453  25.674  35.136   7.198
 4477POPC   C4B57454  25.540  35.049   7.618
 4478POPC   NC357455  35.006  42.460   5.547
 4478POPC   PO457456  35.666  42.382   5.403
 4478POPC   GL157457  35.419  42.262   5.786
 4478POPC   GL257458  35.312  42.579   5.950
 4478POPC   C1A57459  35.127  42.131   6.138
 4478POPC   D2A57460  35.064  42.376   6.540
 4478POPC   C3A57461  35.039  42.149   6.939
 4478POPC   C4A57462  35.322  42.030   7.286
 4478POPC   C1B57463  35.550  42.384   6.308
 4478POPC   C2B57464  35.736  42.504   6.713
 4478POPC   C3B57465  35.559  42.517   7.154
 4478POPC   C4B57466  35.693  42.597   7.617
 4479POPC   NC357467  43.728   4.883   5.445
 4479POPC   PO457468  44.100   5.482   5.305
 4479POPC   GL157469  44.041   5.216   5.779
 4479POPC   GL257470  44.077   4.827   5.824
 4479POPC   C1A57471  43.956   5.065   6.249
 4479POPC   D2A57472  44.056   4.855   6.665
 4479POPC   C3A57473  43.915   5.090   7.052
 4479POPC   C4A57474  44.197   5.146   7.403
 4479POPC   C1B57475  43.692   4.663   6.041
 4479POPC   C2B57476  43.626   4.619   6.461
 4479POPC   C3B57477  43.655   4.598   6.892
 4479POPC   C4B57478  43.469   4.797   7.212
 4480POPC   NC357479  11.618   5.221   5.050
 4480POPC   PO457480  11.090   4.893   5.183
 4480POPC   GL157481  11.119   4.888   5.667
 4480POPC   GL257482  11.443   4.942   5.806
 4480POPC   C1A57483  11.041   4.740   6.100
 4480POPC   D2A57484  11.025   4.865   6.539
 4480POPC   C3A57485  11.339   4.654   6.788
 4480POPC   C4A57486  11.262   4.695   7.215
 4480POPC   C1B57487  11.345   5.126   6.228
 4480POPC   C2B57488  11.434   5.175   6.702
 4480POPC   C3B57489  11.265   5.211   7.155
 4480POPC   C4B57490  11.355   5.335   7.614
 4481POPC   NC357491  44.502   7.703   5.353
 4481POPC   PO457492   0.084   8.073   5.234
 4481POPC   GL157493  44.826   7.946   5.716
 4481POPC   GL257494  44.729   8.210   5.914
 4481POPC   C1A57495  44.593   7.891   6.242
 4481POPC   D2A57496  44.650   8.205   6.584
 4481POPC   C3A57497  44.742   8.008   6.988
 4481POPC   C4A57498  44.398   7.996   7.272
 4481POPC   C1B57499   0.045   8.338   6.197
 4481POPC   C2B57500   0.090   8.622   6.496
 4481POPC   C3B57501  44.979   8.501   6.871
 4481POPC   C4B57502   0.149   8.315   7.203
 4482POPC   NC357503  35.112  20.498   5.551
 4482POPC   PO457504  35.701  20.308   5.352
 4482POPC   GL157505  35.604  20.336   5.795
 4482POPC   GL257506  35.513  20.651   5.877
 4482POPC   C1A57507  35.383  20.300   6.222
 4482POPC   D2A57508  35.206  20.430   6.627
 4482POPC   C3A57509  35.405  20.395   7.049
 4482POPC   C4A57510  35.074  20.509   7.334
 4482POPC   C1B57511  35.322  20.816   6.247
 4482POPC   C2B57512  35.491  20.894   6.640
 4482POPC   C3B57513  35.367  20.897   7.035
 4482POPC   C4B57514  35.148  21.006   7.375
 4483POPC   NC357515   4.576  13.744   5.290
 4483POPC   PO457516   5.257  13.913   5.227
 4483POPC   GL157517   5.039  13.790   5.588
 4483POPC   GL257518   4.982  13.424   5.698
 4483POPC   C1A57519   5.076  13.815   6.039
 4483POPC   D2A57520   5.377  13.813   6.384
 4483POPC   C3A57521   5.175  13.956   6.775
 4483POPC   C4A57522   5.284  14.008   7.226
 4483POPC   C1B57523   5.098  13.324   6.152
 4483POPC   C2B57524   4.995  13.525   6.537
 4483POPC   C3B57525   5.083  13.481   6.973
 4483POPC   C4B57526   4.848  13.781   7.195
 4484POPC   NC357527  43.285  23.379   5.503
 4484POPC   PO457528  42.818  23.946   5.488
 4484POPC   GL157529  43.066  23.940   5.881
 4484POPC   GL257530  43.277  23.654   5.928
 4484POPC   C1A57531  42.994  23.792   6.341
 4484POPC   D2A57532  43.203  23.657   6.732
 4484POPC   C3A57533  43.263  23.935   7.068
 4484POPC   C4A57534  43.644  24.149   7.202
 4484POPC   C1B57535  43.202  23.303   6.218
 4484POPC   C2B57536  43.021  23.202   6.616
 4484POPC   C3B57537  43.025  23.282   7.054
 4484POPC   C4B57538  43.361  23.476   7.256
 4485POPC   NC357539  41.043   6.876   5.416
 4485POPC   PO457540  40.807   6.314   5.376
 4485POPC   GL157541  40.748   6.498   5.797
 4485POPC   GL257542  40.799   6.858   5.860
 4485POPC   C1A57543  40.482   6.567   6.165
 4485POPC   D2A57544  40.607   6.661   6.582
 4485POPC   C3A57545  40.565   6.461   6.971
 4485POPC   C4A57546  40.758   6.617   7.349
 4485POPC   C1B57547  40.970   6.725   6.229
 4485POPC   C2B57548  41.083   6.485   6.590
 4485POPC   C3B57549  41.116   6.666   6.988
 4485POPC   C4B57550  41.251   6.535   7.406
 4486POPC   NC357551   4.144  25.712   5.453
 4486POPC   PO457552   4.036  26.366   5.490
 4486POPC   GL157553   4.238  26.115   5.852
 4486POPC   GL257554   4.479  25.834   6.013
 4486POPC   C1A57555   4.297  26.226   6.277
 4486POPC   D2A57556   4.466  25.932   6.556
 4486POPC   C3A57557   4.367  25.882   6.975
 4486POPC   C4A57558   3.988  26.026   7.231
 4486POPC   C1B57559   4.111  25.736   6.238
 4486POPC   C2B57560   3.951  25.814   6.679
 4486POPC   C3B57561   4.018  25.542   7.102
 4486POPC   C4B57562   4.083  25.629   7.596
 4487POPC   NC357563  39.507  29.410   5.126
 4487POPC   PO457564  39.832  29.102   5.597
 4487POPC   GL157565  39.964  29.149   5.941
 4487POPC   GL257566  40.060  29.508   5.851
 4487POPC   C1A57567  39.981  28.895   6.300
 4487POPC   D2A57568  40.275  28.990   6.607
 4487POPC   C3A57569  40.172  28.872   7.003
 4487POPC   C4A57570  39.794  28.977   7.200
 4487POPC   C1B57571  39.802  29.496   6.264
 4487POPC   C2B57572  39.770  29.253   6.636
 4487POPC   C3B57573  40.025  29.370   6.964
 4487POPC   C4B57574  39.940  29.447   7.381
 4488POPC   NC357575  23.351  29.222   5.447
 4488POPC   PO457576  23.940  29.429   5.196
 4488POPC   GL157577  23.928  29.417   5.706
 4488POPC   GL257578  23.865  29.048   5.873
 4488POPC   C1A57579  23.798  29.435   6.172
 4488POPC   D2A57580  23.744  29.183   6.563
 4488POPC   C3A57581  23.867  29.316   7.002
 4488POPC   C4A57582  23.884  29.402   7.456
 4488POPC   C1B57583  23.610  28.815   6.193
 4488POPC   C2B57584  23.414  28.796   6.605
 4488POPC   C3B57585  23.409  29.081   6.969
 4488POPC   C4B57586  23.623  28.967   7.353
 4489POPC   NC357587  22.704  29.645   5.452
 4489POPC   PO457588  22.913  28.971   5.574
 4489POPC   GL157589  23.131  29.071   5.891
 4489POPC   GL257590  23.079  29.419   5.826
 4489POPC   C1A57591  23.043  29.026   6.293
 4489POPC   D2A57592  22.964  28.997   6.699
 4489POPC   C3A57593  22.790  29.321   6.845
 4489POPC   C4A57594  22.933  29.182   7.215
 4489POPC   C1B57595  23.297  29.465   6.188
 4489POPC   C2B57596  23.245  29.396   6.590
 4489POPC   C3B57597  23.228  29.589   6.971
 4489POPC   C4B57598  23.367  29.473   7.368
 4490POPC   NC357599   3.197  13.240   5.284
 4490POPC   PO457600   3.590  12.782   5.450
 4490POPC   GL157601   3.519  13.157   5.716
 4490POPC   GL257602   3.832  13.315   5.732
 4490POPC   C1A57603   3.395  13.244   6.176
 4490POPC   D2A57604   3.505  13.091   6.613
 4490POPC   C3A57605   3.333  12.742   6.830
 4490POPC   C4A57606   3.355  12.712   7.278
 4490POPC   C1B57607   3.818  12.963   6.105
 4490POPC   C2B57608   3.871  12.730   6.518
 4490POPC   C3B57609   3.820  12.822   6.957
 4490POPC   C4B57610   3.879  12.692   7.397
 4491POPC   NC357611  36.229   4.634   5.713
 4491POPC   PO457612  35.966   4.050   5.459
 4491POPC   GL157613  36.146   4.129   5.817
 4491POPC   GL257614  35.846   4.339   5.911
 4491POPC   C1A57615  36.199   4.141   6.245
 4491POPC   D2A57616  35.922   4.225   6.579
 4491POPC   C3A57617  36.073   4.025   6.921
 4491POPC   C4A57618  36.319   4.254   7.189
 4491POPC   C1B57619  35.606   4.518   6.280
 4491POPC   C2B57620  35.673   4.718   6.663
 4491POPC   C3B57621  36.016   4.606   6.925
 4491POPC   C4B57622  35.809   4.334   7.226
 4492POPC   NC357623   4.444  33.010   5.306
 4492POPC   PO457624   3.864  33.134   5.344
 4492POPC   GL157625   4.162  33.130   5.744
 4492POPC   GL257626   4.392  32.869   5.801
 4492POPC   C1A57627   4.456  33.225   6.160
 4492POPC   D2A57628   4.544  33.126   6.596
 4492POPC   C3A57629   4.217  33.261   6.878
 4492POPC   C4A57630   4.325  33.336   7.310
 4492POPC   C1B57631   4.239  32.756   6.199
 4492POPC   C2B57632   4.403  32.600   6.583
 4492POPC   C3B57633   4.356  32.772   6.962
 4492POPC   C4B57634   3.995  32.914   7.149
 4493POPC   NC357635  23.951   0.128   5.491
 4493POPC   PO457636  23.320   0.550   5.331
 4493POPC   GL157637  23.650   0.547   5.679
 4493POPC   GL257638  23.602   0.234   5.851
 4493POPC   C1A57639  23.783   0.607   6.148
 4493POPC   D2A57640  23.635   0.383   6.516
 4493POPC   C3A57641  23.611   0.534   6.936
 4493POPC   C4A57642  23.831   0.418   7.317
 4493POPC   C1B57643  23.733  44.985   6.198
 4493POPC   C2B57644  23.905  44.916   6.612
 4493POPC   C3B57645  23.644   0.017   6.995
 4493POPC   C4B57646  23.671  44.973   7.467
 4494POPC   NC357647  26.205  35.170   5.395
 4494POPC   PO457648  25.933  35.828   5.464
 4494POPC   GL157649  26.105  35.648   5.867
 4494POPC   GL257650  25.978  35.283   5.869
 4494POPC   C1A57651  26.014  35.570   6.337
 4494POPC   D2A57652  25.775  35.490   6.736
 4494POPC   C3A57653  26.071  35.437   7.087
 4494POPC   C4A57654  26.276  35.297   7.468
 4494POPC   C1B57655  26.195  35.093   6.229
 4494POPC   C2B57656  26.173  35.105   6.695
 4494POPC   C3B57657  26.401  34.979   7.099
 4494POPC   C4B57658  26.464  34.834   7.560
 4495POPC   NC357659  22.435  31.770   5.639
 4495POPC   PO457660  22.033  31.224   5.499
 4495POPC   GL157661  21.995  31.502   5.861
 4495POPC   GL257662  22.294  31.404   5.943
 4495POPC   C1A57663  21.907  31.405   6.286
 4495POPC   D2A57664  22.026  31.563   6.676
 4495POPC   C3A57665  21.911  31.443   7.075
 4495POPC   C4A57666  21.975  31.260   7.475
 4495POPC   C1B57667  22.395  31.587   6.324
 4495POPC   C2B57668  22.608  31.546   6.676
 4495POPC   C3B57669  22.413  31.502   7.026
 4495POPC   C4B57670  22.396  31.649   7.390
 4496POPC   NC357671  32.013  10.943   5.340
 4496POPC   PO457672  32.404  11.560   5.150
 4496POPC   GL157673  32.299  11.340   5.602
 4496POPC   GL257674  32.572  11.418   5.856
 4496POPC   C1A57675  32.096  11.173   6.022
 4496POPC   D2A57676  31.823  11.224   6.399
 4496POPC   C3A57677  31.902  11.148   6.839
 4496POPC   C4A57678  31.863  10.955   7.226
 4496POPC   C1B57679  32.405  11.469   6.307
 4496POPC   C2B57680  32.381  11.369   6.769
 4496POPC   C3B57681  32.281  11.310   7.237
 4496POPC   C4B57682  32.439  11.356   7.680
 4497POPC   NC357683  17.579  36.381   5.436
 4497POPC   PO457684  17.680  35.716   5.351
 4497POPC   GL157685  17.477  35.958   5.731
 4497POPC   GL257686  17.309  36.301   5.836
 4497POPC   C1A57687  17.469  35.974   6.192
 4497POPC   D2A57688  17.680  36.256   6.506
 4497POPC   C3A57689  17.447  36.213   6.885
 4497POPC   C4A57690  17.370  35.889   7.220
 4497POPC   C1B57691  17.226  36.430   6.238
 4497POPC   C2B57692  17.089  36.494   6.635
 4497POPC   C3B57693  17.201  36.665   7.016
 4497POPC   C4B57694  17.325  36.436   7.364
 4498POPC   NC357695  10.894  16.745   5.362
 4498POPC   PO457696  10.251  16.585   5.476
 4498POPC   GL157697  10.567  16.818   5.768
 4498POPC   GL257698  10.816  17.055   5.843
 4498POPC   C1A57699  10.628  16.700   6.196
 4498POPC   D2A57700  10.782  16.494   6.541
 4498POPC   C3A57701  10.630  16.583   6.957
 4498POPC   C4A57702  10.871  16.427   7.299
 4498POPC   C1B57703  10.513  17.184   6.188
 4498POPC   C2B57704  10.413  17.029   6.637
 4498POPC   C3B57705  10.256  17.021   7.111
 4498POPC   C4B57706  10.409  16.910   7.553
 4499POPC   NC357707  32.325  13.745   5.074
 4499POPC   PO457708  32.136  13.387   5.551
 4499POPC   GL157709  32.420  13.480   5.875
 4499POPC   GL257710  32.361  13.814   5.857
 4499POPC   C1A57711  32.443  13.583   6.331
 4499POPC   D2A57712  32.644  13.537   6.722
 4499POPC   C3A57713  32.355  13.603   7.018
 4499POPC   C4A57714  32.435  13.989   7.180
 4499POPC   C1B57715  32.450  14.081   6.221
 4499POPC   C2B57716  32.365  13.988   6.665
 4499POPC   C3B57717  31.971  13.945   6.920
 4499POPC   C4B57718  31.724  13.805   7.289
 4500POPC   NC357719  15.319   6.960   5.485
 4500POPC   PO457720  14.780   6.501   5.481
 4500POPC   GL157721  14.995   6.668   5.808
 4500POPC   GL257722  15.347   6.536   5.826
 4500POPC   C1A57723  15.068   6.761   6.220
 4500POPC   D2A57724  15.182   6.664   6.581
 4500POPC   C3A57725  15.060   6.804   6.912
 4500POPC   C4A57726  15.178   6.605   7.203
 4500POPC   C1B57727  15.567   6.555   6.233
 4500POPC   C2B57728  15.540   6.323   6.627
 4500POPC   C3B57729  15.629   6.462   7.037
 4500POPC   C4B57730  15.521   6.338   7.457
 4501POPC   NC357731  14.142  30.090   5.486
 4501POPC   PO457732  13.676  29.621   5.266
 4501POPC   GL157733  13.868  29.655   5.672
 4501POPC   GL257734  13.719  29.963   5.777
 4501POPC   C1A57735  13.928  29.639   6.133
 4501POPC   D2A57736  13.831  29.834   6.534
 4501POPC   C3A57737  13.597  29.719   6.898
 4501POPC   C4A57738  13.661  29.784   7.342
 4501POPC   C1B57739  13.489  29.934   6.180
 4501POPC   C2B57740  13.487  30.211   6.561
 4501POPC   C3B57741  13.336  30.146   6.987
 4501POPC   C4B57742  13.428  30.260   7.371
 4502POPC   NC357743  24.862  43.778   5.404
 4502POPC   PO457744  24.272  43.951   5.267
 4502POPC   GL157745  24.344  43.762   5.702
 4502POPC   GL257746  24.061  43.715   5.938
 4502POPC   C1A57747  24.552  43.724   6.150
 4502POPC   D2A57748  24.484  43.573   6.590
 4502POPC   C3A57749  24.673  43.725   6.980
 4502POPC   C4A57750  24.666  44.115   7.218
 4502POPC   C1B57751  24.202  44.088   6.177
 4502POPC   C2B57752  24.384  44.084   6.598
 4502POPC   C3B57753  24.208  43.997   7.013
 4502POPC   C4B57754  24.209  44.118   7.456
 4503POPC   NC357755  13.916  23.923   5.477
 4503POPC   PO457756  14.543  23.507   5.403
 4503POPC   GL157757  14.439  23.438   5.806
 4503POPC   GL257758  14.367  23.811   5.806
 4503POPC   C1A57759  14.637  23.479   6.207
 4503POPC   D2A57760  14.564  23.741   6.597
 4503POPC   C3A57761  14.292  23.617   6.932
 4503POPC   C4A57762  14.498  23.475   7.255
 4503POPC   C1B57763  14.203  23.745   6.207
 4503POPC   C2B57764  14.037  23.891   6.591
 4503POPC   C3B57765  14.049  24.066   7.017
 4503POPC   C4B57766  14.421  23.984   7.267
 4504POPC   NC357767  41.793  32.207   5.509
 4504POPC   PO457768  41.174  32.006   5.592
 4504POPC   GL157769  41.505  31.963   5.872
 4504POPC   GL257770  41.392  32.298   5.966
 4504POPC   C1A57771  41.750  32.095   6.247
 4504POPC   D2A57772  41.558  32.342   6.561
 4504POPC   C3A57773  41.653  32.222   6.964
 4504POPC   C4A57774  41.945  32.008   7.213
 4504POPC   C1B57775  41.127  32.473   6.327
 4504POPC   C2B57776  41.132  32.538   6.803
 4504POPC   C3B57777  41.359  32.612   7.176
 4504POPC   C4B57778  41.409  32.551   7.619
 4505POPC   NC357779  27.017  13.173   5.422
 4505POPC   PO457780  26.423  12.773   5.418
 4505POPC   GL157781  26.754  12.806   5.766
 4505POPC   GL257782  26.915  12.479   5.863
 4505POPC   C1A57783  27.047  12.952   6.119
 4505POPC   D2A57784  27.151  13.119   6.549
 4505POPC   C3A57785  26.969  13.063   6.968
 4505POPC   C4A57786  26.926  12.912   7.411
 4505POPC   C1B57787  26.852  12.518   6.288
 4505POPC   C2B57788  27.061  12.628   6.653
 4505POPC   C3B57789  26.817  12.573   6.993
 4505POPC   C4B57790  26.823  12.422   7.367
 4506POPC   NC357791  26.068  34.382   5.560
 4506POPC   PO457792  25.778  34.940   5.502
 4506POPC   GL157793  25.930  34.754   5.913
 4506POPC   GL257794  26.268  34.575   5.999
 4506POPC   C1A57795  25.935  34.666   6.371
 4506POPC   D2A57796  25.709  34.494   6.707
 4506POPC   C3A57797  25.976  34.712   6.971
 4506POPC   C4A57798  25.991  34.784   7.377
 4506POPC   C1B57799  26.529  34.222   6.164
 4506POPC   C2B57800  26.568  34.104   6.594
 4506POPC   C3B57801  26.232  34.061   6.921
 4506POPC   C4B57802  25.906  34.268   7.202
 4507POPC   NC357803  38.777  22.269   5.629
 4507POPC   PO457804  38.291  21.863   5.674
 4507POPC   GL157805  38.431  22.187   5.980
 4507POPC   GL257806  38.370  22.556   5.895
 4507POPC   C1A57807  38.714  22.391   6.272
 4507POPC   D2A57808  38.606  22.378   6.692
 4507POPC   C3A57809  38.568  21.943   6.797
 4507POPC   C4A57810  38.663  21.858   7.205
 4507POPC   C1B57811  38.177  22.456   6.335
 4507POPC   C2B57812  38.097  22.214   6.722
 4507POPC   C3B57813  38.255  22.173   7.141
 4507POPC   C4B57814  38.220  22.413   7.538
 4508POPC   NC357815  13.521   8.590   5.574
 4508POPC   PO457816  13.986   8.105   5.759
 4508POPC   GL157817  13.652   8.299   5.985
 4508POPC   GL257818  13.404   8.105   5.827
 4508POPC   C1A57819  13.640   8.508   6.389
 4508POPC   D2A57820  13.611   8.432   6.821
 4508POPC   C3A57821  13.925   8.270   7.138
 4508POPC   C4A57822  13.814   8.159   7.596
 4508POPC   C1B57823  13.246   7.938   6.228
 4508POPC   C2B57824  13.240   8.060   6.661
 4508POPC   C3B57825  13.452   7.999   7.075
 4508POPC   C4B57826  13.322   7.963   7.488
 4509POPC   NC357827  32.897  41.104   5.429
 4509POPC   PO457828  33.122  40.431   5.343
 4509POPC   GL157829  32.986  40.669   5.679
 4509POPC   GL257830  33.244  40.617   5.862
 4509POPC   C1A57831  32.852  40.872   6.062
 4509POPC   D2A57832  32.908  40.864   6.504
 4509POPC   C3A57833  32.754  41.060   6.883
 4509POPC   C4A57834  32.969  40.854   7.233
 4509POPC   C1B57835  33.346  40.696   6.273
 4509POPC   C2B57836  33.439  40.411   6.579
 4509POPC   C3B57837  33.539  40.479   6.989
 4509POPC   C4B57838  33.391  40.500   7.402
 4510POPC   NC357839  16.609  40.322   5.394
 4510POPC   PO457840  17.157  39.901   5.383
 4510POPC   GL157841  16.919  40.005   5.725
 4510POPC   GL257842  16.649  39.801   5.703
 4510POPC   C1A57843  16.779  40.032   6.155
 4510POPC   D2A57844  16.437  40.119   6.430
 4510POPC   C3A57845  16.673  40.098   6.825
 4510POPC   C4A57846  16.874  40.179   7.235
 4510POPC   C1B57847  16.442  39.665   6.105
 4510POPC   C2B57848  16.601  39.638   6.541
 4510POPC   C3B57849  16.404  39.619   6.949
 4510POPC   C4B57850  16.417  39.955   7.246
 4511POPC   NC357851  29.642  23.714   5.594
 4511POPC   PO457852  30.278  23.548   5.441
 4511POPC   GL157853  30.081  23.513   5.819
 4511POPC   GL257854  30.097  23.875   5.927
 4511POPC   C1A57855  30.083  23.381   6.240
 4511POPC   D2A57856  30.162  23.704   6.554
 4511POPC   C3A57857  30.259  23.552   6.961
 4511POPC   C4A57858  29.915  23.447   7.250
 4511POPC   C1B57859  29.758  23.772   6.220
 4511POPC   C2B57860  29.657  23.870   6.638
 4511POPC   C3B57861  29.900  23.907   6.991
 4511POPC   C4B57862  29.815  24.024   7.399
 4512POPC   NC357863  21.644   6.776   5.597
 4512POPC   PO457864  20.936   6.871   5.446
 4512POPC   GL157865  21.143   6.680   5.831
 4512POPC   GL257866  20.960   6.398   5.959
 4512POPC   C1A57867  21.387   6.529   6.212
 4512POPC   D2A57868  21.644   6.755   6.509
 4512POPC   C3A57869  21.591   6.639   6.950
 4512POPC   C4A57870  21.455   6.873   7.307
 4512POPC   C1B57871  20.894   6.652   6.319
 4512POPC   C2B57872  21.142   6.702   6.684
 4512POPC   C3B57873  21.094   6.566   7.096
 4512POPC   C4B57874  21.244   6.422   7.472
 4513POPC   NC357875  37.557  43.251   5.487
 4513POPC   PO457876  38.018  42.956   5.809
 4513POPC   GL157877  37.614  42.972   5.971
 4513POPC   GL257878  37.435  43.268   5.989
 4513POPC   C1A57879  37.679  43.001   6.431
 4513POPC   D2A57880  37.879  42.680   6.708
 4513POPC   C3A57881  37.926  42.832   7.140
 4513POPC   C4A57882  37.998  43.283   7.223
 4513POPC   C1B57883  37.187  43.424   6.328
 4513POPC   C2B57884  37.382  43.364   6.672
 4513POPC   C3B57885  37.522  43.118   6.979
 4513POPC   C4B57886  37.512  43.296   7.351
 4514POPC   NC357887  26.873   9.602   5.206
 4514POPC   PO457888  27.234  10.066   5.497
 4514POPC   GL157889  26.991   9.817   5.797
 4514POPC   GL257890  26.706   9.795   5.666
 4514POPC   C1A57891  26.806   9.631   6.184
 4514POPC   D2A57892  26.675   9.542   6.613
 4514POPC   C3A57893  26.741   9.632   7.047
 4514POPC   C4A57894  26.524   9.507   7.440
 4514POPC   C1B57895  26.574  10.062   6.005
 4514POPC   C2B57896  26.466   9.969   6.427
 4514POPC   C3B57897  26.486  10.054   6.860
 4514POPC   C4B57898  26.504  10.439   7.063
 4515POPC   NC357899   9.341  24.029   5.416
 4515POPC   PO457900   8.861  24.436   5.158
 4515POPC   GL157901   8.912  24.444   5.655
 4515POPC   GL257902   9.254  24.451   5.755
 4515POPC   C1A57903   8.978  24.392   6.161
 4515POPC   D2A57904   8.903  24.475   6.619
 4515POPC   C3A57905   9.040  24.715   6.975
 4515POPC   C4A57906   9.042  24.507   7.316
 4515POPC   C1B57907   9.464  24.248   6.138
 4515POPC   C2B57908   9.415  24.384   6.541
 4515POPC   C3B57909   9.377  24.295   6.963
 4515POPC   C4B57910   9.685  24.175   7.263
 4516POPC   NC357911  15.709  34.781   5.610
 4516POPC   PO457912  15.580  34.190   5.509
 4516POPC   GL157913  15.920  34.271   5.833
 4516POPC   GL257914  16.156  34.545   5.753
 4516POPC   C1A57915  15.931  34.408   6.250
 4516POPC   D2A57916  15.817  34.580   6.631
 4516POPC   C3A57917  15.988  34.460   7.023
 4516POPC   C4A57918  15.699  34.716   7.246
 4516POPC   C1B57919  16.327  34.703   6.124
 4516POPC   C2B57920  16.306  34.709   6.547
 4516POPC   C3B57921  16.104  34.943   6.879
 4516POPC   C4B57922  16.205  34.877   7.317
 4517POPC   NC357923  16.113   3.797   5.496
 4517POPC   PO457924  15.746   3.275   5.412
 4517POPC   GL157925  15.934   3.348   5.853
 4517POPC   GL257926  15.863   3.635   6.127
 4517POPC   C1A57927  16.097   3.198   6.264
 4517POPC   D2A57928  16.008   3.475   6.611
 4517POPC   C3A57929  16.017   3.354   7.045
 4517POPC   C4A57930  16.032   3.360   7.467
 4517POPC   C1B57931  16.328   3.637   6.133
 4517POPC   C2B57932  16.540   3.700   6.529
 4517POPC   C3B57933  16.275   3.811   6.874
 4517POPC   C4B57934  16.098   3.847   7.252
 4518POPC   NC357935  22.876   8.749   5.296
 4518POPC   PO457936  23.041   9.325   5.039
 4518POPC   GL157937  22.995   9.091   5.613
 4518POPC   GL257938  22.821   8.757   5.787
 4518POPC   C1A57939  22.967   9.127   6.087
 4518POPC   D2A57940  22.928   8.875   6.477
 4518POPC   C3A57941  23.162   8.975   6.845
 4518POPC   C4A57942  23.368   9.040   7.220
 4518POPC   C1B57943  22.551   8.707   6.154
 4518POPC   C2B57944  22.415   8.734   6.593
 4518POPC   C3B57945  22.681   8.784   6.952
 4518POPC   C4B57946  22.765   9.055   7.277
 4519POPC   NC357947   2.575  13.516   5.288
 4519POPC   PO457948   2.709  14.181   5.546
 4519POPC   GL157949   2.815  13.952   5.907
 4519POPC   GL257950   2.528  13.710   5.881
 4519POPC   C1A57951   2.756  13.853   6.351
 4519POPC   D2A57952   2.573  13.482   6.590
 4519POPC   C3A57953   2.751  13.517   6.981
 4519POPC   C4A57954   2.930  13.889   6.992
 4519POPC   C1B57955   2.265  13.761   6.265
 4519POPC   C2B57956   2.065  13.607   6.641
 4519POPC   C3B57957   2.257  13.508   7.048
 4519POPC   C4B57958   2.461  13.184   7.316
 4520POPC   NC357959  13.677   5.745   5.304
 4520POPC   PO457960  13.143   5.948   5.654
 4520POPC   GL157961  13.557   5.977   5.921
 4520POPC   GL257962  13.934   5.880   5.817
 4520POPC   C1A57963  13.597   5.765   6.300
 4520POPC   D2A57964  13.462   5.457   6.591
 4520POPC   C3A57965  13.593   5.584   6.980
 4520POPC   C4A57966  13.677   6.010   7.135
 4520POPC   C1B57967  14.103   5.814   6.263
 4520POPC   C2B57968  13.923   5.865   6.693
 4520POPC   C3B57969  14.094   5.719   7.113
 4520POPC   C4B57970  14.090   5.980   7.485
 4521POPC   NC357971  38.356  43.634   5.023
 4521POPC   PO457972  38.519  44.028   5.508
 4521POPC   GL157973  38.530  44.033   5.914
 4521POPC   GL257974  38.599  44.380   5.846
 4521POPC   C1A57975  38.449  43.794   6.265
 4521POPC   D2A57976  38.091  43.785   6.547
 4521POPC   C3A57977  38.231  43.779   6.969
 4521POPC   C4A57978  38.462  43.481   7.197
 4521POPC   C1B57979  38.329  44.367   6.210
 4521POPC   C2B57980  38.425  44.203   6.578
 4521POPC   C3B57981  38.310  44.293   6.952
 4521POPC   C4B57982  38.244  44.116   7.357
 4522POPC   NC357983  24.719  23.575   5.585
 4522POPC   PO457984  24.128  24.023   5.606
 4522POPC   GL157985  24.420  23.905   5.924
 4522POPC   GL257986  24.545  23.578   6.052
 4522POPC   C1A57987  24.327  23.934   6.329
 4522POPC   D2A57988  24.277  23.682   6.654
 4522POPC   C3A57989  24.428  23.894   6.970
 4522POPC   C4A57990  24.467  23.919   7.402
 4522POPC   C1B57991  24.639  23.346   6.409
 4522POPC   C2B57992  24.763  23.547   6.756
 4522POPC   C3B57993  24.699  23.502   7.153
 4522POPC   C4B57994  24.271  23.460   7.216
 4523POPC   NC357995   8.421  22.544   5.387
 4523POPC   PO457996   8.101  23.237   5.460
 4523POPC   GL157997   8.346  23.130   5.812
 4523POPC   GL257998   8.376  22.782   5.842
 4523POPC   C1A57999   8.528  23.137   6.222
 4523POPC   D2A58000   8.304  23.108   6.612
 4523POPC   C3A58001   8.487  23.195   6.981
 4523POPC   C4A58002   8.322  23.174   7.367
 4523POPC   C1B58003   8.181  22.745   6.244
 4523POPC   C2B58004   8.360  22.589   6.643
 4523POPC   C3B58005   8.324  22.721   7.039
 4523POPC   C4B58006   8.148  22.669   7.456
 4524POPC   NC358007  14.188  28.301   5.233
 4524POPC   PO458008  14.662  28.682   5.561
 4524POPC   GL158009  14.368  28.512   5.789
 4524POPC   GL258010  14.335  28.212   5.723
 4524POPC   C1A58011  14.326  28.551   6.179
 4524POPC   D2A58012  14.075  28.614   6.481
 4524POPC   C3A58013  14.258  28.413   6.804
 4524POPC   C4A58014  14.234  28.452   7.225
 4524POPC   C1B58015  14.729  28.250   6.046
 4524POPC   C2B58016  14.697  28.303   6.495
 4524POPC   C3B58017  14.686  28.162   6.919
 4524POPC   C4B58018  14.594  28.077   7.318
 4525POPC   NC358019  39.215  41.142   5.491
 4525POPC   PO458020  39.374  40.428   5.517
 4525POPC   GL158021  39.236  40.722   5.819
 4525POPC   GL258022  39.552  40.909   5.812
 4525POPC   C1A58023  39.014  40.701   6.213
 4525POPC   D2A58024  38.961  40.357   6.515
 4525POPC   C3A58025  39.058  40.591   6.870
 4525POPC   C4A58026  39.070  40.829   7.231
 4525POPC   C1B58027  39.542  40.806   6.227
 4525POPC   C2B58028  39.414  40.945   6.610
 4525POPC   C3B58029  39.515  40.954   7.020
 4525POPC   C4B58030  39.471  41.098   7.424
 4526POPC   NC358031  38.161   1.590   5.598
 4526POPC   PO458032  38.619   1.933   5.276
 4526POPC   GL158033  38.527   1.990   5.734
 4526POPC   GL258034  38.319   2.280   5.820
 4526POPC   C1A58035  38.697   2.155   6.152
 4526POPC   D2A58036  38.718   1.881   6.527
 4526POPC   C3A58037  38.655   1.999   6.941
 4526POPC   C4A58038  38.642   2.284   7.306
 4526POPC   C1B58039  38.238   1.973   6.199
 4526POPC   C2B58040  38.210   1.862   6.649
 4526POPC   C3B58041  38.167   2.002   7.078
 4526POPC   C4B58042  38.021   2.312   7.327
 4527POPC   NC358043   9.432  37.929   5.536
 4527POPC   PO458044  10.061  38.240   5.508
 4527POPC   GL158045   9.904  37.856   5.758
 4527POPC   GL258046   9.893  37.453   5.708
 4527POPC   C1A58047   9.897  37.712   6.177
 4527POPC   D2A58048  10.015  37.583   6.572
 4527POPC   C3A58049   9.948  37.927   6.797
 4527POPC   C4A58050   9.778  37.757   7.147
 4527POPC   C1B58051   9.624  37.300   6.093
 4527POPC   C2B58052   9.690  37.165   6.552
 4527POPC   C3B58053   9.557  37.322   6.980
 4527POPC   C4B58054   9.381  37.537   7.345
 4528POPC   NC358055  29.538  25.229   5.425
 4528POPC   PO458056  30.185  25.114   5.423
 4528POPC   GL158057  30.076  24.935   5.845
 4528POPC   GL258058  29.712  24.870   5.834
 4528POPC   C1A58059  30.101  25.119   6.265
 4528POPC   D2A58060  30.099  25.454   6.591
 4528POPC   C3A58061  29.964  25.373   7.038
 4528POPC   C4A58062  30.181  25.513   7.404
 4528POPC   C1B58063  29.759  24.735   6.266
 4528POPC   C2B58064  29.861  24.919   6.676
 4528POPC   C3B58065  29.700  24.917   7.078
 4528POPC   C4B58066  29.867  25.040   7.459
 4529POPC   NC358067  35.380  43.754   5.468
 4529POPC   PO458068  35.487  44.347   5.192
 4529POPC   GL158069  35.516  44.209   5.657
 4529POPC   GL258070  35.709  43.996   5.814
 4529POPC   C1A58071  35.287  44.068   6.092
 4529POPC   D2A58072  35.208  43.771   6.428
 4529POPC   C3A58073  35.324  43.872   6.845
 4529POPC   C4A58074  35.282  44.141   7.187
 4529POPC   C1B58075  35.719  43.840   6.252
 4529POPC   C2B58076  35.802  43.893   6.692
 4529POPC   C3B58077  35.744  43.904   7.153
 4529POPC   C4B58078  35.642  43.599   7.466
 4530POPC   NC358079  32.088  22.958   5.334
 4530POPC   PO458080  31.768  22.615   5.685
 4530POPC   GL158081  32.023  22.906   5.896
 4530POPC   GL258082  32.369  22.945   5.771
 4530POPC   C1A58083  31.942  22.940   6.351
 4530POPC   D2A58084  31.856  22.883   6.799
 4530POPC   C3A58085  32.138  23.122   7.047
 4530POPC   C4A58086  32.330  23.016   7.439
 4530POPC   C1B58087  32.512  22.952   6.208
 4530POPC   C2B58088  32.401  22.936   6.646
 4530POPC   C3B58089  32.658  22.832   7.026
 4530POPC   C4B58090  32.591  22.587   7.405
 4531POPC   NC358091   4.319   8.025   5.246
 4531POPC   PO458092   4.032   8.528   5.545
 4531POPC   GL158093   4.191   8.255   5.873
 4531POPC   GL258094   4.481   8.377   5.904
 4531POPC   C1A58095   4.021   8.032   6.225
 4531POPC   D2A58096   4.156   7.918   6.649
 4531POPC   C3A58097   4.219   8.128   7.069
 4531POPC   C4A58098   4.365   8.199   7.499
 4531POPC   C1B58099   4.557   8.123   6.270
 4531POPC   C2B58100   4.534   8.293   6.684
 4531POPC   C3B58101   4.726   8.291   7.056
 4531POPC   C4B58102   4.703   8.558   7.397
 4532POPC   NC358103   9.254   9.103   5.391
 4532POPC   PO458104   9.949   9.027   5.435
 4532POPC   GL158105   9.697   9.040   5.777
 4532POPC   GL258106   9.519   8.743   5.656
 4532POPC   C1A58107   9.871   9.089   6.202
 4532POPC   D2A58108  10.053   9.217   6.610
 4532POPC   C3A58109   9.814   8.998   6.917
 4532POPC   C4A58110   9.586   9.082   7.281
 4532POPC   C1B58111   9.647   8.611   6.085
 4532POPC   C2B58112   9.924   8.632   6.443
 4532POPC   C3B58113   9.886   8.511   6.836
 4532POPC   C4B58114   9.528   8.577   7.098
 4533POPC   NC358115  37.023  39.775   5.329
 4533POPC   PO458116  36.605  40.264   5.392
 4533POPC   GL158117  36.791  40.194   5.804
 4533POPC   GL258118  37.090  40.025   5.758
 4533POPC   C1A58119  36.679  40.179   6.222
 4533POPC   D2A58120  36.803  39.935   6.561
 4533POPC   C3A58121  36.616  40.067   6.932
 4533POPC   C4A58122  36.671  40.331   7.257
 4533POPC   C1B58123  37.172  40.045   6.170
 4533POPC   C2B58124  37.328  39.934   6.536
 4533POPC   C3B58125  37.217  39.890   6.903
 4533POPC   C4B58126  36.980  39.905   7.236
 4534POPC   NC358127  19.558  15.089   5.464
 4534POPC   PO458128  19.786  15.728   5.545
 4534POPC   GL158129  19.987  15.365   5.782
 4534POPC   GL258130  19.778  15.088   5.929
 4534POPC   C1A58131  20.186  15.259   6.192
 4534POPC   D2A58132  20.000  15.279   6.612
 4534POPC   C3A58133  20.007  15.391   7.031
 4534POPC   C4A58134  20.055  15.050   7.296
 4534POPC   C1B58135  19.818  14.886   6.333
 4534POPC   C2B58136  19.831  14.818   6.817
 4534POPC   C3B58137  19.712  14.673   7.235
 4534POPC   C4B58138  19.599  14.834   7.613
 4535POPC   NC358139  23.120   1.691   5.544
 4535POPC   PO458140  22.555   2.081   5.470
 4535POPC   GL158141  22.721   1.893   5.827
 4535POPC   GL258142  22.935   2.137   5.887
 4535POPC   C1A58143  22.803   1.848   6.280
 4535POPC   D2A58144  23.051   2.111   6.546
 4535POPC   C3A58145  23.061   1.995   6.990
 4535POPC   C4A58146  23.084   2.066   7.453
 4535POPC   C1B58147  22.721   2.373   6.198
 4535POPC   C2B58148  22.593   2.328   6.613
 4535POPC   C3B58149  22.747   2.384   7.018
 4535POPC   C4B58150  22.614   2.076   7.305
 4536POPC   NC358151  36.494  38.975   5.568
 4536POPC   PO458152  37.053  39.333   5.190
 4536POPC   GL158153  36.980  39.172   5.600
 4536POPC   GL258154  36.778  39.461   5.696
 4536POPC   C1A58155  36.953  39.111   6.066
 4536POPC   D2A58156  37.210  39.021   6.417
 4536POPC   C3A58157  37.050  39.058   6.839
 4536POPC   C4A58158  36.911  39.016   7.234
 4536POPC   C1B58159  36.852  39.638   6.085
 4536POPC   C2B58160  36.886  39.434   6.490
 4536POPC   C3B58161  36.837  39.545   6.912
 4536POPC   C4B58162  36.745  39.477   7.361
 4537POPC   NC358163  26.252  44.233   5.404
 4537POPC   PO458164  25.686  44.005   5.495
 4537POPC   GL158165  25.976  44.103   5.842
 4537POPC   GL258166  26.259  43.909   5.806
 4537POPC   C1A58167  26.001  43.954   6.295
 4537POPC   D2A58168  26.030  44.210   6.690
 4537POPC   C3A58169  25.747  44.161   7.031
 4537POPC   C4A58170  25.577  43.762   7.100
 4537POPC   C1B58171  26.317  43.574   6.091
 4537POPC   C2B58172  26.335  43.547   6.531
 4537POPC   C3B58173  26.419  43.594   6.956
 4537POPC   C4B58174  26.173  43.905   7.184
 4538POPC   NC358175  12.783   4.240   5.463
 4538POPC   PO458176  13.333   3.858   5.393
 4538POPC   GL158177  13.119   4.041   5.799
 4538POPC   GL258178  13.062   4.430   5.868
 4538POPC   C1A58179  12.775   4.061   6.133
 4538POPC   D2A58180  12.719   3.965   6.557
 4538POPC   C3A58181  12.665   4.151   6.936
 4538POPC   C4A58182  12.828   4.036   7.320
 4538POPC   C1B58183  12.889   4.519   6.301
 4538POPC   C2B58184  12.820   4.606   6.709
 4538POPC   C3B58185  12.940   4.524   7.132
 4538POPC   C4B58186  12.576   4.638   7.404
 4539POPC   NC358187   5.270  34.790   5.444
 4539POPC   PO458188   4.755  34.289   5.253
 4539POPC   GL158189   4.796  34.569   5.614
 4539POPC   GL258190   5.078  34.499   5.820
 4539POPC   C1A58191   4.652  34.674   6.066
 4539POPC   D2A58192   4.587  34.869   6.511
 4539POPC   C3A58193   4.815  34.616   6.858
 4539POPC   C4A58194   5.166  34.408   7.083
 4539POPC   C1B58195   5.161  34.777   6.181
 4539POPC   C2B58196   5.270  34.638   6.606
 4539POPC   C3B58197   5.304  34.877   6.986
 4539POPC   C4B58198   5.458  34.777   7.366
 4540POPC   NC358199   8.636  14.543   5.344
 4540POPC   PO458200   8.048  14.230   5.476
 4540POPC   GL158201   8.281  14.289   5.844
 4540POPC   GL258202   8.580  14.512   5.857
 4540POPC   C1A58203   8.069  14.267   6.230
 4540POPC   D2A58204   7.955  14.556   6.593
 4540POPC   C3A58205   8.138  14.475   7.014
 4540POPC   C4A58206   8.195  14.137   7.286
 4540POPC   C1B58207   8.371  14.676   6.263
 4540POPC   C2B58208   8.442  14.784   6.717
 4540POPC   C3B58209   8.616  14.689   7.140
 4540POPC   C4B58210   8.546  14.615   7.616
 4541POPC   NC358211  44.013  42.734   5.490
 4541POPC   PO458212  44.017  43.427   5.454
 4541POPC   GL158213  43.936  43.139   5.804
 4541POPC   GL258214  43.617  42.942   5.780
 4541POPC   C1A58215  43.964  42.908   6.211
 4541POPC   D2A58216  43.974  43.077   6.638
 4541POPC   C3A58217  44.111  42.934   7.077
 4541POPC   C4A58218  43.966  43.128   7.485
 4541POPC   C1B58219  43.547  43.270   6.128
 4541POPC   C2B58220  43.626  43.452   6.578
 4541POPC   C3B58221  43.717  43.287   7.018
 4541POPC   C4B58222  43.455  43.097   7.343
 4542POPC   NC358223  44.469  40.483   5.477
 4542POPC   PO458224  44.420  41.059   5.775
 4542POPC   GL158225  44.495  40.671   5.998
 4542POPC   GL258226  44.803  40.523   5.865
 4542POPC   C1A58227  44.460  40.706   6.461
 4542POPC   D2A58228  44.676  40.760   6.871
 4542POPC   C3A58229  44.488  40.564   7.246
 4542POPC   C4A58230  44.398  40.692   7.662
 4542POPC   C1B58231  44.994  40.787   6.188
 4542POPC   C2B58232   0.227  40.776   6.571
 4542POPC   C3B58233   0.187  40.690   6.967
 4542POPC   C4B58234  44.975  40.748   7.312
 4543POPC   NC358235   6.076  14.493   5.393
 4543POPC   PO458236   5.570  14.134   5.686
 4543POPC   GL158237   5.979  14.271   5.918
 4543POPC   GL258238   6.044  14.625   5.917
 4543POPC   C1A58239   6.027  14.268   6.391
 4543POPC   D2A58240   5.646  14.171   6.648
 4543POPC   C3A58241   5.651  14.325   7.055
 4543POPC   C4A58242   6.055  14.206   7.269
 4543POPC   C1B58243   5.826  14.722   6.294
 4543POPC   C2B58244   5.869  14.666   6.732
 4543POPC   C3B58245   5.932  14.735   7.183
 4543POPC   C4B58246   5.738  14.666   7.601
 4544POPC   NC358247  42.657   0.295   5.690
 4544POPC   PO458248  43.274   0.202   5.780
 4544POPC   GL158249  43.205   0.621   5.922
 4544POPC   GL258250  42.856   0.590   6.068
 4544POPC   C1A58251  43.310   0.677   6.354
 4544POPC   D2A58252  43.185   0.331   6.593
 4544POPC   C3A58253  43.315   0.288   6.984
 4544POPC   C4A58254  43.175   0.532   7.291
 4544POPC   C1B58255  42.740   0.217   6.355
 4544POPC   C2B58256  42.692  44.962   6.743
 4544POPC   C3B58257  42.661   0.021   7.193
 4544POPC   C4B58258  42.827   0.259   7.562
 4545POPC   NC358259  30.987  14.148   5.501
 4545POPC   PO458260  30.875  14.690   5.080
 4545POPC   GL158261  30.808  14.667   5.602
 4545POPC   GL258262  31.069  14.720   5.876
 4545POPC   C1A58263  30.589  14.458   6.025
 4545POPC   D2A58264  30.611  14.182   6.455
 4545POPC   C3A58265  30.590  14.278   6.933
 4545POPC   C4A58266  30.656  14.334   7.398
 4545POPC   C1B58267  30.976  14.608   6.321
 4545POPC   C2B58268  31.065  14.396   6.682
 4545POPC   C3B58269  31.048  14.452   7.090
 4545POPC   C4B58270  30.827  14.804   7.232
 4546POPC   NC358271   2.403  29.603   5.511
 4546POPC   PO458272   2.004  30.068   5.282
 4546POPC   GL158273   1.878  29.824   5.689
 4546POPC   GL258274   2.012  29.492   5.823
 4546POPC   C1A58275   1.968  29.871   6.164
 4546POPC   D2A58276   1.817  29.923   6.592
 4546POPC   C3A58277   2.093  30.021   6.962
 4546POPC   C4A58278   1.867  30.007   7.359
 4546POPC   C1B58279   2.290  29.475   6.217
 4546POPC   C2B58280   2.097  29.502   6.634
 4546POPC   C3B58281   1.915  29.565   7.058
 4546POPC   C4B58282   2.228  29.660   7.345
 4547POPC   NC358283  20.367  24.086   5.588
 4547POPC   PO458284  20.751  23.498   5.426
 4547POPC   GL158285  20.705  23.669   5.802
 4547POPC   GL258286  20.358  23.610   5.825
 4547POPC   C1A58287  20.772  23.506   6.216
 4547POPC   D2A58288  20.979  23.659   6.599
 4547POPC   C3A58289  20.750  23.498   6.935
 4547POPC   C4A58290  20.587  23.643   7.296
 4547POPC   C1B58291  20.416  23.895   6.188
 4547POPC   C2B58292  20.485  23.782   6.571
 4547POPC   C3B58293  20.361  23.921   6.929
 4547POPC   C4B58294  20.234  24.000   7.312
 4548POPC   NC358295  36.463   6.279   5.554
 4548POPC   PO458296  36.048   6.876   5.621
 4548POPC   GL158297  36.375   6.718   5.851
 4548POPC   GL258298  36.607   7.009   5.889
 4548POPC   C1A58299  36.303   6.500   6.261
 4548POPC   D2A58300  36.010   6.433   6.627
 4548POPC   C3A58301  36.164   6.540   7.048
 4548POPC   C4A58302  35.842   6.447   7.334
 4548POPC   C1B58303  36.309   7.034   6.236
 4548POPC   C2B58304  36.213   6.908   6.618
 4548POPC   C3B58305  36.423   6.999   6.958
 4548POPC   C4B58306  36.243   7.060   7.338
 4549POPC   NC358307  29.241  40.206   5.052
 4549POPC   PO458308  28.929  39.868   5.546
 4549POPC   GL158309  29.079  39.664   5.883
 4549POPC   GL258310  29.233  39.992   5.960
 4549POPC   C1A58311  29.152  39.658   6.326
 4549POPC   D2A58312  29.270  40.036   6.521
 4549POPC   C3A58313  29.106  39.876   6.849
 4549POPC   C4A58314  29.101  39.794   7.254
 4549POPC   C1B58315  28.848  40.076   6.205
 4549POPC   C2B58316  28.813  40.241   6.612
 4549POPC   C3B58317  29.038  40.338   6.996
 4549POPC   C4B58318  28.797  40.234   7.309
 4550POPC   NC358319  20.932  24.665   5.244
 4550POPC   PO458320  20.268  24.545   5.504
 4550POPC   GL158321  20.679  24.492   5.698
 4550POPC   GL258322  20.869  24.157   5.707
 4550POPC   C1A58323  20.620  24.399   6.151
 4550POPC   D2A58324  20.354  24.310   6.537
 4550POPC   C3A58325  20.567  24.384   6.950
 4550POPC   C4A58326  20.531  24.656   7.284
 4550POPC   C1B58327  20.945  23.994   6.143
 4550POPC   C2B58328  20.841  24.152   6.559
 4550POPC   C3B58329  20.886  23.992   6.981
 4550POPC   C4B58330  20.730  24.106   7.405
 4551POPC   NC358331  34.256  19.629   5.192
 4551POPC   PO458332  33.601  19.524   5.280
 4551POPC   GL158333  33.923  19.661   5.591
 4551POPC   GL258334  33.957  19.407   5.838
 4551POPC   C1A58335  33.983  19.884   6.009
 4551POPC   D2A58336  33.896  19.833   6.453
 4551POPC   C3A58337  33.916  20.166   6.760
 4551POPC   C4A58338  33.986  20.178   7.208
 4551POPC   C1B58339  34.080  19.358   6.287
 4551POPC   C2B58340  34.097  19.460   6.750
 4551POPC   C3B58341  34.154  19.673   7.150
 4551POPC   C4B58342  34.258  19.510   7.551
 4552POPC   NC358343  17.016  17.772   5.395
 4552POPC   PO458344  16.618  17.254   5.202
 4552POPC   GL158345  16.735  17.429   5.660
 4552POPC   GL258346  16.527  17.263   5.861
 4552POPC   C1A58347  16.710  17.673   6.107
 4552POPC   D2A58348  16.512  17.810   6.525
 4552POPC   C3A58349  16.722  17.680   6.921
 4552POPC   C4A58350  16.539  17.516   7.267
 4552POPC   C1B58351  16.852  17.173   6.159
 4552POPC   C2B58352  16.860  17.339   6.578
 4552POPC   C3B58353  16.824  17.160   7.025
 4552POPC   C4B58354  16.930  16.884   7.388
 4553POPC   NC358355  25.532  44.439   5.425
 4553POPC   PO458356  25.101  44.964   5.230
 4553POPC   GL158357  25.054  44.704   5.593
 4553POPC   GL258358  25.171  44.991   5.789
 4553POPC   C1A58359  25.068  44.565   6.061
 4553POPC   D2A58360  24.989  44.448   6.522
 4553POPC   C3A58361  25.234  44.603   6.906
 4553POPC   C4A58362  25.341  44.367   7.276
 4553POPC   C1B58363  25.041   0.108   6.219
 4553POPC   C2B58364  24.968  44.962   6.637
 4553POPC   C3B58365  25.064   0.110   7.052
 4553POPC   C4B58366  25.294  44.855   7.368
 4554POPC   NC358367  18.675  10.946   5.490
 4554POPC   PO458368  19.192  10.435   5.449
 4554POPC   GL158369  19.296  10.541   5.867
 4554POPC   GL258370  19.234  10.899   5.954
 4554POPC   C1A58371  19.348  10.571   6.303
 4554POPC   D2A58372  19.260  10.889   6.574
 4554POPC   C3A58373  19.354  10.747   6.956
 4554POPC   C4A58374  19.168  10.507   7.243
 4554POPC   C1B58375  18.867  10.773   6.227
 4554POPC   C2B58376  18.674  10.816   6.655
 4554POPC   C3B58377  18.775  10.825   7.129
 4554POPC   C4B58378  18.749  10.887   7.604
 4555POPC   NC358379   7.695  19.523   5.415
 4555POPC   PO458380   8.138  20.071   5.414
 4555POPC   GL158381   8.208  19.843   5.793
 4555POPC   GL258382   7.927  19.591   5.876
 4555POPC   C1A58383   8.473  19.984   6.144
 4555POPC   D2A58384   8.342  20.143   6.551
 4555POPC   C3A58385   8.410  19.919   6.932
 4555POPC   C4A58386   8.227  19.933   7.311
 4555POPC   C1B58387   8.155  19.574   6.271
 4555POPC   C2B58388   8.030  19.717   6.668
 4555POPC   C3B58389   7.888  19.634   7.093
 4555POPC   C4B58390   7.876  19.663   7.590
 4556POPC   NC358391   8.973  39.564   5.510
 4556POPC   PO458392   9.233  38.978   5.387
 4556POPC   GL158393   9.107  39.165   5.811
 4556POPC   GL258394   9.256  39.537   5.923
 4556POPC   C1A58395   9.016  39.235   6.252
 4556POPC   D2A58396   8.876  39.124   6.623
 4556POPC   C3A58397   9.112  39.265   6.940
 4556POPC   C4A58398   9.163  38.968   7.254
 4556POPC   C1B58399   8.849  39.700   6.145
 4556POPC   C2B58400   8.874  39.647   6.572
 4556POPC   C3B58401   8.909  39.745   6.980
 4556POPC   C4B58402   8.835  39.473   7.312
 4557POPC   NC358403  44.755  25.017   5.409
 4557POPC   PO458404  44.969  25.602   5.441
 4557POPC   GL158405  44.769  25.387   5.810
 4557POPC   GL258406  44.901  25.054   5.880
 4557POPC   C1A58407  44.532  25.249   6.212
 4557POPC   D2A58408  44.500  25.003   6.611
 4557POPC   C3A58409  44.432  25.232   7.026
 4557POPC   C4A58410  44.559  25.533   7.346
 4557POPC   C1B58411   0.047  25.192   6.257
 4557POPC   C2B58412   0.021  25.113   6.677
 4557POPC   C3B58413  44.990  25.285   7.057
 4557POPC   C4B58414   0.135  25.064   7.334
 4558POPC   NC358415  12.954  13.558   5.312
 4558POPC   PO458416  12.589  13.136   5.364
 4558POPC   GL158417  12.767  13.363   5.766
 4558POPC   GL258418  12.899  13.733   5.794
 4558POPC   C1A58419  12.690  13.535   6.213
 4558POPC   D2A58420  12.499  13.635   6.602
 4558POPC   C3A58421  12.710  13.528   6.951
 4558POPC   C4A58422  12.903  13.506   7.313
 4558POPC   C1B58423  13.144  13.765   6.202
 4558POPC   C2B58424  13.010  13.847   6.659
 4558POPC   C3B58425  12.916  14.007   7.102
 4558POPC   C4B58426  12.982  13.978   7.582
 4559POPC   NC358427  33.361  20.665   5.441
 4559POPC   PO458428  34.020  20.797   5.287
 4559POPC   GL158429  33.814  20.833   5.674
 4559POPC   GL258430  33.716  20.490   5.781
 4559POPC   C1A58431  33.899  20.828   6.122
 4559POPC   D2A58432  33.926  20.651   6.543
 4559POPC   C3A58433  33.709  20.780   6.913
 4559POPC   C4A58434  33.844  20.759   7.333
 4559POPC   C1B58435  33.458  20.536   6.175
 4559POPC   C2B58436  33.413  20.442   6.626
 4559POPC   C3B58437  33.509  20.299   7.050
 4559POPC   C4B58438  33.544  20.228   7.494
 4560POPC   NC358439  11.091   9.104   5.248
 4560POPC   PO458440  11.532   8.648   5.336
 4560POPC   GL158441  11.404   8.835   5.772
 4560POPC   GL258442  11.352   9.201   5.820
 4560POPC   C1A58443  11.266   8.893   6.233
 4560POPC   D2A58444  11.003   9.033   6.607
 4560POPC   C3A58445  11.144   8.856   7.006
 4560POPC   C4A58446  11.598   8.848   7.077
 4560POPC   C1B58447  11.340   9.404   6.263
 4560POPC   C2B58448  11.480   9.283   6.696
 4560POPC   C3B58449  11.344   9.369   7.103
 4560POPC   C4B58450  10.917   9.264   7.241
 4561POPC   NC358451   8.656   9.371   5.477
 4561POPC   PO458452   9.016   8.707   5.465
 4561POPC   GL158453   9.061   8.916   5.834
 4561POPC   GL258454   8.721   9.057   5.883
 4561POPC   C1A58455   9.339   9.002   6.184
 4561POPC   D2A58456   9.459   8.782   6.567
 4561POPC   C3A58457   9.293   8.994   6.890
 4561POPC   C4A58458   9.060   9.006   7.261
 4561POPC   C1B58459   8.839   8.894   6.289
 4561POPC   C2B58460   8.830   8.911   6.727
 4561POPC   C3B58461   8.720   9.259   6.994
 4561POPC   C4B58462   8.743   9.385   7.441
 4562POPC   NC358463  30.283  33.635   5.392
 4562POPC   PO458464  29.885  34.019   5.086
 4562POPC   GL158465  29.806  33.666   5.572
 4562POPC   GL258466  30.094  33.518   5.848
 4562POPC   C1A58467  29.656  33.563   6.065
 4562POPC   D2A58468  29.421  33.552   6.473
 4562POPC   C3A58469  29.714  33.561   6.817
 4562POPC   C4A58470  29.904  33.681   7.194
 4562POPC   C1B58471  30.109  33.606   6.334
 4562POPC   C2B58472  30.039  33.923   6.675
 4562POPC   C3B58473  30.227  34.044   7.071
 4562POPC   C4B58474  30.234  33.909   7.515
 4563POPC   NC358475   5.476   6.923   5.304
 4563POPC   PO458476   5.614   6.259   5.199
 4563POPC   GL158477   5.799   6.686   5.594
 4563POPC   GL258478   5.550   6.768   5.805
 4563POPC   C1A58479   6.003   6.767   6.067
 4563POPC   D2A58480   5.985   6.979   6.527
 4563POPC   C3A58481   5.924   6.801   7.001
 4563POPC   C4A58482   6.015   6.561   7.427
 4563POPC   C1B58483   5.530   6.924   6.236
 4563POPC   C2B58484   5.483   6.881   6.697
 4563POPC   C3B58485   5.500   7.096   7.105
 4563POPC   C4B58486   5.683   6.928   7.478
 4564POPC   NC358487  43.431  18.385   5.542
 4564POPC   PO458488  44.012  18.228   5.182
 4564POPC   GL158489  44.015  18.388   5.708
 4564POPC   GL258490  43.690  18.339   5.955
 4564POPC   C1A58491  44.095  18.191   6.174
 4564POPC   D2A58492  43.817  18.323   6.582
 4564POPC   C3A58493  44.019  18.493   7.019
 4564POPC   C4A58494  44.105  18.496   7.534
 4564POPC   C1B58495  43.696  17.895   6.201
 4564POPC   C2B58496  43.990  17.819   6.540
 4564POPC   C3B58497  43.878  17.954   6.925
 4564POPC   C4B58498  43.894  17.756   7.270
 4565POPC   NC358499  41.243  19.152   5.548
 4565POPC   PO458500  41.860  19.420   5.573
 4565POPC   GL158501  41.684  19.092   5.852
 4565POPC   GL258502  41.429  19.178   6.019
 4565POPC   C1A58503  41.645  18.754   6.182
 4565POPC   D2A58504  41.512  18.759   6.645
 4565POPC   C3A58505  41.788  18.799   7.000
 4565POPC   C4A58506  41.604  18.954   7.377
 4565POPC   C1B58507  41.155  19.366   6.246
 4565POPC   C2B58508  41.030  19.371   6.659
 4565POPC   C3B58509  41.114  19.270   7.081
 4565POPC   C4B58510  41.251  19.384   7.477
 4566POPC   NC358511   5.917  25.924   5.442
 4566POPC   PO458512   5.608  26.497   5.460
 4566POPC   GL158513   5.693  26.202   5.808
 4566POPC   GL258514   6.061  26.229   5.908
 4566POPC   C1A58515   5.772  25.911   6.174
 4566POPC   D2A58516   5.839  26.223   6.542
 4566POPC   C3A58517   5.612  26.127   6.905
 4566POPC   C4A58518   5.716  25.704   7.072
 4566POPC   C1B58519   6.261  25.941   6.248
 4566POPC   C2B58520   6.055  25.776   6.633
 4566POPC   C3B58521   6.100  26.036   6.990
 4566POPC   C4B58522   5.892  26.134   7.345
 4567POPC   NC358523   0.085  37.935   5.525
 4567POPC   PO458524   0.533  37.476   5.496
 4567POPC   GL158525   0.502  37.750   5.844
 4567POPC   GL258526   0.704  38.057   5.826
 4567POPC   C1A58527   0.551  37.644   6.273
 4567POPC   D2A58528   0.328  37.477   6.625
 4567POPC   C3A58529   0.497  37.682   6.965
 4567POPC   C4A58530   0.567  37.671   7.373
 4567POPC   C1B58531   0.800  38.115   6.270
 4567POPC   C2B58532   0.746  38.069   6.726
 4567POPC   C3B58533   0.935  37.951   7.125
 4567POPC   C4B58534   0.839  38.092   7.541
 4568POPC   NC358535   2.230  33.925   5.416
 4568POPC   PO458536   1.702  33.628   5.325
 4568POPC   GL158537   1.825  33.770   5.756
 4568POPC   GL258538   2.192  33.700   5.869
 4568POPC   C1A58539   1.802  33.824   6.227
 4568POPC   D2A58540   1.678  33.537   6.598
 4568POPC   C3A58541   1.954  33.604   6.973
 4568POPC   C4A58542   1.943  33.903   7.311
 4568POPC   C1B58543   2.363  33.765   6.303
 4568POPC   C2B58544   2.277  33.961   6.742
 4568POPC   C3B58545   2.316  34.201   7.144
 4568POPC   C4B58546   2.332  34.041   7.606
 4569POPC   NC358547  21.819  13.715   5.132
 4569POPC   PO458548  22.388  13.337   5.369
 4569POPC   GL158549  22.343  13.536   5.783
 4569POPC   GL258550  22.296  13.905   5.756
 4569POPC   C1A58551  22.034  13.606   6.109
 4569POPC   D2A58552  21.788  13.792   6.418
 4569POPC   C3A58553  21.893  13.600   6.784
 4569POPC   C4A58554  21.847  13.750   7.171
 4569POPC   C1B58555  22.438  13.924   6.171
 4569POPC   C2B58556  22.231  13.997   6.545
 4569POPC   C3B58557  22.302  13.873   6.947
 4569POPC   C4B58558  22.349  13.708   7.338
 4570POPC   NC358559  19.430  26.400   5.515
 4570POPC   PO458560  18.897  25.859   5.399
 4570POPC   GL158561  18.907  26.035   5.837
 4570POPC   GL258562  18.994  26.348   5.761
 4570POPC   C1A58563  19.041  25.899   6.254
 4570POPC   D2A58564  18.912  25.985   6.682
 4570POPC   C3A58565  19.256  25.904   6.949
 4570POPC   C4A58566  19.259  25.701   7.316
 4570POPC   C1B58567  18.931  26.407   6.208
 4570POPC   C2B58568  19.249  26.385   6.561
 4570POPC   C3B58569  19.146  26.397   6.994
 4570POPC   C4B58570  18.745  26.331   7.241
 4571POPC   NC358571  17.756  26.211   5.335
 4571POPC   PO458572  17.303  25.719   5.237
 4571POPC   GL158573  17.335  26.054   5.626
 4571POPC   GL258574  17.673  26.087   5.812
 4571POPC   C1A58575  17.273  26.253   6.071
 4571POPC   D2A58576  17.482  26.217   6.478
 4571POPC   C3A58577  17.244  26.345   6.843
 4571POPC   C4A58578  17.306  26.123   7.212
 4571POPC   C1B58579  17.867  25.956   6.183
 4571POPC   C2B58580  17.823  25.810   6.570
 4571POPC   C3B58581  17.706  25.955   6.932
 4571POPC   C4B58582  17.826  25.701   7.237
 4572POPC   NC358583  41.049   0.292   5.530
 4572POPC   PO458584  40.431   0.513   5.323
 4572POPC   GL158585  40.617   0.486   5.753
 4572POPC   GL258586  40.637   0.815   5.860
 4572POPC   C1A58587  40.786   0.247   6.157
 4572POPC   D2A58588  41.068   0.320   6.546
 4572POPC   C3A58589  41.014   0.190   7.003
 4572POPC   C4A58590  40.753   0.149   7.376
 4572POPC   C1B58591  40.827   0.760   6.265
 4572POPC   C2B58592  41.242   0.777   6.457
 4572POPC   C3B58593  41.143   0.716   6.904
 4572POPC   C4B58594  40.834   0.634   7.249
 4573POPC   NC358595  26.975  19.383   5.467
 4573POPC   PO458596  26.582  18.784   5.483
 4573POPC   GL158597  26.722  19.099   5.840
 4573POPC   GL258598  27.007  19.361   5.961
 4573POPC   C1A58599  26.776  18.942   6.288
 4573POPC   D2A58600  26.881  18.913   6.742
 4573POPC   C3A58601  26.656  18.734   7.086
 4573POPC   C4A58602  26.608  19.000   7.445
 4573POPC   C1B58603  26.834  19.440   6.357
 4573POPC   C2B58604  26.947  19.416   6.773
 4573POPC   C3B58605  26.844  19.429   7.201
 4573POPC   C4B58606  27.178  19.480   7.481
 4574POPC   NC358607  36.103   9.245   5.398
 4574POPC   PO458608  36.066   8.546   5.362
 4574POPC   GL158609  35.966   8.843   5.714
 4574POPC   GL258610  36.281   9.028   5.827
 4574POPC   C1A58611  35.913   8.903   6.170
 4574POPC   D2A58612  36.137   8.843   6.573
 4574POPC   C3A58613  35.933   8.950   6.952
 4574POPC   C4A58614  35.907   8.866   7.393
 4574POPC   C1B58615  36.366   9.185   6.257
 4574POPC   C2B58616  36.538   9.144   6.676
 4574POPC   C3B58617  36.401   9.045   7.097
 4574POPC   C4B58618  36.213   9.282   7.425
 4575POPC   NC358619  30.166  16.306   5.402
 4575POPC   PO458620  29.877  17.012   5.525
 4575POPC   GL158621  29.833  16.714   5.849
 4575POPC   GL258622  30.170  16.618   5.825
 4575POPC   C1A58623  29.854  16.789   6.300
 4575POPC   D2A58624  30.079  16.987   6.638
 4575POPC   C3A58625  29.964  16.815   7.014
 4575POPC   C4A58626  30.159  16.648   7.349
 4575POPC   C1B58627  30.159  16.396   6.208
 4575POPC   C2B58628  30.163  16.479   6.629
 4575POPC   C3B58629  30.398  16.408   6.976
 4575POPC   C4B58630  30.326  16.146   7.290
 4576POPC   NC358631  28.752   0.319   5.522
 4576POPC   PO458632  29.250   0.689   5.216
 4576POPC   GL158633  29.222   0.439   5.677
 4576POPC   GL258634  29.567   0.531   5.789
 4576POPC   C1A58635  28.976   0.259   6.103
 4576POPC   D2A58636  28.978   0.138   6.528
 4576POPC   C3A58637  28.869   0.409   6.853
 4576POPC   C4A58638  28.947   0.457   7.286
 4576POPC   C1B58639  29.557   0.676   6.222
 4576POPC   C2B58640  29.319   0.535   6.586
 4576POPC   C3B58641  29.368   0.497   6.995
 4576POPC   C4B58642  29.682   0.668   7.241
 4577POPC   NC358643  27.566  32.516   5.674
 4577POPC   PO458644  27.679  33.057   5.322
 4577POPC   GL158645  27.524  33.087   5.773
 4577POPC   GL258646  27.563  32.820   6.070
 4577POPC   C1A58647  27.580  33.316   6.171
 4577POPC   D2A58648  27.437  33.126   6.577
 4577POPC   C3A58649  27.666  33.310   6.929
 4577POPC   C4A58650  27.484  33.378   7.323
 4577POPC   C1B58651  27.957  32.572   6.215
 4577POPC   C2B58652  28.082  32.584   6.643
 4577POPC   C3B58653  27.794  32.817   6.910
 4577POPC   C4B58654  27.404  32.919   7.107
 4578POPC   NC358655  11.754   3.053   5.621
 4578POPC   PO458656  12.167   2.588   5.492
 4578POPC   GL158657  12.092   2.695   5.904
 4578POPC   GL258658  12.169   3.043   5.923
 4578POPC   C1A58659  12.092   2.771   6.351
 4578POPC   D2A58660  11.781   2.967   6.629
 4578POPC   C3A58661  11.952   2.835   7.031
 4578POPC   C4A58662  12.394   2.834   7.185
 4578POPC   C1B58663  12.126   3.288   6.315
 4578POPC   C2B58664  12.209   3.225   6.746
 4578POPC   C3B58665  12.191   3.293   7.170
 4578POPC   C4B58666  12.354   3.311   7.602
 4579POPC   NC358667  19.990  17.092   5.488
 4579POPC   PO458668  19.718  17.771   5.601
 4579POPC   GL158669  19.698  17.436   5.853
 4579POPC   GL258670  20.034  17.362   5.902
 4579POPC   C1A58671  19.655  17.421   6.297
 4579POPC   D2A58672  19.876  17.218   6.645
 4579POPC   C3A58673  19.842  17.307   7.066
 4579POPC   C4A58674  19.896  17.405   7.502
 4579POPC   C1B58675  20.185  17.423   6.289
 4579POPC   C2B58676  20.017  17.737   6.553
 4579POPC   C3B58677  19.758  17.856   6.900
 4579POPC   C4B58678  19.854  17.878   7.344
 4580POPC   NC358679  25.609  21.171   5.524
 4580POPC   PO458680  25.135  21.674   5.330
 4580POPC   GL158681  25.218  21.439   5.718
 4580POPC   GL258682  25.443  21.662   5.896
 4580POPC   C1A58683  25.271  21.243   6.150
 4580POPC   D2A58684  25.425  21.232   6.592
 4580POPC   C3A58685  25.175  21.289   6.950
 4580POPC   C4A58686  25.205  21.228   7.398
 4580POPC   C1B58687  25.628  21.600   6.314
 4580POPC   C2B58688  25.753  21.637   6.759
 4580POPC   C3B58689  25.592  21.506   7.188
 4580POPC   C4B58690  25.449  21.602   7.638
 4581POPC   NC358691  37.116  16.211   5.397
 4581POPC   PO458692  36.906  15.660   5.450
 4581POPC   GL158693  37.101  15.839   5.791
 4581POPC   GL258694  36.858  16.106   5.836
 4581POPC   C1A58695  37.185  15.726   6.240
 4581POPC   D2A58696  36.967  15.783   6.660
 4581POPC   C3A58697  37.156  15.706   7.065
 4581POPC   C4A58698  37.357  15.838   7.456
 4581POPC   C1B58699  36.741  16.002   6.242
 4581POPC   C2B58700  36.692  16.229   6.617
 4581POPC   C3B58701  36.681  16.060   7.019
 4581POPC   C4B58702  36.658  16.335   7.315
 4582POPC   NC358703  30.172  15.546   5.363
 4582POPC   PO458704  29.645  16.048   5.400
 4582POPC   GL158705  29.876  15.839   5.678
 4582POPC   GL258706  29.899  16.158   5.847
 4582POPC   C1A58707  30.074  15.750   6.083
 4582POPC   D2A58708  29.967  15.995   6.478
 4582POPC   C3A58709  30.062  15.834   6.918
 4582POPC   C4A58710  30.182  15.591   7.287
 4582POPC   C1B58711  29.623  16.300   6.195
 4582POPC   C2B58712  29.666  16.393   6.640
 4582POPC   C3B58713  29.875  16.319   7.048
 4582POPC   C4B58714  29.657  16.428   7.444
 4583POPC   NC358715   3.853  16.694   5.439
 4583POPC   PO458716   3.425  17.183   5.328
 4583POPC   GL158717   3.502  16.945   5.743
 4583POPC   GL258718   3.210  17.062   5.866
 4583POPC   C1A58719   3.360  16.627   6.112
 4583POPC   D2A58720   3.142  16.527   6.525
 4583POPC   C3A58721   3.318  16.572   6.952
 4583POPC   C4A58722   3.527  16.591   7.376
 4583POPC   C1B58723   3.482  17.098   6.244
 4583POPC   C2B58724   3.440  17.184   6.677
 4583POPC   C3B58725   3.402  17.045   7.084
 4583POPC   C4B58726   3.619  17.175   7.425
 4584POPC   NC358727  11.054  38.686   5.513
 4584POPC   PO458728  11.332  38.213   5.127
 4584POPC   GL158729  11.509  38.306   5.580
 4584POPC   GL258730  11.272  38.402   5.856
 4584POPC   C1A58731  11.715  38.240   6.027
 4584POPC   D2A58732  11.531  38.435   6.423
 4584POPC   C3A58733  11.504  38.369   6.873
 4584POPC   C4A58734  11.600  38.464   7.290
 4584POPC   C1B58735  11.094  38.613   6.198
 4584POPC   C2B58736  10.740  38.642   6.477
 4584POPC   C3B58737  10.747  38.631   6.910
 4584POPC   C4B58738  11.056  38.512   7.207
 4585POPC   NC358739   0.008  24.220   5.494
 4585POPC   PO458740  44.501  24.620   5.335
 4585POPC   GL158741  44.659  24.604   5.774
 4585POPC   GL258742  44.610  24.281   5.948
 4585POPC   C1A58743  44.738  24.726   6.226
 4585POPC   D2A58744  44.908  24.618   6.628
 4585POPC   C3A58745  44.740  24.816   7.028
 4585POPC   C4A58746  44.804  24.670   7.450
 4585POPC   C1B58747  44.311  24.442   6.297
 4585POPC   C2B58748  44.422  24.495   6.753
 4585POPC   C3B58749  44.732  24.302   7.080
 4585POPC   C4B58750  44.600  24.224   7.571
 4586POPC   NC358751  33.321  19.228   5.066
 4586POPC   PO458752  32.719  19.058   5.411
 4586POPC   GL158753  32.896  19.022   5.849
 4586POPC   GL258754  32.887  18.673   5.966
 4586POPC   C1A58755  33.048  19.171   6.240
 4586POPC   D2A58756  33.252  19.037   6.646
 4586POPC   C3A58757  33.182  19.322   7.002
 4586POPC   C4A58758  32.926  19.353   7.368
 4586POPC   C1B58759  32.665  18.804   6.315
 4586POPC   C2B58760  32.730  19.109   6.628
 4586POPC   C3B58761  32.812  18.968   7.033
 4586POPC   C4B58762  33.122  18.900   7.364
 4587POPC   NC358763  33.239  17.761   5.231
 4587POPC   PO458764  32.752  17.250   5.387
 4587POPC   GL158765  32.848  17.512   5.709
 4587POPC   GL258766  33.199  17.625   5.728
 4587POPC   C1A58767  32.680  17.539   6.114
 4587POPC   D2A58768  32.941  17.684   6.446
 4587POPC   C3A58769  32.897  17.684   6.873
 4587POPC   C4A58770  32.740  17.553   7.267
 4587POPC   C1B58771  33.181  17.382   6.122
 4587POPC   C2B58772  32.947  17.131   6.448
 4587POPC   C3B58773  33.009  17.176   6.900
 4587POPC   C4B58774  33.239  17.467   7.189
 4588POPC   NC358775  31.022  16.903   5.492
 4588POPC   PO458776  30.587  16.372   5.590
 4588POPC   GL158777  30.645  16.816   5.854
 4588POPC   GL258778  30.998  16.999   5.985
 4588POPC   C1A58779  30.426  16.843   6.259
 4588POPC   D2A58780  30.659  16.546   6.556
 4588POPC   C3A58781  30.845  16.664   6.965
 4588POPC   C4A58782  30.679  16.634   7.396
 4588POPC   C1B58783  30.898  16.969   6.386
 4588POPC   C2B58784  30.580  17.147   6.660
 4588POPC   C3B58785  30.460  17.029   7.072
 4588POPC   C4B58786  30.669  17.135   7.461
 4589POPC   NC358787  29.882  35.836   5.479
 4589POPC   PO458788  30.210  36.381   5.459
 4589POPC   GL158789  29.969  36.222   5.798
 4589POPC   GL258790  29.630  36.210   5.762
 4589POPC   C1A58791  30.085  36.291   6.203
 4589POPC   D2A58792  30.058  36.024   6.536
 4589POPC   C3A58793  30.044  36.199   6.936
 4589POPC   C4A58794  30.051  35.968   7.296
 4589POPC   C1B58795  29.618  36.072   6.183
 4589POPC   C2B58796  29.591  36.162   6.615
 4589POPC   C3B58797  29.656  35.872   6.942
 4589POPC   C4B58798  29.551  35.833   7.367
 4590POPC   NC358799   1.558  30.162   5.368
 4590POPC   PO458800   0.867  30.171   5.493
 4590POPC   GL158801   1.181  29.901   5.715
 4590POPC   GL258802   1.460  30.093   5.857
 4590POPC   C1A58803   1.226  29.748   6.144
 4590POPC   D2A58804   1.305  29.937   6.547
 4590POPC   C3A58805   1.145  29.718   6.920
 4590POPC   C4A58806   0.923  29.799   7.284
 4590POPC   C1B58807   1.666  30.276   6.199
 4590POPC   C2B58808   1.553  30.398   6.597
 4590POPC   C3B58809   1.545  30.143   6.974
 4590POPC   C4B58810   1.398  30.217   7.379
 4591POPC   NC358811  23.297   4.949   5.630
 4591POPC   PO458812  22.813   5.345   5.401
 4591POPC   GL158813  22.881   5.239   5.817
 4591POPC   GL258814  23.213   5.402   5.862
 4591POPC   C1A58815  22.825   4.944   6.186
 4591POPC   D2A58816  23.088   4.918   6.588
 4591POPC   C3A58817  22.840   5.171   6.868
 4591POPC   C4A58818  22.636   5.033   7.243
 4591POPC   C1B58819  23.194   5.279   6.247
 4591POPC   C2B58820  23.281   5.440   6.632
 4591POPC   C3B58821  23.355   5.270   7.003
 4591POPC   C4B58822  23.155   5.025   7.230
 4592POPC   NC358823  17.528  34.641   5.504
 4592POPC   PO458824  17.123  34.244   5.647
 4592POPC   GL158825  17.367  34.426   5.981
 4592POPC   GL258826  17.719  34.422   5.918
 4592POPC   C1A58827  17.538  34.581   6.391
 4592POPC   D2A58828  17.459  34.543   6.848
 4592POPC   C3A58829  17.713  34.780   7.142
 4592POPC   C4A58830  17.623  34.907   7.565
 4592POPC   C1B58831  17.802  34.153   6.256
 4592POPC   C2B58832  17.874  34.217   6.696
 4592POPC   C3B58833  17.815  34.275   7.133
 4592POPC   C4B58834  17.953  34.495   7.502
 4593POPC   NC358835   3.911  31.989   5.291
 4593POPC   PO458836   4.265  32.553   5.409
 4593POPC   GL158837   4.252  32.372   5.804
 4593POPC   GL258838   4.322  32.034   5.735
 4593POPC   C1A58839   4.504  32.301   6.176
 4593POPC   D2A58840   4.546  32.050   6.550
 4593POPC   C3A58841   4.361  32.218   6.933
 4593POPC   C4A58842   4.521  32.090   7.311
 4593POPC   C1B58843   4.174  31.918   6.168
 4593POPC   C2B58844   4.012  32.009   6.588
 4593POPC   C3B58845   4.009  31.864   7.036
 4593POPC   C4B58846   3.986  32.051   7.441
 4594POPC   NC358847  14.619  42.108   5.478
 4594POPC   PO458848  14.267  42.651   5.247
 4594POPC   GL158849  14.373  42.467   5.763
 4594POPC   GL258850  14.458  42.154   5.948
 4594POPC   C1A58851  14.470  42.602   6.205
 4594POPC   D2A58852  14.254  42.575   6.589
 4594POPC   C3A58853  14.262  42.735   6.987
 4594POPC   C4A58854  14.202  42.524   7.349
 4594POPC   C1B58855  14.666  41.917   6.276
 4594POPC   C2B58856  14.736  42.097   6.674
 4594POPC   C3B58857  14.500  42.292   6.958
 4594POPC   C4B58858  14.598  42.203   7.339
 4595POPC   NC358859   6.111  18.163   5.521
 4595POPC   PO458860   5.748  18.742   5.567
 4595POPC   GL158861   5.788  18.445   5.864
 4595POPC   GL258862   5.668  18.123   5.761
 4595POPC   C1A58863   6.006  18.271   6.193
 4595POPC   D2A58864   6.266  18.219   6.546
 4595POPC   C3A58865   6.051  18.266   6.910
 4595POPC   C4A58866   5.919  17.986   7.196
 4595POPC   C1B58867   5.495  18.080   6.143
 4595POPC   C2B58868   5.639  18.036   6.536
 4595POPC   C3B58869   5.475  18.076   6.923
 4595POPC   C4B58870   5.583  18.373   7.184
 4596POPC   NC358871  20.662   0.695   5.685
 4596POPC   PO458872  20.359   0.099   5.342
 4596POPC   GL158873  20.554   0.105   5.760
 4596POPC   GL258874  20.384   0.336   5.941
 4596POPC   C1A58875  20.751   0.061   6.202
 4596POPC   D2A58876  20.971   0.213   6.603
 4596POPC   C3A58877  20.762   0.452   6.901
 4596POPC   C4A58878  20.588   0.267   7.224
 4596POPC   C1B58879  20.535   0.529   6.342
 4596POPC   C2B58880  20.368   0.726   6.703
 4596POPC   C3B58881  20.215   0.608   7.123
 4596POPC   C4B58882  20.414   0.634   7.553
 4597POPC   NC358883  35.070  13.277   5.211
 4597POPC   PO458884  35.731  13.489   5.272
 4597POPC   GL158885  35.614  13.587   5.721
 4597POPC   GL258886  35.310  13.370   5.676
 4597POPC   C1A58887  35.605  13.923   6.126
 4597POPC   D2A58888  35.486  14.091   6.585
 4597POPC   C3A58889  35.530  13.756   6.883
 4597POPC   C4A58890  35.527  13.595   7.309
 4597POPC   C1B58891  35.152  13.339   6.110
 4597POPC   C2B58892  35.153  13.641   6.474
 4597POPC   C3B58893  35.048  13.585   6.898
 4597POPC   C4B58894  35.054  13.369   7.245
 4598POPC   NC358895  41.982  10.904   5.070
 4598POPC   PO458896  42.367  10.572   5.555
 4598POPC   GL158897  42.388  10.472   5.926
 4598POPC   GL258898  42.731  10.512   5.953
 4598POPC   C1A58899  42.338  10.583   6.320
 4598POPC   D2A58900  42.096  10.715   6.633
 4598POPC   C3A58901  42.366  10.644   6.948
 4598POPC   C4A58902  42.313  10.573   7.346
 4598POPC   C1B58903  42.684  10.203   6.291
 4598POPC   C2B58904  42.709  10.352   6.694
 4598POPC   C3B58905  42.740  10.285   7.125
 4598POPC   C4B58906  42.861  10.321   7.580
 4599POPC   NC358907   1.311   8.489   5.370
 4599POPC   PO458908   1.058   7.853   5.277
 4599POPC   GL158909   1.100   7.998   5.739
 4599POPC   GL258910   1.383   8.228   5.788
 4599POPC   C1A58911   1.164   8.098   6.215
 4599POPC   D2A58912   1.046   8.145   6.643
 4599POPC   C3A58913   1.343   8.258   6.920
 4599POPC   C4A58914   1.493   8.004   7.242
 4599POPC   C1B58915   0.985   8.482   5.945
 4599POPC   C2B58916   0.956   8.571   6.383
 4599POPC   C3B58917   0.953   8.604   6.841
 4599POPC   C4B58918   1.072   8.526   7.270
 4600POPC   NC358919  21.407  35.506   5.365
 4600POPC   PO458920  21.004  35.097   5.698
 4600POPC   GL158921  21.180  35.466   5.855
 4600POPC   GL258922  21.566  35.461   5.848
 4600POPC   C1A58923  21.195  35.363   6.292
 4600POPC   D2A58924  21.281  35.011   6.530
 4600POPC   C3A58925  21.327  35.193   6.928
 4600POPC   C4A58926  21.154  35.465   7.216
 4600POPC   C1B58927  21.703  35.238   6.215
 4600POPC   C2B58928  21.891  35.368   6.592
 4600POPC   C3B58929  21.754  35.544   6.982
 4600POPC   C4B58930  21.639  35.353   7.351
 4601POPC   NC358931  16.358  24.400   5.215
 4601POPC   PO458932  15.722  24.566   5.238
 4601POPC   GL158933  15.966  24.411   5.639
 4601POPC   GL258934  15.839  24.623   5.919
 4601POPC   C1A58935  16.145  24.275   6.088
 4601POPC   D2A58936  15.972  24.459   6.475
 4601POPC   C3A58937  16.011  24.345   6.891
 4601POPC   C4A58938  16.101  24.542   7.257
 4601POPC   C1B58939  15.599  24.759   6.276
 4601POPC   C2B58940  15.582  24.778   6.692
 4601POPC   C3B58941  15.590  24.578   7.057
 4601POPC   C4B58942  15.637  24.730   7.421
 4602POPC   NC358943  41.308  12.437   5.567
 4602POPC   PO458944  41.399  11.861   5.246
 4602POPC   GL158945  41.409  11.955   5.679
 4602POPC   GL258946  41.744  12.015   5.767
 4602POPC   C1A58947  41.399  12.054   6.147
 4602POPC   D2A58948  41.342  11.906   6.592
 4602POPC   C3A58949  41.608  12.139   6.867
 4602POPC   C4A58950  41.392  12.147   7.216
 4602POPC   C1B58951  41.897  11.867   6.203
 4602POPC   C2B58952  41.830  11.717   6.659
 4602POPC   C3B58953  41.835  11.794   7.157
 4602POPC   C4B58954  42.013  11.775   7.604
 4603POPC   NC358955  16.597  42.768   5.461
 4603POPC   PO458956  17.229  43.037   5.431
 4603POPC   GL158957  17.016  42.856   5.762
 4603POPC   GL258958  16.746  43.099   5.834
 4603POPC   C1A58959  16.988  42.766   6.193
 4603POPC   D2A58960  17.021  43.063   6.533
 4603POPC   C3A58961  16.972  42.939   6.955
 4603POPC   C4A58962  16.943  43.201   7.319
 4603POPC   C1B58963  16.524  43.035   6.233
 4603POPC   C2B58964  16.485  43.164   6.670
 4603POPC   C3B58965  16.501  43.024   7.101
 4603POPC   C4B58966  16.392  43.294   7.446
 4604POPC   NC358967  22.080  17.774   5.162
 4604POPC   PO458968  22.233  17.238   5.520
 4604POPC   GL158969  21.988  17.431   5.854
 4604POPC   GL258970  21.902  17.788   5.984
 4604POPC   C1A58971  22.024  17.420   6.307
 4604POPC   D2A58972  21.895  17.568   6.694
 4604POPC   C3A58973  22.018  17.280   7.001
 4604POPC   C4A58974  22.274  17.238   7.363
 4604POPC   C1B58975  22.256  17.888   6.317
 4604POPC   C2B58976  22.341  17.871   6.786
 4604POPC   C3B58977  22.116  17.761   7.128
 4604POPC   C4B58978  21.920  17.961   7.440
 4605POPC   NC358979  41.137  27.508   5.408
 4605POPC   PO458980  40.665  27.906   5.548
 4605POPC   GL158981  40.670  27.572   5.840
 4605POPC   GL258982  41.016  27.512   5.929
 4605POPC   C1A58983  40.532  27.502   6.273
 4605POPC   D2A58984  40.284  27.660   6.626
 4605POPC   C3A58985  40.470  27.392   6.908
 4605POPC   C4A58986  40.480  27.328   7.311
 4605POPC   C1B58987  40.905  27.845   6.239
 4605POPC   C2B58988  40.772  27.845   6.671
 4605POPC   C3B58989  40.761  27.748   7.096
 4605POPC   C4B58990  41.013  27.409   7.233
 4606POPC   NC358991  30.662   7.820   5.488
 4606POPC   PO458992  30.975   7.288   5.288
 4606POPC   GL158993  30.840   7.307   5.732
 4606POPC   GL258994  30.505   7.416   5.914
 4606POPC   C1A58995  30.943   7.378   6.165
 4606POPC   D2A58996  30.576   7.420   6.458
 4606POPC   C3A58997  30.649   7.285   6.868
 4606POPC   C4A58998  30.919   7.435   7.169
 4606POPC   C1B58999  30.303   7.772   6.212
 4606POPC   C2B59000  30.152   7.801   6.638
 4606POPC   C3B59001  30.367   7.745   7.058
 4606POPC   C4B59002  30.452   7.462   7.386
 4607POPC   NC359003  26.222  11.601   5.345
 4607POPC   PO459004  25.792  11.125   5.551
 4607POPC   GL159005  25.728  11.378   5.874
 4607POPC   GL259006  26.107  11.430   5.839
 4607POPC   C1A59007  25.845  11.378   6.310
 4607POPC   D2A59008  26.227  11.347   6.534
 4607POPC   C3A59009  26.207  11.171   6.938
 4607POPC   C4A59010  26.101  11.294   7.334
 4607POPC   C1B59011  26.217  11.716   6.164
 4607POPC   C2B59012  26.462  11.808   6.548
 4607POPC   C3B59013  26.260  11.701   6.919
 4607POPC   C4B59014  26.178  11.807   7.305
 4608POPC   NC359015  18.621  24.676   5.308
 4608POPC   PO459016  18.214  24.087   5.311
 4608POPC   GL159017  18.247  24.488   5.667
 4608POPC   GL259018  18.532  24.615   5.800
 4608POPC   C1A59019  18.173  24.516   6.174
 4608POPC   D2A59020  17.983  24.302   6.615
 4608POPC   C3A59021  18.060  24.421   7.042
 4608POPC   C4A59022  18.325  24.777   7.038
 4608POPC   C1B59023  18.671  24.586   6.202
 4608POPC   C2B59024  18.488  24.421   6.573
 4608POPC   C3B59025  18.554  24.315   6.980
 4608POPC   C4B59026  18.612  24.525   7.379
 4609POPC   NC359027  15.370  11.500   5.533
 4609POPC   PO459028  14.787  11.186   5.453
 4609POPC   GL159029  15.045  11.219   5.846
 4609POPC   GL259030  15.383  11.022   5.778
 4609POPC   C1A59031  15.162  11.545   6.205
 4609POPC   D2A59032  15.454  11.533   6.574
 4609POPC   C3A59033  15.233  11.560   6.986
 4609POPC   C4A59034  15.277  11.426   7.429
 4609POPC   C1B59035  15.358  11.080   6.241
 4609POPC   C2B59036  15.090  11.160   6.607
 4609POPC   C3B59037  15.161  11.048   7.037
 4609POPC   C4B59038  15.515  10.968   7.310
 4610POPC   NC359039  37.852  21.910   5.506
 4610POPC   PO459040  37.865  22.558   5.561
 4610POPC   GL159041  37.929  22.241   5.919
 4610POPC   GL259042  37.635  22.074   5.936
 4610POPC   C1A59043  38.094  21.924   6.283
 4610POPC   D2A59044  37.995  21.696   6.691
 4610POPC   C3A59045  37.786  21.887   7.021
 4610POPC   C4A59046  37.868  22.018   7.411
 4610POPC   C1B59047  37.642  22.120   6.354
 4610POPC   C2B59048  37.558  22.237   6.743
 4610POPC   C3B59049  37.785  22.409   7.111
 4610POPC   C4B59050  37.707  22.456   7.601
 4611POPC   NC359051  26.610   4.833   5.398
 4611POPC   PO459052  27.158   5.253   5.342
 4611POPC   GL159053  26.887   5.158   5.722
 4611POPC   GL259054  26.663   5.422   5.894
 4611POPC   C1A59055  26.998   5.040   6.162
 4611POPC   D2A59056  27.215   4.788   6.485
 4611POPC   C3A59057  27.104   4.945   6.894
 4611POPC   C4A59058  27.015   5.319   7.142
 4611POPC   C1B59059  26.495   5.099   6.201
 4611POPC   C2B59060  26.665   4.898   6.601
 4611POPC   C3B59061  26.630   4.992   7.072
 4611POPC   C4B59062  26.621   5.124   7.537
 4612POPC   NC359063  33.693   0.518   4.944
 4612POPC   PO459064  34.093   0.824   5.443
 4612POPC   GL159065  33.917   0.702   5.888
 4612POPC   GL259066  33.700   0.365   5.940
 4612POPC   C1A59067  33.797   0.697   6.286
 4612POPC   D2A59068  33.615   0.454   6.568
 4612POPC   C3A59069  33.698   0.657   6.936
 4612POPC   C4A59070  33.837   0.583   7.336
 4612POPC   C1B59071  33.997   0.205   6.244
 4612POPC   C2B59072  33.946   0.064   6.640
 4612POPC   C3B59073  33.905   0.179   7.036
 4612POPC   C4B59074  34.248   0.230   7.303
 4613POPC   NC359075  13.749   1.438   5.483
 4613POPC   PO459076  13.543   0.812   5.751
 4613POPC   GL159077  13.558   1.166   5.954
 4613POPC   GL259078  13.331   1.387   5.833
 4613POPC   C1A59079  13.567   1.208   6.382
 4613POPC   D2A59080  13.263   1.209   6.662
 4613POPC   C3A59081  13.455   1.040   6.993
 4613POPC   C4A59082  13.898   1.078   7.088
 4613POPC   C1B59083  13.601   1.648   6.135
 4613POPC   C2B59084  13.471   1.708   6.537
 4613POPC   C3B59085  13.664   1.526   6.875
 4613POPC   C4B59086  13.543   1.476   7.260
 4614POPC   NC359087   0.632  14.033   5.503
 4614POPC   PO459088   0.192  13.526   5.611
 4614POPC   GL159089   0.272  13.883   5.851
 4614POPC   GL259090   0.626  13.734   5.925
 4614POPC   C1A59091   0.327  13.947   6.288
 4614POPC   D2A59092   0.501  13.681   6.606
 4614POPC   C3A59093   0.255  13.552   6.925
 4614POPC   C4A59094   0.265  13.693   7.310
 4614POPC   C1B59095   0.897  13.742   6.291
 4614POPC   C2B59096   0.961  13.904   6.704
 4614POPC   C3B59097   0.626  13.956   7.032
 4614POPC   C4B59098   0.696  13.914   7.486
 4615POPC   NC359099   2.086   7.873   5.512
 4615POPC   PO459100   1.779   8.519   5.471
 4615POPC   GL159101   1.894   8.307   5.888
 4615POPC   GL259102   2.268   8.233   5.852
 4615POPC   C1A59103   1.698   8.170   6.322
 4615POPC   D2A59104   1.739   7.988   6.766
 4615POPC   C3A59105   1.948   8.184   7.138
 4615POPC   C4A59106   2.007   8.425   7.530
 4615POPC   C1B59107   2.225   8.150   6.288
 4615POPC   C2B59108   2.232   8.050   6.704
 4615POPC   C3B59109   2.398   7.919   7.055
 4615POPC   C4B59110   2.349   8.032   7.470
 4616POPC   NC359111  37.510   8.495   5.532
 4616POPC   PO459112  37.929   8.019   5.385
 4616POPC   GL159113  37.764   8.125   5.801
 4616POPC   GL259114  37.969   8.450   5.793
 4616POPC   C1A59115  37.587   7.969   6.238
 4616POPC   D2A59116  37.456   8.000   6.713
 4616POPC   C3A59117  37.739   7.827   7.050
 4616POPC   C4A59118  37.922   8.017   7.428
 4616POPC   C1B59119  37.787   8.450   6.204
 4616POPC   C2B59120  37.966   8.504   6.610
 4616POPC   C3B59121  37.772   8.356   6.954
 4616POPC   C4B59122  37.476   8.243   7.217
 4617POPC   NC359123  18.703  26.866   5.003
 4617POPC   PO459124  19.219  26.835   5.439
 4617POPC   GL159125  19.039  26.851   5.853
 4617POPC   GL259126  18.663  26.745   5.793
 4617POPC   C1A59127  19.188  26.839   6.299
 4617POPC   D2A59128  19.326  26.901   6.731
 4617POPC   C3A59129  19.124  26.898   7.132
 4617POPC   C4A59130  19.165  26.572   7.469
 4617POPC   C1B59131  18.664  26.993   6.184
 4617POPC   C2B59132  18.791  26.965   6.603
 4617POPC   C3B59133  18.719  26.708   6.907
 4617POPC   C4B59134  18.643  26.820   7.311
 4618POPC   NC359135   0.713   4.358   5.456
 4618POPC   PO459136   0.269   3.975   5.607
 4618POPC   GL159137   0.340   4.342   5.915
 4618POPC   GL259138   0.678   4.494   5.953
 4618POPC   C1A59139   0.294   4.395   6.383
 4618POPC   D2A59140   0.112   4.261   6.811
 4618POPC   C3A59141   0.410   4.246   7.177
 4618POPC   C4A59142   0.458   3.869   7.489
 4618POPC   C1B59143   0.743   4.708   6.350
 4618POPC   C2B59144   0.569   4.634   6.765
 4618POPC   C3B59145   0.635   4.731   7.214
 4618POPC   C4B59146   0.527   4.738   7.663
 4619POPC   NC359147  24.544  24.179   5.512
 4619POPC   PO459148  24.267  24.708   5.241
 4619POPC   GL159149  24.324  24.623   5.729
 4619POPC   GL259150  24.697  24.544   5.825
 4619POPC   C1A59151  24.362  24.466   6.195
 4619POPC   D2A59152  24.364  24.327   6.657
 4619POPC   C3A59153  24.319  24.620   7.003
 4619POPC   C4A59154  24.074  24.751   7.382
 4619POPC   C1B59155  24.801  24.185   6.154
 4619POPC   C2B59156  24.783  24.035   6.603
 4619POPC   C3B59157  24.767  24.265   7.022
 4619POPC   C4B59158  24.945  24.171   7.436
 4620POPC   NC359159   2.995  41.962   5.459
 4620POPC   PO459160   2.915  42.587   5.543
 4620POPC   GL159161   2.824  42.458   5.915
 4620POPC   GL259162   3.170  42.597   6.021
 4620POPC   C1A59163   2.541  42.333   6.278
 4620POPC   D2A59164   2.588  42.366   6.744
 4620POPC   C3A59165   2.800  42.175   7.098
 4620POPC   C4A59166   2.500  42.195   7.465
 4620POPC   C1B59167   2.922  42.684   6.344
 4620POPC   C2B59168   2.867  42.831   6.677
 4620POPC   C3B59169   2.958  42.690   7.024
 4620POPC   C4B59170   2.703  42.629   7.322
 4621POPC   NC359171  44.730  38.273   5.168
 4621POPC   PO459172  44.248  38.629   5.522
 4621POPC   GL159173  44.648  38.580   5.719
 4621POPC   GL259174  44.737  38.227   5.771
 4621POPC   C1A59175  44.699  38.596   6.173
 4621POPC   D2A59176  44.383  38.423   6.452
 4621POPC   C3A59177  44.457  38.534   6.865
 4621POPC   C4A59178  44.454  38.462   7.303
 4621POPC   C1B59179  44.778  38.084   6.211
 4621POPC   C2B59180  44.833  38.240   6.625
 4621POPC   C3B59181  44.742  38.149   7.040
 4621POPC   C4B59182  44.904  38.305   7.419
 4622POPC   NC359183  27.558  38.658   5.440
 4622POPC   PO459184  27.205  38.118   5.243
 4622POPC   GL159185  27.266  38.307   5.705
 4622POPC   GL259186  27.609  38.268   5.801
 4622POPC   C1A59187  27.370  38.647   6.082
 4622POPC   D2A59188  27.650  38.675   6.481
 4622POPC   C3A59189  27.467  38.687   6.908
 4622POPC   C4A59190  27.265  38.441   7.244
 4622POPC   C1B59191  27.782  38.213   6.216
 4622POPC   C2B59192  27.965  38.285   6.615
 4622POPC   C3B59193  27.739  38.262   7.008
 4622POPC   C4B59194  27.728  38.431   7.459
 4623POPC   NC359195  30.279  29.448   5.332
 4623POPC   PO459196  30.916  29.095   5.365
 4623POPC   GL159197  30.624  29.159   5.744
 4623POPC   GL259198  30.408  29.417   5.821
 4623POPC   C1A59199  30.662  29.130   6.201
 4623POPC   D2A59200  30.770  29.169   6.648
 4623POPC   C3A59201  30.554  28.948   6.988
 4623POPC   C4A59202  30.677  28.792   7.396
 4623POPC   C1B59203  30.504  29.618   6.218
 4623POPC   C2B59204  30.389  29.614   6.649
 4623POPC   C3B59205  30.511  29.533   7.061
 4623POPC   C4B59206  30.687  29.290   7.369
 4624POPC   NC359207  31.652  25.917   5.407
 4624POPC   PO459208  31.560  26.614   5.357
 4624POPC   GL159209  31.449  26.275   5.727
 4624POPC   GL259210  31.248  25.930   5.731
 4624POPC   C1A59211  31.657  26.036   6.076
 4624POPC   D2A59212  31.646  25.789   6.481
 4624POPC   C3A59213  31.495  26.014   6.864
 4624POPC   C4A59214  31.480  26.073   7.328
 4624POPC   C1B59215  31.215  25.797   6.182
 4624POPC   C2B59216  31.131  25.688   6.644
 4624POPC   C3B59217  31.039  25.920   7.060
 4624POPC   C4B59218  31.064  25.803   7.483
 4625POPC   NC359219  44.317  12.359   5.546
 4625POPC   PO459220  44.359  11.671   5.499
 4625POPC   GL159221  44.511  11.931   5.841
 4625POPC   GL259222  44.585  12.302   5.947
 4625POPC   C1A59223  44.602  11.926   6.273
 4625POPC   D2A59224  44.842  12.044   6.652
 4625POPC   C3A59225  44.539  11.973   6.952
 4625POPC   C4A59226  44.511  11.800   7.342
 4625POPC   C1B59227  44.784  12.439   6.302
 4625POPC   C2B59228  44.855  12.577   6.726
 4625POPC   C3B59229  44.861  12.362   7.093
 4625POPC   C4B59230  44.497  12.317   7.347
 4626POPC   NC359231   5.556  23.773   5.382
 4626POPC   PO459232   6.171  23.466   5.297
 4626POPC   GL159233   5.883  23.473   5.707
 4626POPC   GL259234   5.750  23.812   5.853
 4626POPC   C1A59235   6.040  23.354   6.141
 4626POPC   D2A59236   6.219  23.234   6.565
 4626POPC   C3A59237   6.053  23.517   6.907
 4626POPC   C4A59238   6.031  23.838   7.258
 4626POPC   C1B59239   5.674  23.731   6.290
 4626POPC   C2B59240   5.514  23.733   6.712
 4626POPC   C3B59241   5.628  24.062   7.012
 4626POPC   C4B59242   5.496  24.060   7.434
 4627POPC   NC359243  38.807  27.076   5.453
 4627POPC   PO459244  38.225  26.589   5.546
 4627POPC   GL159245  38.444  26.759   5.919
 4627POPC   GL259246  38.761  26.759   5.855
 4627POPC   C1A59247  38.221  26.875   6.324
 4627POPC   D2A59248  38.137  26.642   6.688
 4627POPC   C3A59249  38.163  26.919   7.001
 4627POPC   C4A59250  38.345  26.912   7.347
 4627POPC   C1B59251  38.735  26.927   6.283
 4627POPC   C2B59252  38.564  26.991   6.691
 4627POPC   C3B59253  38.742  27.067   7.094
 4627POPC   C4B59254  38.610  27.325   7.480
 4628POPC   NC359255  22.449   3.259   5.506
 4628POPC   PO459256  21.866   3.603   5.258
 4628POPC   GL159257  22.070   3.617   5.700
 4628POPC   GL259258  22.005   3.242   5.795
 4628POPC   C1A59259  22.316   3.783   6.121
 4628POPC   D2A59260  22.476   3.757   6.562
 4628POPC   C3A59261  22.277   3.687   6.991
 4628POPC   C4A59262  22.479   3.890   7.341
 4628POPC   C1B59263  21.915   3.488   6.173
 4628POPC   C2B59264  21.959   3.625   6.590
 4628POPC   C3B59265  21.834   3.359   6.957
 4628POPC   C4B59266  21.946   3.322   7.400
 4629POPC   NC359267  32.478  30.076   5.428
 4629POPC   PO459268  31.856  30.338   5.497
 4629POPC   GL159269  32.023  30.095   5.880
 4629POPC   GL259270  32.378  30.023   5.921
 4629POPC   C1A59271  32.043  29.726   6.187
 4629POPC   D2A59272  32.447  29.601   6.405
 4629POPC   C3A59273  32.523  29.764   6.834
 4629POPC   C4A59274  32.409  29.593   7.242
 4629POPC   C1B59275  32.322  30.126   6.344
 4629POPC   C2B59276  31.998  30.262   6.622
 4629POPC   C3B59277  32.050  30.392   7.036
 4629POPC   C4B59278  32.357  30.129   7.258
 4630POPC   NC359279  16.951  36.588   5.268
 4630POPC   PO459280  16.804  37.234   5.464
 4630POPC   GL159281  16.779  36.924   5.797
 4630POPC   GL259282  17.112  36.793   5.857
 4630POPC   C1A59283  16.723  36.571   6.127
 4630POPC   D2A59284  16.662  36.732   6.545
 4630POPC   C3A59285  16.688  36.604   6.955
 4630POPC   C4A59286  16.487  36.756   7.334
 4630POPC   C1B59287  17.083  36.917   6.292
 4630POPC   C2B59288  17.038  37.109   6.682
 4630POPC   C3B59289  16.782  37.092   7.050
 4630POPC   C4B59290  16.976  36.919   7.410
 4631POPC   NC359291  25.338   3.787   5.445
 4631POPC   PO459292  25.685   3.182   5.386
 4631POPC   GL159293  25.616   3.451   5.712
 4631POPC   GL259294  25.284   3.351   5.758
 4631POPC   C1A59295  25.492   3.714   6.099
 4631POPC   D2A59296  25.178   3.803   6.460
 4631POPC   C3A59297  25.321   3.852   6.887
 4631POPC   C4A59298  25.230   3.647   7.268
 4631POPC   C1B59299  25.129   3.363   6.169
 4631POPC   C2B59300  24.979   3.323   6.589
 4631POPC   C3B59301  25.088   3.235   6.990
 4631POPC   C4B59302  25.352   3.155   7.322
 4632POPC   NC359303  33.575   4.945   5.323
 4632POPC   PO459304  34.134   5.211   5.339
 4632POPC   GL159305  33.855   5.158   5.702
 4632POPC   GL259306  33.780   4.799   5.775
 4632POPC   C1A59307  33.861   5.148   6.143
 4632POPC   D2A59308  33.655   5.348   6.443
 4632POPC   C3A59309  33.766   5.276   6.832
 4632POPC   C4A59310  33.627   5.176   7.217
 4632POPC   C1B59311  33.471   4.840   6.092
 4632POPC   C2B59312  33.562   4.837   6.518
 4632POPC   C3B59313  33.416   4.836   6.918
 4632POPC   C4B59314  33.467   4.682   7.314
 4633POPC   NC359315  23.000  24.843   5.417
 4633POPC   PO459316  22.839  25.498   5.412
 4633POPC   GL159317  22.825  25.208   5.765
 4633POPC   GL259318  23.183  25.080   5.832
 4633POPC   C1A59319  22.721  25.075   6.211
 4633POPC   D2A59320  22.718  25.330   6.596
 4633POPC   C3A59321  22.809  25.259   7.025
 4633POPC   C4A59322  22.987  25.561   7.303
 4633POPC   C1B59323  23.379  25.171   6.237
 4633POPC   C2B59324  23.250  25.154   6.677
 4633POPC   C3B59325  23.339  25.246   7.109
 4633POPC   C4B59326  23.354  25.303   7.589
 4634POPC   NC359327   6.800  26.429   5.455
 4634POPC   PO459328   6.548  27.098   5.255
 4634POPC   GL159329   6.491  27.026   5.752
 4634POPC   GL259330   6.514  26.679   5.811
 4634POPC   C1A59331   6.413  26.964   6.231
 4634POPC   D2A59332   6.638  26.895   6.584
 4634POPC   C3A59333   6.427  26.788   6.939
 4634POPC   C4A59334   6.653  26.761   7.312
 4634POPC   C1B59335   6.840  26.608   6.179
 4634POPC   C2B59336   6.847  26.430   6.603
 4634POPC   C3B59337   6.979  26.558   6.986
 4634POPC   C4B59338   6.927  26.317   7.360
 4635POPC   NC359339  33.128  23.380   5.553
 4635POPC   PO459340  33.295  22.719   5.439
 4635POPC   GL159341  33.320  22.906   5.842
 4635POPC   GL259342  32.959  22.997   5.886
 4635POPC   C1A59343  33.222  22.711   6.234
 4635POPC   D2A59344  32.970  22.870   6.559
 4635POPC   C3A59345  33.201  22.796   6.923
 4635POPC   C4A59346  33.051  22.481   7.189
 4635POPC   C1B59347  32.886  23.283   6.216
 4635POPC   C2B59348  32.733  23.326   6.600
 4635POPC   C3B59349  32.771  23.338   7.052
 4635POPC   C4B59350  33.099  23.122   7.303
 4636POPC   NC359351   7.986  42.634   5.164
 4636POPC   PO459352   8.071  42.055   5.448
 4636POPC   GL159353   8.229  42.136   5.848
 4636POPC   GL259354   8.533  41.939   5.910
 4636POPC   C1A59355   8.124  42.408   6.223
 4636POPC   D2A59356   8.282  42.415   6.640
 4636POPC   C3A59357   8.034  42.480   7.004
 4636POPC   C4A59358   8.231  42.486   7.385
 4636POPC   C1B59359   8.332  41.938   6.310
 4636POPC   C2B59360   8.058  41.925   6.668
 4636POPC   C3B59361   8.198  42.004   7.064
 4636POPC   C4B59362   8.553  42.018   7.254
 4637POPC   NC359363   5.545  40.517   5.469
 4637POPC   PO459364   5.895  41.035   5.309
 4637POPC   GL159365   5.905  40.950   5.750
 4637POPC   GL259366   5.657  41.179   5.778
 4637POPC   C1A59367   5.854  40.627   6.111
 4637POPC   D2A59368   5.658  40.682   6.536
 4637POPC   C3A59369   5.763  40.443   6.916
 4637POPC   C4A59370   5.971  40.608   7.288
 4637POPC   C1B59371   5.692  41.330   6.181
 4637POPC   C2B59372   5.835  41.221   6.595
 4637POPC   C3B59373   5.797  40.975   6.956
 4637POPC   C4B59374   5.453  40.823   7.175
 4638POPC   NC359375  32.535  17.450   5.025
 4638POPC   PO459376  32.140  17.543   5.520
 4638POPC   GL159377  32.101  17.634   5.922
 4638POPC   GL259378  32.264  17.938   5.983
 4638POPC   C1A59379  32.192  17.466   6.307
 4638POPC   D2A59380  32.540  17.409   6.590
 4638POPC   C3A59381  32.385  17.535   6.907
 4638POPC   C4A59382  32.014  17.330   6.967
 4638POPC   C1B59383  31.915  17.958   6.282
 4638POPC   C2B59384  31.954  17.760   6.648
 4638POPC   C3B59385  32.091  17.936   6.968
 4638POPC   C4B59386  32.186  17.723   7.332
 4639POPC   NC359387  27.583  16.424   5.546
 4639POPC   PO459388  27.174  16.930   5.361
 4639POPC   GL159389  27.394  16.916   5.770
 4639POPC   GL259390  27.767  16.873   5.798
 4639POPC   C1A59391  27.431  16.710   6.187
 4639POPC   D2A59392  27.368  16.458   6.579
 4639POPC   C3A59393  27.505  16.625   6.975
 4639POPC   C4A59394  27.374  16.969   7.219
 4639POPC   C1B59395  27.881  16.536   6.124
 4639POPC   C2B59396  27.888  16.550   6.571
 4639POPC   C3B59397  27.993  16.829   6.936
 4639POPC   C4B59398  27.815  16.830   7.357
 4640POPC   NC359399  18.133  19.676   5.514
 4640POPC   PO459400  18.401  20.285   5.579
 4640POPC   GL159401  18.184  20.040   5.918
 4640POPC   GL259402  17.957  19.738   5.986
 4640POPC   C1A59403  18.394  19.818   6.244
 4640POPC   D2A59404  18.494  19.640   6.633
 4640POPC   C3A59405  18.675  19.884   6.997
 4640POPC   C4A59406  18.639  19.699   7.410
 4640POPC   C1B59407  17.923  19.661   6.413
 4640POPC   C2B59408  18.032  19.427   6.765
 4640POPC   C3B59409  18.242  19.593   7.098
 4640POPC   C4B59410  18.250  20.006   7.269
 4641POPC   NC359411  20.155  40.806   5.345
 4641POPC   PO459412  19.496  40.905   5.058
 4641POPC   GL159413  19.635  40.791   5.574
 4641POPC   GL259414  19.887  40.970   5.754
 4641POPC   C1A59415  19.508  40.862   6.085
 4641POPC   D2A59416  19.451  41.063   6.534
 4641POPC   C3A59417  19.579  40.874   6.960
 4641POPC   C4A59418  19.881  41.024   7.262
 4641POPC   C1B59419  20.026  40.937   6.198
 4641POPC   C2B59420  19.911  40.758   6.606
 4641POPC   C3B59421  20.112  40.623   7.015
 4641POPC   C4B59422  20.245  40.367   7.394
 4642POPC   NC359423  28.647  15.362   5.431
 4642POPC   PO459424  28.072  15.138   5.219
 4642POPC   GL159425  28.261  15.236   5.757
 4642POPC   GL259426  28.575  15.475   5.930
 4642POPC   C1A59427  28.407  15.089   6.201
 4642POPC   D2A59428  28.242  15.209   6.604
 4642POPC   C3A59429  28.419  15.028   6.895
 4642POPC   C4A59430  28.359  14.759   7.205
 4642POPC   C1B59431  28.219  15.578   6.232
 4642POPC   C2B59432  28.114  15.684   6.690
 4642POPC   C3B59433  28.440  15.581   7.000
 4642POPC   C4B59434  28.845  15.696   7.180
 4643POPC   NC359435   3.983  28.912   5.591
 4643POPC   PO459436   3.581  29.039   4.984
 4643POPC   GL159437   3.467  28.991   5.574
 4643POPC   GL259438   3.691  29.197   5.856
 4643POPC   C1A59439   3.372  28.911   6.124
 4643POPC   D2A59440   3.205  28.923   6.598
 4643POPC   C3A59441   3.395  28.996   7.033
 4643POPC   C4A59442   3.358  28.933   7.497
 4643POPC   C1B59443   3.715  29.327   6.283
 4643POPC   C2B59444   3.443  29.419   6.616
 4643POPC   C3B59445   3.494  29.624   6.975
 4643POPC   C4B59446   3.485  29.422   7.326
 4644POPC   NC359447   2.213  38.130   5.418
 4644POPC   PO459448   1.797  38.637   5.449
 4644POPC   GL159449   1.727  38.458   5.851
 4644POPC   GL259450   2.082  38.371   5.861
 4644POPC   C1A59451   1.808  38.508   6.291
 4644POPC   D2A59452   2.153  38.556   6.548
 4644POPC   C3A59453   2.004  38.467   6.950
 4644POPC   C4A59454   2.099  38.494   7.384
 4644POPC   C1B59455   2.374  38.102   6.085
 4644POPC   C2B59456   2.254  38.037   6.503
 4644POPC   C3B59457   2.409  38.152   6.888
 4644POPC   C4B59458   2.334  38.032   7.307
 4645POPC   NC359459  32.131   6.894   5.408
 4645POPC   PO459460  31.952   6.187   5.469
 4645POPC   GL159461  31.951   6.548   5.735
 4645POPC   GL259462  32.305   6.530   5.707
 4645POPC   C1A59463  31.992   6.786   6.117
 4645POPC   D2A59464  31.998   6.546   6.519
 4645POPC   C3A59465  32.056   6.642   6.959
 4645POPC   C4A59466  32.221   6.529   7.358
 4645POPC   C1B59467  32.371   6.446   6.137
 4645POPC   C2B59468  32.509   6.611   6.542
 4645POPC   C3B59469  32.585   6.519   6.974
 4645POPC   C4B59470  32.845   6.777   7.247
 4646POPC   NC359471   8.586  19.920   5.345
 4646POPC   PO459472   8.767  19.305   5.280
 4646POPC   GL159473   8.802  19.545   5.691
 4646POPC   GL259474   8.887  19.922   5.770
 4646POPC   C1A59475   8.822  19.573   6.154
 4646POPC   D2A59476   8.611  19.669   6.533
 4646POPC   C3A59477   8.828  19.592   6.908
 4646POPC   C4A59478   8.637  19.641   7.310
 4646POPC   C1B59479   9.046  20.027   6.212
 4646POPC   C2B59480   8.857  20.137   6.643
 4646POPC   C3B59481   8.887  20.058   7.093
 4646POPC   C4B59482   9.275  19.886   7.293
 4647POPC   NC359483  19.703  20.285   5.488
 4647POPC   PO459484  20.038  20.905   5.359
 4647POPC   GL159485  19.923  20.678   5.748
 4647POPC   GL259486  20.152  20.357   5.775
 4647POPC   C1A59487  19.680  20.722   6.138
 4647POPC   D2A59488  19.843  20.711   6.569
 4647POPC   C3A59489  19.670  20.948   6.884
 4647POPC   C4A59490  19.560  20.927   7.273
 4647POPC   C1B59491  20.039  20.358   6.224
 4647POPC   C2B59492  19.829  20.216   6.614
 4647POPC   C3B59493  19.801  20.448   7.033
 4647POPC   C4B59494  19.780  20.542   7.497
 4648POPC   NC359495  20.332  23.241   5.382
 4648POPC   PO459496  20.721  22.627   5.429
 4648POPC   GL159497  20.622  22.801   5.799
 4648POPC   GL259498  20.629  23.150   5.794
 4648POPC   C1A59499  20.590  22.635   6.200
 4648POPC   D2A59500  20.708  22.762   6.572
 4648POPC   C3A59501  20.530  22.559   6.893
 4648POPC   C4A59502  20.622  22.710   7.273
 4648POPC   C1B59503  20.375  23.108   6.155
 4648POPC   C2B59504  20.458  23.244   6.571
 4648POPC   C3B59505  20.428  23.099   6.990
 4648POPC   C4B59506  20.700  23.181   7.392
 4649POPC   NC359507  44.902  17.252   5.269
 4649POPC   PO459508  44.285  17.507   5.322
 4649POPC   GL159509  44.454  17.575   5.761
 4649POPC   GL259510  44.814  17.560   5.705
 4649POPC   C1A59511  44.574  17.451   6.185
 4649POPC   D2A59512  44.696  17.226   6.570
 4649POPC   C3A59513  44.569  17.351   6.994
 4649POPC   C4A59514  44.506  17.177   7.410
 4649POPC   C1B59515   0.016  17.740   6.074
 4649POPC   C2B59516   0.089  17.570   6.497
 4649POPC   C3B59517  44.997  17.627   6.911
 4649POPC   C4B59518  44.761  17.798   7.239
 4650POPC   NC359519  33.249   1.073   5.263
 4650POPC   PO459520  32.623   1.379   5.351
 4650POPC   GL159521  32.824   1.303   5.777
 4650POPC   GL259522  33.145   1.163   5.780
 4650POPC   C1A59523  32.929   1.403   6.243
 4650POPC   D2A59524  32.908   1.544   6.667
 4650POPC   C3A59525  32.797   1.415   7.073
 4650POPC   C4A59526  33.187   1.267   7.324
 4650POPC   C1B59527  32.878   0.919   6.125
 4650POPC   C2B59528  32.770   1.024   6.584
 4650POPC   C3B59529  32.921   0.940   7.011
 4650POPC   C4B59530  32.831   0.945   7.474
 4651POPC   NC359531  23.616   9.765   5.403
 4651POPC   PO459532  24.275   9.636   5.366
 4651POPC   GL159533  24.063   9.787   5.731
 4651POPC   GL259534  23.805   9.522   5.835
 4651POPC   C1A59535  23.986   9.845   6.172
 4651POPC   D2A59536  24.015   9.578   6.523
 4651POPC   C3A59537  23.755   9.738   6.836
 4651POPC   C4A59538  23.921   9.852   7.222
 4651POPC   C1B59539  23.572   9.559   6.253
 4651POPC   C2B59540  23.350   9.880   6.535
 4651POPC   C3B59541  23.228  10.010   6.970
 4651POPC   C4B59542  23.432   9.806   7.340
 4652POPC   NC359543  14.579  38.939   5.478
 4652POPC   PO459544  14.626  39.641   5.257
 4652POPC   GL159545  14.529  39.410   5.731
 4652POPC   GL259546  14.364  39.107   5.910
 4652POPC   C1A59547  14.678  39.386   6.201
 4652POPC   D2A59548  14.797  39.510   6.638
 4652POPC   C3A59549  14.509  39.305   6.934
 4652POPC   C4A59550  14.401  39.056   7.293
 4652POPC   C1B59551  14.076  39.235   6.245
 4652POPC   C2B59552  14.015  39.178   6.688
 4652POPC   C3B59553  13.950  38.943   7.033
 4652POPC   C4B59554  13.908  39.200   7.371
 4653POPC   NC359555   4.803  25.392   5.519
 4653POPC   PO459556   5.456  25.758   5.511
 4653POPC   GL159557   5.163  25.616   5.849
 4653POPC   GL259558   4.904  25.360   6.012
 4653POPC   C1A59559   5.344  25.514   6.236
 4653POPC   D2A59560   5.161  25.217   6.520
 4653POPC   C3A59561   5.155  25.333   6.944
 4653POPC   C4A59562   5.169  25.001   7.208
 4653POPC   C1B59563   4.863  25.643   6.359
 4653POPC   C2B59564   4.837  25.713   6.797
 4653POPC   C3B59565   4.772  25.673   7.219
 4653POPC   C4B59566   4.825  25.318   7.355
 4654POPC   NC359567   1.904  31.026   5.541
 4654POPC   PO459568   1.684  31.675   5.555
 4654POPC   GL159569   2.034  31.684   5.834
 4654POPC   GL259570   2.074  31.338   5.906
 4654POPC   C1A59571   2.250  31.694   6.243
 4654POPC   D2A59572   2.032  31.873   6.593
 4654POPC   C3A59573   2.093  31.741   6.998
 4654POPC   C4A59574   2.287  31.438   7.246
 4654POPC   C1B59575   1.908  31.232   6.306
 4654POPC   C2B59576   1.792  31.412   6.686
 4654POPC   C3B59577   1.802  31.316   7.108
 4654POPC   C4B59578   1.903  31.285   7.541
 4655POPC   NC359579  40.180  25.025   5.554
 4655POPC   PO459580  39.641  25.374   5.386
 4655POPC   GL159581  39.805  25.301   5.810
 4655POPC   GL259582  40.088  25.506   5.815
 4655POPC   C1A59583  39.792  25.048   6.241
 4655POPC   D2A59584  39.666  24.906   6.688
 4655POPC   C3A59585  39.859  25.127   7.062
 4655POPC   C4A59586  40.200  25.063   7.391
 4655POPC   C1B59587  40.204  25.343   6.213
 4655POPC   C2B59588  40.227  25.257   6.674
 4655POPC   C3B59589  40.214  25.499   7.074
 4655POPC   C4B59590  39.852  25.755   7.212
 4656POPC   NC359591   7.167  10.666   5.425
 4656POPC   PO459592   6.564  10.813   5.417
 4656POPC   GL159593   6.756  10.702   5.847
 4656POPC   GL259594   7.093  10.859   5.890
 4656POPC   C1A59595   6.571  10.711   6.292
 4656POPC   D2A59596   6.422  10.403   6.575
 4656POPC   C3A59597   6.518  10.434   7.002
 4656POPC   C4A59598   6.491  10.692   7.340
 4656POPC   C1B59599   7.073  10.648   6.278
 4656POPC   C2B59600   6.903  10.547   6.675
 4656POPC   C3B59601   6.966  10.738   7.071
 4656POPC   C4B59602   6.875  11.038   7.368
 4657POPC   NC359603  34.007  26.663   5.424
 4657POPC   PO459604  33.514  27.046   5.206
 4657POPC   GL159605  33.722  27.012   5.673
 4657POPC   GL259606  33.614  26.671   5.742
 4657POPC   C1A59607  34.055  27.102   6.030
 4657POPC   D2A59608  34.210  26.956   6.435
 4657POPC   C3A59609  33.984  27.084   6.788
 4657POPC   C4A59610  34.042  27.027   7.246
 4657POPC   C1B59611  33.793  26.693   6.141
 4657POPC   C2B59612  33.695  26.691   6.552
 4657POPC   C3B59613  33.762  26.669   6.960
 4657POPC   C4B59614  33.581  26.573   7.308
 4658POPC   NC359615   3.483  39.971   5.189
 4658POPC   PO459616   3.952  40.398   5.547
 4658POPC   GL159617   3.597  40.113   5.677
 4658POPC   GL259618   3.260  40.207   5.805
 4658POPC   C1A59619   3.536  39.813   6.029
 4658POPC   D2A59620   3.515  39.888   6.490
 4658POPC   C3A59621   3.784  39.704   6.833
 4658POPC   C4A59622   3.577  39.779   7.207
 4658POPC   C1B59623   3.104  40.118   6.202
 4658POPC   C2B59624   3.180  40.288   6.594
 4658POPC   C3B59625   3.191  40.036   6.959
 4658POPC   C4B59626   3.278  40.144   7.381
 4659POPC   NC359627  26.801   2.594   5.370
 4659POPC   PO459628  27.263   3.166   5.185
 4659POPC   GL159629  26.970   3.009   5.649
 4659POPC   GL259630  26.697   3.119   5.896
 4659POPC   C1A59631  27.008   2.741   6.072
 4659POPC   D2A59632  26.824   2.495   6.445
 4659POPC   C3A59633  26.904   2.588   6.888
 4659POPC   C4A59634  26.806   2.742   7.290
 4659POPC   C1B59635  26.555   2.922   6.305
 4659POPC   C2B59636  26.525   2.950   6.782
 4659POPC   C3B59637  26.461   3.101   7.213
 4659POPC   C4B59638  26.613   3.078   7.670
 4660POPC   NC359639  42.367  38.164   5.382
 4660POPC   PO459640  42.443  38.878   5.383
 4660POPC   GL159641  42.387  38.588   5.681
 4660POPC   GL259642  42.528  38.798   5.892
 4660POPC   C1A59643  42.304  38.338   6.043
 4660POPC   D2A59644  42.052  38.402   6.406
 4660POPC   C3A59645  42.118  38.318   6.849
 4660POPC   C4A59646  42.344  38.259   7.237
 4660POPC   C1B59647  42.263  38.868   6.234
 4660POPC   C2B59648  42.296  38.834   6.667
 4660POPC   C3B59649  42.262  38.759   7.109
 4660POPC   C4B59650  42.075  38.960   7.465
 4661POPC   NC359651   0.286   7.659   5.230
 4661POPC   PO459652   0.457   8.294   5.576
 4661POPC   GL159653   0.328   8.048   5.858
 4661POPC   GL259654   0.250   7.705   5.765
 4661POPC   C1A59655   0.504   8.087   6.266
 4661POPC   D2A59656   0.541   8.346   6.599
 4661POPC   C3A59657   0.642   8.203   6.975
 4661POPC   C4A59658   0.634   8.300   7.372
 4661POPC   C1B59659   0.075   7.805   6.202
 4661POPC   C2B59660   0.138   8.031   6.639
 4661POPC   C3B59661   0.274   7.845   7.061
 4661POPC   C4B59662   0.336   7.889   7.529
 4662POPC   NC359663  14.965  21.401   5.393
 4662POPC   PO459664  15.532  21.107   5.536
 4662POPC   GL159665  15.247  21.328   5.833
 4662POPC   GL259666  14.938  21.556   5.878
 4662POPC   C1A59667  15.195  21.320   6.273
 4662POPC   D2A59668  15.477  21.355   6.583
 4662POPC   C3A59669  15.238  21.417   6.957
 4662POPC   C4A59670  15.172  21.211   7.348
 4662POPC   C1B59671  15.291  21.785   6.094
 4662POPC   C2B59672  15.327  21.839   6.544
 4662POPC   C3B59673  15.539  21.808   6.950
 4662POPC   C4B59674  15.475  21.636   7.368
 4663POPC   NC359675  40.406  23.756   5.500
 4663POPC   PO459676  41.002  23.690   5.374
 4663POPC   GL159677  40.996  23.531   5.772
 4663POPC   GL259678  40.734  23.685   5.868
 4663POPC   C1A59679  41.050  23.436   6.191
 4663POPC   D2A59680  40.977  23.628   6.568
 4663POPC   C3A59681  41.038  23.518   6.981
 4663POPC   C4A59682  41.118  23.850   7.279
 4663POPC   C1B59683  40.562  23.624   6.248
 4663POPC   C2B59684  40.492  23.795   6.632
 4663POPC   C3B59685  40.646  23.859   7.041
 4663POPC   C4B59686  40.408  23.970   7.405
 4664POPC   NC359687  32.010  10.266   5.515
 4664POPC   PO459688  32.474   9.645   5.465
 4664POPC   GL159689  32.331   9.954   5.801
 4664POPC   GL259690  32.509  10.267   5.768
 4664POPC   C1A59691  32.049   9.958   6.198
 4664POPC   D2A59692  31.976   9.758   6.614
 4664POPC   C3A59693  32.369   9.557   6.777
 4664POPC   C4A59694  32.482   9.474   7.187
 4664POPC   C1B59695  32.516  10.266   6.189
 4664POPC   C2B59696  32.468   9.987   6.516
 4664POPC   C3B59697  32.598  10.090   6.915
 4664POPC   C4B59698  32.405  10.068   7.283
 4665POPC   NC359699   4.850  17.172   5.449
 4665POPC   PO459700   4.323  16.771   5.482
 4665POPC   GL159701   4.245  16.649   5.855
 4665POPC   GL259702   4.039  16.383   5.811
 4665POPC   C1A59703   4.361  16.716   6.263
 4665POPC   D2A59704   4.208  16.649   6.643
 4665POPC   C3A59705   4.338  16.888   6.990
 4665POPC   C4A59706   4.497  16.826   7.395
 4665POPC   C1B59707   3.859  16.585   6.182
 4665POPC   C2B59708   3.651  16.670   6.558
 4665POPC   C3B59709   3.812  16.693   6.962
 4665POPC   C4B59710   3.991  16.749   7.350
 4666POPC   NC359711  39.450  18.893   5.504
 4666POPC   PO459712  38.877  19.172   5.568
 4666POPC   GL159713  39.086  18.910   5.877
 4666POPC   GL259714  38.834  18.707   5.968
 4666POPC   C1A59715  39.376  18.733   6.199
 4666POPC   D2A59716  39.427  18.925   6.595
 4666POPC   C3A59717  39.398  18.817   6.990
 4666POPC   C4A59718  39.236  19.147   7.302
 4666POPC   C1B59719  38.940  18.973   6.372
 4666POPC   C2B59720  38.968  19.056   6.841
 4666POPC   C3B59721  38.918  18.767   7.210
 4666POPC   C4B59722  39.018  18.840   7.674
 4667POPC   NC359723  35.922  30.540   5.275
 4667POPC   PO459724  36.539  30.846   5.404
 4667POPC   GL159725  36.238  30.766   5.746
 4667POPC   GL259726  35.951  30.932   5.752
 4667POPC   C1A59727  36.114  30.652   6.194
 4667POPC   D2A59728  35.858  30.472   6.538
 4667POPC   C3A59729  35.971  30.301   6.946
 4667POPC   C4A59730  36.329  30.383   7.230
 4667POPC   C1B59731  35.756  31.060   6.126
 4667POPC   C2B59732  35.828  30.999   6.542
 4667POPC   C3B59733  36.034  30.833   6.908
 4667POPC   C4B59734  35.803  30.937   7.273
 4668POPC   NC359735  10.040   5.394   5.442
 4668POPC   PO459736   9.670   4.822   5.444
 4668POPC   GL159737   9.821   4.938   5.833
 4668POPC   GL259738   9.786   5.279   5.889
 4668POPC   C1A59739   9.634   4.912   6.235
 4668POPC   D2A59740   9.805   4.740   6.590
 4668POPC   C3A59741   9.721   4.904   6.988
 4668POPC   C4A59742   9.496   5.051   7.351
 4668POPC   C1B59743   9.586   5.445   6.226
 4668POPC   C2B59744   9.571   5.272   6.625
 4668POPC   C3B59745   9.464   5.480   6.980
 4668POPC   C4B59746   9.313   5.520   7.372
 4669POPC   NC359747  24.345   2.598   5.238
 4669POPC   PO459748  25.005   2.569   5.296
 4669POPC   GL159749  24.739   2.520   5.712
 4669POPC   GL259750  24.485   2.801   5.759
 4669POPC   C1A59751  24.713   2.442   6.198
 4669POPC   D2A59752  24.435   2.459   6.601
 4669POPC   C3A59753  24.422   2.614   7.061
 4669POPC   C4A59754  24.233   2.537   7.512
 4669POPC   C1B59755  24.327   2.985   6.171
 4669POPC   C2B59756  24.442   2.974   6.622
 4669POPC   C3B59757  24.585   3.102   7.054
 4669POPC   C4B59758  24.573   2.895   7.485
 4670POPC   NC359759  13.069   7.768   5.616
 4670POPC   PO459760  13.102   8.388   5.483
 4670POPC   GL159761  12.935   8.310   5.869
 4670POPC   GL259762  12.568   8.256   5.851
 4670POPC   C1A59763  13.133   8.436   6.248
 4670POPC   D2A59764  12.955   8.516   6.634
 4670POPC   C3A59765  13.094   8.407   7.002
 4670POPC   C4A59766  12.947   8.038   7.153
 4670POPC   C1B59767  12.722   8.053   6.259
 4670POPC   C2B59768  12.730   7.942   6.695
 4670POPC   C3B59769  12.643   7.658   7.042
 4670POPC   C4B59770  12.534   7.871   7.439
 4671POPC   NC359771  34.345   5.607   5.145
 4671POPC   PO459772  34.683   5.063   5.511
 4671POPC   GL159773  34.686   5.003   5.907
 4671POPC   GL259774  34.312   4.997   5.868
 4671POPC   C1A59775  34.613   4.770   6.280
 4671POPC   D2A59776  34.600   4.973   6.638
 4671POPC   C3A59777  34.892   4.931   6.952
 4671POPC   C4A59778  34.734   4.970   7.368
 4671POPC   C1B59779  34.350   5.201   6.230
 4671POPC   C2B59780  34.185   5.357   6.545
 4671POPC   C3B59781  34.266   5.200   6.926
 4671POPC   C4B59782  34.129   5.258   7.270
 4672POPC   NC359783  18.155  37.535   5.199
 4672POPC   PO459784  18.498  37.905   5.551
 4672POPC   GL159785  18.194  37.753   5.846
 4672POPC   GL259786  17.982  37.495   5.675
 4672POPC   C1A59787  18.321  37.687   6.282
 4672POPC   D2A59788  18.282  37.704   6.726
 4672POPC   C3A59789  18.370  37.481   7.068
 4672POPC   C4A59790  18.228  37.836   7.258
 4672POPC   C1B59791  17.907  37.441   6.117
 4672POPC   C2B59792  18.040  37.294   6.498
 4672POPC   C3B59793  17.893  37.402   6.898
 4672POPC   C4B59794  17.846  37.512   7.310
 4673POPC   NC359795  36.820  23.983   5.250
 4673POPC   PO459796  36.465  23.381   5.268
 4673POPC   GL159797  36.751  23.465   5.657
 4673POPC   GL259798  36.873  23.817   5.719
 4673POPC   C1A59799  36.976  23.496   6.090
 4673POPC   D2A59800  36.917  23.759   6.471
 4673POPC   C3A59801  37.076  23.638   6.887
 4673POPC   C4A59802  36.822  23.598   7.255
 4673POPC   C1B59803  37.019  24.115   6.010
 4673POPC   C2B59804  37.047  24.246   6.445
 4673POPC   C3B59805  36.994  24.156   6.886
 4673POPC   C4B59806  37.217  24.006   7.255
 4674POPC   NC359807  25.445   6.800   5.495
 4674POPC   PO459808  25.032   6.224   5.406
 4674POPC   GL159809  25.145   6.365   5.816
 4674POPC   GL259810  25.506   6.428   5.832
 4674POPC   C1A59811  25.141   6.471   6.276
 4674POPC   D2A59812  25.320   6.600   6.696
 4674POPC   C3A59813  25.093   6.830   7.038
 4674POPC   C4A59814  24.986   6.684   7.465
 4674POPC   C1B59815  25.666   6.550   6.225
 4674POPC   C2B59816  25.855   6.499   6.630
 4674POPC   C3B59817  25.675   6.372   7.023
 4674POPC   C4B59818  25.477   6.657   7.325
 4675POPC   NC359819  12.002  42.663   5.581
 4675POPC   PO459820  11.940  43.272   5.246
 4675POPC   GL159821  12.165  43.150   5.641
 4675POPC   GL259822  11.867  43.116   5.833
 4675POPC   C1A59823  12.292  43.193   6.105
 4675POPC   D2A59824  12.011  43.288   6.497
 4675POPC   C3A59825  12.099  43.216   6.946
 4675POPC   C4A59826  11.783  43.135   7.284
 4675POPC   C1B59827  11.910  42.872   6.213
 4675POPC   C2B59828  12.012  42.778   6.633
 4675POPC   C3B59829  11.976  42.729   7.055
 4675POPC   C4B59830  12.234  42.895   7.349
 4676POPC   NC359831   5.948   5.693   5.380
 4676POPC   PO459832   5.631   6.234   5.698
 4676POPC   GL159833   5.825   5.871   5.855
 4676POPC   GL259834   6.151   5.811   5.833
 4676POPC   C1A59835   5.930   5.711   6.277
 4676POPC   D2A59836   5.919   5.962   6.649
 4676POPC   C3A59837   6.032   5.759   7.027
 4676POPC   C4A59838   5.837   5.631   7.416
 4676POPC   C1B59839   6.141   6.188   6.152
 4676POPC   C2B59840   6.254   6.368   6.577
 4676POPC   C3B59841   6.086   6.287   7.012
 4676POPC   C4B59842   6.117   6.067   7.451
 4677POPC   NC359843  40.883  17.660   5.570
 4677POPC   PO459844  41.229  17.066   5.417
 4677POPC   GL159845  41.148  17.330   5.852
 4677POPC   GL259846  40.803  17.437   6.030
 4677POPC   C1A59847  41.193  17.501   6.311
 4677POPC   D2A59848  40.805  17.572   6.564
 4677POPC   C3A59849  40.922  17.668   6.992
 4677POPC   C4A59850  41.009  17.402   7.356
 4677POPC   C1B59851  40.515  17.781   6.132
 4677POPC   C2B59852  40.343  17.893   6.520
 4677POPC   C3B59853  40.407  17.686   6.905
 4677POPC   C4B59854  40.500  17.718   7.319
 4678POPC   NC359855  35.258  38.171   5.591
 4678POPC   PO459856  35.668  38.680   5.496
 4678POPC   GL159857  35.478  38.584   5.843
 4678POPC   GL259858  35.163  38.679   5.845
 4678POPC   C1A59859  35.589  38.424   6.221
 4678POPC   D2A59860  35.420  38.348   6.615
 4678POPC   C3A59861  35.577  38.552   6.974
 4678POPC   C4A59862  35.606  38.270   7.274
 4678POPC   C1B59863  35.068  38.530   6.246
 4678POPC   C2B59864  34.908  38.433   6.651
 4678POPC   C3B59865  35.105  38.330   7.015
 4678POPC   C4B59866  35.174  38.589   7.331
 4679POPC   NC359867  10.040  44.271   5.502
 4679POPC   PO459868   9.433  43.904   5.451
 4679POPC   GL159869   9.680  43.905   5.810
 4679POPC   GL259870   9.458  43.685   5.956
 4679POPC   C1A59871   9.648  44.117   6.227
 4679POPC   D2A59872   9.670  44.383   6.610
 4679POPC   C3A59873   9.911  44.128   6.885
 4679POPC   C4A59874   9.789  43.877   7.224
 4679POPC   C1B59875   9.757  43.622   6.285
 4679POPC   C2B59876   9.737  43.648   6.716
 4679POPC   C3B59877  10.001  43.482   6.977
 4679POPC   C4B59878  10.074  43.449   7.349
 4680POPC   NC359879  10.478   0.061   5.092
 4680POPC   PO459880  10.382   0.625   5.565
 4680POPC   GL159881  10.562   0.721   5.938
 4680POPC   GL259882  10.573   0.373   5.992
 4680POPC   C1A59883  10.392   0.696   6.336
 4680POPC   D2A59884  10.594   0.476   6.647
 4680POPC   C3A59885  10.809   0.628   6.995
 4680POPC   C4A59886  10.698   0.443   7.393
 4680POPC   C1B59887  10.468   0.087   6.325
 4680POPC   C2B59888  10.297   0.059   6.761
 4680POPC   C3B59889  10.327   0.087   7.220
 4680POPC   C4B59890  10.066   0.023   7.587
 4681POPC   NC359891  38.347  26.147   5.401
 4681POPC   PO459892  38.764  25.757   5.674
 4681POPC   GL159893  38.461  25.917   5.881
 4681POPC   GL259894  38.543  26.260   5.854
 4681POPC   C1A59895  38.590  25.960   6.290
 4681POPC   D2A59896  38.583  25.769   6.637
 4681POPC   C3A59897  38.632  26.039   6.935
 4681POPC   C4A59898  38.518  25.928   7.333
 4681POPC   C1B59899  38.354  26.392   6.229
 4681POPC   C2B59900  38.610  26.442   6.588
 4681POPC   C3B59901  38.593  26.565   7.011
 4681POPC   C4B59902  38.307  26.410   7.313
 4682POPC   NC359903  38.714  20.604   5.420
 4682POPC   PO459904  38.065  20.363   5.287
 4682POPC   GL159905  38.321  20.413   5.692
 4682POPC   GL259906  38.359  20.792   5.726
 4682POPC   C1A59907  38.603  20.492   6.075
 4682POPC   D2A59908  38.405  20.556   6.483
 4682POPC   C3A59909  38.587  20.504   6.889
 4682POPC   C4A59910  38.383  20.464   7.256
 4682POPC   C1B59911  38.113  20.738   6.093
 4682POPC   C2B59912  38.079  20.951   6.482
 4682POPC   C3B59913  38.125  20.765   6.871
 4682POPC   C4B59914  37.973  20.801   7.253
 4683POPC   NC359915  15.763  15.552   5.553
 4683POPC   PO459916  16.199  14.996   5.382
 4683POPC   GL159917  15.968  15.121   5.743
 4683POPC   GL259918  16.144  15.422   5.859
 4683POPC   C1A59919  15.699  15.057   6.108
 4683POPC   D2A59920  15.817  14.870   6.501
 4683POPC   C3A59921  15.856  15.134   6.867
 4683POPC   C4A59922  15.904  15.192   7.292
 4683POPC   C1B59923  15.929  15.486   6.264
 4683POPC   C2B59924  16.014  15.699   6.652
 4683POPC   C3B59925  16.212  15.633   7.062
 4683POPC   C4B59926  16.310  15.441   7.441
 4684POPC   NC359927  43.870   8.232   5.379
 4684POPC   PO459928  44.339   7.987   5.669
 4684POPC   GL159929  44.055   8.226   5.886
 4684POPC   GL259930  43.710   8.108   5.860
 4684POPC   C1A59931  44.134   8.248   6.308
 4684POPC   D2A59932  44.155   8.033   6.695
 4684POPC   C3A59933  44.201   8.366   6.963
 4684POPC   C4A59934  44.094   8.413   7.380
 4684POPC   C1B59935  43.666   8.460   6.177
 4684POPC   C2B59936  43.752   8.376   6.640
 4684POPC   C3B59937  43.696   8.282   7.108
 4684POPC   C4B59938  43.659   8.268   7.593
 4685POPC   NC359939  21.336  12.379   5.481
 4685POPC   PO459940  21.328  11.759   5.382
 4685POPC   GL159941  21.514  11.983   5.751
 4685POPC   GL259942  21.198  12.036   5.841
 4685POPC   C1A59943  21.555  12.024   6.228
 4685POPC   D2A59944  21.646  11.787   6.612
 4685POPC   C3A59945  21.670  12.059   6.930
 4685POPC   C4A59946  21.812  12.124   7.335
 4685POPC   C1B59947  21.022  12.032   6.220
 4685POPC   C2B59948  21.179  12.116   6.613
 4685POPC   C3B59949  21.078  11.951   6.981
 4685POPC   C4B59950  21.332  11.994   7.314
 4686POPC   NC359951  18.909  21.053   5.590
 4686POPC   PO459952  19.357  20.591   5.537
 4686POPC   GL159953  19.147  20.666   5.856
 4686POPC   GL259954  19.196  20.995   6.004
 4686POPC   C1A59955  19.195  20.535   6.245
 4686POPC   D2A59956  19.294  20.795   6.573
 4686POPC   C3A59957  19.290  20.604   6.972
 4686POPC   C4A59958  18.953  20.470   7.232
 4686POPC   C1B59959  18.816  20.858   6.241
 4686POPC   C2B59960  18.796  20.586   6.584
 4686POPC   C3B59961  18.825  20.828   6.906
 4686POPC   C4B59962  18.550  20.891   7.219
 4687POPC   NC359963  26.942  34.693   5.310
 4687POPC   PO459964  26.364  34.745   5.533
 4687POPC   GL159965  26.721  34.766   5.787
 4687POPC   GL259966  26.973  35.017   5.714
 4687POPC   C1A59967  26.936  34.543   6.110
 4687POPC   D2A59968  26.960  34.615   6.558
 4687POPC   C3A59969  26.566  34.604   6.789
 4687POPC   C4A59970  26.392  34.469   7.194
 4687POPC   C1B59971  26.905  35.057   6.171
 4687POPC   C2B59972  26.687  35.125   6.569
 4687POPC   C3B59973  26.903  35.017   6.950
 4687POPC   C4B59974  26.879  34.647   7.209
 4688POPC   NC359975   5.163  44.151   5.445
 4688POPC   PO459976   4.901  43.513   5.404
 4688POPC   GL159977   5.091  43.749   5.787
 4688POPC   GL259978   5.208  44.047   5.998
 4688POPC   C1A59979   5.156  43.587   6.214
 4688POPC   D2A59980   5.185  43.663   6.655
 4688POPC   C3A59981   5.001  43.848   7.002
 4688POPC   C4A59982   5.080  43.500   7.254
 4688POPC   C1B59983   5.178  44.130   6.438
 4688POPC   C2B59984   5.381  44.194   6.851
 4688POPC   C3B59985   5.154  44.319   7.249
 4688POPC   C4B59986   4.924  44.354   7.631
 4689POPC   NC359987   1.161  16.504   5.512
 4689POPC   PO459988   1.034  17.097   5.356
 4689POPC   GL159989   1.143  16.968   5.794
 4689POPC   GL259990   1.010  16.680   5.982
 4689POPC   C1A59991   1.424  16.913   6.181
 4689POPC   D2A59992   1.512  17.013   6.626
 4689POPC   C3A59993   1.384  16.814   7.045
 4689POPC   C4A59994   1.416  16.954   7.503
 4689POPC   C1B59995   0.986  16.302   6.250
 4689POPC   C2B59996   1.072  16.136   6.676
 4689POPC   C3B59997   0.988  16.291   7.103
 4689POPC   C4B59998   0.865  16.719   7.240
 4690POPC   NC359999  22.514   0.631   5.574
 4690POPC   PO460000  21.897   0.322   5.503
 4690POPC   GL160001  22.163   0.328   5.803
 4690POPC   GL260002  22.395   0.082   5.790
 4690POPC   C1A60003  22.281   0.383   6.205
 4690POPC   D2A60004  22.165   0.177   6.546
 4690POPC   C3A60005  22.197   0.493   6.870
 4690POPC   C4A60006  22.244   0.696   7.245
 4690POPC   C1B60007  22.698   0.046   6.151
 4690POPC   C2B60008  22.732   0.041   6.613
 4690POPC   C3B60009  22.419   0.038   6.948
 4690POPC   C4B60010  22.156   0.185   7.303
 4691POPC   NC360011  12.505  40.546   4.995
 4691POPC   PO460012  12.947  40.869   5.421
 4691POPC   GL160013  12.895  40.854   5.865
 4691POPC   GL260014  12.582  41.009   5.831
 4691POPC   C1A60015  12.889  40.539   6.238
 4691POPC   D2A60016  12.704  40.411   6.645
 4691POPC   C3A60017  13.009  40.405   7.014
 4691POPC   C4A60018  13.475  40.457   7.009
 4691POPC   C1B60019  12.492  40.840   6.238
 4691POPC   C2B60020  12.603  40.936   6.631
 4691POPC   C3B60021  12.660  40.773   7.002
 4691POPC   C4B60022  12.900  40.814   7.349
 4692POPC   NC360023  17.794  21.958   5.459
 4692POPC   PO460024  18.395  21.881   5.250
 4692POPC   GL160025  18.468  22.064   5.703
 4692POPC   GL260026  18.167  22.189   5.828
 4692POPC   C1A60027  18.628  22.281   6.120
 4692POPC   D2A60028  18.759  22.167   6.572
 4692POPC   C3A60029  18.659  22.298   7.018
 4692POPC   C4A60030  18.544  22.189   7.449
 4692POPC   C1B60031  18.135  22.222   6.289
 4692POPC   C2B60032  17.988  22.151   6.713
 4692POPC   C3B60033  18.144  22.230   7.119
 4692POPC   C4B60034  18.142  22.513   7.470
 4693POPC   NC360035   6.413   3.499   5.711
 4693POPC   PO460036   6.959   3.885   5.499
 4693POPC   GL160037   6.912   3.583   5.839
 4693POPC   GL260038   7.016   3.225   5.789
 4693POPC   C1A60039   6.743   3.587   6.262
 4693POPC   D2A60040   6.705   3.510   6.692
 4693POPC   C3A60041   6.382   3.652   6.957
 4693POPC   C4A60042   6.551   3.565   7.336
 4693POPC   C1B60043   7.041   3.119   6.256
 4693POPC   C2B60044   7.142   3.112   6.729
 4693POPC   C3B60045   6.918   3.264   7.097
 4693POPC   C4B60046   6.761   3.020   7.458
 4694POPC   NC360047   8.634  17.495   5.475
 4694POPC   PO460048   9.217  17.782   5.219
 4694POPC   GL160049   9.295  17.595   5.731
 4694POPC   GL260050   8.994  17.433   5.897
 4694POPC   C1A60051   9.327  17.741   6.176
 4694POPC   D2A60052   9.233  17.821   6.609
 4694POPC   C3A60053   9.069  17.582   6.986
 4694POPC   C4A60054   8.776  17.827   7.273
 4694POPC   C1B60055   8.828  17.640   6.287
 4694POPC   C2B60056   8.674  17.763   6.695
 4694POPC   C3B60057   8.577  17.420   6.987
 4694POPC   C4B60058   8.747  17.227   7.361
 4695POPC   NC360059  10.140  12.100   5.529
 4695POPC   PO460060   9.701  11.629   5.374
 4695POPC   GL160061   9.656  11.858   5.798
 4695POPC   GL260062   9.969  11.938   5.972
 4695POPC   C1A60063   9.584  12.238   6.104
 4695POPC   D2A60064   9.475  12.317   6.551
 4695POPC   C3A60065   9.762  12.187   6.880
 4695POPC   C4A60066   9.685  12.303   7.309
 4695POPC   C1B60067   9.830  11.900   6.407
 4695POPC   C2B60068  10.040  11.619   6.653
 4695POPC   C3B60069  10.266  11.684   6.976
 4695POPC   C4B60070   9.999  11.887   7.263
 4696POPC   NC360071  39.848  37.618   5.468
 4696POPC   PO460072  40.358  37.995   5.396
 4696POPC   GL160073  40.096  37.978   5.764
 4696POPC   GL260074  39.712  38.043   5.814
 4696POPC   C1A60075  40.021  37.783   6.174
 4696POPC   D2A60076  39.968  37.904   6.599
 4696POPC   C3A60077  40.040  37.558   6.876
 4696POPC   C4A60078  39.899  37.462   7.274
 4696POPC   C1B60079  39.532  37.864   6.231
 4696POPC   C2B60080  39.486  37.684   6.662
 4696POPC   C3B60081  39.662  37.857   7.056
 4696POPC   C4B60082  39.733  37.866   7.520
 4697POPC   NC360083  29.928  11.852   5.598
 4697POPC   PO460084  29.711  12.530   5.561
 4697POPC   GL160085  29.957  12.309   5.845
 4697POPC   GL260086  29.643  12.142   5.925
 4697POPC   C1A60087  30.112  12.085   6.209
 4697POPC   D2A60088  30.174  11.831   6.582
 4697POPC   C3A60089  30.210  12.011   7.006
 4697POPC   C4A60090  30.079  12.040   7.438
 4697POPC   C1B60091  29.635  12.008   6.351
 4697POPC   C2B60092  29.694  11.809   6.756
 4697POPC   C3B60093  29.691  12.023   7.123
 4697POPC   C4B60094  29.566  12.136   7.557
 4698POPC   NC360095  20.872  36.346   5.279
 4698POPC   PO460096  20.262  36.153   5.169
 4698POPC   GL160097  20.559  36.077   5.613
 4698POPC   GL260098  20.895  35.922   5.711
 4698POPC   C1A60099  20.497  36.148   6.111
 4698POPC   D2A60100  20.656  36.341   6.535
 4698POPC   C3A60101  20.465  36.269   6.962
 4698POPC   C4A60102  20.431  35.917   7.233
 4698POPC   C1B60103  21.002  36.149   6.120
 4698POPC   C2B60104  21.200  36.231   6.555
 4698POPC   C3B60105  21.003  36.228   6.996
 4698POPC   C4B60106  20.979  35.919   7.355
 4699POPC   NC360107  29.003  41.917   5.455
 4699POPC   PO460108  29.369  42.375   5.342
 4699POPC   GL160109  29.274  42.398   5.768
 4699POPC   GL260110  29.371  42.066   5.854
 4699POPC   C1A60111  29.096  42.503   6.183
 4699POPC   D2A60112  29.106  42.254   6.579
 4699POPC   C3A60113  29.261  42.382   7.001
 4699POPC   C4A60114  29.052  42.389   7.405
 4699POPC   C1B60115  29.531  42.236   6.233
 4699POPC   C2B60116  29.618  42.161   6.664
 4699POPC   C3B60117  29.296  41.841   6.811
 4699POPC   C4B60118  28.968  41.970   7.105
 4700POPC   NC360119   0.948  29.393   5.177
 4700POPC   PO460120   0.345  29.482   5.413
 4700POPC   GL160121   0.373  29.232   5.801
 4700POPC   GL260122   0.624  28.980   5.787
 4700POPC   C1A60123   0.587  29.252   6.224
 4700POPC   D2A60124   0.598  29.232   6.675
 4700POPC   C3A60125   0.195  29.355   6.841
 4700POPC   C4A60126   0.107  29.354   7.271
 4700POPC   C1B60127   0.308  28.819   6.130
 4700POPC   C2B60128   0.183  28.901   6.576
 4700POPC   C3B60129   0.345  28.919   7.021
 4700POPC   C4B60130   0.425  28.691   7.373
 4701POPC   NC360131   7.826  10.889   5.594
 4701POPC   PO460132   7.465  10.268   5.426
 4701POPC   GL160133   7.471  10.512   5.812
 4701POPC   GL260134   7.151  10.335   5.870
 4701POPC   C1A60135   7.592  10.723   6.227
 4701POPC   D2A60136   7.410  10.677   6.677
 4701POPC   C3A60137   7.685  10.738   7.071
 4701POPC   C4A60138   7.724  10.690   7.559
 4701POPC   C1B60139   7.386  10.254   6.244
 4701POPC   C2B60140   7.274  10.203   6.646
 4701POPC   C3B60141   7.478  10.226   7.025
 4701POPC   C4B60142   7.329  10.497   7.344
 4702POPC   NC360143  21.032  23.103   5.461
 4702POPC   PO460144  21.567  22.633   5.429
 4702POPC   GL160145  21.376  22.861   5.756
 4702POPC   GL260146  21.105  22.658   5.904
 4702POPC   C1A60147  21.494  23.047   6.160
 4702POPC   D2A60148  21.696  22.830   6.509
 4702POPC   C3A60149  21.450  22.811   6.898
 4702POPC   C4A60150  21.577  23.083   7.205
 4702POPC   C1B60151  20.964  23.016   6.153
 4702POPC   C2B60152  21.049  23.165   6.561
 4702POPC   C3B60153  20.941  23.009   6.957
 4702POPC   C4B60154  21.123  22.906   7.317
 4703POPC   NC360155  31.739  16.206   5.467
 4703POPC   PO460156  31.291  15.668   5.490
 4703POPC   GL160157  31.506  15.896   5.823
 4703POPC   GL260158  31.768  15.682   5.904
 4703POPC   C1A60159  31.588  16.239   6.166
 4703POPC   D2A60160  31.592  16.393   6.635
 4703POPC   C3A60161  31.419  16.158   7.009
 4703POPC   C4A60162  31.424  16.114   7.473
 4703POPC   C1B60163  31.646  15.744   6.328
 4703POPC   C2B60164  31.611  15.763   6.775
 4703POPC   C3B60165  31.697  15.768   7.207
 4703POPC   C4B60166  31.826  15.811   7.638
 4704POPC   NC360167  21.190   8.470   5.452
 4704POPC   PO460168  21.050   7.815   5.429
 4704POPC   GL160169  21.188   8.062   5.811
 4704POPC   GL260170  21.525   8.219   5.753
 4704POPC   C1A60171  21.318   7.966   6.258
 4704POPC   D2A60172  21.190   8.031   6.700
 4704POPC   C3A60173  21.304   7.780   7.015
 4704POPC   C4A60174  21.484   7.906   7.412
 4704POPC   C1B60175  21.549   8.442   6.132
 4704POPC   C2B60176  21.374   8.477   6.534
 4704POPC   C3B60177  21.436   8.377   6.996
 4704POPC   C4B60178  21.577   8.700   7.277
 4705POPC   NC360179   8.649   3.064   5.393
 4705POPC   PO460180   9.352   3.080   5.513
 4705POPC   GL160181   9.140   2.841   5.836
 4705POPC   GL260182   8.796   2.882   5.850
 4705POPC   C1A60183   9.079   2.600   6.224
 4705POPC   D2A60184   9.212   2.591   6.645
 4705POPC   C3A60185   9.030   2.951   6.817
 4705POPC   C4A60186   8.969   2.948   7.237
 4705POPC   C1B60187   8.551   2.760   6.189
 4705POPC   C2B60188   8.536   2.904   6.590
 4705POPC   C3B60189   8.567   2.724   6.980
 4705POPC   C4B60190   8.461   2.900   7.340
 4706POPC   NC360191  41.725   6.943   5.708
 4706POPC   PO460192  41.800   6.291   5.493
 4706POPC   GL160193  41.632   6.480   5.843
 4706POPC   GL260194  41.299   6.655   5.833
 4706POPC   C1A60195  41.881   6.414   6.215
 4706POPC   D2A60196  42.031   6.536   6.602
 4706POPC   C3A60197  41.958   6.311   6.966
 4706POPC   C4A60198  41.797   6.366   7.376
 4706POPC   C1B60199  41.469   6.707   6.273
 4706POPC   C2B60200  41.606   6.855   6.641
 4706POPC   C3B60201  41.626   6.738   7.053
 4706POPC   C4B60202  41.558   6.890   7.493
 4707POPC   NC360203  13.987  22.493   5.699
 4707POPC   PO460204  13.773  23.075   5.455
 4707POPC   GL160205  13.751  22.962   5.871
 4707POPC   GL260206  14.099  23.011   5.919
 4707POPC   C1A60207  13.500  22.990   6.246
 4707POPC   D2A60208  13.254  23.178   6.574
 4707POPC   C3A60209  13.381  23.056   6.949
 4707POPC   C4A60210  13.196  23.028   7.338
 4707POPC   C1B60211  13.996  22.896   6.358
 4707POPC   C2B60212  13.820  22.787   6.783
 4707POPC   C3B60213  13.764  22.916   7.221
 4707POPC   C4B60214  13.793  23.179   7.605
 4708POPC   NC360215  39.739  44.182   5.406
 4708POPC   PO460216  40.164  43.640   5.537
 4708POPC   GL160217  39.984  43.927   5.824
 4708POPC   GL260218  39.773  43.689   5.923
 4708POPC   C1A60219  40.018  44.125   6.251
 4708POPC   D2A60220  40.306  44.201   6.632
 4708POPC   C3A60221  40.151  44.002   7.025
 4708POPC   C4A60222  39.777  44.127   7.259
 4708POPC   C1B60223  40.000  43.595   6.282
 4708POPC   C2B60224  39.874  43.793   6.645
 4708POPC   C3B60225  39.665  43.688   7.009
 4708POPC   C4B60226  39.535  43.701   7.428
 4709POPC   NC360227  17.226  35.593   5.461
 4709POPC   PO460228  17.645  35.051   5.688
 4709POPC   GL160229  17.578  35.449   5.871
 4709POPC   GL260230  17.877  35.614   5.822
 4709POPC   C1A60231  17.515  35.441   6.319
 4709POPC   D2A60232  17.561  35.063   6.601
 4709POPC   C3A60233  17.398  35.151   7.005
 4709POPC   C4A60234  17.543  35.371   7.350
 4709POPC   C1B60235  17.932  35.779   6.265
 4709POPC   C2B60236  17.698  35.781   6.675
 4709POPC   C3B60237  17.854  35.719   7.085
 4709POPC   C4B60238  17.794  35.774   7.491
 4710POPC   NC360239  20.336  12.347   5.493
 4710POPC   PO460240  20.637  11.768   5.435
 4710POPC   GL160241  20.450  11.947   5.797
 4710POPC   GL260242  20.714  12.225   5.824
 4710POPC   C1A60243  20.502  12.010   6.236
 4710POPC   D2A60244  20.729  11.815   6.587
 4710POPC   C3A60245  20.549  11.882   6.991
 4710POPC   C4A60246  20.655  11.736   7.408
 4710POPC   C1B60247  20.764  12.451   6.221
 4710POPC   C2B60248  20.691  12.342   6.661
 4710POPC   C3B60249  20.945  12.437   7.029
 4710POPC   C4B60250  20.877  12.185   7.400
 4711POPC   NC360251   7.280  28.875   5.315
 4711POPC   PO460252   7.518  28.270   5.517
 4711POPC   GL160253   7.649  28.382   5.905
 4711POPC   GL260254   7.794  28.680   5.822
 4711POPC   C1A60255   7.376  28.476   6.243
 4711POPC   D2A60256   7.126  28.312   6.585
 4711POPC   C3A60257   7.346  28.156   6.933
 4711POPC   C4A60258   7.305  28.329   7.348
 4711POPC   C1B60259   7.876  28.719   6.267
 4711POPC   C2B60260   7.566  28.796   6.586
 4711POPC   C3B60261   7.438  28.674   6.987
 4711POPC   C4B60262   7.704  28.670   7.351
 4712POPC   NC360263  30.404  34.139   5.556
 4712POPC   PO460264  30.746  33.585   5.351
 4712POPC   GL160265  30.854  33.680   5.743
 4712POPC   GL260266  30.533  33.767   5.872
 4712POPC   C1A60267  30.960  33.926   6.095
 4712POPC   D2A60268  30.976  33.970   6.532
 4712POPC   C3A60269  31.042  33.848   6.957
 4712POPC   C4A60270  30.711  34.011   7.196
 4712POPC   C1B60271  30.486  33.963   6.304
 4712POPC   C2B60272  30.537  33.784   6.721
 4712POPC   C3B60273  30.669  33.506   7.054
 4712POPC   C4B60274  30.572  33.551   7.475
 4713POPC   NC360275  15.276  43.634   5.381
 4713POPC   PO460276  15.254  42.990   5.387
 4713POPC   GL160277  15.130  42.931   5.778
 4713POPC   GL260278  15.119  43.273   5.919
 4713POPC   C1A60279  15.144  42.805   6.185
 4713POPC   D2A60280  15.222  43.092   6.503
 4713POPC   C3A60281  15.087  42.999   6.866
 4713POPC   C4A60282  15.157  43.216   7.240
 4713POPC   C1B60283  15.440  43.438   6.198
 4713POPC   C2B60284  15.584  43.521   6.629
 4713POPC   C3B60285  15.632  43.423   7.072
 4713POPC   C4B60286  15.493  43.578   7.473
 4714POPC   NC360287  43.448  32.362   5.383
 4714POPC   PO460288  42.795  32.626   5.084
 4714POPC   GL160289  42.978  32.426   5.572
 4714POPC   GL260290  43.254  32.544   5.796
 4714POPC   C1A60291  42.931  32.253   6.064
 4714POPC   D2A60292  42.750  32.256   6.525
 4714POPC   C3A60293  42.986  32.081   6.914
 4714POPC   C4A60294  43.257  32.004   7.272
 4714POPC   C1B60295  43.284  32.611   6.218
 4714POPC   C2B60296  43.250  32.387   6.588
 4714POPC   C3B60297  43.351  32.511   7.010
 4714POPC   C4B60298  43.454  32.437   7.454
 4715POPC   NC360299   0.981  37.413   5.448
 4715POPC   PO460300   1.674  37.312   5.344
 4715POPC   GL160301   1.402  37.559   5.681
 4715POPC   GL260302   1.057  37.687   5.847
 4715POPC   C1A60303   1.475  37.692   6.113
 4715POPC   D2A60304   1.476  37.509   6.518
 4715POPC   C3A60305   1.368  37.768   6.857
 4715POPC   C4A60306   1.457  37.657   7.258
 4715POPC   C1B60307   1.028  37.456   6.234
 4715POPC   C2B60308   0.925  37.562   6.678
 4715POPC   C3B60309   0.991  37.451   7.115
 4715POPC   C4B60310   1.031  37.634   7.556
 4716POPC   NC360311  14.644   6.961   5.503
 4716POPC   PO460312  14.101   6.821   5.214
 4716POPC   GL160313  14.164   6.770   5.729
 4716POPC   GL260314  14.460   6.652   5.849
 4716POPC   C1A60315  14.135   6.758   6.209
 4716POPC   D2A60316  14.269   6.970   6.599
 4716POPC   C3A60317  14.317   6.730   6.982
 4716POPC   C4A60318  14.258   6.873   7.407
 4716POPC   C1B60319  14.670   6.464   6.196
 4716POPC   C2B60320  14.660   6.540   6.617
 4716POPC   C3B60321  14.731   6.437   7.031
 4716POPC   C4B60322  14.737   6.745   7.390
 4717POPC   NC360323  40.667  36.235   5.443
 4717POPC   PO460324  41.105  35.764   5.092
 4717POPC   GL160325  41.102  35.866   5.658
 4717POPC   GL260326  40.887  36.107   5.868
 4717POPC   C1A60327  41.087  35.769   6.167
 4717POPC   D2A60328  40.742  35.736   6.534
 4717POPC   C3A60329  40.750  36.061   6.838
 4717POPC   C4A60330  40.992  36.116   7.192
 4717POPC   C1B60331  40.742  36.203   6.320
 4717POPC   C2B60332  40.475  36.482   6.624
 4717POPC   C3B60333  40.378  36.580   7.076
 4717POPC   C4B60334  40.553  36.288   7.391
 4718POPC   NC360335  14.622   0.082   5.499
 4718POPC   PO460336  14.241  44.553   5.216
 4718POPC   GL160337  14.295  44.696   5.664
 4718POPC   GL260338  14.560  44.563   5.854
 4718POPC   C1A60339  14.251  44.866   6.110
 4718POPC   D2A60340  14.146  44.737   6.560
 4718POPC   C3A60341  14.464  44.745   6.900
 4718POPC   C4A60342  14.796  44.998   7.154
 4718POPC   C1B60343  14.420  44.285   6.168
 4718POPC   C2B60344  14.629  44.131   6.531
 4718POPC   C3B60345  14.521  44.210   6.967
 4718POPC   C4B60346  14.758  44.492   7.235
 4719POPC   NC360347  10.554  13.726   5.349
 4719POPC   PO460348  10.129  13.434   5.801
 4719POPC   GL160349  10.455  13.739   5.895
 4719POPC   GL260350  10.727  13.523   5.822
 4719POPC   C1A60351  10.486  13.976   6.293
 4719POPC   D2A60352  10.493  14.099   6.742
 4719POPC   C3A60353  10.226  13.990   7.071
 4719POPC   C4A60354  10.439  13.802   7.425
 4719POPC   C1B60355  10.892  13.629   6.241
 4719POPC   C2B60356  10.929  13.835   6.650
 4719POPC   C3B60357  10.825  13.797   7.087
 4719POPC   C4B60358  10.836  13.449   7.397
 4720POPC   NC360359   1.652  24.852   5.437
 4720POPC   PO460360   1.033  24.966   5.254
 4720POPC   GL160361   1.195  25.132   5.688
 4720POPC   GL260362   1.406  24.902   5.894
 4720POPC   C1A60363   1.363  25.399   6.078
 4720POPC   D2A60364   1.209  25.562   6.531
 4720POPC   C3A60365   1.412  25.596   6.990
 4720POPC   C4A60366   1.487  25.326   7.353
 4720POPC   C1B60367   1.069  25.017   6.197
 4720POPC   C2B60368   0.928  25.014   6.639
 4720POPC   C3B60369   1.133  25.036   7.042
 4720POPC   C4B60370   1.004  25.098   7.473
 4721POPC   NC360371   0.703   0.941   5.450
 4721POPC   PO460372   0.092   1.112   5.683
 4721POPC   GL160373   0.443   0.941   5.913
 4721POPC   GL260374   0.495   1.249   6.046
 4721POPC   C1A60375   0.620   0.889   6.376
 4721POPC   D2A60376   0.466   1.208   6.635
 4721POPC   C3A60377   0.476   1.101   7.023
 4721POPC   C4A60378   0.715   1.340   7.284
 4721POPC   C1B60379   0.093   1.129   6.312
 4721POPC   C2B60380  44.942   1.255   6.735
 4721POPC   C3B60381   0.154   1.499   7.066
 4721POPC   C4B60382   0.176   1.348   7.493
 4722POPC   NC360383  20.581   1.724   5.130
 4722POPC   PO460384  20.524   1.081   5.434
 4722POPC   GL160385  20.580   1.172   5.862
 4722POPC   GL260386  20.878   1.347   5.923
 4722POPC   C1A60387  20.529   1.089   6.295
 4722POPC   D2A60388  20.273   1.265   6.599
 4722POPC   C3A60389  20.335   1.135   7.011
 4722POPC   C4A60390  20.516   1.097   7.391
 4722POPC   C1B60391  21.057   1.098   6.264
 4722POPC   C2B60392  20.892   0.843   6.598
 4722POPC   C3B60393  20.841   0.981   7.007
 4722POPC   C4B60394  20.766   1.442   7.064
 4723POPC   NC360395  12.040  20.852   5.548
 4723POPC   PO460396  12.256  20.205   5.565
 4723POPC   GL160397  12.158  20.503   5.922
 4723POPC   GL260398  12.370  20.449   6.194
 4723POPC   C1A60399  11.894  20.759   6.228
 4723POPC   D2A60400  11.769  20.720   6.665
 4723POPC   C3A60401  12.087  20.653   6.963
 4723POPC   C4A60402  12.157  20.843   7.352
 4723POPC   C1B60403  12.029  20.310   6.456
 4723POPC   C2B60404  11.852  20.197   6.855
 4723POPC   C3B60405  11.727  20.373   7.249
 4723POPC   C4B60406  11.855  20.182   7.659
 4724POPC   NC360407   1.328  15.491   5.043
 4724POPC   PO460408   1.240  16.051   5.425
 4724POPC   GL160409   1.167  15.705   5.725
 4724POPC   GL260410   1.497  15.724   5.821
 4724POPC   C1A60411   0.986  15.562   6.153
 4724POPC   D2A60412   0.820  15.705   6.568
 4724POPC   C3A60413   1.055  15.682   6.955
 4724POPC   C4A60414   0.972  15.835   7.360
 4724POPC   C1B60415   1.352  15.912   6.205
 4724POPC   C2B60416   1.445  15.771   6.630
 4724POPC   C3B60417   1.444  16.015   7.011
 4724POPC   C4B60418   1.702  16.066   7.318
 4725POPC   NC360419  37.996  29.239   5.489
 4725POPC   PO460420  37.441  28.771   5.360
 4725POPC   GL160421  37.617  28.929   5.762
 4725POPC   GL260422  37.545  29.271   5.870
 4725POPC   C1A60423  37.798  28.930   6.203
 4725POPC   D2A60424  37.608  29.039   6.609
 4725POPC   C3A60425  37.767  28.981   7.027
 4725POPC   C4A60426  37.680  28.907   7.458
 4725POPC   C1B60427  37.879  29.440   6.121
 4725POPC   C2B60428  37.915  29.554   6.545
 4725POPC   C3B60429  37.658  29.500   6.915
 4725POPC   C4B60430  37.756  29.438   7.342
 4726POPC   NC360431  26.636   7.861   5.498
 4726POPC   PO460432  26.914   8.441   5.542
 4726POPC   GL160433  26.773   8.241   5.875
 4726POPC   GL260434  26.942   7.935   5.910
 4726POPC   C1A60435  26.914   8.382   6.278
 4726POPC   D2A60436  26.952   8.667   6.638
 4726POPC   C3A60437  26.701   8.599   7.003
 4726POPC   C4A60438  26.534   8.206   7.182
 4726POPC   C1B60439  26.617   7.957   6.273
 4726POPC   C2B60440  26.601   8.227   6.652
 4726POPC   C3B60441  27.014   8.211   6.896
 4726POPC   C4B60442  27.124   7.886   7.209
 4727POPC   NC360443  25.078   5.343   5.564
 4727POPC   PO460444  25.176   4.655   5.390
 4727POPC   GL160445  25.208   4.872   5.773
 4727POPC   GL260446  25.390   5.157   5.954
 4727POPC   C1A60447  25.038   4.858   6.166
 4727POPC   D2A60448  25.268   5.050   6.480
 4727POPC   C3A60449  25.231   4.897   6.886
 4727POPC   C4A60450  25.285   5.049   7.317
 4727POPC   C1B60451  25.553   4.758   6.148
 4727POPC   C2B60452  25.701   4.744   6.605
 4727POPC   C3B60453  25.705   4.882   7.055
 4727POPC   C4B60454  25.553   4.618   7.365
 4728POPC   NC360455   5.630   9.198   5.463
 4728POPC   PO460456   6.220   8.854   5.498
 4728POPC   GL160457   5.931   9.013   5.841
 4728POPC   GL260458   5.961   9.388   5.858
 4728POPC   C1A60459   5.648   8.909   6.242
 4728POPC   D2A60460   5.671   8.632   6.651
 4728POPC   C3A60461   5.508   8.749   7.072
 4728POPC   C4A60462   5.518   8.717   7.514
 4728POPC   C1B60463   6.029   9.282   6.266
 4728POPC   C2B60464   5.790   9.241   6.628
 4728POPC   C3B60465   5.677   9.253   7.032
 4728POPC   C4B60466   5.932   9.003   7.260
 4729POPC   NC360467  32.259  42.085   5.265
 4729POPC   PO460468  32.937  42.161   5.509
 4729POPC   GL160469  33.044  42.222   5.902
 4729POPC   GL260470  33.315  41.966   5.868
 4729POPC   C1A60471  32.949  42.431   6.312
 4729POPC   D2A60472  32.935  42.257   6.750
 4729POPC   C3A60473  33.163  42.453   7.105
 4729POPC   C4A60474  33.014  42.512   7.508
 4729POPC   C1B60475  33.273  42.041   6.314
 4729POPC   C2B60476  33.400  42.052   6.719
 4729POPC   C3B60477  33.188  41.939   7.083
 4729POPC   C4B60478  33.272  42.037   7.502
 4730POPC   NC360479  30.246  19.862   5.660
 4730POPC   PO460480  29.661  19.668   5.488
 4730POPC   GL160481  29.782  19.659   5.928
 4730POPC   GL260482  30.076  19.443   5.914
 4730POPC   C1A60483  29.771  19.862   6.360
 4730POPC   D2A60484  29.795  19.628   6.750
 4730POPC   C3A60485  29.688  19.790   7.106
 4730POPC   C4A60486  29.849  20.194   7.133
 4730POPC   C1B60487  30.040  19.441   6.349
 4730POPC   C2B60488  30.308  19.504   6.716
 4730POPC   C3B60489  30.203  19.629   7.117
 4730POPC   C4B60490  29.917  19.403   7.305
 4731POPC   NC360491  20.424  33.019   5.535
 4731POPC   PO460492  20.995  33.266   5.357
 4731POPC   GL160493  20.916  33.128   5.790
 4731POPC   GL260494  20.579  33.110   5.997
 4731POPC   C1A60495  21.007  32.938   6.188
 4731POPC   D2A60496  20.715  32.962   6.505
 4731POPC   C3A60497  20.851  32.853   6.906
 4731POPC   C4A60498  20.875  33.027   7.318
 4731POPC   C1B60499  20.345  33.354   6.313
 4731POPC   C2B60500  20.282  33.144   6.708
 4731POPC   C3B60501  20.400  32.954   7.109
 4731POPC   C4B60502  20.423  33.171   7.521
 4732POPC   NC360503  39.746   1.754   5.473
 4732POPC   PO460504  40.203   2.273   5.386
 4732POPC   GL160505  40.180   1.990   5.723
 4732POPC   GL260506  40.234   1.660   5.642
 4732POPC   C1A60507  39.953   1.933   6.107
 4732POPC   D2A60508  39.753   1.926   6.514
 4732POPC   C3A60509  39.965   2.016   6.871
 4732POPC   C4A60510  40.027   1.889   7.277
 4732POPC   C1B60511  40.358   1.610   6.071
 4732POPC   C2B60512  40.279   1.767   6.478
 4732POPC   C3B60513  40.418   1.649   6.853
 4732POPC   C4B60514  40.486   1.645   7.287
 4733POPC   NC360515   5.924   1.519   5.107
 4733POPC   PO460516   5.679   1.055   5.482
 4733POPC   GL160517   5.866   1.183   5.827
 4733POPC   GL260518   5.966   1.487   5.740
 4733POPC   C1A60519   5.842   0.977   6.219
 4733POPC   D2A60520   6.076   0.772   6.516
 4733POPC   C3A60521   5.885   0.957   6.833
 4733POPC   C4A60522   5.866   0.896   7.235
 4733POPC   C1B60523   5.972   1.499   6.224
 4733POPC   C2B60524   5.813   1.442   6.667
 4733POPC   C3B60525   5.997   1.376   7.128
 4733POPC   C4B60526   6.106   1.638   7.552
 4734POPC   NC360527  13.934   0.643   5.539
 4734POPC   PO460528  14.012   0.011   5.382
 4734POPC   GL160529  13.867   0.194   5.806
 4734POPC   GL260530  13.514   0.295   5.858
 4734POPC   C1A60531  13.877   0.480   6.187
 4734POPC   D2A60532  13.707   0.513   6.590
 4734POPC   C3A60533  13.883   0.543   7.015
 4734POPC   C4A60534  13.729   0.227   7.279
 4734POPC   C1B60535  13.318   0.511   6.241
 4734POPC   C2B60536  13.245   0.699   6.619
 4734POPC   C3B60537  13.372   0.507   6.975
 4734POPC   C4B60538  13.296   0.688   7.319
 4735POPC   NC360539  35.179   2.454   5.507
 4735POPC   PO460540  35.636   2.911   5.569
 4735POPC   GL160541  35.456   2.727   5.917
 4735POPC   GL260542  35.128   2.869   5.899
 4735POPC   C1A60543  35.565   2.635   6.345
 4735POPC   D2A60544  35.699   2.853   6.703
 4735POPC   C3A60545  35.473   2.634   7.009
 4735POPC   C4A60546  35.176   2.728   7.351
 4735POPC   C1B60547  35.043   2.579   6.251
 4735POPC   C2B60548  35.087   2.468   6.689
 4735POPC   C3B60549  35.030   2.303   7.124
 4735POPC   C4B60550  34.956   2.354   7.613
 4736POPC   NC360551  36.889  19.675   5.484
 4736POPC   PO460552  37.287  20.266   5.442
 4736POPC   GL160553  37.035  20.050   5.803
 4736POPC   GL260554  37.178  19.698   5.909
 4736POPC   C1A60555  36.833  19.938   6.221
 4736POPC   D2A60556  36.660  20.042   6.643
 4736POPC   C3A60557  36.841  19.852   7.027
 4736POPC   C4A60558  36.672  19.886   7.442
 4736POPC   C1B60559  37.171  19.555   6.336
 4736POPC   C2B60560  36.773  19.542   6.564
 4736POPC   C3B60561  36.659  19.368   6.942
 4736POPC   C4B60562  36.869  19.425   7.361
 4737POPC   NC360563   4.768   1.707   5.450
 4737POPC   PO460564   5.254   2.077   5.440
 4737POPC   GL160565   5.178   2.078   5.888
 4737POPC   GL260566   4.874   1.905   5.929
 4737POPC   C1A60567   5.217   2.168   6.339
 4737POPC   D2A60568   5.086   1.836   6.628
 4737POPC   C3A60569   5.347   1.653   6.920
 4737POPC   C4A60570   5.427   2.038   7.158
 4737POPC   C1B60571   4.750   1.630   6.279
 4737POPC   C2B60572   4.601   1.669   6.717
 4737POPC   C3B60573   4.769   1.819   7.114
 4737POPC   C4B60574   5.121   1.692   7.373
 4738POPC   NC360575  35.772  20.816   5.398
 4738POPC   PO460576  36.515  20.887   5.300
 4738POPC   GL160577  36.369  20.646   5.712
 4738POPC   GL260578  36.020  20.700   5.827
 4738POPC   C1A60579  36.345  20.528   6.178
 4738POPC   D2A60580  36.254  20.372   6.594
 4738POPC   C3A60581  36.363  20.586   6.985
 4738POPC   C4A60582  36.498  20.380   7.364
 4738POPC   C1B60583  35.856  20.779   6.253
 4738POPC   C2B60584  36.006  20.825   6.678
 4738POPC   C3B60585  35.867  20.751   7.109
 4738POPC   C4B60586  35.586  20.726   7.464
 4739POPC   NC360587   8.096  34.871   5.442
 4739POPC   PO460588   8.099  35.550   5.507
 4739POPC   GL160589   8.101  35.245   5.839
 4739POPC   GL260590   7.733  35.159   5.853
 4739POPC   C1A60591   8.189  35.317   6.286
 4739POPC   D2A60592   8.091  35.211   6.713
 4739POPC   C3A60593   8.333  35.412   7.081
 4739POPC   C4A60594   8.269  35.472   7.539
 4739POPC   C1B60595   7.779  34.957   6.264
 4739POPC   C2B60596   7.982  34.720   6.554
 4739POPC   C3B60597   7.883  34.805   6.984
 4739POPC   C4B60598   7.948  35.144   7.271
 4740POPC   NC360599  28.960  11.608   5.651
 4740POPC   PO460600  29.174  11.096   5.346
 4740POPC   GL160601  29.234  11.136   5.795
 4740POPC   GL260602  29.498  11.345   5.881
 4740POPC   C1A60603  29.084  11.330   6.195
 4740POPC   D2A60604  28.858  11.390   6.543
 4740POPC   C3A60605  28.907  11.094   6.850
 4740POPC   C4A60606  29.154  11.142   7.210
 4740POPC   C1B60607  29.548  11.534   6.241
 4740POPC   C2B60608  29.250  11.705   6.535
 4740POPC   C3B60609  29.135  11.614   6.956
 4740POPC   C4B60610  29.389  11.682   7.323
 4741POPC   NC360611  19.143   0.190   5.574
 4741POPC   PO460612  18.991  44.668   5.156
 4741POPC   GL160613  19.141  44.624   5.638
 4741POPC   GL260614  18.984  44.814   5.878
 4741POPC   C1A60615  19.340  44.629   6.135
 4741POPC   D2A60616  19.216  44.537   6.560
 4741POPC   C3A60617  19.368  44.793   6.871
 4741POPC   C4A60618  19.201  44.788   7.233
 4741POPC   C1B60619  18.821  44.545   6.242
 4741POPC   C2B60620  18.682  44.433   6.694
 4741POPC   C3B60621  18.767  44.573   7.115
 4741POPC   C4B60622  18.714  44.774   7.531
 4742POPC   NC360623  39.278  35.515   5.335
 4742POPC   PO460624  38.876  35.108   5.666
 4742POPC   GL160625  39.092  35.500   5.873
 4742POPC   GL260626  39.469  35.579   5.815
 4742POPC   C1A60627  39.320  35.487   6.310
 4742POPC   D2A60628  39.486  35.162   6.611
 4742POPC   C3A60629  39.188  35.001   6.916
 4742POPC   C4A60630  39.007  35.061   7.303
 4742POPC   C1B60631  39.822  35.767   6.066
 4742POPC   C2B60632  39.792  35.886   6.485
 4742POPC   C3B60633  39.627  35.623   6.808
 4742POPC   C4B60634  39.286  35.509   7.097
 4743POPC   NC360635  22.931   0.806   5.206
 4743POPC   PO460636  22.653   0.221   5.388
 4743POPC   GL160637  22.917   0.367   5.765
 4743POPC   GL260638  23.036   0.732   5.728
 4743POPC   C1A60639  22.793   0.558   6.183
 4743POPC   D2A60640  22.537   0.723   6.521
 4743POPC   C3A60641  22.716   0.503   6.847
 4743POPC   C4A60642  22.709   0.474   7.263
 4743POPC   C1B60643  23.277   0.713   6.132
 4743POPC   C2B60644  23.163   0.631   6.583
 4743POPC   C3B60645  23.153   0.719   7.056
 4743POPC   C4B60646  23.116   0.668   7.544
 4744POPC   NC360647  31.611  32.713   5.622
 4744POPC   PO460648  31.551  33.326   5.270
 4744POPC   GL160649  31.332  33.128   5.770
 4744POPC   GL260650  31.263  32.776   6.001
 4744POPC   C1A60651  31.501  33.098   6.268
 4744POPC   D2A60652  31.394  32.757   6.571
 4744POPC   C3A60653  31.662  32.803   6.935
 4744POPC   C4A60654  31.828  33.146   7.185
 4744POPC   C1B60655  30.999  33.046   6.271
 4744POPC   C2B60656  30.885  32.934   6.693
 4744POPC   C3B60657  31.155  32.797   7.035
 4744POPC   C4B60658  31.392  32.932   7.379
 4745POPC   NC360659  44.951  32.478   5.481
 4745POPC   PO460660  44.713  31.977   5.124
 4745POPC   GL160661  44.698  32.101   5.707
 4745POPC   GL260662  44.789  32.414   5.960
 4745POPC   C1A60663  44.655  31.975   6.187
 4745POPC   D2A60664  44.539  31.841   6.633
 4745POPC   C3A60665  44.645  32.115   6.962
 4745POPC   C4A60666  44.815  32.023   7.350
 4745POPC   C1B60667  44.772  32.716   6.318
 4745POPC   C2B60668  44.595  32.726   6.748
 4745POPC   C3B60669  44.592  32.582   7.168
 4745POPC   C4B60670  44.377  32.304   7.404
 4746POPC   NC360671  11.343  31.369   5.185
 4746POPC   PO460672  11.578  31.878   5.518
 4746POPC   GL160673  11.322  31.616   5.761
 4746POPC   GL260674  11.286  31.259   5.712
 4746POPC   C1A60675  11.558  31.492   6.131
 4746POPC   D2A60676  11.415  31.383   6.556
 4746POPC   C3A60677  11.563  31.534   6.953
 4746POPC   C4A60678  11.647  31.729   7.322
 4746POPC   C1B60679  11.096  31.302   6.138
 4746POPC   C2B60680  10.908  31.332   6.558
 4746POPC   C3B60681  11.068  31.361   6.994
 4746POPC   C4B60682  10.845  31.352   7.419
 4747POPC   NC360683   9.725  21.160   5.521
 4747POPC   PO460684   9.283  21.708   5.599
 4747POPC   GL160685   9.558  21.455   5.916
 4747POPC   GL260686   9.526  21.117   5.993
 4747POPC   C1A60687   9.919  21.402   6.198
 4747POPC   D2A60688  10.163  21.480   6.581
 4747POPC   C3A60689  10.026  21.227   6.938
 4747POPC   C4A60690   9.866  21.425   7.305
 4747POPC   C1B60691   9.433  21.377   6.392
 4747POPC   C2B60692   9.505  21.366   6.823
 4747POPC   C3B60693   9.380  21.478   7.222
 4747POPC   C4B60694   9.440  21.188   7.549
 4748POPC   NC360695  44.201  22.317   5.475
 4748POPC   PO460696  44.736  22.130   5.135
 4748POPC   GL160697  44.606  22.016   5.600
 4748POPC   GL260698  44.276  21.925   5.799
 4748POPC   C1A60699  44.732  22.078   6.056
 4748POPC   D2A60700  44.709  22.094   6.535
 4748POPC   C3A60701  44.827  22.079   6.972
 4748POPC   C4A60702  44.521  22.012   7.278
 4748POPC   C1B60703  44.297  21.942   6.286
 4748POPC   C2B60704  44.230  21.888   6.742
 4748POPC   C3B60705  44.128  22.206   7.032
 4748POPC   C4B60706  44.186  22.409   7.443
 4749POPC   NC360707  44.865  20.769   5.026
 4749POPC   PO460708  44.645  20.122   5.341
 4749POPC   GL160709  44.646  20.483   5.708
 4749POPC   GL260710  44.385  20.756   5.721
 4749POPC   C1A60711  44.768  20.702   6.134
 4749POPC   D2A60712  44.803  20.867   6.562
 4749POPC   C3A60713  44.955  20.683   6.932
 4749POPC   C4A60714  44.889  20.895   7.336
 4749POPC   C1B60715  44.251  20.671   6.147
 4749POPC   C2B60716  44.363  20.658   6.574
 4749POPC   C3B60717  44.472  20.816   7.011
 4749POPC   C4B60718  44.381  21.076   7.394
 4750POPC   NC360719   9.640  24.462   4.992
 4750POPC   PO460720   9.692  24.326   5.560
 4750POPC   GL160721   9.849  24.516   5.889
 4750POPC   GL260722  10.046  24.232   5.931
 4750POPC   C1A60723   9.863  24.781   6.249
 4750POPC   D2A60724   9.855  24.969   6.665
 4750POPC   C3A60725   9.738  24.654   6.947
 4750POPC   C4A60726   9.528  24.669   7.348
 4750POPC   C1B60727   9.932  24.273   6.375
 4750POPC   C2B60728  10.015  24.244   6.813
 4750POPC   C3B60729  10.178  24.097   7.198
 4750POPC   C4B60730  10.092  24.160   7.646
 4751POPC   NC360731  30.171  14.898   5.664
 4751POPC   PO460732  29.764  15.267   5.347
 4751POPC   GL160733  29.845  15.324   5.750
 4751POPC   GL260734  29.681  15.003   5.798
 4751POPC   C1A60735  29.875  15.289   6.200
 4751POPC   D2A60736  30.125  15.092   6.532
 4751POPC   C3A60737  29.990  15.273   6.917
 4751POPC   C4A60738  30.014  15.097   7.317
 4751POPC   C1B60739  29.446  15.014   6.190
 4751POPC   C2B60740  29.605  14.960   6.610
 4751POPC   C3B60741  29.539  15.051   7.053
 4751POPC   C4B60742  29.524  14.992   7.488
 4752POPC   NC360743  33.865   9.348   5.427
 4752POPC   PO460744  33.809   8.719   5.442
 4752POPC   GL160745  33.648   8.830   5.838
 4752POPC   GL260746  33.606   9.201   5.843
 4752POPC   C1A60747  33.660   8.672   6.237
 4752POPC   D2A60748  33.985   8.563   6.464
 4752POPC   C3A60749  33.810   8.660   6.847
 4752POPC   C4A60750  33.857   8.906   7.133
 4752POPC   C1B60751  33.913   9.118   6.201
 4752POPC   C2B60752  34.052   9.363   6.565
 4752POPC   C3B60753  33.940   9.378   6.980
 4752POPC   C4B60754  34.100   9.265   7.380
 4753POPC   NC360755  42.487   0.889   5.368
 4753POPC   PO460756  42.045   1.279   5.459
 4753POPC   GL160757  42.103   1.173   5.875
 4753POPC   GL260758  42.340   0.869   5.858
 4753POPC   C1A60759  42.119   1.369   6.301
 4753POPC   D2A60760  41.997   1.205   6.698
 4753POPC   C3A60761  42.223   1.308   7.047
 4753POPC   C4A60762  42.122   1.487   7.431
 4753POPC   C1B60763  42.555   1.144   6.137
 4753POPC   C2B60764  42.539   1.160   6.594
 4753POPC   C3B60765  42.395   0.840   6.879
 4753POPC   C4B60766  42.091   0.838   7.197
 4754POPC   NC360767   0.697  27.622   5.500
 4754POPC   PO460768   0.083  27.720   5.425
 4754POPC   GL160769   0.197  27.442   5.740
 4754POPC   GL260770   0.175  27.758   5.947
 4754POPC   C1A60771   0.399  27.293   6.106
 4754POPC   D2A60772   0.219  27.349   6.492
 4754POPC   C3A60773   0.451  27.547   6.814
 4754POPC   C4A60774   0.625  27.467   7.213
 4754POPC   C1B60775   0.114  27.847   6.395
 4754POPC   C2B60776   0.038  27.908   6.818
 4754POPC   C3B60777   0.226  27.810   7.214
 4754POPC   C4B60778   0.018  27.806   7.622
 4755POPC   NC360779   3.725  44.214   5.488
 4755POPC   PO460780   3.453  43.622   5.379
 4755POPC   GL160781   3.501  43.815   5.786
 4755POPC   GL260782   3.293  44.064   5.931
 4755POPC   C1A60783   3.658  43.803   6.214
 4755POPC   D2A60784   3.838  44.006   6.588
 4755POPC   C3A60785   4.037  43.742   6.900
 4755POPC   C4A60786   3.822  43.655   7.284
 4755POPC   C1B60787   3.134  43.691   6.143
 4755POPC   C2B60788   3.310  43.486   6.508
 4755POPC   C3B60789   3.443  43.670   6.897
 4755POPC   C4B60790   3.324  43.830   7.307
 4756POPC   NC360791   0.507  36.274   5.421
 4756POPC   PO460792  44.878  35.915   5.550
 4756POPC   GL160793   0.268  35.815   5.731
 4756POPC   GL260794   0.255  36.143   5.883
 4756POPC   C1A60795   0.442  35.733   6.159
 4756POPC   D2A60796   0.315  35.699   6.616
 4756POPC   C3A60797   0.637  35.893   6.890
 4756POPC   C4A60798   0.671  36.183   7.236
 4756POPC   C1B60799   0.074  36.100   6.322
 4756POPC   C2B60800   0.212  36.208   6.774
 4756POPC   C3B60801   0.170  36.186   7.232
 4756POPC   C4B60802   0.228  36.469   7.568
 4757POPC   NC360803  36.734   5.464   5.476
 4757POPC   PO460804  37.045   6.085   5.516
 4757POPC   GL160805  36.893   5.925   5.838
 4757POPC   GL260806  37.052   5.649   5.842
 4757POPC   C1A60807  36.697   5.868   6.252
 4757POPC   D2A60808  36.773   5.703   6.655
 4757POPC   C3A60809  36.789   5.992   7.012
 4757POPC   C4A60810  36.462   6.179   7.267
 4757POPC   C1B60811  37.065   5.507   6.218
 4757POPC   C2B60812  37.280   5.619   6.580
 4757POPC   C3B60813  37.145   5.577   7.018
 4757POPC   C4B60814  36.993   5.758   7.410
 4758POPC   NC360815   0.973  18.743   5.547
 4758POPC   PO460816   1.109  19.463   5.530
 4758POPC   GL160817   1.220  19.104   5.858
 4758POPC   GL260818   0.919  18.968   6.014
 4758POPC   C1A60819   1.425  18.897   6.267
 4758POPC   D2A60820   1.585  19.030   6.706
 4758POPC   C3A60821   1.332  19.057   7.104
 4758POPC   C4A60822   0.943  18.903   7.232
 4758POPC   C1B60823   0.671  19.365   6.093
 4758POPC   C2B60824   0.538  19.443   6.514
 4758POPC   C3B60825   0.849  19.380   6.830
 4758POPC   C4B60826   1.016  19.469   7.220
 4759POPC   NC360827  42.039   8.412   5.386
 4759POPC   PO460828  42.464   7.897   5.523
 4759POPC   GL160829  42.278   8.186   5.803
 4759POPC   GL260830  42.322   8.523   5.803
 4759POPC   C1A60831  42.061   8.165   6.176
 4759POPC   D2A60832  41.986   8.287   6.579
 4759POPC   C3A60833  42.229   8.098   6.898
 4759POPC   C4A60834  42.365   8.223   7.290
 4759POPC   C1B60835  42.506   8.532   6.197
 4759POPC   C2B60836  42.525   8.333   6.560
 4759POPC   C3B60837  42.670   8.481   6.960
 4759POPC   C4B60838  42.729   8.574   7.383
 4760POPC   NC360839  34.115  23.538   5.520
 4760POPC   PO460840  33.479  23.693   5.576
 4760POPC   GL160841  33.706  23.732   5.928
 4760POPC   GL260842  33.967  23.911   5.837
 4760POPC   C1A60843  33.622  23.625   6.356
 4760POPC   D2A60844  33.505  23.796   6.720
 4760POPC   C3A60845  33.756  23.629   7.013
 4760POPC   C4A60846  33.636  23.674   7.443
 4760POPC   C1B60847  34.174  23.768   6.169
 4760POPC   C2B60848  34.119  23.591   6.557
 4760POPC   C3B60849  34.272  23.718   6.933
 4760POPC   C4B60850  34.147  23.761   7.350
 4761POPC   NC360851  31.716  16.982   5.356
 4761POPC   PO460852  31.283  16.469   5.468
 4761POPC   GL160853  31.401  16.740   5.809
 4761POPC   GL260854  31.709  16.793   5.836
 4761POPC   C1A60855  31.410  16.736   6.275
 4761POPC   D2A60856  31.275  16.848   6.702
 4761POPC   C3A60857  31.418  16.648   7.058
 4761POPC   C4A60858  31.773  16.439   7.275
 4761POPC   C1B60859  31.906  16.949   6.204
 4761POPC   C2B60860  31.771  16.969   6.608
 4761POPC   C3B60861  31.873  16.843   6.990
 4761POPC   C4B60862  32.128  16.911   7.296
 4762POPC   NC360863  17.348   4.592   5.431
 4762POPC   PO460864  17.588   3.996   5.536
 4762POPC   GL160865  17.500   4.297   5.847
 4762POPC   GL260866  17.147   4.411   5.866
 4762POPC   C1A60867  17.632   4.295   6.257
 4762POPC   D2A60868  17.443   4.135   6.624
 4762POPC   C3A60869  17.665   4.267   6.989
 4762POPC   C4A60870  17.446   4.320   7.358
 4762POPC   C1B60871  17.274   4.688   6.202
 4762POPC   C2B60872  17.471   4.667   6.595
 4762POPC   C3B60873  17.339   4.661   6.998
 4762POPC   C4B60874  17.350   4.896   7.341
 4763POPC   NC360875   7.723  17.838   5.402
 4763POPC   PO460876   7.446  17.173   5.532
 4763POPC   GL160877   7.538  17.404   5.869
 4763POPC   GL260878   7.400  17.742   5.795
 4763POPC   C1A60879   7.363  17.499   6.267
 4763POPC   D2A60880   7.222  17.390   6.655
 4763POPC   C3A60881   7.411  17.411   7.066
 4763POPC   C4A60882   7.121  17.362   7.403
 4763POPC   C1B60883   7.224  17.963   6.145
 4763POPC   C2B60884   7.467  17.932   6.552
 4763POPC   C3B60885   7.295  17.904   6.963
 4763POPC   C4B60886   7.348  17.840   7.385
 4764POPC   NC360887  24.701  20.669   5.667
 4764POPC   PO460888  24.174  20.956   5.410
 4764POPC   GL160889  24.178  20.733   5.847
 4764POPC   GL260890  24.337  20.386   5.911
 4764POPC   C1A60891  24.226  20.675   6.328
 4764POPC   D2A60892  24.350  20.839   6.740
 4764POPC   C3A60893  24.705  21.035   6.842
 4764POPC   C4A60894  24.844  20.873   7.214
 4764POPC   C1B60895  24.716  20.313   6.223
 4764POPC   C2B60896  24.784  20.474   6.610
 4764POPC   C3B60897  24.466  20.350   6.848
 4764POPC   C4B60898  24.533  20.334   7.248
 4765POPC   NC360899  17.638   0.241   5.045
 4765POPC   PO460900  17.928   0.648   5.471
 4765POPC   GL160901  17.631   0.704   5.817
 4765POPC   GL260902  17.273   0.586   5.762
 4765POPC   C1A60903  17.610   0.560   6.254
 4765POPC   D2A60904  17.693   0.641   6.711
 4765POPC   C3A60905  17.553   0.289   7.018
 4765POPC   C4A60906  17.585   0.225   7.499
 4765POPC   C1B60907  17.088   0.467   6.155
 4765POPC   C2B60908  17.246   0.365   6.563
 4765POPC   C3B60909  17.064   0.398   6.949
 4765POPC   C4B60910  17.116   0.183   7.352
 4766POPC   NC360911  35.324   1.542   5.123
 4766POPC   PO460912  35.521   0.985   5.530
 4766POPC   GL160913  35.505   1.032   5.976
 4766POPC   GL260914  35.817   0.911   6.015
 4766POPC   C1A60915  35.400   1.313   6.338
 4766POPC   D2A60916  35.373   1.629   6.675
 4766POPC   C3A60917  35.305   1.382   7.036
 4766POPC   C4A60918  35.373   1.457   7.464
 4766POPC   C1B60919  35.668   0.677   6.360
 4766POPC   C2B60920  35.565   0.868   6.750
 4766POPC   C3B60921  35.742   1.120   7.082
 4766POPC   C4B60922  35.722   1.079   7.516
 4767POPC   NC360923  18.806  22.107   5.317
 4767POPC   PO460924  19.448  22.397   5.397
 4767POPC   GL160925  19.159  22.334   5.738
 4767POPC   GL260926  18.978  22.037   5.783
 4767POPC   C1A60927  19.160  22.279   6.203
 4767POPC   D2A60928  19.140  22.509   6.585
 4767POPC   C3A60929  19.162  22.243   6.936
 4767POPC   C4A60930  19.080  22.461   7.303
 4767POPC   C1B60931  18.889  21.839   6.179
 4767POPC   C2B60932  19.115  21.797   6.574
 4767POPC   C3B60933  19.111  21.721   7.003
 4767POPC   C4B60934  18.987  21.961   7.366
 4768POPC   NC360935   8.263  38.574   5.514
 4768POPC   PO460936   7.626  38.462   5.645
 4768POPC   GL160937   7.888  38.390   6.011
 4768POPC   GL260938   8.228  38.333   5.951
 4768POPC   C1A60939   8.074  38.311   6.427
 4768POPC   D2A60940   8.433  38.310   6.660
 4768POPC   C3A60941   8.183  38.466   6.966
 4768POPC   C4A60942   8.078  38.170   7.246
 4768POPC   C1B60943   8.500  38.586   6.240
 4768POPC   C2B60944   8.469  38.812   6.651
 4768POPC   C3B60945   8.655  38.672   7.032
 4768POPC   C4B60946   8.450  38.463   7.402
 4769POPC   NC360947  36.656  41.392   5.445
 4769POPC   PO460948  37.150  41.734   5.116
 4769POPC   GL160949  37.052  41.597   5.638
 4769POPC   GL260950  36.740  41.782   5.790
 4769POPC   C1A60951  37.086  41.373   6.074
 4769POPC   D2A60952  37.056  41.105   6.480
 4769POPC   C3A60953  36.983  41.329   6.893
 4769POPC   C4A60954  37.073  41.645   7.266
 4769POPC   C1B60955  36.526  41.716   6.214
 4769POPC   C2B60956  36.637  41.603   6.632
 4769POPC   C3B60957  36.656  41.802   7.034
 4769POPC   C4B60958  36.596  41.802   7.500
 4770POPC   NC360959  18.600  18.039   5.316
 4770POPC   PO460960  18.185  18.505   5.217
 4770POPC   GL160961  18.239  18.395   5.693
 4770POPC   GL260962  18.372  18.052   5.774
 4770POPC   C1A60963  18.055  18.216   6.117
 4770POPC   D2A60964  18.196  17.956   6.470
 4770POPC   C3A60965  18.141  18.175   6.854
 4770POPC   C4A60966  18.214  18.192   7.281
 4770POPC   C1B60967  18.585  18.121   6.171
 4770POPC   C2B60968  18.721  17.921   6.560
 4770POPC   C3B60969  18.737  18.050   6.980
 4770POPC   C4B60970  18.640  17.903   7.353
 4771POPC   NC360971  17.420  42.628   5.527
 4771POPC   PO460972  16.756  42.322   5.436
 4771POPC   GL160973  16.755  42.401   5.853
 4771POPC   GL260974  17.086  42.342   5.835
 4771POPC   C1A60975  16.579  42.455   6.273
 4771POPC   D2A60976  16.649  42.689   6.642
 4771POPC   C3A60977  16.666  42.503   7.049
 4771POPC   C4A60978  16.734  42.054   7.147
 4771POPC   C1B60979  17.034  42.222   6.267
 4771POPC   C2B60980  16.954  42.254   6.717
 4771POPC   C3B60981  17.225  42.104   7.090
 4771POPC   C4B60982  17.199  41.908   7.541
 4772POPC   NC360983  39.376  18.056   5.438
 4772POPC   PO460984  39.091  18.591   5.483
 4772POPC   GL160985  39.270  18.398   5.823
 4772POPC   GL260986  39.045  18.121   5.860
 4772POPC   C1A60987  39.488  18.213   6.197
 4772POPC   D2A60988  39.319  18.175   6.628
 4772POPC   C3A60989  39.532  18.280   6.994
 4772POPC   C4A60990  39.356  18.096   7.338
 4772POPC   C1B60991  39.012  18.375   6.269
 4772POPC   C2B60992  38.988  18.555   6.686
 4772POPC   C3B60993  38.974  18.301   7.054
 4772POPC   C4B60994  38.949  18.347   7.515
 4773POPC   NC360995  21.839  25.962   5.660
 4773POPC   PO460996  21.236  25.880   5.254
 4773POPC   GL160997  21.254  25.787   5.769
 4773POPC   GL260998  21.539  25.909   6.047
 4773POPC   C1A60999  21.054  25.887   6.152
 4773POPC   D2A61000  21.240  26.020   6.520
 4773POPC   C3A61001  21.166  25.857   6.921
 4773POPC   C4A61002  21.134  26.247   7.143
 4773POPC   C1B61003  21.595  26.298   6.299
 4773POPC   C2B61004  21.623  26.252   6.765
 4773POPC   C3B61005  21.606  26.021   7.133
 4773POPC   C4B61006  21.661  25.584   7.180
 4774POPC   NC361007  36.265  32.038   5.361
 4774POPC   PO461008  35.664  32.097   5.006
 4774POPC   GL161009  35.826  32.242   5.566
 4774POPC   GL261010  36.144  32.241   5.796
 4774POPC   C1A61011  35.763  32.088   6.066
 4774POPC   D2A61012  35.842  31.988   6.529
 4774POPC   C3A61013  36.034  32.292   6.832
 4774POPC   C4A61014  35.976  32.399   7.271
 4774POPC   C1B61015  36.320  32.005   6.192
 4774POPC   C2B61016  36.399  31.957   6.677
 4774POPC   C3B61017  36.109  31.812   7.047
 4774POPC   C4B61018  36.255  31.597   7.477
 4775POPC   NC361019  33.797  28.953   5.332
 4775POPC   PO461020  33.504  29.510   5.270
 4775POPC   GL161021  33.601  29.287   5.702
 4775POPC   GL261022  33.441  28.963   5.767
 4775POPC   C1A61023  33.892  29.003   5.997
 4775POPC   D2A61024  34.131  29.066   6.386
 4775POPC   C3A61025  33.930  28.992   6.797
 4775POPC   C4A61026  33.952  28.925   7.246
 4775POPC   C1B61027  33.384  28.806   6.209
 4775POPC   C2B61028  33.467  28.785   6.678
 4775POPC   C3B61029  33.461  29.039   7.065
 4775POPC   C4B61030  33.413  28.970   7.515
 4776POPC   NC361031  25.988  23.311   5.773
 4776POPC   PO461032  26.308  23.850   5.424
 4776POPC   GL161033  26.106  23.893   5.847
 4776POPC   GL261034  25.763  23.759   5.876
 4776POPC   C1A61035  26.100  23.742   6.294
 4776POPC   D2A61036  26.214  23.398   6.584
 4776POPC   C3A61037  26.056  23.555   6.973
 4776POPC   C4A61038  25.975  24.003   7.085
 4776POPC   C1B61039  25.582  23.717   6.267
 4776POPC   C2B61040  25.708  23.878   6.652
 4776POPC   C3B61041  25.549  23.733   7.031
 4776POPC   C4B61042  25.755  23.645   7.379
 4777POPC   NC361043  32.936  22.426   5.323
 4777POPC   PO461044  32.807  21.788   5.533
 4777POPC   GL161045  33.027  22.101   5.816
 4777POPC   GL261046  33.042  22.461   5.829
 4777POPC   C1A61047  33.250  22.173   6.234
 4777POPC   D2A61048  33.140  22.365   6.633
 4777POPC   C3A61049  33.076  22.046   6.900
 4777POPC   C4A61050  33.161  21.953   7.300
 4777POPC   C1B61051  32.789  22.419   6.233
 4777POPC   C2B61052  32.623  22.478   6.636
 4777POPC   C3B61053  32.605  22.264   7.014
 4777POPC   C4B61054  32.630  21.850   7.094
 4778POPC   NC361055  31.275  33.766   5.378
 4778POPC   PO461056  31.685  33.483   5.794
 4778POPC   GL161057  31.349  33.657   5.896
 4778POPC   GL261058  31.426  34.010   5.808
 4778POPC   C1A61059  31.203  33.544   6.304
 4778POPC   D2A61060  30.941  33.453   6.620
 4778POPC   C3A61061  31.189  33.312   6.935
 4778POPC   C4A61062  31.445  33.469   7.264
 4778POPC   C1B61063  31.471  34.010   6.251
 4778POPC   C2B61064  31.473  33.925   6.693
 4778POPC   C3B61065  31.566  33.943   7.135
 4778POPC   C4B61066  31.503  33.908   7.589
 4779POPC   NC361067  13.460  17.323   5.421
 4779POPC   PO461068  13.032  17.839   5.565
 4779POPC   GL161069  13.364  17.597   5.860
 4779POPC   GL261070  13.513  17.234   5.913
 4779POPC   C1A61071  13.383  17.492   6.318
 4779POPC   D2A61072  13.520  17.351   6.722
 4779POPC   C3A61073  13.607  17.589   7.061
 4779POPC   C4A61074  13.437  17.564   7.456
 4779POPC   C1B61075  13.840  17.344   6.165
 4779POPC   C2B61076  13.956  17.496   6.530
 4779POPC   C3B61077  13.993  17.280   6.922
 4779POPC   C4B61078  13.819  17.237   7.345
 4780POPC   NC361079  12.587   2.584   5.321
 4780POPC   PO461080  13.072   3.032   5.375
 4780POPC   GL161081  12.929   2.771   5.726
 4780POPC   GL261082  12.685   2.976   5.865
 4780POPC   C1A61083  12.932   2.605   6.177
 4780POPC   D2A61084  13.046   2.591   6.639
 4780POPC   C3A61085  12.690   2.471   6.926
 4780POPC   C4A61086  12.588   2.379   7.384
 4780POPC   C1B61087  13.067   3.117   6.125
 4780POPC   C2B61088  13.261   3.222   6.540
 4780POPC   C3B61089  13.181   3.174   6.994
 4780POPC   C4B61090  12.903   2.859   7.186
 4781POPC   NC361091  29.418  22.381   5.457
 4781POPC   PO461092  28.967  21.909   5.304
 4781POPC   GL161093  29.010  21.957   5.724
 4781POPC   GL261094  29.062  22.292   5.818
 4781POPC   C1A61095  28.905  21.908   6.154
 4781POPC   D2A61096  28.830  22.052   6.571
 4781POPC   C3A61097  29.149  22.280   6.776
 4781POPC   C4A61098  29.190  22.284   7.208
 4781POPC   C1B61099  28.965  22.469   6.241
 4781POPC   C2B61100  28.825  22.669   6.643
 4781POPC   C3B61101  28.738  22.527   7.101
 4781POPC   C4B61102  28.822  22.349   7.550
 4782POPC   NC361103  16.726   2.389   5.408
 4782POPC   PO461104  17.053   3.000   5.358
 4782POPC   GL161105  16.828   2.810   5.726
 4782POPC   GL261106  16.945   2.494   5.846
 4782POPC   C1A61107  16.653   2.802   6.162
 4782POPC   D2A61108  16.442   2.783   6.555
 4782POPC   C3A61109  16.640   2.824   6.939
 4782POPC   C4A61110  16.798   3.100   7.283
 4782POPC   C1B61111  16.986   2.311   6.200
 4782POPC   C2B61112  16.796   2.238   6.565
 4782POPC   C3B61113  16.988   2.366   6.927
 4782POPC   C4B61114  16.917   2.579   7.284
 4783POPC   NC361115  37.905  33.236   5.397
 4783POPC   PO461116  37.272  33.081   5.436
 4783POPC   GL161117  37.591  33.115   5.795
 4783POPC   GL261118  37.783  33.409   5.865
 4783POPC   C1A61119  37.778  32.933   6.192
 4783POPC   D2A61120  37.679  32.664   6.572
 4783POPC   C3A61121  37.501  32.716   6.990
 4783POPC   C4A61122  37.373  32.757   7.408
 4783POPC   C1B61123  37.762  33.455   6.307
 4783POPC   C2B61124  37.904  33.156   6.639
 4783POPC   C3B61125  37.928  33.019   7.062
 4783POPC   C4B61126  37.837  33.114   7.496
 4784POPC   NC361127   2.580  16.095   5.362
 4784POPC   PO461128   2.931  15.627   5.521
 4784POPC   GL161129   2.917  15.831   5.881
 4784POPC   GL261130   2.581  15.773   5.885
 4784POPC   C1A61131   2.870  15.758   6.327
 4784POPC   D2A61132   2.938  15.795   6.772
 4784POPC   C3A61133   2.933  16.222   6.930
 4784POPC   C4A61134   3.086  16.368   7.347
 4784POPC   C1B61135   2.354  15.721   6.245
 4784POPC   C2B61136   2.441  15.936   6.641
 4784POPC   C3B61137   2.508  15.951   7.092
 4784POPC   C4B61138   2.516  15.893   7.557
 4785POPC   NC361139   8.655  15.204   5.116
 4785POPC   PO461140   9.230  15.191   5.470
 4785POPC   GL161141   9.047  15.016   5.854
 4785POPC   GL261142   9.093  15.311   6.017
 4785POPC   C1A61143   8.728  15.025   6.220
 4785POPC   D2A61144   8.449  15.261   6.490
 4785POPC   C3A61145   8.518  15.232   6.948
 4785POPC   C4A61146   8.428  15.541   7.254
 4785POPC   C1B61147   9.188  15.083   6.419
 4785POPC   C2B61148   8.972  14.982   6.817
 4785POPC   C3B61149   9.150  14.978   7.224
 4785POPC   C4B61150   9.363  14.960   7.625
 4786POPC   NC361151  37.454  38.717   5.464
 4786POPC   PO461152  37.903  38.277   5.310
 4786POPC   GL161153  37.778  38.281   5.729
 4786POPC   GL261154  37.765  38.621   5.855
 4786POPC   C1A61155  37.662  38.173   6.164
 4786POPC   D2A61156  37.842  38.313   6.547
 4786POPC   C3A61157  37.668  38.139   6.909
 4786POPC   C4A61158  37.915  38.187   7.243
 4786POPC   C1B61159  37.712  38.874   6.208
 4786POPC   C2B61160  37.599  38.760   6.611
 4786POPC   C3B61161  37.690  38.673   6.989
 4786POPC   C4B61162  37.435  38.931   7.248
 4787POPC   NC361163  23.588  42.730   5.213
 4787POPC   PO461164  23.403  42.114   5.481
 4787POPC   GL161165  23.462  42.148   5.905
 4787POPC   GL261166  23.816  42.197   5.898
 4787POPC   C1A61167  23.611  42.157   6.357
 4787POPC   D2A61168  23.958  42.031   6.652
 4787POPC   C3A61169  23.808  42.027   7.087
 4787POPC   C4A61170  23.586  42.313   7.354
 4787POPC   C1B61171  23.961  42.552   6.170
 4787POPC   C2B61172  23.920  42.742   6.530
 4787POPC   C3B61173  23.883  42.521   6.912
 4787POPC   C4B61174  24.059  42.450   7.291
 4788POPC   NC361175   8.232  37.602   5.284
 4788POPC   PO461176   8.549  38.251   5.324
 4788POPC   GL161177   8.478  37.935   5.666
 4788POPC   GL261178   8.120  37.857   5.747
 4788POPC   C1A61179   8.498  37.934   6.124
 4788POPC   D2A61180   8.375  37.652   6.459
 4788POPC   C3A61181   8.266  37.861   6.847
 4788POPC   C4A61182   8.364  37.730   7.260
 4788POPC   C1B61183   7.973  37.875   6.196
 4788POPC   C2B61184   7.800  37.785   6.632
 4788POPC   C3B61185   7.819  37.747   7.107
 4788POPC   C4B61186   7.821  37.874   7.565
 4789POPC   NC361187  28.411  20.000   5.462
 4789POPC   PO461188  28.215  19.348   5.308
 4789POPC   GL161189  28.193  19.626   5.811
 4789POPC   GL261190  28.386  19.950   5.933
 4789POPC   C1A61191  28.196  19.815   6.346
 4789POPC   D2A61192  28.533  19.782   6.701
 4789POPC   C3A61193  28.456  19.704   7.163
 4789POPC   C4A61194  28.204  19.519   7.503
 4789POPC   C1B61195  28.521  20.328   6.100
 4789POPC   C2B61196  28.441  20.313   6.524
 4789POPC   C3B61197  28.583  20.277   6.918
 4789POPC   C4B61198  28.391  20.190   7.268
 4790POPC   NC361199   0.699  15.664   5.477
 4790POPC   PO461200   0.231  15.151   5.441
 4790POPC   GL161201   0.465  15.267   5.785
 4790POPC   GL261202   0.305  15.609   5.834
 4790POPC   C1A61203   0.587  14.971   6.153
 4790POPC   D2A61204   0.378  14.757   6.531
 4790POPC   C3A61205   0.502  14.917   6.951
 4790POPC   C4A61206   0.652  14.962   7.354
 4790POPC   C1B61207   0.447  15.464   6.245
 4790POPC   C2B61208   0.615  15.248   6.595
 4790POPC   C3B61209   0.620  15.427   7.015
 4790POPC   C4B61210   0.485  15.602   7.400
 4791POPC   NC361211  30.481  43.729   5.024
 4791POPC   PO461212  30.632  44.270   5.445
 4791POPC   GL161213  30.741  44.015   5.794
 4791POPC   GL261214  30.881  43.689   5.682
 4791POPC   C1A61215  30.680  44.009   6.244
 4791POPC   D2A61216  30.583  44.187   6.643
 4791POPC   C3A61217  30.408  43.892   6.906
 4791POPC   C4A61218  30.581  43.782   7.268
 4791POPC   C1B61219  31.032  43.494   6.045
 4791POPC   C2B61220  31.046  43.676   6.442
 4791POPC   C3B61221  30.908  43.776   6.833
 4791POPC   C4B61222  31.045  43.510   7.177
 4792POPC   NC361223  30.693  10.072   5.492
 4792POPC   PO461224  30.960   9.512   5.527
 4792POPC   GL161225  30.815   9.729   5.856
 4792POPC   GL261226  30.455   9.721   5.807
 4792POPC   C1A61227  30.968   9.871   6.221
 4792POPC   D2A61228  31.041   9.662   6.577
 4792POPC   C3A61229  31.118   9.825   6.976
 4792POPC   C4A61230  30.817   9.766   7.327
 4792POPC   C1B61231  30.501   9.631   6.254
 4792POPC   C2B61232  30.546   9.679   6.690
 4792POPC   C3B61233  30.386   9.788   7.055
 4792POPC   C4B61234  30.280   9.857   7.488
 4793POPC   NC361235  38.736  39.794   5.483
 4793POPC   PO461236  38.384  40.298   5.454
 4793POPC   GL161237  38.507  40.115   5.853
 4793POPC   GL261238  38.400  39.773   5.884
 4793POPC   C1A61239  38.574  40.052   6.307
 4793POPC   D2A61240  38.399  40.292   6.676
 4793POPC   C3A61241  38.678  40.242   6.991
 4793POPC   C4A61242  38.737  39.856   7.186
 4793POPC   C1B61243  38.180  39.732   6.282
 4793POPC   C2B61244  38.258  39.760   6.750
 4793POPC   C3B61245  38.232  39.994   7.139
 4793POPC   C4B61246  38.012  40.141   7.510
 4794POPC   NC361247   8.834  32.441   5.484
 4794POPC   PO461248   9.311  32.778   5.640
 4794POPC   GL161249   9.103  32.493   5.938
 4794POPC   GL261250   8.926  32.165   5.896
 4794POPC   C1A61251   9.020  32.372   6.355
 4794POPC   D2A61252   8.752  32.368   6.691
 4794POPC   C3A61253   9.036  32.249   6.996
 4794POPC   C4A61254   9.127  32.477   7.365
 4794POPC   C1B61255   8.622  32.071   6.245
 4794POPC   C2B61256   8.611  31.843   6.628
 4794POPC   C3B61257   8.580  31.982   7.014
 4794POPC   C4B61258   8.805  31.988   7.398
 4795POPC   NC361259  26.284  19.082   5.273
 4795POPC   PO461260  25.655  19.322   5.328
 4795POPC   GL161261  25.867  19.187   5.683
 4795POPC   GL261262  26.200  19.282   5.742
 4795POPC   C1A61263  25.948  18.935   6.036
 4795POPC   D2A61264  25.785  18.914   6.435
 4795POPC   C3A61265  26.010  18.979   6.802
 4795POPC   C4A61266  26.156  18.790   7.178
 4795POPC   C1B61267  26.353  19.264   6.149
 4795POPC   C2B61268  26.358  19.378   6.578
 4795POPC   C3B61269  26.444  19.218   6.975
 4795POPC   C4B61270  26.329  19.439   7.339
 4796POPC   NC361271  43.040  31.460   5.246
 4796POPC   PO461272  43.248  31.978   5.528
 4796POPC   GL161273  43.253  31.559   5.725
 4796POPC   GL261274  43.572  31.495   5.832
 4796POPC   C1A61275  43.194  31.413   6.159
 4796POPC   D2A61276  43.062  31.214   6.536
 4796POPC   C3A61277  43.164  31.439   6.900
 4796POPC   C4A61278  42.882  31.625   7.175
 4796POPC   C1B61279  43.498  31.835   6.152
 4796POPC   C2B61280  43.341  31.855   6.580
 4796POPC   C3B61281  43.582  31.754   6.946
 4796POPC   C4B61282  43.620  31.639   7.353
 4797POPC   NC361283  20.398  42.452   5.236
 4797POPC   PO461284  20.641  41.891   5.449
 4797POPC   GL161285  20.689  42.327   5.678
 4797POPC   GL261286  20.405  42.215   5.794
 4797POPC   C1A61287  20.674  42.496   6.169
 4797POPC   D2A61288  20.957  42.418   6.540
 4797POPC   C3A61289  20.792  42.257   6.935
 4797POPC   C4A61290  20.739  42.410   7.321
 4797POPC   C1B61291  20.724  42.015   6.088
 4797POPC   C2B61292  20.677  41.983   6.511
 4797POPC   C3B61293  20.389  41.894   6.852
 4797POPC   C4B61294  20.464  41.983   7.262
 4798POPC   NC361295  11.604  19.200   5.312
 4798POPC   PO461296  11.003  18.968   5.464
 4798POPC   GL161297  11.278  19.119   5.774
 4798POPC   GL261298  11.476  19.426   5.743
 4798POPC   C1A61299  11.429  18.925   6.140
 4798POPC   D2A61300  11.505  18.852   6.568
 4798POPC   C3A61301  11.188  18.926   6.826
 4798POPC   C4A61302  11.183  18.915   7.235
 4798POPC   C1B61303  11.618  19.432   6.170
 4798POPC   C2B61304  11.450  19.368   6.578
 4798POPC   C3B61305  11.610  19.234   6.954
 4798POPC   C4B61306  11.470  19.363   7.359
 4799POPC   NC361307  35.166  37.537   5.391
 4799POPC   PO461308  35.659  37.966   5.437
 4799POPC   GL161309  35.393  37.761   5.838
 4799POPC   GL261310  35.103  37.519   5.879
 4799POPC   C1A61311  35.289  38.016   6.247
 4799POPC   D2A61312  35.077  37.940   6.673
 4799POPC   C3A61313  35.305  37.861   7.054
 4799POPC   C4A61314  35.445  37.856   7.490
 4799POPC   C1B61315  35.034  37.603   6.283
 4799POPC   C2B61316  35.199  37.436   6.656
 4799POPC   C3B61317  35.014  37.430   7.042
 4799POPC   C4B61318  35.040  37.573   7.431
 4800POPC   NC361319  36.751  43.112   5.536
 4800POPC   PO461320  36.135  43.264   5.432
 4800POPC   GL161321  36.316  43.151   5.820
 4800POPC   GL261322  36.501  43.435   5.879
 4800POPC   C1A61323  36.200  42.993   6.220
 4800POPC   D2A61324  35.938  43.063   6.579
 4800POPC   C3A61325  36.113  42.991   6.968
 4800POPC   C4A61326  35.985  42.781   7.252
 4800POPC   C1B61327  36.589  43.353   6.296
 4800POPC   C2B61328  36.467  43.163   6.649
 4800POPC   C3B61329  36.488  43.306   7.072
 4800POPC   C4B61330  36.738  43.620   7.236
 4801POPC   NC361331   2.889  19.598   5.190
 4801POPC   PO461332   2.632  20.152   5.399
 4801POPC   GL161333   2.800  19.824   5.659
 4801POPC   GL261334   2.485  19.701   5.764
 4801POPC   C1A61335   2.874  19.756   6.129
 4801POPC   D2A61336   2.729  19.986   6.520
 4801POPC   C3A61337   2.887  19.928   6.921
 4801POPC   C4A61338   2.742  20.128   7.313
 4801POPC   C1B61339   2.362  19.903   6.144
 4801POPC   C2B61340   2.267  19.770   6.549
 4801POPC   C3B61341   2.487  19.542   6.829
 4801POPC   C4B61342   2.616  19.626   7.242
 4802POPC   NC361343  33.195   3.446   5.559
 4802POPC   PO461344  32.784   3.943   5.423
 4802POPC   GL161345  32.878   3.749   5.849
 4802POPC   GL261346  32.775   3.388   5.877
 4802POPC   C1A61347  33.003   3.759   6.303
 4802POPC   D2A61348  33.051   3.479   6.662
 4802POPC   C3A61349  33.262   3.488   7.024
 4802POPC   C4A61350  32.909   3.634   7.264
 4802POPC   C1B61351  33.052   3.255   6.210
 4802POPC   C2B61352  32.980   2.992   6.548
 4802POPC   C3B61353  33.003   3.022   6.990
 4802POPC   C4B61354  32.670   3.128   7.272
 4803POPC   NC361355  40.675   4.383   5.520
 4803POPC   PO461356  41.310   4.466   5.274
 4803POPC   GL161357  41.121   4.488   5.726
 4803POPC   GL261358  41.105   4.156   5.844
 4803POPC   C1A61359  41.072   4.555   6.209
 4803POPC   D2A61360  40.934   4.343   6.613
 4803POPC   C3A61361  40.870   4.480   7.046
 4803POPC   C4A61362  41.057   4.358   7.439
 4803POPC   C1B61363  40.742   4.120   6.152
 4803POPC   C2B61364  40.645   3.930   6.567
 4803POPC   C3B61365  40.474   4.177   6.922
 4803POPC   C4B61366  40.597   4.128   7.338
 4804POPC   NC361367  40.730  42.065   5.146
 4804POPC   PO461368  40.744  42.687   5.462
 4804POPC   GL161369  40.646  42.261   5.665
 4804POPC   GL261370  40.956  42.040   5.722
 4804POPC   C1A61371  40.633  42.109   6.107
 4804POPC   D2A61372  40.737  42.286   6.529
 4804POPC   C3A61373  40.664  42.134   6.928
 4804POPC   C4A61374  40.738  42.341   7.348
 4804POPC   C1B61375  41.123  42.195   6.171
 4804POPC   C2B61376  41.254  42.249   6.595
 4804POPC   C3B61377  41.109  42.387   6.980
 4804POPC   C4B61378  41.169  42.113   7.354
 4805POPC   NC361379  24.452  11.500   5.663
 4805POPC   PO461380  24.257  11.001   5.232
 4805POPC   GL161381  24.376  10.944   5.761
 4805POPC   GL261382  24.308  11.180   6.036
 4805POPC   C1A61383  24.593  10.860   6.247
 4805POPC   D2A61384  24.467  11.066   6.670
 4805POPC   C3A61385  24.750  11.122   7.031
 4805POPC   C4A61386  25.044  11.060   7.394
 4805POPC   C1B61387  24.341  11.469   6.345
 4805POPC   C2B61388  24.545  11.612   6.715
 4805POPC   C3B61389  24.376  11.494   7.094
 4805POPC   C4B61390  24.131  11.128   7.172
 4806POPC   NC361391  11.890  22.131   5.304
 4806POPC   PO461392  12.455  22.367   5.686
 4806POPC   GL161393  12.182  22.139   5.933
 4806POPC   GL261394  12.019  21.863   5.754
 4806POPC   C1A61395  12.123  22.256   6.350
 4806POPC   D2A61396  11.881  22.361   6.683
 4806POPC   C3A61397  12.093  22.249   7.033
 4806POPC   C4A61398  12.075  22.374   7.462
 4806POPC   C1B61399  11.822  21.852   6.179
 4806POPC   C2B61400  11.996  21.824   6.600
 4806POPC   C3B61401  12.083  21.689   7.014
 4806POPC   C4B61402  12.040  21.640   7.447
 4807POPC   NC361403  36.727  44.762   5.505
 4807POPC   PO461404  37.143  44.345   5.597
 4807POPC   GL161405  37.117  44.618   5.899
 4807POPC   GL261406  37.232  44.944   5.799
 4807POPC   C1A61407  36.985  44.467   6.281
 4807POPC   D2A61408  37.085  44.323   6.661
 4807POPC   C3A61409  36.811  44.541   6.887
 4807POPC   C4A61410  36.834  44.510   7.319
 4807POPC   C1B61411  36.970  44.984   6.224
 4807POPC   C2B61412  36.923   0.155   6.662
 4807POPC   C3B61413  37.016  44.965   7.074
 4807POPC   C4B61414  37.320  44.948   7.418
 4808POPC   NC361415  17.084   1.778   5.489
 4808POPC   PO461416  16.531   1.983   5.242
 4808POPC   GL161417  16.663   1.988   5.715
 4808POPC   GL261418  16.344   2.028   5.817
 4808POPC   C1A61419  16.697   1.848   6.189
 4808POPC   D2A61420  16.490   1.817   6.628
 4808POPC   C3A61421  16.733   1.914   7.033
 4808POPC   C4A61422  16.658   1.819   7.503
 4808POPC   C1B61423  16.449   2.315   6.133
 4808POPC   C2B61424  16.280   2.302   6.528
 4808POPC   C3B61425  16.455   2.354   6.936
 4808POPC   C4B61426  16.509   2.268   7.351
 4809POPC   NC361427  40.502  12.442   5.545
 4809POPC   PO461428  41.067  12.815   5.458
 4809POPC   GL161429  40.798  12.735   5.846
 4809POPC   GL261430  40.449  12.838   5.861
 4809POPC   C1A61431  40.705  12.669   6.288
 4809POPC   D2A61432  41.019  12.785   6.597
 4809POPC   C3A61433  40.912  12.914   7.001
 4809POPC   C4A61434  40.607  12.771   7.262
 4809POPC   C1B61435  40.500  13.158   6.155
 4809POPC   C2B61436  40.646  13.149   6.571
 4809POPC   C3B61437  40.435  13.140   6.956
 4809POPC   C4B61438  40.450  13.343   7.352
 4810POPC   NC361439  19.655  10.054   5.356
 4810POPC   PO461440  20.121   9.528   5.238
 4810POPC   GL161441  20.100   9.647   5.714
 4810POPC   GL261442  19.727   9.708   5.738
 4810POPC   C1A61443  20.016   9.827   6.175
 4810POPC   D2A61444  19.754   9.693   6.564
 4810POPC   C3A61445  19.936   9.802   6.986
 4810POPC   C4A61446  19.700   9.669   7.345
 4810POPC   C1B61447  19.500   9.848   6.136
 4810POPC   C2B61448  19.447  10.105   6.527
 4810POPC   C3B61449  19.396   9.880   6.920
 4810POPC   C4B61450  19.403  10.065   7.317
 4811POPC   NC361451  25.078  12.266   5.517
 4811POPC   PO461452  25.649  11.829   5.415
 4811POPC   GL161453  25.329  11.821   5.726
 4811POPC   GL261454  25.392  12.148   5.906
 4811POPC   C1A61455  25.073  11.808   6.113
 4811POPC   D2A61456  25.183  12.044   6.484
 4811POPC   C3A61457  25.103  11.888   6.901
 4811POPC   C4A61458  25.441  11.923   7.191
 4811POPC   C1B61459  25.172  12.481   6.171
 4811POPC   C2B61460  25.235  12.641   6.574
 4811POPC   C3B61461  25.385  12.361   6.885
 4811POPC   C4B61462  25.113  12.302   7.210
 4812POPC   NC361463  19.979  13.259   5.542
 4812POPC   PO461464  19.708  13.872   5.468
 4812POPC   GL161465  19.781  13.670   5.813
 4812POPC   GL261466  19.532  13.431   5.783
 4812POPC   C1A61467  19.945  13.812   6.190
 4812POPC   D2A61468  19.756  14.016   6.532
 4812POPC   C3A61469  19.864  13.827   6.933
 4812POPC   C4A61470  19.995  13.472   7.204
 4812POPC   C1B61471  19.691  13.286   6.164
 4812POPC   C2B61472  19.722  13.501   6.559
 4812POPC   C3B61473  19.536  13.414   6.953
 4812POPC   C4B61474  19.530  13.225   7.335
 4813POPC   NC361475  37.114  36.294   5.353
 4813POPC   PO461476  36.651  36.374   5.771
 4813POPC   GL161477  37.095  36.313   5.896
 4813POPC   GL261478  37.156  35.960   5.780
 4813POPC   C1A61479  37.118  36.235   6.357
 4813POPC   D2A61480  36.719  36.131   6.609
 4813POPC   C3A61481  36.757  36.246   7.048
 4813POPC   C4A61482  37.144  36.212   7.244
 4813POPC   C1B61483  37.163  35.754   6.210
 4813POPC   C2B61484  37.091  35.771   6.688
 4813POPC   C3B61485  37.336  35.755   7.071
 4813POPC   C4B61486  37.279  35.769   7.547
 4814POPC   NC361487  11.537  44.262   5.670
 4814POPC   PO461488  11.087  43.759   5.438
 4814POPC   GL161489  11.202  43.876   5.858
 4814POPC   GL261490  11.495  43.671   5.795
 4814POPC   C1A61491  11.168  44.063   6.294
 4814POPC   D2A61492  11.205  43.867   6.701
 4814POPC   C3A61493  11.145  44.106   7.061
 4814POPC   C4A61494  11.263  44.146   7.493
 4814POPC   C1B61495  11.593  43.775   6.222
 4814POPC   C2B61496  11.832  43.750   6.592
 4814POPC   C3B61497  11.728  43.576   6.939
 4814POPC   C4B61498  11.493  43.753   7.273
 4815POPC   NC361499  37.284  19.081   5.348
 4815POPC   PO461500  36.685  19.221   5.389
 4815POPC   GL161501  36.738  18.834   5.676
 4815POPC   GL261502  37.077  18.805   5.771
 4815POPC   C1A61503  36.686  18.679   6.130
 4815POPC   D2A61504  36.468  18.822   6.529
 4815POPC   C3A61505  36.707  18.730   6.881
 4815POPC   C4A61506  36.978  19.009   7.107
 4815POPC   C1B61507  36.975  19.104   6.113
 4815POPC   C2B61508  37.035  19.089   6.573
 4815POPC   C3B61509  37.169  19.424   6.869
 4815POPC   C4B61510  37.357  19.359   7.277
 4816POPC   NC361511  39.392   0.696   5.478
 4816POPC   PO461512  38.793   0.307   5.449
 4816POPC   GL161513  39.058   0.478   5.809
 4816POPC   GL261514  38.761   0.426   5.945
 4816POPC   C1A61515  39.374   0.596   6.204
 4816POPC   D2A61516  39.630   0.613   6.656
 4816POPC   C3A61517  39.358   0.724   7.011
 4816POPC   C4A61518  39.345   0.593   7.457
 4816POPC   C1B61519  38.898   0.475   6.389
 4816POPC   C2B61520  39.254   0.297   6.648
 4816POPC   C3B61521  39.338   0.216   7.093
 4816POPC   C4B61522  38.999   0.121   7.388
 4817POPC   NC361523  33.456  38.310   5.492
 4817POPC   PO461524  34.094  38.582   5.465
 4817POPC   GL161525  33.858  38.376   5.804
 4817POPC   GL261526  33.561  38.610   5.895
 4817POPC   C1A61527  33.906  38.386   6.252
 4817POPC   D2A61528  33.774  38.634   6.615
 4817POPC   C3A61529  33.976  38.410   6.967
 4817POPC   C4A61530  33.958  38.679   7.312
 4817POPC   C1B61531  33.400  38.444   6.285
 4817POPC   C2B61532  33.467  38.249   6.686
 4817POPC   C3B61533  33.493  38.512   7.066
 4817POPC   C4B61534  33.469  38.168   7.332
 4818POPC   NC361535   3.638  43.277   5.148
 4818POPC   PO461536   3.860  42.838   5.572
 4818POPC   GL161537   3.564  43.008   5.900
 4818POPC   GL261538   3.394  43.312   5.943
 4818POPC   C1A61539   3.744  43.283   6.296
 4818POPC   D2A61540   3.821  43.059   6.672
 4818POPC   C3A61541   3.715  43.240   7.030
 4818POPC   C4A61542   3.701  43.196   7.458
 4818POPC   C1B61543   3.334  42.991   6.335
 4818POPC   C2B61544   3.316  43.029   6.787
 4818POPC   C3B61545   3.452  42.811   7.163
 4818POPC   C4B61546   3.162  42.761   7.484
 4819POPC   NC361547  18.649  25.464   5.414
 4819POPC   PO461548  18.399  24.991   5.011
 4819POPC   GL161549  18.355  25.049   5.552
 4819POPC   GL261550  18.153  25.342   5.700
 4819POPC   C1A61551  18.421  25.047   6.065
 4819POPC   D2A61552  18.607  24.977   6.537
 4819POPC   C3A61553  18.515  25.229   6.939
 4819POPC   C4A61554  18.281  25.457   7.256
 4819POPC   C1B61555  18.138  25.499   6.135
 4819POPC   C2B61556  18.167  25.392   6.583
 4819POPC   C3B61557  17.849  25.316   6.901
 4819POPC   C4B61558  17.950  25.062   7.257
 4820POPC   NC361559  36.936  37.437   5.183
 4820POPC   PO461560  37.036  36.768   5.348
 4820POPC   GL161561  37.057  36.907   5.773
 4820POPC   GL261562  37.083  37.265   5.730
 4820POPC   C1A61563  37.091  36.772   6.220
 4820POPC   D2A61564  36.887  36.615   6.608
 4820POPC   C3A61565  37.054  36.675   6.997
 4820POPC   C4A61566  36.782  36.835   7.272
 4820POPC   C1B61567  36.843  37.224   6.125
 4820POPC   C2B61568  36.771  37.106   6.555
 4820POPC   C3B61569  36.927  37.190   6.959
 4820POPC   C4B61570  36.782  37.396   7.347
 4821POPC   NC361571   7.789  34.315   5.157
 4821POPC   PO461572   8.278  34.665   5.078
 4821POPC   GL161573   7.944  34.443   5.620
 4821POPC   GL261574   7.980  34.709   5.885
 4821POPC   C1A61575   8.126  34.356   6.166
 4821POPC   D2A61576   8.158  34.129   6.548
 4821POPC   C3A61577   8.229  34.411   6.879
 4821POPC   C4A61578   7.953  34.323   7.190
 4821POPC   C1B61579   8.326  34.847   6.157
 4821POPC   C2B61580   8.475  34.832   6.561
 4821POPC   C3B61581   8.398  34.919   6.965
 4821POPC   C4B61582   8.288  34.717   7.294
 4822POPC   NC361583  38.908   2.247   5.494
 4822POPC   PO461584  39.328   1.800   5.287
 4822POPC   GL161585  39.134   1.851   5.706
 4822POPC   GL261586  39.363   2.084   5.872
 4822POPC   C1A61587  39.020   1.748   6.126
 4822POPC   D2A61588  39.231   1.955   6.486
 4822POPC   C3A61589  39.124   1.767   6.882
 4822POPC   C4A61590  39.023   1.933   7.276
 4822POPC   C1B61591  39.586   2.311   6.212
 4822POPC   C2B61592  39.579   2.404   6.671
 4822POPC   C3B61593  39.465   2.119   7.003
 4822POPC   C4B61594  39.491   2.022   7.448
 4823POPC   NC361595  42.688  10.127   5.623
 4823POPC   PO461596  42.244   9.628   5.438
 4823POPC   GL161597  42.395   9.682   5.842
 4823POPC   GL261598  42.238   9.991   5.820
 4823POPC   C1A61599  42.479   9.680   6.300
 4823POPC   D2A61600  42.575   9.857   6.725
 4823POPC   C3A61601  42.450   9.659   7.141
 4823POPC   C4A61602  42.412   9.602   7.614
 4823POPC   C1B61603  42.188  10.093   6.225
 4823POPC   C2B61604  42.192  10.211   6.645
 4823POPC   C3B61605  42.234  10.128   7.057
 4823POPC   C4B61606  42.411  10.076   7.442
 4824POPC   NC361607  33.086  30.455   5.526
 4824POPC   PO461608  32.554  30.938   5.392
 4824POPC   GL161609  32.821  30.866   5.824
 4824POPC   GL261610  32.751  30.563   6.123
 4824POPC   C1A61611  33.177  30.835   6.135
 4824POPC   D2A61612  33.253  30.923   6.589
 4824POPC   C3A61613  32.907  30.804   6.869
 4824POPC   C4A61614  32.964  30.623   7.272
 4824POPC   C1B61615  33.170  30.313   6.186
 4824POPC   C2B61616  33.407  30.261   6.565
 4824POPC   C3B61617  33.312  30.465   6.919
 4824POPC   C4B61618  33.472  30.435   7.315
 4825POPC   NC361619   0.746  33.003   5.400
 4825POPC   PO461620   0.211  33.407   5.641
 4825POPC   GL161621   0.480  33.250   5.923
 4825POPC   GL261622   0.567  32.941   5.867
 4825POPC   C1A61623   0.645  33.253   6.331
 4825POPC   D2A61624   0.732  33.254   6.769
 4825POPC   C3A61625   0.400  33.249   7.064
 4825POPC   C4A61626   0.439  33.127   7.482
 4825POPC   C1B61627   0.337  32.757   6.184
 4825POPC   C2B61628   0.348  32.939   6.609
 4825POPC   C3B61629   0.334  32.753   7.008
 4825POPC   C4B61630   0.024  32.815   7.344
 4826POPC   NC361631  25.049  25.562   5.363
 4826POPC   PO461632  25.573  26.028   5.357
 4826POPC   GL161633  25.450  26.164   5.774
 4826POPC   GL261634  25.109  26.120   5.784
 4826POPC   C1A61635  25.435  25.967   6.188
 4826POPC   D2A61636  25.180  26.035   6.547
 4826POPC   C3A61637  25.330  25.941   6.954
 4826POPC   C4A61638  25.130  25.652   7.244
 4826POPC   C1B61639  24.910  26.299   6.141
 4826POPC   C2B61640  24.812  26.392   6.536
 4826POPC   C3B61641  25.013  26.385   6.926
 4826POPC   C4B61642  25.016  26.144   7.321
 4827POPC   NC361643   7.130  16.870   5.375
 4827POPC   PO461644   7.721  16.644   5.237
 4827POPC   GL161645   7.569  16.521   5.684
 4827POPC   GL261646   7.546  16.799   5.896
 4827POPC   C1A61647   7.511  16.379   6.148
 4827POPC   D2A61648   7.730  16.391   6.556
 4827POPC   C3A61649   7.548  16.541   6.957
 4827POPC   C4A61650   7.173  16.507   7.209
 4827POPC   C1B61651   7.525  17.021   6.256
 4827POPC   C2B61652   7.569  16.992   6.677
 4827POPC   C3B61653   7.228  16.953   6.944
 4827POPC   C4B61654   7.409  16.949   7.319
 4828POPC   NC361655  38.489  24.023   5.427
 4828POPC   PO461656  38.285  23.467   5.157
 4828POPC   GL161657  38.246  23.638   5.681
 4828POPC   GL261658  38.559  23.700   5.850
 4828POPC   C1A61659  38.176  23.811   6.170
 4828POPC   D2A61660  38.151  23.678   6.644
 4828POPC   C3A61661  38.114  23.994   7.016
 4828POPC   C4A61662  38.202  23.931   7.504
 4828POPC   C1B61663  38.661  23.644   6.303
 4828POPC   C2B61664  38.646  23.522   6.733
 4828POPC   C3B61665  38.841  23.715   7.092
 4828POPC   C4B61666  38.614  24.075   7.237
 4829POPC   NC361667   1.346   7.505   5.201
 4829POPC   PO461668   0.658   7.371   5.267
 4829POPC   GL161669   0.980   7.455   5.635
 4829POPC   GL261670   0.928   7.229   5.898
 4829POPC   C1A61671   1.233   7.593   6.057
 4829POPC   D2A61672   1.388   7.729   6.496
 4829POPC   C3A61673   1.470   7.579   6.929
 4829POPC   C4A61674   1.208   7.565   7.284
 4829POPC   C1B61675   0.954   7.253   6.345
 4829POPC   C2B61676   1.157   7.229   6.727
 4829POPC   C3B61677   0.856   7.289   7.046
 4829POPC   C4B61678   0.870   7.196   7.451
 4830POPC   NC361679  42.877  10.826   5.422
 4830POPC   PO461680  43.213  10.228   5.330
 4830POPC   GL161681  43.184  10.381   5.739
 4830POPC   GL261682  43.234  10.760   5.774
 4830POPC   C1A61683  43.177  10.215   6.160
 4830POPC   D2A61684  43.419  10.268   6.521
 4830POPC   C3A61685  43.204  10.373   6.886
 4830POPC   C4A61686  43.218  10.137   7.251
 4830POPC   C1B61687  42.983  10.901   6.132
 4830POPC   C2B61688  43.024  10.762   6.550
 4830POPC   C3B61689  42.864  10.792   6.945
 4830POPC   C4B61690  43.074  10.675   7.269
 4831POPC   NC361691  41.010   3.539   5.321
 4831POPC   PO461692  40.508   3.918   5.513
 4831POPC   GL161693  40.856   3.713   5.793
 4831POPC   GL261694  40.812   3.334   5.765
 4831POPC   C1A61695  41.107   3.784   6.223
 4831POPC   D2A61696  41.256   3.926   6.657
 4831POPC   C3A61697  40.959   3.937   7.006
 4831POPC   C4A61698  40.817   3.584   7.279
 4831POPC   C1B61699  40.672   3.465   6.192
 4831POPC   C2B61700  40.856   3.448   6.586
 4831POPC   C3B61701  40.779   3.179   6.952
 4831POPC   C4B61702  40.397   3.202   7.220
 4832POPC   NC361703  33.302  16.155   5.533
 4832POPC   PO461704  32.878  15.677   5.526
 4832POPC   GL161705  32.997  15.918   5.871
 4832POPC   GL261706  33.285  15.754   5.947
 4832POPC   C1A61707  33.076  16.157   6.242
 4832POPC   D2A61708  32.933  16.018   6.638
 4832POPC   C3A61709  33.103  16.238   6.983
 4832POPC   C4A61710  33.013  16.215   7.387
 4832POPC   C1B61711  33.180  15.601   6.371
 4832POPC   C2B61712  33.027  15.526   6.786
 4832POPC   C3B61713  32.990  15.746   7.155
 4832POPC   C4B61714  33.144  15.751   7.605
 4833POPC   NC361715  33.325   8.631   5.478
 4833POPC   PO461716  32.914   9.130   5.271
 4833POPC   GL161717  32.947   9.141   5.732
 4833POPC   GL261718  33.133   8.899   5.903
 4833POPC   C1A61719  32.927   9.305   6.174
 4833POPC   D2A61720  32.992   9.053   6.584
 4833POPC   C3A61721  32.848   9.212   6.944
 4833POPC   C4A61722  33.049   9.356   7.277
 4833POPC   C1B61723  33.378   9.082   6.260
 4833POPC   C2B61724  33.577   9.089   6.664
 4833POPC   C3B61725  33.375   9.028   7.075
 4833POPC   C4B61726  33.549   9.303   7.428
 4834POPC   NC361727   4.673   9.484   5.511
 4834POPC   PO461728   5.053   9.946   5.418
 4834POPC   GL161729   5.125   9.667   5.787
 4834POPC   GL261730   5.470   9.576   5.777
 4834POPC   C1A61731   5.003   9.584   6.243
 4834POPC   D2A61732   4.937   9.887   6.642
 4834POPC   C3A61733   4.853   9.750   7.108
 4834POPC   C4A61734   4.616   9.653   7.517
 4834POPC   C1B61735   5.518   9.426   6.193
 4834POPC   C2B61736   5.373   9.553   6.604
 4834POPC   C3B61737   5.332   9.768   6.977
 4834POPC   C4B61738   5.480   9.617   7.336
 4835POPC   NC361739  28.021   7.975   5.637
 4835POPC   PO461740  28.672   7.956   5.263
 4835POPC   GL161741  28.553   8.138   5.730
 4835POPC   GL261742  28.239   8.366   5.861
 4835POPC   C1A61743  28.527   8.106   6.211
 4835POPC   D2A61744  28.203   7.952   6.515
 4835POPC   C3A61745  28.248   8.007   6.957
 4835POPC   C4A61746  28.635   8.088   7.176
 4835POPC   C1B61747  28.142   8.477   6.264
 4835POPC   C2B61748  28.471   8.529   6.549
 4835POPC   C3B61749  28.413   8.510   6.973
 4835POPC   C4B61750  27.992   8.412   7.168
 4836POPC   NC361751  26.666  40.076   5.465
 4836POPC   PO461752  27.234  39.701   5.510
 4836POPC   GL161753  26.896  39.838   5.860
 4836POPC   GL261754  26.858  40.195   5.928
 4836POPC   C1A61755  26.603  39.833   6.193
 4836POPC   D2A61756  26.655  40.057   6.566
 4836POPC   C3A61757  26.786  39.813   6.957
 4836POPC   C4A61758  26.806  39.989   7.383
 4836POPC   C1B61759  27.078  40.346   6.276
 4836POPC   C2B61760  27.114  40.200   6.706
 4836POPC   C3B61761  27.180  40.175   7.121
 4836POPC   C4B61762  27.443  40.441   7.330
 4837POPC   NC361763  21.928  29.894   5.466
 4837POPC   PO461764  22.572  30.119   5.460
 4837POPC   GL161765  22.441  29.902   5.849
 4837POPC   GL261766  22.081  29.855   5.946
 4837POPC   C1A61767  22.438  30.015   6.306
 4837POPC   D2A61768  22.156  29.998   6.681
 4837POPC   C3A61769  22.316  30.187   7.080
 4837POPC   C4A61770  22.280  30.197   7.537
 4837POPC   C1B61771  22.163  29.586   6.295
 4837POPC   C2B61772  22.265  29.446   6.701
 4837POPC   C3B61773  21.989  29.490   7.046
 4837POPC   C4B61774  22.013  29.818   7.321
 4838POPC   NC361775  27.926  17.203   5.387
 4838POPC   PO461776  28.281  17.801   5.423
 4838POPC   GL161777  28.153  17.515   5.792
 4838POPC   GL261778  28.294  17.169   5.792
 4838POPC   C1A61779  28.379  17.472   6.206
 4838POPC   D2A61780  28.662  17.723   6.461
 4838POPC   C3A61781  28.559  17.683   6.878
 4838POPC   C4A61782  28.586  17.459   7.242
 4838POPC   C1B61783  28.043  17.087   6.181
 4838POPC   C2B61784  27.960  17.366   6.557
 4838POPC   C3B61785  28.110  17.363   6.997
 4838POPC   C4B61786  28.214  17.120   7.363
 4839POPC   NC361787  13.730   7.021   5.385
 4839POPC   PO461788  13.820   6.227   5.424
 4839POPC   GL161789  13.831   6.413   5.840
 4839POPC   GL261790  13.643   6.720   5.802
 4839POPC   C1A61791  13.734   6.320   6.283
 4839POPC   D2A61792  13.517   6.261   6.688
 4839POPC   C3A61793  13.557   6.493   7.090
 4839POPC   C4A61794  13.893   6.507   7.355
 4839POPC   C1B61795  13.626   6.837   6.242
 4839POPC   C2B61796  13.810   6.714   6.638
 4839POPC   C3B61797  13.847   6.897   7.023
 4839POPC   C4B61798  13.479   6.975   7.294
 4840POPC   NC361799  34.779   8.013   5.617
 4840POPC   PO461800  35.212   8.096   5.134
 4840POPC   GL161801  35.222   8.280   5.681
 4840POPC   GL261802  34.977   8.282   5.981
 4840POPC   C1A61803  35.452   8.303   6.179
 4840POPC   D2A61804  35.423   8.334   6.695
 4840POPC   C3A61805  35.682   8.316   7.125
 4840POPC   C4A61806  35.639   8.488   7.581
 4840POPC   C1B61807  35.035   8.041   6.347
 4840POPC   C2B61808  34.924   8.227   6.729
 4840POPC   C3B61809  35.123   8.331   7.131
 4840POPC   C4B61810  34.948   8.162   7.527
 4841POPC   NC361811  26.407   0.152   5.252
 4841POPC   PO461812  25.972  44.609   5.340
 4841POPC   GL161813  26.184  44.616   5.748
 4841POPC   GL261814  26.388  44.925   5.713
 4841POPC   C1A61815  26.250  44.431   6.180
 4841POPC   D2A61816  26.335  44.624   6.601
 4841POPC   C3A61817  26.019  44.800   6.872
 4841POPC   C4A61818  25.771  44.654   7.230
 4841POPC   C1B61819  26.518  44.877   6.146
 4841POPC   C2B61820  26.469   0.116   6.521
 4841POPC   C3B61821  26.572  44.994   6.912
 4841POPC   C4B61822  26.358  44.932   7.255
 4842POPC   NC361823  23.500  42.648   5.703
 4842POPC   PO461824  23.646  43.191   5.270
 4842POPC   GL161825  23.710  43.349   5.824
 4842POPC   GL261826  23.808  43.011   5.939
 4842POPC   C1A61827  23.734  43.441   6.251
 4842POPC   D2A61828  23.584  43.174   6.592
 4842POPC   C3A61829  23.607  43.221   7.036
 4842POPC   C4A61830  23.560  42.823   7.217
 4842POPC   C1B61831  24.130  43.132   6.210
 4842POPC   C2B61832  24.088  43.269   6.622
 4842POPC   C3B61833  24.049  43.013   6.933
 4842POPC   C4B61834  24.067  42.950   7.305
 4843POPC   NC361835  20.217  25.363   5.218
 4843POPC   PO461836  20.882  25.123   5.314
 4843POPC   GL161837  20.608  25.266   5.667
 4843POPC   GL261838  20.673  24.993   5.887
 4843POPC   C1A61839  20.374  25.358   6.102
 4843POPC   D2A61840  20.382  25.427   6.569
 4843POPC   C3A61841  20.338  25.129   6.943
 4843POPC   C4A61842  20.401  25.360   7.331
 4843POPC   C1B61843  20.891  25.387   6.101
 4843POPC   C2B61844  20.994  25.535   6.531
 4843POPC   C3B61845  20.781  25.491   6.938
 4843POPC   C4B61846  20.808  25.069   7.134
 4844POPC   NC361847  32.160  39.489   5.440
 4844POPC   PO461848  32.491  38.822   5.470
 4844POPC   GL161849  32.380  39.131   5.793
 4844POPC   GL261850  32.507  39.482   5.821
 4844POPC   C1A61851  32.150  39.216   6.184
 4844POPC   D2A61852  32.211  39.374   6.618
 4844POPC   C3A61853  32.379  39.097   6.905
 4844POPC   C4A61854  32.171  39.000   7.259
 4844POPC   C1B61855  32.532  39.579   6.272
 4844POPC   C2B61856  32.560  39.768   6.726
 4844POPC   C3B61857  32.531  39.816   7.220
 4844POPC   C4B61858  32.449  39.713   7.726
 4845POPC   NC361859  42.709  17.817   5.345
 4845POPC   PO461860  42.112  17.534   5.452
 4845POPC   GL161861  42.428  17.539   5.794
 4845POPC   GL261862  42.538  17.193   5.929
 4845POPC   C1A61863  42.456  17.641   6.253
 4845POPC   D2A61864  42.650  17.595   6.693
 4845POPC   C3A61865  42.360  17.803   6.994
 4845POPC   C4A61866  41.963  17.625   7.159
 4845POPC   C1B61867  42.100  17.265   6.083
 4845POPC   C2B61868  41.930  17.509   6.422
 4845POPC   C3B61869  42.169  17.371   6.781
 4845POPC   C4B61870  42.152  17.123   7.174
 4846POPC   NC361871   6.566  37.117   5.613
 4846POPC   PO461872   5.969  36.970   5.375
 4846POPC   GL161873   5.983  36.876   5.818
 4846POPC   GL261874   6.123  37.160   5.947
 4846POPC   C1A61875   5.809  36.878   6.242
 4846POPC   D2A61876   5.638  37.123   6.596
 4846POPC   C3A61877   5.792  36.931   6.997
 4846POPC   C4A61878   5.772  36.521   7.165
 4846POPC   C1B61879   6.233  37.416   6.317
 4846POPC   C2B61880   6.141  37.233   6.723
 4846POPC   C3B61881   6.168  37.254   7.158
 4846POPC   C4B61882   6.447  37.066   7.454
 4847POPC   NC361883   9.659  15.394   5.446
 4847POPC   PO461884   9.719  14.747   5.512
 4847POPC   GL161885   9.891  15.062   5.812
 4847POPC   GL261886   9.557  15.141   5.879
 4847POPC   C1A61887  10.052  15.397   6.146
 4847POPC   D2A61888  10.089  15.569   6.590
 4847POPC   C3A61889   9.972  15.202   6.857
 4847POPC   C4A61890   9.819  14.964   7.202
 4847POPC   C1B61891   9.548  15.520   6.116
 4847POPC   C2B61892   9.630  15.342   6.502
 4847POPC   C3B61893   9.429  15.248   6.878
 4847POPC   C4B61894   9.511  15.350   7.296
 4848POPC   NC361895  22.337  35.841   5.516
 4848POPC   PO461896  21.897  35.299   5.299
 4848POPC   GL161897  22.101  35.391   5.711
 4848POPC   GL261898  22.447  35.245   5.743
 4848POPC   C1A61899  22.138  35.548   6.155
 4848POPC   D2A61900  22.445  35.529   6.521
 4848POPC   C3A61901  22.266  35.497   6.949
 4848POPC   C4A61902  22.132  35.377   7.347
 4848POPC   C1B61903  22.355  35.082   6.194
 4848POPC   C2B61904  22.282  35.061   6.661
 4848POPC   C3B61905  22.416  35.011   7.102
 4848POPC   C4B61906  22.409  34.891   7.563
 4849POPC   NC361907  24.988  14.292   5.365
 4849POPC   PO461908  25.466  14.698   5.470
 4849POPC   GL161909  25.507  14.320   5.785
 4849POPC   GL261910  25.171  14.391   5.915
 4849POPC   C1A61911  25.451  14.100   6.247
 4849POPC   D2A61912  25.188  14.349   6.603
 4849POPC   C3A61913  25.233  14.231   7.033
 4849POPC   C4A61914  25.603  14.005   6.990
 4849POPC   C1B61915  25.484  14.595   6.224
 4849POPC   C2B61916  25.717  14.412   6.605
 4849POPC   C3B61917  25.665  14.529   7.043
 4849POPC   C4B61918  25.435  14.914   7.220
 4850POPC   NC361919  42.690  21.564   5.542
 4850POPC   PO461920  42.153  21.066   5.545
 4850POPC   GL161921  42.496  21.202   5.831
 4850POPC   GL261922  42.421  21.549   5.978
 4850POPC   C1A61923  42.711  21.254   6.236
 4850POPC   D2A61924  42.571  21.494   6.585
 4850POPC   C3A61925  42.446  21.288   6.947
 4850POPC   C4A61926  42.139  21.075   7.167
 4850POPC   C1B61927  42.073  21.591   6.254
 4850POPC   C2B61928  42.008  21.469   6.686
 4850POPC   C3B61929  42.107  21.651   7.062
 4850POPC   C4B61930  42.263  21.690   7.431
 4851POPC   NC361931   9.634  41.019   5.343
 4851POPC   PO461932   9.940  40.502   5.533
 4851POPC   GL161933   9.718  40.696   5.875
 4851POPC   GL261934   9.526  40.995   5.845
 4851POPC   C1A61935   9.666  40.762   6.330
 4851POPC   D2A61936   9.739  40.573   6.714
 4851POPC   C3A61937   9.799  40.857   7.056
 4851POPC   C4A61938   9.927  40.746   7.496
 4851POPC   C1B61939   9.508  41.247   6.239
 4851POPC   C2B61940   9.483  41.182   6.687
 4851POPC   C3B61941   9.415  41.189   7.109
 4851POPC   C4B61942   9.428  40.865   7.413
 4852POPC   NC361943  44.208   7.301   5.516
 4852POPC   PO461944  44.910   7.470   5.434
 4852POPC   GL161945  44.801   7.481   5.894
 4852POPC   GL261946  44.501   7.532   5.859
 4852POPC   C1A61947  44.783   7.323   6.323
 4852POPC   D2A61948  44.623   7.102   6.720
 4852POPC   C3A61949  44.648   7.345   7.112
 4852POPC   C4A61950  44.878   7.609   7.374
 4852POPC   C1B61951  44.299   7.472   6.247
 4852POPC   C2B61952  44.425   7.590   6.664
 4852POPC   C3B61953  44.185   7.541   7.032
 4852POPC   C4B61954  44.155   7.181   7.311
 4853POPC   NC361955  42.447   5.425   5.295
 4853POPC   PO461956  42.687   4.786   5.236
 4853POPC   GL161957  42.508   4.993   5.601
 4853POPC   GL261958  42.687   5.301   5.712
 4853POPC   C1A61959  42.422   5.003   6.049
 4853POPC   D2A61960  42.385   5.187   6.470
 4853POPC   C3A61961  42.409   4.893   6.838
 4853POPC   C4A61962  42.226   4.928   7.226
 4853POPC   C1B61963  42.756   5.392   6.124
 4853POPC   C2B61964  42.868   5.446   6.540
 4853POPC   C3B61965  42.695   5.331   6.935
 4853POPC   C4B61966  42.675   5.113   7.315
 4854POPC   NC361967  44.890  10.513   5.346
 4854POPC   PO461968  44.352  10.462   5.725
 4854POPC   GL161969  44.734  10.345   5.839
 4854POPC   GL261970  44.906  10.695   5.834
 4854POPC   C1A61971  44.693  10.294   6.299
 4854POPC   D2A61972  44.668  10.609   6.630
 4854POPC   C3A61973  44.615  10.464   7.046
 4854POPC   C4A61974  44.817  10.684   7.340
 4854POPC   C1B61975  44.622  10.903   6.151
 4854POPC   C2B61976  44.455  11.084   6.549
 4854POPC   C3B61977  44.512  10.960   6.991
 4854POPC   C4B61978  44.220  10.908   7.323
 4855POPC   NC361979   4.648  43.882   5.536
 4855POPC   PO461980   3.960  43.813   5.561
 4855POPC   GL161981   4.243  43.607   5.868
 4855POPC   GL261982   4.628  43.473   5.825
 4855POPC   C1A61983   4.182  43.740   6.313
 4855POPC   D2A61984   4.353  44.098   6.576
 4855POPC   C3A61985   4.435  44.058   7.023
 4855POPC   C4A61986   4.124  44.045   7.379
 4855POPC   C1B61987   4.677  43.733   6.195
 4855POPC   C2B61988   4.594  43.629   6.627
 4855POPC   C3B61989   4.616  43.502   7.042
 4855POPC   C4B61990   4.488  43.713   7.400
 4856POPC   NC361991  43.472  12.912   5.483
 4856POPC   PO461992  44.054  12.617   5.281
 4856POPC   GL161993  43.927  12.762   5.691
 4856POPC   GL261994  43.910  13.135   5.676
 4856POPC   C1A61995  43.812  12.711   6.132
 4856POPC   D2A61996  43.937  12.552   6.539
 4856POPC   C3A61997  43.940  12.803   6.910
 4856POPC   C4A61998  44.125  12.755   7.295
 4856POPC   C1B61999  43.790  13.230   6.109
 4856POPC   C2B62000  43.935  13.128   6.511
 4856POPC   C3B62001  44.039  13.303   6.918
 4856POPC   C4B62002  43.863  13.223   7.326
 4857POPC   NC362003  14.550  24.824   5.248
 4857POPC   PO462004  14.305  24.156   5.400
 4857POPC   GL162005  14.301  24.324   5.793
 4857POPC   GL262006  14.631  24.320   5.837
 4857POPC   C1A62007  14.297  24.253   6.255
 4857POPC   D2A62008  14.450  24.233   6.686
 4857POPC   C3A62009  14.457  24.534   7.042
 4857POPC   C4A62010  14.402  24.456   7.482
 4857POPC   C1B62011  14.663  24.626   6.188
 4857POPC   C2B62012  14.601  24.832   6.610
 4857POPC   C3B62013  14.744  24.991   7.015
 4857POPC   C4B62014  14.762  24.829   7.420
 4858POPC   NC362015  22.948  41.989   5.418
 4858POPC   PO462016  23.148  42.654   5.371
 4858POPC   GL162017  23.035  42.463   5.784
 4858POPC   GL262018  22.823  42.207   5.886
 4858POPC   C1A62019  22.978  42.553   6.239
 4858POPC   D2A62020  22.903  42.340   6.633
 4858POPC   C3A62021  23.217  42.473   6.936
 4858POPC   C4A62022  23.137  42.544   7.350
 4858POPC   C1B62023  23.091  42.044   6.232
 4858POPC   C2B62024  23.197  41.931   6.656
 4858POPC   C3B62025  23.137  41.990   7.087
 4858POPC   C4B62026  22.944  41.772   7.416
 4859POPC   NC362027  20.878  43.216   5.439
 4859POPC   PO462028  21.472  43.386   5.269
 4859POPC   GL162029  21.413  43.227   5.727
 4859POPC   GL262030  21.180  42.951   5.749
 4859POPC   C1A62031  21.313  43.258   6.217
 4859POPC   D2A62032  21.209  43.297   6.682
 4859POPC   C3A62033  21.288  43.189   7.135
 4859POPC   C4A62034  21.372  43.153   7.613
 4859POPC   C1B62035  21.048  42.819   6.114
 4859POPC   C2B62036  20.923  42.922   6.507
 4859POPC   C3B62037  21.001  42.817   6.920
 4859POPC   C4B62038  21.036  42.824   7.385
 4860POPC   NC362039   0.082  21.304   5.553
 4860POPC   PO462040  44.500  21.564   5.297
 4860POPC   GL162041  44.612  21.512   5.773
 4860POPC   GL262042  44.693  21.164   5.864
 4860POPC   C1A62043  44.712  21.577   6.248
 4860POPC   D2A62044  44.669  21.620   6.728
 4860POPC   C3A62045  44.732  21.364   7.125
 4860POPC   C4A62046  44.523  21.562   7.509
 4860POPC   C1B62047  44.404  21.163   6.215
 4860POPC   C2B62048  44.414  21.175   6.663
 4860POPC   C3B62049  44.253  21.417   7.003
 4860POPC   C4B62050  44.084  21.730   7.245
 4861POPC   NC362051   5.760  29.162   5.484
 4861POPC   PO462052   6.325  29.386   5.662
 4861POPC   GL162053   6.096  29.084   5.898
 4861POPC   GL262054   5.730  28.955   5.950
 4861POPC   C1A62055   6.035  29.151   6.340
 4861POPC   D2A62056   5.732  28.971   6.588
 4861POPC   C3A62057   5.779  28.772   6.973
 4861POPC   C4A62058   5.952  28.847   7.382
 4861POPC   C1B62059   5.533  29.269   6.202
 4861POPC   C2B62060   5.578  29.458   6.616
 4861POPC   C3B62061   5.705  29.324   7.046
 4861POPC   C4B62062   5.412  29.466   7.424
 4862POPC   NC362063  37.635  25.450   5.318
 4862POPC   PO462064  37.902  24.829   5.269
 4862POPC   GL162065  37.680  25.032   5.655
 4862POPC   GL262066  37.860  25.357   5.770
 4862POPC   C1A62067  37.626  24.976   6.151
 4862POPC   D2A62068  37.693  24.907   6.620
 4862POPC   C3A62069  38.062  25.095   6.852
 4862POPC   C4A62070  38.102  25.162   7.287
 4862POPC   C1B62071  37.681  25.511   6.156
 4862POPC   C2B62072  37.444  25.357   6.513
 4862POPC   C3B62073  37.563  25.335   6.934
 4862POPC   C4B62074  37.848  25.615   7.136
 4863POPC   NC362075  28.278  37.969   5.527
 4863POPC   PO462076  27.996  38.563   5.559
 4863POPC   GL162077  28.316  38.623   5.865
 4863POPC   GL262078  28.536  38.318   5.835
 4863POPC   C1A62079  28.156  38.660   6.283
 4863POPC   D2A62080  28.278  38.696   6.703
 4863POPC   C3A62081  28.079  38.639   7.120
 4863POPC   C4A62082  28.090  38.744   7.595
 4863POPC   C1B62083  28.438  38.227   6.255
 4863POPC   C2B62084  28.593  38.300   6.661
 4863POPC   C3B62085  28.561  38.457   7.097
 4863POPC   C4B62086  28.619  38.105   7.376
 4864POPC   NC362087   0.340  42.049   5.543
 4864POPC   PO462088   0.332  42.658   5.468
 4864POPC   GL162089   0.426  42.480   5.865
 4864POPC   GL262090   0.623  42.199   5.941
 4864POPC   C1A62091   0.593  42.661   6.272
 4864POPC   D2A62092   0.842  42.573   6.652
 4864POPC   C3A62093   0.648  42.629   7.064
 4864POPC   C4A62094   0.304  42.607   7.372
 4864POPC   C1B62095   0.296  42.239   6.285
 4864POPC   C2B62096   0.411  42.273   6.730
 4864POPC   C3B62097   0.341  42.158   7.154
 4864POPC   C4B62098  44.980  42.190   7.418
 4865POPC   NC362099  29.785   4.581   5.477
 4865POPC   PO462100  30.268   4.083   5.372
 4865POPC   GL162101  30.043   4.224   5.800
 4865POPC   GL262102  29.770   4.489   5.963
 4865POPC   C1A62103  30.022   4.202   6.260
 4865POPC   D2A62104  29.811   4.453   6.523
 4865POPC   C3A62105  29.833   4.242   6.895
 4865POPC   C4A62106  29.899   4.234   7.326
 4865POPC   C1B62107  29.439   4.725   6.172
 4865POPC   C2B62108  29.259   4.759   6.551
 4865POPC   C3B62109  29.481   4.596   6.872
 4865POPC   C4B62110  29.432   4.420   7.246
 4866POPC   NC362111  10.099  14.542   5.317
 4866POPC   PO462112   9.469  14.161   5.318
 4866POPC   GL162113   9.724  14.242   5.659
 4866POPC   GL262114   9.426  14.216   5.836
 4866POPC   C1A62115  10.035  14.274   6.017
 4866POPC   D2A62116  10.170  14.375   6.460
 4866POPC   C3A62117   9.945  14.537   6.826
 4866POPC   C4A62118  10.043  14.509   7.248
 4866POPC   C1B62119   9.566  14.489   6.149
 4866POPC   C2B62120   9.423  14.501   6.561
 4866POPC   C3B62121   9.471  14.744   6.890
 4866POPC   C4B62122   9.492  14.587   7.277
 4867POPC   NC362123   8.152  43.573   5.467
 4867POPC   PO462124   8.436  42.948   5.286
 4867POPC   GL162125   8.286  43.119   5.667
 4867POPC   GL262126   8.586  43.216   5.793
 4867POPC   C1A62127   8.161  43.075   6.117
 4867POPC   D2A62128   8.398  43.058   6.503
 4867POPC   C3A62129   8.364  42.866   6.887
 4867POPC   C4A62130   8.278  42.981   7.272
 4867POPC   C1B62131   8.553  43.437   6.190
 4867POPC   C2B62132   8.689  43.465   6.625
 4867POPC   C3B62133   8.603  43.315   7.045
 4867POPC   C4B62134   8.548  43.340   7.493
 4868POPC   NC362135  43.535  28.967   5.455
 4868POPC   PO462136  43.042  29.268   5.067
 4868POPC   GL162137  43.147  29.308   5.580
 4868POPC   GL262138  42.830  29.321   5.760
 4868POPC   C1A62139  43.193  29.179   6.083
 4868POPC   D2A62140  43.348  28.962   6.505
 4868POPC   C3A62141  43.259  29.016   6.989
 4868POPC   C4A62142  43.345  29.034   7.467
 4868POPC   C1B62143  42.692  29.388   6.192
 4868POPC   C2B62144  42.883  29.324   6.577
 4868POPC   C3B62145  42.923  29.379   7.009
 4868POPC   C4B62146  42.854  29.118   7.356
 4869POPC   NC362147  40.147  20.992   5.436
 4869POPC   PO462148  39.720  21.493   5.298
 4869POPC   GL162149  39.901  21.515   5.740
 4869POPC   GL262150  40.073  21.254   5.874
 4869POPC   C1A62151  40.134  21.740   6.049
 4869POPC   D2A62152  40.069  21.792   6.520
 4869POPC   C3A62153  40.117  21.464   6.841
 4869POPC   C4A62154  40.332  21.607   7.227
 4869POPC   C1B62155  39.862  21.372   6.284
 4869POPC   C2B62156  39.604  21.350   6.679
 4869POPC   C3B62157  39.710  21.118   7.062
 4869POPC   C4B62158  40.027  21.206   7.368
 4870POPC   NC362159  18.359  36.565   5.333
 4870POPC   PO462160  18.015  37.108   5.170
 4870POPC   GL162161  18.125  36.933   5.611
 4870POPC   GL262162  18.461  36.876   5.733
 4870POPC   C1A62163  18.101  36.955   6.091
 4870POPC   D2A62164  18.040  36.773   6.506
 4870POPC   C3A62165  18.220  36.981   6.861
 4870POPC   C4A62166  18.084  37.069   7.237
 4870POPC   C1B62167  18.526  36.651   6.129
 4870POPC   C2B62168  18.567  36.797   6.524
 4870POPC   C3B62169  18.613  36.664   6.931
 4870POPC   C4B62170  18.633  36.809   7.336
 4871POPC   NC362171  42.897  38.788   5.440
 4871POPC   PO462172  42.875  38.162   5.435
 4871POPC   GL162173  42.877  38.427   5.845
 4871POPC   GL262174  43.217  38.590   5.812
 4871POPC   C1A62175  42.717  38.500   6.319
 4871POPC   D2A62176  42.599  38.457   6.788
 4871POPC   C3A62177  42.846  38.293   7.117
 4871POPC   C4A62178  43.261  38.383   7.190
 4871POPC   C1B62179  43.175  38.718   6.236
 4871POPC   C2B62180  43.120  38.629   6.692
 4871POPC   C3B62181  42.894  38.815   7.054
 4871POPC   C4B62182  42.874  38.664   7.465
 4872POPC   NC362183  15.985   0.853   4.985
 4872POPC   PO462184  15.967   0.283   5.319
 4872POPC   GL162185  16.018   0.378   5.801
 4872POPC   GL262186  15.714   0.555   5.951
 4872POPC   C1A62187  15.975   0.195   6.231
 4872POPC   D2A62188  15.876  44.946   6.587
 4872POPC   C3A62189  15.928   0.103   7.020
 4872POPC   C4A62190  16.170   0.091   7.406
 4872POPC   C1B62191  15.886   0.660   6.371
 4872POPC   C2B62192  16.082   0.469   6.717
 4872POPC   C3B62193  16.119   0.556   7.168
 4872POPC   C4B62194  15.883   0.823   7.427
 4873POPC   NC362195  20.961  15.806   5.380
 4873POPC   PO462196  21.650  15.760   5.467
 4873POPC   GL162197  21.302  15.875   5.765
 4873POPC   GL262198  21.169  16.214   5.697
 4873POPC   C1A62199  21.202  15.732   6.189
 4873POPC   D2A62200  21.337  15.870   6.601
 4873POPC   C3A62201  21.210  15.704   6.988
 4873POPC   C4A62202  21.524  15.518   7.283
 4873POPC   C1B62203  21.232  16.288   6.149
 4873POPC   C2B62204  21.072  16.308   6.600
 4873POPC   C3B62205  21.227  16.225   7.014
 4873POPC   C4B62206  21.357  16.019   7.384
 4874POPC   NC362207  16.149  44.331   5.430
 4874POPC   PO462208  15.648  44.725   5.414
 4874POPC   GL162209  15.785  44.473   5.760
 4874POPC   GL262210  15.896  44.801   5.897
 4874POPC   C1A62211  15.955  44.365   6.170
 4874POPC   D2A62212  16.113  44.503   6.587
 4874POPC   C3A62213  15.832  44.597   6.949
 4874POPC   C4A62214  15.722  44.395   7.325
 4874POPC   C1B62215  16.286  44.804   6.154
 4874POPC   C2B62216  16.386   0.039   6.542
 4874POPC   C3B62217  16.337  44.834   6.928
 4874POPC   C4B62218  16.484  44.706   7.318
 4875POPC   NC362219  38.353  35.800   5.132
 4875POPC   PO462220  38.592  36.066   5.695
 4875POPC   GL162221  38.371  35.898   5.993
 4875POPC   GL262222  38.054  36.025   5.967
 4875POPC   C1A62223  38.522  35.794   6.386
 4875POPC   D2A62224  38.347  35.848   6.774
 4875POPC   C3A62225  38.461  35.791   7.177
 4875POPC   C4A62226  38.256  35.670   7.580
 4875POPC   C1B62227  38.019  35.953   6.383
 4875POPC   C2B62228  38.048  36.252   6.712
 4875POPC   C3B62229  38.297  36.286   7.071
 4875POPC   C4B62230  38.117  36.108   7.380
 4876POPC   NC362231  21.835  33.435   5.495
 4876POPC   PO462232  21.364  33.815   5.399
 4876POPC   GL162233  21.488  33.699   5.815
 4876POPC   GL262234  21.168  33.570   5.844
 4876POPC   C1A62235  21.561  33.774   6.276
 4876POPC   D2A62236  21.571  33.480   6.662
 4876POPC   C3A62237  21.573  33.680   7.039
 4876POPC   C4A62238  21.605  33.975   7.376
 4876POPC   C1B62239  21.064  33.866   6.164
 4876POPC   C2B62240  21.143  33.782   6.608
 4876POPC   C3B62241  21.231  34.050   6.980
 4876POPC   C4B62242  21.094  33.925   7.403
 4877POPC   NC362243  32.712  37.626   5.343
 4877POPC   PO462244  33.125  38.072   5.282
 4877POPC   GL162245  32.836  37.961   5.692
 4877POPC   GL262246  32.928  37.630   5.811
 4877POPC   C1A62247  32.781  37.958   6.166
 4877POPC   D2A62248  32.741  37.786   6.593
 4877POPC   C3A62249  33.113  37.779   6.884
 4877POPC   C4A62250  33.127  37.806   7.333
 4877POPC   C1B62251  33.126  37.543   6.229
 4877POPC   C2B62252  33.118  37.328   6.626
 4877POPC   C3B62253  32.762  37.364   6.893
 4877POPC   C4B62254  32.762  37.469   7.298
 4878POPC   NC362255  22.959  21.128   5.490
 4878POPC   PO462256  23.289  20.495   5.354
 4878POPC   GL162257  23.068  20.405   5.778
 4878POPC   GL262258  22.860  20.718   5.837
 4878POPC   C1A62259  23.155  20.490   6.203
 4878POPC   D2A62260  23.005  20.709   6.574
 4878POPC   C3A62261  22.863  20.479   6.977
 4878POPC   C4A62262  23.000  20.394   7.420
 4878POPC   C1B62263  22.646  20.488   6.179
 4878POPC   C2B62264  22.520  20.631   6.609
 4878POPC   C3B62265  22.578  20.907   6.956
 4878POPC   C4B62266  22.517  20.656   7.323
 4879POPC   NC362267  36.061   4.777   5.194
 4879POPC   PO462268  36.443   5.057   5.656
 4879POPC   GL162269  36.056   5.138   5.860
 4879POPC   GL262270  35.863   4.855   5.993
 4879POPC   C1A62271  35.932   5.314   6.245
 4879POPC   D2A62272  35.999   5.081   6.574
 4879POPC   C3A62273  35.919   5.137   6.954
 4879POPC   C4A62274  36.182   5.321   7.158
 4879POPC   C1B62275  36.116   4.655   6.357
 4879POPC   C2B62276  36.445   4.845   6.672
 4879POPC   C3B62277  36.423   4.869   7.120
 4879POPC   C4B62278  36.209   4.680   7.471
 4880POPC   NC362279   9.488  38.665   5.617
 4880POPC   PO462280   9.972  39.060   5.393
 4880POPC   GL162281   9.957  38.816   5.850
 4880POPC   GL262282   9.908  38.448   5.922
 4880POPC   C1A62283   9.757  38.703   6.309
 4880POPC   D2A62284   9.907  38.469   6.689
 4880POPC   C3A62285   9.828  38.659   7.095
 4880POPC   C4A62286   9.522  38.495   7.423
 4880POPC   C1B62287   9.621  38.178   6.171
 4880POPC   C2B62288   9.423  38.166   6.589
 4880POPC   C3B62289   9.581  38.208   7.009
 4880POPC   C4B62290   9.947  38.208   7.300
 4881POPC   NC362291  31.718  27.660   5.348
 4881POPC   PO462292  31.099  27.488   5.203
 4881POPC   GL162293  31.333  27.624   5.709
 4881POPC   GL262294  31.662  27.581   5.859
 4881POPC   C1A62295  31.297  27.783   6.145
 4881POPC   D2A62296  31.348  27.535   6.510
 4881POPC   C3A62297  31.291  27.711   6.922
 4881POPC   C4A62298  31.312  27.480   7.336
 4881POPC   C1B62299  31.810  27.705   6.279
 4881POPC   C2B62300  31.781  27.830   6.722
 4881POPC   C3B62301  31.747  27.688   7.135
 4881POPC   C4B62302  31.592  27.823   7.572
 4882POPC   NC362303   5.100  24.442   5.420
 4882POPC   PO462304   5.157  25.094   5.654
 4882POPC   GL162305   5.360  24.696   5.781
 4882POPC   GL262306   5.007  24.635   5.883
 4882POPC   C1A62307   5.353  24.388   6.133
 4882POPC   D2A62308   5.110  24.637   6.433
 4882POPC   C3A62309   5.249  24.682   6.835
 4882POPC   C4A62310   5.342  24.491   7.221
 4882POPC   C1B62311   4.820  24.320   6.135
 4882POPC   C2B62312   4.708  24.340   6.565
 4882POPC   C3B62313   4.803  24.453   6.962
 4882POPC   C4B62314   4.601  24.388   7.334
 4883POPC   NC362315  17.108  21.994   5.054
 4883POPC   PO462316  17.505  22.332   5.470
 4883POPC   GL162317  17.454  22.074   5.869
 4883POPC   GL262318  17.755  21.962   6.035
 4883POPC   C1A62319  17.242  22.032   6.299
 4883POPC   D2A62320  17.267  22.236   6.713
 4883POPC   C3A62321  17.258  21.989   7.145
 4883POPC   C4A62322  17.294  22.012   7.621
 4883POPC   C1B62323  17.647  22.377   6.252
 4883POPC   C2B62324  17.685  22.586   6.661
 4883POPC   C3B62325  17.639  22.363   7.060
 4883POPC   C4B62326  17.745  21.887   7.161
 4884POPC   NC362327   6.547  23.721   5.358
 4884POPC   PO462328   7.167  23.575   5.345
 4884POPC   GL162329   6.928  23.769   5.719
 4884POPC   GL262330   6.970  24.116   5.719
 4884POPC   C1A62331   6.694  23.733   6.154
 4884POPC   D2A62332   6.350  23.725   6.489
 4884POPC   C3A62333   6.410  23.931   6.902
 4884POPC   C4A62334   6.574  24.114   7.296
 4884POPC   C1B62335   7.114  24.022   6.148
 4884POPC   C2B62336   7.158  23.866   6.562
 4884POPC   C3B62337   6.946  23.969   6.937
 4884POPC   C4B62338   7.065  24.022   7.347
 4885POPC   NC362339   8.302   7.618   5.445
 4885POPC   PO462340   8.118   6.846   5.403
 4885POPC   GL162341   8.104   7.203   5.761
 4885POPC   GL262342   8.018   7.575   5.864
 4885POPC   C1A62343   8.167   7.235   6.234
 4885POPC   D2A62344   8.356   7.228   6.672
 4885POPC   C3A62345   8.086   7.147   7.033
 4885POPC   C4A62346   8.077   7.308   7.476
 4885POPC   C1B62347   8.369   7.700   6.159
 4885POPC   C2B62348   8.346   7.809   6.611
 4885POPC   C3B62349   8.311   7.607   7.016
 4885POPC   C4B62350   8.476   7.611   7.404
 4886POPC   NC362351   0.086  13.065   5.598
 4886POPC   PO462352   0.781  12.730   5.468
 4886POPC   GL162353   0.494  12.822   5.795
 4886POPC   GL262354   0.556  13.179   5.827
 4886POPC   C1A62355   0.255  12.709   6.160
 4886POPC   D2A62356   0.270  12.442   6.487
 4886POPC   C3A62357   0.366  12.663   6.829
 4886POPC   C4A62358   0.323  12.557   7.210
 4886POPC   C1B62359   0.597  13.287   6.270
 4886POPC   C2B62360   0.485  13.148   6.700
 4886POPC   C3B62361   0.441  13.099   7.159
 4886POPC   C4B62362   0.583  12.895   7.546
 4887POPC   NC362363   5.299  31.160   5.344
 4887POPC   PO462364   4.799  31.725   5.237
 4887POPC   GL162365   5.115  31.653   5.628
 4887POPC   GL262366   5.121  31.305   5.792
 4887POPC   C1A62367   5.115  31.668   6.127
 4887POPC   D2A62368   5.313  31.561   6.517
 4887POPC   C3A62369   5.188  31.543   6.961
 4887POPC   C4A62370   5.372  31.531   7.400
 4887POPC   C1B62371   4.927  31.187   6.191
 4887POPC   C2B62372   5.119  31.089   6.588
 4887POPC   C3B62373   5.095  31.041   7.017
 4887POPC   C4B62374   4.926  31.270   7.330
 4888POPC   NC362375  31.724   7.794   5.444
 4888POPC   PO462376  31.355   8.197   5.116
 4888POPC   GL162377  31.377   8.389   5.568
 4888POPC   GL262378  31.641   8.210   5.712
 4888POPC   C1A62379  31.361   8.456   6.035
 4888POPC   D2A62380  31.366   8.402   6.493
 4888POPC   C3A62381  31.698   8.342   6.807
 4888POPC   C4A62382  31.656   8.368   7.263
 4888POPC   C1B62383  31.719   8.078   6.178
 4888POPC   C2B62384  31.832   7.866   6.615
 4888POPC   C3B62385  31.775   7.890   7.094
 4888POPC   C4B62386  31.691   7.888   7.554
 4889POPC   NC362387  22.657  31.314   5.295
 4889POPC   PO462388  23.149  31.545   5.754
 4889POPC   GL162389  22.813  31.352   5.936
 4889POPC   GL262390  22.746  31.691   6.010
 4889POPC   C1A62391  22.872  31.219   6.365
 4889POPC   D2A62392  23.270  31.368   6.589
 4889POPC   C3A62393  23.204  31.250   6.989
 4889POPC   C4A62394  22.780  31.145   7.031
 4889POPC   C1B62395  22.970  31.736   6.349
 4889POPC   C2B62396  22.758  32.006   6.528
 4889POPC   C3B62397  22.648  31.993   6.966
 4889POPC   C4B62398  22.894  31.654   7.081
 4890POPC   NC362399   5.998  31.027   5.529
 4890POPC   PO462400   5.677  30.408   5.510
 4890POPC   GL162401   5.743  30.685   5.875
 4890POPC   GL262402   5.551  31.012   5.794
 4890POPC   C1A62403   6.097  30.807   6.166
 4890POPC   D2A62404   6.194  31.064   6.527
 4890POPC   C3A62405   5.978  30.856   6.849
 4890POPC   C4A62406   6.066  30.817   7.260
 4890POPC   C1B62407   5.470  31.186   6.200
 4890POPC   C2B62408   5.665  31.220   6.628
 4890POPC   C3B62409   5.601  31.173   7.061
 4890POPC   C4B62410   5.574  30.742   7.179
 4891POPC   NC362411  21.635  32.411   5.672
 4891POPC   PO462412  21.283  31.883   5.435
 4891POPC   GL162413  21.318  32.036   5.869
 4891POPC   GL262414  21.664  31.934   5.890
 4891POPC   C1A62415  21.356  32.275   6.272
 4891POPC   D2A62416  21.112  32.568   6.537
 4891POPC   C3A62417  21.216  32.505   6.960
 4891POPC   C4A62418  21.543  32.622   7.223
 4891POPC   C1B62419  21.549  31.783   6.284
 4891POPC   C2B62420  21.699  31.952   6.679
 4891POPC   C3B62421  21.584  31.838   7.090
 4891POPC   C4B62422  21.368  32.138   7.277
 4892POPC   NC362423  18.531  32.026   5.006
 4892POPC   PO462424  18.087  31.948   5.490
 4892POPC   GL162425  18.178  32.145   5.828
 4892POPC   GL262426  18.300  31.844   5.968
 4892POPC   C1A62427  18.099  32.373   6.180
 4892POPC   D2A62428  18.298  32.400   6.565
 4892POPC   C3A62429  18.259  32.091   6.853
 4892POPC   C4A62430  18.234  32.182   7.286
 4892POPC   C1B62431  18.588  32.118   6.200
 4892POPC   C2B62432  18.733  32.112   6.625
 4892POPC   C3B62433  18.689  31.900   7.061
 4892POPC   C4B62434  18.631  31.967   7.519
 4893POPC   NC362435  21.311  17.970   5.404
 4893POPC   PO462436  21.726  17.495   5.173
 4893POPC   GL162437  21.536  17.548   5.655
 4893POPC   GL262438  21.182  17.464   5.796
 4893POPC   C1A62439  21.530  17.478   6.161
 4893POPC   D2A62440  21.391  17.541   6.629
 4893POPC   C3A62441  21.528  17.403   7.056
 4893POPC   C4A62442  21.791  17.465   7.444
 4893POPC   C1B62443  21.055  17.675   6.225
 4893POPC   C2B62444  20.954  17.815   6.636
 4893POPC   C3B62445  21.119  17.784   7.046
 4893POPC   C4B62446  21.151  17.455   7.382
 4894POPC   NC362447   7.751  43.902   5.250
 4894POPC   PO462448   7.162  44.037   5.461
 4894POPC   GL162449   7.403  43.885   5.793
 4894POPC   GL262450   7.753  43.927   5.779
 4894POPC   C1A62451   7.378  43.802   6.219
 4894POPC   D2A62452   7.289  44.016   6.611
 4894POPC   C3A62453   7.340  43.840   7.018
 4894POPC   C4A62454   7.298  44.053   7.417
 4894POPC   C1B62455   7.857  44.027   6.191
 4894POPC   C2B62456   7.759  43.788   6.558
 4894POPC   C3B62457   7.893  43.815   6.941
 4894POPC   C4B62458   7.782  43.916   7.330
 4895POPC   NC362459   2.330   1.364   4.822
 4895POPC   PO462460   2.001   1.022   5.305
 4895POPC   GL162461   1.947   1.103   5.781
 4895POPC   GL262462   1.642   1.040   5.946
 4895POPC   C1A62463   1.972   1.315   6.259
 4895POPC   D2A62464   2.191   1.507   6.643
 4895POPC   C3A62465   2.030   1.474   7.064
 4895POPC   C4A62466   2.173   1.267   7.453
 4895POPC   C1B62467   1.955   0.815   6.203
 4895POPC   C2B62468   1.965   0.885   6.651
 4895POPC   C3B62469   1.954   0.966   7.075
 4895POPC   C4B62470   1.704   1.057   7.449
 4896POPC   NC362471  15.614   4.193   5.546
 4896POPC   PO462472  16.279   4.531   5.632
 4896POPC   GL162473  16.009   4.517   5.938
 4896POPC   GL262474  15.847   4.191   6.003
 4896POPC   C1A62475  16.033   4.509   6.371
 4896POPC   D2A62476  15.927   4.100   6.572
 4896POPC   C3A62477  15.968   4.232   6.957
 4896POPC   C4A62478  16.299   4.403   7.183
 4896POPC   C1B62479  15.501   4.068   6.276
 4896POPC   C2B62480  15.529   3.726   6.564
 4896POPC   C3B62481  15.690   3.771   6.971
 4896POPC   C4B62482  15.626   4.088   7.301
 4897POPC   NC362483  16.231  38.152   5.410
 4897POPC   PO462484  15.607  38.433   5.401
 4897POPC   GL162485  15.847  38.396   5.777
 4897POPC   GL262486  15.955  38.071   5.860
 4897POPC   C1A62487  15.927  38.509   6.212
 4897POPC   D2A62488  15.812  38.819   6.528
 4897POPC   C3A62489  15.889  38.682   6.954
 4897POPC   C4A62490  16.243  38.608   7.232
 4897POPC   C1B62491  15.943  38.015   6.331
 4897POPC   C2B62492  16.105  38.264   6.696
 4897POPC   C3B62493  15.970  38.192   7.144
 4897POPC   C4B62494  15.920  38.063   7.603
 4898POPC   NC362495   5.187   6.319   5.548
 4898POPC   PO462496   4.990   6.954   5.388
 4898POPC   GL162497   5.028   6.771   5.807
 4898POPC   GL262498   5.181   6.471   6.024
 4898POPC   C1A62499   4.955   6.899   6.231
 4898POPC   D2A62500   4.951   6.665   6.613
 4898POPC   C3A62501   5.076   6.813   7.029
 4898POPC   C4A62502   5.444   6.583   7.168
 4898POPC   C1B62503   5.005   6.126   6.294
 4898POPC   C2B62504   4.744   6.187   6.617
 4898POPC   C3B62505   4.905   6.295   7.016
 4898POPC   C4B62506   4.708   6.123   7.346
 4899POPC   NC362507   0.268  16.576   5.659
 4899POPC   PO462508   0.247  15.937   5.419
 4899POPC   GL162509   0.482  16.085   5.745
 4899POPC   GL262510   0.195  16.133   5.934
 4899POPC   C1A62511   0.619  15.953   6.164
 4899POPC   D2A62512   0.572  16.165   6.573
 4899POPC   C3A62513   0.600  15.965   6.985
 4899POPC   C4A62514   0.501  16.142   7.379
 4899POPC   C1B62515   0.131  15.883   6.304
 4899POPC   C2B62516   0.293  15.698   6.683
 4899POPC   C3B62517   0.099  15.771   7.116
 4899POPC   C4B62518  44.783  15.882   7.468
 4900POPC   NC362519  10.761  44.183   5.464
 4900POPC   PO462520  10.201  43.784   5.553
 4900POPC   GL162521  10.345  44.042   5.885
 4900POPC   GL262522  10.718  44.052   5.986
 4900POPC   C1A62523  10.332  44.092   6.332
 4900POPC   D2A62524  10.716  44.188   6.564
 4900POPC   C3A62525  10.686  43.910   6.893
 4900POPC   C4A62526  10.309  43.886   7.190
 4900POPC   C1B62527  10.807  43.693   6.316
 4900POPC   C2B62528  10.906  43.442   6.708
 4900POPC   C3B62529  11.024  43.596   7.114
 4900POPC   C4B62530  10.816  43.888   7.389
 4901POPC   NC362531  14.739  23.991   5.409
 4901POPC   PO462532  15.419  23.641   5.517
 4901POPC   GL162533  15.201  23.682   5.874
 4901POPC   GL262534  14.874  23.732   5.825
 4901POPC   C1A62535  15.238  23.850   6.273
 4901POPC   D2A62536  15.381  23.766   6.682
 4901POPC   C3A62537  15.035  23.705   6.995
 4901POPC   C4A62538  14.976  23.340   7.243
 4901POPC   C1B62539  14.749  23.986   6.191
 4901POPC   C2B62540  14.946  24.114   6.610
 4901POPC   C3B62541  14.822  24.179   7.040
 4901POPC   C4B62542  14.960  24.031   7.437
 4902POPC   NC362543  36.963   7.927   5.253
 4902POPC   PO462544  37.063   8.517   5.417
 4902POPC   GL162545  37.197   8.153   5.693
 4902POPC   GL262546  36.997   7.907   5.764
 4902POPC   C1A62547  37.185   8.276   6.130
 4902POPC   D2A62548  37.105   8.338   6.576
 4902POPC   C3A62549  36.730   8.442   6.813
 4902POPC   C4A62550  36.683   8.606   7.216
 4902POPC   C1B62551  37.045   7.805   6.208
 4902POPC   C2B62552  36.777   7.915   6.582
 4902POPC   C3B62553  36.993   8.010   6.962
 4902POPC   C4B62554  37.264   7.790   7.237
 4903POPC   NC362555  28.375  16.331   5.451
 4903POPC   PO462556  28.306  15.685   5.548
 4903POPC   GL162557  28.472  15.977   5.802
 4903POPC   GL262558  28.171  16.146   5.882
 4903POPC   C1A62559  28.600  16.002   6.195
 4903POPC   D2A62560  28.610  15.797   6.563
 4903POPC   C3A62561  28.686  16.092   6.867
 4903POPC   C4A62562  28.643  16.167   7.299
 4903POPC   C1B62563  28.048  16.056   6.289
 4903POPC   C2B62564  28.217  16.169   6.675
 4903POPC   C3B62565  28.198  16.033   7.101
 4903POPC   C4B62566  27.946  15.689   7.210
 4904POPC   NC362567  40.387   6.480   5.431
 4904POPC   PO462568  39.757   6.605   5.358
 4904POPC   GL162569  39.980   6.727   5.751
 4904POPC   GL262570  40.305   6.873   5.753
 4904POPC   C1A62571  39.945   6.594   6.171
 4904POPC   D2A62572  39.721   6.598   6.599
 4904POPC   C3A62573  39.959   6.596   6.974
 4904POPC   C4A62574  39.792   6.706   7.376
 4904POPC   C1B62575  40.310   7.045   6.155
 4904POPC   C2B62576  40.152   6.881   6.546
 4904POPC   C3B62577  40.349   6.920   6.945
 4904POPC   C4B62578  40.140   7.062   7.232
 4905POPC   NC362579  40.067  31.939   5.561
 4905POPC   PO462580  39.827  32.632   5.466
 4905POPC   GL162581  39.816  32.289   5.801
 4905POPC   GL262582  39.513  32.076   5.762
 4905POPC   C1A62583  40.079  32.255   6.187
 4905POPC   D2A62584  40.087  32.503   6.566
 4905POPC   C3A62585  40.128  32.289   6.938
 4905POPC   C4A62586  40.168  32.008   7.262
 4905POPC   C1B62587  39.644  31.954   6.179
 4905POPC   C2B62588  39.830  32.043   6.576
 4905POPC   C3B62589  39.746  31.921   6.977
 4905POPC   C4B62590  39.485  31.759   7.266
 4906POPC   NC362591  18.465  42.619   5.414
 4906POPC   PO462592  18.144  42.000   5.197
 4906POPC   GL162593  18.081  42.303   5.633
 4906POPC   GL262594  18.369  42.367   5.871
 4906POPC   C1A62595  17.961  42.453   6.109
 4906POPC   D2A62596  17.942  42.213   6.462
 4906POPC   C3A62597  18.201  42.179   6.783
 4906POPC   C4A62598  18.110  42.348   7.193
 4906POPC   C1B62599  18.598  42.496   6.223
 4906POPC   C2B62600  18.793  42.416   6.622
 4906POPC   C3B62601  18.610  42.364   7.001
 4906POPC   C4B62602  18.498  41.960   7.152
 4907POPC   NC362603  42.169  31.603   5.400
 4907POPC   PO462604  42.671  31.197   5.291
 4907POPC   GL162605  42.575  31.151   5.735
 4907POPC   GL262606  42.923  31.140   5.816
 4907POPC   C1A62607  42.311  31.238   6.120
 4907POPC   D2A62608  42.200  31.157   6.583
 4907POPC   C3A62609  42.187  31.549   6.874
 4907POPC   C4A62610  42.379  31.762   7.236
 4907POPC   C1B62611  42.750  30.924   6.179
 4907POPC   C2B62612  42.658  30.877   6.592
 4907POPC   C3B62613  42.680  31.209   6.884
 4907POPC   C4B62614  42.463  31.271   7.234
 4908POPC   NC362615  40.734  14.383   5.391
 4908POPC   PO462616  41.209  14.813   5.432
 4908POPC   GL162617  40.904  14.610   5.796
 4908POPC   GL262618  40.953  14.198   5.795
 4908POPC   C1A62619  40.603  14.431   6.115
 4908POPC   D2A62620  40.692  14.543   6.547
 4908POPC   C3A62621  40.495  14.640   6.957
 4908POPC   C4A62622  40.453  14.290   7.268
 4908POPC   C1B62623  40.941  14.059   6.202
 4908POPC   C2B62624  41.068  14.212   6.588
 4908POPC   C3B62625  40.986  14.449   6.945
 4908POPC   C4B62626  40.981  14.232   7.281
 4909POPC   NC362627  41.066  18.462   5.505
 4909POPC   PO462628  40.574  18.020   5.501
 4909POPC   GL162629  40.874  18.150   5.865
 4909POPC   GL262630  41.101  17.881   5.992
 4909POPC   C1A62631  40.774  18.487   6.205
 4909POPC   D2A62632  40.417  18.420   6.535
 4909POPC   C3A62633  40.576  18.180   6.889
 4909POPC   C4A62634  40.783  18.471   7.104
 4909POPC   C1B62635  40.911  18.033   6.371
 4909POPC   C2B62636  41.064  18.320   6.680
 4909POPC   C3B62637  41.150  18.128   7.070
 4909POPC   C4B62638  41.051  17.901   7.451
 4910POPC   NC362639  11.152  18.525   5.611
 4910POPC   PO462640  10.646  18.269   5.324
 4910POPC   GL162641  10.526  18.359   5.738
 4910POPC   GL262642  10.829  18.183   5.842
 4910POPC   C1A62643  10.432  18.192   6.159
 4910POPC   D2A62644  10.648  18.103   6.530
 4910POPC   C3A62645  10.427  18.254   6.927
 4910POPC   C4A62646  10.381  18.076   7.322
 4910POPC   C1B62647  10.841  18.492   6.193
 4910POPC   C2B62648  10.856  18.557   6.629
 4910POPC   C3B62649  10.935  18.230   6.938
 4910POPC   C4B62650  10.825  18.343   7.329
 4911POPC   NC362651  39.484  13.946   5.569
 4911POPC   PO462652  39.304  14.642   5.426
 4911POPC   GL162653  39.184  14.451   5.805
 4911POPC   GL262654  39.042  14.166   5.699
 4911POPC   C1A62655  39.184  14.568   6.230
 4911POPC   D2A62656  39.138  14.716   6.624
 4911POPC   C3A62657  39.339  14.565   6.968
 4911POPC   C4A62658  39.563  14.843   7.228
 4911POPC   C1B62659  39.064  14.074   6.174
 4911POPC   C2B62660  39.150  14.182   6.636
 4911POPC   C3B62661  39.067  14.131   7.098
 4911POPC   C4B62662  38.983  14.017   7.560
 4912POPC   NC362663  31.396   9.487   5.391
 4912POPC   PO462664  31.581  10.075   5.599
 4912POPC   GL162665  31.367   9.831   5.913
 4912POPC   GL262666  31.285   9.470   5.898
 4912POPC   C1A62667  31.468   9.910   6.348
 4912POPC   D2A62668  31.588  10.127   6.718
 4912POPC   C3A62669  31.652   9.820   7.037
 4912POPC   C4A62670  31.868   9.565   7.320
 4912POPC   C1B62671  31.426   9.389   6.282
 4912POPC   C2B62672  31.509   9.506   6.660
 4912POPC   C3B62673  31.514   9.303   6.982
 4912POPC   C4B62674  31.333   9.483   7.316
 4913POPC   NC362675   4.167  17.599   5.728
 4913POPC   PO462676   4.786  17.653   5.538
 4913POPC   GL162677   4.610  17.481   5.961
 4913POPC   GL262678   4.430  17.147   5.879
 4913POPC   C1A62679   4.282  17.548   6.354
 4913POPC   D2A62680   4.047  17.645   6.760
 4913POPC   C3A62681   4.337  17.517   7.090
 4913POPC   C4A62682   4.445  17.624   7.525
 4913POPC   C1B62683   4.026  17.094   6.136
 4913POPC   C2B62684   3.942  17.100   6.583
 4913POPC   C3B62685   3.923  17.197   7.025
 4913POPC   C4B62686   4.151  17.212   7.452
 4914POPC   NC362687  22.882  20.268   5.329
 4914POPC   PO462688  23.187  19.624   5.485
 4914POPC   GL162689  23.079  19.540   5.909
 4914POPC   GL262690  22.899  19.849   5.899
 4914POPC   C1A62691  23.032  19.555   6.380
 4914POPC   D2A62692  22.726  19.705   6.672
 4914POPC   C3A62693  22.853  19.620   7.088
 4914POPC   C4A62694  22.736  20.021   7.203
 4914POPC   C1B62695  23.221  19.988   6.212
 4914POPC   C2B62696  23.117  20.189   6.624
 4914POPC   C3B62697  23.285  20.185   7.043
 4914POPC   C4B62698  23.247  19.900   7.385
 4915POPC   NC362699  27.197  22.994   5.486
 4915POPC   PO462700  26.760  22.482   5.430
 4915POPC   GL162701  26.800  22.788   5.766
 4915POPC   GL262702  26.556  23.033   5.930
 4915POPC   C1A62703  26.965  22.761   6.175
 4915POPC   D2A62704  26.762  22.622   6.563
 4915POPC   C3A62705  26.887  22.790   6.948
 4915POPC   C4A62706  26.921  22.862   7.418
 4915POPC   C1B62707  26.668  23.137   6.390
 4915POPC   C2B62708  26.657  23.230   6.847
 4915POPC   C3B62709  26.462  22.960   7.201
 4915POPC   C4B62710  26.425  23.078   7.651
 4916POPC   NC362711   4.650  12.078   5.469
 4916POPC   PO462712   5.168  12.464   5.370
 4916POPC   GL162713   5.055  12.233   5.770
 4916POPC   GL262714   4.848  12.502   5.902
 4916POPC   C1A62715   5.305  12.017   6.151
 4916POPC   D2A62716   5.190  11.841   6.578
 4916POPC   C3A62717   5.199  12.037   7.026
 4916POPC   C4A62718   5.200  11.793   7.435
 4916POPC   C1B62719   4.701  12.388   6.328
 4916POPC   C2B62720   4.772  12.124   6.723
 4916POPC   C3B62721   4.706  12.096   7.187
 4916POPC   C4B62722   4.456  12.375   7.468
 4917POPC   NC362723  16.823  33.931   5.510
 4917POPC   PO462724  16.284  33.508   5.406
 4917POPC   GL162725  16.589  33.526   5.762
 4917POPC   GL262726  16.543  33.885   5.912
 4917POPC   C1A62727  16.893  33.574   6.099
 4917POPC   D2A62728  16.805  33.820   6.454
 4917POPC   C3A62729  16.925  33.564   6.782
 4917POPC   C4A62730  16.956  33.613   7.182
 4917POPC   C1B62731  16.349  34.136   6.203
 4917POPC   C2B62732  16.243  34.036   6.630
 4917POPC   C3B62733  16.583  33.965   6.923
 4917POPC   C4B62734  16.667  34.049   7.337
 4918POPC   NC362735   0.672  21.065   5.340
 4918POPC   PO462736   0.863  20.432   5.500
 4918POPC   GL162737   0.865  20.508   5.913
 4918POPC   GL262738   0.846  20.868   5.934
 4918POPC   C1A62739   1.120  20.339   6.256
 4918POPC   D2A62740   0.993  20.331   6.676
 4918POPC   C3A62741   1.293  20.335   7.028
 4918POPC   C4A62742   1.262  20.620   7.415
 4918POPC   C1B62743   0.942  20.809   6.394
 4918POPC   C2B62744   1.157  20.819   6.813
 4918POPC   C3B62745   1.164  21.066   7.205
 4918POPC   C4B62746   1.149  21.056   7.689
 4919POPC   NC362747  36.075  38.190   5.321
 4919POPC   PO462748  36.171  38.865   5.249
 4919POPC   GL162749  36.119  38.657   5.726
 4919POPC   GL262750  35.921  38.309   5.793
 4919POPC   C1A62751  36.318  38.732   6.171
 4919POPC   D2A62752  36.445  38.471   6.544
 4919POPC   C3A62753  36.334  38.707   6.887
 4919POPC   C4A62754  36.447  38.758   7.304
 4919POPC   C1B62755  36.080  38.294   6.222
 4919POPC   C2B62756  35.946  38.447   6.621
 4919POPC   C3B62757  36.062  38.312   7.027
 4919POPC   C4B62758  36.057  38.452   7.451
 4920POPC   NC362759  44.808  36.380   5.609
 4920POPC   PO462760  44.289  35.944   5.290
 4920POPC   GL162761  44.425  36.070   5.743
 4920POPC   GL262762  44.321  36.419   5.776
 4920POPC   C1A62763  44.613  35.854   6.155
 4920POPC   D2A62764  44.631  35.680   6.577
 4920POPC   C3A62765  44.842  35.882   6.891
 4920POPC   C4A62766  44.706  35.982   7.285
 4920POPC   C1B62767  44.575  36.349   6.193
 4920POPC   C2B62768  44.734  36.354   6.624
 4920POPC   C3B62769  44.787  36.460   7.068
 4920POPC   C4B62770  44.730  36.580   7.523
 4921POPC   NC362771   3.221  14.178   5.628
 4921POPC   PO462772   3.484  13.590   5.393
 4921POPC   GL162773   3.513  13.762   5.802
 4921POPC   GL262774   3.852  13.848   5.784
 4921POPC   C1A62775   3.275  13.757   6.206
 4921POPC   D2A62776   3.105  13.541   6.580
 4921POPC   C3A62777   3.321  13.544   6.955
 4921POPC   C4A62778   3.506  13.187   7.124
 4921POPC   C1B62779   3.821  13.549   6.154
 4921POPC   C2B62780   3.648  13.550   6.517
 4921POPC   C3B62781   3.835  13.497   6.891
 4921POPC   C4B62782   3.752  13.752   7.199
 4922POPC   NC362783  20.758  14.037   5.487
 4922POPC   PO462784  20.466  13.508   5.514
 4922POPC   GL162785  20.309  13.531   5.916
 4922POPC   GL262786  20.365  13.192   5.938
 4922POPC   C1A62787  20.512  13.724   6.304
 4922POPC   D2A62788  20.909  13.860   6.560
 4922POPC   C3A62789  20.793  13.892   6.998
 4922POPC   C4A62790  20.358  13.858   7.139
 4922POPC   C1B62791  20.800  13.345   6.085
 4922POPC   C2B62792  20.964  13.320   6.519
 4922POPC   C3B62793  20.914  13.377   6.977
 4922POPC   C4B62794  20.512  13.354   7.229
 4923POPC   NC362795  18.940   7.671   5.401
 4923POPC   PO462796  19.483   7.350   5.755
 4923POPC   GL162797  19.193   7.402   6.057
 4923POPC   GL262798  18.962   7.561   5.896
 4923POPC   C1A62799  18.834   7.142   6.184
 4923POPC   D2A62800  18.704   7.142   6.560
 4923POPC   C3A62801  19.046   7.101   6.823
 4923POPC   C4A62802  18.986   7.137   7.230
 4923POPC   C1B62803  18.703   7.620   6.259
 4923POPC   C2B62804  18.686   7.632   6.690
 4923POPC   C3B62805  18.689   7.537   7.102
 4923POPC   C4B62806  18.914   7.819   7.415
 4924POPC   NC362807   9.608  39.317   5.222
 4924POPC   PO462808   9.355  39.838   5.511
 4924POPC   GL162809   9.727  39.495   5.685
 4924POPC   GL262810   9.605  39.174   5.728
 4924POPC   C1A62811  10.020  39.288   6.046
 4924POPC   D2A62812   9.924  39.141   6.498
 4924POPC   C3A62813  10.118  39.265   6.904
 4924POPC   C4A62814  10.036  39.239   7.370
 4924POPC   C1B62815   9.513  39.140   6.166
 4924POPC   C2B62816   9.417  39.003   6.607
 4924POPC   C3B62817   9.612  39.118   7.034
 4924POPC   C4B62818   9.635  38.972   7.495
 4925POPC   NC362819   4.677  34.001   5.604
 4925POPC   PO462820   5.418  34.142   5.568
 4925POPC   GL162821   5.144  33.987   5.831
 4925POPC   GL262822   5.086  33.663   5.733
 4925POPC   C1A62823   4.974  34.087   6.234
 4925POPC   D2A62824   4.838  33.853   6.588
 4925POPC   C3A62825   4.944  33.972   6.973
 4925POPC   C4A62826   5.141  33.995   7.361
 4925POPC   C1B62827   4.982  33.540   6.178
 4925POPC   C2B62828   5.021  33.369   6.613
 4925POPC   C3B62829   5.134  33.484   7.010
 4925POPC   C4B62830   4.931  33.538   7.386
 4926POPC   NC362831  22.747  12.980   5.424
 4926POPC   PO462832  23.251  12.553   5.201
 4926POPC   GL162833  23.053  12.582   5.628
 4926POPC   GL262834  23.163  12.889   5.798
 4926POPC   C1A62835  23.055  12.484   6.091
 4926POPC   D2A62836  23.095  12.724   6.461
 4926POPC   C3A62837  23.180  12.683   6.884
 4926POPC   C4A62838  23.129  12.903   7.259
 4926POPC   C1B62839  22.846  12.990   6.109
 4926POPC   C2B62840  22.880  13.175   6.537
 4926POPC   C3B62841  22.784  13.019   6.921
 4926POPC   C4B62842  22.606  13.080   7.326
 4927POPC   NC362843  23.252  18.483   5.404
 4927POPC   PO462844  22.613  18.158   5.430
 4927POPC   GL162845  22.805  18.211   5.799
 4927POPC   GL262846  22.827  18.558   5.824
 4927POPC   C1A62847  22.677  18.215   6.241
 4927POPC   D2A62848  22.827  18.225   6.682
 4927POPC   C3A62849  23.031  18.046   7.083
 4927POPC   C4A62850  23.019  17.910   7.542
 4927POPC   C1B62851  22.714  18.758   6.229
 4927POPC   C2B62852  22.863  18.742   6.657
 4927POPC   C3B62853  22.941  18.563   7.052
 4927POPC   C4B62854  22.815  18.374   7.414
 4928POPC   NC362855  19.788  39.909   5.100
 4928POPC   PO462856  20.202  40.337   5.482
 4928POPC   GL162857  19.848  40.216   5.759
 4928POPC   GL262858  19.869  40.499   5.963
 4928POPC   C1A62859  19.915  40.059   6.211
 4928POPC   D2A62860  20.074  40.077   6.638
 4928POPC   C3A62861  19.794  39.821   6.857
 4928POPC   C4A62862  19.789  39.714   7.275
 4928POPC   C1B62863  19.603  40.438   6.344
 4928POPC   C2B62864  19.624  40.290   6.759
 4928POPC   C3B62865  19.778  40.242   7.169
 4928POPC   C4B62866  19.710  40.543   7.496
 4929POPC   NC362867  32.056  40.448   5.707
 4929POPC   PO462868  32.555  40.787   5.437
 4929POPC   GL162869  32.373  40.814   5.850
 4929POPC   GL262870  32.545  40.495   5.893
 4929POPC   C1A62871  32.093  40.973   6.236
 4929POPC   D2A62872  31.780  40.987   6.612
 4929POPC   C3A62873  32.000  40.892   6.996
 4929POPC   C4A62874  32.372  40.994   7.252
 4929POPC   C1B62875  32.470  40.627   6.321
 4929POPC   C2B62876  32.408  40.720   6.748
 4929POPC   C3B62877  32.560  40.535   7.137
 4929POPC   C4B62878  32.614  40.668   7.571
 4930POPC   NC362879  14.135  12.922   5.264
 4930POPC   PO462880  14.631  12.755   5.684
 4930POPC   GL162881  14.385  12.937   5.961
 4930POPC   GL262882  14.069  13.026   5.783
 4930POPC   C1A62883  14.384  12.631   6.313
 4930POPC   D2A62884  14.581  12.608   6.697
 4930POPC   C3A62885  14.502  12.954   6.913
 4930POPC   C4A62886  14.600  12.774   7.249
 4930POPC   C1B62887  13.939  12.879   6.217
 4930POPC   C2B62888  14.036  12.797   6.667
 4930POPC   C3B62889  14.019  12.975   7.080
 4930POPC   C4B62890  13.842  12.812   7.481
 4931POPC   NC362891  35.747  39.128   5.433
 4931POPC   PO462892  36.390  39.373   5.369
 4931POPC   GL162893  36.250  39.379   5.813
 4931POPC   GL262894  35.974  39.637   5.886
 4931POPC   C1A62895  36.460  39.249   6.202
 4931POPC   D2A62896  36.597  39.006   6.546
 4931POPC   C3A62897  36.519  39.167   6.959
 4931POPC   C4A62898  36.276  39.247   7.319
 4931POPC   C1B62899  35.973  39.457   6.330
 4931POPC   C2B62900  36.083  39.154   6.689
 4931POPC   C3B62901  35.927  38.946   7.093
 4931POPC   C4B62902  35.761  39.200   7.422
 4932POPC   NC362903  26.511  30.690   5.765
 4932POPC   PO462904  27.076  30.575   5.439
 4932POPC   GL162905  26.998  30.815   5.815
 4932POPC   GL262906  26.984  30.460   5.932
 4932POPC   C1A62907  26.886  30.794   6.284
 4932POPC   D2A62908  26.944  30.580   6.653
 4932POPC   C3A62909  26.783  30.783   7.021
 4932POPC   C4A62910  26.968  31.169   7.182
 4932POPC   C1B62911  27.024  30.168   6.278
 4932POPC   C2B62912  26.929  30.072   6.697
 4932POPC   C3B62913  27.025  30.298   7.066
 4932POPC   C4B62914  26.870  30.479   7.446
 4933POPC   NC362915  38.161  15.301   5.129
 4933POPC   PO462916  38.736  15.139   5.592
 4933POPC   GL162917  38.491  15.043   5.889
 4933POPC   GL262918  38.273  14.750   5.782
 4933POPC   C1A62919  38.462  15.306   6.280
 4933POPC   D2A62920  38.304  15.273   6.684
 4933POPC   C3A62921  38.566  15.435   6.967
 4933POPC   C4A62922  38.601  15.110   7.225
 4933POPC   C1B62923  38.132  14.917   6.202
 4933POPC   C2B62924  38.322  14.763   6.585
 4933POPC   C3B62925  38.215  14.863   7.009
 4933POPC   C4B62926  38.124  15.260   7.172
 4934POPC   NC362927   4.706  32.405   5.518
 4934POPC   PO462928   5.389  32.345   5.515
 4934POPC   GL162929   5.265  32.098   5.878
 4934POPC   GL262930   4.889  32.072   5.878
 4934POPC   C1A62931   5.218  32.118   6.334
 4934POPC   D2A62932   5.052  31.984   6.682
 4934POPC   C3A62933   5.233  32.051   7.073
 4934POPC   C4A62934   5.411  32.050   7.454
 4934POPC   C1B62935   4.976  32.492   6.104
 4934POPC   C2B62936   4.921  32.503   6.549
 4934POPC   C3B62937   4.846  32.368   6.959
 4934POPC   C4B62938   4.683  32.582   7.284
 4935POPC   NC362939  15.575  25.023   5.213
 4935POPC   PO462940  14.926  25.204   5.327
 4935POPC   GL162941  15.109  25.025   5.670
 4935POPC   GL262942  15.258  25.319   5.861
 4935POPC   C1A62943  15.126  24.878   6.088
 4935POPC   D2A62944  15.304  25.160   6.390
 4935POPC   C3A62945  15.212  25.097   6.813
 4935POPC   C4A62946  15.250  25.002   7.237
 4935POPC   C1B62947  14.869  25.308   6.111
 4935POPC   C2B62948  14.830  25.327   6.570
 4935POPC   C3B62949  14.921  25.491   7.000
 4935POPC   C4B62950  14.912  25.340   7.418
 4936POPC   NC362951   8.408  40.126   5.142
 4936POPC   PO462952   7.825  39.870   5.463
 4936POPC   GL162953   8.041  40.024   5.787
 4936POPC   GL262954   8.344  40.173   5.661
 4936POPC   C1A62955   7.928  40.158   6.194
 4936POPC   D2A62956   7.950  39.925   6.552
 4936POPC   C3A62957   8.096  40.125   6.906
 4936POPC   C4A62958   7.953  40.023   7.322
 4936POPC   C1B62959   8.427  40.060   6.096
 4936POPC   C2B62960   8.466  39.931   6.524
 4936POPC   C3B62961   8.399  39.723   6.918
 4936POPC   C4B62962   8.407  39.753   7.336
 4937POPC   NC362963  40.261   5.293   5.489
 4937POPC   PO462964  39.694   4.947   5.345
 4937POPC   GL162965  39.937   4.988   5.733
 4937POPC   GL262966  39.832   5.297   5.815
 4937POPC   C1A62967  39.990   4.904   6.193
 4937POPC   D2A62968  40.227   5.045   6.584
 4937POPC   C3A62969  40.143   4.828   6.976
 4937POPC   C4A62970  40.393   4.612   7.288
 4937POPC   C1B62971  39.891   5.408   6.244
 4937POPC   C2B62972  39.768   5.248   6.637
 4937POPC   C3B62973  39.958   5.328   7.014
 4937POPC   C4B62974  40.203   5.197   7.349
 4938POPC   NC362975  30.296  17.186   5.653
 4938POPC   PO462976  30.427  17.847   5.511
 4938POPC   GL162977  29.965  17.733   5.677
 4938POPC   GL262978  29.881  17.426   5.852
 4938POPC   C1A62979  29.846  17.850   6.151
 4938POPC   D2A62980  29.720  17.730   6.588
 4938POPC   C3A62981  29.894  17.811   7.006
 4938POPC   C4A62982  30.008  17.682   7.437
 4938POPC   C1B62983  30.105  17.357   6.266
 4938POPC   C2B62984  30.175  17.493   6.680
 4938POPC   C3B62985  30.016  17.321   7.056
 4938POPC   C4B62986  30.125  17.173   7.449
 4939POPC   NC362987  17.836  32.337   5.347
 4939POPC   PO462988  17.137  32.241   5.382
 4939POPC   GL162989  17.390  32.101   5.773
 4939POPC   GL262990  17.684  32.306   5.833
 4939POPC   C1A62991  17.335  31.977   6.222
 4939POPC   D2A62992  17.217  32.268   6.593
 4939POPC   C3A62993  17.348  32.182   7.046
 4939POPC   C4A62994  17.258  32.385   7.451
 4939POPC   C1B62995  17.592  32.416   6.250
 4939POPC   C2B62996  17.752  32.242   6.618
 4939POPC   C3B62997  17.838  32.342   7.011
 4939POPC   C4B62998  17.744  32.152   7.418
 4940POPC   NC362999  44.723   6.403   5.351
 4940POPC   PO463000  44.555   7.012   5.630
 4940POPC   GL163001  44.517   6.608   5.804
 4940POPC   GL263002  44.838   6.447   5.881
 4940POPC   C1A63003  44.385   6.406   6.175
 4940POPC   D2A63004  44.292   6.406   6.611
 4940POPC   C3A63005  44.623   6.575   6.863
 4940POPC   C4A63006  44.617   6.851   7.206
 4940POPC   C1B63007  44.793   6.772   6.236
 4940POPC   C2B63008   0.091   6.961   6.548
 4940POPC   C3B63009   0.067   6.848   6.973
 4940POPC   C4B63010   0.026   6.462   7.179
 4941POPC   NC363011  27.984  24.696   5.356
 4941POPC   PO463012  28.658  24.365   5.360
 4941POPC   GL163013  28.460  24.332   5.780
 4941POPC   GL263014  28.095  24.414   5.792
 4941POPC   C1A63015  28.511  24.189   6.227
 4941POPC   D2A63016  28.467  24.426   6.633
 4941POPC   C3A63017  28.536  24.413   7.092
 4941POPC   C4A63018  28.468  24.830   7.335
 4941POPC   C1B63019  28.125  24.543   6.247
 4941POPC   C2B63020  27.958  24.588   6.689
 4941POPC   C3B63021  28.052  24.548   7.160
 4941POPC   C4B63022  28.008  24.774   7.556
 4942POPC   NC363023  38.471  25.443   5.526
 4942POPC   PO463024  38.171  24.946   5.755
 4942POPC   GL163025  38.452  25.155   5.949
 4942POPC   GL263026  38.720  24.989   5.770
 4942POPC   C1A63027  38.371  25.491   6.255
 4942POPC   D2A63028  38.103  25.578   6.641
 4942POPC   C3A63029  38.339  25.549   7.032
 4942POPC   C4A63030  38.510  25.434   7.446
 4942POPC   C1B63031  38.871  25.156   6.218
 4942POPC   C2B63032  38.664  25.240   6.644
 4942POPC   C3B63033  38.587  25.104   7.077
 4942POPC   C4B63034  38.751  24.906   7.504
 4943POPC   NC363035  10.912  22.150   5.514
 4943POPC   PO463036  11.515  22.439   5.351
 4943POPC   GL163037  11.449  22.492   5.763
 4943POPC   GL263038  11.607  22.168   5.805
 4943POPC   C1A63039  11.235  22.524   6.180
 4943POPC   D2A63040  10.968  22.268   6.477
 4943POPC   C3A63041  11.120  22.142   6.883
 4943POPC   C4A63042  11.185  22.300   7.279
 4943POPC   C1B63043  11.315  22.015   6.110
 4943POPC   C2B63044  11.470  22.114   6.496
 4943POPC   C3B63045  11.607  21.985   6.889
 4943POPC   C4B63046  11.727  22.017   7.297
 4944POPC   NC363047  43.311  41.334   5.207
 4944POPC   PO463048  42.909  41.776   5.460
 4944POPC   GL163049  42.996  41.844   5.885
 4944POPC   GL263050  43.350  41.752   5.788
 4944POPC   C1A63051  42.990  41.696   6.306
 4944POPC   D2A63052  43.186  41.550   6.682
 4944POPC   C3A63053  42.979  41.779   7.016
 4944POPC   C4A63054  42.817  41.703   7.420
 4944POPC   C1B63055  43.477  41.582   6.210
 4944POPC   C2B63056  43.709  41.692   6.591
 4944POPC   C3B63057  43.520  41.788   6.992
 4944POPC   C4B63058  43.336  41.617   7.347
 4945POPC   NC363059  33.065  26.986   5.337
 4945POPC   PO463060  33.047  26.341   5.278
 4945POPC   GL163061  33.070  26.620   5.743
 4945POPC   GL263062  33.215  26.997   5.817
 4945POPC   C1A63063  32.910  26.507   6.204
 4945POPC   D2A63064  32.819  26.462   6.681
 4945POPC   C3A63065  32.792  26.834   7.020
 4945POPC   C4A63066  32.751  26.972   7.497
 4945POPC   C1B63067  33.302  26.840   6.221
 4945POPC   C2B63068  33.172  26.815   6.636
 4945POPC   C3B63069  33.311  26.909   7.029
 4945POPC   C4B63070  33.121  27.215   7.249
 4946POPC   NC363071   7.298  38.790   5.663
 4946POPC   PO463072   7.057  38.106   5.522
 4946POPC   GL163073   7.172  38.200   5.921
 4946POPC   GL263074   7.225  38.491   6.065
 4946POPC   C1A63075   7.525  38.120   6.229
 4946POPC   D2A63076   7.572  38.414   6.524
 4946POPC   C3A63077   7.691  38.215   6.897
 4946POPC   C4A63078   7.580  38.224   7.320
 4946POPC   C1B63079   7.346  38.851   6.302
 4946POPC   C2B63080   7.611  38.955   6.584
 4946POPC   C3B63081   7.698  38.723   6.907
 4946POPC   C4B63082   7.334  38.631   7.159
 4947POPC   NC363083  19.026  19.305   5.400
 4947POPC   PO463084  19.185  18.614   5.520
 4947POPC   GL163085  18.943  18.933   5.747
 4947POPC   GL263086  19.104  19.278   5.888
 4947POPC   C1A63087  18.744  19.039   6.136
 4947POPC   D2A63088  18.995  19.238   6.449
 4947POPC   C3A63089  19.082  18.951   6.769
 4947POPC   C4A63090  18.833  18.914   7.108
 4947POPC   C1B63091  19.277  18.947   6.144
 4947POPC   C2B63092  19.496  19.085   6.499
 4947POPC   C3B63093  19.413  19.312   6.875
 4947POPC   C4B63094  19.490  19.278   7.313
 4948POPC   NC363095  17.752   1.914   5.338
 4948POPC   PO463096  17.194   2.250   5.448
 4948POPC   GL163097  17.409   2.217   5.850
 4948POPC   GL263098  17.484   1.852   5.816
 4948POPC   C1A63099  17.685   2.106   6.238
 4948POPC   D2A63100  17.788   1.920   6.669
 4948POPC   C3A63101  17.649   2.210   6.994
 4948POPC   C4A63102  17.346   2.322   7.310
 4948POPC   C1B63103  17.225   1.859   6.189
 4948POPC   C2B63104  17.282   2.075   6.585
 4948POPC   C3B63105  17.259   1.901   6.989
 4948POPC   C4B63106  17.136   1.845   7.383
 4949POPC   NC363107  25.894  30.958   5.191
 4949POPC   PO463108  26.304  30.428   5.439
 4949POPC   GL163109  25.971  30.594   5.745
 4949POPC   GL263110  25.642  30.410   5.667
 4949POPC   C1A63111  26.028  30.814   6.198
 4949POPC   D2A63112  26.344  30.980   6.522
 4949POPC   C3A63113  26.246  30.825   6.942
 4949POPC   C4A63114  26.344  30.595   7.300
 4949POPC   C1B63115  25.530  30.488   6.093
 4949POPC   C2B63116  25.683  30.559   6.509
 4949POPC   C3B63117  25.679  30.742   6.908
 4949POPC   C4B63118  25.550  30.483   7.221
 4950POPC   NC363119  33.046  21.433   5.362
 4950POPC   PO463120  33.246  22.082   5.278
 4950POPC   GL163121  33.333  21.704   5.683
 4950POPC   GL263122  33.342  21.276   5.717
 4950POPC   C1A63123  33.301  21.565   6.161
 4950POPC   D2A63124  33.394  21.631   6.634
 4950POPC   C3A63125  33.104  21.531   7.007
 4950POPC   C4A63126  33.137  21.450   7.464
 4950POPC   C1B63127  33.313  21.037   6.094
 4950POPC   C2B63128  33.266  21.134   6.527
 4950POPC   C3B63129  33.266  21.045   6.954
 4950POPC   C4B63130  32.937  21.024   7.233
 4951POPC   NC363131  19.037   9.189   5.378
 4951POPC   PO463132  18.955   8.496   5.501
 4951POPC   GL163133  18.845   8.879   5.787
 4951POPC   GL263134  19.154   9.092   5.890
 4951POPC   C1A63135  18.752   9.118   6.209
 4951POPC   D2A63136  18.831   9.164   6.686
 4951POPC   C3A63137  18.948   9.025   7.132
 4951POPC   C4A63138  19.277   8.744   7.317
 4951POPC   C1B63139  19.289   9.138   6.357
 4951POPC   C2B63140  19.345   9.330   6.784
 4951POPC   C3B63141  19.416   9.254   7.243
 4951POPC   C4B63142  19.349   9.489   7.683
 4952POPC   NC363143  12.091  14.336   5.176
 4952POPC   PO463144  12.559  13.825   5.375
 4952POPC   GL163145  12.255  14.146   5.674
 4952POPC   GL263146  11.946  14.395   5.687
 4952POPC   C1A63147  12.243  14.314   6.152
 4952POPC   D2A63148  12.263  14.579   6.551
 4952POPC   C3A63149  11.967  14.640   6.898
 4952POPC   C4A63150  12.105  14.570   7.309
 4952POPC   C1B63151  11.769  14.169   6.066
 4952POPC   C2B63152  11.792  14.342   6.497
 4952POPC   C3B63153  11.827  14.161   6.925
 4952POPC   C4B63154  11.699  14.072   7.319
 4953POPC   NC363155  42.854  39.693   5.474
 4953POPC   PO463156  43.253  39.086   5.379
 4953POPC   GL163157  43.111  39.131   5.806
 4953POPC   GL263158  43.036  39.473   5.890
 4953POPC   C1A63159  43.275  39.209   6.231
 4953POPC   D2A63160  43.482  39.009   6.545
 4953POPC   C3A63161  43.297  39.100   6.892
 4953POPC   C4A63162  43.419  39.035   7.286
 4953POPC   C1B63163  42.863  39.669   6.270
 4953POPC   C2B63164  42.626  39.780   6.652
 4953POPC   C3B63165  42.776  39.728   7.080
 4953POPC   C4B63166  43.050  39.400   7.222
 4954POPC   NC363167  38.526  30.748   5.542
 4954POPC   PO463168  38.051  31.299   5.521
 4954POPC   GL163169  38.157  30.981   5.864
 4954POPC   GL263170  38.048  30.637   5.735
 4954POPC   C1A63171  38.487  30.862   6.203
 4954POPC   D2A63172  38.590  30.589   6.565
 4954POPC   C3A63173  38.562  30.709   6.990
 4954POPC   C4A63174  38.511  30.835   7.413
 4954POPC   C1B63175  38.111  30.518   6.161
 4954POPC   C2B63176  38.051  30.549   6.605
 4954POPC   C3B63177  38.035  30.746   7.013
 4954POPC   C4B63178  38.218  30.425   7.262
 4955POPC   NC363179   9.970  27.033   5.303
 4955POPC   PO463180   9.550  26.617   5.591
 4955POPC   GL163181   9.786  26.888   5.804
 4955POPC   GL263182   9.499  27.108   5.758
 4955POPC   C1A63183   9.782  26.714   6.230
 4955POPC   D2A63184   9.505  26.462   6.496
 4955POPC   C3A63185   9.754  26.555   6.846
 4955POPC   C4A63186   9.839  26.506   7.264
 4955POPC   C1B63187   9.649  27.213   6.176
 4955POPC   C2B63188   9.877  27.123   6.543
 4955POPC   C3B63189   9.857  27.067   6.955
 4955POPC   C4B63190   9.947  27.007   7.391
 4956POPC   NC363191  42.645  12.533   5.590
 4956POPC   PO463192  42.299  12.082   5.140
 4956POPC   GL163193  42.215  12.072   5.604
 4956POPC   GL263194  42.160  12.390   5.725
 4956POPC   C1A63195  42.378  12.093   6.080
 4956POPC   D2A63196  42.266  12.040   6.525
 4956POPC   C3A63197  42.538  12.033   6.891
 4956POPC   C4A63198  42.326  11.981   7.256
 4956POPC   C1B63199  41.956  12.378   6.115
 4956POPC   C2B63200  41.886  12.480   6.558
 4956POPC   C3B63201  42.092  12.323   6.932
 4956POPC   C4B63202  42.249  12.521   7.287
 4957POPC   NC363203  38.774   7.532   5.285
 4957POPC   PO463204  38.213   7.210   5.422
 4957POPC   GL163205  38.285   7.418   5.828
 4957POPC   GL263206  38.119   7.746   5.812
 4957POPC   C1A63207  38.486   7.639   6.194
 4957POPC   D2A63208  38.458   7.804   6.621
 4957POPC   C3A63209  38.640   7.526   6.928
 4957POPC   C4A63210  38.670   7.450   7.359
 4957POPC   C1B63211  37.979   7.621   6.229
 4957POPC   C2B63212  38.139   7.405   6.630
 4957POPC   C3B63213  38.147   7.501   7.091
 4957POPC   C4B63214  38.145   7.556   7.544
 4958POPC   NC363215   9.471  10.863   5.530
 4958POPC   PO463216   9.076  11.390   5.367
 4958POPC   GL163217   8.939  11.448   5.790
 4958POPC   GL263218   9.016  11.100   5.864
 4958POPC   C1A63219   8.891  11.569   6.236
 4958POPC   D2A63220   8.806  11.381   6.653
 4958POPC   C3A63221   8.883  11.572   7.061
 4958POPC   C4A63222   8.874  11.431   7.473
 4958POPC   C1B63223   8.916  11.013   6.290
 4958POPC   C2B63224   8.630  10.889   6.643
 4958POPC   C3B63225   8.644  10.811   7.098
 4958POPC   C4B63226   8.976  10.940   7.372
 4959POPC   NC363227  36.032  28.158   5.482
 4959POPC   PO463228  35.933  28.821   5.348
 4959POPC   GL163229  36.099  28.572   5.788
 4959POPC   GL263230  36.343  28.308   5.870
 4959POPC   C1A63231  35.956  28.381   6.223
 4959POPC   D2A63232  36.024  28.358   6.681
 4959POPC   C3A63233  35.777  28.134   7.014
 4959POPC   C4A63234  35.611  28.357   7.398
 4959POPC   C1B63235  36.490  28.207   6.273
 4959POPC   C2B63236  36.385  27.942   6.611
 4959POPC   C3B63237  36.308  28.078   7.000
 4959POPC   C4B63238  36.303  28.518   7.113
 4960POPC   NC363239  36.399   3.862   5.415
 4960POPC   PO463240  35.946   3.377   5.067
 4960POPC   GL163241  36.065   3.524   5.586
 4960POPC   GL263242  35.789   3.704   5.776
 4960POPC   C1A63243  36.216   3.553   6.056
 4960POPC   D2A63244  36.123   3.321   6.473
 4960POPC   C3A63245  36.229   3.524   6.881
 4960POPC   C4A63246  36.257   3.714   7.316
 4960POPC   C1B63247  35.724   3.570   6.194
 4960POPC   C2B63248  35.796   3.719   6.577
 4960POPC   C3B63249  35.738   3.600   6.971
 4960POPC   C4B63250  35.770   3.830   7.296
 4961POPC   NC363251  25.029  29.505   5.527
 4961POPC   PO463252  25.530  29.815   5.280
 4961POPC   GL163253  25.364  29.932   5.714
 4961POPC   GL263254  25.682  29.951   5.911
 4961POPC   C1A63255  25.228  29.711   6.126
 4961POPC   D2A63256  25.092  29.856   6.550
 4961POPC   C3A63257  25.209  29.679   6.937
 4961POPC   C4A63258  25.121  29.762   7.375
 4961POPC   C1B63259  25.586  30.019   6.345
 4961POPC   C2B63260  25.572  30.038   6.781
 4961POPC   C3B63261  25.557  29.978   7.205
 4961POPC   C4B63262  25.584  30.162   7.623
 4962POPC   NC363263   3.083  43.886   5.443
 4962POPC   PO463264   2.522  44.174   5.156
 4962POPC   GL163265   2.536  44.091   5.610
 4962POPC   GL263266   2.822  44.182   5.793
 4962POPC   C1A63267   2.480  43.832   6.005
 4962POPC   D2A63268   2.388  43.707   6.437
 4962POPC   C3A63269   2.466  44.009   6.796
 4962POPC   C4A63270   2.424  43.926   7.227
 4962POPC   C1B63271   2.831  44.091   6.269
 4962POPC   C2B63272   2.881  43.757   6.599
 4962POPC   C3B63273   2.890  43.729   7.043
 4962POPC   C4B63274   2.893  44.099   7.312
 4963POPC   NC363275  21.543   1.710   5.348
 4963POPC   PO463276  21.634   2.464   5.398
 4963POPC   GL163277  21.459   2.152   5.679
 4963POPC   GL263278  21.771   2.049   5.761
 4963POPC   C1A63279  21.338   2.106   6.144
 4963POPC   D2A63280  21.181   2.014   6.597
 4963POPC   C3A63281  21.312   2.088   7.045
 4963POPC   C4A63282  21.088   1.950   7.426
 4963POPC   C1B63283  21.717   1.754   6.109
 4963POPC   C2B63284  21.567   1.632   6.529
 4963POPC   C3B63285  21.747   1.856   6.884
 4963POPC   C4B63286  21.842   1.857   7.325
 4964POPC   NC363287   1.431  32.461   5.304
 4964POPC   PO463288   0.949  32.134   5.636
 4964POPC   GL163289   1.284  32.232   5.808
 4964POPC   GL263290   1.320  31.918   5.976
 4964POPC   C1A63291   1.262  32.439   6.186
 4964POPC   D2A63292   1.379  32.595   6.557
 4964POPC   C3A63293   1.242  32.323   6.830
 4964POPC   C4A63294   1.034  32.451   7.172
 4964POPC   C1B63295   1.031  32.016   6.349
 4964POPC   C2B63296   0.979  31.874   6.785
 4964POPC   C3B63297   1.137  31.945   7.202
 4964POPC   C4B63298   1.462  32.215   7.280
 4965POPC   NC363299  39.698  12.405   5.518
 4965POPC   PO463300  40.198  12.001   5.361
 4965POPC   GL163301  40.135  12.196   5.779
 4965POPC   GL263302  39.853  12.131   5.950
 4965POPC   C1A63303  40.291  12.332   6.178
 4965POPC   D2A63304  40.144  12.099   6.512
 4965POPC   C3A63305  40.250  12.160   6.923
 4965POPC   C4A63306  40.036  12.003   7.262
 4965POPC   C1B63307  39.784  12.455   6.277
 4965POPC   C2B63308  39.812  12.430   6.727
 4965POPC   C3B63309  39.640  12.307   7.113
 4965POPC   C4B63310  39.473  12.161   7.523
 4966POPC   NC363311  16.523  12.527   5.506
 4966POPC   PO463312  16.556  13.144   5.255
 4966POPC   GL163313  16.785  12.929   5.726
 4966POPC   GL263314  16.972  12.592   5.777
 4966POPC   C1A63315  16.675  12.845   6.211
 4966POPC   D2A63316  16.556  13.059   6.620
 4966POPC   C3A63317  16.524  12.882   7.038
 4966POPC   C4A63318  16.704  12.853   7.494
 4966POPC   C1B63319  17.153  12.680   6.205
 4966POPC   C2B63320  17.048  12.847   6.619
 4966POPC   C3B63321  17.005  12.716   7.049
 4966POPC   C4B63322  17.164  12.577   7.445
 4967POPC   NC363323  23.375  32.859   5.458
 4967POPC   PO463324  22.664  32.759   5.350
 4967POPC   GL163325  22.923  33.020   5.651
 4967POPC   GL263326  23.080  32.785   5.859
 4967POPC   C1A63327  22.928  33.241   6.071
 4967POPC   D2A63328  22.900  33.067   6.495
 4967POPC   C3A63329  22.729  33.214   6.876
 4967POPC   C4A63330  22.793  32.991   7.245
 4967POPC   C1B63331  22.961  32.626   6.237
 4967POPC   C2B63332  23.223  32.677   6.572
 4967POPC   C3B63333  23.233  32.932   6.913
 4967POPC   C4B63334  23.231  32.752   7.293
 4968POPC   NC363335  13.750   4.022   5.593
 4968POPC   PO463336  13.873   3.494   5.220
 4968POPC   GL163337  13.666   3.481   5.657
 4968POPC   GL263338  13.919   3.623   5.888
 4968POPC   C1A63339  13.576   3.296   6.111
 4968POPC   D2A63340  13.734   3.456   6.535
 4968POPC   C3A63341  13.678   3.224   6.922
 4968POPC   C4A63342  13.633   3.334   7.331
 4968POPC   C1B63343  13.605   3.801   6.185
 4968POPC   C2B63344  13.602   3.958   6.608
 4968POPC   C3B63345  13.548   3.713   6.980
 4968POPC   C4B63346  13.550   3.824   7.425
 4969POPC   NC363347  29.978  24.643   5.437
 4969POPC   PO463348  29.505  24.145   5.638
 4969POPC   GL163349  29.770  24.343   5.921
 4969POPC   GL263350  30.097  24.396   5.861
 4969POPC   C1A63351  29.901  24.247   6.333
 4969POPC   D2A63352  29.634  24.395   6.649
 4969POPC   C3A63353  29.793  24.413   7.014
 4969POPC   C4A63354  29.796  24.524   7.428
 4969POPC   C1B63355  30.268  24.604   6.207
 4969POPC   C2B63356  30.189  24.541   6.651
 4969POPC   C3B63357  30.181  24.744   7.061
 4969POPC   C4B63358  30.290  24.707   7.479
 4970POPC   NC363359  33.038  28.743   5.332
 4970POPC   PO463360  32.729  28.100   5.465
 4970POPC   GL163361  32.909  28.410   5.746
 4970POPC   GL263362  32.709  28.747   5.731
 4970POPC   C1A63363  33.118  28.317   6.142
 4970POPC   D2A63364  33.169  28.102   6.527
 4970POPC   C3A63365  33.179  28.307   6.922
 4970POPC   C4A63366  33.047  28.179   7.344
 4970POPC   C1B63367  32.872  28.768   6.132
 4970POPC   C2B63368  33.011  28.622   6.524
 4970POPC   C3B63369  32.976  28.815   6.885
 4970POPC   C4B63370  33.033  28.687   7.253
 4971POPC   NC363371  42.964   6.287   5.237
 4971POPC   PO463372  43.122   6.993   5.483
 4971POPC   GL163373  43.138   6.865   5.930
 4971POPC   GL263374  43.229   6.527   5.955
 4971POPC   C1A63375  42.926   6.699   6.335
 4971POPC   D2A63376  42.652   6.843   6.701
 4971POPC   C3A63377  42.765   6.724   7.162
 4971POPC   C4A63378  42.894   6.855   7.598
 4971POPC   C1B63379  43.380   6.442   6.343
 4971POPC   C2B63380  43.288   6.605   6.737
 4971POPC   C3B63381  43.207   6.380   7.098
 4971POPC   C4B63382  43.085   6.408   7.519
 4972POPC   NC363383  11.082  32.069   5.527
 4972POPC   PO463384  11.575  32.492   5.411
 4972POPC   GL163385  11.489  32.376   5.832
 4972POPC   GL263386  11.335  32.099   5.940
 4972POPC   C1A63387  11.334  32.515   6.255
 4972POPC   D2A63388  11.167  32.375   6.672
 4972POPC   C3A63389  11.217  32.551   7.086
 4972POPC   C4A63390  11.399  32.469   7.479
 4972POPC   C1B63391  11.226  31.836   6.264
 4972POPC   C2B63392  11.396  31.915   6.659
 4972POPC   C3B63393  11.300  32.024   7.062
 4972POPC   C4B63394  11.102  31.765   7.296
 4973POPC   NC363395  10.917   6.078   5.564
 4973POPC   PO463396  10.450   5.599   5.484
 4973POPC   GL163397  10.578   5.835   5.846
 4973POPC   GL263398  10.336   6.118   5.960
 4973POPC   C1A63399  10.616   5.816   6.280
 4973POPC   D2A63400  10.288   6.029   6.475
 4973POPC   C3A63401  10.307   6.022   6.890
 4973POPC   C4A63402  10.312   5.746   7.213
 4973POPC   C1B63403  10.669   6.313   6.170
 4973POPC   C2B63404  10.935   6.200   6.492
 4973POPC   C3B63405  10.823   6.068   6.878
 4973POPC   C4B63406  10.808   5.747   7.168
 4974POPC   NC363407   9.199  26.613   5.289
 4974POPC   PO463408   8.701  27.046   5.262
 4974POPC   GL163409   8.738  26.823   5.666
 4974POPC   GL263410   9.088  26.760   5.779
 4974POPC   C1A63411   8.758  26.929   6.134
 4974POPC   D2A63412   8.908  26.658   6.485
 4974POPC   C3A63413   8.935  26.882   6.857
 4974POPC   C4A63414   8.940  26.774   7.273
 4974POPC   C1B63415   9.289  26.830   6.192
 4974POPC   C2B63416   9.409  26.935   6.638
 4974POPC   C3B63417   9.413  26.845   7.093
 4974POPC   C4B63418   9.520  26.769   7.531
 4975POPC   NC363419  19.263  27.647   5.259
 4975POPC   PO463420  18.568  27.595   5.436
 4975POPC   GL163421  18.797  27.632   5.842
 4975POPC   GL263422  19.161  27.593   5.786
 4975POPC   C1A63423  18.946  27.786   6.263
 4975POPC   D2A63424  19.105  27.944   6.692
 4975POPC   C3A63425  18.936  27.726   7.071
 4975POPC   C4A63426  18.818  27.296   7.183
 4975POPC   C1B63427  19.100  27.313   6.150
 4975POPC   C2B63428  19.113  27.358   6.613
 4975POPC   C3B63429  19.306  27.378   7.006
 4975POPC   C4B63430  19.439  27.780   7.147
 4976POPC   NC363431  41.169  31.532   5.638
 4976POPC   PO463432  41.798  31.332   5.427
 4976POPC   GL163433  41.653  31.449   5.833
 4976POPC   GL263434  41.484  31.147   5.838
 4976POPC   C1A63435  41.500  31.594   6.257
 4976POPC   D2A63436  41.545  31.821   6.672
 4976POPC   C3A63437  41.557  31.636   7.118
 4976POPC   C4A63438  41.722  31.705   7.571
 4976POPC   C1B63439  41.745  31.097   6.222
 4976POPC   C2B63440  41.700  31.286   6.640
 4976POPC   C3B63441  41.884  31.172   7.017
 4976POPC   C4B63442  41.617  31.083   7.292
 4977POPC   NC363443  16.618  15.249   5.369
 4977POPC   PO463444  17.173  14.960   5.568
 4977POPC   GL163445  16.854  15.148   5.818
 4977POPC   GL263446  16.493  15.022   5.811
 4977POPC   C1A63447  16.749  15.105   6.242
 4977POPC   D2A63448  17.048  14.979   6.506
 4977POPC   C3A63449  16.970  15.068   6.904
 4977POPC   C4A63450  17.174  14.992   7.274
 4977POPC   C1B63451  16.227  15.052   6.190
 4977POPC   C2B63452  16.287  15.276   6.582
 4977POPC   C3B63453  16.354  15.139   7.005
 4977POPC   C4B63454  16.660  15.078   7.307
 4978POPC   NC363455  26.760  23.893   5.519
 4978POPC   PO463456  26.739  24.591   5.403
 4978POPC   GL163457  26.873  24.490   5.788
 4978POPC   GL263458  27.134  24.252   5.655
 4978POPC   C1A63459  26.773  24.660   6.224
 4978POPC   D2A63460  26.765  24.809   6.676
 4978POPC   C3A63461  27.025  24.555   6.958
 4978POPC   C4A63462  27.118  24.578   7.390
 4978POPC   C1B63463  27.185  24.258   6.106
 4978POPC   C2B63464  27.064  24.042   6.456
 4978POPC   C3B63465  26.948  24.058   6.860
 4978POPC   C4B63466  26.854  24.136   7.258
 4979POPC   NC363467  10.309  20.272   5.459
 4979POPC   PO463468  10.808  20.739   5.408
 4979POPC   GL163469  10.827  20.762   5.849
 4979POPC   GL263470  10.501  20.589   5.924
 4979POPC   C1A63471  10.862  20.678   6.299
 4979POPC   D2A63472  10.475  20.593   6.516
 4979POPC   C3A63473  10.468  20.725   6.953
 4979POPC   C4A63474  10.879  20.872   7.113
 4979POPC   C1B63475  10.297  20.226   6.129
 4979POPC   C2B63476  10.136  20.183   6.521
 4979POPC   C3B63477  10.291  20.199   6.915
 4979POPC   C4B63478  10.288  20.364   7.319
 4980POPC   NC363479  30.618  23.874   5.444
 4980POPC   PO463480  30.889  23.190   5.525
 4980POPC   GL163481  30.649  23.469   5.776
 4980POPC   GL263482  30.881  23.745   5.840
 4980POPC   C1A63483  30.510  23.652   6.159
 4980POPC   D2A63484  30.791  23.576   6.479
 4980POPC   C3A63485  30.762  23.742   6.868
 4980POPC   C4A63486  30.674  23.600   7.251
 4980POPC   C1B63487  30.940  24.009   6.190
 4980POPC   C2B63488  31.119  23.985   6.569
 4980POPC   C3B63489  31.027  24.183   6.942
 4980POPC   C4B63490  30.703  24.149   7.212
 4981POPC   NC363491  29.000  32.454   4.945
 4981POPC   PO463492  29.102  31.948   5.384
 4981POPC   GL163493  28.996  32.069   5.785
 4981POPC   GL263494  29.358  32.108   5.840
 4981POPC   C1A63495  29.004  32.312   6.165
 4981POPC   D2A63496  29.176  32.553   6.504
 4981POPC   C3A63497  29.130  32.332   6.893
 4981POPC   C4A63498  29.238  32.406   7.289
 4981POPC   C1B63499  29.538  32.294   6.177
 4981POPC   C2B63500  29.546  32.151   6.561
 4981POPC   C3B63501  29.611  32.179   6.973
 4981POPC   C4B63502  29.377  31.918   7.200
 4982POPC   NC363503  22.763  43.073   5.367
 4982POPC   PO463504  23.309  43.069   5.762
 4982POPC   GL163505  22.921  42.962   5.908
 4982POPC   GL263506  22.593  43.075   5.832
 4982POPC   C1A63507  22.723  43.036   6.320
 4982POPC   D2A63508  22.714  43.277   6.696
 4982POPC   C3A63509  23.107  43.197   6.869
 4982POPC   C4A63510  23.072  43.035   7.236
 4982POPC   C1B63511  22.523  42.655   6.026
 4982POPC   C2B63512  22.487  42.619   6.502
 4982POPC   C3B63513  22.743  42.758   6.889
 4982POPC   C4B63514  22.620  42.761   7.330
 4983POPC   NC363515  20.038  14.212   5.474
 4983POPC   PO463516  19.932  14.839   5.352
 4983POPC   GL163517  19.802  14.601   5.750
 4983POPC   GL263518  19.589  14.293   5.737
 4983POPC   C1A63519  19.944  14.360   6.129
 4983POPC   D2A63520  20.055  14.469   6.534
 4983POPC   C3A63521  20.164  14.235   6.844
 4983POPC   C4A63522  19.984  14.215   7.249
 4983POPC   C1B63523  19.446  14.252   6.159
 4983POPC   C2B63524  19.550  14.487   6.506
 4983POPC   C3B63525  19.608  14.330   6.899
 4983POPC   C4B63526  19.315  14.309   7.253
 4984POPC   NC363527  42.800  30.777   5.461
 4984POPC   PO463528  42.084  30.486   5.452
 4984POPC   GL163529  42.256  30.729   5.781
 4984POPC   GL263530  42.561  30.586   5.862
 4984POPC   C1A63531  42.227  30.758   6.235
 4984POPC   D2A63532  42.191  30.587   6.647
 4984POPC   C3A63533  42.310  30.847   6.985
 4984POPC   C4A63534  42.684  30.816   7.213
 4984POPC   C1B63535  42.562  30.375   6.265
 4984POPC   C2B63536  42.823  30.156   6.557
 4984POPC   C3B63537  42.645  30.438   6.856
 4984POPC   C4B63538  42.294  30.357   7.133
 4985POPC   NC363539   0.257   5.239   5.561
 4985POPC   PO463540   0.745   4.810   5.445
 4985POPC   GL163541   0.609   4.988   5.846
 4985POPC   GL263542   0.867   5.184   5.939
 4985POPC   C1A63543   0.299   4.927   6.195
 4985POPC   D2A63544   0.211   5.152   6.578
 4985POPC   C3A63545   0.230   4.945   6.968
 4985POPC   C4A63546   0.310   5.091   7.394
 4985POPC   C1B63547   0.712   5.230   6.356
 4985POPC   C2B63548   0.704   5.134   6.789
 4985POPC   C3B63549   0.701   5.336   7.187
 4985POPC   C4B63550   0.779   5.197   7.624
 4986POPC   NC363551  37.816  31.861   5.616
 4986POPC   PO463552  37.328  31.460   5.389
 4986POPC   GL163553  37.505  31.532   5.826
 4986POPC   GL263554  37.388  31.841   5.933
 4986POPC   C1A63555  37.689  31.381   6.219
 4986POPC   D2A63556  37.556  31.412   6.659
 4986POPC   C3A63557  37.865  31.341   6.934
 4986POPC   C4A63558  37.829  31.197   7.349
 4986POPC   C1B63559  37.740  31.893   6.238
 4986POPC   C2B63560  37.983  31.708   6.544
 4986POPC   C3B63561  37.780  31.845   6.897
 4986POPC   C4B63562  37.575  31.670   7.222
 4987POPC   NC363563   1.985   5.463   5.369
 4987POPC   PO463564   1.815   6.133   5.366
 4987POPC   GL163565   1.886   5.922   5.763
 4987POPC   GL263566   1.557   6.074   5.826
 4987POPC   C1A63567   2.165   5.828   6.153
 4987POPC   D2A63568   2.248   5.558   6.568
 4987POPC   C3A63569   2.086   5.696   7.000
 4987POPC   C4A63570   2.242   5.982   7.314
 4987POPC   C1B63571   1.750   6.160   6.228
 4987POPC   C2B63572   1.981   6.027   6.599
 4987POPC   C3B63573   1.846   6.153   7.002
 4987POPC   C4B63574   1.802   6.277   7.405
 4988POPC   NC363575   0.510  26.642   5.379
 4988POPC   PO463576   0.035  26.985   5.429
 4988POPC   GL163577   0.307  26.885   5.790
 4988POPC   GL263578   0.644  27.042   5.713
 4988POPC   C1A63579   0.435  26.771   6.234
 4988POPC   D2A63580   0.637  27.048   6.565
 4988POPC   C3A63581   0.466  27.005   6.983
 4988POPC   C4A63582   0.239  26.634   7.124
 4988POPC   C1B63583   0.888  26.920   6.087
 4988POPC   C2B63584   0.867  26.583   6.417
 4988POPC   C3B63585   0.609  26.490   6.789
 4988POPC   C4B63586   0.728  26.540   7.233
 4989POPC   NC363587  37.105  18.357   5.439
 4989POPC   PO463588  36.596  17.990   5.516
 4989POPC   GL163589  36.982  17.964   5.836
 4989POPC   GL263590  37.033  18.326   5.941
 4989POPC   C1A63591  37.014  18.010   6.320
 4989POPC   D2A63592  36.806  18.282   6.624
 4989POPC   C3A63593  36.901  18.166   7.031
 4989POPC   C4A63594  36.584  18.243   7.370
 4989POPC   C1B63595  37.155  18.519   6.355
 4989POPC   C2B63596  37.177  18.571   6.839
 4989POPC   C3B63597  36.986  18.566   7.319
 4989POPC   C4B63598  36.875  18.510   7.773
 4990POPC   NC363599   7.693   2.037   5.401
 4990POPC   PO463600   7.213   1.554   5.244
 4990POPC   GL163601   7.285   1.856   5.659
 4990POPC   GL263602   7.197   2.211   5.733
 4990POPC   C1A63603   7.425   1.913   6.115
 4990POPC   D2A63604   7.357   1.612   6.470
 4990POPC   C3A63605   7.452   1.652   6.921
 4990POPC   C4A63606   7.700   1.805   7.261
 4990POPC   C1B63607   7.062   2.266   6.178
 4990POPC   C2B63608   7.239   2.125   6.568
 4990POPC   C3B63609   7.310   2.161   6.983
 4990POPC   C4B63610   7.075   2.335   7.282
 4991POPC   NC363611   8.368  13.880   5.539
 4991POPC   PO463612   8.072  13.421   5.183
 4991POPC   GL163613   7.913  13.576   5.678
 4991POPC   GL263614   8.072  13.809   5.929
 4991POPC   C1A63615   7.838  13.399   6.125
 4991POPC   D2A63616   7.991  13.238   6.512
 4991POPC   C3A63617   8.041  13.411   6.937
 4991POPC   C4A63618   7.876  13.794   7.110
 4991POPC   C1B63619   8.282  13.766   6.310
 4991POPC   C2B63620   8.190  13.853   6.710
 4991POPC   C3B63621   8.404  13.747   7.055
 4991POPC   C4B63622   8.572  13.734   7.439
 4992POPC   NC363623  31.409   4.514   5.104
 4992POPC   PO463624  31.506   5.154   5.358
 4992POPC   GL163625  31.477   4.946   5.809
 4992POPC   GL263626  31.492   5.232   5.914
 4992POPC   C1A63627  31.184   5.002   6.224
 4992POPC   D2A63628  31.253   4.838   6.632
 4992POPC   C3A63629  31.513   4.734   6.999
 4992POPC   C4A63630  31.305   4.742   7.452
 4992POPC   C1B63631  31.684   5.026   6.289
 4992POPC   C2B63632  31.709   5.161   6.719
 4992POPC   C3B63633  31.678   5.177   7.173
 4992POPC   C4B63634  31.779   5.240   7.605
 4993POPC   NC363635  18.493  17.074   5.556
 4993POPC   PO463636  18.185  17.711   5.436
 4993POPC   GL163637  18.284  17.503   5.820
 4993POPC   GL263638  18.088  17.179   5.853
 4993POPC   C1A63639  18.509  17.605   6.190
 4993POPC   D2A63640  18.534  17.436   6.613
 4993POPC   C3A63641  18.360  17.718   6.903
 4993POPC   C4A63642  18.185  17.686   7.297
 4993POPC   C1B63643  18.126  17.258   6.283
 4993POPC   C2B63644  18.171  17.088   6.665
 4993POPC   C3B63645  18.162  17.257   7.023
 4993POPC   C4B63646  18.314  17.186   7.388
 4994POPC   NC363647  40.484  16.826   5.575
 4994POPC   PO463648  40.959  16.473   5.173
 4994POPC   GL163649  40.918  16.592   5.688
 4994POPC   GL263650  40.639  16.505   5.921
 4994POPC   C1A63651  40.908  16.919   6.072
 4994POPC   D2A63652  40.965  16.905   6.525
 4994POPC   C3A63653  40.784  17.036   6.930
 4994POPC   C4A63654  40.907  16.873   7.330
 4994POPC   C1B63655  40.512  16.675   6.292
 4994POPC   C2B63656  40.440  16.692   6.710
 4994POPC   C3B63657  40.490  16.609   7.129
 4994POPC   C4B63658  40.219  16.793   7.373
 4995POPC   NC363659  37.893  17.752   5.389
 4995POPC   PO463660  37.495  17.215   5.451
 4995POPC   GL163661  37.679  17.447   5.783
 4995POPC   GL263662  37.521  17.741   5.819
 4995POPC   C1A63663  37.858  17.528   6.205
 4995POPC   D2A63664  38.084  17.659   6.593
 4995POPC   C3A63665  37.830  17.706   6.983
 4995POPC   C4A63666  37.867  17.564   7.423
 4995POPC   C1B63667  37.355  17.645   6.217
 4995POPC   C2B63668  37.500  17.499   6.605
 4995POPC   C3B63669  37.341  17.484   6.992
 4995POPC   C4B63670  37.378  17.766   7.291
 4996POPC   NC363671  16.547  34.836   5.506
 4996POPC   PO463672  16.416  34.188   5.483
 4996POPC   GL163673  16.674  34.436   5.830
 4996POPC   GL263674  16.920  34.765   5.850
 4996POPC   C1A63675  16.783  34.526   6.277
 4996POPC   D2A63676  16.701  34.401   6.688
 4996POPC   C3A63677  16.591  34.713   6.990
 4996POPC   C4A63678  16.656  34.634   7.399
 4996POPC   C1B63679  17.152  34.910   6.243
 4996POPC   C2B63680  17.032  34.816   6.697
 4996POPC   C3B63681  17.090  34.781   7.158
 4996POPC   C4B63682  17.091  34.830   7.608
 4997POPC   NC363683  29.951   8.032   5.380
 4997POPC   PO463684  29.637   8.596   5.646
 4997POPC   GL163685  29.957   8.381   5.867
 4997POPC   GL263686  29.976   8.025   5.895
 4997POPC   C1A63687  29.977   8.340   6.309
 4997POPC   D2A63688  29.842   8.427   6.710
 4997POPC   C3A63689  30.087   8.191   6.972
 4997POPC   C4A63690  30.049   8.041   7.375
 4997POPC   C1B63691  29.761   7.865   6.249
 4997POPC   C2B63692  29.532   7.985   6.626
 4997POPC   C3B63693  29.597   8.092   7.066
 4997POPC   C4B63694  29.606   7.818   7.462
 4998POPC   NC363695  31.496  19.384   5.596
 4998POPC   PO463696  31.481  20.039   5.485
 4998POPC   GL163697  31.465  19.999   5.869
 4998POPC   GL263698  31.307  19.692   5.943
 4998POPC   C1A63699  31.748  20.069   6.188
 4998POPC   D2A63700  31.676  20.252   6.587
 4998POPC   C3A63701  31.629  20.014   6.984
 4998POPC   C4A63702  31.894  19.866   7.304
 4998POPC   C1B63703  31.301  19.877   6.361
 4998POPC   C2B63704  31.226  19.752   6.788
 4998POPC   C3B63705  31.156  19.853   7.224
 4998POPC   C4B63706  31.191  19.603   7.662
 4999POPC   NC363707  29.782   7.211   5.469
 4999POPC   PO463708  30.236   7.706   5.592
 4999POPC   GL163709  29.976   7.495   5.883
 4999POPC   GL263710  30.062   7.143   5.876
 4999POPC   C1A63711  29.964   7.398   6.330
 4999POPC   D2A63712  29.716   7.505   6.663
 4999POPC   C3A63713  29.868   7.648   7.053
 4999POPC   C4A63714  29.693   7.314   7.277
 4999POPC   C1B63715  30.178   6.952   6.233
 4999POPC   C2B63716  30.265   7.057   6.619
 4999POPC   C3B63717  30.148   7.236   6.978
 4999POPC   C4B63718  30.138   7.072   7.369
 5000POPC   NC363719  39.338  24.986   5.329
 5000POPC   PO463720  38.844  25.399   5.247
 5000POPC   GL163721  39.095  25.309   5.660
 5000POPC   GL263722  39.187  25.603   5.883
 5000POPC   C1A63723  39.348  25.160   6.008
 5000POPC   D2A63724  39.384  25.289   6.449
 5000POPC   C3A63725  39.281  25.189   6.900
 5000POPC   C4A63726  39.472  25.368   7.295
 5000POPC   C1B63727  39.032  25.645   6.275
 5000POPC   C2B63728  39.042  25.585   6.684
 5000POPC   C3B63729  38.858  25.589   7.058
 5000POPC   C4B63730  38.983  25.311   7.331
 5001POPC   NC363731  23.230  31.105   5.652
 5001POPC   PO463732  22.735  30.828   5.278
 5001POPC   GL163733  22.794  30.715   5.763
 5001POPC   GL263734  22.634  30.400   5.871
 5001POPC   C1A63735  23.004  30.719   6.202
 5001POPC   D2A63736  23.218  30.853   6.603
 5001POPC   C3A63737  23.133  30.733   7.035
 5001POPC   C4A63738  23.112  30.997   7.421
 5001POPC   C1B63739  22.535  30.534   6.268
 5001POPC   C2B63740  22.674  30.784   6.646
 5001POPC   C3B63741  22.611  30.669   7.093
 5001POPC   C4B63742  22.611  30.594   7.559
 5002POPC   NC363743  30.418   4.518   5.239
 5002POPC   PO463744  31.064   4.232   5.228
 5002POPC   GL163745  30.789   4.230   5.606
 5002POPC   GL263746  30.511   4.432   5.715
 5002POPC   C1A63747  30.851   4.219   6.048
 5002POPC   D2A63748  30.628   4.107   6.419
 5002POPC   C3A63749  30.752   4.173   6.808
 5002POPC   C4A63750  30.728   4.174   7.233
 5002POPC   C1B63751  30.411   4.505   6.130
 5002POPC   C2B63752  30.331   4.461   6.588
 5002POPC   C3B63753  30.313   4.372   7.012
 5002POPC   C4B63754  30.316   4.517   7.431
 5003POPC   NC363755  39.685   6.048   5.178
 5003POPC   PO463756  40.292   5.761   5.336
 5003POPC   GL163757  40.234   6.039   5.683
 5003POPC   GL263758  40.007   5.792   5.854
 5003POPC   C1A63759  40.326   6.087   6.140
 5003POPC   D2A63760  40.181   6.339   6.529
 5003POPC   C3A63761  40.181   6.120   6.900
 5003POPC   C4A63762  39.995   6.193   7.287
 5003POPC   C1B63763  39.840   5.930   6.276
 5003POPC   C2B63764  39.810   5.763   6.702
 5003POPC   C3B63765  39.730   5.791   7.134
 5003POPC   C4B63766  39.838   5.570   7.487
 5004POPC   NC363767   9.279  22.954   5.371
 5004POPC   PO463768   8.652  22.943   5.413
 5004POPC   GL163769   8.855  22.974   5.812
 5004POPC   GL263770   8.874  22.621   5.814
 5004POPC   C1A63771   9.132  22.889   6.187
 5004POPC   D2A63772   9.319  23.060   6.547
 5004POPC   C3A63773   9.203  22.953   6.961
 5004POPC   C4A63774   8.912  23.127   7.237
 5004POPC   C1B63775   8.686  22.653   6.216
 5004POPC   C2B63776   8.819  22.810   6.619
 5004POPC   C3B63777   8.822  22.616   7.027
 5004POPC   C4B63778   8.633  22.768   7.427
 5005POPC   NC363779   5.583  15.345   5.572
 5005POPC   PO463780   5.860  14.889   5.254
 5005POPC   GL163781   5.983  15.086   5.702
 5005POPC   GL263782   6.189  15.409   5.639
 5005POPC   C1A63783   5.796  15.205   6.151
 5005POPC   D2A63784   5.546  15.109   6.523
 5005POPC   C3A63785   5.719  15.266   6.893
 5005POPC   C4A63786   5.627  15.141   7.315
 5005POPC   C1B63787   6.268  15.394   6.075
 5005POPC   C2B63788   6.177  15.328   6.495
 5005POPC   C3B63789   6.177  15.060   6.814
 5005POPC   C4B63790   6.122  15.209   7.195
 5006POPC   NC363791  33.734   3.215   5.261
 5006POPC   PO463792  33.477   3.782   5.391
 5006POPC   GL163793  33.692   3.713   5.747
 5006POPC   GL263794  33.771   3.374   5.764
 5006POPC   C1A63795  33.892   3.864   6.108
 5006POPC   D2A63796  33.926   3.653   6.511
 5006POPC   C3A63797  33.696   3.784   6.894
 5006POPC   C4A63798  33.855   3.813   7.322
 5006POPC   C1B63799  33.532   3.474   6.163
 5006POPC   C2B63800  33.538   3.306   6.576
 5006POPC   C3B63801  33.831   3.293   6.933
 5006POPC   C4B63802  33.650   3.367   7.345
 5007POPC   NC363803   0.140   9.477   5.405
 5007POPC   PO463804  44.838  10.049   5.307
 5007POPC   GL163805  44.693   9.820   5.694
 5007POPC   GL263806  44.674   9.438   5.698
 5007POPC   C1A63807  44.422   9.854   6.086
 5007POPC   D2A63808  44.309   9.878   6.530
 5007POPC   C3A63809  44.585  10.001   6.851
 5007POPC   C4A63810  44.714   9.819   7.237
 5007POPC   C1B63811  44.815   9.504   6.108
 5007POPC   C2B63812  44.782   9.656   6.523
 5007POPC   C3B63813   0.006   9.579   6.894
 5007POPC   C4B63814  44.925   9.340   7.245
 5008POPC   NC363815  29.497  31.715   5.399
 5008POPC   PO463816  30.079  31.398   5.381
 5008POPC   GL163817  29.943  31.548   5.765
 5008POPC   GL263818  29.813  31.880   5.755
 5008POPC   C1A63819  30.105  31.509   6.196
 5008POPC   D2A63820  29.979  31.301   6.579
 5008POPC   C3A63821  30.199  31.461   6.914
 5008POPC   C4A63822  30.233  31.636   7.325
 5008POPC   C1B63823  29.625  31.681   6.142
 5008POPC   C2B63824  29.514  31.543   6.564
 5008POPC   C3B63825  29.687  31.538   7.002
 5008POPC   C4B63826  29.741  31.671   7.460
 5009POPC   NC363827  44.017  32.809   5.550
 5009POPC   PO463828  44.226  33.526   5.518
 5009POPC   GL163829  44.079  33.243   5.853
 5009POPC   GL263830  44.232  32.912   5.988
 5009POPC   C1A63831  43.873  33.268   6.250
 5009POPC   D2A63832  43.890  33.286   6.702
 5009POPC   C3A63833  43.575  33.128   6.957
 5009POPC   C4A63834  43.618  32.899   7.327
 5009POPC   C1B63835  44.267  32.511   6.219
 5009POPC   C2B63836  44.124  32.497   6.634
 5009POPC   C3B63837  44.092  32.849   6.900
 5009POPC   C4B63838  44.147  32.873   7.308
 5010POPC   NC363839   4.018  13.840   5.228
 5010POPC   PO463840   4.441  13.305   5.448
 5010POPC   GL163841   4.312  13.643   5.730
 5010POPC   GL263842   4.589  13.834   5.815
 5010POPC   C1A63843   4.221  13.858   6.148
 5010POPC   D2A63844   4.153  13.716   6.548
 5010POPC   C3A63845   4.197  13.904   6.952
 5010POPC   C4A63846   4.240  13.634   7.294
 5010POPC   C1B63847   4.644  13.546   6.126
 5010POPC   C2B63848   4.524  13.355   6.485
 5010POPC   C3B63849   4.560  13.530   6.868
 5010POPC   C4B63850   4.668  13.319   7.253
 5011POPC   NC363851   7.658  20.288   5.415
 5011POPC   PO463852   7.273  20.921   5.521
 5011POPC   GL163853   7.397  20.605   5.794
 5011POPC   GL263854   7.298  20.843   6.032
 5011POPC   C1A63855   7.348  20.318   6.182
 5011POPC   D2A63856   7.322  20.048   6.570
 5011POPC   C3A63857   7.308  20.233   6.986
 5011POPC   C4A63858   7.609  20.533   7.170
 5011POPC   C1B63859   7.583  20.758   6.313
 5011POPC   C2B63860   7.456  20.596   6.658
 5011POPC   C3B63861   7.500  20.934   6.893
 5011POPC   C4B63862   7.490  21.065   7.279
 5012POPC   NC363863  28.204  32.985   5.235
 5012POPC   PO463864  28.563  33.363   5.675
 5012POPC   GL163865  28.474  32.934   5.852
 5012POPC   GL263866  28.166  32.742   5.717
 5012POPC   C1A63867  28.389  32.914   6.320
 5012POPC   D2A63868  28.525  32.831   6.757
 5012POPC   C3A63869  28.621  33.275   6.967
 5012POPC   C4A63870  28.523  33.436   7.402
 5012POPC   C1B63871  28.001  33.069   5.992
 5012POPC   C2B63872  27.914  33.046   6.434
 5012POPC   C3B63873  28.147  33.158   6.766
 5012POPC   C4B63874  28.231  33.023   7.183
 5013POPC   NC363875  26.079  32.693   5.385
 5013POPC   PO463876  26.108  33.322   5.390
 5013POPC   GL163877  25.847  33.148   5.702
 5013POPC   GL263878  26.166  33.003   5.817
 5013POPC   C1A63879  25.704  33.338   6.102
 5013POPC   D2A63880  25.869  33.383   6.507
 5013POPC   C3A63881  25.831  33.051   6.800
 5013POPC   C4A63882  25.524  33.207   7.093
 5013POPC   C1B63883  26.062  32.964   6.241
 5013POPC   C2B63884  26.307  33.118   6.558
 5013POPC   C3B63885  26.380  32.980   6.934
 5013POPC   C4B63886  26.091  32.784   7.212
 5014POPC   NC363887   0.816  17.412   5.640
 5014POPC   PO463888   0.247  17.578   5.224
 5014POPC   GL163889   0.321  17.510   5.687
 5014POPC   GL263890   0.235  17.164   5.705
 5014POPC   C1A63891   0.456  17.456   6.161
 5014POPC   D2A63892   0.602  17.291   6.577
 5014POPC   C3A63893   0.555  17.529   6.995
 5014POPC   C4A63894   0.269  17.659   7.338
 5014POPC   C1B63895   0.021  17.216   6.102
 5014POPC   C2B63896   0.149  17.037   6.511
 5014POPC   C3B63897   0.213  17.159   6.918
 5014POPC   C4B63898  44.991  17.230   7.298
 5015POPC   NC363899   4.367  19.438   5.029
 5015POPC   PO463900   4.399  20.012   5.362
 5015POPC   GL163901   4.550  20.082   5.769
 5015POPC   GL263902   4.273  19.833   5.846
 5015POPC   C1A63903   4.598  19.976   6.206
 5015POPC   D2A63904   4.323  19.735   6.460
 5015POPC   C3A63905   4.351  19.867   6.883
 5015POPC   C4A63906   4.349  19.818   7.308
 5015POPC   C1B63907   3.995  19.550   6.074
 5015POPC   C2B63908   3.908  19.428   6.521
 5015POPC   C3B63909   3.751  19.527   6.966
 5015POPC   C4B63910   3.935  19.543   7.414
 5016POPC   NC363911  31.227  11.550   5.525
 5016POPC   PO463912  31.561  11.058   5.341
 5016POPC   GL163913  31.370  11.077   5.733
 5016POPC   GL263914  31.569  11.304   5.928
 5016POPC   C1A63915  31.180  11.027   6.140
 5016POPC   D2A63916  31.374  10.990   6.534
 5016POPC   C3A63917  31.401  11.312   6.835
 5016POPC   C4A63918  31.323  11.065   7.185
 5016POPC   C1B63919  31.381  11.503   6.310
 5016POPC   C2B63920  31.187  11.765   6.643
 5016POPC   C3B63921  31.278  11.824   7.093
 5016POPC   C4B63922  31.518  11.501   7.331
 5017POPC   NC363923  20.932  40.490   5.563
 5017POPC   PO463924  20.566  40.993   5.195
 5017POPC   GL163925  20.538  40.920   5.653
 5017POPC   GL263926  20.367  41.128   5.854
 5017POPC   C1A63927  20.468  40.683   6.055
 5017POPC   D2A63928  20.408  40.734   6.525
 5017POPC   C3A63929  20.647  40.660   6.906
 5017POPC   C4A63930  20.747  40.639   7.335
 5017POPC   C1B63931  20.582  41.139   6.250
 5017POPC   C2B63932  20.880  41.020   6.594
 5017POPC   C3B63933  20.909  41.085   7.063
 5017POPC   C4B63934  20.770  41.128   7.510
 5018POPC   NC363935  31.908  33.614   5.421
 5018POPC   PO463936  32.591  33.483   5.526
 5018POPC   GL163937  32.267  33.715   5.787
 5018POPC   GL263938  32.060  34.031   5.676
 5018POPC   C1A63939  32.322  33.798   6.224
 5018POPC   D2A63940  32.277  33.954   6.638
 5018POPC   C3A63941  31.963  33.770   6.843
 5018POPC   C4A63942  32.097  33.572   7.184
 5018POPC   C1B63943  31.955  34.155   6.106
 5018POPC   C2B63944  31.861  34.239   6.550
 5018POPC   C3B63945  32.013  34.247   7.012
 5018POPC   C4B63946  31.989  34.042   7.448
 5019POPC   NC363947  16.138  17.293   5.141
 5019POPC   PO463948  15.898  17.842   5.365
 5019POPC   GL163949  16.050  17.550   5.704
 5019POPC   GL263950  15.786  17.306   5.690
 5019POPC   C1A63951  16.164  17.647   6.147
 5019POPC   D2A63952  15.904  17.758   6.504
 5019POPC   C3A63953  16.061  17.590   6.883
 5019POPC   C4A63954  16.097  17.780   7.280
 5019POPC   C1B63955  15.688  17.435   6.127
 5019POPC   C2B63956  15.810  17.239   6.511
 5019POPC   C3B63957  15.767  17.176   6.931
 5019POPC   C4B63958  15.658  17.504   7.249
 5020POPC   NC363959  36.312   2.951   5.394
 5020POPC   PO463960  36.134   2.345   5.652
 5020POPC   GL163961  36.046   2.758   5.862
 5020POPC   GL263962  36.288   3.030   5.898
 5020POPC   C1A63963  36.051   2.830   6.316
 5020POPC   D2A63964  36.062   2.494   6.615
 5020POPC   C3A63965  36.002   2.604   7.041
 5020POPC   C4A63966  35.937   3.080   7.097
 5020POPC   C1B63967  36.492   2.631   6.133
 5020POPC   C2B63968  36.547   2.671   6.575
 5020POPC   C3B63969  36.339   2.959   6.823
 5020POPC   C4B63970  36.431   3.195   7.211
 5021POPC   NC363971  14.947  33.186   5.473
 5021POPC   PO463972  15.147  32.597   5.341
 5021POPC   GL163973  15.328  32.821   5.774
 5021POPC   GL263974  15.131  33.117   5.936
 5021POPC   C1A63975  15.482  32.941   6.250
 5021POPC   D2A63976  15.384  33.178   6.672
 5021POPC   C3A63977  15.278  32.931   7.092
 5021POPC   C4A63978  15.031  32.949   7.517
 5021POPC   C1B63979  14.965  33.097   6.363
 5021POPC   C2B63980  14.878  33.038   6.801
 5021POPC   C3B63981  14.952  33.333   7.117
 5021POPC   C4B63982  14.682  33.621   7.316
 5022POPC   NC363983  15.743  13.026   5.371
 5022POPC   PO463984  16.294  12.902   5.697
 5022POPC   GL163985  15.894  12.813   5.831
 5022POPC   GL263986  15.796  12.544   5.613
 5022POPC   C1A63987  15.861  12.856   6.277
 5022POPC   D2A63988  16.109  12.783   6.665
 5022POPC   C3A63989  16.009  12.996   7.007
 5022POPC   C4A63990  15.839  13.125   7.350
 5022POPC   C1B63991  15.703  12.397   6.063
 5022POPC   C2B63992  15.679  12.417   6.546
 5022POPC   C3B63993  15.803  12.476   6.987
 5022POPC   C4B63994  15.701  12.650   7.390
 5023POPC   NC363995  27.846  43.685   5.368
 5023POPC   PO463996  27.517  44.223   5.468
 5023POPC   GL163997  27.522  43.993   5.862
 5023POPC   GL263998  27.270  43.739   5.905
 5023POPC   C1A63999  27.723  43.909   6.260
 5023POPC   D2A64000  28.010  43.938   6.630
 5023POPC   C3A64001  27.767  43.918   7.018
 5023POPC   C4A64002  27.815  43.810   7.426
 5023POPC   C1B64003  27.208  43.966   6.339
 5023POPC   C2B64004  27.061  44.198   6.737
 5023POPC   C3B64005  27.259  44.408   7.110
 5023POPC   C4B64006  27.483  44.186   7.465
 5024POPC   NC364007  22.222  36.671   5.374
 5024POPC   PO464008  21.946  36.061   5.659
 5024POPC   GL164009  22.209  36.164   5.920
 5024POPC   GL264010  22.318  36.470   5.832
 5024POPC   C1A64011  22.304  36.011   6.309
 5024POPC   D2A64012  22.062  35.860   6.616
 5024POPC   C3A64013  22.235  36.003   6.962
 5024POPC   C4A64014  21.921  35.961   7.242
 5024POPC   C1B64015  22.303  36.516   6.268
 5024POPC   C2B64016  22.086  36.410   6.635
 5024POPC   C3B64017  22.041  36.449   7.088
 5024POPC   C4B64018  22.465  36.405   7.260
 5025POPC   NC364019  42.668   7.035   5.563
 5025POPC   PO464020  42.955   7.585   5.195
 5025POPC   GL164021  42.980   7.504   5.647
 5025POPC   GL264022  43.290   7.689   5.752
 5025POPC   C1A64023  42.885   7.467   6.113
 5025POPC   D2A64024  43.039   7.176   6.457
 5025POPC   C3A64025  42.931   7.234   6.901
 5025POPC   C4A64026  43.008   7.294   7.342
 5025POPC   C1B64027  43.392   7.563   6.190
 5025POPC   C2B64028  43.190   7.636   6.600
 5025POPC   C3B64029  43.161   7.685   7.051
 5025POPC   C4B64030  43.371   7.935   7.338
 5026POPC   NC364031  40.051  39.037   5.469
 5026POPC   PO464032  39.958  39.676   5.415
 5026POPC   GL164033  40.019  39.458   5.810
 5026POPC   GL264034  39.741  39.290   5.772
 5026POPC   C1A64035  40.136  39.349   6.241
 5026POPC   D2A64036  39.963  39.286   6.653
 5026POPC   C3A64037  40.253  39.197   6.967
 5026POPC   C4A64038  40.290  39.305   7.415
 5026POPC   C1B64039  39.667  39.129   6.159
 5026POPC   C2B64040  39.718  38.855   6.459
 5026POPC   C3B64041  39.808  38.850   6.898
 5026POPC   C4B64042  39.806  39.199   7.206
 5027POPC   NC364043   5.547  13.678   5.520
 5027POPC   PO464044   6.277  13.755   5.516
 5027POPC   GL164045   5.984  13.757   5.842
 5027POPC   GL264046   5.860  13.439   5.834
 5027POPC   C1A64047   5.911  13.775   6.296
 5027POPC   D2A64048   5.753  13.575   6.685
 5027POPC   C3A64049   5.760  13.802   7.072
 5027POPC   C4A64050   6.038  13.691   7.427
 5027POPC   C1B64051   5.609  13.362   6.215
 5027POPC   C2B64052   5.397  13.213   6.596
 5027POPC   C3B64053   5.613  13.110   6.997
 5027POPC   C4B64054   5.952  13.175   7.283
 5028POPC   NC364055  34.093  25.184   5.582
 5028POPC   PO464056  34.569  25.654   5.427
 5028POPC   GL164057  34.498  25.449   5.806
 5028POPC   GL264058  34.173  25.529   5.944
 5028POPC   C1A64059  34.623  25.297   6.229
 5028POPC   D2A64060  34.487  25.185   6.649
 5028POPC   C3A64061  34.791  25.131   6.978
 5028POPC   C4A64062  34.819  25.346   7.379
 5028POPC   C1B64063  33.985  25.454   6.359
 5028POPC   C2B64064  34.040  25.391   6.804
 5028POPC   C3B64065  34.346  25.322   7.153
 5028POPC   C4B64066  34.323  25.521   7.561
 5029POPC   NC364067   0.812  25.379   5.300
 5029POPC   PO464068   0.254  24.917   5.462
 5029POPC   GL164069   0.417  25.067   5.848
 5029POPC   GL264070   0.294  25.390   5.840
 5029POPC   C1A64071   0.564  25.157   6.264
 5029POPC   D2A64072   0.647  25.447   6.601
 5029POPC   C3A64073   0.506  25.191   6.949
 5029POPC   C4A64074   0.642  24.834   7.193
 5029POPC   C1B64075   0.314  25.643   6.204
 5029POPC   C2B64076   0.157  25.595   6.590
 5029POPC   C3B64077   0.338  25.691   6.944
 5029POPC   C4B64078   0.425  25.513   7.333
 5030POPC   NC364079  28.044  20.762   5.292
 5030POPC   PO464080  27.937  20.157   5.589
 5030POPC   GL164081  28.107  20.510   5.818
 5030POPC   GL264082  28.399  20.747   5.763
 5030POPC   C1A64083  28.163  20.683   6.219
 5030POPC   D2A64084  28.315  20.810   6.599
 5030POPC   C3A64085  28.152  20.581   6.956
 5030POPC   C4A64086  28.282  20.667   7.385
 5030POPC   C1B64087  28.685  20.825   6.145
 5030POPC   C2B64088  28.814  20.687   6.583
 5030POPC   C3B64089  28.625  20.809   7.016
 5030POPC   C4B64090  28.723  20.899   7.489
 5031POPC   NC364091  20.983  14.834   5.611
 5031POPC   PO464092  20.462  14.428   5.443
 5031POPC   GL164093  20.418  14.324   5.868
 5031POPC   GL264094  20.764  14.366   5.948
 5031POPC   C1A64095  20.464  14.252   6.341
 5031POPC   D2A64096  20.667  14.429   6.716
 5031POPC   C3A64097  20.576  14.330   7.162
 5031POPC   C4A64098  20.424  14.210   7.573
 5031POPC   C1B64099  20.789  14.679   6.270
 5031POPC   C2B64100  20.836  14.925   6.650
 5031POPC   C3B64101  20.843  14.786   7.050
 5031POPC   C4B64102  20.962  14.617   7.488
 5032POPC   NC364103  42.012  43.604   5.497
 5032POPC   PO464104  42.589  44.049   5.375
 5032POPC   GL164105  42.332  43.958   5.722
 5032POPC   GL264106  42.433  43.641   5.844
 5032POPC   C1A64107  42.113  44.017   6.112
 5032POPC   D2A64108  42.045  43.881   6.534
 5032POPC   C3A64109  42.347  44.010   6.828
 5032POPC   C4A64110  42.370  43.866   7.237
 5032POPC   C1B64111  42.143  43.492   6.171
 5032POPC   C2B64112  42.229  43.268   6.539
 5032POPC   C3B64113  42.200  43.513   6.905
 5032POPC   C4B64114  41.984  43.494   7.290
 5033POPC   NC364115  15.395  10.610   5.254
 5033POPC   PO464116  14.753  10.541   5.382
 5033POPC   GL164117  15.082  10.530   5.678
 5033POPC   GL264118  15.215  10.181   5.801
 5033POPC   C1A64119  15.207  10.622   6.080
 5033POPC   D2A64120  15.237  10.652   6.512
 5033POPC   C3A64121  14.979  10.548   6.854
 5033POPC   C4A64122  15.193  10.574   7.236
 5033POPC   C1B64123  15.204  10.124   6.276
 5033POPC   C2B64124  15.295  10.168   6.722
 5033POPC   C3B64125  15.106  10.086   7.135
 5033POPC   C4B64126  15.395  10.179   7.496
 5034POPC   NC364127  23.223  21.931   5.496
 5034POPC   PO464128  22.688  21.526   5.472
 5034POPC   GL164129  22.759  21.563   5.853
 5034POPC   GL264130  22.633  21.223   5.882
 5034POPC   C1A64131  22.966  21.437   6.209
 5034POPC   D2A64132  22.917  21.260   6.616
 5034POPC   C3A64133  23.234  21.471   6.886
 5034POPC   C4A64134  23.318  21.170   7.202
 5034POPC   C1B64135  22.646  21.000   6.237
 5034POPC   C2B64136  22.358  21.118   6.528
 5034POPC   C3B64137  22.453  21.406   6.825
 5034POPC   C4B64138  22.787  21.421   7.139
 5035POPC   NC364139  30.336   5.408   5.585
 5035POPC   PO464140  29.856   4.989   5.277
 5035POPC   GL164141  29.876   5.031   5.736
 5035POPC   GL264142  30.128   4.830   5.853
 5035POPC   C1A64143  30.003   5.289   6.122
 5035POPC   D2A64144  30.158   5.389   6.531
 5035POPC   C3A64145  29.958   5.200   6.875
 5035POPC   C4A64146  29.981   5.291   7.294
 5035POPC   C1B64147  30.081   4.842   6.327
 5035POPC   C2B64148  30.363   4.947   6.687
 5035POPC   C3B64149  30.335   4.908   7.100
 5035POPC   C4B64150  29.924   4.712   7.130
 5036POPC   NC364151   7.026  23.127   5.324
 5036POPC   PO464152   6.462  22.888   5.523
 5036POPC   GL164153   6.815  22.873   5.786
 5036POPC   GL264154   6.900  23.254   5.796
 5036POPC   C1A64155   6.698  22.685   6.205
 5036POPC   D2A64156   6.496  22.803   6.617
 5036POPC   C3A64157   6.816  22.847   6.946
 5036POPC   C4A64158   6.941  23.004   7.338
 5036POPC   C1B64159   6.670  23.203   6.178
 5036POPC   C2B64160   6.763  23.242   6.595
 5036POPC   C3B64161   6.542  23.303   6.968
 5036POPC   C4B64162   6.578  23.607   7.258
 5037POPC   NC364163  17.930  41.789   5.572
 5037POPC   PO464164  17.324  41.509   5.306
 5037POPC   GL164165  17.374  41.395   5.755
 5037POPC   GL264166  17.673  41.204   5.735
 5037POPC   C1A64167  17.604  41.568   6.145
 5037POPC   D2A64168  17.722  41.758   6.549
 5037POPC   C3A64169  17.558  41.722   6.914
 5037POPC   C4A64170  17.570  41.694   7.302
 5037POPC   C1B64171  17.858  41.120   6.140
 5037POPC   C2B64172  17.927  41.289   6.527
 5037POPC   C3B64173  17.880  41.323   6.957
 5037POPC   C4B64174  17.911  41.334   7.391
 5038POPC   NC364175  13.677  42.695   5.191
 5038POPC   PO464176  14.035  42.184   5.477
 5038POPC   GL164177  13.905  42.233   5.856
 5038POPC   GL264178  13.583  42.430   5.898
 5038POPC   C1A64179  13.983  42.288   6.262
 5038POPC   D2A64180  13.762  42.413   6.630
 5038POPC   C3A64181  13.911  42.236   7.011
 5038POPC   C4A64182  13.758  42.297   7.417
 5038POPC   C1B64183  13.375  42.681   6.274
 5038POPC   C2B64184  13.363  42.726   6.752
 5038POPC   C3B64185  13.390  42.396   7.095
 5038POPC   C4B64186  13.317  42.471   7.594
 5039POPC   NC364187  35.612  36.689   5.450
 5039POPC   PO464188  35.047  37.080   5.446
 5039POPC   GL164189  35.255  37.027   5.809
 5039POPC   GL264190  35.558  37.232   5.808
 5039POPC   C1A64191  35.206  37.116   6.237
 5039POPC   D2A64192  35.267  36.841   6.588
 5039POPC   C3A64193  35.355  37.047   6.956
 5039POPC   C4A64194  35.255  37.107   7.361
 5039POPC   C1B64195  35.686  36.936   6.164
 5039POPC   C2B64196  35.819  36.874   6.616
 5039POPC   C3B64197  35.853  37.115   7.011
 5039POPC   C4B64198  35.586  37.448   7.217
 5040POPC   NC364199  38.249   8.349   5.373
 5040POPC   PO464200  38.868   7.998   5.391
 5040POPC   GL164201  38.813   8.158   5.817
 5040POPC   GL264202  38.453   8.271   5.849
 5040POPC   C1A64203  38.697   8.108   6.273
 5040POPC   D2A64204  38.454   8.321   6.593
 5040POPC   C3A64205  38.660   8.287   7.004
 5040POPC   C4A64206  38.606   8.549   7.381
 5040POPC   C1B64207  38.170   8.109   6.187
 5040POPC   C2B64208  37.978   7.995   6.594
 5040POPC   C3B64209  38.189   8.071   6.984
 5040POPC   C4B64210  38.453   7.916   7.296
 5041POPC   NC364211  44.469  12.810   5.185
 5041POPC   PO464212  44.986  12.597   5.565
 5041POPC   GL164213  44.758  12.793   5.904
 5041POPC   GL264214  44.429  12.857   5.758
 5041POPC   C1A64215  44.808  12.947   6.344
 5041POPC   D2A64216  44.931  13.190   6.714
 5041POPC   C3A64217  44.973  12.936   7.080
 5041POPC   C4A64218  44.725  12.764   7.379
 5041POPC   C1B64219  44.331  12.750   6.221
 5041POPC   C2B64220  44.396  12.791   6.690
 5041POPC   C3B64221  44.461  13.065   7.074
 5041POPC   C4B64222  44.407  13.087   7.574
 5042POPC   NC364223  32.806   0.237   5.312
 5042POPC   PO464224  32.915  44.585   5.306
 5042POPC   GL164225  32.710  44.783   5.665
 5042POPC   GL264226  32.599  44.455   5.790
 5042POPC   C1A64227  32.750  44.877   6.123
 5042POPC   D2A64228  32.708  44.614   6.512
 5042POPC   C3A64229  32.978  44.547   6.882
 5042POPC   C4A64230  33.130  44.799   7.204
 5042POPC   C1B64231  32.557  44.221   6.186
 5042POPC   C2B64232  32.597  44.120   6.636
 5042POPC   C3B64233  32.516  44.388   7.023
 5042POPC   C4B64234  32.758  44.462   7.439
 5043POPC   NC364235  43.498  20.054   5.469
 5043POPC   PO464236  43.090  19.544   5.496
 5043POPC   GL164237  43.091  19.898   5.762
 5043POPC   GL264238  42.804  20.072   5.753
 5043POPC   C1A64239  43.031  19.909   6.222
 5043POPC   D2A64240  42.931  19.730   6.627
 5043POPC   C3A64241  43.184  19.756   6.996
 5043POPC   C4A64242  43.122  19.944   7.440
 5043POPC   C1B64243  42.660  20.281   6.105
 5043POPC   C2B64244  42.759  20.255   6.550
 5043POPC   C3B64245  42.838  20.116   6.982
 5043POPC   C4B64246  42.691  20.338   7.309
 5044POPC   NC364247   3.003   7.746   5.712
 5044POPC   PO464248   2.732   7.265   5.276
 5044POPC   GL164249   2.647   7.313   5.729
 5044POPC   GL264250   2.968   7.256   5.875
 5044POPC   C1A64251   2.571   7.402   6.186
 5044POPC   D2A64252   2.465   7.613   6.580
 5044POPC   C3A64253   2.450   7.422   7.012
 5044POPC   C4A64254   2.622   7.617   7.392
 5044POPC   C1B64255   2.959   7.084   6.300
 5044POPC   C2B64256   2.747   7.180   6.678
 5044POPC   C3B64257   2.917   7.145   7.106
 5044POPC   C4B64258   3.050   6.882   7.467
 5045POPC   NC364259  43.072  44.215   5.418
 5045POPC   PO464260  43.258  43.555   5.369
 5045POPC   GL164261  43.217  43.853   5.745
 5045POPC   GL264262  42.860  43.948   5.798
 5045POPC   C1A64263  43.161  44.027   6.205
 5045POPC   D2A64264  42.951  44.054   6.649
 5045POPC   C3A64265  43.202  43.894   7.020
 5045POPC   C4A64266  43.443  43.611   7.295
 5045POPC   C1B64267  42.636  43.985   6.192
 5045POPC   C2B64268  42.570  43.667   6.514
 5045POPC   C3B64269  42.734  43.625   6.938
 5045POPC   C4B64270  42.842  43.749   7.390
 5046POPC   NC364271  44.057  23.991   5.333
 5046POPC   PO464272  44.055  23.380   5.390
 5046POPC   GL164273  43.782  23.501   5.743
 5046POPC   GL264274  44.038  23.726   5.809
 5046POPC   C1A64275  43.701  23.636   6.202
 5046POPC   D2A64276  43.662  23.444   6.624
 5046POPC   C3A64277  43.775  23.688   7.014
 5046POPC   C4A64278  44.053  23.883   7.367
 5046POPC   C1B64279  44.135  23.382   6.105
 5046POPC   C2B64280  44.166  23.388   6.521
 5046POPC   C3B64281  44.254  23.524   6.933
 5046POPC   C4B64282  44.283  23.422   7.345
 5047POPC   NC364283  10.325  43.331   5.505
 5047POPC   PO464284  10.822  42.880   5.464
 5047POPC   GL164285  10.661  43.123   5.842
 5047POPC   GL264286  10.645  43.534   5.843
 5047POPC   C1A64287  10.526  42.958   6.244
 5047POPC   D2A64288  10.527  43.091   6.663
 5047POPC   C3A64289  10.540  42.805   6.986
 5047POPC   C4A64290  10.345  43.000   7.271
 5047POPC   C1B64291  10.340  43.482   6.198
 5047POPC   C2B64292  10.382  43.581   6.652
 5047POPC   C3B64293  10.528  43.447   7.100
 5047POPC   C4B64294  10.463  43.607   7.604
 5048POPC   NC364295  42.613   4.348   5.059
 5048POPC   PO464296  42.204   4.069   5.444
 5048POPC   GL164297  42.215   4.217   5.823
 5048POPC   GL264298  42.215   4.585   5.774
 5048POPC   C1A64299  42.004   4.306   6.217
 5048POPC   D2A64300  41.892   4.183   6.638
 5048POPC   C3A64301  42.174   4.350   6.958
 5048POPC   C4A64302  42.110   4.457   7.332
 5048POPC   C1B64303  42.485   4.494   6.146
 5048POPC   C2B64304  42.436   4.455   6.533
 5048POPC   C3B64305  42.683   4.437   6.862
 5048POPC   C4B64306  42.596   4.565   7.233
 5049POPC   NC364307   6.879   2.590   5.590
 5049POPC   PO464308   6.544   3.177   5.419
 5049POPC   GL164309   6.591   2.945   5.814
 5049POPC   GL264310   6.316   2.826   5.951
 5049POPC   C1A64311   6.735   2.669   6.221
 5049POPC   D2A64312   7.027   2.641   6.582
 5049POPC   C3A64313   6.828   2.711   7.034
 5049POPC   C4A64314   6.636   2.519   7.455
 5049POPC   C1B64315   6.533   3.123   6.269
 5049POPC   C2B64316   6.640   3.010   6.657
 5049POPC   C3B64317   6.442   3.115   7.032
 5049POPC   C4B64318   6.276   2.892   7.355
 5050POPC   NC364319  17.740  44.270   5.498
 5050POPC   PO464320  17.236  43.844   5.300
 5050POPC   GL164321  17.432  43.874   5.735
 5050POPC   GL264322  17.273  44.189   5.787
 5050POPC   C1A64323  17.490  43.834   6.218
 5050POPC   D2A64324  17.248  43.878   6.640
 5050POPC   C3A64325  17.522  43.837   7.023
 5050POPC   C4A64326  17.658  43.937   7.456
 5050POPC   C1B64327  17.331  44.340   6.218
 5050POPC   C2B64328  17.133  44.491   6.574
 5050POPC   C3B64329  17.188  44.309   6.931
 5050POPC   C4B64330  17.266  44.231   7.304
 5051POPC   NC364331  10.576   3.768   5.553
 5051POPC   PO464332  10.358   4.254   5.096
 5051POPC   GL164333  10.455   4.255   5.596
 5051POPC   GL264334  10.261   4.537   5.780
 5051POPC   C1A64335  10.468   4.205   6.110
 5051POPC   D2A64336  10.656   4.198   6.569
 5051POPC   C3A64337  10.408   4.074   6.912
 5051POPC   C4A64338  10.262   4.227   7.271
 5051POPC   C1B64339  10.144   4.634   6.181
 5051POPC   C2B64340  10.183   4.405   6.555
 5051POPC   C3B64341  10.328   4.592   6.914
 5051POPC   C4B64342  10.173   4.728   7.280
 5052POPC   NC364343   3.481  25.335   5.363
 5052POPC   PO464344   3.690  24.650   5.416
 5052POPC   GL164345   3.604  25.022   5.724
 5052POPC   GL264346   3.683  25.018   6.050
 5052POPC   C1A64347   3.288  25.319   6.004
 5052POPC   D2A64348   3.272  25.316   6.474
 5052POPC   C3A64349   3.111  25.455   6.897
 5052POPC   C4A64350   3.126  25.188   7.278
 5052POPC   C1B64351   3.906  25.252   6.348
 5052POPC   C2B64352   3.747  25.358   6.697
 5052POPC   C3B64353   3.583  25.221   7.043
 5052POPC   C4B64354   3.631  25.429   7.417
 5053POPC   NC364355  34.499  22.735   5.416
 5053POPC   PO464356  34.839  23.228   5.285
 5053POPC   GL164357  34.714  23.082   5.723
 5053POPC   GL264358  34.941  23.268   5.883
 5053POPC   C1A64359  34.416  22.915   6.082
 5053POPC   D2A64360  34.249  23.014   6.481
 5053POPC   C3A64361  34.448  22.886   6.874
 5053POPC   C4A64362  34.327  22.852   7.277
 5053POPC   C1B64363  34.905  23.053   6.259
 5053POPC   C2B64364  34.977  22.913   6.648
 5053POPC   C3B64365  34.914  23.052   7.033
 5053POPC   C4B64366  34.797  23.059   7.470
 5054POPC   NC364367  10.082   8.546   5.462
 5054POPC   PO464368   9.620   8.091   5.306
 5054POPC   GL164369   9.683   8.254   5.713
 5054POPC   GL264370   9.309   8.301   5.826
 5054POPC   C1A64371   9.978   8.221   6.096
 5054POPC   D2A64372  10.055   7.929   6.426
 5054POPC   C3A64373  10.002   8.014   6.871
 5054POPC   C4A64374   9.884   8.245   7.256
 5054POPC   C1B64375   9.480   8.063   6.173
 5054POPC   C2B64376   9.617   8.168   6.566
 5054POPC   C3B64377   9.490   8.054   6.992
 5054POPC   C4B64378   9.256   8.172   7.348
 5055POPC   NC364379   9.360  17.346   5.300
 5055POPC   PO464380   9.954  17.728   5.488
 5055POPC   GL164381   9.795  17.414   5.738
 5055POPC   GL264382  10.084  17.361   5.931
 5055POPC   C1A64383   9.628  17.331   6.166
 5055POPC   D2A64384   9.433  17.350   6.579
 5055POPC   C3A64385   9.582  17.616   6.933
 5055POPC   C4A64386   9.600  17.485   7.344
 5055POPC   C1B64387   9.923  17.769   6.134
 5055POPC   C2B64388   9.780  17.865   6.538
 5055POPC   C3B64389  10.028  17.879   6.964
 5055POPC   C4B64390   9.973  17.808   7.456
 5056POPC   NC364391  24.014  36.071   5.506
 5056POPC   PO464392  23.461  35.890   5.255
 5056POPC   GL164393  23.540  36.029   5.708
 5056POPC   GL264394  23.714  36.363   5.823
 5056POPC   C1A64395  23.639  35.903   6.139
 5056POPC   D2A64396  23.421  35.772   6.518
 5056POPC   C3A64397  23.504  36.046   6.851
 5056POPC   C4A64398  23.570  36.083   7.272
 5056POPC   C1B64399  23.977  36.307   6.215
 5056POPC   C2B64400  23.906  36.327   6.687
 5056POPC   C3B64401  23.898  36.464   7.122
 5056POPC   C4B64402  23.798  36.693   7.513
 5057POPC   NC364403  34.973  41.461   5.523
 5057POPC   PO464404  34.361  41.348   5.465
 5057POPC   GL164405  34.387  41.745   5.762
 5057POPC   GL264406  34.639  41.574   5.873
 5057POPC   C1A64407  34.609  41.920   6.204
 5057POPC   D2A64408  34.653  41.672   6.564
 5057POPC   C3A64409  34.788  41.520   6.964
 5057POPC   C4A64410  34.690  41.666   7.379
 5057POPC   C1B64411  34.485  41.323   6.196
 5057POPC   C2B64412  34.596  41.167   6.586
 5057POPC   C3B64413  34.396  41.121   6.970
 5057POPC   C4B64414  34.633  41.171   7.311
 5058POPC   NC364415  10.800   7.568   5.545
 5058POPC   PO464416  10.191   7.271   5.339
 5058POPC   GL164417  10.311   7.478   5.742
 5058POPC   GL264418  10.413   7.157   5.909
 5058POPC   C1A64419  10.512   7.583   6.168
 5058POPC   D2A64420  10.406   7.622   6.612
 5058POPC   C3A64421  10.656   7.786   6.930
 5058POPC   C4A64422  10.923   7.513   7.145
 5058POPC   C1B64423  10.186   7.205   6.329
 5058POPC   C2B64424  10.354   7.130   6.761
 5058POPC   C3B64425  10.387   7.334   7.196
 5058POPC   C4B64426  10.422   7.172   7.669
 5059POPC   NC364427  31.710  34.393   4.827
 5059POPC   PO464428  31.223  34.264   5.374
 5059POPC   GL164429  31.458  34.517   5.686
 5059POPC   GL264430  31.290  34.810   5.788
 5059POPC   C1A64431  31.582  34.522   6.133
 5059POPC   D2A64432  31.629  34.704   6.570
 5059POPC   C3A64433  31.545  34.415   6.920
 5059POPC   C4A64434  31.586  34.393   7.369
 5059POPC   C1B64435  31.214  34.877   6.234
 5059POPC   C2B64436  31.105  34.831   6.665
 5059POPC   C3B64437  31.316  34.838   7.075
 5059POPC   C4B64438  31.256  34.781   7.532
 5060POPC   NC364439  19.315  42.219   5.350
 5060POPC   PO464440  18.593  42.186   5.479
 5060POPC   GL164441  18.865  42.226   5.846
 5060POPC   GL264442  19.149  42.435   5.806
 5060POPC   C1A64443  19.077  42.166   6.249
 5060POPC   D2A64444  19.254  42.105   6.648
 5060POPC   C3A64445  18.994  42.036   7.010
 5060POPC   C4A64446  18.952  42.277   7.389
 5060POPC   C1B64447  19.070  42.675   6.188
 5060POPC   C2B64448  19.235  42.667   6.600
 5060POPC   C3B64449  19.229  42.510   7.021
 5060POPC   C4B64450  19.245  42.712   7.439
 5061POPC   NC364451  18.093  10.299   5.029
 5061POPC   PO464452  18.132  10.847   5.435
 5061POPC   GL164453  18.334  10.527   5.649
 5061POPC   GL264454  18.380  10.787   5.896
 5061POPC   C1A64455  18.460  10.314   6.060
 5061POPC   D2A64456  18.359  10.447   6.489
 5061POPC   C3A64457  18.495  10.406   6.930
 5061POPC   C4A64458  18.098  10.359   7.092
 5061POPC   C1B64459  18.084  10.813   6.238
 5061POPC   C2B64460  18.057  10.911   6.692
 5061POPC   C3B64461  17.918  10.830   7.138
 5061POPC   C4B64462  18.302  10.807   7.356
 5062POPC   NC364463  18.266  12.123   5.451
 5062POPC   PO464464  17.782  11.650   5.599
 5062POPC   GL164465  18.030  11.944   5.883
 5062POPC   GL264466  17.879  12.266   5.781
 5062POPC   C1A64467  18.419  12.073   6.199
 5062POPC   D2A64468  18.541  12.331   6.612
 5062POPC   C3A64469  18.386  12.134   7.035
 5062POPC   C4A64470  18.266  11.724   7.244
 5062POPC   C1B64471  17.983  12.323   6.235
 5062POPC   C2B64472  18.027  12.394   6.694
 5062POPC   C3B64473  17.981  12.444   7.137
 5062POPC   C4B64474  18.279  12.445   7.478
 5063POPC   NC364475  34.933  16.424   5.293
 5063POPC   PO464476  34.341  16.882   5.336
 5063POPC   GL164477  34.451  16.806   5.752
 5063POPC   GL264478  34.771  16.614   5.746
 5063POPC   C1A64479  34.501  16.878   6.194
 5063POPC   D2A64480  34.338  16.606   6.486
 5063POPC   C3A64481  34.344  16.743   6.890
 5063POPC   C4A64482  34.466  16.612   7.290
 5063POPC   C1B64483  34.934  16.633   6.164
 5063POPC   C2B64484  34.842  16.814   6.603
 5063POPC   C3B64485  34.893  16.609   7.024
 5063POPC   C4B64486  34.920  16.565   7.483
 5064POPC   NC364487  37.876  27.422   5.334
 5064POPC   PO464488  37.441  27.922   5.497
 5064POPC   GL164489  37.648  27.702   5.895
 5064POPC   GL264490  37.694  27.336   5.839
 5064POPC   C1A64491  37.922  27.848   6.293
 5064POPC   D2A64492  38.303  27.826   6.586
 5064POPC   C3A64493  38.142  27.845   7.013
 5064POPC   C4A64494  37.711  27.717   7.105
 5064POPC   C1B64495  37.955  27.346   6.223
 5064POPC   C2B64496  38.101  27.311   6.633
 5064POPC   C3B64497  37.783  27.253   6.908
 5064POPC   C4B64498  37.738  27.100   7.314
 5065POPC   NC364499  22.248  32.557   5.252
 5065POPC   PO464500  22.038  31.983   5.533
 5065POPC   GL164501  22.126  32.171   5.859
 5065POPC   GL264502  22.263  32.519   5.781
 5065POPC   C1A64503  22.044  31.970   6.259
 5065POPC   D2A64504  22.272  32.011   6.623
 5065POPC   C3A64505  22.118  31.936   7.010
 5065POPC   C4A64506  21.867  32.254   7.113
 5065POPC   C1B64507  22.128  32.487   6.241
 5065POPC   C2B64508  22.073  32.506   6.699
 5065POPC   C3B64509  22.358  32.420   7.042
 5065POPC   C4B64510  22.476  32.655   7.455
 5066POPC   NC364511  20.478  18.500   5.389
 5066POPC   PO464512  21.123  18.336   5.201
 5066POPC   GL164513  21.017  18.345   5.726
 5066POPC   GL264514  20.634  18.226   5.821
 5066POPC   C1A64515  20.969  18.188   6.219
 5066POPC   D2A64516  20.655  18.247   6.581
 5066POPC   C3A64517  20.652  18.047   7.003
 5066POPC   C4A64518  20.680  18.325   7.361
 5066POPC   C1B64519  20.666  18.580   6.073
 5066POPC   C2B64520  20.410  18.648   6.394
 5066POPC   C3B64521  20.294  18.601   6.823
 5066POPC   C4B64522  20.232  18.621   7.259
 5067POPC   NC364523  21.885  40.742   5.392
 5067POPC   PO464524  22.388  40.892   5.614
 5067POPC   GL164525  22.045  40.920   5.847
 5067POPC   GL264526  22.054  40.574   5.911
 5067POPC   C1A64527  21.984  41.000   6.262
 5067POPC   D2A64528  22.163  41.071   6.658
 5067POPC   C3A64529  21.907  40.992   7.005
 5067POPC   C4A64530  22.036  41.061   7.432
 5067POPC   C1B64531  22.207  40.555   6.371
 5067POPC   C2B64532  22.069  40.528   6.805
 5067POPC   C3B64533  22.150  40.598   7.227
 5067POPC   C4B64534  22.400  40.313   7.498
 5068POPC   NC364535  41.748  14.698   5.457
 5068POPC   PO464536  41.197  14.310   5.332
 5068POPC   GL164537  41.386  14.489   5.791
 5068POPC   GL264538  41.704  14.602   5.953
 5068POPC   C1A64539  41.421  14.262   6.195
 5068POPC   D2A64540  41.519  14.476   6.565
 5068POPC   C3A64541  41.491  14.354   6.963
 5068POPC   C4A64542  41.336  14.682   7.238
 5068POPC   C1B64543  41.938  14.407   6.293
 5068POPC   C2B64544  41.965  14.185   6.676
 5068POPC   C3B64545  42.009  14.341   7.054
 5068POPC   C4B64546  41.747  14.430   7.408
 5069POPC   NC364547  43.608  37.252   5.525
 5069POPC   PO464548  44.164  36.734   5.361
 5069POPC   GL164549  44.037  36.905   5.769
 5069POPC   GL264550  43.857  36.615   5.908
 5069POPC   C1A64551  43.842  37.052   6.187
 5069POPC   D2A64552  43.963  37.107   6.648
 5069POPC   C3A64553  43.637  37.129   6.981
 5069POPC   C4A64554  43.477  36.820   7.260
 5069POPC   C1B64555  44.194  36.673   6.207
 5069POPC   C2B64556  44.269  36.605   6.630
 5069POPC   C3B64557  43.923  36.680   6.937
 5069POPC   C4B64558  43.850  36.518   7.354
 5070POPC   NC364559  16.030  29.676   5.421
 5070POPC   PO464560  15.596  30.270   5.487
 5070POPC   GL164561  15.768  29.951   5.770
 5070POPC   GL264562  16.148  29.920   5.859
 5070POPC   C1A64563  15.772  29.903   6.197
 5070POPC   D2A64564  15.821  30.049   6.573
 5070POPC   C3A64565  15.753  29.713   6.832
 5070POPC   C4A64566  15.707  29.884   7.194
 5070POPC   C1B64567  16.362  29.877   6.264
 5070POPC   C2B64568  16.298  29.810   6.721
 5070POPC   C3B64569  16.169  29.624   7.116
 5070POPC   C4B64570  16.023  29.481   7.541
 5071POPC   NC364571   3.550   6.437   5.476
 5071POPC   PO464572   3.315   7.153   5.472
 5071POPC   GL164573   3.339   6.911   5.861
 5071POPC   GL264574   3.582   6.662   5.939
 5071POPC   C1A64575   3.468   7.025   6.301
 5071POPC   D2A64576   3.251   6.922   6.724
 5071POPC   C3A64577   3.450   6.946   7.152
 5071POPC   C4A64578   3.831   6.942   7.474
 5071POPC   C1B64579   3.242   6.576   6.244
 5071POPC   C2B64580   3.209   6.391   6.630
 5071POPC   C3B64581   3.371   6.458   6.993
 5071POPC   C4B64582   3.689   6.492   7.235
 5072POPC   NC364583  36.979  27.838   5.513
 5072POPC   PO464584  36.653  27.236   5.386
 5072POPC   GL164585  36.762  27.479   5.808
 5072POPC   GL264586  36.603  27.822   5.862
 5072POPC   C1A64587  37.153  27.639   6.099
 5072POPC   D2A64588  37.486  27.528   6.404
 5072POPC   C3A64589  37.325  27.501   6.842
 5072POPC   C4A64590  37.040  27.630   7.166
 5072POPC   C1B64591  36.688  27.728   6.264
 5072POPC   C2B64592  36.937  27.804   6.620
 5072POPC   C3B64593  36.827  28.056   6.943
 5072POPC   C4B64594  36.660  27.931   7.337
 5073POPC   NC364595  39.391  30.268   5.513
 5073POPC   PO464596  39.163  29.576   5.448
 5073POPC   GL164597  39.246  29.853   5.818
 5073POPC   GL264598  39.118  30.185   5.926
 5073POPC   C1A64599  39.343  29.824   6.276
 5073POPC   D2A64600  39.261  29.788   6.736
 5073POPC   C3A64601  39.536  29.547   7.037
 5073POPC   C4A64602  39.494  29.691   7.493
 5073POPC   C1B64603  39.403  30.349   6.259
 5073POPC   C2B64604  39.497  30.301   6.720
 5073POPC   C3B64605  39.300  30.189   7.139
 5073POPC   C4B64606  39.215  30.420   7.559
 5074POPC   NC364607  29.473  29.309   5.621
 5074POPC   PO464608  30.113  29.000   5.400
 5074POPC   GL164609  29.967  29.126   5.757
 5074POPC   GL264610  29.897  29.465   5.864
 5074POPC   C1A64611  30.142  29.140   6.163
 5074POPC   D2A64612  30.271  29.105   6.580
 5074POPC   C3A64613  30.002  28.976   6.916
 5074POPC   C4A64614  30.042  29.002   7.366
 5074POPC   C1B64615  29.998  29.650   6.271
 5074POPC   C2B64616  29.851  29.640   6.717
 5074POPC   C3B64617  30.018  29.474   7.110
 5074POPC   C4B64618  30.242  29.461   7.537
 5075POPC   NC364619  30.435  39.036   5.466
 5075POPC   PO464620  30.816  39.533   5.494
 5075POPC   GL164621  30.690  39.296   5.844
 5075POPC   GL264622  30.357  39.402   5.836
 5075POPC   C1A64623  30.797  39.186   6.294
 5075POPC   D2A64624  30.622  39.478   6.634
 5075POPC   C3A64625  30.788  39.388   7.056
 5075POPC   C4A64626  30.870  38.954   7.156
 5075POPC   C1B64627  30.331  39.077   6.178
 5075POPC   C2B64628  30.418  38.937   6.611
 5075POPC   C3B64629  30.335  39.180   6.986
 5075POPC   C4B64630  30.197  39.351   7.344
 5076POPC   NC364631   2.398  19.074   5.503
 5076POPC   PO464632   2.993  19.164   5.241
 5076POPC   GL164633   3.032  19.059   5.668
 5076POPC   GL264634   2.795  19.290   5.836
 5076POPC   C1A64635   3.113  18.943   6.121
 5076POPC   D2A64636   2.896  19.065   6.506
 5076POPC   C3A64637   2.962  19.363   6.856
 5076POPC   C4A64638   2.926  19.205   7.260
 5076POPC   C1B64639   2.481  19.354   6.188
 5076POPC   C2B64640   2.372  19.052   6.503
 5076POPC   C3B64641   2.543  19.026   6.889
 5076POPC   C4B64642   2.341  19.207   7.232
 5077POPC   NC364643  12.419  12.701   5.399
 5077POPC   PO464644  11.861  13.012   5.453
 5077POPC   GL164645  11.931  12.936   5.903
 5077POPC   GL264646  12.159  12.664   5.842
 5077POPC   C1A64647  11.946  13.110   6.375
 5077POPC   D2A64648  11.813  13.339   6.783
 5077POPC   C3A64649  11.919  13.050   7.155
 5077POPC   C4A64650  12.092  13.006   7.586
 5077POPC   C1B64651  12.259  12.715   6.276
 5077POPC   C2B64652  12.131  12.768   6.728
 5077POPC   C3B64653  12.318  12.728   7.137
 5077POPC   C4B64654  12.366  12.569   7.539
 5078POPC   NC364655  16.774   6.255   5.556
 5078POPC   PO464656  17.064   5.670   5.303
 5078POPC   GL164657  16.874   5.747   5.700
 5078POPC   GL264658  17.027   6.012   5.915
 5078POPC   C1A64659  16.762   5.639   6.124
 5078POPC   D2A64660  16.936   5.829   6.497
 5078POPC   C3A64661  16.710   5.754   6.896
 5078POPC   C4A64662  16.767   5.856   7.312
 5078POPC   C1B64663  16.647   6.155   6.194
 5078POPC   C2B64664  16.455   6.117   6.607
 5078POPC   C3B64665  16.641   6.274   6.983
 5078POPC   C4B64666  16.838   6.389   7.385
 5079POPC   NC364667  20.785  34.840   5.360
 5079POPC   PO464668  20.176  34.428   5.277
 5079POPC   GL164669  20.355  34.710   5.665
 5079POPC   GL264670  20.691  34.707   5.840
 5079POPC   C1A64671  20.289  34.745   6.151
 5079POPC   D2A64672  20.381  34.838   6.614
 5079POPC   C3A64673  20.413  34.526   6.983
 5079POPC   C4A64674  20.597  34.600   7.413
 5079POPC   C1B64675  20.898  34.619   6.237
 5079POPC   C2B64676  20.902  34.674   6.669
 5079POPC   C3B64677  20.930  34.475   7.051
 5079POPC   C4B64678  21.210  34.415   7.369
 5080POPC   NC364679  14.679  19.941   5.439
 5080POPC   PO464680  14.102  20.306   5.246
 5080POPC   GL164681  14.228  20.141   5.713
 5080POPC   GL264682  14.446  19.890   5.900
 5080POPC   C1A64683  14.246  20.262   6.206
 5080POPC   D2A64684  14.303  20.375   6.676
 5080POPC   C3A64685  14.393  20.051   7.019
 5080POPC   C4A64686  14.096  19.754   7.218
 5080POPC   C1B64687  14.633  19.658   6.277
 5080POPC   C2B64688  14.600  19.643   6.746
 5080POPC   C3B64689  14.688  19.628   7.213
 5080POPC   C4B64690  14.752  19.497   7.669
 5081POPC   NC364691   2.150  20.044   5.479
 5081POPC   PO464692   2.101  19.391   5.632
 5081POPC   GL164693   2.005  19.556   5.999
 5081POPC   GL264694   1.893  19.864   5.903
 5081POPC   C1A64695   1.790  19.674   6.398
 5081POPC   D2A64696   1.828  19.811   6.836
 5081POPC   C3A64697   2.115  19.656   7.159
 5081POPC   C4A64698   2.129  19.477   7.620
 5081POPC   C1B64699   1.587  20.084   6.189
 5081POPC   C2B64700   1.625  20.243   6.648
 5081POPC   C3B64701   1.799  20.233   7.119
 5081POPC   C4B64702   2.036  20.360   7.511
 5082POPC   NC364703  17.269  37.244   5.575
 5082POPC   PO464704  17.794  37.806   5.298
 5082POPC   GL164705  17.653  37.888   5.747
 5082POPC   GL264706  17.493  37.574   5.881
 5082POPC   C1A64707  17.568  37.940   6.208
 5082POPC   D2A64708  17.823  37.764   6.512
 5082POPC   C3A64709  17.800  37.903   6.908
 5082POPC   C4A64710  17.458  37.833   7.146
 5082POPC   C1B64711  17.238  37.536   6.259
 5082POPC   C2B64712  17.314  37.676   6.686
 5082POPC   C3B64713  17.128  37.466   7.069
 5082POPC   C4B64714  17.003  37.438   7.523
 5083POPC   NC364715  27.460  20.299   5.381
 5083POPC   PO464716  27.293  20.889   5.636
 5083POPC   GL164717  27.581  20.601   5.797
 5083POPC   GL264718  27.730  20.864   5.991
 5083POPC   C1A64719  27.691  20.419   6.198
 5083POPC   D2A64720  27.780  20.691   6.566
 5083POPC   C3A64721  27.623  20.549   6.967
 5083POPC   C4A64722  27.811  20.488   7.374
 5083POPC   C1B64723  27.352  20.807   6.264
 5083POPC   C2B64724  27.086  20.880   6.629
 5083POPC   C3B64725  27.180  20.819   7.077
 5083POPC   C4B64726  27.440  20.878   7.462
 5084POPC   NC364727  13.940  21.260   5.586
 5084POPC   PO464728  14.540  21.252   5.349
 5084POPC   GL164729  14.419  21.339   5.778
 5084POPC   GL264730  14.236  21.044   5.923
 5084POPC   C1A64731  14.506  21.573   6.177
 5084POPC   D2A64732  14.793  21.758   6.509
 5084POPC   C3A64733  14.691  21.576   6.932
 5084POPC   C4A64734  14.402  21.642   7.279
 5084POPC   C1B64735  14.286  21.117   6.352
 5084POPC   C2B64736  14.133  21.308   6.725
 5084POPC   C3B64737  14.124  21.201   7.120
 5084POPC   C4B64738  14.508  21.132   7.230
 5085POPC   NC364739  19.581  19.571   5.150
 5085POPC   PO464740  20.061  19.909   5.444
 5085POPC   GL164741  19.852  19.896   5.825
 5085POPC   GL264742  19.566  19.768   5.685
 5085POPC   C1A64743  19.959  19.861   6.255
 5085POPC   D2A64744  20.102  19.744   6.658
 5085POPC   C3A64745  19.981  19.962   7.015
 5085POPC   C4A64746  19.973  20.094   7.422
 5085POPC   C1B64747  19.425  19.684   6.143
 5085POPC   C2B64748  19.583  19.715   6.602
 5085POPC   C3B64749  19.525  19.759   7.079
 5085POPC   C4B64750  19.620  19.740   7.533
 5086POPC   NC364751  21.822  15.350   5.548
 5086POPC   PO464752  21.430  14.796   5.423
 5086POPC   GL164753  21.432  15.006   5.820
 5086POPC   GL264754  21.353  15.360   5.827
 5086POPC   C1A64755  21.193  15.021   6.231
 5086POPC   D2A64756  21.101  15.355   6.555
 5086POPC   C3A64757  21.180  15.192   6.974
 5086POPC   C4A64758  21.332  14.856   7.237
 5086POPC   C1B64759  21.561  15.374   6.261
 5086POPC   C2B64760  21.594  15.417   6.735
 5086POPC   C3B64761  21.722  15.119   7.051
 5086POPC   C4B64762  21.781  15.089   7.492
 5087POPC   NC364763   3.725  34.301   5.469
 5087POPC   PO464764   3.208  34.603   5.137
 5087POPC   GL164765   3.204  34.516   5.603
 5087POPC   GL264766   3.336  34.793   5.779
 5087POPC   C1A64767   3.283  34.386   6.065
 5087POPC   D2A64768   3.352  34.505   6.520
 5087POPC   C3A64769   3.540  34.354   6.935
 5087POPC   C4A64770   3.929  34.231   7.154
 5087POPC   C1B64771   3.601  34.794   6.112
 5087POPC   C2B64772   3.536  34.998   6.470
 5087POPC   C3B64773   3.578  34.880   6.843
 5087POPC   C4B64774   3.603  34.778   7.246
 5088POPC   NC364775  16.334  11.763   5.442
 5088POPC   PO464776  16.875  12.146   5.523
 5088POPC   GL164777  16.654  12.149   5.863
 5088POPC   GL264778  16.509  11.850   5.913
 5088POPC   C1A64779  16.634  12.321   6.260
 5088POPC   D2A64780  16.576  12.549   6.634
 5088POPC   C3A64781  16.527  12.370   7.025
 5088POPC   C4A64782  16.721  12.360   7.407
 5088POPC   C1B64783  16.758  11.827   6.285
 5088POPC   C2B64784  16.681  11.958   6.717
 5088POPC   C3B64785  16.629  11.884   7.183
 5088POPC   C4B64786  16.483  11.699   7.572
 5089POPC   NC364787  37.039   7.206   5.423
 5089POPC   PO464788  36.568   7.695   5.380
 5089POPC   GL164789  36.697   7.504   5.841
 5089POPC   GL264790  37.055   7.413   5.872
 5089POPC   C1A64791  36.829   7.371   6.330
 5089POPC   D2A64792  37.119   7.555   6.672
 5089POPC   C3A64793  36.873   7.516   7.037
 5089POPC   C4A64794  36.739   7.187   7.304
 5089POPC   C1B64795  37.129   7.043   6.094
 5089POPC   C2B64796  37.246   7.090   6.524
 5089POPC   C3B64797  37.062   7.057   6.915
 5089POPC   C4B64798  37.102   6.799   7.267
 5090POPC   NC364799  41.846  20.774   5.328
 5090POPC   PO464800  41.540  20.241   5.550
 5090POPC   GL164801  41.544  20.647   5.766
 5090POPC   GL264802  41.218  20.810   5.806
 5090POPC   C1A64803  41.575  20.728   6.215
 5090POPC   D2A64804  41.714  20.528   6.595
 5090POPC   C3A64805  41.521  20.676   6.967
 5090POPC   C4A64806  41.734  20.806   7.330
 5090POPC   C1B64807  41.080  20.556   6.144
 5090POPC   C2B64808  41.198  20.517   6.552
 5090POPC   C3B64809  41.118  20.357   6.937
 5090POPC   C4B64810  41.068  20.581   7.307
 5091POPC   NC364811  41.319  43.607   5.459
 5091POPC   PO464812  41.801  44.077   5.485
 5091POPC   GL164813  41.659  43.815   5.802
 5091POPC   GL264814  41.360  43.999   5.808
 5091POPC   C1A64815  41.598  43.711   6.221
 5091POPC   D2A64816  41.526  43.917   6.607
 5091POPC   C3A64817  41.757  43.852   7.006
 5091POPC   C4A64818  41.498  43.780   7.375
 5091POPC   C1B64819  41.347  44.308   6.128
 5091POPC   C2B64820  41.298  44.367   6.571
 5091POPC   C3B64821  41.328  44.193   6.994
 5091POPC   C4B64822  41.616  44.268   7.320
 5092POPC   NC364823  27.767  42.956   5.417
 5092POPC   PO464824  27.417  43.482   5.439
 5092POPC   GL164825  27.393  43.240   5.798
 5092POPC   GL264826  27.708  43.395   5.887
 5092POPC   C1A64827  27.549  42.946   6.118
 5092POPC   D2A64828  27.864  42.926   6.449
 5092POPC   C3A64829  27.691  42.796   6.827
 5092POPC   C4A64830  27.345  42.995   6.988
 5092POPC   C1B64831  27.463  43.459   6.285
 5092POPC   C2B64832  27.438  43.653   6.713
 5092POPC   C3B64833  27.546  43.451   7.137
 5092POPC   C4B64834  27.820  43.071   7.260
 5093POPC   NC364835  26.281   4.119   5.443
 5093POPC   PO464836  26.912   4.403   5.404
 5093POPC   GL164837  26.602   4.429   5.712
 5093POPC   GL264838  26.662   4.098   5.770
 5093POPC   C1A64839  26.539   4.522   6.148
 5093POPC   D2A64840  26.693   4.371   6.526
 5093POPC   C3A64841  26.576   4.478   6.914
 5093POPC   C4A64842  26.907   4.426   7.170
 5093POPC   C1B64843  26.803   4.034   6.152
 5093POPC   C2B64844  26.789   3.861   6.525
 5093POPC   C3B64845  26.813   4.013   6.902
 5093POPC   C4B64846  26.850   3.939   7.311
 5094POPC   NC364847  29.472   1.056   5.391
 5094POPC   PO464848  30.036   1.414   5.273
 5094POPC   GL164849  29.829   1.326   5.739
 5094POPC   GL264850  29.483   1.448   5.739
 5094POPC   C1A64851  29.970   1.188   6.158
 5094POPC   D2A64852  29.781   1.091   6.550
 5094POPC   C3A64853  29.965   1.062   6.975
 5094POPC   C4A64854  30.138   1.382   7.233
 5094POPC   C1B64855  29.454   1.195   6.136
 5094POPC   C2B64856  29.281   1.042   6.540
 5094POPC   C3B64857  29.455   1.000   6.937
 5094POPC   C4B64858  29.625   1.199   7.343
 5095POPC   NC364859  32.819  38.419   5.457
 5095POPC   PO464860  33.327  37.991   5.794
 5095POPC   GL164861  33.073  38.374   5.901
 5095POPC   GL264862  32.873  38.716   5.865
 5095POPC   C1A64863  32.881  38.449   6.306
 5095POPC   D2A64864  33.082  38.570   6.676
 5095POPC   C3A64865  33.048  38.284   7.017
 5095POPC   C4A64866  33.080  38.531   7.390
 5095POPC   C1B64867  32.523  38.794   6.160
 5095POPC   C2B64868  32.487  38.656   6.579
 5095POPC   C3B64869  32.660  38.616   6.965
 5095POPC   C4B64870  32.661  38.869   7.285
 5096POPC   NC364871  37.260   6.490   5.417
 5096POPC   PO464872  36.698   6.846   5.408
 5096POPC   GL164873  36.863   6.560   5.753
 5096POPC   GL264874  37.197   6.563   5.909
 5096POPC   C1A64875  36.791   6.648   6.194
 5096POPC   D2A64876  36.748   6.887   6.545
 5096POPC   C3A64877  36.778   6.606   6.913
 5096POPC   C4A64878  36.602   6.668   7.325
 5096POPC   C1B64879  37.068   6.220   6.205
 5096POPC   C2B64880  37.117   6.113   6.643
 5096POPC   C3B64881  37.210   6.304   7.064
 5096POPC   C4B64882  36.943   6.281   7.417
 5097POPC   NC364883  21.331  30.294   5.481
 5097POPC   PO464884  21.507  29.619   5.461
 5097POPC   GL164885  21.548  29.914   5.807
 5097POPC   GL264886  21.273  29.730   5.943
 5097POPC   C1A64887  21.644  29.967   6.248
 5097POPC   D2A64888  21.390  29.897   6.627
 5097POPC   C3A64889  21.683  29.959   6.963
 5097POPC   C4A64890  21.789  30.281   7.266
 5097POPC   C1B64891  21.184  30.159   6.107
 5097POPC   C2B64892  21.228  30.366   6.496
 5097POPC   C3B64893  21.028  30.231   6.875
 5097POPC   C4B64894  21.246  30.070   7.209
 5098POPC   NC364895  13.797  19.559   5.394
 5098POPC   PO464896  13.642  18.965   5.145
 5098POPC   GL164897  13.456  19.027   5.569
 5098POPC   GL264898  13.627  19.265   5.782
 5098POPC   C1A64899  13.420  18.838   5.985
 5098POPC   D2A64900  13.636  18.906   6.390
 5098POPC   C3A64901  13.573  18.659   6.753
 5098POPC   C4A64902  13.597  18.905   7.139
 5098POPC   C1B64903  13.843  19.358   6.165
 5098POPC   C2B64904  14.001  19.294   6.576
 5098POPC   C3B64905  13.852  19.356   6.979
 5098POPC   C4B64906  13.872  19.290   7.379
 5099POPC   NC364907   0.429  20.291   5.493
 5099POPC   PO464908   0.211  20.940   5.290
 5099POPC   GL164909   0.389  20.774   5.711
 5099POPC   GL264910   0.137  20.541   5.818
 5099POPC   C1A64911   0.455  20.661   6.193
 5099POPC   D2A64912   0.316  20.844   6.598
 5099POPC   C3A64913   0.466  20.731   7.008
 5099POPC   C4A64914   0.850  20.554   7.125
 5099POPC   C1B64915   0.146  20.251   6.165
 5099POPC   C2B64916   0.269  20.315   6.579
 5099POPC   C3B64917   0.068  20.166   6.954
 5099POPC   C4B64918  44.930  20.370   7.336
 5100POPC   NC364919  10.935  30.992   5.438
 5100POPC   PO464920  10.459  30.550   5.358
 5100POPC   GL164921  10.537  30.764   5.752
 5100POPC   GL264922  10.453  31.109   5.699
 5100POPC   C1A64923  10.550  30.590   6.197
 5100POPC   D2A64924  10.642  30.396   6.606
 5100POPC   C3A64925  10.334  30.457   6.921
 5100POPC   C4A64926  10.555  30.628   7.259
 5100POPC   C1B64927  10.636  31.098   6.146
 5100POPC   C2B64928  10.580  30.944   6.589
 5100POPC   C3B64929  10.593  31.141   7.014
 5100POPC   C4B64930  10.371  31.080   7.428
 5101POPC   NC364931   9.603  42.660   5.338
 5101POPC   PO464932   9.972  42.145   5.327
 5101POPC   GL164933   9.795  42.280   5.715
 5101POPC   GL264934   9.938  42.588   5.717
 5101POPC   C1A64935   9.748  42.202   6.171
 5101POPC   D2A64936   9.956  42.257   6.567
 5101POPC   C3A64937   9.817  42.129   6.943
 5101POPC   C4A64938   9.437  42.098   7.090
 5101POPC   C1B64939   9.653  42.697   6.044
 5101POPC   C2B64940   9.755  42.740   6.477
 5101POPC   C3B64941   9.626  42.663   6.885
 5101POPC   C4B64942   9.660  42.514   7.270
 5102POPC   NC364943  44.393  41.814   5.390
 5102POPC   PO464944  43.662  41.599   5.398
 5102POPC   GL164945  43.785  41.479   5.815
 5102POPC   GL264946  43.854  41.825   5.921
 5102POPC   C1A64947  43.950  41.358   6.239
 5102POPC   D2A64948  44.129  41.379   6.681
 5102POPC   C3A64949  43.841  41.401   7.013
 5102POPC   C4A64950  43.880  41.650   7.364
 5102POPC   C1B64951  44.229  41.954   6.148
 5102POPC   C2B64952  44.273  42.091   6.586
 5102POPC   C3B64953  44.125  41.875   6.962
 5102POPC   C4B64954  44.327  41.510   7.163
 5103POPC   NC364955  15.869  33.335   5.534
 5103POPC   PO464956  15.862  32.640   5.669
 5103POPC   GL164957  15.859  32.995   5.897
 5103POPC   GL264958  16.214  33.151   5.860
 5103POPC   C1A64959  15.876  33.290   6.209
 5103POPC   D2A64960  16.064  33.152   6.584
 5103POPC   C3A64961  15.776  32.916   6.855
 5103POPC   C4A64962  15.673  33.241   7.150
 5103POPC   C1B64963  16.228  32.820   6.208
 5103POPC   C2B64964  16.217  32.648   6.625
 5103POPC   C3B64965  16.256  32.906   6.995
 5103POPC   C4B64966  16.021  32.899   7.343
 5104POPC   NC364967  14.925  18.280   5.194
 5104POPC   PO464968  15.567  18.443   5.449
 5104POPC   GL164969  15.235  18.343   5.732
 5104POPC   GL264970  15.393  18.512   5.960
 5104POPC   C1A64971  15.053  18.189   6.164
 5104POPC   D2A64972  14.883  18.010   6.577
 5104POPC   C3A64973  14.942  18.258   6.967
 5104POPC   C4A64974  15.298  18.310   7.240
 5104POPC   C1B64975  15.162  18.685   6.237
 5104POPC   C2B64976  15.212  18.561   6.645
 5104POPC   C3B64977  15.127  18.769   7.028
 5104POPC   C4B64978  15.271  18.814   7.457
 5105POPC   NC364979  44.056  14.502   5.449
 5105POPC   PO464980  43.913  13.893   5.464
 5105POPC   GL164981  43.879  14.160   5.820
 5105POPC   GL264982  43.611  14.425   5.716
 5105POPC   C1A64983  43.967  14.527   6.124
 5105POPC   D2A64984  43.916  14.776   6.520
 5105POPC   C3A64985  43.924  14.564   6.935
 5105POPC   C4A64986  44.201  14.406   7.265
 5105POPC   C1B64987  43.502  14.287   6.132
 5105POPC   C2B64988  43.734  14.243   6.525
 5105POPC   C3B64989  43.569  14.175   6.931
 5105POPC   C4B64990  43.745  14.223   7.322
 5106POPC   NC364991  38.928   3.022   5.564
 5106POPC   PO464992  39.391   2.507   5.544
 5106POPC   GL164993  39.303   2.695   5.927
 5106POPC   GL264994  39.012   2.798   6.033
 5106POPC   C1A64995  39.432   2.790   6.352
 5106POPC   D2A64996  39.215   2.876   6.738
 5106POPC   C3A64997  39.308   2.600   7.097
 5106POPC   C4A64998  39.682   2.468   7.317
 5106POPC   C1B64999  39.090   2.422   6.313
 5106POPC   C2B65000  38.999   2.347   6.744
 5106POPC   C3B65001  38.817   2.667   7.010
 5106POPC   C4B65002  38.809   2.772   7.468
 5107POPC   NC365003  43.404   1.107   5.620
 5107POPC   PO465004  42.909   0.737   5.289
 5107POPC   GL165005  42.887   0.997   5.724
 5107POPC   GL265006  43.012   1.387   5.799
 5107POPC   C1A65007  43.046   1.055   6.170
 5107POPC   D2A65008  43.194   1.156   6.560
 5107POPC   C3A65009  43.188   0.859   6.885
 5107POPC   C4A65010  42.837   0.921   7.190
 5107POPC   C1B65011  43.324   1.518   6.169
 5107POPC   C2B65012  43.529   1.558   6.597
 5107POPC   C3B65013  43.286   1.430   6.988
 5107POPC   C4B65014  43.276   1.521   7.450
 5108POPC   NC365015  43.875   1.467   5.386
 5108POPC   PO465016  43.786   0.874   5.494
 5108POPC   GL165017  43.899   1.041   5.847
 5108POPC   GL265018  43.693   0.796   6.001
 5108POPC   C1A65019  44.131   1.211   6.182
 5108POPC   D2A65020  44.038   1.383   6.580
 5108POPC   C3A65021  44.065   1.257   7.015
 5108POPC   C4A65022  43.709   1.347   7.225
 5108POPC   C1B65023  43.640   1.109   6.309
 5108POPC   C2B65024  43.670   1.057   6.751
 5108POPC   C3B65025  43.656   0.832   7.123
 5108POPC   C4B65026  43.343   1.015   7.355
 5109POPC   NC365027  18.545  29.993   5.351
 5109POPC   PO465028  17.918  30.053   5.421
 5109POPC   GL165029  18.170  29.853   5.737
 5109POPC   GL265030  18.521  29.962   5.867
 5109POPC   C1A65031  18.053  29.861   6.161
 5109POPC   D2A65032  18.056  30.076   6.572
 5109POPC   C3A65033  18.056  29.877   6.979
 5109POPC   C4A65034  18.197  29.997   7.399
 5109POPC   C1B65035  18.515  29.969   6.331
 5109POPC   C2B65036  18.532  29.918   6.771
 5109POPC   C3B65037  18.670  30.196   7.083
 5109POPC   C4B65038  18.667  30.162   7.515
 5110POPC   NC365039  32.281   0.933   5.476
 5110POPC   PO465040  31.803   1.497   5.400
 5110POPC   GL165041  31.901   1.462   5.861
 5110POPC   GL265042  32.110   1.214   5.871
 5110POPC   C1A65043  32.069   1.485   6.331
 5110POPC   D2A65044  32.397   1.374   6.644
 5110POPC   C3A65045  32.279   1.168   7.007
 5110POPC   C4A65046  31.907   1.243   7.191
 5110POPC   C1B65047  32.369   1.064   6.206
 5110POPC   C2B65048  32.273   0.855   6.581
 5110POPC   C3B65049  32.475   0.716   6.928
 5110POPC   C4B65050  32.381   0.767   7.373
 5111POPC   NC365051  40.076  40.693   5.503
 5111POPC   PO465052  39.737  41.303   5.535
 5111POPC   GL165053  40.050  41.087   5.820
 5111POPC   GL265054  40.360  41.255   5.874
 5111POPC   C1A65055  40.137  40.850   6.178
 5111POPC   D2A65056  39.925  40.735   6.548
 5111POPC   C3A65057  40.015  40.755   6.963
 5111POPC   C4A65058  39.819  40.721   7.370
 5111POPC   C1B65059  40.254  41.341   6.288
 5111POPC   C2B65060  40.311  41.092   6.618
 5111POPC   C3B65061  40.431  41.092   7.021
 5111POPC   C4B65062  40.321  40.848   7.357
 5112POPC   NC365063   4.594   0.817   5.511
 5112POPC   PO465064   4.177   0.234   5.500
 5112POPC   GL165065   4.293   0.551   5.844
 5112POPC   GL265066   4.664   0.624   5.972
 5112POPC   C1A65067   4.254   0.565   6.291
 5112POPC   D2A65068   4.474   0.586   6.648
 5112POPC   C3A65069   4.210   0.440   6.993
 5112POPC   C4A65070   3.978   0.346   7.337
 5112POPC   C1B65071   4.631   0.237   6.218
 5112POPC   C2B65072   4.389   0.090   6.604
 5112POPC   C3B65073   4.607   0.136   7.010
 5112POPC   C4B65074   4.695   0.536   7.110
 5113POPC   NC365075  30.213  13.576   5.674
 5113POPC   PO465076  29.609  13.687   5.343
 5113POPC   GL165077  29.726  13.872   5.783
 5113POPC   GL265078  29.974  13.732   6.067
 5113POPC   C1A65079  29.600  14.000   6.204
 5113POPC   D2A65080  29.843  13.882   6.588
 5113POPC   C3A65081  29.689  13.520   6.847
 5113POPC   C4A65082  29.391  13.580   7.225
 5113POPC   C1B65083  29.967  13.394   6.366
 5113POPC   C2B65084  30.169  13.263   6.732
 5113POPC   C3B65085  30.244  13.400   7.123
 5113POPC   C4B65086  29.913  13.728   7.276
 5114POPC   NC365087   3.077  18.360   5.367
 5114POPC   PO465088   2.384  18.310   5.521
 5114POPC   GL165089   2.746  18.244   5.819
 5114POPC   GL265090   2.891  18.576   5.809
 5114POPC   C1A65091   2.999  18.180   6.214
 5114POPC   D2A65092   3.258  18.194   6.594
 5114POPC   C3A65093   3.014  18.184   6.972
 5114POPC   C4A65094   2.574  18.283   7.082
 5114POPC   C1B65095   2.696  18.625   6.221
 5114POPC   C2B65096   2.895  18.562   6.626
 5114POPC   C3B65097   2.926  18.725   7.037
 5114POPC   C4B65098   2.557  18.761   7.326
 5115POPC   NC365099  11.188  41.777   5.460
 5115POPC   PO465100  11.012  41.170   5.424
 5115POPC   GL165101  11.252  41.331   5.756
 5115POPC   GL265102  11.013  41.585   5.895
 5115POPC   C1A65103  11.173  41.205   6.195
 5115POPC   D2A65104  10.985  41.289   6.591
 5115POPC   C3A65105  11.245  41.188   6.929
 5115POPC   C4A65106  11.473  41.382   7.254
 5115POPC   C1B65107  11.409  41.698   6.101
 5115POPC   C2B65108  11.571  41.962   6.424
 5115POPC   C3B65109  11.651  41.894   6.841
 5115POPC   C4B65110  11.470  41.891   7.246
 5116POPC   NC365111  24.825  44.551   5.104
 5116POPC   PO465112  24.369  44.890   5.440
 5116POPC   GL165113  24.466  44.647   5.792
 5116POPC   GL265114  24.684  44.871   5.921
 5116POPC   C1A65115  24.574  44.451   6.207
 5116POPC   D2A65116  24.427  44.585   6.616
 5116POPC   C3A65117  24.707  44.590   6.931
 5116POPC   C4A65118  24.391  44.537   7.191
 5116POPC   C1B65119  24.540  44.970   6.317
 5116POPC   C2B65120  24.491   0.080   6.760
 5116POPC   C3B65121  24.602   0.012   7.202
 5116POPC   C4B65122  24.846   0.022   7.543
 5117POPC   NC365123   9.550  17.950   5.487
 5117POPC   PO465124   9.490  18.616   5.339
 5117POPC   GL165125   9.645  18.389   5.721
 5117POPC   GL265126   9.994  18.224   5.667
 5117POPC   C1A65127   9.470  18.234   6.141
 5117POPC   D2A65128   9.521  18.400   6.551
 5117POPC   C3A65129   9.526  18.149   6.875
 5117POPC   C4A65130   9.722  18.181   7.221
 5117POPC   C1B65131   9.957  18.330   6.121
 5117POPC   C2B65132  10.072  18.284   6.542
 5117POPC   C3B65133   9.945  18.495   6.901
 5117POPC   C4B65134  10.183  18.706   7.208
 5118POPC   NC365135   0.661   7.832   5.511
 5118POPC   PO465136   0.446   7.234   5.770
 5118POPC   GL165137   0.526   7.478   6.124
 5118POPC   GL265138   0.731   7.724   5.998
 5118POPC   C1A65139   0.373   7.584   6.535
 5118POPC   D2A65140  44.970   7.555   6.744
 5118POPC   C3A65141   0.172   7.338   7.042
 5118POPC   C4A65142   0.423   7.421   7.398
 5118POPC   C1B65143   0.859   7.740   6.412
 5118POPC   C2B65144   0.779   7.736   6.832
 5118POPC   C3B65145   0.755   7.781   7.270
 5118POPC   C4B65146   0.820   7.646   7.720
 5119POPC   NC365147  34.373  14.878   5.514
 5119POPC   PO465148  34.996  15.211   5.333
 5119POPC   GL165149  34.804  15.225   5.782
 5119POPC   GL265150  34.720  14.895   5.896
 5119POPC   C1A65151  34.845  15.194   6.276
 5119POPC   D2A65152  34.937  14.972   6.666
 5119POPC   C3A65153  34.759  15.191   7.017
 5119POPC   C4A65154  34.755  15.295   7.433
 5119POPC   C1B65155  34.347  15.136   6.118
 5119POPC   C2B65156  34.132  15.269   6.515
 5119POPC   C3B65157  34.238  15.144   6.936
 5119POPC   C4B65158  34.337  15.009   7.336
 5120POPC   NC365159  14.151  28.866   5.520
 5120POPC   PO465160  14.554  29.151   5.183
 5120POPC   GL165161  14.513  29.194   5.679
 5120POPC   GL265162  14.160  29.251   5.846
 5120POPC   C1A65163  14.572  29.044   6.127
 5120POPC   D2A65164  14.549  28.827   6.550
 5120POPC   C3A65165  14.237  28.919   6.876
 5120POPC   C4A65166  14.435  28.938   7.276
 5120POPC   C1B65167  14.086  29.125   6.283
 5120POPC   C2B65168  14.370  29.322   6.569
 5120POPC   C3B65169  14.443  29.379   7.009
 5120POPC   C4B65170  14.112  29.406   7.311
 5121POPC   NC365171   0.153  44.893   5.479
 5121POPC   PO465172  44.514  44.887   5.235
 5121POPC   GL165173  44.656  44.727   5.682
 5121POPC   GL265174  44.965  44.615   5.854
 5121POPC   C1A65175  44.611  44.801   6.156
 5121POPC   D2A65176  44.350  44.814   6.518
 5121POPC   C3A65177  44.443  44.562   6.861
 5121POPC   C4A65178  44.651  44.771   7.172
 5121POPC   C1B65179   0.078  44.604   6.289
 5121POPC   C2B65180  44.936  44.727   6.688
 5121POPC   C3B65181   0.134  44.669   7.068
 5121POPC   C4B65182   0.047  44.450   7.494
 5122POPC   NC365183  29.502  43.685   5.397
 5122POPC   PO465184  30.219  43.836   5.395
 5122POPC   GL165185  29.881  43.867   5.706
 5122POPC   GL265186  29.794  43.545   5.818
 5122POPC   C1A65187  29.815  44.046   6.124
 5122POPC   D2A65188  30.095  44.107   6.489
 5122POPC   C3A65189  29.924  44.026   6.891
 5122POPC   C4A65190  30.118  44.113   7.295
 5122POPC   C1B65191  30.123  43.623   6.134
 5122POPC   C2B65192  30.025  43.545   6.563
 5122POPC   C3B65193  30.107  43.454   6.956
 5122POPC   C4B65194  30.054  43.626   7.282
 5123POPC   NC365195  24.817   4.560   5.091
 5123POPC   PO465196  24.631   5.174   5.404
 5123POPC   GL165197  24.569   5.144   5.835
 5123POPC   GL265198  24.236   5.006   5.774
 5123POPC   C1A65199  24.721   5.275   6.252
 5123POPC   D2A65200  24.703   5.571   6.596
 5123POPC   C3A65201  24.737   5.372   6.979
 5123POPC   C4A65202  24.799   4.950   7.145
 5123POPC   C1B65203  24.182   5.207   6.183
 5123POPC   C2B65204  24.346   5.139   6.601
 5123POPC   C3B65205  24.334   5.049   7.021
 5123POPC   C4B65206  24.241   5.310   7.365
 5124POPC   NC365207   6.641  29.633   5.442
 5124POPC   PO465208   6.550  30.305   5.361
 5124POPC   GL165209   6.834  30.068   5.705
 5124POPC   GL265210   6.569  29.881   5.868
 5124POPC   C1A65211   6.942  29.991   6.186
 5124POPC   D2A65212   6.722  29.860   6.608
 5124POPC   C3A65213   6.792  30.050   7.039
 5124POPC   C4A65214   6.683  29.687   7.331
 5124POPC   C1B65215   6.370  29.850   6.245
 5124POPC   C2B65216   6.191  30.050   6.609
 5124POPC   C3B65217   6.300  29.916   7.020
 5124POPC   C4B65218   6.393  30.104   7.383
 5125POPC   NC365219   8.429  18.930   5.353
 5125POPC   PO465220   7.859  19.136   5.633
 5125POPC   GL165221   8.069  18.850   5.908
 5125POPC   GL265222   8.368  18.679   5.802
 5125POPC   C1A65223   8.195  18.863   6.361
 5125POPC   D2A65224   8.405  19.203   6.575
 5125POPC   C3A65225   8.326  19.394   6.952
 5125POPC   C4A65226   8.200  19.321   7.366
 5125POPC   C1B65227   8.629  18.586   6.171
 5125POPC   C2B65228   8.670  18.734   6.593
 5125POPC   C3B65229   8.350  18.793   6.935
 5125POPC   C4B65230   8.354  18.822   7.405
 5126POPC   NC365231   6.760  13.006   5.175
 5126POPC   PO465232   6.379  12.764   5.591
 5126POPC   GL165233   6.606  12.732   5.881
 5126POPC   GL265234   6.842  13.000   5.752
 5126POPC   C1A65235   6.389  12.714   6.289
 5126POPC   D2A65236   6.432  12.965   6.652
 5126POPC   C3A65237   6.838  12.923   6.826
 5126POPC   C4A65238   6.671  12.873   7.206
 5126POPC   C1B65239   6.595  13.154   6.127
 5126POPC   C2B65240   6.733  13.328   6.448
 5126POPC   C3B65241   6.674  13.413   6.867
 5126POPC   C4B65242   6.423  13.340   7.217
 5127POPC   NC365243  38.657  18.748   5.501
 5127POPC   PO465244  38.221  18.109   5.419
 5127POPC   GL165245  38.484  18.264   5.748
 5127POPC   GL265246  38.300  18.558   5.823
 5127POPC   C1A65247  38.603  18.093   6.159
 5127POPC   D2A65248  38.805  18.031   6.579
 5127POPC   C3A65249  38.553  17.997   6.942
 5127POPC   C4A65250  38.516  18.237   7.305
 5127POPC   C1B65251  38.218  18.418   6.207
 5127POPC   C2B65252  38.275  18.255   6.590
 5127POPC   C3B65253  38.493  18.517   6.867
 5127POPC   C4B65254  38.285  18.660   7.208
 5128POPC   NC365255   8.657  28.016   5.621
 5128POPC   PO465256   9.008  28.539   5.358
 5128POPC   GL165257   9.001  28.366   5.792
 5128POPC   GL265258   8.703  28.470   5.962
 5128POPC   C1A65259   9.199  28.550   6.168
 5128POPC   D2A65260   9.227  28.682   6.578
 5128POPC   C3A65261   9.203  28.308   6.738
 5128POPC   C4A65262   9.124  28.204   7.117
 5128POPC   C1B65263   8.836  28.204   6.342
 5128POPC   C2B65264   8.689  28.213   6.780
 5128POPC   C3B65265   8.814  28.585   6.969
 5128POPC   C4B65266   9.203  28.733   7.133
 5129POPC   NC365267  15.973   6.435   5.342
 5129POPC   PO465268  15.770   7.104   5.524
 5129POPC   GL165269  15.808   6.872   5.883
 5129POPC   GL265270  16.085   6.664   5.821
 5129POPC   C1A65271  15.928   6.935   6.320
 5129POPC   D2A65272  15.654   6.863   6.680
 5129POPC   C3A65273  15.899   6.904   7.046
 5129POPC   C4A65274  16.062   6.748   7.452
 5129POPC   C1B65275  16.094   6.440   6.217
 5129POPC   C2B65276  16.011   6.501   6.637
 5129POPC   C3B65277  16.145   6.429   7.024
 5129POPC   C4B65278  16.336   6.316   7.384
 5130POPC   NC365279  12.222  31.666   5.518
 5130POPC   PO465280  11.785  31.469   5.081
 5130POPC   GL165281  11.794  31.437   5.644
 5130POPC   GL265282  11.772  31.102   5.801
 5130POPC   C1A65283  12.054  31.458   6.091
 5130POPC   D2A65284  12.371  31.497   6.437
 5130POPC   C3A65285  12.275  31.592   6.891
 5130POPC   C4A65286  12.157  31.662   7.345
 5130POPC   C1B65287  11.768  31.046   6.269
 5130POPC   C2B65288  11.923  31.280   6.661
 5130POPC   C3B65289  11.945  31.245   7.148
 5130POPC   C4B65290  11.844  31.341   7.607
 5131POPC   NC365291  25.167  13.350   5.648
 5131POPC   PO465292  25.309  13.991   5.451
 5131POPC   GL165293  25.463  13.778   5.806
 5131POPC   GL265294  25.146  13.788   5.984
 5131POPC   C1A65295  25.539  13.507   6.164
 5131POPC   D2A65296  25.601  13.691   6.567
 5131POPC   C3A65297  25.488  13.489   6.941
 5131POPC   C4A65298  25.447  13.687   7.368
 5131POPC   C1B65299  25.090  13.562   6.406
 5131POPC   C2B65300  25.142  13.180   6.654
 5131POPC   C3B65301  25.107  13.177   7.110
 5131POPC   C4B65302  25.019  13.424   7.506
 5132POPC   NC365303  34.596  27.471   5.458
 5132POPC   PO465304  34.521  28.123   5.456
 5132POPC   GL165305  34.334  27.914   5.815
 5132POPC   GL265306  34.235  27.537   5.782
 5132POPC   C1A65307  34.531  27.917   6.220
 5132POPC   D2A65308  34.784  27.705   6.569
 5132POPC   C3A65309  34.562  27.731   6.956
 5132POPC   C4A65310  34.370  27.856   7.337
 5132POPC   C1B65311  34.451  27.419   6.152
 5132POPC   C2B65312  34.316  27.451   6.567
 5132POPC   C3B65313  34.429  27.236   6.943
 5132POPC   C4B65314  34.799  27.309   7.122
 5133POPC   NC365315  25.084  36.743   5.584
 5133POPC   PO465316  25.463  37.255   5.385
 5133POPC   GL165317  25.461  37.046   5.826
 5133POPC   GL265318  25.131  37.076   5.977
 5133POPC   C1A65319  25.439  36.952   6.333
 5133POPC   D2A65320  25.128  37.013   6.712
 5133POPC   C3A65321  25.326  36.930   7.087
 5133POPC   C4A65322  25.644  36.618   6.954
 5133POPC   C1B65323  24.911  36.823   6.271
 5133POPC   C2B65324  24.763  36.645   6.651
 5133POPC   C3B65325  24.817  36.798   7.097
 5133POPC   C4B65326  24.771  36.683   7.528
 5134POPC   NC365327  22.066  24.511   5.288
 5134POPC   PO465328  22.655  24.274   5.159
 5134POPC   GL165329  22.362  24.514   5.697
 5134POPC   GL265330  22.018  24.521   5.798
 5134POPC   C1A65331  22.411  24.605   6.176
 5134POPC   D2A65332  22.704  24.605   6.540
 5134POPC   C3A65333  22.599  24.447   6.963
 5134POPC   C4A65334  22.563  24.748   7.273
 5134POPC   C1B65335  22.035  24.262   6.200
 5134POPC   C2B65336  22.197  24.338   6.655
 5134POPC   C3B65337  22.088  24.590   7.056
 5134POPC   C4B65338  22.001  24.750   7.501
 5135POPC   NC365339  34.456   1.095   5.356
 5135POPC   PO465340  34.951   1.550   5.390
 5135POPC   GL165341  34.817   1.289   5.741
 5135POPC   GL265342  34.485   1.245   5.863
 5135POPC   C1A65343  34.845   1.440   6.179
 5135POPC   D2A65344  34.535   1.420   6.510
 5135POPC   C3A65345  34.741   1.380   6.912
 5135POPC   C4A65346  34.887   1.376   7.342
 5135POPC   C1B65347  34.679   0.956   6.199
 5135POPC   C2B65348  34.615   0.758   6.626
 5135POPC   C3B65349  34.667   0.889   7.072
 5135POPC   C4B65350  34.402   1.210   7.270
 5136POPC   NC365351  29.234  10.620   5.436
 5136POPC   PO465352  28.769  10.301   5.799
 5136POPC   GL165353  28.976  10.683   5.916
 5136POPC   GL265354  29.328  10.635   5.934
 5136POPC   C1A65355  29.077  10.850   6.350
 5136POPC   D2A65356  29.341  10.709   6.704
 5136POPC   C3A65357  29.057  10.567   7.004
 5136POPC   C4A65358  28.775  10.785   7.242
 5136POPC   C1B65359  29.269  10.371   6.297
 5136POPC   C2B65360  29.280  10.164   6.707
 5136POPC   C3B65361  29.431  10.189   7.106
 5136POPC   C4B65362  29.518  10.588   7.216
 5137POPC   NC365363  44.220   3.753   5.408
 5137POPC   PO465364  43.631   3.727   5.314
 5137POPC   GL165365  43.821   3.584   5.719
 5137POPC   GL265366  44.100   3.767   5.891
 5137POPC   C1A65367  43.711   3.561   6.179
 5137POPC   D2A65368  43.719   3.753   6.603
 5137POPC   C3A65369  43.725   3.496   6.940
 5137POPC   C4A65370  44.000   3.260   7.145
 5137POPC   C1B65371  44.089   3.897   6.295
 5137POPC   C2B65372  44.252   3.832   6.705
 5137POPC   C3B65373  44.114   3.809   7.131
 5137POPC   C4B65374  44.086   4.033   7.532
 5138POPC   NC365375  42.164  44.387   5.453
 5138POPC   PO465376  42.305   0.013   5.623
 5138POPC   GL165377  42.583  44.807   5.879
 5138POPC   GL265378  42.480  44.442   5.882
 5138POPC   C1A65379  42.466  44.761   6.296
 5138POPC   D2A65380  42.291  44.426   6.521
 5138POPC   C3A65381  42.285  44.640   6.888
 5138POPC   C4A65382  42.135  44.954   7.134
 5138POPC   C1B65383  42.047  44.544   6.075
 5138POPC   C2B65384  41.792  44.325   6.384
 5138POPC   C3B65385  41.840  44.305   6.816
 5138POPC   C4B65386  42.100  44.282   7.182
 5139POPC   NC365387  29.427  16.925   5.512
 5139POPC   PO465388  28.866  16.533   5.470
 5139POPC   GL165389  29.068  16.478   5.871
 5139POPC   GL265390  29.076  16.851   5.957
 5139POPC   C1A65391  28.860  16.504   6.278
 5139POPC   D2A65392  28.873  16.803   6.611
 5139POPC   C3A65393  28.903  16.616   7.001
 5139POPC   C4A65394  29.194  16.719   7.315
 5139POPC   C1B65395  29.324  16.721   6.354
 5139POPC   C2B65396  29.391  16.807   6.826
 5139POPC   C3B65397  29.547  17.067   7.208
 5139POPC   C4B65398  29.410  17.026   7.651
 5140POPC   NC365399   5.721  37.287   5.626
 5140POPC   PO465400   5.221  37.556   5.265
 5140POPC   GL165401   5.268  37.635   5.697
 5140POPC   GL265402   5.526  37.857   5.759
 5140POPC   C1A65403   5.160  37.552   6.139
 5140POPC   D2A65404   4.900  37.636   6.516
 5140POPC   C3A65405   5.100  37.519   6.930
 5140POPC   C4A65406   4.896  37.671   7.315
 5140POPC   C1B65407   5.401  37.998   6.163
 5140POPC   C2B65408   5.385  37.794   6.567
 5140POPC   C3B65409   5.467  37.920   6.980
 5140POPC   C4B65410   5.407  37.678   7.339
 5141POPC   NC365411   6.268  19.954   5.550
 5141POPC   PO465412   6.604  19.453   5.164
 5141POPC   GL165413   6.716  19.658   5.614
 5141POPC   GL265414   6.837  19.997   5.768
 5141POPC   C1A65415   6.651  19.657   6.096
 5141POPC   D2A65416   6.524  19.540   6.524
 5141POPC   C3A65417   6.812  19.552   6.895
 5141POPC   C4A65418   6.634  19.643   7.299
 5141POPC   C1B65419   6.618  20.172   6.161
 5141POPC   C2B65420   6.806  20.137   6.568
 5141POPC   C3B65421   6.753  20.101   6.998
 5141POPC   C4B65422   6.377  20.085   7.227
 5142POPC   NC365423  28.346  33.699   5.432
 5142POPC   PO465424  28.437  34.410   5.428
 5142POPC   GL165425  28.528  34.106   5.749
 5142POPC   GL265426  28.194  34.024   5.858
 5142POPC   C1A65427  28.567  33.860   6.157
 5142POPC   D2A65428  28.458  33.592   6.524
 5142POPC   C3A65429  28.559  33.811   6.903
 5142POPC   C4A65430  28.361  33.894   7.278
 5142POPC   C1B65431  28.071  33.645   6.129
 5142POPC   C2B65432  27.905  33.564   6.538
 5142POPC   C3B65433  28.086  33.625   6.926
 5142POPC   C4B65434  27.996  33.495   7.312
 5143POPC   NC365435  38.914  40.435   5.489
 5143POPC   PO465436  39.199  39.813   5.428
 5143POPC   GL165437  39.095  39.974   5.832
 5143POPC   GL265438  38.978  40.276   5.965
 5143POPC   C1A65439  39.094  39.883   6.274
 5143POPC   D2A65440  39.391  39.971   6.587
 5143POPC   C3A65441  39.174  40.078   6.917
 5143POPC   C4A65442  39.229  39.820   7.238
 5143POPC   C1B65443  39.381  40.324   6.216
 5143POPC   C2B65444  39.526  40.447   6.682
 5143POPC   C3B65445  39.444  40.452   7.151
 5143POPC   C4B65446  39.038  40.322   7.351
 5144POPC   NC365447  28.522  35.667   5.558
 5144POPC   PO465448  28.509  36.223   5.192
 5144POPC   GL165449  28.323  36.203   5.608
 5144POPC   GL265450  28.635  36.304   5.785
 5144POPC   C1A65451  28.194  36.189   6.063
 5144POPC   D2A65452  28.266  35.894   6.421
 5144POPC   C3A65453  28.220  36.041   6.842
 5144POPC   C4A65454  28.267  35.895   7.243
 5144POPC   C1B65455  28.689  36.130   6.222
 5144POPC   C2B65456  28.592  36.302   6.637
 5144POPC   C3B65457  28.736  36.360   7.077
 5144POPC   C4B65458  28.859  36.580   7.472
 5145POPC   NC365459  25.343  18.182   5.419
 5145POPC   PO465460  24.953  18.661   5.470
 5145POPC   GL165461  25.296  18.581   5.791
 5145POPC   GL265462  25.375  18.234   5.925
 5145POPC   C1A65463  25.400  18.613   6.261
 5145POPC   D2A65464  25.568  18.542   6.702
 5145POPC   C3A65465  25.256  18.488   7.024
 5145POPC   C4A65466  25.087  18.099   7.164
 5145POPC   C1B65467  25.535  18.127   6.359
 5145POPC   C2B65468  25.426  17.996   6.784
 5145POPC   C3B65469  25.463  17.736   7.176
 5145POPC   C4B65470  25.517  17.803   7.629
 5146POPC   NC365471  20.994  11.441   5.428
 5146POPC   PO465472  20.403  11.090   5.460
 5146POPC   GL165473  20.554  11.409   5.795
 5146POPC   GL265474  20.862  11.632   5.887
 5146POPC   C1A65475  20.425  11.515   6.216
 5146POPC   D2A65476  20.258  11.593   6.622
 5146POPC   C3A65477  20.383  11.356   6.973
 5146POPC   C4A65478  20.275  11.408   7.395
 5146POPC   C1B65479  20.877  11.280   6.188
 5146POPC   C2B65480  20.755  11.287   6.622
 5146POPC   C3B65481  20.869  11.478   7.017
 5146POPC   C4B65482  20.955  11.313   7.403
 5147POPC   NC365483  39.315  11.175   5.450
 5147POPC   PO465484  38.782  11.184   5.559
 5147POPC   GL165485  39.144  11.231   5.929
 5147POPC   GL265486  39.537  11.161   5.932
 5147POPC   C1A65487  39.273  11.218   6.389
 5147POPC   D2A65488  39.045  11.196   6.816
 5147POPC   C3A65489  39.253  11.376   7.172
 5147POPC   C4A65490  39.574  11.194   7.399
 5147POPC   C1B65491  39.807  11.440   6.272
 5147POPC   C2B65492  39.842  11.657   6.727
 5147POPC   C3B65493  39.613  11.744   7.153
 5147POPC   C4B65494  39.468  11.656   7.593
 5148POPC   NC365495  18.477  15.452   5.636
 5148POPC   PO465496  19.065  15.074   5.347
 5148POPC   GL165497  19.157  15.158   5.781
 5148POPC   GL265498  19.420  15.448   5.831
 5148POPC   C1A65499  18.879  15.053   6.128
 5148POPC   D2A65500  18.708  15.261   6.499
 5148POPC   C3A65501  18.918  15.129   6.899
 5148POPC   C4A65502  18.717  15.043   7.297
 5148POPC   C1B65503  19.367  15.232   6.245
 5148POPC   C2B65504  19.486  15.146   6.652
 5148POPC   C3B65505  19.447  15.071   7.070
 5148POPC   C4B65506  19.154  15.296   7.341
 5149POPC   NC365507  40.443  35.262   5.419
 5149POPC   PO465508  39.744  35.517   5.382
 5149POPC   GL165509  39.938  35.345   5.762
 5149POPC   GL265510  40.238  35.482   5.831
 5149POPC   C1A65511  39.903  35.263   6.222
 5149POPC   D2A65512  39.998  35.006   6.603
 5149POPC   C3A65513  39.849  35.189   6.992
 5149POPC   C4A65514  39.534  35.114   7.298
 5149POPC   C1B65515  40.308  35.613   6.247
 5149POPC   C2B65516  40.106  35.514   6.629
 5149POPC   C3B65517  40.215  35.542   7.033
 5149POPC   C4B65518  40.350  35.362   7.420
 5150POPC   NC365519  37.611  20.609   5.313
 5150POPC   PO465520  37.639  21.128   5.726
 5150POPC   GL165521  37.608  20.755   5.932
 5150POPC   GL265522  37.803  20.477   5.770
 5150POPC   C1A65523  37.630  20.713   6.379
 5150POPC   D2A65524  37.515  20.411   6.683
 5150POPC   C3A65525  37.525  20.665   7.043
 5150POPC   C4A65526  37.310  20.695   7.397
 5150POPC   C1B65527  37.841  20.300   6.211
 5150POPC   C2B65528  38.019  20.283   6.659
 5150POPC   C3B65529  37.900  20.331   7.111
 5150POPC   C4B65530  37.974  20.356   7.571
 5151POPC   NC365531   5.318   4.918   5.424
 5151POPC   PO465532   4.812   5.377   5.332
 5151POPC   GL165533   4.947   5.254   5.732
 5151POPC   GL265534   5.302   5.290   5.790
 5151POPC   C1A65535   4.727   5.192   6.122
 5151POPC   D2A65536   4.902   5.109   6.525
 5151POPC   C3A65537   4.743   5.320   6.896
 5151POPC   C4A65538   4.558   5.256   7.305
 5151POPC   C1B65539   5.230   4.967   6.125
 5151POPC   C2B65540   5.343   4.832   6.569
 5151POPC   C3B65541   5.191   5.022   6.945
 5151POPC   C4B65542   5.236   5.428   7.078
 5152POPC   NC365543  34.294  37.422   5.399
 5152POPC   PO465544  34.873  37.908   5.480
 5152POPC   GL165545  34.648  37.765   5.876
 5152POPC   GL265546  34.319  37.626   5.858
 5152POPC   C1A65547  34.502  37.705   6.322
 5152POPC   D2A65548  34.695  37.557   6.668
 5152POPC   C3A65549  34.493  37.484   7.029
 5152POPC   C4A65550  34.224  37.832   7.169
 5152POPC   C1B65551  34.129  37.399   6.216
 5152POPC   C2B65552  34.084  37.615   6.633
 5152POPC   C3B65553  33.998  37.401   7.005
 5152POPC   C4B65554  34.104  37.339   7.428
 5153POPC   NC365555  40.342   0.974   5.341
 5153POPC   PO465556  39.863   1.318   5.493
 5153POPC   GL165557  39.879   1.418   5.908
 5153POPC   GL265558  39.761   1.091   5.946
 5153POPC   C1A65559  39.928   1.418   6.348
 5153POPC   D2A65560  39.846   1.199   6.729
 5153POPC   C3A65561  40.085   1.357   7.092
 5153POPC   C4A65562  40.072   1.266   7.531
 5153POPC   C1B65563  39.837   0.896   6.297
 5153POPC   C2B65564  40.118   0.740   6.615
 5153POPC   C3B65565  40.038   0.847   7.043
 5153POPC   C4B65566  39.687   1.066   7.219
 5154POPC   NC365567   6.472  35.845   5.421
 5154POPC   PO465568   6.389  36.507   5.416
 5154POPC   GL165569   6.718  36.310   5.718
 5154POPC   GL265570   6.698  35.953   5.867
 5154POPC   C1A65571   6.705  36.348   6.190
 5154POPC   D2A65572   6.809  36.091   6.572
 5154POPC   C3A65573   6.647  36.283   6.962
 5154POPC   C4A65574   6.665  36.207   7.405
 5154POPC   C1B65575   6.394  35.935   6.254
 5154POPC   C2B65576   6.382  35.843   6.727
 5154POPC   C3B65577   6.660  35.783   7.090
 5154POPC   C4B65578   6.599  35.737   7.561
 5155POPC   NC365579  32.878  14.537   5.209
 5155POPC   PO465580  33.242  14.041   5.489
 5155POPC   GL165581  33.040  14.319   5.772
 5155POPC   GL265582  33.169  14.611   5.660
 5155POPC   C1A65583  32.904  14.373   6.210
 5155POPC   D2A65584  33.075  14.405   6.646
 5155POPC   C3A65585  32.909  14.661   6.978
 5155POPC   C4A65586  32.740  14.730   7.392
 5155POPC   C1B65587  33.389  14.596   6.080
 5155POPC   C2B65588  33.440  14.754   6.503
 5155POPC   C3B65589  33.509  14.588   6.925
 5155POPC   C4B65590  33.270  14.316   7.166
 5156POPC   NC365591  10.132  30.891   5.338
 5156POPC   PO465592   9.555  30.520   5.445
 5156POPC   GL165593   9.723  30.749   5.806
 5156POPC   GL265594   9.918  31.061   5.769
 5156POPC   C1A65595   9.651  30.869   6.242
 5156POPC   D2A65596   9.627  30.654   6.640
 5156POPC   C3A65597   9.672  30.795   7.055
 5156POPC   C4A65598  10.036  30.665   7.333
 5156POPC   C1B65599  10.152  30.931   6.114
 5156POPC   C2B65600  10.121  30.751   6.518
 5156POPC   C3B65601  10.146  30.939   6.918
 5156POPC   C4B65602   9.923  31.180   7.232
 5157POPC   NC365603  13.817  16.372   5.444
 5157POPC   PO465604  13.367  16.880   5.264
 5157POPC   GL165605  13.574  16.789   5.665
 5157POPC   GL265606  13.292  16.728   5.858
 5157POPC   C1A65607  13.735  16.821   6.118
 5157POPC   D2A65608  13.857  16.971   6.549
 5157POPC   C3A65609  13.720  16.846   6.976
 5157POPC   C4A65610  13.343  16.702   7.161
 5157POPC   C1B65611  13.323  16.584   6.300
 5157POPC   C2B65612  13.355  16.443   6.710
 5157POPC   C3B65613  13.690  16.322   6.987
 5157POPC   C4B65614  14.044  16.477   7.230
 5158POPC   NC365615  18.998   1.091   5.165
 5158POPC   PO465616  18.395   1.208   5.439
 5158POPC   GL165617  18.378   1.034   5.862
 5158POPC   GL265618  18.154   0.787   5.896
 5158POPC   C1A65619  18.428   1.191   6.283
 5158POPC   D2A65620  18.618   1.427   6.612
 5158POPC   C3A65621  18.308   1.379   6.925
 5158POPC   C4A65622  18.037   1.540   7.260
 5158POPC   C1B65623  18.047   0.825   6.306
 5158POPC   C2B65624  17.960   1.121   6.603
 5158POPC   C3B65625  17.888   1.097   7.018
 5158POPC   C4B65626  18.080   1.049   7.421
 5159POPC   NC365627   8.060  41.152   5.421
 5159POPC   PO465628   8.325  40.549   5.307
 5159POPC   GL165629   8.209  40.679   5.706
 5159POPC   GL265630   8.421  40.955   5.754
 5159POPC   C1A65631   8.244  40.560   6.148
 5159POPC   D2A65632   8.439  40.435   6.531
 5159POPC   C3A65633   8.310  40.603   6.939
 5159POPC   C4A65634   8.285  40.395   7.345
 5159POPC   C1B65635   8.099  41.041   6.075
 5159POPC   C2B65636   8.150  41.019   6.530
 5159POPC   C3B65637   7.992  40.994   6.968
 5159POPC   C4B65638   8.019  40.833   7.418
 5160POPC   NC365639  36.313  29.793   5.737
 5160POPC   PO465640  35.895  30.062   5.232
 5160POPC   GL165641  35.784  30.037   5.724
 5160POPC   GL265642  35.681  29.738   5.969
 5160POPC   C1A65643  35.916  30.131   6.172
 5160POPC   D2A65644  36.237  30.093   6.515
 5160POPC   C3A65645  36.232  29.870   6.912
 5160POPC   C4A65646  36.416  29.875   7.323
 5160POPC   C1B65647  36.003  29.631   6.309
 5160POPC   C2B65648  35.802  29.794   6.626
 5160POPC   C3B65649  35.667  29.763   7.019
 5160POPC   C4B65650  35.888  29.953   7.333
 5161POPC   NC365651  42.248  12.526   5.226
 5161POPC   PO465652  42.524  13.044   5.474
 5161POPC   GL165653  42.216  12.905   5.764
 5161POPC   GL265654  42.417  12.761   5.989
 5161POPC   C1A65655  41.968  12.907   6.180
 5161POPC   D2A65656  41.990  13.131   6.548
 5161POPC   C3A65657  42.165  12.845   6.868
 5161POPC   C4A65658  42.556  12.920   7.134
 5161POPC   C1B65659  42.378  12.553   6.382
 5161POPC   C2B65660  42.573  12.535   6.777
 5161POPC   C3B65661  42.729  12.436   7.178
 5161POPC   C4B65662  42.668  12.629   7.591
 5162POPC   NC365663  44.345  18.678   5.371
 5162POPC   PO465664  43.680  18.849   5.343
 5162POPC   GL165665  43.825  18.878   5.800
 5162POPC   GL265666  44.191  18.864   5.842
 5162POPC   C1A65667  43.915  19.170   6.205
 5162POPC   D2A65668  43.772  19.343   6.634
 5162POPC   C3A65669  43.957  19.427   7.062
 5162POPC   C4A65670  43.841  19.316   7.495
 5162POPC   C1B65671  43.978  18.673   6.223
 5162POPC   C2B65672  43.939  18.837   6.626
 5162POPC   C3B65673  43.779  18.951   7.010
 5162POPC   C4B65674  44.134  18.956   7.307
 5163POPC   NC365675   8.441  33.934   5.377
 5163POPC   PO465676   7.897  33.884   5.046
 5163POPC   GL165677   7.981  33.876   5.594
 5163POPC   GL265678   8.249  34.075   5.795
 5163POPC   C1A65679   7.920  33.888   6.108
 5163POPC   D2A65680   8.115  33.606   6.463
 5163POPC   C3A65681   7.997  33.565   6.905
 5163POPC   C4A65682   7.747  33.766   7.231
 5163POPC   C1B65683   8.444  33.783   6.090
 5163POPC   C2B65684   8.649  33.803   6.488
 5163POPC   C3B65685   8.515  33.708   6.892
 5163POPC   C4B65686   8.255  33.933   7.128
 5164POPC   NC365687   8.813   0.046   5.025
 5164POPC   PO465688   8.824  44.596   5.612
 5164POPC   GL165689   9.209  44.643   5.795
 5164POPC   GL265690   9.237  44.996   5.910
 5164POPC   C1A65691   9.388  44.566   6.196
 5164POPC   D2A65692   9.296  44.762   6.574
 5164POPC   C3A65693   9.116  44.480   6.868
 5164POPC   C4A65694   9.006  44.528   7.301
 5164POPC   C1B65695   8.930  44.783   6.209
 5164POPC   C2B65696   8.711  44.627   6.533
 5164POPC   C3B65697   8.632  44.687   6.964
 5164POPC   C4B65698   8.737   0.065   7.202
 5165POPC   NC365699  10.725  21.180   5.527
 5165POPC   PO465700  10.106  21.498   5.471
 5165POPC   GL165701  10.306  21.461   5.865
 5165POPC   GL265702  10.595  21.635   5.848
 5165POPC   C1A65703  10.541  21.294   6.247
 5165POPC   D2A65704  10.743  21.098   6.638
 5165POPC   C3A65705  10.539  21.256   7.022
 5165POPC   C4A65706  10.337  21.676   7.060
 5165POPC   C1B65707  10.951  21.619   6.148
 5165POPC   C2B65708  11.115  21.729   6.556
 5165POPC   C3B65709  10.902  21.619   6.920
 5165POPC   C4B65710  10.778  21.598   7.327
 5166POPC   NC365711  41.179  37.001   5.269
 5166POPC   PO465712  41.636  37.247   5.712
 5166POPC   GL165713  41.658  36.997   6.048
 5166POPC   GL265714  41.684  36.634   5.952
 5166POPC   C1A65715  41.341  37.062   6.362
 5166POPC   D2A65716  41.113  36.990   6.724
 5166POPC   C3A65717  41.410  37.150   6.989
 5166POPC   C4A65718  41.488  37.124   7.410
 5166POPC   C1B65719  41.559  36.598   6.397
 5166POPC   C2B65720  41.822  36.607   6.759
 5166POPC   C3B65721  41.801  36.840   7.122
 5166POPC   C4B65722  41.820  36.754   7.558
 5167POPC   NC365723  23.249   5.574   5.400
 5167POPC   PO465724  22.798   6.043   5.386
 5167POPC   GL165725  22.825   5.771   5.746
 5167POPC   GL265726  23.115   5.915   5.822
 5167POPC   C1A65727  22.875   5.690   6.216
 5167POPC   D2A65728  23.003   5.881   6.642
 5167POPC   C3A65729  23.063   5.686   7.060
 5167POPC   C4A65730  23.212   5.466   7.459
 5167POPC   C1B65731  23.135   6.147   6.239
 5167POPC   C2B65732  23.264   6.345   6.668
 5167POPC   C3B65733  23.282   6.250   7.133
 5167POPC   C4B65734  23.313   6.293   7.597
 5168POPC   NC365735  27.351  29.480   5.240
 5168POPC   PO465736  27.039  29.005   5.411
 5168POPC   GL165737  26.788  29.044   5.809
 5168POPC   GL265738  26.423  28.987   5.780
 5168POPC   C1A65739  26.836  29.191   6.198
 5168POPC   D2A65740  26.795  28.990   6.584
 5168POPC   C3A65741  26.919  29.159   6.947
 5168POPC   C4A65742  26.935  28.881   7.315
 5168POPC   C1B65743  26.384  28.932   6.234
 5168POPC   C2B65744  26.332  28.799   6.663
 5168POPC   C3B65745  26.481  28.911   7.056
 5168POPC   C4B65746  26.391  28.898   7.510
 5169POPC   NC365747  19.300  36.868   5.481
 5169POPC   PO465748  18.769  36.512   5.515
 5169POPC   GL165749  18.949  36.787   5.858
 5169POPC   GL265750  18.963  37.131   5.826
 5169POPC   C1A65751  19.032  36.830   6.280
 5169POPC   D2A65752  19.050  36.792   6.709
 5169POPC   C3A65753  19.106  36.834   7.127
 5169POPC   C4A65754  19.099  36.887   7.559
 5169POPC   C1B65755  18.643  37.180   6.151
 5169POPC   C2B65756  18.554  37.306   6.570
 5169POPC   C3B65757  18.738  37.151   6.932
 5169POPC   C4B65758  18.764  37.289   7.337
 5170POPC   NC365759  34.842  23.673   5.362
 5170POPC   PO465760  34.261  24.027   5.451
 5170POPC   GL165761  34.546  23.906   5.732
 5170POPC   GL265762  34.539  23.574   5.813
 5170POPC   C1A65763  34.665  24.009   6.123
 5170POPC   D2A65764  34.588  23.814   6.515
 5170POPC   C3A65765  34.777  23.930   6.906
 5170POPC   C4A65766  34.633  23.819   7.334
 5170POPC   C1B65767  34.508  23.390   6.236
 5170POPC   C2B65768  34.589  23.343   6.704
 5170POPC   C3B65769  34.505  23.340   7.164
 5170POPC   C4B65770  34.435  23.368   7.612
 5171POPC   NC365771   0.974  39.420   5.548
 5171POPC   PO465772   0.877  38.699   5.486
 5171POPC   GL165773   1.062  38.970   5.815
 5171POPC   GL265774   1.428  39.056   5.729
 5171POPC   C1A65775   0.932  39.041   6.257
 5171POPC   D2A65776   1.004  38.936   6.712
 5171POPC   C3A65777   1.022  39.302   7.024
 5171POPC   C4A65778   0.948  39.374   7.515
 5171POPC   C1B65779   1.418  39.243   6.131
 5171POPC   C2B65780   1.348  39.303   6.556
 5171POPC   C3B65781   1.534  39.223   6.922
 5171POPC   C4B65782   1.429  39.300   7.347
 5172POPC   NC365783  26.366   6.420   5.588
 5172POPC   PO465784  25.884   6.846   5.396
 5172POPC   GL165785  25.996   6.669   5.831
 5172POPC   GL265786  26.325   6.845   5.927
 5172POPC   C1A65787  26.181   6.400   6.206
 5172POPC   D2A65788  26.332   6.266   6.655
 5172POPC   C3A65789  26.193   6.503   7.044
 5172POPC   C4A65790  26.394   6.852   7.271
 5172POPC   C1B65791  26.068   6.871   6.309
 5172POPC   C2B65792  25.692   7.027   6.487
 5172POPC   C3B65793  25.604   6.983   6.908
 5172POPC   C4B65794  25.900   6.938   7.226
 5173POPC   NC365795  34.056  39.054   5.412
 5173POPC   PO465796  33.570  39.543   5.233
 5173POPC   GL165797  33.742  39.331   5.686
 5173POPC   GL265798  34.050  39.475   5.821
 5173POPC   C1A65799  33.720  39.195   6.172
 5173POPC   D2A65800  33.450  39.065   6.594
 5173POPC   C3A65801  33.560  39.189   7.062
 5173POPC   C4A65802  33.536  38.934   7.453
 5173POPC   C1B65803  34.016  39.626   6.254
 5173POPC   C2B65804  33.837  39.443   6.652
 5173POPC   C3B65805  34.060  39.212   6.985
 5173POPC   C4B65806  33.969  39.230   7.430
 5174POPC   NC365807  28.730  17.791   5.304
 5174POPC   PO465808  29.132  17.280   5.489
 5174POPC   GL165809  29.059  17.568   5.817
 5174POPC   GL265810  28.774  17.371   5.904
 5174POPC   C1A65811  29.128  17.755   6.243
 5174POPC   D2A65812  29.225  17.628   6.652
 5174POPC   C3A65813  29.052  17.655   7.061
 5174POPC   C4A65814  29.388  17.547   7.360
 5174POPC   C1B65815  28.942  17.262   6.298
 5174POPC   C2B65816  28.859  17.299   6.721
 5174POPC   C3B65817  29.019  17.133   7.068
 5174POPC   C4B65818  28.991  17.233   7.483
 5175POPC   NC365819  42.751  28.549   4.996
 5175POPC   PO465820  43.054  28.363   5.492
 5175POPC   GL165821  43.025  28.430   5.925
 5175POPC   GL265822  43.349  28.371   6.061
 5175POPC   C1A65823  42.924  28.310   6.355
 5175POPC   D2A65824  43.171  28.305   6.743
 5175POPC   C3A65825  42.891  28.271   7.097
 5175POPC   C4A65826  43.066  28.632   7.300
 5175POPC   C1B65827  43.317  27.981   6.253
 5175POPC   C2B65828  43.452  27.724   6.583
 5175POPC   C3B65829  43.409  27.883   6.988
 5175POPC   C4B65830  43.341  28.167   7.314
 5176POPC   NC365831  28.256   4.910   5.499
 5176POPC   PO465832  28.316   5.517   5.651
 5176POPC   GL165833  28.590   5.352   5.918
 5176POPC   GL265834  28.642   5.022   5.811
 5176POPC   C1A65835  28.609   5.255   6.358
 5176POPC   D2A65836  28.468   5.306   6.777
 5176POPC   C3A65837  28.042   5.272   6.880
 5176POPC   C4A65838  27.913   5.199   7.277
 5176POPC   C1B65839  28.667   4.769   6.140
 5176POPC   C2B65840  28.759   4.776   6.570
 5176POPC   C3B65841  28.571   4.745   6.950
 5176POPC   C4B65842  28.395   5.043   7.214
 5177POPC   NC365843  33.350   2.649   5.675
 5177POPC   PO465844  33.802   2.764   5.164
 5177POPC   GL165845  33.823   2.856   5.641
 5177POPC   GL265846  33.835   2.527   5.864
 5177POPC   C1A65847  33.738   2.985   6.098
 5177POPC   D2A65848  33.630   2.743   6.464
 5177POPC   C3A65849  33.537   2.884   6.881
 5177POPC   C4A65850  33.814   2.883   7.271
 5177POPC   C1B65851  33.608   2.290   6.229
 5177POPC   C2B65852  33.507   2.290   6.678
 5177POPC   C3B65853  33.717   2.431   7.038
 5177POPC   C4B65854  33.605   2.437   7.484
 5178POPC   NC365855  33.944  30.962   5.411
 5178POPC   PO465856  33.819  30.308   5.274
 5178POPC   GL165857  33.744  30.411   5.726
 5178POPC   GL265858  33.927  30.736   5.871
 5178POPC   C1A65859  33.688  30.444   6.193
 5178POPC   D2A65860  33.846  30.600   6.601
 5178POPC   C3A65861  33.736  30.735   7.016
 5178POPC   C4A65862  33.952  30.558   7.389
 5178POPC   C1B65863  33.937  30.992   6.280
 5178POPC   C2B65864  33.941  31.115   6.742
 5178POPC   C3B65865  34.103  31.031   7.196
 5178POPC   C4B65866  33.892  30.974   7.642
 5179POPC   NC365867  25.070  32.774   5.506
 5179POPC   PO465868  25.375  33.271   5.427
 5179POPC   GL165869  25.292  33.175   5.839
 5179POPC   GL265870  24.973  33.173   5.848
 5179POPC   C1A65871  25.166  32.924   6.240
 5179POPC   D2A65872  25.333  32.992   6.645
 5179POPC   C3A65873  25.183  32.790   6.994
 5179POPC   C4A65874  25.127  32.968   7.371
 5179POPC   C1B65875  24.996  33.414   6.198
 5179POPC   C2B65876  24.896  33.307   6.597
 5179POPC   C3B65877  25.043  33.295   6.985
 5179POPC   C4B65878  25.084  33.497   7.372
 5180POPC   NC365879   1.885  43.071   5.340
 5180POPC   PO465880   2.454  43.469   5.446
 5180POPC   GL165881   2.211  43.145   5.750
 5180POPC   GL265882   1.814  43.147   5.848
 5180POPC   C1A65883   2.133  43.099   6.219
 5180POPC   D2A65884   1.849  43.067   6.514
 5180POPC   C3A65885   2.012  43.110   6.883
 5180POPC   C4A65886   1.958  42.858   7.242
 5180POPC   C1B65887   1.562  43.331   6.190
 5180POPC   C2B65888   1.402  43.321   6.619
 5180POPC   C3B65889   1.618  43.418   6.984
 5180POPC   C4B65890   1.659  43.240   7.413
 5181POPC   NC365891  31.408  30.501   5.490
 5181POPC   PO465892  31.786  31.041   5.342
 5181POPC   GL165893  31.733  30.832   5.753
 5181POPC   GL265894  31.366  30.913   5.825
 5181POPC   C1A65895  31.675  30.850   6.224
 5181POPC   D2A65896  31.563  31.052   6.626
 5181POPC   C3A65897  31.650  30.801   6.973
 5181POPC   C4A65898  31.536  30.727   7.402
 5181POPC   C1B65899  31.203  30.583   6.135
 5181POPC   C2B65900  31.019  30.522   6.570
 5181POPC   C3B65901  31.121  30.661   7.028
 5181POPC   C4B65902  31.031  30.658   7.511
 5182POPC   NC365903  25.370  24.690   5.274
 5182POPC   PO465904  25.034  24.124   5.508
 5182POPC   GL165905  25.208  24.445   5.809
 5182POPC   GL265906  25.305  24.779   5.779
 5182POPC   C1A65907  25.025  24.664   6.190
 5182POPC   D2A65908  24.867  24.526   6.568
 5182POPC   C3A65909  24.957  24.734   6.946
 5182POPC   C4A65910  25.189  24.599   7.268
 5182POPC   C1B65911  25.533  24.628   6.185
 5182POPC   C2B65912  25.361  24.731   6.598
 5182POPC   C3B65913  25.456  24.923   6.988
 5182POPC   C4B65914  25.691  24.775   7.347
 5183POPC   NC365915   9.586  36.410   5.467
 5183POPC   PO465916   9.827  35.822   5.326
 5183POPC   GL165917   9.592  35.951   5.709
 5183POPC   GL265918   9.910  36.062   5.827
 5183POPC   C1A65919   9.569  36.135   6.175
 5183POPC   D2A65920   9.880  36.072   6.533
 5183POPC   C3A65921   9.717  35.950   6.925
 5183POPC   C4A65922   9.443  36.180   7.165
 5183POPC   C1B65923  10.090  36.351   6.168
 5183POPC   C2B65924  10.148  36.617   6.555
 5183POPC   C3B65925  10.079  36.602   6.986
 5183POPC   C4B65926   9.970  36.276   7.231
 5184POPC   NC365927  10.712   0.943   5.501
 5184POPC   PO465928  10.238   1.373   5.267
 5184POPC   GL165929  10.354   1.261   5.721
 5184POPC   GL265930  10.612   1.486   5.864
 5184POPC   C1A65931  10.300   1.224   6.192
 5184POPC   D2A65932  10.191   1.070   6.601
 5184POPC   C3A65933  10.032   1.368   6.867
 5184POPC   C4A65934  10.065   1.414   7.319
 5184POPC   C1B65935  10.798   1.170   6.152
 5184POPC   C2B65936  10.717   1.020   6.577
 5184POPC   C3B65937  10.551   1.112   6.982
 5184POPC   C4B65938  10.716   1.358   7.306
 5185POPC   NC365939  16.642   4.291   5.449
 5185POPC   PO465940  15.999   4.230   5.307
 5185POPC   GL165941  16.312   4.090   5.822
 5185POPC   GL265942  16.683   4.172   5.924
 5185POPC   C1A65943  16.344   4.123   6.278
 5185POPC   D2A65944  16.439   4.267   6.688
 5185POPC   C3A65945  16.705   4.044   6.990
 5185POPC   C4A65946  16.566   4.023   7.406
 5185POPC   C1B65947  16.820   4.392   6.309
 5185POPC   C2B65948  16.966   4.420   6.746
 5185POPC   C3B65949  16.939   4.457   7.226
 5185POPC   C4B65950  17.113   4.525   7.669
 5186POPC   NC365951  35.827  42.906   5.387
 5186POPC   PO465952  35.247  43.289   5.448
 5186POPC   GL165953  35.405  43.107   5.824
 5186POPC   GL265954  35.788  43.126   5.853
 5186POPC   C1A65955  35.353  43.278   6.254
 5186POPC   D2A65956  35.556  43.429   6.642
 5186POPC   C3A65957  35.333  43.417   7.068
 5186POPC   C4A65958  35.182  43.378   7.493
 5186POPC   C1B65959  35.678  42.861   6.190
 5186POPC   C2B65960  35.429  42.888   6.582
 5186POPC   C3B65961  35.603  42.998   6.982
 5186POPC   C4B65962  35.624  43.084   7.454
 5187POPC   NC365963   6.895  30.587   5.544
 5187POPC   PO465964   6.434  30.957   5.156
 5187POPC   GL165965   6.417  30.728   5.661
 5187POPC   GL265966   6.469  30.408   5.842
 5187POPC   C1A65967   6.643  30.814   6.138
 5187POPC   D2A65968   7.004  30.981   6.440
 5187POPC   C3A65969   6.915  31.013   6.888
 5187POPC   C4A65970   6.470  30.945   6.983
 5187POPC   C1B65971   6.569  30.329   6.270
 5187POPC   C2B65972   6.375  30.561   6.585
 5187POPC   C3B65973   6.307  30.442   6.986
 5187POPC   C4B65974   6.620  30.532   7.262
 5188POPC   NC365975  32.124  36.097   5.447
 5188POPC   PO465976  32.699  36.467   5.370
 5188POPC   GL165977  32.445  36.320   5.770
 5188POPC   GL265978  32.275  35.999   5.915
 5188POPC   C1A65979  32.233  36.412   6.175
 5188POPC   D2A65980  32.022  36.377   6.579
 5188POPC   C3A65981  32.261  36.369   6.945
 5188POPC   C4A65982  32.409  36.258   7.354
 5188POPC   C1B65983  32.554  36.019   6.291
 5188POPC   C2B65984  32.529  35.938   6.781
 5188POPC   C3B65985  32.802  35.970   7.172
 5188POPC   C4B65986  32.753  36.045   7.641
 5189POPC   NC365987  19.548   5.647   5.258
 5189POPC   PO465988  20.167   5.461   5.517
 5189POPC   GL165989  19.873   5.718   5.833
 5189POPC   GL265990  19.480   5.763   5.836
 5189POPC   C1A65991  19.882   5.870   6.245
 5189POPC   D2A65992  20.072   5.837   6.624
 5189POPC   C3A65993  19.852   5.743   6.981
 5189POPC   C4A65994  20.048   5.793   7.355
 5189POPC   C1B65995  19.431   6.081   6.240
 5189POPC   C2B65996  19.648   6.172   6.686
 5189POPC   C3B65997  19.664   6.201   7.169
 5189POPC   C4B65998  19.780   6.118   7.635
 5190POPC   NC365999  27.886  11.200   5.293
 5190POPC   PO466000  27.315  10.819   5.345
 5190POPC   GL166001  27.447  11.167   5.701
 5190POPC   GL266002  27.603  11.508   5.620
 5190POPC   C1A66003  27.408  11.451   6.103
 5190POPC   D2A66004  27.504  11.659   6.500
 5190POPC   C3A66005  27.589  11.442   6.896
 5190POPC   C4A66006  27.339  11.506   7.260
 5190POPC   C1B66007  27.876  11.316   5.962
 5190POPC   C2B66008  27.885  11.290   6.456
 5190POPC   C3B66009  28.019  11.147   6.910
 5190POPC   C4B66010  27.853  11.123   7.338
 5191POPC   NC366011  14.080  12.472   5.618
 5191POPC   PO466012  13.650  12.967   5.368
 5191POPC   GL166013  13.595  12.762   5.762
 5191POPC   GL266014  13.596  12.402   5.713
 5191POPC   C1A66015  13.427  12.938   6.127
 5191POPC   D2A66016  13.613  13.240   6.413
 5191POPC   C3A66017  13.584  13.058   6.794
 5191POPC   C4A66018  13.489  13.160   7.206
 5191POPC   C1B66019  13.655  12.466   6.175
 5191POPC   C2B66020  13.581  12.554   6.604
 5191POPC   C3B66021  13.654  12.619   7.030
 5191POPC   C4B66022  13.359  12.691   7.374
 5192POPC   NC366023  13.138  18.269   5.462
 5192POPC   PO466024  12.418  18.129   5.457
 5192POPC   GL166025  12.734  18.188   5.818
 5192POPC   GL266026  12.966  18.508   5.887
 5192POPC   C1A66027  12.787  18.225   6.281
 5192POPC   D2A66028  12.825  18.568   6.643
 5192POPC   C3A66029  12.615  18.485   7.042
 5192POPC   C4A66030  12.631  18.119   7.332
 5192POPC   C1B66031  13.228  18.470   6.291
 5192POPC   C2B66032  13.179  18.189   6.647
 5192POPC   C3B66033  13.069  18.232   7.097
 5192POPC   C4B66034  13.211  18.011   7.460
 5193POPC   NC366035  27.020  15.000   5.377
 5193POPC   PO466036  26.645  15.476   5.282
 5193POPC   GL166037  26.751  15.294   5.703
 5193POPC   GL266038  26.604  14.942   5.694
 5193POPC   C1A66039  27.041  15.290   6.073
 5193POPC   D2A66040  26.982  15.169   6.514
 5193POPC   C3A66041  27.194  15.206   6.910
 5193POPC   C4A66042  26.888  15.229   7.206
 5193POPC   C1B66043  26.646  14.952   6.154
 5193POPC   C2B66044  26.496  15.063   6.592
 5193POPC   C3B66045  26.424  15.131   7.042
 5193POPC   C4B66046  26.451  15.120   7.513
 5194POPC   NC366047  29.201  16.194   5.434
 5194POPC   PO466048  29.006  15.622   5.561
 5194POPC   GL166049  29.032  15.924   5.868
 5194POPC   GL266050  29.390  15.954   5.847
 5194POPC   C1A66051  29.128  16.058   6.297
 5194POPC   D2A66052  29.158  16.324   6.664
 5194POPC   C3A66053  29.135  16.164   7.089
 5194POPC   C4A66054  29.095  16.285   7.514
 5194POPC   C1B66055  29.575  15.775   6.200
 5194POPC   C2B66056  29.491  15.882   6.638
 5194POPC   C3B66057  29.572  15.922   7.074
 5194POPC   C4B66058  29.312  15.816   7.437
 5195POPC   NC366059   2.842   8.481   5.522
 5195POPC   PO466060   2.551   7.835   5.607
 5195POPC   GL166061   2.651   7.914   6.037
 5195POPC   GL266062   2.910   8.170   5.997
 5195POPC   C1A66063   2.909   7.819   6.388
 5195POPC   D2A66064   3.108   8.105   6.632
 5195POPC   C3A66065   2.809   8.195   6.915
 5195POPC   C4A66066   2.826   8.121   7.337
 5195POPC   C1B66067   2.705   8.322   6.367
 5195POPC   C2B66068   2.453   8.509   6.688
 5195POPC   C3B66069   2.388   8.422   7.118
 5195POPC   C4B66070   2.506   8.529   7.523
 5196POPC   NC366071  30.495  26.368   5.450
 5196POPC   PO466072  30.754  25.769   5.566
 5196POPC   GL166073  30.746  26.069   5.849
 5196POPC   GL266074  30.931  26.353   5.718
 5196POPC   C1A66075  30.713  25.906   6.270
 5196POPC   D2A66076  30.371  25.926   6.569
 5196POPC   C3A66077  30.351  25.744   6.967
 5196POPC   C4A66078  30.569  25.924   7.304
 5196POPC   C1B66079  31.052  26.318   6.178
 5196POPC   C2B66080  30.965  26.173   6.619
 5196POPC   C3B66081  30.774  26.346   7.013
 5196POPC   C4B66082  31.025  26.390   7.387
 5197POPC   NC366083  26.297  18.419   5.602
 5197POPC   PO466084  25.691  18.435   5.194
 5197POPC   GL166085  25.787  18.338   5.636
 5197POPC   GL266086  25.915  18.018   5.773
 5197POPC   C1A66087  25.852  18.430   6.096
 5197POPC   D2A66088  26.069  18.454   6.508
 5197POPC   C3A66089  25.910  18.164   6.812
 5197POPC   C4A66090  25.672  18.220   7.188
 5197POPC   C1B66091  26.142  17.997   6.221
 5197POPC   C2B66092  26.386  18.026   6.643
 5197POPC   C3B66093  26.365  18.312   7.000
 5197POPC   C4B66094  26.154  18.166   7.352
 5198POPC   NC366095   7.945  35.974   5.407
 5198POPC   PO466096   8.510  36.135   5.436
 5198POPC   GL166097   8.236  36.263   5.735
 5198POPC   GL266098   8.192  35.930   5.860
 5198POPC   C1A66099   8.182  36.389   6.150
 5198POPC   D2A66100   8.280  36.194   6.537
 5198POPC   C3A66101   8.037  36.339   6.873
 5198POPC   C4A66102   8.087  36.347   7.315
 5198POPC   C1B66103   7.993  35.840   6.246
 5198POPC   C2B66104   8.191  35.704   6.627
 5198POPC   C3B66105   8.263  35.904   6.996
 5198POPC   C4B66106   7.919  35.771   7.251
 5199POPC   NC366107   2.314  32.995   5.362
 5199POPC   PO466108   1.762  32.708   5.541
 5199POPC   GL166109   2.012  32.944   5.788
 5199POPC   GL266110   1.961  33.280   5.622
 5199POPC   C1A66111   2.006  32.875   6.238
 5199POPC   D2A66112   1.756  32.980   6.606
 5199POPC   C3A66113   1.900  32.719   6.925
 5199POPC   C4A66114   2.315  32.662   7.087
 5199POPC   C1B66115   1.896  33.345   6.088
 5199POPC   C2B66116   2.143  33.332   6.490
 5199POPC   C3B66117   2.172  33.156   6.919
 5199POPC   C4B66118   1.739  33.153   7.127
 5200POPC   NC366119   3.332  15.850   5.563
 5200POPC   PO466120   3.436  16.488   5.463
 5200POPC   GL166121   3.529  16.227   5.841
 5200POPC   GL266122   3.792  15.941   5.764
 5200POPC   C1A66123   3.305  16.114   6.252
 5200POPC   D2A66124   3.469  16.165   6.699
 5200POPC   C3A66125   3.357  15.981   7.110
 5200POPC   C4A66126   2.967  15.842   7.296
 5200POPC   C1B66127   3.782  15.947   6.185
 5200POPC   C2B66128   3.688  15.731   6.543
 5200POPC   C3B66129   3.821  15.843   6.937
 5200POPC   C4B66130   3.781  15.725   7.349
 5201POPC   NC366131  31.634  44.587   5.469
 5201POPC   PO466132  31.377   0.146   5.458
 5201POPC   GL166133  31.378  44.893   5.866
 5201POPC   GL266134  31.395  44.508   5.938
 5201POPC   C1A66135  31.270  44.878   6.325
 5201POPC   D2A66136  31.317  44.633   6.712
 5201POPC   C3A66137  31.464  44.863   7.074
 5201POPC   C4A66138  31.856   0.099   7.086
 5201POPC   C1B66139  31.583  44.332   6.333
 5201POPC   C2B66140  31.753  44.284   6.766
 5201POPC   C3B66141  31.624  44.369   7.222
 5201POPC   C4B66142  31.772  44.289   7.690
 5202POPC   NC366143  34.529  28.404   5.104
 5202POPC   PO466144  34.950  28.732   5.513
 5202POPC   GL166145  34.861  28.589   5.918
 5202POPC   GL266146  34.554  28.424   5.850
 5202POPC   C1A66147  34.731  28.421   6.330
 5202POPC   D2A66148  34.499  28.172   6.655
 5202POPC   C3A66149  34.633  28.221   7.075
 5202POPC   C4A66150  34.761  28.607   7.207
 5202POPC   C1B66151  34.256  28.391   6.171
 5202POPC   C2B66152  34.192  28.585   6.578
 5202POPC   C3B66153  34.290  28.606   7.008
 5202POPC   C4B66154  34.142  28.323   7.342
 5203POPC   NC366155  16.702  37.724   5.372
 5203POPC   PO466156  17.330  37.667   5.414
 5203POPC   GL166157  16.973  37.653   5.799
 5203POPC   GL266158  16.610  37.489   5.836
 5203POPC   C1A66159  16.783  37.810   6.221
 5203POPC   D2A66160  16.810  37.662   6.670
 5203POPC   C3A66161  16.978  37.963   6.972
 5203POPC   C4A66162  16.872  37.967   7.393
 5203POPC   C1B66163  16.758  37.298   6.201
 5203POPC   C2B66164  16.547  37.229   6.579
 5203POPC   C3B66165  16.389  37.424   6.890
 5203POPC   C4B66166  16.627  37.559   7.203
 5204POPC   NC366167  20.414   6.927   5.407
 5204POPC   PO466168  20.274   7.620   5.416
 5204POPC   GL166169  20.659   7.519   5.682
 5204POPC   GL266170  20.478   7.302   5.822
 5204POPC   C1A66171  20.927   7.561   6.064
 5204POPC   D2A66172  20.847   7.754   6.474
 5204POPC   C3A66173  20.867   7.540   6.882
 5204POPC   C4A66174  20.993   7.436   7.275
 5204POPC   C1B66175  20.426   7.584   6.173
 5204POPC   C2B66176  20.474   7.432   6.590
 5204POPC   C3B66177  20.358   7.468   7.007
 5204POPC   C4B66178  20.243   7.298   7.382
 5205POPC   NC366179   9.508  31.705   5.418
 5205POPC   PO466180  10.094  31.359   5.360
 5205POPC   GL166181   9.941  31.568   5.737
 5205POPC   GL266182   9.762  31.844   5.834
 5205POPC   C1A66183   9.772  31.384   6.160
 5205POPC   D2A66184   9.835  31.204   6.596
 5205POPC   C3A66185   9.509  31.306   6.933
 5205POPC   C4A66186   9.453  31.193   7.384
 5205POPC   C1B66187   9.980  31.844   6.212
 5205POPC   C2B66188   9.856  31.738   6.601
 5205POPC   C3B66189   9.926  31.873   7.007
 5205POPC   C4B66190   9.695  31.649   7.284
 5206POPC   NC366191   4.856  15.459   5.520
 5206POPC   PO466192   5.470  15.744   5.744
 5206POPC   GL166193   5.150  15.779   6.046
 5206POPC   GL266194   4.825  15.788   5.923
 5206POPC   C1A66195   5.111  16.045   6.403
 5206POPC   D2A66196   4.938  15.877   6.766
 5206POPC   C3A66197   5.294  15.884   7.009
 5206POPC   C4A66198   5.160  16.270   7.206
 5206POPC   C1B66199   4.642  15.895   6.321
 5206POPC   C2B66200   4.516  16.173   6.657
 5206POPC   C3B66201   4.648  16.203   7.078
 5206POPC   C4B66202   4.869  15.856   7.275
 5207POPC   NC366203  42.816  37.292   5.567
 5207POPC   PO466204  42.283  37.688   5.372
 5207POPC   GL166205  42.339  37.829   5.785
 5207POPC   GL266206  42.686  37.782   5.723
 5207POPC   C1A66207  42.380  37.629   6.208
 5207POPC   D2A66208  42.223  37.545   6.655
 5207POPC   C3A66209  42.439  37.435   7.049
 5207POPC   C4A66210  42.371  37.467   7.500
 5207POPC   C1B66211  42.711  38.017   6.114
 5207POPC   C2B66212  42.442  38.068   6.477
 5207POPC   C3B66213  42.498  37.934   6.882
 5207POPC   C4B66214  42.658  37.836   7.284
 5208POPC   NC366215  17.352   9.649   5.194
 5208POPC   PO466216  17.707  10.168   5.227
 5208POPC   GL166217  17.521   9.873   5.618
 5208POPC   GL266218  17.240  10.018   5.823
 5208POPC   C1A66219  17.372   9.560   6.006
 5208POPC   D2A66220  17.234   9.746   6.439
 5208POPC   C3A66221  17.393   9.646   6.872
 5208POPC   C4A66222  17.334   9.426   7.290
 5208POPC   C1B66223  17.603   9.993   6.119
 5208POPC   C2B66224  17.783   9.822   6.511
 5208POPC   C3B66225  17.791   9.976   6.931
 5208POPC   C4B66226  17.545   9.873   7.321
 5209POPC   NC366227  33.151  39.362   5.449
 5209POPC   PO466228  33.210  38.703   5.496
 5209POPC   GL166229  33.274  39.057   5.849
 5209POPC   GL266230  32.932  39.218   5.893
 5209POPC   C1A66231  33.253  39.371   6.229
 5209POPC   D2A66232  32.975  39.481   6.517
 5209POPC   C3A66233  33.156  39.413   6.855
 5209POPC   C4A66234  32.968  39.421   7.228
 5209POPC   C1B66235  32.983  38.961   6.299
 5209POPC   C2B66236  32.862  39.017   6.719
 5209POPC   C3B66237  33.120  38.932   7.078
 5209POPC   C4B66238  33.055  39.038   7.534
 5210POPC   NC366239  35.502  23.961   5.594
 5210POPC   PO466240  35.499  23.499   5.167
 5210POPC   GL166241  35.314  23.477   5.612
 5210POPC   GL266242  35.070  23.764   5.807
 5210POPC   C1A66243  35.445  23.542   6.074
 5210POPC   D2A66244  35.398  23.913   6.358
 5210POPC   C3A66245  35.439  23.828   6.805
 5210POPC   C4A66246  35.472  23.648   7.219
 5210POPC   C1B66247  34.977  23.605   6.255
 5210POPC   C2B66248  35.094  23.448   6.677
 5210POPC   C3B66249  34.994  23.532   7.127
 5210POPC   C4B66250  34.958  23.520   7.597
 5211POPC   NC366251  20.219   2.816   5.426
 5211POPC   PO466252  19.642   2.519   5.346
 5211POPC   GL166253  19.789   2.649   5.780
 5211POPC   GL266254  19.735   3.002   5.854
 5211POPC   C1A66255  20.084   2.768   6.166
 5211POPC   D2A66256  19.964   2.878   6.636
 5211POPC   C3A66257  20.182   2.769   7.021
 5211POPC   C4A66258  20.362   2.982   7.364
 5211POPC   C1B66259  19.580   2.786   6.259
 5211POPC   C2B66260  19.495   2.651   6.682
 5211POPC   C3B66261  19.658   2.790   7.056
 5211POPC   C4B66262  19.895   3.172   7.128
 5212POPC   NC366263  10.334   0.115   5.609
 5212POPC   PO466264  10.588  44.608   5.269
 5212POPC   GL166265  10.499  44.543   5.730
 5212POPC   GL266266  10.739  44.809   5.813
 5212POPC   C1A66267  10.538  44.553   6.209
 5212POPC   D2A66268  10.685  44.739   6.623
 5212POPC   C3A66269  10.545  44.657   7.006
 5212POPC   C4A66270  10.594  44.308   7.198
 5212POPC   C1B66271  10.979   0.098   6.093
 5212POPC   C2B66272  10.997   0.163   6.543
 5212POPC   C3B66273  10.812   0.109   6.959
 5212POPC   C4B66274  10.807  44.929   7.360
 5213POPC   NC366275  34.111  21.176   5.021
 5213POPC   PO466276  33.781  21.485   5.525
 5213POPC   GL166277  33.803  21.294   5.913
 5213POPC   GL266278  34.087  21.458   5.993
 5213POPC   C1A66279  33.738  21.251   6.352
 5213POPC   D2A66280  34.038  21.183   6.652
 5213POPC   C3A66281  33.882  21.264   7.038
 5213POPC   C4A66282  33.995  21.453   7.392
 5213POPC   C1B66283  33.807  21.728   6.197
 5213POPC   C2B66284  33.951  21.698   6.615
 5213POPC   C3B66285  33.953  21.811   7.025
 5213POPC   C4B66286  33.572  21.681   7.240
 5214POPC   NC366287  11.065  40.845   5.120
 5214POPC   PO466288  11.459  40.391   5.415
 5214POPC   GL166289  11.237  40.451   5.801
 5214POPC   GL266290  11.554  40.421   5.972
 5214POPC   C1A66291  11.091  40.453   6.258
 5214POPC   D2A66292  11.140  40.777   6.614
 5214POPC   C3A66293  11.164  40.706   7.084
 5214POPC   C4A66294  11.250  40.997   7.464
 5214POPC   C1B66295  11.474  40.790   6.223
 5214POPC   C2B66296  11.668  40.941   6.626
 5214POPC   C3B66297  11.652  40.922   7.085
 5214POPC   C4B66298  11.559  40.610   7.406
 5215POPC   NC366299   3.041  41.307   5.612
 5215POPC   PO466300   2.525  41.775   5.463
 5215POPC   GL166301   2.669  41.886   5.886
 5215POPC   GL266302   2.744  41.548   5.955
 5215POPC   C1A66303   2.456  41.825   6.296
 5215POPC   D2A66304   2.628  41.828   6.703
 5215POPC   C3A66305   2.395  41.893   7.028
 5215POPC   C4A66306   2.431  41.701   7.394
 5215POPC   C1B66307   2.947  41.681   6.335
 5215POPC   C2B66308   3.139  41.763   6.754
 5215POPC   C3B66309   3.112  41.557   7.170
 5215POPC   C4B66310   2.924  41.713   7.595
 5216POPC   NC366311  39.426   6.807   5.062
 5216POPC   PO466312  39.065   7.031   5.629
 5216POPC   GL166313  39.171   6.633   5.846
 5216POPC   GL266314  38.960   6.303   5.843
 5216POPC   C1A66315  39.416   6.706   6.210
 5216POPC   D2A66316  39.223   6.864   6.564
 5216POPC   C3A66317  39.263   6.658   6.935
 5216POPC   C4A66318  39.278   6.856   7.331
 5216POPC   C1B66319  39.050   6.352   6.308
 5216POPC   C2B66320  38.959   6.268   6.755
 5216POPC   C3B66321  38.909   6.381   7.222
 5216POPC   C4B66322  38.983   6.610   7.656
 5217POPC   NC366323  42.572  44.897   5.274
 5217POPC   PO466324  42.343   0.467   5.375
 5217POPC   GL166325  42.080   0.418   5.815
 5217POPC   GL266326  42.343   0.391   6.063
 5217POPC   C1A66327  41.986   0.095   6.201
 5217POPC   D2A66328  42.217   0.120   6.606
 5217POPC   C3A66329  42.041   0.402   6.917
 5217POPC   C4A66330  41.945   0.368   7.356
 5217POPC   C1B66331  42.437   0.691   6.361
 5217POPC   C2B66332  42.816   0.712   6.573
 5217POPC   C3B66333  42.804   0.462   6.942
 5217POPC   C4B66334  42.466   0.485   7.258
 5218POPC   NC366335  38.975  23.226   5.531
 5218POPC   PO466336  39.628  22.931   5.447
 5218POPC   GL166337  39.332  22.956   5.810
 5218POPC   GL266338  39.323  23.317   5.903
 5218POPC   C1A66339  39.174  22.705   6.163
 5218POPC   D2A66340  38.954  22.742   6.566
 5218POPC   C3A66341  39.155  22.733   6.977
 5218POPC   C4A66342  39.063  22.841   7.389
 5218POPC   C1B66343  39.221  23.193   6.334
 5218POPC   C2B66344  39.044  23.206   6.757
 5218POPC   C3B66345  38.760  23.194   7.140
 5218POPC   C4B66346  38.781  23.214   7.603
 5219POPC   NC366347  11.067   4.463   5.399
 5219POPC   PO466348  11.682   4.171   5.542
 5219POPC   GL166349  11.339   4.374   5.837
 5219POPC   GL266350  10.909   4.336   5.840
 5219POPC   C1A66351  11.495   4.350   6.280
 5219POPC   D2A66352  11.739   4.102   6.607
 5219POPC   C3A66353  11.635   4.273   7.004
 5219POPC   C4A66354  11.537   4.341   7.441
 5219POPC   C1B66355  11.016   4.200   6.220
 5219POPC   C2B66356  11.211   4.108   6.644
 5219POPC   C3B66357  11.130   4.194   7.087
 5219POPC   C4B66358  10.748   4.393   7.156
 5220POPC   NC366359   6.784  13.918   5.585
 5220POPC   PO466360   6.488  14.427   5.203
 5220POPC   GL166361   6.472  14.443   5.725
 5220POPC   GL266362   6.769  14.619   5.935
 5220POPC   C1A66363   6.491  14.255   6.160
 5220POPC   D2A66364   6.544  13.990   6.542
 5220POPC   C3A66365   6.480  14.210   6.922
 5220POPC   C4A66366   6.782  14.287   7.231
 5220POPC   C1B66367   6.991  14.433   6.277
 5220POPC   C2B66368   6.884  14.469   6.714
 5220POPC   C3B66369   7.000  14.723   7.043
 5220POPC   C4B66370   6.957  15.026   7.285
 5221POPC   NC366371  40.349  26.893   5.423
 5221POPC   PO466372  40.985  27.071   5.382
 5221POPC   GL166373  40.773  26.932   5.758
 5221POPC   GL266374  40.762  26.577   5.816
 5221POPC   C1A66375  40.592  26.963   6.188
 5221POPC   D2A66376  40.764  27.118   6.586
 5221POPC   C3A66377  40.744  26.965   7.020
 5221POPC   C4A66378  40.826  26.996   7.456
 5221POPC   C1B66379  40.902  26.531   6.272
 5221POPC   C2B66380  40.891  26.560   6.733
 5221POPC   C3B66381  40.579  26.454   7.079
 5221POPC   C4B66382  40.638  26.501   7.555
 5222POPC   NC366383  33.196   4.158   5.341
 5222POPC   PO466384  33.125   4.853   5.323
 5222POPC   GL166385  33.253   4.547   5.716
 5222POPC   GL266386  33.009   4.256   5.788
 5222POPC   C1A66387  33.157   4.464   6.211
 5222POPC   D2A66388  33.052   4.659   6.608
 5222POPC   C3A66389  33.103   4.438   7.021
 5222POPC   C4A66390  32.829   4.161   7.194
 5222POPC   C1B66391  33.349   4.005   5.998
 5222POPC   C2B66392  33.481   3.936   6.429
 5222POPC   C3B66393  33.220   3.969   6.793
 5222POPC   C4B66394  33.299   3.965   7.219
 5223POPC   NC366395   2.595  44.598   5.329
 5223POPC   PO466396   3.246  44.364   5.520
 5223POPC   GL166397   3.070  44.629   5.867
 5223POPC   GL266398   2.719  44.689   5.816
 5223POPC   C1A66399   2.938  44.585   6.284
 5223POPC   D2A66400   2.591  44.516   6.555
 5223POPC   C3A66401   2.706  44.446   6.980
 5223POPC   C4A66402   2.949  44.645   7.287
 5223POPC   C1B66403   2.478  44.848   6.145
 5223POPC   C2B66404   2.463   0.028   6.537
 5223POPC   C3B66405   2.423  44.880   6.926
 5223POPC   C4B66406   2.510  44.907   7.334
 5224POPC   NC366407  23.977  10.697   5.443
 5224POPC   PO466408  23.450  10.201   5.340
 5224POPC   GL166409  23.591  10.401   5.725
 5224POPC   GL266410  23.442  10.723   5.704
 5224POPC   C1A66411  23.816  10.338   6.129
 5224POPC   D2A66412  23.837  10.252   6.577
 5224POPC   C3A66413  23.804  10.551   6.911
 5224POPC   C4A66414  23.654  10.271   7.241
 5224POPC   C1B66415  23.609  10.815   6.110
 5224POPC   C2B66416  23.493  10.792   6.555
 5224POPC   C3B66417  23.301  10.560   6.910
 5224POPC   C4B66418  23.403  10.684   7.305
 5225POPC   NC366419  28.296   6.779   5.490
 5225POPC   PO466420  28.719   6.254   5.311
 5225POPC   GL166421  28.664   6.499   5.736
 5225POPC   GL266422  28.365   6.614   5.965
 5225POPC   C1A66423  28.799   6.689   6.158
 5225POPC   D2A66424  28.812   6.748   6.587
 5225POPC   C3A66425  28.564   6.538   6.884
 5225POPC   C4A66426  28.430   6.667   7.267
 5225POPC   C1B66427  28.329   6.533   6.409
 5225POPC   C2B66428  27.978   6.602   6.726
 5225POPC   C3B66429  27.926   6.674   7.163
 5225POPC   C4B66430  28.048   6.754   7.600
 5226POPC   NC366431  31.490  13.425   4.922
 5226POPC   PO466432  31.476  12.924   5.455
 5226POPC   GL166433  31.543  12.679   5.804
 5226POPC   GL266434  31.204  12.534   5.736
 5226POPC   C1A66435  31.674  12.792   6.237
 5226POPC   D2A66436  31.733  13.060   6.625
 5226POPC   C3A66437  31.662  12.866   7.040
 5226POPC   C4A66438  31.423  13.079   7.341
 5226POPC   C1B66439  31.197  12.555   6.202
 5226POPC   C2B66440  31.327  12.665   6.629
 5226POPC   C3B66441  31.116  12.835   6.975
 5226POPC   C4B66442  31.074  12.682   7.359
 5227POPC   NC366443  24.697  10.979   5.378
 5227POPC   PO466444  24.327  10.391   5.513
 5227POPC   GL166445  24.251  10.482   5.908
 5227POPC   GL266446  24.343  10.157   5.985
 5227POPC   C1A66447  24.102  10.750   6.254
 5227POPC   D2A66448  24.281  10.577   6.616
 5227POPC   C3A66449  24.325  10.684   7.033
 5227POPC   C4A66450  24.158  10.312   7.158
 5227POPC   C1B66451  24.612  10.358   6.269
 5227POPC   C2B66452  24.763  10.285   6.666
 5227POPC   C3B66453  24.672  10.299   7.078
 5227POPC   C4B66454  24.845  10.604   7.324
 5228POPC   NC366455  19.449   8.491   5.569
 5228POPC   PO466456  19.363   7.838   5.439
 5228POPC   GL166457  19.323   7.923   5.844
 5228POPC   GL266458  18.986   8.071   5.807
 5228POPC   C1A66459  19.153   7.931   6.261
 5228POPC   D2A66460  19.392   8.099   6.625
 5228POPC   C3A66461  19.311   8.075   7.067
 5228POPC   C4A66462  19.274   8.253   7.518
 5228POPC   C1B66463  19.102   8.406   6.119
 5228POPC   C2B66464  19.314   8.607   6.431
 5228POPC   C3B66465  19.125   8.664   6.809
 5228POPC   C4B66466  18.946   8.417   7.109
 5229POPC   NC366467   1.852  34.697   5.012
 5229POPC   PO466468   2.425  34.304   5.186
 5229POPC   GL166469   2.254  34.491   5.646
 5229POPC   GL266470   2.064  34.228   5.830
 5229POPC   C1A66471   2.293  34.577   6.145
 5229POPC   D2A66472   2.008  34.654   6.557
 5229POPC   C3A66473   2.160  34.681   7.006
 5229POPC   C4A66474   2.303  34.772   7.419
 5229POPC   C1B66475   1.783  34.351   6.176
 5229POPC   C2B66476   1.701  34.233   6.615
 5229POPC   C3B66477   1.796  34.328   7.054
 5229POPC   C4B66478   1.957  34.380   7.495
 5230POPC   NC366479  18.852  20.287   5.473
 5230POPC   PO466480  19.199  19.745   5.309
 5230POPC   GL166481  19.056  19.819   5.741
 5230POPC   GL266482  19.249  20.148   5.809
 5230POPC   C1A66483  18.903  19.677   6.172
 5230POPC   D2A66484  19.031  19.714   6.625
 5230POPC   C3A66485  18.839  19.402   6.912
 5230POPC   C4A66486  18.992  19.364   7.277
 5230POPC   C1B66487  19.543  20.178   6.164
 5230POPC   C2B66488  19.323  20.168   6.571
 5230POPC   C3B66489  19.169  20.099   6.963
 5230POPC   C4B66490  19.437  20.216   7.313
 5231POPC   NC366491  24.360  25.939   5.503
 5231POPC   PO466492  23.689  26.005   5.273
 5231POPC   GL166493  23.754  25.932   5.724
 5231POPC   GL266494  24.056  26.033   5.886
 5231POPC   C1A66495  23.549  25.871   6.134
 5231POPC   D2A66496  23.330  26.075   6.482
 5231POPC   C3A66497  23.558  26.040   6.836
 5231POPC   C4A66498  23.630  26.016   7.265
 5231POPC   C1B66499  24.167  25.826   6.268
 5231POPC   C2B66500  24.056  25.877   6.699
 5231POPC   C3B66501  24.031  26.185   7.032
 5231POPC   C4B66502  24.187  26.346   7.423
 5232POPC   NC366503  44.454   0.537   5.390
 5232POPC   PO466504  44.965   0.232   5.739
 5232POPC   GL166505  44.646   0.477   5.902
 5232POPC   GL266506  44.437   0.180   5.786
 5232POPC   C1A66507  44.650   0.558   6.372
 5232POPC   D2A66508  44.688   0.184   6.656
 5232POPC   C3A66509  44.863   0.252   7.074
 5232POPC   C4A66510  44.757   0.566   7.336
 5232POPC   C1B66511  44.297   0.211   6.209
 5232POPC   C2B66512  44.199   0.332   6.629
 5232POPC   C3B66513  44.363   0.308   7.058
 5232POPC   C4B66514  44.498   0.153   7.484
 5233POPC   NC366515  17.617  37.354   5.205
 5233POPC   PO466516  17.334  36.799   5.400
 5233POPC   GL166517  17.623  36.781   5.741
 5233POPC   GL266518  17.691  37.096   5.791
 5233POPC   C1A66519  17.696  36.624   6.148
 5233POPC   D2A66520  17.523  36.739   6.571
 5233POPC   C3A66521  17.764  36.644   6.944
 5233POPC   C4A66522  17.739  36.745   7.395
 5233POPC   C1B66523  17.536  37.106   6.183
 5233POPC   C2B66524  17.535  37.243   6.576
 5233POPC   C3B66525  17.498  37.087   6.986
 5233POPC   C4B66526  17.425  37.179   7.392
 5234POPC   NC366527  43.003  33.197   5.415
 5234POPC   PO466528  43.570  32.921   5.621
 5234POPC   GL166529  43.216  33.063   5.898
 5234POPC   GL266530  42.896  32.907   5.826
 5234POPC   C1A66531  43.185  33.106   6.354
 5234POPC   D2A66532  43.034  33.246   6.760
 5234POPC   C3A66533  43.100  32.977   7.083
 5234POPC   C4A66534  43.253  33.273   7.377
 5234POPC   C1B66535  42.781  32.721   6.199
 5234POPC   C2B66536  42.911  32.759   6.603
 5234POPC   C3B66537  42.819  32.576   6.928
 5234POPC   C4B66538  42.951  32.435   7.302
 5235POPC   NC366539  14.933  29.038   5.415
 5235POPC   PO466540  15.444  28.781   5.701
 5235POPC   GL166541  15.122  28.955   5.942
 5235POPC   GL266542  15.008  29.288   5.850
 5235POPC   C1A66543  15.308  29.206   6.286
 5235POPC   D2A66544  15.379  29.371   6.687
 5235POPC   C3A66545  15.285  29.005   6.879
 5235POPC   C4A66546  15.396  28.829   7.227
 5235POPC   C1B66547  14.870  29.452   6.246
 5235POPC   C2B66548  14.869  29.334   6.680
 5235POPC   C3B66549  14.980  29.327   7.114
 5235POPC   C4B66550  14.744  29.286   7.475
 5236POPC   NC366551  14.556   7.579   5.302
 5236POPC   PO466552  14.103   7.230   5.583
 5236POPC   GL166553  14.338   7.345   5.887
 5236POPC   GL266554  14.670   7.362   5.821
 5236POPC   C1A66555  14.436   7.483   6.298
 5236POPC   D2A66556  14.165   7.598   6.631
 5236POPC   C3A66557  14.203   7.348   7.006
 5236POPC   C4A66558  14.239   7.587   7.408
 5236POPC   C1B66559  14.627   7.020   6.156
 5236POPC   C2B66560  14.781   7.042   6.563
 5236POPC   C3B66561  14.667   7.106   6.998
 5236POPC   C4B66562  14.626   7.278   7.394
 5237POPC   NC366563  29.773  36.493   5.370
 5237POPC   PO466564  30.257  36.960   5.247
 5237POPC   GL166565  30.269  36.979   5.722
 5237POPC   GL266566  30.138  36.691   5.853
 5237POPC   C1A66567  29.955  37.124   6.082
 5237POPC   D2A66568  29.788  37.230   6.509
 5237POPC   C3A66569  30.025  37.065   6.836
 5237POPC   C4A66570  29.949  36.853   7.211
 5237POPC   C1B66571  29.717  36.627   6.065
 5237POPC   C2B66572  29.487  36.650   6.451
 5237POPC   C3B66573  29.629  36.640   6.874
 5237POPC   C4B66574  29.673  36.362   7.249
 5238POPC   NC366575  42.481   3.616   5.453
 5238POPC   PO466576  42.056   3.086   5.405
 5238POPC   GL166577  42.202   3.306   5.781
 5238POPC   GL266578  42.166   3.679   5.848
 5238POPC   C1A66579  42.362   3.351   6.206
 5238POPC   D2A66580  42.172   3.362   6.617
 5238POPC   C3A66581  42.393   3.457   6.986
 5238POPC   C4A66582  42.367   3.571   7.418
 5238POPC   C1B66583  42.387   3.894   6.213
 5238POPC   C2B66584  42.369   3.949   6.673
 5238POPC   C3B66585  42.103   3.858   7.029
 5238POPC   C4B66586  42.067   3.970   7.431
 5239POPC   NC366587   4.579   5.002   5.470
 5239POPC   PO466588   3.902   4.988   5.193
 5239POPC   GL166589   4.077   4.998   5.647
 5239POPC   GL266590   4.248   5.320   5.711
 5239POPC   C1A66591   4.251   4.959   6.111
 5239POPC   D2A66592   4.394   5.156   6.535
 5239POPC   C3A66593   4.380   4.932   6.943
 5239POPC   C4A66594   4.175   4.916   7.367
 5239POPC   C1B66595   4.232   5.458   6.150
 5239POPC   C2B66596   4.001   5.486   6.558
 5239POPC   C3B66597   4.106   5.368   6.997
 5239POPC   C4B66598   4.114   5.424   7.472
 5240POPC   NC366599  12.002  19.866   5.383
 5240POPC   PO466600  11.979  19.234   5.586
 5240POPC   GL166601  11.991  19.565   5.830
 5240POPC   GL266602  12.258  19.787   5.823
 5240POPC   C1A66603  12.177  19.537   6.240
 5240POPC   D2A66604  12.169  19.824   6.533
 5240POPC   C3A66605  12.027  19.678   6.888
 5240POPC   C4A66606  11.951  19.873   7.260
 5240POPC   C1B66607  12.532  19.929   6.146
 5240POPC   C2B66608  12.593  20.132   6.536
 5240POPC   C3B66609  12.367  20.067   6.933
 5240POPC   C4B66610  12.233  20.288   7.292
 5241POPC   NC366611  21.161  22.406   5.466
 5241POPC   PO466612  21.591  21.813   5.431
 5241POPC   GL166613  21.538  22.164   5.781
 5241POPC   GL266614  21.218  22.125   5.899
 5241POPC   C1A66615  21.571  22.203   6.274
 5241POPC   D2A66616  21.630  22.366   6.706
 5241POPC   C3A66617  21.481  22.304   7.153
 5241POPC   C4A66618  21.452  22.135   7.589
 5241POPC   C1B66619  21.069  22.288   6.277
 5241POPC   C2B66620  21.145  22.165   6.710
 5241POPC   C3B66621  21.023  22.466   7.022
 5241POPC   C4B66622  21.042  22.441   7.469
 5242POPC   NC366623   4.794  29.405   5.564
 5242POPC   PO466624   5.300  28.991   5.564
 5242POPC   GL166625   5.064  29.044   5.919
 5242POPC   GL266626   4.696  29.019   5.888
 5242POPC   C1A66627   5.039  29.150   6.345
 5242POPC   D2A66628   5.256  29.050   6.702
 5242POPC   C3A66629   5.204  29.398   6.948
 5242POPC   C4A66630   4.905  29.481   7.161
 5242POPC   C1B66631   4.804  28.710   6.210
 5242POPC   C2B66632   4.920  28.662   6.652
 5242POPC   C3B66633   4.890  28.940   7.053
 5242POPC   C4B66634   4.610  28.891   7.427
 5243POPC   NC366635   2.230  30.477   5.213
 5243POPC   PO466636   2.344  30.938   5.638
 5243POPC   GL166637   1.998  30.694   5.888
 5243POPC   GL266638   1.935  30.344   5.748
 5243POPC   C1A66639   1.888  30.718   6.326
 5243POPC   D2A66640   2.237  30.853   6.587
 5243POPC   C3A66641   2.161  30.961   7.022
 5243POPC   C4A66642   1.775  30.809   7.281
 5243POPC   C1B66643   2.225  30.325   6.113
 5243POPC   C2B66644   2.135  30.313   6.533
 5243POPC   C3B66645   1.958  30.509   6.881
 5243POPC   C4B66646   2.145  30.453   7.269
 5244POPC   NC366647  36.229  39.981   5.237
 5244POPC   PO466648  35.696  40.298   5.464
 5244POPC   GL166649  36.094  40.134   5.721
 5244POPC   GL266650  36.404  39.872   5.716
 5244POPC   C1A66651  36.146  40.198   6.162
 5244POPC   D2A66652  36.291  40.069   6.552
 5244POPC   C3A66653  36.067  40.054   6.895
 5244POPC   C4A66654  36.174  40.149   7.261
 5244POPC   C1B66655  36.376  39.750   6.170
 5244POPC   C2B66656  36.411  39.574   6.602
 5244POPC   C3B66657  36.332  39.647   7.023
 5244POPC   C4B66658  35.948  39.659   7.267
 5245POPC   NC366659  24.162  31.252   5.321
 5245POPC   PO466660  24.771  31.541   5.264
 5245POPC   GL166661  24.471  31.608   5.665
 5245POPC   GL266662  24.357  31.307   5.785
 5245POPC   C1A66663  24.605  31.568   6.158
 5245POPC   D2A66664  24.400  31.496   6.608
 5245POPC   C3A66665  24.553  31.586   7.060
 5245POPC   C4A66666  24.708  31.952   7.304
 5245POPC   C1B66667  24.253  31.187   6.195
 5245POPC   C2B66668  24.217  30.970   6.583
 5245POPC   C3B66669  24.128  31.187   6.954
 5245POPC   C4B66670  24.337  31.190   7.311
 5246POPC   NC366671  19.705   9.351   5.266
 5246POPC   PO466672  19.423   8.812   5.223
 5246POPC   GL166673  19.590   8.988   5.631
 5246POPC   GL266674  19.920   9.136   5.671
 5246POPC   C1A66675  19.653   8.867   6.087
 5246POPC   D2A66676  19.825   8.665   6.459
 5246POPC   C3A66677  19.624   8.826   6.835
 5246POPC   C4A66678  19.763   8.825   7.248
 5246POPC   C1B66679  19.823   9.351   6.080
 5246POPC   C2B66680  19.809   9.184   6.499
 5246POPC   C3B66681  19.840   9.298   6.932
 5246POPC   C4B66682  19.987   9.266   7.340
 5247POPC   NC366683  10.402  38.040   5.753
 5247POPC   PO466684  10.674  37.506   5.385
 5247POPC   GL166685  10.648  37.555   5.844
 5247POPC   GL266686  10.825  37.846   5.949
 5247POPC   C1A66687  10.427  37.625   6.264
 5247POPC   D2A66688  10.515  37.721   6.700
 5247POPC   C3A66689  10.290  37.701   7.099
 5247POPC   C4A66690  10.472  37.737   7.508
 5247POPC   C1B66691  10.937  37.620   6.320
 5247POPC   C2B66692  11.024  37.693   6.746
 5247POPC   C3B66693  10.819  37.613   7.135
 5247POPC   C4B66694  10.807  37.373   7.519
 5248POPC   NC366695   8.640  35.691   5.509
 5248POPC   PO466696   9.092  35.184   5.276
 5248POPC   GL166697   9.044  35.293   5.716
 5248POPC   GL266698   8.691  35.214   5.816
 5248POPC   C1A66699   9.272  35.426   6.109
 5248POPC   D2A66700   9.213  35.243   6.520
 5248POPC   C3A66701   9.334  35.391   6.947
 5248POPC   C4A66702   9.240  35.278   7.397
 5248POPC   C1B66703   8.745  35.407   6.231
 5248POPC   C2B66704   8.653  35.319   6.668
 5248POPC   C3B66705   8.826  35.206   7.076
 5248POPC   C4B66706   8.601  35.079   7.437
 5249POPC   NC366707  41.486  40.389   5.449
 5249POPC   PO466708  41.770  39.926   5.133
 5249POPC   GL166709  41.785  40.001   5.642
 5249POPC   GL266710  41.450  40.081   5.840
 5249POPC   C1A66711  41.839  39.884   6.122
 5249POPC   D2A66712  41.742  40.082   6.530
 5249POPC   C3A66713  41.719  39.905   6.990
 5249POPC   C4A66714  41.570  40.062   7.440
 5249POPC   C1B66715  41.304  39.836   6.193
 5249POPC   C2B66716  41.241  39.969   6.619
 5249POPC   C3B66717  41.228  40.093   7.044
 5249POPC   C4B66718  41.114  39.856   7.450
 5250POPC   NC366719   1.135   9.420   5.484
 5250POPC   PO466720   0.972   8.794   5.279
 5250POPC   GL166721   1.127   8.905   5.673
 5250POPC   GL266722   1.471   8.930   5.675
 5250POPC   C1A66723   1.054   9.001   6.109
 5250POPC   D2A66724   1.160   9.006   6.551
 5250POPC   C3A66725   0.970   9.097   6.935
 5250POPC   C4A66726   1.199   9.030   7.301
 5250POPC   C1B66727   1.451   8.647   6.067
 5250POPC   C2B66728   1.463   8.596   6.514
 5250POPC   C3B66729   1.461   8.769   6.927
 5250POPC   C4B66730   1.579   8.545   7.283
 5251POPC   NC366731  38.818  31.665   5.513
 5251POPC   PO466732  39.459  31.416   5.438
 5251POPC   GL166733  39.219  31.474   5.790
 5251POPC   GL266734  39.160  31.164   5.945
 5251POPC   C1A66735  39.141  31.745   6.154
 5251POPC   D2A66736  39.307  31.847   6.570
 5251POPC   C3A66737  39.197  31.513   6.870
 5251POPC   C4A66738  39.247  31.282   7.248
 5251POPC   C1B66739  38.837  31.245   6.234
 5251POPC   C2B66740  38.709  31.343   6.660
 5251POPC   C3B66741  38.803  31.158   7.063
 5251POPC   C4B66742  38.851  31.219   7.554
 5252POPC   NC366743  11.593  29.522   5.443
 5252POPC   PO466744  11.354  28.874   5.462
 5252POPC   GL166745  11.580  29.018   5.819
 5252POPC   GL266746  11.565  29.380   5.940
 5252POPC   C1A66747  11.352  28.993   6.196
 5252POPC   D2A66748  11.167  29.110   6.565
 5252POPC   C3A66749  11.365  28.994   6.931
 5252POPC   C4A66750  11.181  28.932   7.325
 5252POPC   C1B66751  11.446  29.521   6.377
 5252POPC   C2B66752  11.454  29.557   6.855
 5252POPC   C3B66753  11.264  29.428   7.234
 5252POPC   C4B66754  10.970  29.347   7.599
 5253POPC   NC366755  22.031   9.137   5.470
 5253POPC   PO466756  22.443   8.560   5.277
 5253POPC   GL166757  22.295   8.772   5.708
 5253POPC   GL266758  21.935   8.742   5.790
 5253POPC   C1A66759  22.191   9.055   6.112
 5253POPC   D2A66760  22.057   9.092   6.555
 5253POPC   C3A66761  22.372   9.192   6.897
 5253POPC   C4A66762  22.265   9.233   7.347
 5253POPC   C1B66763  22.037   8.579   6.237
 5253POPC   C2B66764  21.874   8.615   6.666
 5253POPC   C3B66765  22.046   8.802   7.052
 5253POPC   C4B66766  22.384   8.724   7.360
 5254POPC   NC366767  31.671  20.475   5.580
 5254POPC   PO466768  31.195  20.341   5.135
 5254POPC   GL166769  31.175  20.402   5.658
 5254POPC   GL266770  31.283  20.752   5.809
 5254POPC   C1A66771  31.321  20.399   6.167
 5254POPC   D2A66772  31.330  20.654   6.597
 5254POPC   C3A66773  31.600  20.558   6.987
 5254POPC   C4A66774  31.573  20.666   7.418
 5254POPC   C1B66775  31.571  20.879   6.189
 5254POPC   C2B66776  31.887  21.004   6.516
 5254POPC   C3B66777  31.751  21.068   6.938
 5254POPC   C4B66778  31.312  20.992   7.058
 5255POPC   NC366779   3.883  36.845   5.304
 5255POPC   PO466780   4.540  36.910   5.332
 5255POPC   GL166781   4.448  36.954   5.751
 5255POPC   GL266782   4.118  36.785   5.767
 5255POPC   C1A66783   4.494  36.816   6.166
 5255POPC   D2A66784   4.680  36.759   6.541
 5255POPC   C3A66785   4.440  36.888   6.885
 5255POPC   C4A66786   4.574  36.779   7.274
 5255POPC   C1B66787   4.049  37.067   6.109
 5255POPC   C2B66788   4.069  37.080   6.567
 5255POPC   C3B66789   3.958  36.987   7.004
 5255POPC   C4B66790   4.081  36.848   7.440
 5256POPC   NC366791  34.594  22.081   5.297
 5256POPC   PO466792  35.095  22.597   5.366
 5256POPC   GL166793  34.859  22.287   5.710
 5256POPC   GL266794  34.515  22.375   5.767
 5256POPC   C1A66795  34.625  22.079   6.145
 5256POPC   D2A66796  34.343  22.065   6.541
 5256POPC   C3A66797  34.485  21.889   6.974
 5256POPC   C4A66798  34.809  21.906   7.354
 5256POPC   C1B66799  34.769  22.564   6.114
 5256POPC   C2B66800  34.592  22.598   6.488
 5256POPC   C3B66801  34.549  22.385   6.897
 5256POPC   C4B66802  34.434  22.296   7.358
 5257POPC   NC366803  19.512  29.775   5.477
 5257POPC   PO466804  18.882  29.688   5.454
 5257POPC   GL166805  19.052  29.869   5.825
 5257POPC   GL266806  19.359  30.065   5.895
 5257POPC   C1A66807  19.008  29.992   6.255
 5257POPC   D2A66808  18.937  30.201   6.614
 5257POPC   C3A66809  19.054  29.922   6.932
 5257POPC   C4A66810  19.146  29.949   7.383
 5257POPC   C1B66811  19.409  29.695   6.186
 5257POPC   C2B66812  19.312  29.579   6.637
 5257POPC   C3B66813  19.415  29.610   7.110
 5257POPC   C4B66814  19.468  29.570   7.600
 5258POPC   NC366815  13.783  32.383   5.488
 5258POPC   PO466816  13.237  31.968   5.445
 5258POPC   GL166817  13.562  32.036   5.817
 5258POPC   GL266818  13.666  32.371   5.986
 5258POPC   C1A66819  13.593  31.921   6.244
 5258POPC   D2A66820  13.549  32.129   6.618
 5258POPC   C3A66821  13.822  32.287   6.906
 5258POPC   C4A66822  13.544  32.302   7.200
 5258POPC   C1B66823  13.574  32.599   6.379
 5258POPC   C2B66824  13.416  32.592   6.796
 5258POPC   C3B66825  13.459  32.809   7.179
 5258POPC   C4B66826  13.222  33.001   7.553
 5259POPC   NC366827  23.596  32.927   4.950
 5259POPC   PO466828  23.764  32.561   5.461
 5259POPC   GL166829  23.774  32.920   5.771
 5259POPC   GL266830  23.490  33.192   5.819
 5259POPC   C1A66831  23.972  33.120   6.125
 5259POPC   D2A66832  23.990  33.444   6.447
 5259POPC   C3A66833  24.080  33.239   6.834
 5259POPC   C4A66834  24.148  33.090   7.240
 5259POPC   C1B66835  23.404  33.030   6.226
 5259POPC   C2B66836  23.693  32.968   6.569
 5259POPC   C3B66837  23.759  32.861   6.988
 5259POPC   C4B66838  23.599  33.105   7.277
 5260POPC   NC366839  27.464  23.847   5.444
 5260POPC   PO466840  28.049  23.580   5.482
 5260POPC   GL166841  27.820  23.664   5.853
 5260POPC   GL266842  27.449  23.620   5.904
 5260POPC   C1A66843  27.833  23.437   6.250
 5260POPC   D2A66844  27.535  23.383   6.602
 5260POPC   C3A66845  27.659  23.452   7.044
 5260POPC   C4A66846  27.805  23.836   7.233
 5260POPC   C1B66847  27.518  23.864   6.293
 5260POPC   C2B66848  27.451  23.866   6.766
 5260POPC   C3B66849  27.333  23.996   7.213
 5260POPC   C4B66850  27.538  24.029   7.647
 5261POPC   NC366851  25.394  11.356   5.441
 5261POPC   PO466852  24.818  11.228   5.753
 5261POPC   GL166853  25.230  11.136   5.870
 5261POPC   GL266854  25.419  10.846   5.751
 5261POPC   C1A66855  25.327  11.366   6.229
 5261POPC   D2A66856  25.047  11.491   6.562
 5261POPC   C3A66857  25.220  11.359   6.970
 5261POPC   C4A66858  25.171  11.544   7.378
 5261POPC   C1B66859  25.534  10.895   6.208
 5261POPC   C2B66860  25.533  11.097   6.621
 5261POPC   C3B66861  25.705  11.037   7.010
 5261POPC   C4B66862  25.545  11.188   7.359
 5262POPC   NC366863  43.261  43.045   5.406
 5262POPC   PO466864  42.689  42.739   5.300
 5262POPC   GL166865  42.836  42.991   5.686
 5262POPC   GL266866  42.846  43.347   5.683
 5262POPC   C1A66867  43.063  42.975   6.108
 5262POPC   D2A66868  43.283  43.065   6.513
 5262POPC   C3A66869  43.145  42.894   6.917
 5262POPC   C4A66870  42.790  42.698   7.113
 5262POPC   C1B66871  43.013  43.522   6.072
 5262POPC   C2B66872  43.102  43.576   6.509
 5262POPC   C3B66873  43.202  43.396   6.900
 5262POPC   C4B66874  42.965  43.259   7.243
 5263POPC   NC366875  34.747  29.178   5.486
 5263POPC   PO466876  34.232  28.723   5.292
 5263POPC   GL166877  34.358  28.892   5.721
 5263POPC   GL266878  34.349  29.265   5.842
 5263POPC   C1A66879  34.529  28.872   6.145
 5263POPC   D2A66880  34.692  28.867   6.557
 5263POPC   C3A66881  34.449  29.097   6.804
 5263POPC   C4A66882  34.468  29.081   7.205
 5263POPC   C1B66883  34.707  29.374   6.133
 5263POPC   C2B66884  34.868  29.356   6.571
 5263POPC   C3B66885  34.735  29.495   6.997
 5263POPC   C4B66886  34.809  29.412   7.411
 5264POPC   NC366887  13.408   6.311   5.586
 5264POPC   PO466888  12.964   6.707   5.335
 5264POPC   GL166889  13.118   6.682   5.751
 5264POPC   GL266890  13.034   6.369   5.923
 5264POPC   C1A66891  13.119   6.908   6.133
 5264POPC   D2A66892  12.911   6.928   6.544
 5264POPC   C3A66893  13.175   6.725   6.837
 5264POPC   C4A66894  13.083   6.674   7.254
 5264POPC   C1B66895  12.754   6.554   6.164
 5264POPC   C2B66896  12.778   6.427   6.570
 5264POPC   C3B66897  12.681   6.634   6.938
 5264POPC   C4B66898  12.670   6.382   7.261
 5265POPC   NC366899  43.732  35.400   5.550
 5265POPC   PO466900  43.029  35.365   5.443
 5265POPC   GL166901  43.269  35.492   5.821
 5265POPC   GL266902  43.507  35.231   5.971
 5265POPC   C1A66903  43.183  35.459   6.285
 5265POPC   D2A66904  43.356  35.585   6.664
 5265POPC   C3A66905  43.441  35.234   6.921
 5265POPC   C4A66906  43.171  35.188   7.269
 5265POPC   C1B66907  43.650  35.652   6.172
 5265POPC   C2B66908  43.786  35.869   6.545
 5265POPC   C3B66909  43.756  35.733   6.980
 5265POPC   C4B66910  43.463  35.602   7.276
 5266POPC   NC366911   3.052  37.006   5.613
 5266POPC   PO466912   3.487  36.567   5.314
 5266POPC   GL166913   3.574  36.883   5.716
 5266POPC   GL266914   3.494  37.242   5.727
 5266POPC   C1A66915   3.483  36.900   6.194
 5266POPC   D2A66916   3.208  37.013   6.587
 5266POPC   C3A66917   3.270  36.798   6.980
 5266POPC   C4A66918   3.641  36.648   7.245
 5266POPC   C1B66919   3.645  37.375   6.159
 5266POPC   C2B66920   3.619  37.344   6.608
 5266POPC   C3B66921   3.478  37.267   7.020
 5266POPC   C4B66922   3.710  37.216   7.379
 5267POPC   NC366923  33.280  12.001   5.091
 5267POPC   PO466924  32.960  12.458   5.354
 5267POPC   GL166925  33.126  12.128   5.686
 5267POPC   GL266926  32.881  11.851   5.796
 5267POPC   C1A66927  33.224  12.010   6.145
 5267POPC   D2A66928  32.988  12.044   6.562
 5267POPC   C3A66929  32.720  12.191   6.912
 5267POPC   C4A66930  32.887  12.180   7.329
 5267POPC   C1B66931  32.903  11.623   6.209
 5267POPC   C2B66932  32.883  11.545   6.641
 5267POPC   C3B66933  32.960  11.752   7.037
 5267POPC   C4B66934  32.720  11.698   7.403
 5268POPC   NC366935  24.674   7.282   5.281
 5268POPC   PO466936  25.341   7.233   5.384
 5268POPC   GL166937  25.191   7.225   5.784
 5268POPC   GL266938  24.808   7.177   5.808
 5268POPC   C1A66939  25.376   7.364   6.178
 5268POPC   D2A66940  25.270   7.623   6.519
 5268POPC   C3A66941  25.482   7.517   6.896
 5268POPC   C4A66942  25.362   7.680   7.277
 5268POPC   C1B66943  25.013   6.987   6.197
 5268POPC   C2B66944  25.191   7.114   6.610
 5268POPC   C3B66945  25.002   7.344   6.958
 5268POPC   C4B66946  24.897   7.221   7.359
 5269POPC   NC366947  11.438   1.616   5.642
 5269POPC   PO466948  11.437   2.240   5.395
 5269POPC   GL166949  11.218   2.106   5.779
 5269POPC   GL266950  11.042   1.775   5.890
 5269POPC   C1A66951  11.386   2.015   6.197
 5269POPC   D2A66952  11.347   2.267   6.548
 5269POPC   C3A66953  11.303   2.045   6.880
 5269POPC   C4A66954  11.423   1.986   7.273
 5269POPC   C1B66955  11.001   1.627   6.322
 5269POPC   C2B66956  10.989   1.437   6.756
 5269POPC   C3B66957  11.135   1.589   7.162
 5269POPC   C4B66958  10.946   1.732   7.616
 5270POPC   NC366959  20.755   3.266   5.399
 5270POPC   PO466960  20.638   2.550   5.435
 5270POPC   GL166961  20.574   2.721   5.808
 5270POPC   GL266962  20.777   3.029   5.841
 5270POPC   C1A66963  20.494   2.462   6.151
 5270POPC   D2A66964  20.375   2.241   6.483
 5270POPC   C3A66965  20.512   2.436   6.813
 5270POPC   C4A66966  20.596   2.536   7.208
 5270POPC   C1B66967  20.731   2.911   6.245
 5270POPC   C2B66968  20.470   2.875   6.563
 5270POPC   C3B66969  20.667   2.956   6.936
 5270POPC   C4B66970  21.061   2.929   7.179
 5271POPC   NC366971   9.409   6.194   5.574
 5271POPC   PO466972   8.818   6.132   5.408
 5271POPC   GL166973   8.999   5.889   5.781
 5271POPC   GL266974   9.081   5.513   5.797
 5271POPC   C1A66975   9.206   5.805   6.182
 5271POPC   D2A66976   9.327   5.782   6.579
 5271POPC   C3A66977   9.127   6.111   6.814
 5271POPC   C4A66978   9.170   6.026   7.282
 5271POPC   C1B66979   8.768   5.548   6.160
 5271POPC   C2B66980   8.760   5.752   6.588
 5271POPC   C3B66981   8.982   5.663   6.981
 5271POPC   C4B66982   8.798   5.522   7.358
 5272POPC   NC366983  24.504  42.340   5.371
 5272POPC   PO466984  23.960  42.758   5.515
 5272POPC   GL166985  24.257  42.438   5.789
 5272POPC   GL266986  24.646  42.424   5.846
 5272POPC   C1A66987  24.307  42.163   6.175
 5272POPC   D2A66988  24.331  42.369   6.593
 5272POPC   C3A66989  24.344  42.127   7.000
 5272POPC   C4A66990  24.463  42.190   7.450
 5272POPC   C1B66991  24.785  42.329   6.285
 5272POPC   C2B66992  24.787  42.167   6.716
 5272POPC   C3B66993  24.831  42.336   7.126
 5272POPC   C4B66994  25.161  42.281   7.421
 5273POPC   NC366995  35.602  16.326   5.524
 5273POPC   PO466996  35.138  16.859   5.356
 5273POPC   GL166997  35.330  16.911   5.790
 5273POPC   GL266998  35.481  16.607   5.965
 5273POPC   C1A66999  35.291  16.990   6.246
 5273POPC   D2A67000  35.317  16.606   6.500
 5273POPC   C3A67001  35.368  16.695   6.899
 5273POPC   C4A67002  35.194  17.026   7.136
 5273POPC   C1B67003  35.768  16.776   6.288
 5273POPC   C2B67004  35.660  17.042   6.676
 5273POPC   C3B67005  35.712  16.975   7.146
 5273POPC   C4B67006  35.843  16.746   7.566
 5274POPC   NC367007  11.669   7.007   5.266
 5274POPC   PO467008  11.074   7.292   5.305
 5274POPC   GL167009  11.250   7.375   5.758
 5274POPC   GL267010  11.596   7.306   5.878
 5274POPC   C1A67011  11.236   7.563   6.204
 5274POPC   D2A67012  10.947   7.721   6.517
 5274POPC   C3A67013  11.162   7.908   6.899
 5274POPC   C4A67014  11.406   7.652   7.166
 5274POPC   C1B67015  11.407   7.084   6.247
 5274POPC   C2B67016  11.248   7.203   6.673
 5274POPC   C3B67017  11.317   7.118   7.120
 5274POPC   C4B67018  11.448   7.119   7.548
 5275POPC   NC367019  11.163  42.546   5.550
 5275POPC   PO467020  11.595  41.983   5.520
 5275POPC   GL167021  11.348  42.135   5.806
 5275POPC   GL267022  11.528  42.424   5.896
 5275POPC   C1A67023  11.137  42.170   6.178
 5275POPC   D2A67024  11.250  42.381   6.542
 5275POPC   C3A67025  11.187  42.256   6.952
 5275POPC   C4A67026  10.953  42.550   7.177
 5275POPC   C1B67027  11.417  42.723   6.220
 5275POPC   C2B67028  11.516  42.874   6.629
 5275POPC   C3B67029  11.441  42.743   7.087
 5275POPC   C4B67030  11.239  42.813   7.502
 5276POPC   NC367031  25.807   7.298   5.333
 5276POPC   PO467032  26.235   7.770   5.244
 5276POPC   GL167033  25.833   7.832   5.598
 5276POPC   GL267034  25.604   7.552   5.725
 5276POPC   C1A67035  25.751   7.862   6.097
 5276POPC   D2A67036  25.789   7.563   6.480
 5276POPC   C3A67037  26.122   7.650   6.810
 5276POPC   C4A67038  26.203   7.819   7.241
 5276POPC   C1B67039  25.872   7.284   6.035
 5276POPC   C2B67040  26.235   7.332   6.359
 5276POPC   C3B67041  26.200   7.129   6.784
 5276POPC   C4B67042  26.306   7.324   7.174
 5277POPC   NC367043  34.043  19.016   5.532
 5277POPC   PO467044  33.435  18.845   5.318
 5277POPC   GL167045  33.580  19.004   5.772
 5277POPC   GL267046  33.889  18.919   5.992
 5277POPC   C1A67047  33.559  19.229   6.193
 5277POPC   D2A67048  33.574  19.445   6.586
 5277POPC   C3A67049  33.674  19.220   6.946
 5277POPC   C4A67050  33.834  19.306   7.335
 5277POPC   C1B67051  34.130  18.727   6.281
 5277POPC   C2B67052  33.900  18.711   6.629
 5277POPC   C3B67053  33.942  18.804   7.035
 5277POPC   C4B67054  33.868  18.554   7.359
 5278POPC   NC367055  27.221  40.873   5.601
 5278POPC   PO467056  26.649  40.522   5.602
 5278POPC   GL167057  26.858  40.737   5.941
 5278POPC   GL267058  26.874  41.106   5.921
 5278POPC   C1A67059  26.883  40.847   6.375
 5278POPC   D2A67060  26.737  40.631   6.734
 5278POPC   C3A67061  27.083  40.647   6.987
 5278POPC   C4A67062  27.147  40.860   7.372
 5278POPC   C1B67063  26.568  41.259   6.225
 5278POPC   C2B67064  26.564  41.184   6.659
 5278POPC   C3B67065  26.804  41.067   7.047
 5278POPC   C4B67066  26.666  40.669   7.281
 5279POPC   NC367067  24.613   6.359   5.617
 5279POPC   PO467068  24.356   6.960   5.368
 5279POPC   GL167069  24.299   6.949   5.819
 5279POPC   GL267070  24.045   6.685   5.828
 5279POPC   C1A67071  24.465   6.884   6.275
 5279POPC   D2A67072  24.810   6.735   6.591
 5279POPC   C3A67073  24.704   6.509   6.974
 5279POPC   C4A67074  24.504   6.652   7.305
 5279POPC   C1B67075  24.106   6.515   6.249
 5279POPC   C2B67076  24.265   6.561   6.690
 5279POPC   C3B67077  24.040   6.663   7.085
 5279POPC   C4B67078  24.077   6.653   7.563
 5280POPC   NC367079  11.286  43.335   5.391
 5280POPC   PO467080  11.559  42.814   5.563
 5280POPC   GL167081  11.345  43.059   5.851
 5280POPC   GL267082  11.123  43.345   5.907
 5280POPC   C1A67083  11.542  43.242   6.211
 5280POPC   D2A67084  11.407  43.423   6.563
 5280POPC   C3A67085  11.363  43.236   6.953
 5280POPC   C4A67086  11.323  43.286   7.382
 5280POPC   C1B67087  11.040  43.103   6.306
 5280POPC   C2B67088  11.015  42.912   6.733
 5280POPC   C3B67089  10.925  43.073   7.142
 5280POPC   C4B67090  10.826  43.311   7.493
 5281POPC   NC367091   9.144   4.275   5.261
 5281POPC   PO467092   8.560   4.490   5.206
 5281POPC   GL167093   8.753   4.488   5.703
 5281POPC   GL267094   9.091   4.314   5.763
 5281POPC   C1A67095   8.813   4.324   6.192
 5281POPC   D2A67096   8.967   4.392   6.653
 5281POPC   C3A67097   8.773   4.311   7.072
 5281POPC   C4A67098   8.571   4.172   7.465
 5281POPC   C1B67099   9.285   4.104   6.104
 5281POPC   C2B67100   9.132   3.947   6.467
 5281POPC   C3B67101   9.123   3.955   6.922
 5281POPC   C4B67102   9.332   4.187   7.251
 5282POPC   NC367103  25.067  38.206   5.228
 5282POPC   PO467104  25.317  38.692   5.319
 5282POPC   GL167105  25.228  38.497   5.738
 5282POPC   GL267106  25.307  38.784   5.936
 5282POPC   C1A67107  25.429  38.343   6.170
 5282POPC   D2A67108  25.486  38.602   6.570
 5282POPC   C3A67109  25.488  38.379   6.935
 5282POPC   C4A67110  25.183  38.348   7.235
 5282POPC   C1B67111  25.032  38.617   6.306
 5282POPC   C2B67112  24.997  38.430   6.753
 5282POPC   C3B67113  24.678  38.287   7.076
 5282POPC   C4B67114  24.426  38.048   7.394
 5283POPC   NC367115  10.302  38.660   5.399
 5283POPC   PO467116  10.799  38.275   5.656
 5283POPC   GL167117  10.690  38.372   6.024
 5283POPC   GL267118  10.420  38.561   5.896
 5283POPC   C1A67119  10.608  38.137   6.380
 5283POPC   D2A67120  10.392  38.245   6.742
 5283POPC   C3A67121  10.642  38.085   7.063
 5283POPC   C4A67122  10.806  38.150   7.460
 5283POPC   C1B67123  10.261  38.559   6.312
 5283POPC   C2B67124  10.297  38.834   6.682
 5283POPC   C3B67125  10.338  38.872   7.134
 5283POPC   C4B67126  10.364  38.473   7.210
 5284POPC   NC367127  32.602  12.195   5.540
 5284POPC   PO467128  32.003  12.475   5.475
 5284POPC   GL167129  32.178  12.238   5.854
 5284POPC   GL267130  32.319  11.880   5.844
 5284POPC   C1A67131  32.089  12.118   6.283
 5284POPC   D2A67132  31.940  12.358   6.628
 5284POPC   C3A67133  32.099  12.186   6.968
 5284POPC   C4A67134  32.362  12.240   7.286
 5284POPC   C1B67135  32.585  12.024   6.194
 5284POPC   C2B67136  32.481  11.886   6.599
 5284POPC   C3B67137  32.415  11.792   7.027
 5284POPC   C4B67138  32.224  11.773   7.448
 5285POPC   NC367139  34.820  39.696   5.469
 5285POPC   PO467140  34.958  40.246   5.175
 5285POPC   GL167141  34.605  40.161   5.559
 5285POPC   GL267142  34.417  39.865   5.745
 5285POPC   C1A67143  34.540  40.262   6.030
 5285POPC   D2A67144  34.325  40.344   6.387
 5285POPC   C3A67145  34.451  40.136   6.752
 5285POPC   C4A67146  34.624  40.186   7.196
 5285POPC   C1B67147  34.582  39.758   6.182
 5285POPC   C2B67148  34.717  39.740   6.633
 5285POPC   C3B67149  34.470  39.716   7.043
 5285POPC   C4B67150  34.854  39.628   7.206
 5286POPC   NC367151  27.905  31.408   5.508
 5286POPC   PO467152  27.265  31.362   5.434
 5286POPC   GL167153  27.438  31.493   5.824
 5286POPC   GL267154  27.630  31.195   5.868
 5286POPC   C1A67155  27.611  31.505   6.274
 5286POPC   D2A67156  27.669  31.272   6.670
 5286POPC   C3A67157  27.649  31.546   7.022
 5286POPC   C4A67158  27.973  31.718   7.282
 5286POPC   C1B67159  27.291  31.103   6.165
 5286POPC   C2B67160  27.282  30.949   6.593
 5286POPC   C3B67161  27.324  30.824   7.016
 5286POPC   C4B67162  27.487  31.149   7.298
 5287POPC   NC367163  35.430  41.991   5.320
 5287POPC   PO467164  35.418  41.366   5.457
 5287POPC   GL167165  35.329  41.688   5.793
 5287POPC   GL267166  35.656  41.811   5.808
 5287POPC   C1A67167  35.055  41.611   6.168
 5287POPC   D2A67168  35.103  41.400   6.549
 5287POPC   C3A67169  35.271  41.671   6.888
 5287POPC   C4A67170  35.198  41.546   7.305
 5287POPC   C1B67171  35.533  41.791   6.272
 5287POPC   C2B67172  35.687  41.522   6.633
 5287POPC   C3B67173  35.723  41.444   7.095
 5287POPC   C4B67174  35.666  41.673   7.473
 5288POPC   NC367175  26.102  13.110   5.389
 5288POPC   PO467176  25.491  13.134   5.410
 5288POPC   GL167177  25.781  12.943   5.762
 5288POPC   GL267178  26.183  12.920   5.846
 5288POPC   C1A67179  25.834  12.763   6.183
 5288POPC   D2A67180  25.758  12.524   6.552
 5288POPC   C3A67181  26.016  12.655   6.876
 5288POPC   C4A67182  25.878  12.805   7.275
 5288POPC   C1B67183  26.512  13.006   6.177
 5288POPC   C2B67184  26.602  12.840   6.593
 5288POPC   C3B67185  26.448  12.936   6.997
 5288POPC   C4B67186  26.367  12.651   7.295
 5289POPC   NC367187  26.392  22.406   5.152
 5289POPC   PO467188  26.221  22.988   5.523
 5289POPC   GL167189  26.049  22.824   5.891
 5289POPC   GL267190  25.691  22.897   5.914
 5289POPC   C1A67191  26.235  22.811   6.286
 5289POPC   D2A67192  26.325  22.877   6.693
 5289POPC   C3A67193  26.344  22.493   6.887
 5289POPC   C4A67194  26.104  22.550   7.230
 5289POPC   C1B67195  25.788  23.083   6.341
 5289POPC   C2B67196  25.636  23.364   6.653
 5289POPC   C3B67197  25.650  23.234   7.063
 5289POPC   C4B67198  25.590  22.858   7.245
 5290POPC   NC367199  17.611  30.426   5.387
 5290POPC   PO467200  17.995  30.952   5.449
 5290POPC   GL167201  17.812  30.726   5.822
 5290POPC   GL267202  17.476  30.536   5.870
 5290POPC   C1A67203  17.746  30.790   6.262
 5290POPC   D2A67204  18.001  30.632   6.556
 5290POPC   C3A67205  17.841  30.716   6.927
 5290POPC   C4A67206  17.539  30.749   7.194
 5290POPC   C1B67207  17.270  30.516   6.289
 5290POPC   C2B67208  17.278  30.710   6.721
 5290POPC   C3B67209  17.011  30.739   7.084
 5290POPC   C4B67210  17.165  30.679   7.508
 5291POPC   NC367211   5.614  11.814   5.459
 5291POPC   PO467212   5.951  11.230   5.365
 5291POPC   GL167213   6.138  11.288   5.784
 5291POPC   GL267214   5.935  11.514   5.957
 5291POPC   C1A67215   6.215  11.088   6.178
 5291POPC   D2A67216   5.974  11.009   6.556
 5291POPC   C3A67217   5.969  11.226   6.975
 5291POPC   C4A67218   5.663  11.067   7.280
 5291POPC   C1B67219   5.668  11.546   6.335
 5291POPC   C2B67220   5.653  11.684   6.765
 5291POPC   C3B67221   5.624  11.591   7.212
 5291POPC   C4B67222   5.553  11.411   7.642
 5292POPC   NC367223  40.452  36.885   5.529
 5292POPC   PO467224  39.775  37.157   5.458
 5292POPC   GL167225  39.934  36.899   5.804
 5292POPC   GL267226  39.649  36.697   5.889
 5292POPC   C1A67227  40.151  36.967   6.233
 5292POPC   D2A67228  40.096  36.854   6.694
 5292POPC   C3A67229  40.153  37.080   7.072
 5292POPC   C4A67230  40.036  37.059   7.535
 5292POPC   C1B67231  39.677  36.807   6.339
 5292POPC   C2B67232  39.599  36.731   6.781
 5292POPC   C3B67233  39.839  36.680   7.172
 5292POPC   C4B67234  40.013  36.333   7.397
 5293POPC   NC367235  18.867   4.254   5.416
 5293POPC   PO467236  19.372   4.111   5.069
 5293POPC   GL167237  19.333   4.170   5.639
 5293POPC   GL267238  19.063   4.404   5.824
 5293POPC   C1A67239  19.343   4.248   6.181
 5293POPC   D2A67240  19.478   4.126   6.647
 5293POPC   C3A67241  19.204   4.254   7.015
 5293POPC   C4A67242  19.137   4.693   7.116
 5293POPC   C1B67243  18.847   4.517   6.209
 5293POPC   C2B67244  18.894   4.449   6.655
 5293POPC   C3B67245  18.711   4.409   7.061
 5293POPC   C4B67246  18.815   4.125   7.402
 5294POPC   NC367247  43.288  30.494   5.318
 5294POPC   PO467248  43.281  31.107   5.406
 5294POPC   GL167249  43.370  30.898   5.781
 5294POPC   GL267250  43.337  30.546   5.809
 5294POPC   C1A67251  43.272  30.918   6.192
 5294POPC   D2A67252  43.473  30.900   6.600
 5294POPC   C3A67253  43.154  30.910   6.940
 5294POPC   C4A67254  43.177  30.701   7.320
 5294POPC   C1B67255  43.026  30.496   6.112
 5294POPC   C2B67256  43.089  30.576   6.546
 5294POPC   C3B67257  43.134  30.368   6.948
 5294POPC   C4B67258  42.810  30.350   7.325
 5295POPC   NC367259   1.207   0.138   5.132
 5295POPC   PO467260   0.897   0.536   5.540
 5295POPC   GL167261   1.147   0.287   5.838
 5295POPC   GL267262   1.425   0.161   5.720
 5295POPC   C1A67263   1.165   0.314   6.277
 5295POPC   D2A67264   1.157   0.529   6.633
 5295POPC   C3A67265   1.123   0.318   6.977
 5295POPC   C4A67266   1.275   0.515   7.304
 5295POPC   C1B67267   1.572   0.024   6.184
 5295POPC   C2B67268   1.474   0.071   6.659
 5295POPC   C3B67269   1.559   0.129   7.119
 5295POPC   C4B67270   1.561   0.185   7.571
 5296POPC   NC367271  33.516  29.963   5.141
 5296POPC   PO467272  32.868  30.010   5.192
 5296POPC   GL167273  32.857  29.967   5.748
 5296POPC   GL267274  33.096  29.721   5.913
 5296POPC   C1A67275  32.802  29.968   6.238
 5296POPC   D2A67276  33.017  29.915   6.670
 5296POPC   C3A67277  32.875  30.133   7.084
 5296POPC   C4A67278  32.801  30.232   7.549
 5296POPC   C1B67279  33.366  29.794   6.281
 5296POPC   C2B67280  33.577  29.803   6.686
 5296POPC   C3B67281  33.369  29.972   7.046
 5296POPC   C4B67282  33.265  30.027   7.474
 5297POPC   NC367283  32.496  24.557   5.362
 5297POPC   PO467284  33.227  24.531   5.339
 5297POPC   GL167285  33.202  24.523   5.783
 5297POPC   GL267286  32.854  24.542   5.784
 5297POPC   C1A67287  33.310  24.562   6.199
 5297POPC   D2A67288  33.218  24.828   6.524
 5297POPC   C3A67289  33.152  24.634   6.903
 5297POPC   C4A67290  33.171  24.790   7.298
 5297POPC   C1B67291  32.925  24.196   6.077
 5297POPC   C2B67292  33.014  24.232   6.496
 5297POPC   C3B67293  32.740  24.357   6.805
 5297POPC   C4B67294  32.820  24.367   7.217
 5298POPC   NC367295  40.065  24.312   5.198
 5298POPC   PO467296  39.514  24.571   5.423
 5298POPC   GL167297  39.882  24.342   5.679
 5298POPC   GL267298  40.258  24.205   5.684
 5298POPC   C1A67299  40.008  24.307   6.123
 5298POPC   D2A67300  39.895  24.366   6.566
 5298POPC   C3A67301  40.098  24.669   6.839
 5298POPC   C4A67302  39.887  24.650   7.217
 5298POPC   C1B67303  40.496  24.124   6.090
 5298POPC   C2B67304  40.409  24.279   6.517
 5298POPC   C3B67305  40.242  24.185   6.945
 5298POPC   C4B67306  40.356  24.473   7.267
 5299POPC   NC367307  11.380  22.873   5.326
 5299POPC   PO467308  11.983  23.222   5.469
 5299POPC   GL167309  11.729  22.961   5.784
 5299POPC   GL267310  11.345  22.998   5.830
 5299POPC   C1A67311  11.622  23.027   6.249
 5299POPC   D2A67312  11.485  22.722   6.591
 5299POPC   C3A67313  11.419  22.900   7.007
 5299POPC   C4A67314  11.558  23.068   7.405
 5299POPC   C1B67315  11.111  23.037   6.225
 5299POPC   C2B67316  10.932  22.788   6.559
 5299POPC   C3B67317  10.931  22.625   6.981
 5299POPC   C4B67318  11.076  22.793   7.382
 5300POPC   NC367319  36.335  28.945   5.506
 5300POPC   PO467320  35.976  29.483   5.671
 5300POPC   GL167321  36.258  29.281   5.899
 5300POPC   GL267322  36.000  29.038   5.929
 5300POPC   C1A67323  36.360  29.128   6.293
 5300POPC   D2A67324  36.164  29.020   6.642
 5300POPC   C3A67325  36.064  29.392   6.811
 5300POPC   C4A67326  36.079  29.494   7.226
 5300POPC   C1B67327  35.680  28.811   6.156
 5300POPC   C2B67328  35.712  28.786   6.601
 5300POPC   C3B67329  35.874  28.767   7.031
 5300POPC   C4B67330  35.674  28.873   7.430
 5301POPC   NC367331  28.285  30.546   5.844
 5301POPC   PO467332  27.884  30.950   5.454
 5301POPC   GL167333  28.152  31.062   5.815
 5301POPC   GL267334  28.508  31.043   5.746
 5301POPC   C1A67335  28.264  30.999   6.270
 5301POPC   D2A67336  28.133  31.022   6.685
 5301POPC   C3A67337  28.400  30.823   7.000
 5301POPC   C4A67338  28.407  30.543   7.347
 5301POPC   C1B67339  28.707  31.204   6.139
 5301POPC   C2B67340  28.559  31.273   6.591
 5301POPC   C3B67341  28.708  31.242   7.013
 5301POPC   C4B67342  28.721  30.957   7.398
 5302POPC   NC367343  36.513   2.163   5.492
 5302POPC   PO467344  37.104   1.979   5.364
 5302POPC   GL167345  36.943   1.957   5.773
 5302POPC   GL267346  36.912   2.327   5.853
 5302POPC   C1A67347  37.119   1.956   6.198
 5302POPC   D2A67348  37.285   2.111   6.582
 5302POPC   C3A67349  37.135   2.011   6.982
 5302POPC   C4A67350  36.758   1.982   7.229
 5302POPC   C1B67351  36.639   2.109   6.179
 5302POPC   C2B67352  36.699   2.038   6.633
 5302POPC   C3B67353  36.445   2.279   6.931
 5302POPC   C4B67354  36.340   2.331   7.361
 5303POPC   NC367355  16.916   8.227   5.153
 5303POPC   PO467356  17.403   7.932   5.419
 5303POPC   GL167357  17.521   7.984   5.849
 5303POPC   GL267358  17.226   7.809   5.923
 5303POPC   C1A67359  17.740   8.070   6.296
 5303POPC   D2A67360  17.784   7.889   6.747
 5303POPC   C3A67361  17.661   8.179   7.090
 5303POPC   C4A67362  17.727   8.585   7.168
 5303POPC   C1B67363  17.221   7.877   6.326
 5303POPC   C2B67364  17.331   8.129   6.632
 5303POPC   C3B67365  17.272   7.903   6.963
 5303POPC   C4B67366  17.154   8.128   7.315
 5304POPC   NC367367  40.465  26.093   5.432
 5304POPC   PO467368  41.042  26.422   5.381
 5304POPC   GL167369  41.026  26.131   5.778
 5304POPC   GL267370  41.007  25.764   5.741
 5304POPC   C1A67371  41.084  26.028   6.222
 5304POPC   D2A67372  40.815  26.075   6.584
 5304POPC   C3A67373  41.012  26.094   7.002
 5304POPC   C4A67374  40.946  26.114   7.435
 5304POPC   C1B67375  40.665  25.747   6.068
 5304POPC   C2B67376  40.547  25.629   6.474
 5304POPC   C3B67377  40.682  25.663   6.855
 5304POPC   C4B67378  40.664  25.747   7.234
 5305POPC   NC367379  28.838   0.915   5.202
 5305POPC   PO467380  29.151   1.475   5.239
 5305POPC   GL167381  29.030   1.173   5.663
 5305POPC   GL267382  29.206   0.923   5.803
 5305POPC   C1A67383  28.936   1.227   6.193
 5305POPC   D2A67384  28.969   1.426   6.671
 5305POPC   C3A67385  29.147   1.357   7.126
 5305POPC   C4A67386  29.214   1.357   7.605
 5305POPC   C1B67387  29.040   0.741   6.194
 5305POPC   C2B67388  28.796   0.842   6.575
 5305POPC   C3B67389  28.949   0.904   7.011
 5305POPC   C4B67390  29.243   0.869   7.382
 5306POPC   NC367391  15.214  25.557   5.402
 5306POPC   PO467392  14.972  26.197   5.442
 5306POPC   GL167393  15.284  26.188   5.802
 5306POPC   GL267394  15.348  25.833   5.827
 5306POPC   C1A67395  15.455  26.373   6.212
 5306POPC   D2A67396  15.582  26.284   6.680
 5306POPC   C3A67397  15.271  26.046   6.963
 5306POPC   C4A67398  14.983  26.091   7.333
 5306POPC   C1B67399  15.195  25.677   6.236
 5306POPC   C2B67400  15.303  25.601   6.659
 5306POPC   C3B67401  15.433  25.484   7.067
 5306POPC   C4B67402  15.281  25.689   7.362
 5307POPC   NC367403  19.514  18.277   5.546
 5307POPC   PO467404  20.068  18.329   5.264
 5307POPC   GL167405  20.048  18.172   5.763
 5307POPC   GL267406  19.856  17.919   6.056
 5307POPC   C1A67407  20.232  18.212   6.202
 5307POPC   D2A67408  19.989  18.252   6.593
 5307POPC   C3A67409  20.130  18.174   7.024
 5307POPC   C4A67410  19.809  18.370   7.285
 5307POPC   C1B67411  19.700  18.347   6.173
 5307POPC   C2B67412  19.473  18.569   6.491
 5307POPC   C3B67413  19.464  18.495   6.924
 5307POPC   C4B67414  19.442  18.720   7.321
 5308POPC   NC367415   3.821   1.088   4.937
 5308POPC   PO467416   3.424   1.045   5.480
 5308POPC   GL167417   3.560   0.945   5.864
 5308POPC   GL267418   3.923   0.945   5.844
 5308POPC   C1A67419   3.388   0.978   6.272
 5308POPC   D2A67420   3.580   0.904   6.638
 5308POPC   C3A67421   3.718   1.232   6.868
 5308POPC   C4A67422   3.458   1.319   7.198
 5308POPC   C1B67423   3.886   1.133   6.262
 5308POPC   C2B67424   4.092   0.948   6.621
 5308POPC   C3B67425   4.077   0.917   7.058
 5308POPC   C4B67426   3.940   1.206   7.332
 5309POPC   NC367427   1.215  31.749   5.487
 5309POPC   PO467428   0.833  31.158   5.649
 5309POPC   GL167429   1.135  31.418   5.918
 5309POPC   GL267430   1.526  31.403   5.949
 5309POPC   C1A67431   1.207  31.537   6.347
 5309POPC   D2A67432   1.274  31.424   6.769
 5309POPC   C3A67433   0.964  31.466   7.110
 5309POPC   C4A67434   0.976  31.177   7.440
 5309POPC   C1B67435   1.696  31.703   6.240
 5309POPC   C2B67436   1.507  31.918   6.580
 5309POPC   C3B67437   1.564  31.778   6.995
 5309POPC   C4B67438   1.417  31.528   7.352
 5310POPC   NC367439  41.771  18.117   5.512
 5310POPC   PO467440  41.451  18.743   5.467
 5310POPC   GL167441  41.483  18.400   5.807
 5310POPC   GL267442  41.834  18.314   5.975
 5310POPC   C1A67443  41.330  18.335   6.210
 5310POPC   D2A67444  41.686  18.319   6.481
 5310POPC   C3A67445  41.584  18.309   6.898
 5310POPC   C4A67446  41.583  18.428   7.336
 5310POPC   C1B67447  42.087  18.050   6.289
 5310POPC   C2B67448  41.948  17.944   6.728
 5310POPC   C3B67449  41.965  18.121   7.170
 5310POPC   C4B67450  41.919  18.009   7.615
 5311POPC   NC367451  11.268   3.485   5.453
 5311POPC   PO467452  10.892   4.018   5.317
 5311POPC   GL167453  11.056   3.854   5.758
 5311POPC   GL267454  11.038   3.478   5.893
 5311POPC   C1A67455  11.335   3.811   6.136
 5311POPC   D2A67456  11.309   3.492   6.483
 5311POPC   C3A67457  11.342   3.671   6.908
 5311POPC   C4A67458  11.500   3.866   7.270
 5311POPC   C1B67459  10.866   3.241   6.251
 5311POPC   C2B67460  10.785   3.321   6.685
 5311POPC   C3B67461  11.027   3.288   7.079
 5311POPC   C4B67462  10.860   3.274   7.507
 5312POPC   NC367463   4.484  21.366   5.450
 5312POPC   PO467464   3.886  21.238   5.614
 5312POPC   GL167465   4.259  21.083   5.864
 5312POPC   GL267466   4.530  21.315   5.944
 5312POPC   C1A67467   4.457  20.985   6.299
 5312POPC   D2A67468   4.750  21.209   6.612
 5312POPC   C3A67469   4.616  21.273   7.058
 5312POPC   C4A67470   4.210  21.138   7.260
 5312POPC   C1B67471   4.562  21.596   6.312
 5312POPC   C2B67472   4.545  21.692   6.769
 5312POPC   C3B67473   4.762  21.809   7.157
 5312POPC   C4B67474   4.728  21.680   7.625
 5313POPC   NC367475  30.041   8.598   5.400
 5313POPC   PO467476  29.825   9.288   5.440
 5313POPC   GL167477  29.839   9.038   5.816
 5313POPC   GL267478  30.168   8.871   5.868
 5313POPC   C1A67479  29.776   8.923   6.254
 5313POPC   D2A67480  30.097   8.950   6.574
 5313POPC   C3A67481  30.115   8.779   6.987
 5313POPC   C4A67482  30.076   8.549   7.338
 5313POPC   C1B67483  30.150   9.269   6.149
 5313POPC   C2B67484  30.086   9.461   6.572
 5313POPC   C3B67485  30.255   9.276   6.963
 5313POPC   C4B67486  30.398   9.378   7.364
 5314POPC   NC367487  39.635  13.079   5.533
 5314POPC   PO467488  40.085  12.651   5.550
 5314POPC   GL167489  39.938  12.782   5.915
 5314POPC   GL267490  40.014  13.134   5.891
 5314POPC   C1A67491  40.162  12.815   6.310
 5314POPC   D2A67492  40.346  12.596   6.662
 5314POPC   C3A67493  40.147  12.655   7.065
 5314POPC   C4A67494  40.042  13.048   7.266
 5314POPC   C1B67495  39.752  13.167   6.250
 5314POPC   C2B67496  39.795  12.925   6.639
 5314POPC   C3B67497  39.668  12.838   7.027
 5314POPC   C4B67498  39.536  13.171   7.313
 5315POPC   NC367499  10.302  31.817   5.340
 5315POPC   PO467500  10.910  31.443   5.359
 5315POPC   GL167501  10.796  31.493   5.781
 5315POPC   GL267502  10.477  31.625   5.760
 5315POPC   C1A67503  10.722  31.690   6.216
 5315POPC   D2A67504  10.879  31.832   6.638
 5315POPC   C3A67505  10.666  31.677   6.991
 5315POPC   C4A67506  10.601  31.868   7.382
 5315POPC   C1B67507  10.276  31.438   6.086
 5315POPC   C2B67508  10.357  31.398   6.501
 5315POPC   C3B67509  10.194  31.451   6.877
 5315POPC   C4B67510  10.241  31.553   7.267
 5316POPC   NC367511  38.591  17.813   5.389
 5316POPC   PO467512  38.161  17.277   5.379
 5316POPC   GL167513  38.197  17.390   5.810
 5316POPC   GL267514  38.522  17.552   5.829
 5316POPC   C1A67515  38.313  17.252   6.243
 5316POPC   D2A67516  38.411  17.089   6.644
 5316POPC   C3A67517  38.248  17.331   6.987
 5316POPC   C4A67518  38.389  17.397   7.431
 5316POPC   C1B67519  38.721  17.604   6.221
 5316POPC   C2B67520  38.597  17.557   6.637
 5316POPC   C3B67521  38.708  17.527   7.047
 5316POPC   C4B67522  38.729  17.793   7.398
 5317POPC   NC367523   2.054  28.099   5.513
 5317POPC   PO467524   1.669  27.534   5.408
 5317POPC   GL167525   1.963  27.639   5.794
 5317POPC   GL267526   1.822  27.316   5.862
 5317POPC   C1A67527   2.213  27.762   6.229
 5317POPC   D2A67528   2.432  27.727   6.649
 5317POPC   C3A67529   2.230  27.695   7.059
 5317POPC   C4A67530   1.992  27.840   7.404
 5317POPC   C1B67531   2.007  27.312   6.233
 5317POPC   C2B67532   2.010  27.441   6.659
 5317POPC   C3B67533   1.857  27.339   7.065
 5317POPC   C4B67534   1.716  27.421   7.478
 5318POPC   NC367535   3.058  15.202   5.377
 5318POPC   PO467536   3.649  15.527   5.484
 5318POPC   GL167537   3.334  15.386   5.798
 5318POPC   GL267538   3.374  15.639   6.046
 5318POPC   C1A67539   3.393  15.087   6.148
 5318POPC   D2A67540   3.615  14.951   6.553
 5318POPC   C3A67541   3.401  15.003   6.969
 5318POPC   C4A67542   3.261  15.450   7.092
 5318POPC   C1B67543   3.783  15.419   6.134
 5318POPC   C2B67544   4.000  15.316   6.535
 5318POPC   C3B67545   3.784  15.340   6.942
 5318POPC   C4B67546   3.656  15.247   7.370
 5319POPC   NC367547  37.790  16.040   5.345
 5319POPC   PO467548  37.790  15.413   5.420
 5319POPC   GL167549  37.811  15.739   5.778
 5319POPC   GL267550  37.782  16.127   5.831
 5319POPC   C1A67551  37.712  15.814   6.222
 5319POPC   D2A67552  37.837  16.003   6.607
 5319POPC   C3A67553  37.631  15.722   6.882
 5319POPC   C4A67554  37.743  15.573   7.274
 5319POPC   C1B67555  37.389  16.174   6.057
 5319POPC   C2B67556  37.337  16.136   6.517
 5319POPC   C3B67557  37.445  16.182   6.971
 5319POPC   C4B67558  37.540  16.304   7.411
 5320POPC   NC367559   5.505  35.781   5.617
 5320POPC   PO467560   4.937  36.001   5.458
 5320POPC   GL167561   5.086  36.274   5.805
 5320POPC   GL267562   4.944  36.628   5.902
 5320POPC   C1A67563   5.302  36.309   6.179
 5320POPC   D2A67564   5.336  36.037   6.526
 5320POPC   C3A67565   5.115  36.109   6.908
 5320POPC   C4A67566   5.242  35.996   7.306
 5320POPC   C1B67567   4.798  36.357   6.224
 5320POPC   C2B67568   4.675  36.231   6.599
 5320POPC   C3B67569   4.712  36.422   6.966
 5320POPC   C4B67570   4.825  36.289   7.389
 5321POPC   NC367571   9.406  40.075   5.106
 5321POPC   PO467572   8.792  39.909   5.271
 5321POPC   GL167573   8.849  40.024   5.751
 5321POPC   GL267574   9.148  40.135   5.861
 5321POPC   C1A67575   8.853  40.261   6.225
 5321POPC   D2A67576   8.952  40.173   6.652
 5321POPC   C3A67577   8.627  40.186   6.960
 5321POPC   C4A67578   8.767  40.105   7.342
 5321POPC   C1B67579   9.272  39.946   6.262
 5321POPC   C2B67580   9.375  39.744   6.641
 5321POPC   C3B67581   9.389  39.962   7.036
 5321POPC   C4B67582   9.206  39.811   7.400
 5322POPC   NC367583   6.998  19.297   5.361
 5322POPC   PO467584   7.603  19.144   5.158
 5322POPC   GL167585   7.364  19.081   5.626
 5322POPC   GL267586   7.478  19.291   5.915
 5322POPC   C1A67587   7.149  18.948   6.066
 5322POPC   D2A67588   7.151  19.236   6.435
 5322POPC   C3A67589   7.157  19.078   6.852
 5322POPC   C4A67590   7.173  19.285   7.246
 5322POPC   C1B67591   7.781  19.210   6.254
 5322POPC   C2B67592   7.899  19.183   6.663
 5322POPC   C3B67593   7.629  19.225   6.967
 5322POPC   C4B67594   7.688  19.251   7.365
 5323POPC   NC367595   3.820   8.118   5.577
 5323POPC   PO467596   3.149   8.138   5.530
 5323POPC   GL167597   3.421   8.198   5.887
 5323POPC   GL267598   3.596   8.540   5.811
 5323POPC   C1A67599   3.462   7.975   6.287
 5323POPC   D2A67600   3.539   7.799   6.733
 5323POPC   C3A67601   3.298   7.975   7.083
 5323POPC   C4A67602   3.234   8.409   7.103
 5323POPC   C1B67603   3.722   8.466   6.224
 5323POPC   C2B67604   3.742   8.255   6.598
 5323POPC   C3B67605   3.716   8.253   7.013
 5323POPC   C4B67606   3.786   7.902   7.235
 5324POPC   NC367607  30.713   3.043   5.387
 5324POPC   PO467608  30.939   2.361   5.445
 5324POPC   GL167609  30.758   2.643   5.764
 5324POPC   GL267610  30.923   2.954   5.818
 5324POPC   C1A67611  30.543   2.855   6.129
 5324POPC   D2A67612  30.673   2.965   6.564
 5324POPC   C3A67613  30.567   2.729   6.931
 5324POPC   C4A67614  30.631   2.805   7.365
 5324POPC   C1B67615  31.064   2.766   6.196
 5324POPC   C2B67616  31.200   2.879   6.610
 5324POPC   C3B67617  31.051   2.843   7.035
 5324POPC   C4B67618  31.067   2.548   7.391
 5325POPC   NC367619   0.386  31.263   5.527
 5325POPC   PO467620   0.802  31.744   5.219
 5325POPC   GL167621   0.719  31.656   5.723
 5325POPC   GL267622   0.561  31.385   5.994
 5325POPC   C1A67623   0.578  31.866   6.114
 5325POPC   D2A67624   0.524  31.957   6.542
 5325POPC   C3A67625   0.517  31.624   6.826
 5325POPC   C4A67626   0.345  31.610   7.211
 5325POPC   C1B67627   0.842  31.156   6.318
 5325POPC   C2B67628   0.804  31.113   6.780
 5325POPC   C3B67629   0.536  31.144   7.157
 5325POPC   C4B67630   0.504  31.269   7.607
 5326POPC   NC367631  28.576  39.735   5.263
 5326POPC   PO467632  27.999  40.136   5.295
 5326POPC   GL167633  28.180  40.045   5.693
 5326POPC   GL267634  28.480  39.880   5.771
 5326POPC   C1A67635  28.130  39.959   6.151
 5326POPC   D2A67636  28.315  40.094   6.553
 5326POPC   C3A67637  28.124  40.038   6.964
 5326POPC   C4A67638  28.287  40.150   7.373
 5326POPC   C1B67639  28.581  39.632   6.148
 5326POPC   C2B67640  28.695  39.718   6.574
 5326POPC   C3B67641  28.613  39.908   6.959
 5326POPC   C4B67642  28.603  39.725   7.341
 5327POPC   NC367643  27.144  22.211   5.457
 5327POPC   PO467644  26.466  22.026   5.468
 5327POPC   GL167645  26.789  21.970   5.766
 5327POPC   GL267646  26.833  22.288   5.927
 5327POPC   C1A67647  26.802  21.849   6.214
 5327POPC   D2A67648  26.592  22.112   6.530
 5327POPC   C3A67649  26.704  22.080   6.957
 5327POPC   C4A67650  26.718  22.416   7.234
 5327POPC   C1B67651  27.102  22.284   6.326
 5327POPC   C2B67652  27.291  22.565   6.662
 5327POPC   C3B67653  27.281  22.504   7.119
 5327POPC   C4B67654  27.136  22.118   7.284
 5328POPC   NC367655  21.475  18.507   5.464
 5328POPC   PO467656  21.839  17.963   5.514
 5328POPC   GL167657  21.550  18.166   5.834
 5328POPC   GL267658  21.315  17.955   5.907
 5328POPC   C1A67659  21.423  18.445   6.229
 5328POPC   D2A67660  21.186  18.507   6.647
 5328POPC   C3A67661  21.252  18.283   7.078
 5328POPC   C4A67662  21.176  18.293   7.527
 5328POPC   C1B67663  21.485  17.949   6.299
 5328POPC   C2B67664  21.410  18.048   6.670
 5328POPC   C3B67665  21.616  17.909   7.034
 5328POPC   C4B67666  21.430  17.861   7.444
 5329POPC   NC367667  18.873  38.754   5.486
 5329POPC   PO467668  19.252  38.175   5.417
 5329POPC   GL167669  19.219  38.415   5.790
 5329POPC   GL267670  19.100  38.124   5.950
 5329POPC   C1A67671  18.981  38.611   6.168
 5329POPC   D2A67672  19.006  38.749   6.639
 5329POPC   C3A67673  18.870  38.516   7.069
 5329POPC   C4A67674  18.765  38.558   7.581
 5329POPC   C1B67675  19.114  38.174   6.385
 5329POPC   C2B67676  19.268  38.177   6.783
 5329POPC   C3B67677  19.304  38.271   7.204
 5329POPC   C4B67678  19.096  38.165   7.569
 5330POPC   NC367679  15.884   8.076   5.089
 5330POPC   PO467680  16.191   8.590   5.356
 5330POPC   GL167681  16.101   8.395   5.746
 5330POPC   GL267682  15.939   8.076   5.618
 5330POPC   C1A67683  16.003   8.509   6.185
 5330POPC   D2A67684  15.787   8.512   6.599
 5330POPC   C3A67685  15.966   8.386   7.019
 5330POPC   C4A67686  16.107   8.137   7.387
 5330POPC   C1B67687  16.007   7.968   6.063
 5330POPC   C2B67688  16.112   7.801   6.474
 5330POPC   C3B67689  15.899   7.896   6.852
 5330POPC   C4B67690  15.677   7.916   7.219
 5331POPC   NC367691  29.277  13.910   5.562
 5331POPC   PO467692  28.679  13.710   5.710
 5331POPC   GL167693  29.058  13.677   5.973
 5331POPC   GL267694  29.354  13.495   5.878
 5331POPC   C1A67695  29.306  13.607   6.360
 5331POPC   D2A67696  29.326  13.850   6.698
 5331POPC   C3A67697  28.979  13.759   6.933
 5331POPC   C4A67698  29.007  13.966   7.305
 5331POPC   C1B67699  29.087  13.181   6.106
 5331POPC   C2B67700  28.957  13.263   6.524
 5331POPC   C3B67701  29.171  13.255   6.882
 5331POPC   C4B67702  28.944  13.328   7.251
 5332POPC   NC367703  15.460  24.609   5.603
 5332POPC   PO467704  14.856  24.456   5.379
 5332POPC   GL167705  15.112  24.212   5.734
 5332POPC   GL267706  15.475  24.119   5.765
 5332POPC   C1A67707  15.113  24.351   6.176
 5332POPC   D2A67708  15.074  24.654   6.524
 5332POPC   C3A67709  15.085  24.605   6.925
 5332POPC   C4A67710  15.141  24.502   7.330
 5332POPC   C1B67711  15.605  24.256   6.182
 5332POPC   C2B67712  15.453  24.290   6.603
 5332POPC   C3B67713  15.314  24.150   7.004
 5332POPC   C4B67714  15.474  24.137   7.412
 5333POPC   NC367715  44.378  10.125   5.408
 5333POPC   PO467716  43.978   9.566   5.471
 5333POPC   GL167717  43.866   9.758   5.889
 5333POPC   GL267718  43.597  10.037   5.866
 5333POPC   C1A67719  43.964   9.599   6.288
 5333POPC   D2A67720  43.931   9.501   6.715
 5333POPC   C3A67721  44.282   9.615   6.997
 5333POPC   C4A67722  44.348   9.587   7.475
 5333POPC   C1B67723  43.883  10.139   6.236
 5333POPC   C2B67724  43.833   9.999   6.658
 5333POPC   C3B67725  43.697  10.122   7.042
 5333POPC   C4B67726  43.670  10.126   7.495
 5334POPC   NC367727  11.488   9.997   5.459
 5334POPC   PO467728  11.034   9.561   5.344
 5334POPC   GL167729  11.203   9.697   5.777
 5334POPC   GL267730  11.598   9.682   5.864
 5334POPC   C1A67731  10.988   9.789   6.178
 5334POPC   D2A67732  10.871   9.922   6.600
 5334POPC   C3A67733  10.954   9.659   6.920
 5334POPC   C4A67734  10.988   9.790   7.343
 5334POPC   C1B67735  11.499   9.911   6.267
 5334POPC   C2B67736  11.403   9.805   6.716
 5334POPC   C3B67737  11.447   9.874   7.176
 5334POPC   C4B67738  11.387   9.638   7.592
 5335POPC   NC367739   3.211  30.817   5.422
 5335POPC   PO467740   2.607  30.745   5.140
 5335POPC   GL167741   2.761  30.654   5.632
 5335POPC   GL267742   2.930  30.934   5.816
 5335POPC   C1A67743   2.676  30.648   6.128
 5335POPC   D2A67744   2.621  30.445   6.494
 5335POPC   C3A67745   2.517  30.577   6.914
 5335POPC   C4A67746   2.646  30.589   7.337
 5335POPC   C1B67747   2.926  31.094   6.211
 5335POPC   C2B67748   2.758  30.950   6.604
 5335POPC   C3B67749   2.974  30.843   7.014
 5335POPC   C4B67750   3.108  30.871   7.477
 5336POPC   NC367751  40.162   0.191   5.636
 5336POPC   PO467752  40.019  44.602   5.307
 5336POPC   GL167753  39.951  44.709   5.781
 5336POPC   GL267754  39.754   0.011   5.886
 5336POPC   C1A67755  40.047  44.754   6.259
 5336POPC   D2A67756  40.249  44.756   6.697
 5336POPC   C3A67757  40.064  44.518   7.031
 5336POPC   C4A67758  40.058  44.570   7.486
 5336POPC   C1B67759  39.553  44.985   6.306
 5336POPC   C2B67760  39.637  44.939   6.751
 5336POPC   C3B67761  39.791  44.941   7.181
 5336POPC   C4B67762  40.229  44.975   7.205
 5337POPC   NC367763  27.072   6.604   5.265
 5337POPC   PO467764  26.506   6.834   5.438
 5337POPC   GL167765  26.796   6.656   5.766
 5337POPC   GL267766  27.120   6.439   5.743
 5337POPC   C1A67767  26.662   6.549   6.202
 5337POPC   D2A67768  26.500   6.741   6.601
 5337POPC   C3A67769  26.704   6.567   6.989
 5337POPC   C4A67770  26.889   6.731   7.399
 5337POPC   C1B67771  27.109   6.262   6.159
 5337POPC   C2B67772  26.917   6.307   6.577
 5337POPC   C3B67773  27.094   6.223   6.977
 5337POPC   C4B67774  26.972   6.237   7.391
 5338POPC   NC367775  31.099  32.183   5.437
 5338POPC   PO467776  30.442  32.283   5.328
 5338POPC   GL167777  30.662  32.047   5.667
 5338POPC   GL267778  30.775  32.356   5.799
 5338POPC   C1A67779  30.589  31.970   6.115
 5338POPC   D2A67780  30.426  31.810   6.520
 5338POPC   C3A67781  30.557  32.051   6.855
 5338POPC   C4A67782  30.426  32.297   7.210
 5338POPC   C1B67783  30.899  32.442   6.207
 5338POPC   C2B67784  31.016  32.389   6.642
 5338POPC   C3B67785  30.917  32.351   7.062
 5338POPC   C4B67786  31.084  32.427   7.448
 5339POPC   NC367787  14.987  14.760   5.560
 5339POPC   PO467788  15.364  15.330   5.559
 5339POPC   GL167789  15.103  15.220   5.866
 5339POPC   GL267790  15.216  14.895   5.990
 5339POPC   C1A67791  15.184  15.332   6.273
 5339POPC   D2A67792  15.513  15.311   6.546
 5339POPC   C3A67793  15.338  15.279   6.951
 5339POPC   C4A67794  15.045  15.127   7.257
 5339POPC   C1B67795  15.275  14.845   6.437
 5339POPC   C2B67796  15.428  14.771   6.831
 5339POPC   C3B67797  15.533  14.854   7.222
 5339POPC   C4B67798  15.570  14.999   7.635
 5340POPC   NC367799   6.035  42.426   5.321
 5340POPC   PO467800   5.532  42.007   5.522
 5340POPC   GL167801   5.867  42.210   5.761
 5340POPC   GL267802   6.209  42.047   5.681
 5340POPC   C1A67803   5.811  42.466   6.163
 5340POPC   D2A67804   5.650  42.632   6.557
 5340POPC   C3A67805   5.745  42.414   6.892
 5340POPC   C4A67806   5.910  42.467   7.258
 5340POPC   C1B67807   6.278  42.282   6.092
 5340POPC   C2B67808   6.104  42.219   6.536
 5340POPC   C3B67809   6.179  42.150   6.978
 5340POPC   C4B67810   6.328  42.243   7.428
 5341POPC   NC367811  34.001  10.044   5.409
 5341POPC   PO467812  33.471   9.572   5.491
 5341POPC   GL167813  33.720   9.762   5.769
 5341POPC   GL267814  33.674  10.114   5.825
 5341POPC   C1A67815  33.853   9.624   6.148
 5341POPC   D2A67816  33.687   9.738   6.541
 5341POPC   C3A67817  33.865   9.880   6.914
 5341POPC   C4A67818  33.857   9.735   7.340
 5341POPC   C1B67819  33.856  10.119   6.231
 5341POPC   C2B67820  34.172  10.017   6.527
 5341POPC   C3B67821  34.290  10.203   6.931
 5341POPC   C4B67822  34.118  10.187   7.330
 5342POPC   NC367823  30.795   3.774   5.377
 5342POPC   PO467824  30.289   3.249   5.426
 5342POPC   GL167825  30.631   3.409   5.752
 5342POPC   GL267826  30.472   3.791   5.766
 5342POPC   C1A67827  30.880   3.261   6.206
 5342POPC   D2A67828  31.006   3.327   6.697
 5342POPC   C3A67829  30.674   3.218   7.042
 5342POPC   C4A67830  30.601   3.316   7.519
 5342POPC   C1B67831  30.705   3.716   6.138
 5342POPC   C2B67832  30.585   3.576   6.564
 5342POPC   C3B67833  30.603   3.717   7.002
 5342POPC   C4B67834  30.435   3.809   7.404
 5343POPC   NC367835  32.321  23.849   5.624
 5343POPC   PO467836  31.874  23.357   5.475
 5343POPC   GL167837  32.142  23.413   5.887
 5343POPC   GL267838  32.502  23.423   5.929
 5343POPC   C1A67839  32.240  23.366   6.363
 5343POPC   D2A67840  32.321  23.524   6.793
 5343POPC   C3A67841  32.006  23.767   6.982
 5343POPC   C4A67842  31.961  24.094   7.299
 5343POPC   C1B67843  32.604  23.735   6.281
 5343POPC   C2B67844  32.419  24.002   6.626
 5343POPC   C3B67845  32.463  24.001   7.087
 5343POPC   C4B67846  32.794  23.817   7.328
 5344POPC   NC367847  22.441  28.891   5.665
 5344POPC   PO467848  22.191  29.497   5.490
 5344POPC   GL167849  22.217  29.328   5.865
 5344POPC   GL267850  22.569  29.374   5.868
 5344POPC   C1A67851  22.022  29.081   6.203
 5344POPC   D2A67852  21.999  29.002   6.632
 5344POPC   C3A67853  21.739  29.060   6.942
 5344POPC   C4A67854  21.767  29.033   7.352
 5344POPC   C1B67855  22.593  29.291   6.291
 5344POPC   C2B67856  22.489  28.975   6.544
 5344POPC   C3B67857  22.392  29.024   6.980
 5344POPC   C4B67858  22.438  29.382   7.234
 5345POPC   NC367859  30.485  11.022   5.633
 5345POPC   PO467860  30.726  10.490   5.289
 5345POPC   GL167861  30.641  10.512   5.757
 5345POPC   GL267862  30.555  10.197   5.973
 5345POPC   C1A67863  30.857  10.551   6.169
 5345POPC   D2A67864  30.720  10.596   6.596
 5345POPC   C3A67865  30.987  10.797   6.876
 5345POPC   C4A67866  30.802  11.025   7.188
 5345POPC   C1B67867  30.598  10.135   6.426
 5345POPC   C2B67868  30.699  10.150   6.872
 5345POPC   C3B67869  30.456  10.269   7.231
 5345POPC   C4B67870  30.335  10.510   7.611
 5346POPC   NC367871  14.789   2.730   5.577
 5346POPC   PO467872  14.528   2.256   5.230
 5346POPC   GL167873  14.399   2.404   5.727
 5346POPC   GL267874  14.341   2.795   5.830
 5346POPC   C1A67875  14.513   2.506   6.202
 5346POPC   D2A67876  14.327   2.771   6.542
 5346POPC   C3A67877  14.465   2.780   6.972
 5346POPC   C4A67878  14.262   2.690   7.342
 5346POPC   C1B67879  14.568   3.042   6.175
 5346POPC   C2B67880  14.710   3.097   6.613
 5346POPC   C3B67881  14.633   3.265   7.037
 5346POPC   C4B67882  14.614   3.072   7.446
 5347POPC   NC367883  32.626  32.946   5.468
 5347POPC   PO467884  32.023  32.706   5.370
 5347POPC   GL167885  32.169  32.825   5.776
 5347POPC   GL267886  32.230  33.183   5.795
 5347POPC   C1A67887  32.131  32.834   6.231
 5347POPC   D2A67888  32.173  33.055   6.622
 5347POPC   C3A67889  32.166  32.804   6.963
 5347POPC   C4A67890  32.033  32.707   7.324
 5347POPC   C1B67891  32.461  33.249   6.206
 5347POPC   C2B67892  32.591  33.368   6.653
 5347POPC   C3B67893  32.461  33.204   7.076
 5347POPC   C4B67894  32.248  33.147   7.482
 5348POPC   NC367895   0.048   3.613   5.403
 5348POPC   PO467896  44.357   3.304   5.463
 5348POPC   GL167897  44.566   3.540   5.785
 5348POPC   GL267898  44.887   3.690   5.871
 5348POPC   C1A67899  44.518   3.645   6.231
 5348POPC   D2A67900  44.429   3.361   6.576
 5348POPC   C3A67901  44.492   3.460   7.009
 5348POPC   C4A67902  44.455   3.100   7.250
 5348POPC   C1B67903  44.941   3.946   6.262
 5348POPC   C2B67904  44.787   3.795   6.660
 5348POPC   C3B67905  44.880   3.791   7.087
 5348POPC   C4B67906  44.974   4.096   7.381
 5349POPC   NC367907  15.639  29.000   5.334
 5349POPC   PO467908  16.224  29.258   5.340
 5349POPC   GL167909  15.989  29.230   5.712
 5349POPC   GL267910  16.258  29.408   5.867
 5349POPC   C1A67911  15.836  29.203   6.169
 5349POPC   D2A67912  15.702  28.967   6.563
 5349POPC   C3A67913  15.777  29.169   6.979
 5349POPC   C4A67914  15.844  29.032   7.409
 5349POPC   C1B67915  16.326  29.341   6.312
 5349POPC   C2B67916  16.211  29.076   6.690
 5349POPC   C3B67917  16.279  29.137   7.144
 5349POPC   C4B67918  16.398  29.155   7.599
 5350POPC   NC367919  34.932  15.624   5.140
 5350POPC   PO467920  35.226  16.069   5.460
 5350POPC   GL167921  35.183  16.209   5.838
 5350POPC   GL267922  35.523  16.086   5.961
 5350POPC   C1A67923  35.134  16.159   6.262
 5350POPC   D2A67924  35.408  16.107   6.574
 5350POPC   C3A67925  35.206  16.186   6.925
 5350POPC   C4A67926  35.332  16.374   7.278
 5350POPC   C1B67927  35.663  15.791   6.269
 5350POPC   C2B67928  35.869  15.879   6.646
 5350POPC   C3B67929  35.715  16.008   7.000
 5350POPC   C4B67930  35.419  15.867   7.266
 5351POPC   NC367931   3.040  35.637   5.523
 5351POPC   PO467932   2.954  34.993   5.520
 5351POPC   GL167933   2.663  35.166   5.741
 5351POPC   GL267934   2.830  35.421   5.920
 5351POPC   C1A67935   2.564  35.086   6.172
 5351POPC   D2A67936   2.884  35.318   6.437
 5351POPC   C3A67937   2.782  35.292   6.873
 5351POPC   C4A67938   2.684  35.054   7.243
 5351POPC   C1B67939   2.525  35.617   6.200
 5351POPC   C2B67940   2.643  35.769   6.602
 5351POPC   C3B67941   2.789  35.780   7.036
 5351POPC   C4B67942   2.989  35.492   7.299
 5352POPC   NC367943  40.783  33.393   5.532
 5352POPC   PO467944  40.660  34.015   5.369
 5352POPC   GL167945  40.934  33.883   5.685
 5352POPC   GL267946  40.638  33.785   5.855
 5352POPC   C1A67947  41.094  33.909   6.119
 5352POPC   D2A67948  40.878  33.851   6.507
 5352POPC   C3A67949  40.983  34.035   6.926
 5352POPC   C4A67950  41.052  33.862   7.312
 5352POPC   C1B67951  40.437  33.721   6.249
 5352POPC   C2B67952  40.487  33.577   6.692
 5352POPC   C3B67953  40.577  33.715   7.112
 5352POPC   C4B67954  40.525  34.030   7.430
 5353POPC   NC367955  25.487  42.253   5.579
 5353POPC   PO467956  24.933  42.569   5.379
 5353POPC   GL167957  25.155  42.532   5.809
 5353POPC   GL267958  25.131  42.190   5.928
 5353POPC   C1A67959  25.407  42.512   6.190
 5353POPC   D2A67960  25.228  42.368   6.559
 5353POPC   C3A67961  25.290  42.538   6.970
 5353POPC   C4A67962  25.605  42.499   7.246
 5353POPC   C1B67963  25.427  42.007   6.211
 5353POPC   C2B67964  25.402  41.891   6.618
 5353POPC   C3B67965  25.232  42.028   6.969
 5353POPC   C4B67966  25.247  41.771   7.295
 5354POPC   NC367967   3.092  25.847   5.380
 5354POPC   PO467968   2.444  26.092   5.412
 5354POPC   GL167969   2.761  26.068   5.751
 5354POPC   GL267970   2.680  25.710   5.689
 5354POPC   C1A67971   2.854  26.194   6.210
 5354POPC   D2A67972   2.725  26.260   6.649
 5354POPC   C3A67973   2.912  26.205   7.053
 5354POPC   C4A67974   2.587  26.213   7.368
 5354POPC   C1B67975   2.698  25.704   6.137
 5354POPC   C2B67976   2.902  25.789   6.542
 5354POPC   C3B67977   2.667  25.806   6.928
 5354POPC   C4B67978   2.755  25.741   7.362
 5355POPC   NC367979   4.534  34.013   4.956
 5355POPC   PO467980   4.256  33.803   5.497
 5355POPC   GL167981   4.211  33.624   5.861
 5355POPC   GL267982   4.579  33.525   5.792
 5355POPC   C1A67983   4.023  33.826   6.236
 5355POPC   D2A67984   3.984  34.012   6.669
 5355POPC   C3A67985   4.102  33.749   7.041
 5355POPC   C4A67986   4.128  33.759   7.509
 5355POPC   C1B67987   4.532  33.766   6.198
 5355POPC   C2B67988   4.374  33.639   6.579
 5355POPC   C3B67989   4.613  33.569   6.952
 5355POPC   C4B67990   4.557  33.851   7.281
 5356POPC   NC367991   2.154  37.193   5.531
 5356POPC   PO467992   1.798  36.522   5.410
 5356POPC   GL167993   1.835  36.818   5.760
 5356POPC   GL267994   2.191  36.772   5.828
 5356POPC   C1A67995   1.859  36.871   6.223
 5356POPC   D2A67996   1.767  37.077   6.607
 5356POPC   C3A67997   1.831  36.799   6.955
 5356POPC   C4A67998   2.217  36.688   7.181
 5356POPC   C1B67999   2.330  37.065   6.166
 5356POPC   C2B68000   2.268  36.950   6.595
 5356POPC   C3B68001   2.181  37.172   6.950
 5356POPC   C4B68002   2.448  37.251   7.247
 5357POPC   NC368003  13.723  31.737   5.442
 5357POPC   PO468004  13.234  31.258   5.460
 5357POPC   GL168005  13.355  31.550   5.798
 5357POPC   GL268006  13.719  31.538   5.914
 5357POPC   C1A68007  13.354  31.454   6.255
 5357POPC   D2A68008  13.559  31.550   6.644
 5357POPC   C3A68009  13.547  31.184   6.908
 5357POPC   C4A68010  13.205  31.150   7.186
 5357POPC   C1B68011  13.990  31.610   6.311
 5357POPC   C2B68012  13.968  31.839   6.718
 5357POPC   C3B68013  13.702  31.816   7.108
 5357POPC   C4B68014  13.855  31.744   7.541
 5358POPC   NC368015  37.474   1.911   5.612
 5358POPC   PO468016  37.786   2.440   5.405
 5358POPC   GL168017  37.821   2.215   5.848
 5358POPC   GL268018  37.859   1.840   5.903
 5358POPC   C1A68019  37.730   2.071   6.309
 5358POPC   D2A68020  37.707   1.815   6.618
 5358POPC   C3A68021  37.661   2.020   6.946
 5358POPC   C4A68022  37.641   1.935   7.311
 5358POPC   C1B68023  37.509   1.609   6.185
 5358POPC   C2B68024  37.252   1.595   6.542
 5358POPC   C3B68025  37.398   1.543   6.938
 5358POPC   C4B68026  37.223   1.636   7.312
 5359POPC   NC368027   7.348  29.621   5.255
 5359POPC   PO468028   7.692  29.130   5.176
 5359POPC   GL168029   7.395  29.229   5.664
 5359POPC   GL268030   7.548  29.303   6.002
 5359POPC   C1A68031   7.130  29.121   6.139
 5359POPC   D2A68032   7.031  29.284   6.597
 5359POPC   C3A68033   7.156  29.100   7.023
 5359POPC   C4A68034   7.257  28.890   7.445
 5359POPC   C1B68035   7.792  29.343   6.370
 5359POPC   C2B68036   7.569  29.269   6.739
 5359POPC   C3B68037   7.665  29.134   7.139
 5359POPC   C4B68038   7.660  29.181   7.572
 5360POPC   NC368039  23.429  33.855   5.282
 5360POPC   PO468040  23.650  33.223   5.319
 5360POPC   GL168041  23.772  33.612   5.648
 5360POPC   GL268042  23.475  33.805   5.773
 5360POPC   C1A68043  23.876  33.917   6.070
 5360POPC   D2A68044  23.836  34.081   6.555
 5360POPC   C3A68045  23.580  33.820   6.883
 5360POPC   C4A68046  23.363  33.592   7.254
 5360POPC   C1B68047  23.351  34.143   6.017
 5360POPC   C2B68048  23.321  34.169   6.451
 5360POPC   C3B68049  23.308  34.255   6.868
 5360POPC   C4B68050  23.432  34.123   7.276
 5361POPC   NC368051  16.872  44.165   5.287
 5361POPC   PO468052  16.345  43.963   5.617
 5361POPC   GL168053  16.798  43.947   5.762
 5361POPC   GL268054  16.974  43.611   5.756
 5361POPC   C1A68055  16.991  43.958   6.168
 5361POPC   D2A68056  16.807  44.118   6.525
 5361POPC   C3A68057  16.814  43.963   6.903
 5361POPC   C4A68058  17.046  43.796   7.178
 5361POPC   C1B68059  16.729  43.521   6.160
 5361POPC   C2B68060  16.842  43.541   6.610
 5361POPC   C3B68061  16.653  43.508   7.026
 5361POPC   C4B68062  16.400  43.825   7.255
 5362POPC   NC368063  12.437  10.313   5.427
 5362POPC   PO468064  11.939   9.883   5.450
 5362POPC   GL168065  12.129   9.887   5.847
 5362POPC   GL268066  12.374  10.147   5.921
 5362POPC   C1A68067  12.024   9.709   6.239
 5362POPC   D2A68068  11.904   9.917   6.606
 5362POPC   C3A68069  11.842   9.663   6.945
 5362POPC   C4A68070  11.805   9.510   7.355
 5362POPC   C1B68071  12.549   9.841   6.221
 5362POPC   C2B68072  12.464   9.571   6.572
 5362POPC   C3B68073  12.351   9.653   6.985
 5362POPC   C4B68074  12.165   9.886   7.315
 5363POPC   NC368075  27.372   4.453   5.398
 5363POPC   PO468076  27.783   3.873   5.274
 5363POPC   GL168077  27.557   4.060   5.652
 5363POPC   GL268078  27.181   4.034   5.720
 5363POPC   C1A68079  27.637   4.078   6.097
 5363POPC   D2A68080  27.909   4.288   6.393
 5363POPC   C3A68081  27.691   4.348   6.747
 5363POPC   C4A68082  27.766   4.297   7.163
 5363POPC   C1B68083  27.187   4.345   6.075
 5363POPC   C2B68084  27.210   4.254   6.527
 5363POPC   C3B68085  27.302   4.089   6.946
 5363POPC   C4B68086  27.302   4.178   7.386
 5364POPC   NC368087  17.435  27.265   5.483
 5364POPC   PO468088  17.444  26.576   5.329
 5364POPC   GL168089  17.502  26.576   5.740
 5364POPC   GL268090  17.430  26.903   5.839
 5364POPC   C1A68091  17.702  26.544   6.136
 5364POPC   D2A68092  17.600  26.700   6.548
 5364POPC   C3A68093  17.732  26.474   6.918
 5364POPC   C4A68094  17.512  26.597   7.258
 5364POPC   C1B68095  17.682  27.079   6.163
 5364POPC   C2B68096  17.624  27.213   6.572
 5364POPC   C3B68097  17.783  27.001   6.927
 5364POPC   C4B68098  17.642  27.119   7.309
 5365POPC   NC368099   2.957  32.396   5.186
 5365POPC   PO468100   2.572  32.129   5.627
 5365POPC   GL168101   2.954  32.335   5.782
 5365POPC   GL268102   3.018  32.039   5.921
 5365POPC   C1A68103   3.074  32.458   6.237
 5365POPC   D2A68104   2.729  32.487   6.560
 5365POPC   C3A68105   2.768  32.346   6.979
 5365POPC   C4A68106   2.685  32.506   7.390
 5365POPC   C1B68107   2.734  32.079   6.263
 5365POPC   C2B68108   2.567  31.906   6.617
 5365POPC   C3B68109   2.656  31.766   7.004
 5365POPC   C4B68110   3.024  31.903   7.179
 5366POPC   NC368111  14.945  23.262   5.536
 5366POPC   PO468112  15.150  22.748   5.159
 5366POPC   GL168113  15.254  22.811   5.689
 5366POPC   GL268114  15.405  23.151   5.794
 5366POPC   C1A68115  15.047  22.761   6.173
 5366POPC   D2A68116  14.873  22.749   6.613
 5366POPC   C3A68117  15.129  23.006   6.876
 5366POPC   C4A68118  15.433  23.106   7.185
 5366POPC   C1B68119  15.178  23.272   6.181
 5366POPC   C2B68120  15.002  23.435   6.556
 5366POPC   C3B68121  14.687  23.278   6.811
 5366POPC   C4B68122  14.642  22.938   7.095
 5367POPC   NC368123  31.895  14.566   5.491
 5367POPC   PO468124  32.416  14.136   5.347
 5367POPC   GL168125  32.239  14.297   5.761
 5367POPC   GL268126  31.917  14.098   5.790
 5367POPC   C1A68127  32.320  14.575   6.145
 5367POPC   D2A68128  32.573  14.637   6.550
 5367POPC   C3A68129  32.442  14.456   6.969
 5367POPC   C4A68130  32.243  14.637   7.353
 5367POPC   C1B68131  31.924  14.120   6.243
 5367POPC   C2B68132  32.085  14.397   6.574
 5367POPC   C3B68133  31.935  14.451   6.989
 5367POPC   C4B68134  31.978  14.220   7.362
 5368POPC   NC368135  19.286  13.686   5.414
 5368POPC   PO468136  18.706  13.373   5.556
 5368POPC   GL168137  18.984  13.639   5.849
 5368POPC   GL268138  19.266  13.900   5.850
 5368POPC   C1A68139  18.921  13.880   6.237
 5368POPC   D2A68140  18.697  13.847   6.644
 5368POPC   C3A68141  18.897  13.590   6.940
 5368POPC   C4A68142  19.167  13.575   7.297
 5368POPC   C1B68143  19.422  13.730   6.200
 5368POPC   C2B68144  19.261  13.721   6.596
 5368POPC   C3B68145  19.351  13.899   6.966
 5368POPC   C4B68146  19.606  13.829   7.373
 5369POPC   NC368147   7.047  40.675   5.375
 5369POPC   PO468148   7.670  40.858   5.491
 5369POPC   GL168149   7.311  40.831   5.813
 5369POPC   GL268150   7.362  40.491   5.824
 5369POPC   C1A68151   7.117  40.656   6.245
 5369POPC   D2A68152   7.088  40.424   6.685
 5369POPC   C3A68153   7.326  40.620   7.017
 5369POPC   C4A68154   7.539  41.012   7.205
 5369POPC   C1B68155   7.727  40.653   6.133
 5369POPC   C2B68156   7.913  40.544   6.590
 5369POPC   C3B68157   7.824  40.514   7.080
 5369POPC   C4B68158   7.574  40.556   7.464
 5370POPC   NC368159  25.584  31.892   5.384
 5370POPC   PO468160  25.079  32.314   5.508
 5370POPC   GL168161  25.313  32.133   5.830
 5370POPC   GL268162  25.311  31.793   5.806
 5370POPC   C1A68163  25.447  32.191   6.265
 5370POPC   D2A68164  25.425  32.474   6.625
 5370POPC   C3A68165  25.366  32.301   7.041
 5370POPC   C4A68166  25.284  32.455   7.490
 5370POPC   C1B68167  25.049  31.834   6.159
 5370POPC   C2B68168  25.085  31.949   6.564
 5370POPC   C3B68169  25.107  31.842   7.008
 5370POPC   C4B68170  25.264  31.952   7.405
 5371POPC   NC368171  18.414  27.663   5.009
 5371POPC   PO468172  17.939  27.450   5.518
 5371POPC   GL168173  18.204  27.669   5.799
 5371POPC   GL268174  17.954  27.846   5.965
 5371POPC   C1A68175  18.408  27.655   6.196
 5371POPC   D2A68176  18.618  27.436   6.488
 5371POPC   C3A68177  18.497  27.600   6.862
 5371POPC   C4A68178  18.384  27.539   7.258
 5371POPC   C1B68179  17.867  27.573   6.269
 5371POPC   C2B68180  18.039  27.502   6.658
 5371POPC   C3B68181  17.935  27.462   7.075
 5371POPC   C4B68182  18.001  27.409   7.556
 5372POPC   NC368183  15.731  28.020   5.388
 5372POPC   PO468184  16.088  27.389   5.495
 5372POPC   GL168185  15.881  27.678   5.789
 5372POPC   GL268186  16.210  27.753   5.934
 5372POPC   C1A68187  15.793  27.662   6.256
 5372POPC   D2A68188  16.013  27.422   6.621
 5372POPC   C3A68189  15.774  27.449   6.991
 5372POPC   C4A68190  15.557  27.798   7.127
 5372POPC   C1B68191  16.246  27.824   6.374
 5372POPC   C2B68192  16.142  27.875   6.811
 5372POPC   C3B68193  16.232  27.598   7.172
 5372POPC   C4B68194  16.299  27.731   7.590
 5373POPC   NC368195   5.794  39.567   5.280
 5373POPC   PO468196   5.369  40.164   5.221
 5373POPC   GL168197   5.556  39.979   5.607
 5373POPC   GL268198   5.903  40.104   5.673
 5373POPC   C1A68199   5.616  39.895   6.059
 5373POPC   D2A68200   5.691  40.134   6.461
 5373POPC   C3A68201   5.912  39.937   6.816
 5373POPC   C4A68202   5.766  39.820   7.223
 5373POPC   C1B68203   6.083  40.115   6.106
 5373POPC   C2B68204   6.161  40.353   6.497
 5373POPC   C3B68205   6.278  40.376   6.931
 5373POPC   C4B68206   6.176  40.131   7.264
 5374POPC   NC368207   5.160   4.201   5.331
 5374POPC   PO468208   4.908   4.706   5.548
 5374POPC   GL168209   5.259   4.549   5.799
 5374POPC   GL268210   5.224   4.206   5.819
 5374POPC   C1A68211   5.431   4.443   6.216
 5374POPC   D2A68212   5.203   4.325   6.590
 5374POPC   C3A68213   5.252   4.514   7.006
 5374POPC   C4A68214   4.897   4.576   7.257
 5374POPC   C1B68215   5.128   3.989   6.206
 5374POPC   C2B68216   5.223   3.810   6.604
 5374POPC   C3B68217   5.255   4.003   6.996
 5374POPC   C4B68218   5.183   4.189   7.421
 5375POPC   NC368219  12.201   6.700   5.128
 5375POPC   PO468220  11.880   6.937   5.674
 5375POPC   GL168221  12.051   6.558   5.951
 5375POPC   GL268222  12.353   6.413   5.866
 5375POPC   C1A68223  12.282   6.619   6.346
 5375POPC   D2A68224  12.287   6.412   6.725
 5375POPC   C3A68225  12.132   6.734   6.960
 5375POPC   C4A68226  12.082   6.960   7.333
 5375POPC   C1B68227  12.131   6.152   6.247
 5375POPC   C2B68228  11.974   6.031   6.666
 5375POPC   C3B68229  11.896   6.264   7.067
 5375POPC   C4B68230  12.177   6.465   7.393
 5376POPC   NC368231  19.248  31.383   5.464
 5376POPC   PO468232  19.024  31.994   5.410
 5376POPC   GL168233  18.930  31.696   5.792
 5376POPC   GL268234  19.010  31.332   5.917
 5376POPC   C1A68235  18.961  31.701   6.259
 5376POPC   D2A68236  18.856  31.619   6.665
 5376POPC   C3A68237  18.755  31.265   6.872
 5376POPC   C4A68238  18.858  31.269   7.295
 5376POPC   C1B68239  18.946  31.157   6.352
 5376POPC   C2B68240  19.231  31.191   6.701
 5376POPC   C3B68241  19.329  31.618   6.847
 5376POPC   C4B68242  19.171  31.758   7.234
 5377POPC   NC368243  24.752   0.148   5.491
 5377POPC   PO468244  24.204   0.539   5.602
 5377POPC   GL168245  24.435   0.319   5.891
 5377POPC   GL268246  24.193   0.081   5.949
 5377POPC   C1A68247  24.651   0.466   6.269
 5377POPC   D2A68248  24.886   0.463   6.644
 5377POPC   C3A68249  24.678   0.496   7.016
 5377POPC   C4A68250  24.331   0.467   7.237
 5377POPC   C1B68251  24.148   0.307   6.359
 5377POPC   C2B68252  24.066   0.339   6.818
 5377POPC   C3B68253  24.112   0.001   7.136
 5377POPC   C4B68254  24.235   0.079   7.555
 5378POPC   NC368255  26.821  31.210   5.468
 5378POPC   PO468256  26.715  31.827   5.497
 5378POPC   GL168257  26.897  31.601   5.832
 5378POPC   GL268258  27.083  31.862   6.001
 5378POPC   C1A68259  26.790  31.287   6.183
 5378POPC   D2A68260  26.838  31.159   6.642
 5378POPC   C3A68261  27.172  31.433   6.803
 5378POPC   C4A68262  27.137  31.719   7.160
 5378POPC   C1B68263  26.763  31.779   6.342
 5378POPC   C2B68264  26.482  31.507   6.622
 5378POPC   C3B68265  26.493  31.297   7.052
 5378POPC   C4B68266  26.647  31.411   7.495
 5379POPC   NC368267   4.771  42.079   5.497
 5379POPC   PO468268   5.115  41.465   5.437
 5379POPC   GL168269   5.305  41.570   5.821
 5379POPC   GL268270   5.006  41.503   5.935
 5379POPC   C1A68271   5.370  41.758   6.214
 5379POPC   D2A68272   5.486  41.582   6.602
 5379POPC   C3A68273   5.300  41.594   6.976
 5379POPC   C4A68274   5.381  41.729   7.324
 5379POPC   C1B68275   4.891  41.628   6.311
 5379POPC   C2B68276   4.898  41.520   6.698
 5379POPC   C3B68277   4.817  41.853   6.982
 5379POPC   C4B68278   4.607  41.951   7.333
 5380POPC   NC368279  10.175  39.492   5.371
 5380POPC   PO468280  10.710  38.988   5.370
 5380POPC   GL168281  10.422  39.055   5.703
 5380POPC   GL268282  10.489  39.381   5.773
 5380POPC   C1A68283  10.461  39.018   6.150
 5380POPC   D2A68284  10.424  39.314   6.467
 5380POPC   C3A68285  10.635  39.200   6.846
 5380POPC   C4A68286  10.503  39.393   7.236
 5380POPC   C1B68287  10.766  39.525   6.102
 5380POPC   C2B68288  10.893  39.535   6.547
 5380POPC   C3B68289  10.842  39.666   6.951
 5380POPC   C4B68290  10.953  39.582   7.389
 5381POPC   NC368291  25.334   9.499   5.428
 5381POPC   PO468292  25.081  10.176   5.397
 5381POPC   GL168293  25.298  10.048   5.749
 5381POPC   GL268294  25.044   9.796   5.837
 5381POPC   C1A68295  25.556   9.963   6.104
 5381POPC   D2A68296  25.487   9.650   6.415
 5381POPC   C3A68297  25.287   9.707   6.809
 5381POPC   C4A68298  25.293   9.532   7.231
 5381POPC   C1B68299  24.984   9.621   6.270
 5381POPC   C2B68300  24.790   9.772   6.664
 5381POPC   C3B68301  24.872   9.818   7.106
 5381POPC   C4B68302  24.768   9.635   7.495
 5382POPC   NC368303  34.745   2.034   5.376
 5382POPC   PO468304  34.071   1.816   5.410
 5382POPC   GL168305  34.423   1.769   5.682
 5382POPC   GL268306  34.421   2.144   5.748
 5382POPC   C1A68307  34.481   1.812   6.139
 5382POPC   D2A68308  34.304   1.900   6.546
 5382POPC   C3A68309  34.527   1.858   6.899
 5382POPC   C4A68310  34.503   1.698   7.303
 5382POPC   C1B68311  34.566   2.417   6.070
 5382POPC   C2B68312  34.589   2.327   6.477
 5382POPC   C3B68313  34.603   2.378   6.882
 5382POPC   C4B68314  34.566   2.187   7.311
 5383POPC   NC368315  42.164  26.171   5.220
 5383POPC   PO468316  42.614  25.766   5.454
 5383POPC   GL168317  42.375  26.094   5.691
 5383POPC   GL268318  42.644  26.229   5.804
 5383POPC   C1A68319  42.237  26.142   6.145
 5383POPC   D2A68320  42.208  25.749   6.428
 5383POPC   C3A68321  42.278  25.742   6.887
 5383POPC   C4A68322  42.097  25.949   7.259
 5383POPC   C1B68323  42.721  25.967   6.163
 5383POPC   C2B68324  42.599  26.060   6.581
 5383POPC   C3B68325  42.394  26.226   6.933
 5383POPC   C4B68326  42.610  26.066   7.262
 5384POPC   NC368327  25.247  40.570   5.457
 5384POPC   PO468328  25.140  41.184   5.253
 5384POPC   GL168329  25.162  41.008   5.716
 5384POPC   GL268330  24.946  40.730   5.870
 5384POPC   C1A68331  25.286  41.023   6.143
 5384POPC   D2A68332  25.360  40.723   6.450
 5384POPC   C3A68333  25.322  40.838   6.880
 5384POPC   C4A68334  25.416  40.691   7.299
 5384POPC   C1B68335  24.864  40.783   6.332
 5384POPC   C2B68336  24.935  40.529   6.708
 5384POPC   C3B68337  24.940  40.529   7.163
 5384POPC   C4B68338  25.203  40.259   7.445
 5385POPC   NC368339  18.994  39.529   5.294
 5385POPC   PO468340  19.335  38.918   5.447
 5385POPC   GL168341  19.033  39.133   5.789
 5385POPC   GL268342  18.929  39.494   5.802
 5385POPC   C1A68343  18.985  39.124   6.261
 5385POPC   D2A68344  18.983  39.305   6.674
 5385POPC   C3A68345  18.757  39.040   6.982
 5385POPC   C4A68346  18.960  38.938   7.335
 5385POPC   C1B68347  19.067  39.639   6.218
 5385POPC   C2B68348  19.419  39.658   6.513
 5385POPC   C3B68349  19.396  39.507   6.934
 5385POPC   C4B68350  19.041  39.428   7.183
 5386POPC   NC368351   9.171   7.316   5.529
 5386POPC   PO468352   8.550   7.224   5.450
 5386POPC   GL168353   8.592   7.351   5.855
 5386POPC   GL268354   8.839   7.622   5.894
 5386POPC   C1A68355   8.709   7.250   6.279
 5386POPC   D2A68356   8.790   7.523   6.634
 5386POPC   C3A68357   8.794   7.397   7.072
 5386POPC   C4A68358   8.913   7.397   7.533
 5386POPC   C1B68359   9.186   7.506   6.191
 5386POPC   C2B68360   9.212   7.217   6.526
 5386POPC   C3B68361   9.282   7.358   6.924
 5386POPC   C4B68362   9.244   7.649   7.254
 5387POPC   NC368363  10.292  13.080   5.559
 5387POPC   PO468364  10.872  12.865   5.443
 5387POPC   GL168365  10.702  12.732   5.829
 5387POPC   GL268366  10.372  12.825   5.986
 5387POPC   C1A68367  10.772  12.749   6.269
 5387POPC   D2A68368  10.426  12.889   6.568
 5387POPC   C3A68369  10.557  12.908   6.981
 5387POPC   C4A68370  10.631  12.948   7.419
 5387POPC   C1B68371  10.575  13.220   6.228
 5387POPC   C2B68372  10.590  13.410   6.692
 5387POPC   C3B68373  10.373  13.369   7.139
 5387POPC   C4B68374  10.383  13.349   7.630
 5388POPC   NC368375   6.943   0.159   5.751
 5388POPC   PO468376   6.455   0.431   5.386
 5388POPC   GL168377   6.471   0.379   5.830
 5388POPC   GL268378   6.319   0.038   5.898
 5388POPC   C1A68379   6.541   0.643   6.237
 5388POPC   D2A68380   6.649   0.770   6.685
 5388POPC   C3A68381   6.554   0.459   7.019
 5388POPC   C4A68382   6.301   0.070   7.073
 5388POPC   C1B68383   6.512   0.131   6.281
 5388POPC   C2B68384   6.836   0.299   6.546
 5388POPC   C3B68385   6.971   0.081   6.887
 5388POPC   C4B68386   6.862   0.097   7.284
 5389POPC   NC368387  22.751  25.939   5.444
 5389POPC   PO468388  23.037  26.510   5.421
 5389POPC   GL168389  22.923  26.275   5.802
 5389POPC   GL268390  22.560  26.234   5.838
 5389POPC   C1A68391  23.000  25.936   6.109
 5389POPC   D2A68392  23.125  25.592   6.396
 5389POPC   C3A68393  23.183  25.675   6.842
 5389POPC   C4A68394  23.131  26.036   7.138
 5389POPC   C1B68395  22.539  26.076   6.285
 5389POPC   C2B68396  22.783  25.943   6.645
 5389POPC   C3B68397  22.645  25.886   7.072
 5389POPC   C4B68398  22.461  26.169   7.355
 5390POPC   NC368399  27.225  39.288   5.260
 5390POPC   PO468400  26.664  39.523   5.561
 5390POPC   GL168401  26.512  39.369   5.950
 5390POPC   GL268402  26.612  39.012   6.016
 5390POPC   C1A68403  26.570  39.350   6.404
 5390POPC   D2A68404  26.908  39.346   6.696
 5390POPC   C3A68405  26.787  39.236   7.094
 5390POPC   C4A68406  26.841  39.495   7.395
 5390POPC   C1B68407  27.001  39.010   6.301
 5390POPC   C2B68408  27.347  39.091   6.585
 5390POPC   C3B68409  27.319  39.202   7.004
 5390POPC   C4B68410  27.165  38.923   7.297
 5391POPC   NC368411  17.445  14.691   5.312
 5391POPC   PO468412  17.835  14.218   5.674
 5391POPC   GL168413  17.597  14.407   5.939
 5391POPC   GL268414  17.515  14.659   5.814
 5391POPC   C1A68415  17.303  14.581   6.259
 5391POPC   D2A68416  17.344  14.610   6.699
 5391POPC   C3A68417  17.544  14.238   6.829
 5391POPC   C4A68418  17.810  14.169   7.181
 5391POPC   C1B68419  17.799  14.790   6.201
 5391POPC   C2B68420  18.060  14.740   6.598
 5391POPC   C3B68421  17.805  14.690   6.969
 5391POPC   C4B68422  17.438  14.549   7.224
 5392POPC   NC368423   3.514  17.551   5.050
 5392POPC   PO468424   3.806  17.839   5.603
 5392POPC   GL168425   3.684  17.500   5.895
 5392POPC   GL268426   3.366  17.539   5.992
 5392POPC   C1A68427   3.724  17.534   6.359
 5392POPC   D2A68428   3.437  17.705   6.671
 5392POPC   C3A68429   3.527  17.558   7.083
 5392POPC   C4A68430   3.889  17.628   7.322
 5392POPC   C1B68431   3.104  17.493   6.322
 5392POPC   C2B68432   2.909  17.695   6.659
 5392POPC   C3B68433   3.034  17.448   6.983
 5392POPC   C4B68434   3.119  17.341   7.386
 5393POPC   NC368435  15.262  16.604   5.565
 5393POPC   PO468436  14.917  17.168   5.511
 5393POPC   GL168437  15.051  16.988   5.845
 5393POPC   GL268438  15.398  16.992   5.842
 5393POPC   C1A68439  14.984  16.710   6.174
 5393POPC   D2A68440  15.137  16.589   6.531
 5393POPC   C3A68441  14.929  16.603   6.868
 5393POPC   C4A68442  14.957  16.883   7.193
 5393POPC   C1B68443  15.512  16.776   6.229
 5393POPC   C2B68444  15.632  16.616   6.662
 5393POPC   C3B68445  15.457  16.751   7.079
 5393POPC   C4B68446  15.644  17.010   7.393
 5394POPC   NC368447  19.888  36.427   5.120
 5394POPC   PO468448  20.066  35.992   5.642
 5394POPC   GL168449  19.837  36.256   5.875
 5394POPC   GL268450  19.692  36.540   5.729
 5394POPC   C1A68451  19.752  36.167   6.280
 5394POPC   D2A68452  19.872  36.315   6.655
 5394POPC   C3A68453  20.014  35.981   6.881
 5394POPC   C4A68454  19.986  36.187   7.214
 5394POPC   C1B68455  19.429  36.523   6.138
 5394POPC   C2B68456  19.358  36.389   6.573
 5394POPC   C3B68457  19.502  36.244   7.004
 5394POPC   C4B68458  19.422  36.520   7.355
 5395POPC   NC368459  14.594  44.326   5.391
 5395POPC   PO468460  13.992  44.056   5.617
 5395POPC   GL168461  14.245  43.855   5.925
 5395POPC   GL268462  14.243  43.481   5.940
 5395POPC   C1A68463  14.191  43.743   6.356
 5395POPC   D2A68464  14.402  43.738   6.734
 5395POPC   C3A68465  14.056  43.752   6.950
 5395POPC   C4A68466  14.118  44.020   7.248
 5395POPC   C1B68467  14.647  43.605   6.165
 5395POPC   C2B68468  14.888  43.562   6.555
 5395POPC   C3B68469  14.738  43.423   6.965
 5395POPC   C4B68470  14.457  43.642   7.270
 5396POPC   NC368471   8.444  41.789   5.438
 5396POPC   PO468472   7.764  41.507   5.485
 5396POPC   GL168473   8.029  41.647   5.820
 5396POPC   GL268474   8.312  41.454   5.807
 5396POPC   C1A68475   8.064  41.514   6.274
 5396POPC   D2A68476   7.822  41.411   6.651
 5396POPC   C3A68477   8.039  41.500   7.017
 5396POPC   C4A68478   7.883  41.714   7.330
 5396POPC   C1B68479   8.544  41.290   6.163
 5396POPC   C2B68480   8.581  41.531   6.547
 5396POPC   C3B68481   8.564  41.559   6.988
 5396POPC   C4B68482   8.385  41.569   7.411
 5397POPC   NC368483  23.138  14.811   5.643
 5397POPC   PO468484  22.771  14.253   5.489
 5397POPC   GL168485  22.773  14.201   5.908
 5397POPC   GL268486  22.813  14.549   5.982
 5397POPC   C1A68487  22.838  14.188   6.358
 5397POPC   D2A68488  22.675  14.158   6.756
 5397POPC   C3A68489  22.739  14.456   7.046
 5397POPC   C4A68490  23.030  14.444   7.350
 5397POPC   C1B68491  23.132  14.590   6.329
 5397POPC   C2B68492  23.194  14.511   6.802
 5397POPC   C3B68493  23.311  14.840   7.165
 5397POPC   C4B68494  23.319  15.190   7.514
 5398POPC   NC368495  42.629  14.266   5.402
 5398POPC   PO468496  41.942  14.285   5.669
 5398POPC   GL168497  42.334  14.309   5.831
 5398POPC   GL268498  42.595  14.573   5.825
 5398POPC   C1A68499  42.478  14.217   6.233
 5398POPC   D2A68500  42.456  13.934   6.561
 5398POPC   C3A68501  42.514  14.195   6.903
 5398POPC   C4A68502  42.456  14.228   7.315
 5398POPC   C1B68503  42.335  14.706   6.195
 5398POPC   C2B68504  42.308  14.574   6.618
 5398POPC   C3B68505  42.388  14.686   7.026
 5398POPC   C4B68506  42.205  14.660   7.417
 5399POPC   NC368507  28.515  35.010   5.560
 5399POPC   PO468508  28.081  35.593   5.687
 5399POPC   GL168509  28.347  35.389   5.938
 5399POPC   GL268510  28.130  35.103   5.897
 5399POPC   C1A68511  28.660  35.602   6.213
 5399POPC   D2A68512  28.737  35.766   6.621
 5399POPC   C3A68513  28.431  35.565   6.858
 5399POPC   C4A68514  28.505  35.352   7.208
 5399POPC   C1B68515  28.411  34.992   6.229
 5399POPC   C2B68516  28.257  35.111   6.610
 5399POPC   C3B68517  28.413  34.934   6.938
 5399POPC   C4B68518  28.302  34.912   7.375
 5400POPC   NC368519   1.380  43.385   5.585
 5400POPC   PO468520   0.810  43.013   5.306
 5400POPC   GL168521   0.902  43.212   5.748
 5400POPC   GL268522   1.180  43.020   5.913
 5400POPC   C1A68523   1.048  43.369   6.221
 5400POPC   D2A68524   0.924  43.060   6.517
 5400POPC   C3A68525   1.047  42.968   6.939
 5400POPC   C4A68526   1.186  43.238   7.255
 5400POPC   C1B68527   1.525  42.829   6.170
 5400POPC   C2B68528   1.403  42.819   6.560
 5400POPC   C3B68529   1.552  42.905   6.941
 5400POPC   C4B68530   1.412  42.781   7.319
 5401POPC   NC368531  17.355   6.060   5.229
 5401POPC   PO468532  17.915   5.700   5.511
 5401POPC   GL168533  17.522   5.713   5.751
 5401POPC   GL268534  17.529   6.056   5.736
 5401POPC   C1A68535  17.355   5.683   6.184
 5401POPC   D2A68536  17.422   5.595   6.633
 5401POPC   C3A68537  17.579   5.837   6.992
 5401POPC   C4A68538  17.285   5.720   7.286
 5401POPC   C1B68539  17.422   6.198   6.146
 5401POPC   C2B68540  17.387   6.090   6.561
 5401POPC   C3B68541  17.125   6.067   6.918
 5401POPC   C4B68542  17.289   6.216   7.253
 5402POPC   NC368543  17.968  14.653   5.575
 5402POPC   PO468544  18.436  14.299   5.294
 5402POPC   GL168545  18.349  14.192   5.762
 5402POPC   GL268546  18.155  14.440   6.005
 5402POPC   C1A68547  18.429  14.044   6.195
 5402POPC   D2A68548  18.469  14.305   6.560
 5402POPC   C3A68549  18.289  14.224   6.961
 5402POPC   C4A68550  18.534  14.303   7.351
 5402POPC   C1B68551  18.498  14.680   6.190
 5402POPC   C2B68552  18.647  14.774   6.618
 5402POPC   C3B68553  18.469  14.691   7.024
 5402POPC   C4B68554  18.120  14.571   7.341
 5403POPC   NC368555  35.623   6.816   5.485
 5403POPC   PO468556  35.196   6.372   5.438
 5403POPC   GL168557  35.354   6.388   5.858
 5403POPC   GL268558  35.721   6.459   5.879
 5403POPC   C1A68559  35.341   6.657   6.256
 5403POPC   D2A68560  35.184   6.938   6.599
 5403POPC   C3A68561  35.232   6.737   6.974
 5403POPC   C4A68562  35.364   6.433   7.221
 5403POPC   C1B68563  35.848   6.756   6.222
 5403POPC   C2B68564  35.702   6.955   6.581
 5403POPC   C3B68565  35.739   6.806   6.987
 5403POPC   C4B68566  35.672   6.936   7.422
 5404POPC   NC368567   9.486  11.268   5.176
 5404POPC   PO468568   9.944  10.946   5.591
 5404POPC   GL168569   9.791  11.317   5.777
 5404POPC   GL268570   9.448  11.358   5.717
 5404POPC   C1A68571   9.908  11.447   6.170
 5404POPC   D2A68572   9.941  11.150   6.515
 5404POPC   C3A68573   9.779  11.192   6.905
 5404POPC   C4A68574   9.975  11.378   7.236
 5404POPC   C1B68575   9.375  11.346   6.149
 5404POPC   C2B68576   9.540  11.482   6.549
 5404POPC   C3B68577   9.623  11.689   6.935
 5404POPC   C4B68578   9.493  11.495   7.302
 5405POPC   NC368579  16.687  14.206   5.482
 5405POPC   PO468580  17.368  14.243   5.239
 5405POPC   GL168581  17.150  14.311   5.695
 5405POPC   GL268582  16.883  14.610   5.791
 5405POPC   C1A68583  16.927  14.244   6.119
 5405POPC   D2A68584  16.855  14.497   6.504
 5405POPC   C3A68585  16.938  14.371   6.915
 5405POPC   C4A68586  16.934  14.534   7.331
 5405POPC   C1B68587  16.526  14.623   6.129
 5405POPC   C2B68588  16.448  14.789   6.579
 5405POPC   C3B68589  16.533  14.658   7.008
 5405POPC   C4B68590  16.450  14.648   7.456
 5406POPC   NC368591  42.653   9.317   5.526
 5406POPC   PO468592  42.186   8.854   5.437
 5406POPC   GL168593  42.392   9.030   5.870
 5406POPC   GL268594  42.747   8.917   5.915
 5406POPC   C1A68595  42.419   9.020   6.356
 5406POPC   D2A68596  42.287   8.743   6.730
 5406POPC   C3A68597  42.306   8.845   7.194
 5406POPC   C4A68598  42.153   9.276   7.321
 5406POPC   C1B68599  42.809   9.314   6.159
 5406POPC   C2B68600  42.842   9.371   6.616
 5406POPC   C3B68601  42.613   9.200   6.951
 5406POPC   C4B68602  42.672   9.216   7.386
 5407POPC   NC368603  32.926   1.698   5.462
 5407POPC   PO468604  33.212   2.219   5.720
 5407POPC   GL168605  32.930   1.954   5.950
 5407POPC   GL268606  33.161   1.688   5.903
 5407POPC   C1A68607  32.874   2.148   6.359
 5407POPC   D2A68608  33.074   2.030   6.714
 5407POPC   C3A68609  32.895   2.138   7.076
 5407POPC   C4A68610  32.742   1.885   7.329
 5407POPC   C1B68611  33.309   1.815   6.302
 5407POPC   C2B68612  33.411   1.587   6.683
 5407POPC   C3B68613  33.223   1.705   7.064
 5407POPC   C4B68614  33.393   2.069   7.207
 5408POPC   NC368615  15.566  38.896   5.475
 5408POPC   PO468616  14.987  39.239   5.583
 5408POPC   GL168617  15.247  39.329   5.896
 5408POPC   GL268618  15.352  38.970   5.939
 5408POPC   C1A68619  15.187  39.532   6.293
 5408POPC   D2A68620  15.291  39.322   6.671
 5408POPC   C3A68621  15.136  39.490   7.043
 5408POPC   C4A68622  15.247  39.318   7.441
 5408POPC   C1B68623  15.076  39.017   6.298
 5408POPC   C2B68624  14.883  39.013   6.707
 5408POPC   C3B68625  14.914  39.005   7.137
 5408POPC   C4B68626  15.233  38.761   7.310
 5409POPC   NC368627   4.430  44.831   5.479
 5409POPC   PO468628   4.826  44.255   5.755
 5409POPC   GL168629   4.433  44.467   5.836
 5409POPC   GL268630   4.190  44.233   5.740
 5409POPC   C1A68631   4.326  44.746   6.177
 5409POPC   D2A68632   4.515  44.604   6.552
 5409POPC   C3A68633   4.340  44.701   6.978
 5409POPC   C4A68634   4.402  44.469   7.375
 5409POPC   C1B68635   4.059  44.289   6.176
 5409POPC   C2B68636   4.010  44.506   6.577
 5409POPC   C3B68637   3.994  44.337   6.971
 5409POPC   C4B68638   3.688  44.096   7.078
 5410POPC   NC368639  27.398   9.612   5.562
 5410POPC   PO468640  27.891  10.051   5.577
 5410POPC   GL168641  27.758   9.821   5.892
 5410POPC   GL268642  27.457   9.955   5.952
 5410POPC   C1A68643  27.828   9.815   6.315
 5410POPC   D2A68644  27.633   9.764   6.693
 5410POPC   C3A68645  27.765   9.892   7.044
 5410POPC   C4A68646  27.887   9.569   7.248
 5410POPC   C1B68647  27.297   9.706   6.297
 5410POPC   C2B68648  27.186   9.544   6.715
 5410POPC   C3B68649  27.249   9.773   7.076
 5410POPC   C4B68650  27.457   9.792   7.453
 5411POPC   NC368651  32.126  25.049   5.557
 5411POPC   PO468652  32.112  24.304   5.517
 5411POPC   GL168653  32.028  24.641   5.852
 5411POPC   GL268654  32.386  24.686   5.974
 5411POPC   C1A68655  32.028  24.754   6.312
 5411POPC   D2A68656  32.333  24.598   6.610
 5411POPC   C3A68657  32.098  24.345   6.870
 5411POPC   C4A68658  31.729  24.585   6.941
 5411POPC   C1B68659  32.745  24.666   6.295
 5411POPC   C2B68660  32.748  24.906   6.701
 5411POPC   C3B68661  32.553  24.772   7.067
 5411POPC   C4B68662  32.319  24.477   7.314
 5412POPC   NC368663  14.293  33.416   5.561
 5412POPC   PO468664  14.649  32.873   5.626
 5412POPC   GL168665  14.589  33.150   5.906
 5412POPC   GL268666  14.219  33.006   5.908
 5412POPC   C1A68667  14.428  33.276   6.276
 5412POPC   D2A68668  14.271  33.138   6.637
 5412POPC   C3A68669  14.418  33.314   6.985
 5412POPC   C4A68670  14.540  33.097   7.311
 5412POPC   C1B68671  14.064  32.688   6.229
 5412POPC   C2B68672  13.999  32.708   6.680
 5412POPC   C3B68673  13.994  33.008   7.068
 5412POPC   C4B68674  13.743  33.090   7.477
 5413POPC   NC368675   9.990   7.774   5.291
 5413POPC   PO468676   9.525   7.313   5.244
 5413POPC   GL168677   9.766   7.444   5.631
 5413POPC   GL268678   9.899   7.180   5.848
 5413POPC   C1A68679   9.805   7.644   6.058
 5413POPC   D2A68680   9.656   7.618   6.501
 5413POPC   C3A68681   9.960   7.515   6.836
 5413POPC   C4A68682   9.729   7.418   7.177
 5413POPC   C1B68683   9.660   7.153   6.241
 5413POPC   C2B68684   9.697   7.120   6.694
 5413POPC   C3B68685   9.964   6.994   7.041
 5413POPC   C4B68686   9.961   7.077   7.473
 5414POPC   NC368687  10.126  33.691   5.367
 5414POPC   PO468688   9.484  33.591   5.334
 5414POPC   GL168689   9.622  33.764   5.725
 5414POPC   GL268690   9.611  34.127   5.745
 5414POPC   C1A68691   9.722  33.653   6.161
 5414POPC   D2A68692   9.924  33.882   6.502
 5414POPC   C3A68693   9.827  33.804   6.911
 5414POPC   C4A68694   9.450  33.661   7.153
 5414POPC   C1B68695   9.608  34.156   6.212
 5414POPC   C2B68696   9.631  34.285   6.658
 5414POPC   C3B68697   9.532  34.162   7.089
 5414POPC   C4B68698   9.705  34.193   7.512
 5415POPC   NC368699   2.339  15.435   5.574
 5415POPC   PO468700   2.692  14.999   5.170
 5415POPC   GL168701   2.762  14.949   5.678
 5415POPC   GL268702   2.784  15.277   5.841
 5415POPC   C1A68703   2.919  14.884   6.119
 5415POPC   D2A68704   2.989  15.223   6.435
 5415POPC   C3A68705   2.926  15.116   6.848
 5415POPC   C4A68706   2.915  14.834   7.186
 5415POPC   C1B68707   2.526  15.220   6.202
 5415POPC   C2B68708   2.526  15.410   6.612
 5415POPC   C3B68709   2.623  15.470   7.036
 5415POPC   C4B68710   2.429  15.295   7.353
 5416POPC   NC368711  40.479   1.863   5.264
 5416POPC   PO468712  40.959   2.340   5.317
 5416POPC   GL168713  40.669   2.198   5.671
 5416POPC   GL268714  40.719   1.843   5.731
 5416POPC   C1A68715  40.482   2.126   6.116
 5416POPC   D2A68716  40.674   2.081   6.547
 5416POPC   C3A68717  40.455   2.158   6.946
 5416POPC   C4A68718  40.662   2.148   7.336
 5416POPC   C1B68719  40.851   1.771   6.152
 5416POPC   C2B68720  40.889   1.621   6.577
 5416POPC   C3B68721  40.874   1.822   6.972
 5416POPC   C4B68722  41.000   1.647   7.328
 5417POPC   NC368723   9.137   0.936   5.347
 5417POPC   PO468724   8.717   1.470   5.333
 5417POPC   GL168725   8.894   1.284   5.713
 5417POPC   GL268726   8.658   1.371   5.952
 5417POPC   C1A68727   9.117   1.268   6.139
 5417POPC   D2A68728   9.017   1.116   6.559
 5417POPC   C3A68729   9.290   1.077   6.871
 5417POPC   C4A68730   9.165   1.095   7.290
 5417POPC   C1B68731   8.644   0.980   6.241
 5417POPC   C2B68732   8.565   0.899   6.688
 5417POPC   C3B68733   8.710   1.097   7.040
 5417POPC   C4B68734   8.455   1.127   7.388
 5418POPC   NC368735  15.642  21.562   5.518
 5418POPC   PO468736  16.155  21.171   5.303
 5418POPC   GL168737  16.007  21.245   5.742
 5418POPC   GL268738  16.010  21.561   5.885
 5418POPC   C1A68739  15.869  21.207   6.207
 5418POPC   D2A68740  16.030  21.353   6.610
 5418POPC   C3A68741  15.789  21.319   6.974
 5418POPC   C4A68742  15.673  21.148   7.332
 5418POPC   C1B68743  15.804  21.714   6.281
 5418POPC   C2B68744  15.978  21.857   6.688
 5418POPC   C3B68745  15.998  21.744   7.164
 5418POPC   C4B68746  16.028  21.760   7.626
 5419POPC   NC368747  10.724  30.015   5.467
 5419POPC   PO468748  10.110  29.797   5.622
 5419POPC   GL168749  10.446  29.875   5.898
 5419POPC   GL268750  10.724  29.646   5.882
 5419POPC   C1A68751  10.554  29.969   6.314
 5419POPC   D2A68752  10.550  29.886   6.770
 5419POPC   C3A68753  10.595  30.100   7.176
 5419POPC   C4A68754  10.422  30.123   7.595
 5419POPC   C1B68755  10.910  29.473   6.278
 5419POPC   C2B68756  10.953  29.540   6.734
 5419POPC   C3B68757  10.818  29.634   7.159
 5419POPC   C4B68758  10.914  29.891   7.544
 5420POPC   NC368759  30.358  35.572   5.044
 5420POPC   PO468760  29.921  35.371   5.392
 5420POPC   GL168761  29.800  35.447   5.798
 5420POPC   GL268762  30.059  35.232   5.904
 5420POPC   C1A68763  29.994  35.702   6.133
 5420POPC   D2A68764  30.280  35.560   6.465
 5420POPC   C3A68765  30.189  35.686   6.885
 5420POPC   C4A68766  29.933  35.492   7.174
 5420POPC   C1B68767  30.207  34.952   6.222
 5420POPC   C2B68768  30.123  34.901   6.672
 5420POPC   C3B68769  29.867  34.988   7.047
 5420POPC   C4B68770  29.921  35.113   7.502
 5421POPC   NC368771   9.669   0.348   5.332
 5421POPC   PO468772  10.042  44.749   5.547
 5421POPC   GL168773   9.721  44.789   5.834
 5421POPC   GL268774   9.674  44.425   5.821
 5421POPC   C1A68775   9.697  44.955   6.267
 5421POPC   D2A68776   9.800  44.905   6.699
 5421POPC   C3A68777   9.534  44.759   7.032
 5421POPC   C4A68778   9.520  44.349   7.188
 5421POPC   C1B68779   9.989  44.508   6.185
 5421POPC   C2B68780  10.181  44.550   6.611
 5421POPC   C3B68781  10.041  44.608   7.050
 5421POPC   C4B68782  10.055  44.298   7.356
 5422POPC   NC368783  25.648  31.012   5.707
 5422POPC   PO468784  26.357  31.156   5.669
 5422POPC   GL168785  25.997  31.319   5.912
 5422POPC   GL268786  25.829  31.670   5.881
 5422POPC   C1A68787  25.977  31.382   6.347
 5422POPC   D2A68788  26.038  31.751   6.593
 5422POPC   C3A68789  26.151  31.683   7.019
 5422POPC   C4A68790  26.184  31.625   7.478
 5422POPC   C1B68791  25.558  31.689   6.259
 5422POPC   C2B68792  25.538  31.783   6.709
 5422POPC   C3B68793  25.678  31.865   7.121
 5422POPC   C4B68794  25.718  31.821   7.597
 5423POPC   NC368795  33.397   5.916   5.482
 5423POPC   PO468796  34.115   5.884   5.460
 5423POPC   GL168797  33.897   5.684   5.788
 5423POPC   GL268798  33.563   5.585   5.877
 5423POPC   C1A68799  33.992   5.649   6.188
 5423POPC   D2A68800  33.869   5.812   6.556
 5423POPC   C3A68801  34.110   5.702   6.905
 5423POPC   C4A68802  33.826   5.656   7.197
 5423POPC   C1B68803  33.529   5.956   6.153
 5423POPC   C2B68804  33.457   6.172   6.565
 5423POPC   C3B68805  33.430   6.023   7.000
 5423POPC   C4B68806  33.496   6.280   7.336
 5424POPC   NC368807   4.924  35.672   5.126
 5424POPC   PO468808   4.882  35.065   5.495
 5424POPC   GL168809   5.028  35.213   5.852
 5424POPC   GL268810   5.129  35.567   5.883
 5424POPC   C1A68811   4.880  35.281   6.260
 5424POPC   D2A68812   5.039  35.109   6.620
 5424POPC   C3A68813   4.838  35.119   7.015
 5424POPC   C4A68814   5.115  35.207   7.350
 5424POPC   C1B68815   4.990  35.866   6.176
 5424POPC   C2B68816   4.856  35.743   6.595
 5424POPC   C3B68817   5.021  35.602   6.995
 5424POPC   C4B68818   4.841  35.652   7.390
 5425POPC   NC368819   1.287  33.844   5.391
 5425POPC   PO468820   1.175  33.424   5.922
 5425POPC   GL168821   1.319  33.860   5.947
 5425POPC   GL268822   1.081  34.106   5.779
 5425POPC   C1A68823   1.320  33.900   6.406
 5425POPC   D2A68824   1.113  33.568   6.662
 5425POPC   C3A68825   1.338  33.501   7.028
 5425POPC   C4A68826   1.543  33.888   6.970
 5425POPC   C1B68827   0.869  34.032   6.170
 5425POPC   C2B68828   0.829  34.009   6.608
 5425POPC   C3B68829   1.035  33.951   7.000
 5425POPC   C4B68830   0.845  33.927   7.371
 5426POPC   NC368831  19.955  24.399   5.180
 5426POPC   PO468832  19.887  25.032   5.291
 5426POPC   GL168833  19.797  24.663   5.685
 5426POPC   GL268834  19.795  24.303   5.737
 5426POPC   C1A68835  20.057  24.541   6.115
 5426POPC   D2A68836  19.895  24.661   6.524
 5426POPC   C3A68837  20.124  24.634   6.907
 5426POPC   C4A68838  20.057  24.459   7.300
 5426POPC   C1B68839  19.580  24.424   6.180
 5426POPC   C2B68840  19.494  24.359   6.673
 5426POPC   C3B68841  19.576  24.337   7.161
 5426POPC   C4B68842  19.491  24.189   7.632
 5427POPC   NC368843   5.874  34.078   5.624
 5427POPC   PO468844   5.819  34.749   5.349
 5427POPC   GL168845   5.933  34.597   5.772
 5427POPC   GL268846   5.596  34.546   5.801
 5427POPC   C1A68847   6.002  34.453   6.198
 5427POPC   D2A68848   6.003  34.632   6.607
 5427POPC   C3A68849   6.137  34.398   6.981
 5427POPC   C4A68850   5.992  34.631   7.327
 5427POPC   C1B68851   5.473  34.361   6.190
 5427POPC   C2B68852   5.629  34.241   6.588
 5427POPC   C3B68853   5.644  34.447   6.983
 5427POPC   C4B68854   5.586  34.248   7.398
 5428POPC   NC368855   4.997  23.233   5.169
 5428POPC   PO468856   4.948  22.703   5.643
 5428POPC   GL168857   5.157  22.981   5.912
 5428POPC   GL268858   5.352  23.239   5.728
 5428POPC   C1A68859   5.212  22.877   6.351
 5428POPC   D2A68860   5.394  22.775   6.749
 5428POPC   C3A68861   5.055  22.638   7.049
 5428POPC   C4A68862   4.838  22.750   7.445
 5428POPC   C1B68863   5.330  23.367   6.204
 5428POPC   C2B68864   5.226  23.276   6.681
 5428POPC   C3B68865   5.209  23.105   7.146
 5428POPC   C4B68866   4.985  23.240   7.499
 5429POPC   NC368867   4.024  39.960   5.416
 5429POPC   PO468868   4.562  40.311   5.242
 5429POPC   GL168869   4.421  40.121   5.710
 5429POPC   GL268870   4.277  39.747   5.824
 5429POPC   C1A68871   4.203  40.133   6.146
 5429POPC   D2A68872   4.287  40.260   6.589
 5429POPC   C3A68873   4.250  39.961   6.933
 5429POPC   C4A68874   4.075  39.736   7.316
 5429POPC   C1B68875   4.262  39.612   6.300
 5429POPC   C2B68876   4.404  39.465   6.742
 5429POPC   C3B68877   4.574  39.639   7.153
 5429POPC   C4B68878   4.522  39.683   7.598
 5430POPC   NC368879  44.035  41.141   5.514
 5430POPC   PO468880  44.031  40.423   5.369
 5430POPC   GL168881  44.028  40.665   5.753
 5430POPC   GL268882  43.687  40.847   5.785
 5430POPC   C1A68883  43.996  40.673   6.211
 5430POPC   D2A68884  43.831  40.476   6.601
 5430POPC   C3A68885  44.035  40.597   6.981
 5430POPC   C4A68886  44.160  41.007   7.067
 5430POPC   C1B68887  43.581  40.987   6.223
 5430POPC   C2B68888  43.786  40.990   6.649
 5430POPC   C3B68889  43.638  40.940   7.084
 5430POPC   C4B68890  43.640  41.220   7.481
 5431POPC   NC368891  37.073  34.692   5.394
 5431POPC   PO468892  37.096  34.052   5.438
 5431POPC   GL168893  36.921  34.315   5.817
 5431POPC   GL268894  36.949  34.677   5.884
 5431POPC   C1A68895  36.915  34.394   6.316
 5431POPC   D2A68896  36.882  34.656   6.726
 5431POPC   C3A68897  36.776  34.474   7.143
 5431POPC   C4A68898  36.738  34.381   7.598
 5431POPC   C1B68899  37.276  34.749   6.215
 5431POPC   C2B68900  37.362  34.816   6.661
 5431POPC   C3B68901  37.263  34.733   7.094
 5431POPC   C4B68902  37.088  34.757   7.513
 5432POPC   NC368903  24.587   9.990   5.477
 5432POPC   PO468904  24.890   9.366   5.547
 5432POPC   GL168905  24.559   9.548   5.817
 5432POPC   GL268906  24.275   9.312   5.845
 5432POPC   C1A68907  24.484   9.739   6.230
 5432POPC   D2A68908  24.308  10.040   6.518
 5432POPC   C3A68909  24.307   9.870   6.889
 5432POPC   C4A68910  24.413   9.923   7.303
 5432POPC   C1B68911  24.440   9.232   6.245
 5432POPC   C2B68912  24.468   9.376   6.665
 5432POPC   C3B68913  24.496   9.447   7.097
 5432POPC   C4B68914  24.199   9.470   7.405
 5433POPC   NC368915  13.917  43.601   5.539
 5433POPC   PO468916  13.394  44.034   5.335
 5433POPC   GL168917  13.491  43.899   5.829
 5433POPC   GL268918  13.756  43.738   5.999
 5433POPC   C1A68919  13.391  43.893   6.337
 5433POPC   D2A68920  13.615  44.048   6.752
 5433POPC   C3A68921  13.595  43.864   7.189
 5433POPC   C4A68922  13.462  43.754   7.645
 5433POPC   C1B68923  13.845  44.119   6.249
 5433POPC   C2B68924  14.113  44.192   6.579
 5433POPC   C3B68925  14.033  44.364   6.900
 5433POPC   C4B68926  13.723  44.346   7.185
 5434POPC   NC368927   5.421   2.383   5.108
 5434POPC   PO468928   5.257   3.000   5.368
 5434POPC   GL168929   5.199   2.879   5.791
 5434POPC   GL268930   4.846   2.903   5.776
 5434POPC   C1A68931   5.365   2.668   6.223
 5434POPC   D2A68932   5.613   2.527   6.593
 5434POPC   C3A68933   5.379   2.520   6.967
 5434POPC   C4A68934   5.020   2.250   6.943
 5434POPC   C1B68935   4.983   3.013   6.220
 5434POPC   C2B68936   5.105   2.807   6.635
 5434POPC   C3B68937   5.035   2.932   7.054
 5434POPC   C4B68938   5.140   3.150   7.422
 5435POPC   NC368939  31.058  22.471   5.392
 5435POPC   PO468940  31.449  22.967   5.042
 5435POPC   GL168941  31.312  22.839   5.598
 5435POPC   GL268942  31.320  22.517   5.828
 5435POPC   C1A68943  31.239  22.945   6.092
 5435POPC   D2A68944  31.426  22.923   6.536
 5435POPC   C3A68945  31.182  22.927   6.933
 5435POPC   C4A68946  31.076  23.266   7.225
 5435POPC   C1B68947  31.551  22.512   6.265
 5435POPC   C2B68948  31.586  22.427   6.695
 5435POPC   C3B68949  31.607  22.535   7.115
 5435POPC   C4B68950  31.862  22.815   7.334
 5436POPC   NC368951  16.903  30.171   5.380
 5436POPC   PO468952  16.464  29.774   5.486
 5436POPC   GL168953  16.764  29.856   5.808
 5436POPC   GL268954  16.748  29.557   5.990
 5436POPC   C1A68955  16.843  30.142   6.198
 5436POPC   D2A68956  17.130  30.112   6.592
 5436POPC   C3A68957  16.956  30.200   7.012
 5436POPC   C4A68958  16.527  30.023   7.170
 5436POPC   C1B68959  16.866  29.668   6.397
 5436POPC   C2B68960  16.815  29.754   6.824
 5436POPC   C3B68961  16.675  29.524   7.193
 5436POPC   C4B68962  16.518  29.668   7.592
 5437POPC   NC368963  18.212  28.670   5.442
 5437POPC   PO468964  18.151  29.355   5.446
 5437POPC   GL168965  18.217  29.345   5.857
 5437POPC   GL268966  18.373  29.024   5.880
 5437POPC   C1A68967  18.415  29.495   6.197
 5437POPC   D2A68968  18.187  29.557   6.571
 5437POPC   C3A68969  18.403  29.440   6.951
 5437POPC   C4A68970  18.605  29.717   7.271
 5437POPC   C1B68971  18.188  29.058   6.316
 5437POPC   C2B68972  18.075  28.940   6.748
 5437POPC   C3B68973  18.123  29.000   7.209
 5437POPC   C4B68974  18.118  29.118   7.681
 5438POPC   NC368975   8.257  12.098   5.480
 5438POPC   PO468976   8.920  12.183   5.381
 5438POPC   GL168977   8.684  12.122   5.775
 5438POPC   GL268978   8.702  12.429   5.927
 5438POPC   C1A68979   8.458  11.838   6.089
 5438POPC   D2A68980   8.441  11.707   6.531
 5438POPC   C3A68981   8.108  11.721   6.839
 5438POPC   C4A68982   8.133  12.058   7.127
 5438POPC   C1B68983   8.304  12.333   6.129
 5438POPC   C2B68984   8.149  12.165   6.517
 5438POPC   C3B68985   8.279  12.432   6.841
 5438POPC   C4B68986   7.939  12.543   7.099
 5439POPC   NC368987   4.716  35.606   5.610
 5439POPC   PO468988   4.294  35.353   5.189
 5439POPC   GL168989   4.235  35.248   5.633
 5439POPC   GL268990   4.221  35.560   5.810
 5439POPC   C1A68991   4.415  35.139   6.051
 5439POPC   D2A68992   4.403  35.414   6.420
 5439POPC   C3A68993   4.397  35.336   6.865
 5439POPC   C4A68994   4.360  35.569   7.254
 5439POPC   C1B68995   4.000  35.713   6.173
 5439POPC   C2B68996   3.930  35.546   6.586
 5439POPC   C3B68997   3.941  35.710   6.978
 5439POPC   C4B68998   3.854  35.585   7.370
 5440POPC   NC368999  20.827   4.415   5.185
 5440POPC   PO469000  21.520   4.384   5.405
 5440POPC   GL169001  21.612   4.446   5.843
 5440POPC   GL269002  21.311   4.343   5.978
 5440POPC   C1A69003  21.649   4.533   6.318
 5440POPC   D2A69004  21.596   4.801   6.705
 5440POPC   C3A69005  21.326   4.584   7.002
 5440POPC   C4A69006  21.458   4.205   7.134
 5440POPC   C1B69007  21.139   4.474   6.350
 5440POPC   C2B69008  21.216   4.173   6.673
 5440POPC   C3B69009  21.048   3.936   7.012
 5440POPC   C4B69010  20.941   4.262   7.274
 5441POPC   NC369011   3.795  33.532   5.560
 5441POPC   PO469012   3.349  34.025   5.449
 5441POPC   GL169013   3.536  33.968   5.873
 5441POPC   GL269014   3.599  33.639   6.016
 5441POPC   C1A69015   3.553  34.046   6.335
 5441POPC   D2A69016   3.294  33.968   6.684
 5441POPC   C3A69017   3.593  33.823   6.956
 5441POPC   C4A69018   3.671  33.853   7.379
 5441POPC   C1B69019   3.366  33.545   6.368
 5441POPC   C2B69020   3.151  33.285   6.641
 5441POPC   C3B69021   3.145  33.205   7.041
 5441POPC   C4B69022   3.333  33.513   7.260
 5442POPC   NC369023  17.332  24.567   5.738
 5442POPC   PO469024  16.678  24.387   5.541
 5442POPC   GL169025  16.819  24.358   5.935
 5442POPC   GL269026  17.094  24.132   5.851
 5442POPC   C1A69027  16.655  24.501   6.353
 5442POPC   D2A69028  16.401  24.641   6.725
 5442POPC   C3A69029  16.598  24.649   7.144
 5442POPC   C4A69030  16.476  24.582   7.586
 5442POPC   C1B69031  17.166  24.233   6.294
 5442POPC   C2B69032  17.126  24.400   6.698
 5442POPC   C3B69033  17.108  24.151   7.050
 5442POPC   C4B69034  16.855  24.271   7.390
 5443POPC   NC369035  33.800  36.702   5.435
 5443POPC   PO469036  33.369  37.157   5.443
 5443POPC   GL169037  33.569  36.986   5.821
 5443POPC   GL269038  33.600  36.627   5.911
 5443POPC   C1A69039  33.866  36.948   6.179
 5443POPC   D2A69040  33.993  36.696   6.535
 5443POPC   C3A69041  33.926  36.876   6.904
 5443POPC   C4A69042  33.725  37.038   7.227
 5443POPC   C1B69043  33.561  36.490   6.363
 5443POPC   C2B69044  33.656  36.453   6.836
 5443POPC   C3B69045  33.786  36.485   7.261
 5443POPC   C4B69046  33.836  36.359   7.695
 5444POPC   NC369047  41.172  37.223   5.738
 5444POPC   PO469048  40.867  36.673   5.432
 5444POPC   GL169049  40.867  36.817   5.864
 5444POPC   GL269050  41.194  36.773   5.962
 5444POPC   C1A69051  40.787  37.101   6.265
 5444POPC   D2A69052  40.480  37.202   6.606
 5444POPC   C3A69053  40.659  37.058   6.967
 5444POPC   C4A69054  40.992  37.109   7.264
 5444POPC   C1B69055  41.014  36.643   6.332
 5444POPC   C2B69056  40.996  36.487   6.718
 5444POPC   C3B69057  40.895  36.614   7.105
 5444POPC   C4B69058  40.816  36.687   7.526
 5445POPC   NC369059  30.295   1.175   5.563
 5445POPC   PO469060  30.937   0.998   5.403
 5445POPC   GL169061  31.028   0.959   5.813
 5445POPC   GL269062  30.766   1.240   5.888
 5445POPC   C1A69063  31.119   1.088   6.224
 5445POPC   D2A69064  30.924   1.405   6.459
 5445POPC   C3A69065  30.835   1.270   6.823
 5445POPC   C4A69066  30.645   1.421   7.174
 5445POPC   C1B69067  30.474   1.300   6.256
 5445POPC   C2B69068  30.312   1.044   6.593
 5445POPC   C3B69069  30.476   0.962   6.997
 5445POPC   C4B69070  30.504   1.028   7.449
 5446POPC   NC369071  40.912   0.761   5.298
 5446POPC   PO469072  40.547   1.392   5.236
 5446POPC   GL169073  40.629   1.317   5.712
 5446POPC   GL269074  40.308   1.187   5.794
 5446POPC   C1A69075  40.766   1.267   6.187
 5446POPC   D2A69076  40.881   1.099   6.638
 5446POPC   C3A69077  40.787   1.290   7.029
 5446POPC   C4A69078  40.928   1.157   7.445
 5446POPC   C1B69079  40.295   1.080   6.200
 5446POPC   C2B69080  40.376   1.180   6.619
 5446POPC   C3B69081  40.522   0.866   6.921
 5446POPC   C4B69082  40.456   0.964   7.360
 5447POPC   NC369083  44.783  26.592   5.443
 5447POPC   PO469084  44.354  27.048   5.557
 5447POPC   GL169085  44.539  26.944   5.958
 5447POPC   GL269086  44.830  26.712   5.922
 5447POPC   C1A69087  44.583  26.730   6.382
 5447POPC   D2A69088  44.607  26.585   6.811
 5447POPC   C3A69089  44.339  26.876   7.048
 5447POPC   C4A69090  44.505  27.178   7.354
 5447POPC   C1B69091  44.991  26.976   6.220
 5447POPC   C2B69092   0.053  26.896   6.672
 5447POPC   C3B69093  44.856  26.934   7.084
 5447POPC   C4B69094   0.007  26.923   7.535
 5448POPC   NC369095  21.504  14.541   5.053
 5448POPC   PO469096  21.057  14.382   5.533
 5448POPC   GL169097  21.262  14.523   5.913
 5448POPC   GL269098  21.588  14.427   5.964
 5448POPC   C1A69099  21.256  14.493   6.361
 5448POPC   D2A69100  21.241  14.642   6.754
 5448POPC   C3A69101  21.082  14.350   7.028
 5448POPC   C4A69102  21.359  14.337   7.315
 5448POPC   C1B69103  21.664  14.774   6.239
 5448POPC   C2B69104  21.744  14.754   6.702
 5448POPC   C3B69105  21.793  14.620   7.158
 5448POPC   C4B69106  22.045  14.673   7.556
 5449POPC   NC369107  29.568  34.122   5.484
 5449POPC   PO469108  29.361  34.790   5.447
 5449POPC   GL169109  29.264  34.467   5.813
 5449POPC   GL269110  29.495  34.421   6.106
 5449POPC   C1A69111  28.984  34.331   6.199
 5449POPC   D2A69112  29.023  34.496   6.646
 5449POPC   C3A69113  29.072  34.242   7.025
 5449POPC   C4A69114  29.109  34.495   7.425
 5449POPC   C1B69115  29.237  34.788   6.253
 5449POPC   C2B69116  29.299  35.069   6.628
 5449POPC   C3B69117  29.163  34.918   7.009
 5449POPC   C4B69118  28.795  34.834   7.231
 5450POPC   NC369119  29.007  10.101   5.444
 5450POPC   PO469120  29.319   9.510   5.531
 5450POPC   GL169121  29.169   9.784   5.837
 5450POPC   GL269122  29.342  10.119   5.847
 5450POPC   C1A69123  29.016   9.591   6.207
 5450POPC   D2A69124  29.216   9.690   6.563
 5450POPC   C3A69125  28.989   9.757   6.941
 5450POPC   C4A69126  29.048   9.422   7.211
 5450POPC   C1B69127  29.595   9.975   6.209
 5450POPC   C2B69128  29.703   9.829   6.633
 5450POPC   C3B69129  29.491   9.686   7.018
 5450POPC   C4B69130  29.597   9.791   7.476
 5451POPC   NC369131  27.185  21.260   5.411
 5451POPC   PO469132  27.794  21.146   5.214
 5451POPC   GL169133  27.621  21.298   5.692
 5451POPC   GL269134  27.746  21.635   5.839
 5451POPC   C1A69135  27.535  21.317   6.180
 5451POPC   D2A69136  27.524  21.121   6.614
 5451POPC   C3A69137  27.502  21.241   7.031
 5451POPC   C4A69138  27.354  21.639   7.159
 5451POPC   C1B69139  27.932  21.665   6.231
 5451POPC   C2B69140  27.732  21.588   6.604
 5451POPC   C3B69141  27.841  21.625   6.985
 5451POPC   C4B69142  28.089  21.443   7.214
 5452POPC   NC369143  10.396  34.284   5.283
 5452POPC   PO469144  10.651  34.847   5.293
 5452POPC   GL169145  10.405  34.753   5.674
 5452POPC   GL269146  10.467  34.394   5.803
 5452POPC   C1A69147  10.317  34.847   6.142
 5452POPC   D2A69148  10.555  34.796   6.581
 5452POPC   C3A69149  10.392  34.687   7.006
 5452POPC   C4A69150  10.244  34.889   7.400
 5452POPC   C1B69151  10.469  34.362   6.284
 5452POPC   C2B69152  10.666  34.306   6.710
 5452POPC   C3B69153  10.887  34.481   7.058
 5452POPC   C4B69154  10.689  34.621   7.445
 5453POPC   NC369155   7.598  33.606   5.301
 5453POPC   PO469156   6.923  33.370   5.387
 5453POPC   GL169157   7.151  33.609   5.782
 5453POPC   GL269158   7.522  33.710   5.821
 5453POPC   C1A69159   7.209  33.733   6.259
 5453POPC   D2A69160   7.070  33.629   6.717
 5453POPC   C3A69161   7.285  33.880   7.076
 5453POPC   C4A69162   7.325  33.778   7.561
 5453POPC   C1B69163   7.659  33.474   6.209
 5453POPC   C2B69164   7.574  33.617   6.630
 5453POPC   C3B69165   7.498  33.382   7.003
 5453POPC   C4B69166   7.818  33.185   7.234
 5454POPC   NC369167  15.622  35.610   5.461
 5454POPC   PO469168  16.107  35.037   5.570
 5454POPC   GL169169  15.975  35.099   5.962
 5454POPC   GL269170  15.820  35.418   5.909
 5454POPC   C1A69171  16.154  35.196   6.368
 5454POPC   D2A69172  16.189  35.570   6.636
 5454POPC   C3A69173  15.958  35.598   7.013
 5454POPC   C4A69174  15.845  35.238   7.250
 5454POPC   C1B69175  15.783  35.573   6.324
 5454POPC   C2B69176  15.719  35.308   6.688
 5454POPC   C3B69177  15.433  35.421   7.028
 5454POPC   C4B69178  15.349  35.447   7.489
 5455POPC   NC369179   9.415  28.535   5.554
 5455POPC   PO469180   9.962  28.249   5.284
 5455POPC   GL169181   9.871  28.300   5.717
 5455POPC   GL269182  10.001  27.950   5.742
 5455POPC   C1A69183   9.723  28.499   6.146
 5455POPC   D2A69184   9.744  28.623   6.605
 5455POPC   C3A69185   9.622  28.414   7.019
 5455POPC   C4A69186   9.839  28.530   7.397
 5455POPC   C1B69187  10.096  28.123   6.144
 5455POPC   C2B69188  10.139  27.948   6.543
 5455POPC   C3B69189  10.019  28.109   6.917
 5455POPC   C4B69190  10.217  28.191   7.294
 5456POPC   NC369191   3.424  44.816   5.561
 5456POPC   PO469192   3.975  44.626   5.416
 5456POPC   GL169193   3.903  44.655   5.837
 5456POPC   GL269194   3.596  44.486   5.903
 5456POPC   C1A69195   3.791  44.820   6.238
 5456POPC   D2A69196   3.395  44.796   6.470
 5456POPC   C3A69197   3.413  44.632   6.896
 5456POPC   C4A69198   3.712  44.703   7.235
 5456POPC   C1B69199   3.556  44.327   6.294
 5456POPC   C2B69200   3.313  44.046   6.528
 5456POPC   C3B69201   3.191  44.162   6.925
 5456POPC   C4B69202   3.352  44.350   7.342
 5457POPC   NC369203   6.316  13.300   5.453
 5457POPC   PO469204   5.961  12.954   5.010
 5457POPC   GL169205   5.943  12.991   5.581
 5457POPC   GL269206   5.879  12.683   5.805
 5457POPC   C1A69207   6.071  13.074   6.086
 5457POPC   D2A69208   5.924  13.068   6.544
 5457POPC   C3A69209   6.011  12.684   6.806
 5457POPC   C4A69210   6.186  12.701   7.221
 5457POPC   C1B69211   5.629  12.838   6.197
 5457POPC   C2B69212   5.531  12.728   6.637
 5457POPC   C3B69213   5.454  12.557   7.066
 5457POPC   C4B69214   5.493  12.714   7.502
 5458POPC   NC369215  11.754  40.030   5.406
 5458POPC   PO469216  12.170  39.543   5.603
 5458POPC   GL169217  11.920  39.848   5.868
 5458POPC   GL269218  12.017  40.226   5.823
 5458POPC   C1A69219  11.967  40.013   6.293
 5458POPC   D2A69220  12.288  40.065   6.615
 5458POPC   C3A69221  12.118  39.938   7.002
 5458POPC   C4A69222  12.169  39.583   7.231
 5458POPC   C1B69223  12.299  40.378   6.197
 5458POPC   C2B69224  12.232  40.572   6.631
 5458POPC   C3B69225  12.355  40.382   7.061
 5458POPC   C4B69226  12.367  40.381   7.534
 5459POPC   NC369227  35.350  38.619   5.186
 5459POPC   PO469228  35.347  39.334   5.309
 5459POPC   GL169229  35.417  39.115   5.790
 5459POPC   GL269230  35.552  39.371   5.982
 5459POPC   C1A69231  35.248  39.035   6.222
 5459POPC   D2A69232  34.954  39.326   6.441
 5459POPC   C3A69233  35.121  39.341   6.868
 5459POPC   C4A69234  35.396  39.032   7.099
 5459POPC   C1B69235  35.444  39.553   6.390
 5459POPC   C2B69236  35.632  39.525   6.816
 5459POPC   C3B69237  35.450  39.573   7.223
 5459POPC   C4B69238  35.616  39.593   7.684
 5460POPC   NC369239  37.083  29.493   5.685
 5460POPC   PO469240  36.712  30.048   5.808
 5460POPC   GL169241  37.148  30.120   5.974
 5460POPC   GL269242  37.133  29.759   6.096
 5460POPC   C1A69243  37.209  30.115   6.424
 5460POPC   D2A69244  37.029  29.783   6.620
 5460POPC   C3A69245  36.758  29.961   6.947
 5460POPC   C4A69246  36.817  30.217   7.333
 5460POPC   C1B69247  37.341  29.421   6.344
 5460POPC   C2B69248  37.195  29.309   6.754
 5460POPC   C3B69249  37.013  29.542   7.064
 5460POPC   C4B69250  36.915  29.704   7.435
 5461POPC   NC369251  15.707  41.070   4.966
 5461POPC   PO469252  16.100  41.409   5.399
 5461POPC   GL169253  15.970  41.440   5.803
 5461POPC   GL269254  15.735  41.689   5.714
 5461POPC   C1A69255  16.093  41.607   6.211
 5461POPC   D2A69256  16.223  41.709   6.651
 5461POPC   C3A69257  16.140  41.475   7.013
 5461POPC   C4A69258  15.887  41.563   7.341
 5461POPC   C1B69259  15.552  41.864   6.072
 5461POPC   C2B69260  15.736  41.880   6.466
 5461POPC   C3B69261  15.728  41.776   6.899
 5461POPC   C4B69262  15.452  41.806   7.269
 5462POPC   NC369263  42.262  16.515   5.208
 5462POPC   PO469264  42.263  15.907   5.464
 5462POPC   GL169265  42.252  15.924   5.885
 5462POPC   GL269266  42.257  15.550   5.869
 5462POPC   C1A69267  42.441  16.136   6.260
 5462POPC   D2A69268  42.732  15.972   6.571
 5462POPC   C3A69269  42.652  15.994   7.015
 5462POPC   C4A69270  42.431  16.057   7.382
 5462POPC   C1B69271  42.309  15.652   6.316
 5462POPC   C2B69272  42.250  15.757   6.758
 5462POPC   C3B69273  42.336  15.606   7.165
 5462POPC   C4B69274  42.487  15.499   7.595
 5463POPC   NC369275   7.066  28.146   5.471
 5463POPC   PO469276   7.494  27.523   5.473
 5463POPC   GL169277   7.584  27.551   5.885
 5463POPC   GL269278   7.516  27.891   5.931
 5463POPC   C1A69279   7.373  27.450   6.259
 5463POPC   D2A69280   7.508  27.210   6.603
 5463POPC   C3A69281   7.680  27.336   7.006
 5463POPC   C4A69282   7.487  27.451   7.375
 5463POPC   C1B69283   7.462  27.979   6.357
 5463POPC   C2B69284   7.456  27.712   6.691
 5463POPC   C3B69285   7.212  27.550   6.959
 5463POPC   C4B69286   7.165  27.837   7.283
 5464POPC   NC369287  39.548  27.412   5.431
 5464POPC   PO469288  38.955  27.530   5.372
 5464POPC   GL169289  39.031  27.414   5.791
 5464POPC   GL269290  39.370  27.465   5.892
 5464POPC   C1A69291  39.001  27.381   6.232
 5464POPC   D2A69292  39.198  27.519   6.612
 5464POPC   C3A69293  39.009  27.498   7.038
 5464POPC   C4A69294  39.131  27.657   7.436
 5464POPC   C1B69295  39.588  27.655   6.224
 5464POPC   C2B69296  39.720  27.557   6.620
 5464POPC   C3B69297  39.523  27.559   7.005
 5464POPC   C4B69298  39.646  27.675   7.359
 5465POPC   NC369299  34.696  26.782   5.126
 5465POPC   PO469300  34.188  27.182   5.402
 5465POPC   GL169301  34.453  27.021   5.713
 5465POPC   GL269302  34.401  26.678   5.751
 5465POPC   C1A69303  34.636  26.942   6.135
 5465POPC   D2A69304  34.741  27.147   6.536
 5465POPC   C3A69305  34.739  26.840   6.870
 5465POPC   C4A69306  34.589  26.875   7.295
 5465POPC   C1B69307  34.264  26.502   6.145
 5465POPC   C2B69308  34.158  26.461   6.598
 5465POPC   C3B69309  34.263  26.641   6.983
 5465POPC   C4B69310  34.190  26.537   7.426
 5466POPC   NC369311   3.334  24.347   5.407
 5466POPC   PO469312   3.864  23.992   5.481
 5466POPC   GL169313   3.586  24.174   5.834
 5466POPC   GL269314   3.544  24.528   5.882
 5466POPC   C1A69315   3.442  24.218   6.269
 5466POPC   D2A69316   3.509  24.394   6.652
 5466POPC   C3A69317   3.432  24.149   7.002
 5466POPC   C4A69318   3.191  24.121   7.398
 5466POPC   C1B69319   3.814  24.591   6.254
 5466POPC   C2B69320   3.770  24.824   6.647
 5466POPC   C3B69321   3.783  24.573   7.050
 5466POPC   C4B69322   3.704  24.249   7.393
 5467POPC   NC369323   0.532   8.719   5.397
 5467POPC   PO469324   0.608   9.428   5.453
 5467POPC   GL169325   0.357   9.105   5.690
 5467POPC   GL269326   0.624   8.908   5.845
 5467POPC   C1A69327   0.114   8.987   6.081
 5467POPC   D2A69328  44.952   9.165   6.474
 5467POPC   C3A69329   0.073   9.013   6.870
 5467POPC   C4A69330   0.008   8.828   7.280
 5467POPC   C1B69331   0.502   8.653   6.174
 5467POPC   C2B69332   0.543   8.848   6.586
 5467POPC   C3B69333   0.456   8.687   6.987
 5467POPC   C4B69334   0.661   8.845   7.307
 5468POPC   NC369335  17.306  28.252   5.381
 5468POPC   PO469336  17.803  28.532   5.648
 5468POPC   GL169337  17.510  28.423   5.952
 5468POPC   GL269338  17.350  28.715   5.959
 5468POPC   C1A69339  17.518  28.427   6.435
 5468POPC   D2A69340  17.856  28.468   6.756
 5468POPC   C3A69341  17.721  28.308   7.136
 5468POPC   C4A69342  17.705  28.206   7.569
 5468POPC   C1B69343  17.214  28.846   6.323
 5468POPC   C2B69344  17.044  28.669   6.646
 5468POPC   C3B69345  17.143  28.659   7.044
 5468POPC   C4B69346  17.270  28.343   7.355
 5469POPC   NC369347  21.696   2.931   5.450
 5469POPC   PO469348  22.384   2.774   5.467
 5469POPC   GL169349  22.080   2.701   5.789
 5469POPC   GL269350  22.410   2.731   5.978
 5469POPC   C1A69351  21.990   2.835   6.228
 5469POPC   D2A69352  22.376   2.783   6.514
 5469POPC   C3A69353  22.291   2.613   6.912
 5469POPC   C4A69354  22.377   2.545   7.342
 5469POPC   C1B69355  22.370   3.173   6.173
 5469POPC   C2B69356  22.374   3.277   6.625
 5469POPC   C3B69357  22.291   3.124   7.042
 5469POPC   C4B69358  21.939   2.875   7.169
 5470POPC   NC369359  32.587  16.853   5.567
 5470POPC   PO469360  31.992  16.602   5.439
 5470POPC   GL169361  32.201  16.724   5.843
 5470POPC   GL269362  32.211  17.112   5.827
 5470POPC   C1A69363  32.293  16.530   6.246
 5470POPC   D2A69364  32.077  16.545   6.630
 5470POPC   C3A69365  32.289  16.511   7.041
 5470POPC   C4A69366  32.226  16.453   7.506
 5470POPC   C1B69367  32.437  17.027   6.236
 5470POPC   C2B69368  32.462  16.904   6.691
 5470POPC   C3B69369  32.548  17.101   7.103
 5470POPC   C4B69370  32.416  17.258   7.545
 5471POPC   NC369371   3.801  32.701   5.498
 5471POPC   PO469372   3.446  33.255   5.715
 5471POPC   GL169373   3.465  33.092   6.077
 5471POPC   GL269374   3.774  32.883   6.004
 5471POPC   C1A69375   3.590  33.050   6.474
 5471POPC   D2A69376   3.887  32.810   6.660
 5471POPC   C3A69377   3.558  32.778   6.958
 5471POPC   C4A69378   3.488  32.995   7.347
 5471POPC   C1B69379   3.948  33.287   6.193
 5471POPC   C2B69380   3.845  33.497   6.583
 5471POPC   C3B69381   3.682  33.300   6.937
 5471POPC   C4B69382   3.835  33.372   7.333
 5472POPC   NC369383  15.272   3.256   5.467
 5472POPC   PO469384  15.648   3.758   5.697
 5472POPC   GL169385  15.406   3.445   5.924
 5472POPC   GL269386  15.494   3.086   5.943
 5472POPC   C1A69387  15.064   3.408   6.214
 5472POPC   D2A69388  15.127   3.367   6.636
 5472POPC   C3A69389  15.187   3.641   6.973
 5472POPC   C4A69390  14.868   3.656   7.267
 5472POPC   C1B69391  15.581   3.245   6.373
 5472POPC   C2B69392  15.572   3.276   6.842
 5472POPC   C3B69393  15.545   3.394   7.303
 5472POPC   C4B69394  15.525   3.319   7.787
 5473POPC   NC369395   7.007  12.039   5.114
 5473POPC   PO469396   7.601  12.091   5.477
 5473POPC   GL169397   7.407  11.871   5.780
 5473POPC   GL269398   7.720  11.669   5.828
 5473POPC   C1A69399   7.168  12.022   6.150
 5473POPC   D2A69400   6.973  12.073   6.583
 5473POPC   C3A69401   7.130  11.945   6.997
 5473POPC   C4A69402   7.343  11.960   7.421
 5473POPC   C1B69403   7.705  12.019   6.171
 5473POPC   C2B69404   7.492  11.999   6.579
 5473POPC   C3B69405   7.649  11.992   7.006
 5473POPC   C4B69406   7.849  11.704   7.319
 5474POPC   NC369407  13.022  10.958   5.177
 5474POPC   PO469408  12.933  11.564   5.568
 5474POPC   GL169409  13.152  11.327   5.855
 5474POPC   GL269410  13.278  11.004   5.738
 5474POPC   C1A69411  13.017  11.289   6.270
 5474POPC   D2A69412  12.817  11.542   6.580
 5474POPC   C3A69413  12.951  11.390   7.000
 5474POPC   C4A69414  12.630  11.280   7.252
 5474POPC   C1B69415  13.290  10.872   6.156
 5474POPC   C2B69416  13.253  10.900   6.566
 5474POPC   C3B69417  13.183  10.772   6.964
 5474POPC   C4B69418  13.202  11.019   7.305
 5475POPC   NC369419  33.707  44.599   5.338
 5475POPC   PO469420  33.989   0.134   5.583
 5475POPC   GL169421  33.779  44.852   5.855
 5475POPC   GL269422  33.937  44.530   5.836
 5475POPC   C1A69423  33.799  44.693   6.311
 5475POPC   D2A69424  33.909  44.558   6.746
 5475POPC   C3A69425  33.616  44.718   7.065
 5475POPC   C4A69426  33.584  44.702   7.520
 5475POPC   C1B69427  34.237  44.776   6.077
 5475POPC   C2B69428  34.327  44.749   6.500
 5475POPC   C3B69429  34.322  44.865   6.928
 5475POPC   C4B69430  34.064  44.752   7.292
 5476POPC   NC369431  14.105   4.735   5.352
 5476POPC   PO469432  14.312   4.056   5.349
 5476POPC   GL169433  14.310   4.377   5.715
 5476POPC   GL269434  14.032   4.450   5.866
 5476POPC   C1A69435  14.500   4.429   6.135
 5476POPC   D2A69436  14.558   4.121   6.487
 5476POPC   C3A69437  14.413   4.279   6.902
 5476POPC   C4A69438  14.498   4.547   7.253
 5476POPC   C1B69439  14.098   4.065   6.167
 5476POPC   C2B69440  14.104   3.857   6.594
 5476POPC   C3B69441  13.938   4.095   6.973
 5476POPC   C4B69442  14.161   4.125   7.358
 5477POPC   NC369443  39.808  14.722   5.366
 5477POPC   PO469444  39.868  14.046   5.288
 5477POPC   GL169445  40.052  14.335   5.566
 5477POPC   GL269446  39.695  14.386   5.718
 5477POPC   C1A69447  40.089  14.476   6.016
 5477POPC   D2A69448  40.193  14.558   6.446
 5477POPC   C3A69449  40.137  14.312   6.811
 5477POPC   C4A69450  40.005  14.566   7.174
 5477POPC   C1B69451  39.571  14.247   6.139
 5477POPC   C2B69452  39.640  14.382   6.566
 5477POPC   C3B69453  39.664  14.184   6.968
 5477POPC   C4B69454  39.953  14.076   7.259
 5478POPC   NC369455  40.422  10.074   5.576
 5478POPC   PO469456  40.634   9.447   5.520
 5478POPC   GL169457  40.955   9.613   5.804
 5478POPC   GL269458  41.197   9.313   5.826
 5478POPC   C1A69459  40.834   9.832   6.219
 5478POPC   D2A69460  40.777  10.115   6.586
 5478POPC   C3A69461  40.804   9.976   7.014
 5478POPC   C4A69462  40.728   9.894   7.481
 5478POPC   C1B69463  40.896   9.282   6.177
 5478POPC   C2B69464  40.694   9.454   6.552
 5478POPC   C3B69465  40.671   9.495   6.985
 5478POPC   C4B69466  41.002   9.528   7.262
 5479POPC   NC369467  27.658  40.324   5.049
 5479POPC   PO469468  27.912  40.985   5.230
 5479POPC   GL169469  27.779  40.772   5.701
 5479POPC   GL269470  27.945  40.480   5.818
 5479POPC   C1A69471  27.540  40.728   6.146
 5479POPC   D2A69472  27.455  40.551   6.565
 5479POPC   C3A69473  27.570  40.757   6.943
 5479POPC   C4A69474  27.651  40.898   7.366
 5479POPC   C1B69475  28.027  40.661   6.240
 5479POPC   C2B69476  27.956  40.511   6.681
 5479POPC   C3B69477  27.983  40.526   7.143
 5479POPC   C4B69478  27.877  40.462   7.582
 5480POPC   NC369479  15.765   8.730   5.465
 5480POPC   PO469480  16.392   9.036   5.588
 5480POPC   GL169481  16.109   8.928   5.881
 5480POPC   GL269482  15.840   9.143   5.849
 5480POPC   C1A69483  16.016   9.025   6.321
 5480POPC   D2A69484  16.167   8.834   6.685
 5480POPC   C3A69485  16.132   8.990   7.083
 5480POPC   C4A69486  15.780   8.823   7.238
 5480POPC   C1B69487  15.553   9.268   6.135
 5480POPC   C2B69488  15.643   9.339   6.529
 5480POPC   C3B69489  15.654   9.203   6.921
 5480POPC   C4B69490  15.823   9.373   7.282
 5481POPC   NC369491  33.022   7.974   5.713
 5481POPC   PO469492  32.855   8.599   5.563
 5481POPC   GL169493  32.757   8.415   5.927
 5481POPC   GL269494  33.096   8.396   5.977
 5481POPC   C1A69495  32.782   8.167   6.307
 5481POPC   D2A69496  33.023   8.205   6.695
 5481POPC   C3A69497  32.812   8.208   7.080
 5481POPC   C4A69498  32.975   8.298   7.488
 5481POPC   C1B69499  33.074   8.615   6.336
 5481POPC   C2B69500  33.313   8.645   6.686
 5481POPC   C3B69501  33.252   8.511   7.087
 5481POPC   C4B69502  33.362   8.649   7.492
 5482POPC   NC369503  34.764   8.976   5.508
 5482POPC   PO469504  34.688   9.513   5.644
 5482POPC   GL169505  34.538   9.177   5.925
 5482POPC   GL269506  34.738   8.846   5.989
 5482POPC   C1A69507  34.419   9.082   6.333
 5482POPC   D2A69508  34.272   8.905   6.717
 5482POPC   C3A69509  34.429   9.182   6.979
 5482POPC   C4A69510  34.632   9.219   7.334
 5482POPC   C1B69511  35.105   8.732   6.193
 5482POPC   C2B69512  35.106   8.722   6.619
 5482POPC   C3B69513  34.748   8.711   6.852
 5482POPC   C4B69514  34.708   8.683   7.245
 5483POPC   NC369515  34.698   3.756   5.577
 5483POPC   PO469516  34.149   3.359   5.387
 5483POPC   GL169517  34.239   3.597   5.768
 5483POPC   GL269518  34.485   3.329   5.820
 5483POPC   C1A69519  34.390   3.724   6.208
 5483POPC   D2A69520  34.419   3.869   6.666
 5483POPC   C3A69521  34.684   3.662   7.031
 5483POPC   C4A69522  34.847   3.654   7.484
 5483POPC   C1B69523  34.186   3.244   6.149
 5483POPC   C2B69524  34.288   3.299   6.579
 5483POPC   C3B69525  34.377   3.207   7.003
 5483POPC   C4B69526  34.714   3.200   7.289
 5484POPC   NC369527  22.013   9.857   5.343
 5484POPC   PO469528  22.430   9.354   5.551
 5484POPC   GL169529  22.276   9.730   5.770
 5484POPC   GL269530  21.966   9.583   5.783
 5484POPC   C1A69531  22.101   9.872   6.190
 5484POPC   D2A69532  22.215   9.670   6.570
 5484POPC   C3A69533  22.147   9.909   6.934
 5484POPC   C4A69534  22.352   9.759   7.296
 5484POPC   C1B69535  21.838   9.417   6.157
 5484POPC   C2B69536  21.728   9.468   6.565
 5484POPC   C3B69537  21.939   9.444   6.954
 5484POPC   C4B69538  21.851   9.669   7.299
 5485POPC   NC369539  44.589  25.852   5.496
 5485POPC   PO469540   0.141  26.307   5.460
 5485POPC   GL169541  44.829  26.203   5.783
 5485POPC   GL269542  44.986  25.899   5.861
 5485POPC   C1A69543  44.581  26.237   6.196
 5485POPC   D2A69544  44.302  26.097   6.584
 5485POPC   C3A69545  44.524  26.129   7.017
 5485POPC   C4A69546  44.403  26.140   7.446
 5485POPC   C1B69547  44.801  25.735   6.195
 5485POPC   C2B69548  44.776  25.924   6.567
 5485POPC   C3B69549  44.772  25.709   6.916
 5485POPC   C4B69550  44.989  25.772   7.279
 5486POPC   NC369551   7.636   5.553   5.444
 5486POPC   PO469552   7.362   6.210   5.628
 5486POPC   GL169553   7.602   5.945   5.873
 5486POPC   GL269554   7.405   5.665   5.889
 5486POPC   C1A69555   7.539   5.935   6.324
 5486POPC   D2A69556   7.255   6.167   6.582
 5486POPC   C3A69557   7.356   6.280   6.996
 5486POPC   C4A69558   7.504   5.914   7.197
 5486POPC   C1B69559   7.246   5.478   6.282
 5486POPC   C2B69560   7.348   5.588   6.742
 5486POPC   C3B69561   7.189   5.506   7.192
 5486POPC   C4B69562   7.171   5.274   7.601
 5487POPC   NC369563  41.138  20.023   5.458
 5487POPC   PO469564  40.680  19.511   5.126
 5487POPC   GL169565  40.846  19.584   5.564
 5487POPC   GL269566  40.524  19.753   5.716
 5487POPC   C1A69567  40.911  19.743   6.025
 5487POPC   D2A69568  40.887  19.928   6.471
 5487POPC   C3A69569  41.034  19.821   6.915
 5487POPC   C4A69570  40.823  19.668   7.297
 5487POPC   C1B69571  40.517  20.080   6.084
 5487POPC   C2B69572  40.343  20.018   6.488
 5487POPC   C3B69573  40.538  19.950   6.849
 5487POPC   C4B69574  40.356  19.863   7.188
 5488POPC   NC369575  17.064  18.556   5.392
 5488POPC   PO469576  17.673  18.947   5.281
 5488POPC   GL169577  17.625  19.151   5.699
 5488POPC   GL269578  17.308  18.951   5.691
 5488POPC   C1A69579  17.658  19.285   6.167
 5488POPC   D2A69580  17.509  19.399   6.630
 5488POPC   C3A69581  17.648  19.199   7.022
 5488POPC   C4A69582  17.943  19.219   7.343
 5488POPC   C1B69583  17.178  19.044   6.092
 5488POPC   C2B69584  17.281  18.935   6.498
 5488POPC   C3B69585  17.246  18.896   6.921
 5488POPC   C4B69586  17.310  18.825   7.371
 5489POPC   NC369587  25.642  36.188   5.396
 5489POPC   PO469588  24.949  36.333   5.391
 5489POPC   GL169589  25.244  36.267   5.727
 5489POPC   GL269590  25.144  35.944   5.792
 5489POPC   C1A69591  25.423  36.308   6.152
 5489POPC   D2A69592  25.274  36.493   6.548
 5489POPC   C3A69593  25.332  36.224   6.893
 5489POPC   C4A69594  25.244  36.402   7.272
 5489POPC   C1B69595  25.143  35.834   6.235
 5489POPC   C2B69596  25.248  35.750   6.682
 5489POPC   C3B69597  25.083  35.844   7.128
 5489POPC   C4B69598  25.260  35.957   7.550
 5490POPC   NC369599  19.240  30.523   5.521
 5490POPC   PO469600  18.882  31.103   5.489
 5490POPC   GL169601  18.907  30.769   5.839
 5490POPC   GL269602  18.906  30.373   5.899
 5490POPC   C1A69603  18.705  30.696   6.239
 5490POPC   D2A69604  18.856  30.715   6.649
 5490POPC   C3A69605  18.787  30.793   7.056
 5490POPC   C4A69606  19.218  30.887   7.197
 5490POPC   C1B69607  19.213  30.473   6.215
 5490POPC   C2B69608  19.327  30.553   6.636
 5490POPC   C3B69609  19.144  30.412   7.058
 5490POPC   C4B69610  19.392  30.414   7.454
 5491POPC   NC369611  19.035  12.719   5.368
 5491POPC   PO469612  19.578  13.134   5.329
 5491POPC   GL169613  19.451  12.921   5.723
 5491POPC   GL269614  19.125  13.125   5.762
 5491POPC   C1A69615  19.186  12.730   6.062
 5491POPC   D2A69616  18.834  12.858   6.349
 5491POPC   C3A69617  18.866  12.799   6.783
 5491POPC   C4A69618  18.980  12.615   7.181
 5491POPC   C1B69619  19.167  13.265   6.217
 5491POPC   C2B69620  19.150  13.215   6.684
 5491POPC   C3B69621  19.013  13.125   7.142
 5491POPC   C4B69622  19.050  13.157   7.603
 5492POPC   NC369623   4.905  28.697   5.549
 5492POPC   PO469624   5.145  28.028   5.529
 5492POPC   GL169625   5.121  28.303   5.864
 5492POPC   GL269626   5.386  28.557   5.845
 5492POPC   C1A69627   4.970  28.242   6.262
 5492POPC   D2A69628   5.116  28.192   6.642
 5492POPC   C3A69629   4.916  28.214   6.997
 5492POPC   C4A69630   5.148  28.219   7.364
 5492POPC   C1B69631   5.343  28.710   6.258
 5492POPC   C2B69632   5.467  28.535   6.637
 5492POPC   C3B69633   5.280  28.605   7.008
 5492POPC   C4B69634   5.376  28.985   7.209
 5493POPC   NC369635  44.020   2.981   5.402
 5493POPC   PO469636  43.507   2.552   5.433
 5493POPC   GL169637  43.692   2.596   5.844
 5493POPC   GL269638  44.054   2.622   5.835
 5493POPC   C1A69639  43.740   2.915   6.175
 5493POPC   D2A69640  43.911   3.124   6.554
 5493POPC   C3A69641  43.665   2.973   6.897
 5493POPC   C4A69642  43.723   2.803   7.294
 5493POPC   C1B69643  44.237   2.748   6.213
 5493POPC   C2B69644  44.276   2.755   6.645
 5493POPC   C3B69645  44.168   2.714   7.074
 5493POPC   C4B69646  44.117   2.522   7.502
 5494POPC   NC369647  13.020  44.162   5.101
 5494POPC   PO469648  12.763  43.628   5.467
 5494POPC   GL169649  12.690  43.747   5.861
 5494POPC   GL269650  12.408  43.943   5.810
 5494POPC   C1A69651  12.778  43.590   6.278
 5494POPC   D2A69652  12.934  43.840   6.618
 5494POPC   C3A69653  13.237  43.676   6.887
 5494POPC   C4A69654  13.106  43.838   7.285
 5494POPC   C1B69655  12.545  44.057   6.241
 5494POPC   C2B69656  12.632  44.263   6.619
 5494POPC   C3B69657  12.639  44.078   7.020
 5494POPC   C4B69658  12.613  43.862   7.414
 5495POPC   NC369659  16.705  23.274   5.402
 5495POPC   PO469660  16.969  22.658   5.365
 5495POPC   GL169661  16.943  22.961   5.731
 5495POPC   GL269662  16.629  23.059   5.866
 5495POPC   C1A69663  17.031  23.043   6.177
 5495POPC   D2A69664  16.757  23.035   6.554
 5495POPC   C3A69665  16.932  23.093   6.942
 5495POPC   C4A69666  16.803  22.909   7.323
 5495POPC   C1B69667  16.371  23.133   6.225
 5495POPC   C2B69668  16.228  23.032   6.620
 5495POPC   C3B69669  16.422  23.018   6.987
 5495POPC   C4B69670  16.449  23.344   7.249
 5496POPC   NC369671  28.197   0.452   5.330
 5496POPC   PO469672  28.710   0.764   5.618
 5496POPC   GL169673  28.439   0.539   5.898
 5496POPC   GL269674  28.344   0.205   5.854
 5496POPC   C1A69675  28.389   0.533   6.332
 5496POPC   D2A69676  28.220   0.568   6.726
 5496POPC   C3A69677  28.478   0.715   7.004
 5496POPC   C4A69678  28.511   0.648   7.430
 5496POPC   C1B69679  28.314  44.989   6.247
 5496POPC   C2B69680  28.470   0.115   6.651
 5496POPC   C3B69681  28.436   0.208   7.090
 5496POPC   C4B69682  28.304   0.170   7.503
 5497POPC   NC369683  19.130   6.070   5.555
 5497POPC   PO469684  19.141   5.445   5.360
 5497POPC   GL169685  19.032   5.438   5.829
 5497POPC   GL269686  19.242   5.319   6.018
 5497POPC   C1A69687  19.023   5.743   6.210
 5497POPC   D2A69688  18.896   5.788   6.656
 5497POPC   C3A69689  18.921   6.173   6.907
 5497POPC   C4A69690  18.853   6.150   7.318
 5497POPC   C1B69691  19.486   5.541   6.280
 5497POPC   C2B69692  19.414   5.734   6.652
 5497POPC   C3B69693  19.274   5.844   7.063
 5497POPC   C4B69694  19.526   5.757   7.393
 5498POPC   NC369695  44.964  16.274   5.272
 5498POPC   PO469696  44.484  15.814   5.393
 5498POPC   GL169697  44.731  15.935   5.771
 5498POPC   GL269698  44.765  16.325   5.738
 5498POPC   C1A69699  44.653  15.733   6.207
 5498POPC   D2A69700  44.778  15.622   6.660
 5498POPC   C3A69701  44.554  15.822   7.012
 5498POPC   C4A69702  44.313  15.662   7.387
 5498POPC   C1B69703  44.733  16.254   6.194
 5498POPC   C2B69704  44.611  16.155   6.619
 5498POPC   C3B69705  44.512  16.348   7.045
 5498POPC   C4B69706  44.536  16.326   7.528
 5499POPC   NC369707  25.772  24.936   5.657
 5499POPC   PO469708  25.176  25.110   5.352
 5499POPC   GL169709  25.236  25.299   5.760
 5499POPC   GL269710  25.388  25.646   5.755
 5499POPC   C1A69711  25.016  25.263   6.150
 5499POPC   D2A69712  24.961  25.053   6.533
 5499POPC   C3A69713  25.046  25.251   6.931
 5499POPC   C4A69714  25.049  25.095   7.356
 5499POPC   C1B69715  25.506  25.454   6.161
 5499POPC   C2B69716  25.329  25.517   6.568
 5499POPC   C3B69717  25.536  25.471   6.960
 5499POPC   C4B69718  25.526  25.292   7.348
 5500POPC   NC369719   4.339  18.837   5.364
 5500POPC   PO469720   4.043  19.438   5.353
 5500POPC   GL169721   4.316  19.268   5.749
 5500POPC   GL269722   4.438  18.912   5.839
 5500POPC   C1A69723   4.308  19.188   6.231
 5500POPC   D2A69724   4.476  19.274   6.619
 5500POPC   C3A69725   4.232  19.372   6.925
 5500POPC   C4A69726   4.366  19.308   7.286
 5500POPC   C1B69727   4.413  18.675   6.213
 5500POPC   C2B69728   4.435  18.779   6.631
 5500POPC   C3B69729   4.329  18.871   7.031
 5500POPC   C4B69730   4.154  18.705   7.390
 5501POPC   NC369731   8.195  29.241   5.144
 5501POPC   PO469732   7.907  29.174   5.693
 5501POPC   GL169733   8.230  29.247   5.937
 5501POPC   GL269734   8.331  29.556   5.823
 5501POPC   C1A69735   8.285  29.065   6.329
 5501POPC   D2A69736   8.039  29.018   6.700
 5501POPC   C3A69737   8.309  29.085   7.048
 5501POPC   C4A69738   8.111  28.973   7.378
 5501POPC   C1B69739   8.279  29.611   6.272
 5501POPC   C2B69740   8.318  29.460   6.678
 5501POPC   C3B69741   7.991  29.487   6.967
 5501POPC   C4B69742   8.049  29.468   7.399
 5502POPC   NC369743  12.595  17.687   5.548
 5502POPC   PO469744  13.087  17.207   5.652
 5502POPC   GL169745  12.873  17.438   5.893
 5502POPC   GL269746  12.545  17.291   5.854
 5502POPC   C1A69747  12.904  17.673   6.256
 5502POPC   D2A69748  12.999  17.441   6.637
 5502POPC   C3A69749  13.128  17.708   6.957
 5502POPC   C4A69750  12.878  17.673   7.306
 5502POPC   C1B69751  12.615  17.227   6.281
 5502POPC   C2B69752  12.465  17.409   6.642
 5502POPC   C3B69753  12.674  17.253   6.993
 5502POPC   C4B69754  12.565  17.263   7.386
 5503POPC   NC369755   1.673  39.933   5.607
 5503POPC   PO469756   2.295  40.090   5.502
 5503POPC   GL169757   2.178  39.989   5.888
 5503POPC   GL269758   2.391  39.685   5.824
 5503POPC   C1A69759   1.873  40.020   6.257
 5503POPC   D2A69760   1.898  40.270   6.667
 5503POPC   C3A69761   1.857  40.094   7.077
 5503POPC   C4A69762   1.737  39.805   7.388
 5503POPC   C1B69763   2.320  39.666   6.239
 5503POPC   C2B69764   2.237  39.889   6.585
 5503POPC   C3B69765   2.351  39.923   6.960
 5503POPC   C4B69766   2.232  39.764   7.307
 5504POPC   NC369767   2.166  42.119   5.461
 5504POPC   PO469768   2.253  42.775   5.333
 5504POPC   GL169769   1.963  42.661   5.725
 5504POPC   GL269770   1.798  42.303   5.801
 5504POPC   C1A69771   2.004  42.594   6.201
 5504POPC   D2A69772   1.919  42.594   6.667
 5504POPC   C3A69773   2.128  42.407   7.024
 5504POPC   C4A69774   1.723  42.374   7.208
 5504POPC   C1B69775   2.008  42.073   6.162
 5504POPC   C2B69776   2.125  42.093   6.599
 5504POPC   C3B69777   1.908  41.940   6.964
 5504POPC   C4B69778   2.026  42.014   7.393
 5505POPC   NC369779  36.396  16.898   5.342
 5505POPC   PO469780  35.771  16.757   5.560
 5505POPC   GL169781  36.115  16.682   5.783
 5505POPC   GL269782  35.963  16.396   5.908
 5505POPC   C1A69783  36.281  16.908   6.120
 5505POPC   D2A69784  36.136  17.068   6.514
 5505POPC   C3A69785  36.137  16.838   6.892
 5505POPC   C4A69786  36.251  16.649   7.274
 5505POPC   C1B69787  35.872  16.263   6.307
 5505POPC   C2B69788  35.778  16.454   6.701
 5505POPC   C3B69789  35.803  16.478   7.133
 5505POPC   C4B69790  35.753  16.246   7.525
 5506POPC   NC369791  41.664  17.284   5.413
 5506POPC   PO469792  41.323  17.941   5.541
 5506POPC   GL169793  41.577  17.632   5.776
 5506POPC   GL269794  41.921  17.741   5.898
 5506POPC   C1A69795  41.595  17.273   6.086
 5506POPC   D2A69796  41.451  17.090   6.491
 5506POPC   C3A69797  41.660  17.252   6.867
 5506POPC   C4A69798  41.537  17.380   7.284
 5506POPC   C1B69799  41.598  17.888   6.197
 5506POPC   C2B69800  41.377  17.919   6.563
 5506POPC   C3B69801  41.476  17.745   6.920
 5506POPC   C4B69802  41.539  17.886   7.304
 5507POPC   NC369803   6.174   0.050   5.415
 5507POPC   PO469804   5.727  44.497   5.396
 5507POPC   GL169805   5.961  44.630   5.745
 5507POPC   GL269806   5.821  44.914   5.780
 5507POPC   C1A69807   6.146  44.627   6.169
 5507POPC   D2A69808   6.206  44.840   6.569
 5507POPC   C3A69809   6.060  44.591   6.908
 5507POPC   C4A69810   6.124  44.646   7.310
 5507POPC   C1B69811   5.756  44.963   6.195
 5507POPC   C2B69812   5.696  44.818   6.617
 5507POPC   C3B69813   5.779  45.000   7.028
 5507POPC   C4B69814   5.710  44.943   7.488
 5508POPC   NC369815   8.209   4.392   4.927
 5508POPC   PO469816   7.930   4.099   5.397
 5508POPC   GL169817   8.105   4.307   5.788
 5508POPC   GL269818   8.421   4.098   5.856
 5508POPC   C1A69819   7.876   4.448   6.207
 5508POPC   D2A69820   7.922   4.256   6.644
 5508POPC   C3A69821   8.000   4.563   6.957
 5508POPC   C4A69822   8.279   4.597   7.317
 5508POPC   C1B69823   8.329   4.230   6.285
 5508POPC   C2B69824   8.429   4.396   6.692
 5508POPC   C3B69825   8.279   4.135   7.029
 5508POPC   C4B69826   8.163   3.872   7.376
 5509POPC   NC369827  17.108  41.913   5.416
 5509POPC   PO469828  16.591  41.519   5.647
 5509POPC   GL169829  16.781  41.863   5.930
 5509POPC   GL269830  17.164  41.845   5.913
 5509POPC   C1A69831  16.684  41.865   6.405
 5509POPC   D2A69832  16.700  41.507   6.736
 5509POPC   C3A69833  16.595  41.569   7.176
 5509POPC   C4A69834  16.392  41.424   7.543
 5509POPC   C1B69835  17.109  41.599   6.273
 5509POPC   C2B69836  17.128  41.771   6.671
 5509POPC   C3B69837  17.090  41.616   7.093
 5509POPC   C4B69838  16.991  41.408   7.475
 5510POPC   NC369839  31.525  36.131   5.296
 5510POPC   PO469840  31.064  36.428   5.503
 5510POPC   GL169841  31.418  36.382   5.844
 5510POPC   GL269842  31.707  36.130   5.766
 5510POPC   C1A69843  31.449  36.487   6.323
 5510POPC   D2A69844  31.343  36.541   6.783
 5510POPC   C3A69845  31.458  36.157   7.032
 5510POPC   C4A69846  31.193  35.799   7.153
 5510POPC   C1B69847  31.807  36.140   6.175
 5510POPC   C2B69848  31.711  35.978   6.571
 5510POPC   C3B69849  31.939  35.984   6.927
 5510POPC   C4B69850  31.917  36.220   7.280
 5511POPC   NC369851  29.189  32.393   5.460
 5511POPC   PO469852  29.371  33.007   5.410
 5511POPC   GL169853  29.050  32.840   5.703
 5511POPC   GL269854  29.309  32.663   5.879
 5511POPC   C1A69855  28.876  32.816   6.144
 5511POPC   D2A69856  28.877  33.098   6.516
 5511POPC   C3A69857  28.993  32.909   6.948
 5511POPC   C4A69858  28.991  33.204   7.335
 5511POPC   C1B69859  29.301  33.094   6.107
 5511POPC   C2B69860  29.377  33.041   6.549
 5511POPC   C3B69861  29.362  33.243   6.939
 5511POPC   C4B69862  29.403  33.551   7.289
 5512POPC   NC369863   7.580   4.836   5.566
 5512POPC   PO469864   7.164   5.391   5.445
 5512POPC   GL169865   7.254   5.140   5.832
 5512POPC   GL269866   7.602   5.214   5.930
 5512POPC   C1A69867   7.413   4.851   6.204
 5512POPC   D2A69868   7.509   5.107   6.547
 5512POPC   C3A69869   7.698   4.972   6.890
 5512POPC   C4A69870   7.464   5.070   7.228
 5512POPC   C1B69871   7.753   5.462   6.270
 5512POPC   C2B69872   7.975   5.359   6.650
 5512POPC   C3B69873   7.785   5.474   7.031
 5512POPC   C4B69874   7.681   5.496   7.449
 5513POPC   NC369875  18.307  43.557   5.423
 5513POPC   PO469876  18.224  42.949   5.181
 5513POPC   GL169877  18.277  43.096   5.654
 5513POPC   GL269878  18.242  42.846   5.874
 5513POPC   C1A69879  18.279  43.295   6.116
 5513POPC   D2A69880  18.446  43.380   6.561
 5513POPC   C3A69881  18.287  43.457   7.007
 5513POPC   C4A69882  18.418  43.503   7.479
 5513POPC   C1B69883  18.226  42.839   6.319
 5513POPC   C2B69884  18.272  42.666   6.701
 5513POPC   C3B69885  18.080  42.844   7.031
 5513POPC   C4B69886  18.193  43.056   7.360
 5514POPC   NC369887  19.593  16.110   5.375
 5514POPC   PO469888  20.223  16.255   5.523
 5514POPC   GL169889  19.931  16.167   5.853
 5514POPC   GL269890  19.940  15.857   6.003
 5514POPC   C1A69891  20.099  16.315   6.286
 5514POPC   D2A69892  20.144  16.300   6.763
 5514POPC   C3A69893  19.821  16.028   6.915
 5514POPC   C4A69894  19.791  15.840   7.295
 5514POPC   C1B69895  19.770  15.550   6.236
 5514POPC   C2B69896  19.635  15.641   6.636
 5514POPC   C3B69897  19.501  15.555   7.031
 5514POPC   C4B69898  19.661  15.344   7.434
 5515POPC   NC369899  24.403  12.217   5.157
 5515POPC   PO469900  24.742  11.850   5.516
 5515POPC   GL169901  24.573  11.950   5.926
 5515POPC   GL269902  24.222  11.917   5.889
 5515POPC   C1A69903  24.660  12.000   6.381
 5515POPC   D2A69904  24.793  12.297   6.705
 5515POPC   C3A69905  24.627  12.189   7.111
 5515POPC   C4A69906  24.668  12.465   7.451
 5515POPC   C1B69907  24.149  11.936   6.343
 5515POPC   C2B69908  24.251  12.036   6.780
 5515POPC   C3B69909  24.132  11.951   7.208
 5515POPC   C4B69910  24.180  11.625   7.552
 5516POPC   NC369911  33.279  10.384   5.305
 5516POPC   PO469912  32.828  10.795   5.136
 5516POPC   GL169913  32.901  10.599   5.646
 5516POPC   GL269914  33.210  10.406   5.829
 5516POPC   C1A69915  32.903  10.625   6.164
 5516POPC   D2A69916  32.719  10.521   6.617
 5516POPC   C3A69917  32.903  10.679   7.038
 5516POPC   C4A69918  33.193  10.976   7.252
 5516POPC   C1B69919  33.344  10.163   6.244
 5516POPC   C2B69920  33.364  10.097   6.744
 5516POPC   C3B69921  33.097  10.184   7.141
 5516POPC   C4B69922  33.116  10.082   7.651
 5517POPC   NC369923  19.241  28.552   5.536
 5517POPC   PO469924  18.990  27.956   5.449
 5517POPC   GL169925  19.068  28.129   5.862
 5517POPC   GL269926  18.798  28.351   5.931
 5517POPC   C1A69927  19.199  28.440   6.203
 5517POPC   D2A69928  18.951  28.667   6.516
 5517POPC   C3A69929  19.100  28.600   6.933
 5517POPC   C4A69930  18.971  28.238   7.111
 5517POPC   C1B69931  18.736  28.231   6.368
 5517POPC   C2B69932  18.600  28.079   6.770
 5517POPC   C3B69933  18.530  28.022   7.227
 5517POPC   C4B69934  18.698  28.230   7.575
 5518POPC   NC369935  31.619   3.211   5.439
 5518POPC   PO469936  31.155   3.698   5.644
 5518POPC   GL169937  31.284   3.374   5.875
 5518POPC   GL269938  31.668   3.367   5.912
 5518POPC   C1A69939  31.344   3.456   6.298
 5518POPC   D2A69940  31.587   3.405   6.618
 5518POPC   C3A69941  31.353   3.583   6.969
 5518POPC   C4A69942  31.095   3.361   7.283
 5518POPC   C1B69943  31.831   3.709   6.197
 5518POPC   C2B69944  31.955   3.759   6.649
 5518POPC   C3B69945  31.851   3.508   7.043
 5518POPC   C4B69946  31.931   3.539   7.471
 5519POPC   NC369947   8.814  16.512   5.515
 5519POPC   PO469948   8.537  17.055   5.318
 5519POPC   GL169949   8.870  16.954   5.741
 5519POPC   GL269950   8.737  16.695   5.990
 5519POPC   C1A69951   9.222  16.667   6.048
 5519POPC   D2A69952   9.068  16.570   6.499
 5519POPC   C3A69953   9.217  16.354   6.882
 5519POPC   C4A69954   9.091  16.256   7.317
 5519POPC   C1B69955   8.950  17.055   6.267
 5519POPC   C2B69956   9.003  17.114   6.733
 5519POPC   C3B69957   9.019  16.792   7.054
 5519POPC   C4B69958   8.865  16.726   7.476
 5520POPC   NC369959  34.427  11.522   5.171
 5520POPC   PO469960  34.716  12.082   5.499
 5520POPC   GL169961  34.436  12.178   5.844
 5520POPC   GL269962  34.387  12.545   5.892
 5520POPC   C1A69963  34.472  11.957   6.239
 5520POPC   D2A69964  34.358  11.978   6.641
 5520POPC   C3A69965  34.612  11.942   6.997
 5520POPC   C4A69966  34.462  12.200   7.323
 5520POPC   C1B69967  34.527  12.502   6.338
 5520POPC   C2B69968  34.817  12.573   6.710
 5520POPC   C3B69969  34.902  12.370   7.131
 5520POPC   C4B69970  35.080  12.166   7.511
 5521POPC   NC369971  27.123   1.085   5.435
 5521POPC   PO469972  26.731   1.541   5.235
 5521POPC   GL169973  26.738   1.376   5.681
 5521POPC   GL269974  27.073   1.424   5.832
 5521POPC   C1A69975  26.663   1.411   6.172
 5521POPC   D2A69976  26.509   1.181   6.560
 5521POPC   C3A69977  26.663   1.247   6.985
 5521POPC   C4A69978  26.373   1.342   7.301
 5521POPC   C1B69979  27.116   1.630   6.242
 5521POPC   C2B69980  26.968   1.606   6.658
 5521POPC   C3B69981  27.117   1.499   7.036
 5521POPC   C4B69982  27.212   1.174   7.283
 5522POPC   NC369983  43.467  20.940   5.495
 5522POPC   PO469984  43.107  20.343   5.433
 5522POPC   GL169985  43.016  20.562   5.806
 5522POPC   GL269986  43.335  20.706   5.938
 5522POPC   C1A69987  42.918  20.701   6.232
 5522POPC   D2A69988  43.208  20.746   6.566
 5522POPC   C3A69989  43.032  20.595   6.924
 5522POPC   C4A69990  43.075  20.711   7.332
 5522POPC   C1B69991  43.285  20.343   6.234
 5522POPC   C2B69992  43.239  20.178   6.675
 5522POPC   C3B69993  43.384  20.237   7.114
 5522POPC   C4B69994  43.378  20.371   7.567
 5523POPC   NC369995  34.885  30.168   5.482
 5523POPC   PO469996  34.414  29.679   5.511
 5523POPC   GL169997  34.441  29.839   5.857
 5523POPC   GL269998  34.384  30.172   5.750
 5523POPC   C1A69999  34.415  29.789   6.287
 5523POPC   D2A70000  34.703  29.852   6.617
 5523POPC   C3A70001  34.349  29.813   6.893
 5523POPC   C4A70002  34.262  29.574   7.258
 5523POPC   C1B70003  34.649  30.216   6.128
 5523POPC   C2B70004  34.503  30.321   6.552
 5523POPC   C3B70005  34.639  30.234   6.961
 5523POPC   C4B70006  34.663  29.938   7.294
 5524POPC   NC370007  11.707  30.366   5.616
 5524POPC   PO470008  11.397  30.909   5.328
 5524POPC   GL170009  11.273  30.710   5.706
 5524POPC   GL270010  11.507  30.686   5.971
 5524POPC   C1A70011  11.030  30.775   6.083
 5524POPC   D2A70012  11.265  30.903   6.438
 5524POPC   C3A70013  11.035  30.890   6.800
 5524POPC   C4A70014  10.996  30.886   7.205
 5524POPC   C1B70015  11.334  30.401   6.296
 5524POPC   C2B70016  11.252  30.445   6.721
 5524POPC   C3B70017  11.455  30.675   7.059
 5524POPC   C4B70018  11.594  30.408   7.357
 5525POPC   NC370019  25.220   8.559   5.343
 5525POPC   PO470020  25.523   9.122   5.227
 5525POPC   GL170021  25.310   9.014   5.673
 5525POPC   GL270022  25.160   8.699   5.864
 5525POPC   C1A70023  25.428   9.072   6.157
 5525POPC   D2A70024  25.396   9.192   6.626
 5525POPC   C3A70025  25.353   9.054   7.060
 5525POPC   C4A70026  25.339   9.110   7.524
 5525POPC   C1B70027  25.175   8.660   6.365
 5525POPC   C2B70028  25.211   8.585   6.853
 5525POPC   C3B70029  25.096   8.680   7.309
 5525POPC   C4B70030  24.708   8.749   7.555
 5526POPC   NC370031  23.964  44.212   5.484
 5526POPC   PO470032  23.602  44.780   5.511
 5526POPC   GL170033  23.925  44.667   5.795
 5526POPC   GL270034  23.820  44.339   5.945
 5526POPC   C1A70035  24.109  44.646   6.210
 5526POPC   D2A70036  23.941  44.381   6.524
 5526POPC   C3A70037  23.949  44.516   6.931
 5526POPC   C4A70038  23.792  44.241   7.198
 5526POPC   C1B70039  23.530  44.501   6.227
 5526POPC   C2B70040  23.456  44.699   6.607
 5526POPC   C3B70041  23.432  44.563   7.022
 5526POPC   C4B70042  23.092  44.443   7.269
 5527POPC   NC370043  17.913  11.211   5.619
 5527POPC   PO470044  18.487  11.477   5.249
 5527POPC   GL170045  18.437  11.318   5.740
 5527POPC   GL270046  18.173  11.457   5.969
 5527POPC   C1A70047  18.509  11.162   6.214
 5527POPC   D2A70048  18.453  11.313   6.661
 5527POPC   C3A70049  18.215  11.242   7.068
 5527POPC   C4A70050  18.364  11.276   7.508
 5527POPC   C1B70051  17.868  11.591   6.294
 5527POPC   C2B70052  17.798  11.800   6.684
 5527POPC   C3B70053  17.773  11.781   7.136
 5527POPC   C4B70054  17.892  11.503   7.519
 5528POPC   NC370055  39.622  41.752   5.608
 5528POPC   PO470056  38.989  41.541   5.414
 5528POPC   GL170057  39.125  41.595   5.809
 5528POPC   GL270058  39.421  41.409   5.909
 5528POPC   C1A70059  39.166  41.711   6.230
 5528POPC   D2A70060  39.347  41.486   6.556
 5528POPC   C3A70061  39.278  41.700   6.925
 5528POPC   C4A70062  39.567  41.601   7.214
 5528POPC   C1B70063  39.189  41.173   6.152
 5528POPC   C2B70064  38.967  41.140   6.510
 5528POPC   C3B70065  39.013  41.242   6.930
 5528POPC   C4B70066  38.803  41.273   7.334
 5529POPC   NC370067  37.201  17.599   5.429
 5529POPC   PO470068  36.771  17.150   5.472
 5529POPC   GL170069  36.897  17.406   5.815
 5529POPC   GL270070  37.187  17.325   5.867
 5529POPC   C1A70071  36.843  17.502   6.241
 5529POPC   D2A70072  36.980  17.625   6.649
 5529POPC   C3A70073  36.702  17.523   6.978
 5529POPC   C4A70074  36.802  17.769   7.327
 5529POPC   C1B70075  37.283  17.146   6.281
 5529POPC   C2B70076  37.415  16.988   6.671
 5529POPC   C3B70077  37.175  16.997   7.048
 5529POPC   C4B70078  36.990  17.279   7.323
 5530POPC   NC370079   9.169  19.161   5.467
 5530POPC   PO470080   8.778  18.622   5.500
 5530POPC   GL170081   8.805  18.966   5.773
 5530POPC   GL270082   9.129  19.038   5.959
 5530POPC   C1A70083   8.677  19.089   6.172
 5530POPC   D2A70084   8.925  19.212   6.540
 5530POPC   C3A70085   8.752  19.095   6.941
 5530POPC   C4A70086   8.823  18.772   7.200
 5530POPC   C1B70087   9.402  19.209   6.277
 5530POPC   C2B70088   9.382  19.459   6.632
 5530POPC   C3B70089   9.228  19.236   6.987
 5530POPC   C4B70090   8.959  19.272   7.379
 5531POPC   NC370091  42.599  29.134   5.146
 5531POPC   PO470092  42.437  29.609   5.606
 5531POPC   GL170093  42.323  29.235   5.855
 5531POPC   GL270094  42.027  28.983   5.817
 5531POPC   C1A70095  42.139  29.292   6.216
 5531POPC   D2A70096  42.339  29.197   6.555
 5531POPC   C3A70097  42.449  29.485   6.848
 5531POPC   C4A70098  42.414  29.323   7.247
 5531POPC   C1B70099  41.850  28.855   6.217
 5531POPC   C2B70100  42.047  28.750   6.610
 5531POPC   C3B70101  42.306  28.890   6.952
 5531POPC   C4B70102  42.126  28.896   7.327
 5532POPC   NC370103  23.031  26.955   5.544
 5532POPC   PO470104  22.385  27.248   5.424
 5532POPC   GL170105  22.565  27.080   5.829
 5532POPC   GL270106  22.782  26.756   5.927
 5532POPC   C1A70107  22.647  27.143   6.275
 5532POPC   D2A70108  22.789  26.842   6.578
 5532POPC   C3A70109  23.014  26.921   6.952
 5532POPC   C4A70110  22.717  27.021   7.234
 5532POPC   C1B70111  22.955  26.447   6.293
 5532POPC   C2B70112  23.032  26.402   6.769
 5532POPC   C3B70113  22.929  26.500   7.223
 5532POPC   C4B70114  22.851  26.317   7.628
 5533POPC   NC370115  34.234  44.698   5.130
 5533POPC   PO470116  34.799   0.032   5.381
 5533POPC   GL170117  34.656  44.789   5.744
 5533POPC   GL270118  34.461  44.477   5.740
 5533POPC   C1A70119  34.726  44.829   6.184
 5533POPC   D2A70120  34.840  44.647   6.573
 5533POPC   C3A70121  34.858  44.903   6.905
 5533POPC   C4A70122  34.671  44.921   7.291
 5533POPC   C1B70123  34.316  44.267   6.144
 5533POPC   C2B70124  34.465  44.274   6.582
 5533POPC   C3B70125  34.301  44.356   7.003
 5533POPC   C4B70126  34.430  44.459   7.438
 5534POPC   NC370127  33.756   0.509   5.467
 5534POPC   PO470128  33.161   0.549   5.205
 5534POPC   GL170129  33.139   0.459   5.650
 5534POPC   GL270130  33.359   0.696   5.727
 5534POPC   C1A70131  32.832   0.404   6.021
 5534POPC   D2A70132  32.661   0.535   6.443
 5534POPC   C3A70133  32.724   0.279   6.823
 5534POPC   C4A70134  32.816   0.462   7.228
 5534POPC   C1B70135  33.304   0.633   6.147
 5534POPC   C2B70136  33.231   0.799   6.541
 5534POPC   C3B70137  33.206   0.541   6.902
 5534POPC   C4B70138  33.299   0.726   7.291
 5535POPC   NC370139   8.308   1.385   5.524
 5535POPC   PO470140   7.903   0.890   5.484
 5535POPC   GL170141   8.035   1.137   5.852
 5535POPC   GL270142   8.346   0.953   5.841
 5535POPC   C1A70143   8.244   1.347   6.228
 5535POPC   D2A70144   8.569   1.399   6.552
 5535POPC   C3A70145   8.332   1.425   6.937
 5535POPC   C4A70146   8.069   1.444   7.289
 5535POPC   C1B70147   8.125   0.845   6.240
 5535POPC   C2B70148   8.074   1.048   6.620
 5535POPC   C3B70149   8.170   0.938   7.011
 5535POPC   C4B70150   7.961   0.926   7.362
 5536POPC   NC370151  39.522  20.713   5.351
 5536POPC   PO470152  40.131  20.537   5.351
 5536POPC   GL170153  40.194  20.487   5.784
 5536POPC   GL270154  39.965  20.730   5.847
 5536POPC   C1A70155  40.093  20.374   6.205
 5536POPC   D2A70156  40.209  20.521   6.594
 5536POPC   C3A70157  40.139  20.275   6.931
 5536POPC   C4A70158  40.274  20.333   7.355
 5536POPC   C1B70159  40.130  20.895   6.218
 5536POPC   C2B70160  39.999  20.992   6.627
 5536POPC   C3B70161  40.159  20.834   7.002
 5536POPC   C4B70162  39.899  20.683   7.287
 5537POPC   NC370163   1.252  12.588   5.511
 5537POPC   PO470164   1.425  13.223   5.665
 5537POPC   GL170165   1.315  12.899   5.932
 5537POPC   GL270166   0.987  12.827   5.929
 5537POPC   C1A70167   1.305  12.719   6.339
 5537POPC   D2A70168   1.552  12.781   6.696
 5537POPC   C3A70169   1.313  12.710   7.030
 5537POPC   C4A70170   1.161  13.128   7.126
 5537POPC   C1B70171   0.764  12.790   6.309
 5537POPC   C2B70172   0.919  12.863   6.713
 5537POPC   C3B70173   0.808  12.749   7.109
 5537POPC   C4B70174   1.032  12.584   7.456
 5538POPC   NC370175  18.341   4.511   5.508
 5538POPC   PO470176  18.715   3.975   5.745
 5538POPC   GL170177  18.259   4.071   5.826
 5538POPC   GL270178  18.024   4.397   5.887
 5538POPC   C1A70179  18.139   4.039   6.254
 5538POPC   D2A70180  18.452   4.109   6.577
 5538POPC   C3A70181  18.257   4.209   6.959
 5538POPC   C4A70182  18.402   3.908   7.230
 5538POPC   C1B70183  18.320   4.673   6.156
 5538POPC   C2B70184  18.416   4.609   6.583
 5538POPC   C3B70185  18.307   4.726   6.977
 5538POPC   C4B70186  18.576   4.971   7.187
 5539POPC   NC370187   0.528  32.028   5.448
 5539POPC   PO470188   0.341  32.711   5.385
 5539POPC   GL170189   0.537  32.462   5.720
 5539POPC   GL270190   0.283  32.290   5.827
 5539POPC   C1A70191   0.660  32.366   6.175
 5539POPC   D2A70192   0.445  32.450   6.570
 5539POPC   C3A70193   0.636  32.321   6.909
 5539POPC   C4A70194   0.637  32.015   7.192
 5539POPC   C1B70195   0.158  32.166   6.212
 5539POPC   C2B70196  44.954  32.249   6.570
 5539POPC   C3B70197   0.166  32.090   6.925
 5539POPC   C4B70198   0.221  32.332   7.262
 5540POPC   NC370199  23.146  44.864   5.464
 5540POPC   PO470200  22.887  44.269   5.585
 5540POPC   GL170201  23.026  44.575   5.920
 5540POPC   GL270202  23.285  44.844   5.949
 5540POPC   C1A70203  23.004  44.665   6.356
 5540POPC   D2A70204  23.014  44.465   6.743
 5540POPC   C3A70205  22.669  44.545   7.030
 5540POPC   C4A70206  22.677  44.534   7.539
 5540POPC   C1B70207  23.216   0.171   6.271
 5540POPC   C2B70208  23.228   0.156   6.730
 5540POPC   C3B70209  23.056  44.910   7.025
 5540POPC   C4B70210  22.740  44.967   7.305
 5541POPC   NC370211  44.060  29.176   5.536
 5541POPC   PO470212  43.642  28.720   5.821
 5541POPC   GL170213  43.693  29.191   5.938
 5541POPC   GL270214  43.982  29.462   5.943
 5541POPC   C1A70215  43.735  29.335   6.382
 5541POPC   D2A70216  43.865  29.406   6.832
 5541POPC   C3A70217  43.757  29.079   7.160
 5541POPC   C4A70218  43.559  28.642   7.136
 5541POPC   C1B70219  44.172  29.131   6.195
 5541POPC   C2B70220  44.269  29.105   6.624
 5541POPC   C3B70221  44.254  29.146   7.048
 5541POPC   C4B70222  44.242  28.876   7.407
 5542POPC   NC370223   0.936  39.977   5.347
 5542POPC   PO470224   1.423  39.537   5.523
 5542POPC   GL170225   1.260  39.723   5.873
 5542POPC   GL270226   1.013  39.963   5.843
 5542POPC   C1A70227   1.400  39.748   6.273
 5542POPC   D2A70228   1.523  39.921   6.666
 5542POPC   C3A70229   1.366  39.708   7.033
 5542POPC   C4A70230   1.249  39.769   7.483
 5542POPC   C1B70231   1.140  40.173   6.236
 5542POPC   C2B70232   1.050  40.145   6.695
 5542POPC   C3B70233   1.342  40.216   7.032
 5542POPC   C4B70234   1.468  40.290   7.405
 5543POPC   NC370235   5.889  36.503   5.489
 5543POPC   PO470236   5.970  35.776   5.527
 5543POPC   GL170237   5.911  36.094   5.802
 5543POPC   GL270238   6.230  36.224   5.819
 5543POPC   C1A70239   5.767  36.097   6.205
 5543POPC   D2A70240   5.893  35.933   6.577
 5543POPC   C3A70241   5.655  36.068   6.929
 5543POPC   C4A70242   5.750  35.960   7.324
 5543POPC   C1B70243   6.128  36.449   6.185
 5543POPC   C2B70244   5.906  36.458   6.585
 5543POPC   C3B70245   6.133  36.256   6.916
 5543POPC   C4B70246   6.178  36.225   7.347
 5544POPC   NC370247  26.320   9.959   5.379
 5544POPC   PO470248  25.782   9.614   5.447
 5544POPC   GL170249  25.932   9.903   5.729
 5544POPC   GL270250  26.222   9.713   5.819
 5544POPC   C1A70251  26.069  10.076   6.118
 5544POPC   D2A70252  25.928   9.914   6.499
 5544POPC   C3A70253  26.186   9.660   6.745
 5544POPC   C4A70254  26.159   9.758   7.184
 5544POPC   C1B70255  25.875   9.522   6.085
 5544POPC   C2B70256  25.872   9.325   6.497
 5544POPC   C3B70257  25.736   9.472   6.907
 5544POPC   C4B70258  25.763   9.349   7.322
 5545POPC   NC370259  16.204  22.431   5.428
 5545POPC   PO470260  15.728  21.996   5.439
 5545POPC   GL170261  16.040  22.045   5.767
 5545POPC   GL270262  15.974  22.350   5.888
 5545POPC   C1A70263  16.246  21.990   6.193
 5545POPC   D2A70264  16.328  22.257   6.559
 5545POPC   C3A70265  16.321  22.102   6.976
 5545POPC   C4A70266  16.206  22.170   7.381
 5545POPC   C1B70267  15.821  22.232   6.297
 5545POPC   C2B70268  15.624  22.234   6.664
 5545POPC   C3B70269  15.801  22.227   7.048
 5545POPC   C4B70270  15.699  22.094   7.434
 5546POPC   NC370271   8.878  37.925   5.334
 5546POPC   PO470272   9.415  37.481   5.429
 5546POPC   GL170273   9.016  37.566   5.673
 5546POPC   GL270274   8.981  37.903   5.841
 5546POPC   C1A70275   8.755  37.498   6.061
 5546POPC   D2A70276   8.907  37.689   6.443
 5546POPC   C3A70277   8.738  37.638   6.855
 5546POPC   C4A70278   8.887  37.612   7.257
 5546POPC   C1B70279   9.316  37.728   6.129
 5546POPC   C2B70280   9.479  37.639   6.532
 5546POPC   C3B70281   9.271  37.758   6.899
 5546POPC   C4B70282   9.164  38.034   7.218
 5547POPC   NC370283  33.121  24.952   5.547
 5547POPC   PO470284  33.145  25.520   5.215
 5547POPC   GL170285  32.926  25.388   5.701
 5547POPC   GL270286  33.095  25.559   5.998
 5547POPC   C1A70287  32.925  25.124   6.151
 5547POPC   D2A70288  33.017  25.358   6.548
 5547POPC   C3A70289  33.154  25.173   6.928
 5547POPC   C4A70290  33.351  25.319   7.312
 5547POPC   C1B70291  32.684  25.569   6.213
 5547POPC   C2B70292  32.518  25.498   6.623
 5547POPC   C3B70293  32.594  25.699   7.020
 5547POPC   C4B70294  33.020  25.647   7.170
 5548POPC   NC370295  19.612  42.746   5.441
 5548POPC   PO470296  19.858  43.413   5.486
 5548POPC   GL170297  19.671  43.148   5.784
 5548POPC   GL270298  19.814  42.816   5.900
 5548POPC   C1A70299  19.728  43.232   6.221
 5548POPC   D2A70300  19.556  43.414   6.597
 5548POPC   C3A70301  19.689  43.285   7.010
 5548POPC   C4A70302  19.605  43.063   7.385
 5548POPC   C1B70303  19.930  42.770   6.344
 5548POPC   C2B70304  20.019  43.132   6.628
 5548POPC   C3B70305  20.211  43.210   7.013
 5548POPC   C4B70306  20.065  42.876   7.278
 5549POPC   NC370307   3.701   5.430   5.269
 5549POPC   PO470308   3.792   6.033   5.429
 5549POPC   GL170309   3.497   6.015   5.769
 5549POPC   GL270310   3.769   6.184   5.920
 5549POPC   C1A70311   3.190   6.029   6.134
 5549POPC   D2A70312   3.046   5.920   6.551
 5549POPC   C3A70313   3.239   5.959   6.962
 5549POPC   C4A70314   3.287   5.676   7.306
 5549POPC   C1B70315   3.612   6.216   6.341
 5549POPC   C2B70316   3.772   6.214   6.744
 5549POPC   C3B70317   3.944   5.871   6.898
 5549POPC   C4B70318   3.801   5.753   7.267
 5550POPC   NC370319  21.725  27.578   5.644
 5550POPC   PO470320  22.233  27.808   5.241
 5550POPC   GL170321  22.225  27.633   5.726
 5550POPC   GL270322  22.062  27.238   5.809
 5550POPC   C1A70323  22.104  27.860   6.136
 5550POPC   D2A70324  22.109  28.089   6.545
 5550POPC   C3A70325  22.273  27.833   6.880
 5550POPC   C4A70326  22.155  27.794   7.282
 5550POPC   C1B70327  22.144  27.340   6.216
 5550POPC   C2B70328  22.214  27.405   6.631
 5550POPC   C3B70329  21.972  27.432   7.005
 5550POPC   C4B70330  22.113  27.295   7.394
 5551POPC   NC370331  36.956  40.562   5.493
 5551POPC   PO470332  37.138  41.159   5.397
 5551POPC   GL170333  37.064  40.905   5.845
 5551POPC   GL270334  37.218  40.525   5.921
 5551POPC   C1A70335  36.832  40.697   6.219
 5551POPC   D2A70336  36.865  40.479   6.640
 5551POPC   C3A70337  36.861  40.794   6.988
 5551POPC   C4A70338  36.603  40.835   7.344
 5551POPC   C1B70339  37.504  40.419   6.276
 5551POPC   C2B70340  37.416  40.385   6.725
 5551POPC   C3B70341  37.150  40.371   7.065
 5551POPC   C4B70342  37.243  40.650   7.371
 5552POPC   NC370343  37.873  17.001   5.608
 5552POPC   PO470344  37.524  16.446   5.413
 5552POPC   GL170345  37.616  16.611   5.837
 5552POPC   GL270346  37.468  16.912   5.883
 5552POPC   C1A70347  37.478  16.615   6.293
 5552POPC   D2A70348  37.701  16.519   6.664
 5552POPC   C3A70349  37.588  16.690   7.060
 5552POPC   C4A70350  37.630  16.792   7.486
 5552POPC   C1B70351  37.792  17.007   6.232
 5552POPC   C2B70352  37.899  17.176   6.611
 5552POPC   C3B70353  37.756  17.184   7.028
 5552POPC   C4B70354  38.022  17.058   7.354
 5553POPC   NC370355  20.659  37.311   5.430
 5553POPC   PO470356  20.586  36.670   5.435
 5553POPC   GL170357  20.437  36.891   5.826
 5553POPC   GL270358  20.123  36.774   5.926
 5553POPC   C1A70359  20.467  37.010   6.297
 5553POPC   D2A70360  20.446  37.130   6.776
 5553POPC   C3A70361  20.621  36.792   7.091
 5553POPC   C4A70362  21.057  36.682   7.255
 5553POPC   C1B70363  20.152  36.553   6.290
 5553POPC   C2B70364  20.244  36.662   6.716
 5553POPC   C3B70365  20.121  36.672   7.134
 5553POPC   C4B70366  20.354  36.687   7.540
 5554POPC   NC370367  40.017  30.259   5.268
 5554POPC   PO470368  39.617  30.743   5.405
 5554POPC   GL170369  39.878  30.546   5.701
 5554POPC   GL270370  40.082  30.839   5.794
 5554POPC   C1A70371  39.935  30.505   6.156
 5554POPC   D2A70372  39.853  30.677   6.575
 5554POPC   C3A70373  39.961  30.451   6.947
 5554POPC   C4A70374  40.024  30.459   7.383
 5554POPC   C1B70375  39.975  31.056   6.205
 5554POPC   C2B70376  40.062  31.147   6.656
 5554POPC   C3B70377  40.015  30.954   7.075
 5554POPC   C4B70378  40.083  30.908   7.571
 5555POPC   NC370379  34.244  18.039   5.462
 5555POPC   PO470380  34.842  18.308   5.436
 5555POPC   GL170381  34.603  18.441   5.835
 5555POPC   GL270382  34.272  18.286   5.959
 5555POPC   C1A70383  34.641  18.509   6.290
 5555POPC   D2A70384  34.688  18.116   6.538
 5555POPC   C3A70385  34.572  18.066   6.953
 5555POPC   C4A70386  34.667  17.868   7.322
 5555POPC   C1B70387  34.189  18.240   6.434
 5555POPC   C2B70388  34.331  18.488   6.812
 5555POPC   C3B70389  34.353  18.629   7.262
 5555POPC   C4B70390  34.207  18.533   7.729
 5556POPC   NC370391  15.891  40.311   5.473
 5556POPC   PO470392  16.385  39.913   5.290
 5556POPC   GL170393  16.138  39.875   5.706
 5556POPC   GL270394  16.322  40.150   5.886
 5556POPC   C1A70395  15.908  39.679   6.101
 5556POPC   D2A70396  16.105  39.713   6.500
 5556POPC   C3A70397  15.966  39.848   6.887
 5556POPC   C4A70398  15.942  39.742   7.286
 5556POPC   C1B70399  15.945  40.167   6.118
 5556POPC   C2B70400  15.912  40.214   6.534
 5556POPC   C3B70401  16.195  40.311   6.860
 5556POPC   C4B70402  16.002  40.241   7.247
 5557POPC   NC370403  41.226  35.440   5.423
 5557POPC   PO470404  40.613  35.723   5.439
 5557POPC   GL170405  40.738  35.557   5.866
 5557POPC   GL270406  40.720  35.217   5.831
 5557POPC   C1A70407  40.866  35.321   6.287
 5557POPC   D2A70408  41.074  35.326   6.689
 5557POPC   C3A70409  40.819  35.296   7.058
 5557POPC   C4A70410  40.692  35.689   7.201
 5557POPC   C1B70411  40.412  35.124   6.178
 5557POPC   C2B70412  40.501  35.199   6.630
 5557POPC   C3B70413  40.354  35.031   7.015
 5557POPC   C4B70414  40.501  34.864   7.400
 5558POPC   NC370415  20.969   6.379   5.444
 5558POPC   PO470416  20.260   6.460   5.398
 5558POPC   GL170417  20.538   6.533   5.712
 5558POPC   GL270418  20.636   6.825   5.879
 5558POPC   C1A70419  20.437   6.434   6.140
 5558POPC   D2A70420  20.389   6.709   6.498
 5558POPC   C3A70421  20.651   6.538   6.826
 5558POPC   C4A70422  20.610   6.470   7.267
 5558POPC   C1B70423  20.692   7.110   6.248
 5558POPC   C2B70424  20.756   7.035   6.702
 5558POPC   C3B70425  20.692   7.053   7.137
 5558POPC   C4B70426  20.955   6.915   7.446
 5559POPC   NC370427   7.205   9.839   5.356
 5559POPC   PO470428   7.803   9.555   5.419
 5559POPC   GL170429   7.552   9.828   5.775
 5559POPC   GL270430   7.154   9.806   5.848
 5559POPC   C1A70431   7.660   9.812   6.236
 5559POPC   D2A70432   7.716   9.491   6.568
 5559POPC   C3A70433   7.491   9.453   7.014
 5559POPC   C4A70434   7.495   9.777   7.321
 5559POPC   C1B70435   7.138   9.822   6.267
 5559POPC   C2B70436   7.293   9.720   6.649
 5559POPC   C3B70437   7.098   9.821   7.016
 5559POPC   C4B70438   6.977  10.234   7.095
 5560POPC   NC370439   3.821  27.368   5.475
 5560POPC   PO470440   3.304  27.856   5.474
 5560POPC   GL170441   3.471  27.654   5.824
 5560POPC   GL270442   3.821  27.762   5.836
 5560POPC   C1A70443   3.271  27.602   6.226
 5560POPC   D2A70444   3.334  27.854   6.589
 5560POPC   C3A70445   3.459  27.625   6.974
 5560POPC   C4A70446   3.282  27.533   7.387
 5560POPC   C1B70447   3.759  27.804   6.272
 5560POPC   C2B70448   3.901  27.798   6.687
 5560POPC   C3B70449   3.902  27.910   7.109
 5560POPC   C4B70450   3.787  27.653   7.375
 5561POPC   NC370451  35.847  44.536   5.406
 5561POPC   PO470452  36.398  44.885   5.204
 5561POPC   GL170453  36.232  44.739   5.645
 5561POPC   GL270454  36.457  44.534   5.875
 5561POPC   C1A70455  36.022  44.737   6.072
 5561POPC   D2A70456  36.005  44.537   6.500
 5561POPC   C3A70457  35.994  44.787   6.892
 5561POPC   C4A70458  35.611  44.902   7.100
 5561POPC   C1B70459  36.502  44.719   6.297
 5561POPC   C2B70460  36.472  44.911   6.705
 5561POPC   C3B70461  36.503  44.885   7.133
 5561POPC   C4B70462  36.364  44.511   7.151
 5562POPC   NC370463   1.940  18.528   5.446
 5562POPC   PO470464   1.769  17.924   5.569
 5562POPC   GL170465   1.980  18.219   5.866
 5562POPC   GL270466   1.756  18.501   5.934
 5562POPC   C1A70467   2.284  18.272   6.226
 5562POPC   D2A70468   2.375  18.519   6.626
 5562POPC   C3A70469   2.079  18.369   6.947
 5562POPC   C4A70470   2.132  18.114   7.306
 5562POPC   C1B70471   1.549  18.370   6.288
 5562POPC   C2B70472   1.422  18.497   6.697
 5562POPC   C3B70473   1.638  18.639   7.045
 5562POPC   C4B70474   1.772  18.442   7.428
 5563POPC   NC370475  33.976  16.608   5.211
 5563POPC   PO470476  33.624  17.128   5.415
 5563POPC   GL170477  33.923  16.900   5.694
 5563POPC   GL270478  33.965  16.528   5.726
 5563POPC   C1A70479  34.004  16.850   6.137
 5563POPC   D2A70480  33.973  17.051   6.540
 5563POPC   C3A70481  33.780  16.805   6.848
 5563POPC   C4A70482  33.951  16.641   7.212
 5563POPC   C1B70483  33.756  16.391   6.133
 5563POPC   C2B70484  33.874  16.336   6.575
 5563POPC   C3B70485  33.683  16.306   6.965
 5563POPC   C4B70486  33.459  16.460   7.295
 5564POPC   NC370487  42.910  36.601   5.513
 5564POPC   PO470488  43.187  37.236   5.281
 5564POPC   GL170489  43.277  36.900   5.672
 5564POPC   GL270490  42.983  36.932   5.900
 5564POPC   C1A70491  43.400  36.714   6.116
 5564POPC   D2A70492  43.397  36.599   6.571
 5564POPC   C3A70493  43.179  36.868   6.828
 5564POPC   C4A70494  42.972  36.862   7.194
 5564POPC   C1B70495  42.837  36.684   6.238
 5564POPC   C2B70496  42.876  36.363   6.547
 5564POPC   C3B70497  42.758  36.429   6.963
 5564POPC   C4B70498  42.557  36.615   7.343
 5565POPC   NC370499  39.643  40.019   5.491
 5565POPC   PO470500  40.316  40.276   5.508
 5565POPC   GL170501  40.063  40.303   5.843
 5565POPC   GL270502  40.058  39.968   5.849
 5565POPC   C1A70503  40.109  40.310   6.285
 5565POPC   D2A70504  40.330  40.396   6.678
 5565POPC   C3A70505  40.083  40.213   7.014
 5565POPC   C4A70506  39.674  40.025   7.052
 5565POPC   C1B70507  39.889  39.806   6.202
 5565POPC   C2B70508  39.925  39.834   6.641
 5565POPC   C3B70509  40.045  39.661   7.037
 5565POPC   C4B70510  40.158  39.833   7.424
 5566POPC   NC370511  24.990  28.507   5.549
 5566POPC   PO470512  25.454  28.796   5.238
 5566POPC   GL170513  25.434  28.655   5.746
 5566POPC   GL270514  25.333  28.312   5.865
 5566POPC   C1A70515  25.122  28.633   6.187
 5566POPC   D2A70516  25.046  28.400   6.603
 5566POPC   C3A70517  25.172  28.637   6.984
 5566POPC   C4A70518  25.463  28.961   7.183
 5566POPC   C1B70519  25.460  28.084   6.217
 5566POPC   C2B70520  25.533  28.226   6.630
 5566POPC   C3B70521  25.389  28.123   7.006
 5566POPC   C4B70522  25.520  27.858   7.341
 5567POPC   NC370523  36.141  40.507   5.196
 5567POPC   PO470524  36.363  41.042   5.506
 5567POPC   GL170525  36.096  40.951   5.856
 5567POPC   GL270526  36.011  40.643   5.710
 5567POPC   C1A70527  36.161  40.900   6.292
 5567POPC   D2A70528  36.382  40.557   6.480
 5567POPC   C3A70529  36.336  40.551   6.925
 5567POPC   C4A70530  36.116  40.885   7.173
 5567POPC   C1B70531  35.808  40.565   6.132
 5567POPC   C2B70532  35.878  40.442   6.588
 5567POPC   C3B70533  35.822  40.475   7.054
 5567POPC   C4B70534  35.875  40.470   7.515
 5568POPC   NC370535  38.735  29.959   5.445
 5568POPC   PO470536  38.192  30.202   5.458
 5568POPC   GL170537  38.402  30.102   5.841
 5568POPC   GL270538  38.549  30.413   5.915
 5568POPC   C1A70539  38.520  29.759   6.162
 5568POPC   D2A70540  38.729  29.810   6.572
 5568POPC   C3A70541  38.489  29.748   6.939
 5568POPC   C4A70542  38.599  29.641   7.329
 5568POPC   C1B70543  38.739  30.223   6.242
 5568POPC   C2B70544  38.997  30.243   6.598
 5568POPC   C3B70545  38.805  30.164   7.008
 5568POPC   C4B70546  38.728  30.375   7.398
 5569POPC   NC370547  17.027  38.755   5.472
 5569POPC   PO470548  16.682  38.211   5.342
 5569POPC   GL170549  16.741  38.175   5.817
 5569POPC   GL270550  16.453  37.961   5.842
 5569POPC   C1A70551  16.865  38.436   6.260
 5569POPC   D2A70552  16.745  38.670   6.704
 5569POPC   C3A70553  16.723  38.420   7.118
 5569POPC   C4A70554  17.033  38.484   7.457
 5569POPC   C1B70555  16.409  38.193   6.227
 5569POPC   C2B70556  16.624  38.164   6.634
 5569POPC   C3B70557  16.460  37.995   7.004
 5569POPC   C4B70558  16.397  38.141   7.426
 5570POPC   NC370559  34.473  11.695   5.643
 5570POPC   PO470560  34.697  11.103   5.298
 5570POPC   GL170561  34.596  11.010   5.772
 5570POPC   GL270562  34.251  10.985   5.964
 5570POPC   C1A70563  34.607  11.218   6.203
 5570POPC   D2A70564  34.455  11.486   6.531
 5570POPC   C3A70565  34.556  11.330   6.924
 5570POPC   C4A70566  34.446  11.106   7.270
 5570POPC   C1B70567  34.102  11.430   6.153
 5570POPC   C2B70568  33.946  11.563   6.562
 5570POPC   C3B70569  34.136  11.638   6.933
 5570POPC   C4B70570  34.349  11.630   7.300
 5571POPC   NC370571  19.605  27.089   5.373
 5571POPC   PO470572  19.906  26.556   5.459
 5571POPC   GL170573  19.681  26.755   5.808
 5571POPC   GL270574  19.984  26.924   5.874
 5571POPC   C1A70575  19.670  26.629   6.283
 5571POPC   D2A70576  19.819  26.768   6.730
 5571POPC   C3A70577  19.579  26.682   7.141
 5571POPC   C4A70578  19.463  26.998   7.497
 5571POPC   C1B70579  20.204  26.786   6.260
 5571POPC   C2B70580  20.313  26.904   6.693
 5571POPC   C3B70581  20.183  26.846   7.121
 5571POPC   C4B70582  19.986  26.508   7.369
 5572POPC   NC370583  34.752  17.105   5.415
 5572POPC   PO470584  34.440  17.612   5.519
 5572POPC   GL170585  34.522  17.309   5.852
 5572POPC   GL270586  34.856  17.106   5.911
 5572POPC   C1A70587  34.324  17.346   6.249
 5572POPC   D2A70588  34.447  17.201   6.650
 5572POPC   C3A70589  34.506  17.528   6.963
 5572POPC   C4A70590  34.448  17.419   7.398
 5572POPC   C1B70591  34.852  17.268   6.321
 5572POPC   C2B70592  34.941  17.286   6.762
 5572POPC   C3B70593  34.690  17.069   7.098
 5572POPC   C4B70594  34.806  17.064   7.523
 5573POPC   NC370595  36.322   8.159   5.408
 5573POPC   PO470596  35.653   8.034   5.600
 5573POPC   GL170597  36.001   8.195   5.812
 5573POPC   GL270598  36.248   7.878   5.820
 5573POPC   C1A70599  36.034   8.373   6.241
 5573POPC   D2A70600  35.929   8.393   6.687
 5573POPC   C3A70601  36.197   8.522   7.038
 5573POPC   C4A70602  36.140   8.371   7.450
 5573POPC   C1B70603  35.968   7.830   6.167
 5573POPC   C2B70604  36.104   7.926   6.573
 5573POPC   C3B70605  36.163   8.002   6.994
 5573POPC   C4B70606  36.541   8.112   7.195
 5574POPC   NC370607  23.518  13.183   5.444
 5574POPC   PO470608  23.913  13.793   5.438
 5574POPC   GL170609  23.619  13.596   5.781
 5574POPC   GL270610  23.532  13.255   5.924
 5574POPC   C1A70611  23.588  13.633   6.247
 5574POPC   D2A70612  23.723  13.772   6.654
 5574POPC   C3A70613  23.666  13.558   7.055
 5574POPC   C4A70614  23.569  13.793   7.457
 5574POPC   C1B70615  23.346  13.157   6.293
 5574POPC   C2B70616  23.301  13.441   6.635
 5574POPC   C3B70617  23.146  13.448   7.012
 5574POPC   C4B70618  23.327  13.351   7.397
 5575POPC   NC370619  27.207  44.432   5.185
 5575POPC   PO470620  26.849  44.949   5.305
 5575POPC   GL170621  26.893  44.828   5.768
 5575POPC   GL270622  26.682  44.502   5.819
 5575POPC   C1A70623  27.054  44.872   6.230
 5575POPC   D2A70624  27.321  44.670   6.613
 5575POPC   C3A70625  27.124  44.901   6.994
 5575POPC   C4A70626  26.855  44.893   7.348
 5575POPC   C1B70627  26.773  44.446   6.280
 5575POPC   C2B70628  26.829  44.644   6.656
 5575POPC   C3B70629  26.707  44.517   7.055
 5575POPC   C4B70630  26.283  44.416   7.112
 5576POPC   NC370631  35.667  18.925   5.415
 5576POPC   PO470632  35.021  19.203   5.389
 5576POPC   GL170633  35.312  19.162   5.735
 5576POPC   GL270634  35.418  18.845   5.866
 5576POPC   C1A70635  35.475  19.267   6.163
 5576POPC   D2A70636  35.647  19.230   6.593
 5576POPC   C3A70637  35.354  19.197   6.926
 5576POPC   C4A70638  35.478  19.215   7.350
 5576POPC   C1B70639  35.302  18.624   6.268
 5576POPC   C2B70640  35.391  18.741   6.671
 5576POPC   C3B70641  35.285  18.719   7.121
 5576POPC   C4B70642  35.530  18.692   7.486
 5577POPC   NC370643  41.596   3.160   5.416
 5577POPC   PO470644  41.354   3.794   5.484
 5577POPC   GL170645  41.323   3.454   5.739
 5577POPC   GL270646  41.673   3.461   5.831
 5577POPC   C1A70647  41.193   3.301   6.125
 5577POPC   D2A70648  41.386   3.431   6.512
 5577POPC   C3A70649  41.218   3.471   6.933
 5577POPC   C4A70650  41.394   3.365   7.319
 5577POPC   C1B70651  41.836   3.252   6.185
 5577POPC   C2B70652  41.730   3.046   6.560
 5577POPC   C3B70653  41.766   3.250   6.950
 5577POPC   C4B70654  41.905   3.423   7.332
 5578POPC   NC370655  19.322   1.855   5.528
 5578POPC   PO470656  18.789   2.140   5.701
 5578POPC   GL170657  19.087   1.956   5.976
 5578POPC   GL270658  19.473   1.998   5.973
 5578POPC   C1A70659  19.204   1.819   6.368
 5578POPC   D2A70660  19.311   1.576   6.716
 5578POPC   C3A70661  19.302   1.831   7.060
 5578POPC   C4A70662  18.941   2.105   7.217
 5578POPC   C1B70663  19.437   2.280   6.278
 5578POPC   C2B70664  19.249   2.222   6.683
 5578POPC   C3B70665  19.410   2.317   7.079
 5578POPC   C4B70666  19.412   2.487   7.482
 5579POPC   NC370667  37.415  22.671   5.498
 5579POPC   PO470668  37.754  23.192   5.593
 5579POPC   GL170669  37.826  23.102   5.992
 5579POPC   GL270670  37.917  22.773   6.030
 5579POPC   C1A70671  37.524  23.127   6.346
 5579POPC   D2A70672  37.264  23.184   6.717
 5579POPC   C3A70673  37.562  23.133   7.070
 5579POPC   C4A70674  37.895  22.870   7.267
 5579POPC   C1B70675  37.594  22.625   6.331
 5579POPC   C2B70676  37.479  22.724   6.784
 5579POPC   C3B70677  37.373  22.683   7.242
 5579POPC   C4B70678  37.509  22.937   7.593
 5580POPC   NC370679  42.104  33.442   5.511
 5580POPC   PO470680  42.410  34.076   5.347
 5580POPC   GL170681  42.391  33.876   5.754
 5580POPC   GL270682  42.574  33.554   5.773
 5580POPC   C1A70683  42.155  33.973   6.165
 5580POPC   D2A70684  42.321  33.932   6.596
 5580POPC   C3A70685  42.052  33.991   6.940
 5580POPC   C4A70686  42.011  33.849   7.348
 5580POPC   C1B70687  42.472  33.587   6.217
 5580POPC   C2B70688  42.263  33.435   6.592
 5580POPC   C3B70689  42.287  33.513   7.055
 5580POPC   C4B70690  42.360  33.514   7.520
 5581POPC   NC370691  25.261  30.186   5.250
 5581POPC   PO470692  25.484  30.800   5.338
 5581POPC   GL170693  25.196  30.741   5.721
 5581POPC   GL270694  25.116  30.392   5.715
 5581POPC   C1A70695  25.055  30.728   6.197
 5581POPC   D2A70696  25.143  30.919   6.636
 5581POPC   C3A70697  25.181  30.844   7.103
 5581POPC   C4A70698  25.546  30.974   7.371
 5581POPC   C1B70699  25.112  30.211   6.123
 5581POPC   C2B70700  25.205  30.361   6.543
 5581POPC   C3B70701  25.136  30.232   6.966
 5581POPC   C4B70702  25.114  30.288   7.393
 5582POPC   NC370703  41.947   0.192   5.362
 5582POPC   PO470704  41.356   0.582   5.259
 5582POPC   GL170705  41.538   0.430   5.685
 5582POPC   GL270706  41.636   0.746   5.867
 5582POPC   C1A70707  41.423   0.279   6.137
 5582POPC   D2A70708  41.642   0.269   6.549
 5582POPC   C3A70709  41.524   0.202   6.975
 5582POPC   C4A70710  41.434   0.322   7.405
 5582POPC   C1B70711  41.700   0.977   6.269
 5582POPC   C2B70712  41.763   0.758   6.674
 5582POPC   C3B70713  41.613   0.708   7.092
 5582POPC   C4B70714  41.285   0.813   7.396
 5583POPC   NC370715  31.081  29.559   5.416
 5583POPC   PO470716  30.446  29.907   5.345
 5583POPC   GL170717  30.737  29.862   5.732
 5583POPC   GL270718  30.887  29.571   5.868
 5583POPC   C1A70719  30.855  29.987   6.175
 5583POPC   D2A70720  30.638  30.093   6.572
 5583POPC   C3A70721  30.780  29.976   6.991
 5583POPC   C4A70722  31.041  30.203   7.274
 5583POPC   C1B70723  31.031  29.478   6.241
 5583POPC   C2B70724  30.915  29.647   6.606
 5583POPC   C3B70725  31.010  29.491   7.006
 5583POPC   C4B70726  30.971  29.704   7.398
 5584POPC   NC370727  31.856  41.405   5.732
 5584POPC   PO470728  31.184  41.661   5.574
 5584POPC   GL170729  31.403  41.528   5.890
 5584POPC   GL270730  31.606  41.841   5.895
 5584POPC   C1A70731  31.515  41.323   6.284
 5584POPC   D2A70732  31.263  41.203   6.614
 5584POPC   C3A70733  31.391  41.435   6.907
 5584POPC   C4A70734  31.235  41.425   7.299
 5584POPC   C1B70735  31.286  41.888   6.230
 5584POPC   C2B70736  31.231  42.037   6.651
 5584POPC   C3B70737  31.259  41.892   7.077
 5584POPC   C4B70738  31.665  41.688   7.265
 5585POPC   NC370739  24.072  29.021   5.400
 5585POPC   PO470740  24.677  29.286   5.301
 5585POPC   GL170741  24.558  29.398   5.712
 5585POPC   GL270742  24.370  29.147   5.850
 5585POPC   C1A70743  24.753  29.450   6.133
 5585POPC   D2A70744  24.600  29.320   6.527
 5585POPC   C3A70745  24.638  29.387   6.949
 5585POPC   C4A70746  24.342  29.213   7.256
 5585POPC   C1B70747  24.196  29.130   6.276
 5585POPC   C2B70748  24.232  29.013   6.716
 5585POPC   C3B70749  24.060  28.830   7.082
 5585POPC   C4B70750  24.083  28.885   7.558
 5586POPC   NC370751  27.894  15.477   5.473
 5586POPC   PO470752  27.938  16.165   5.412
 5586POPC   GL170753  27.693  15.968   5.780
 5586POPC   GL270754  27.452  15.685   5.721
 5586POPC   C1A70755  27.543  16.135   6.200
 5586POPC   D2A70756  27.640  15.935   6.580
 5586POPC   C3A70757  27.747  16.176   6.916
 5586POPC   C4A70758  27.806  16.305   7.339
 5586POPC   C1B70759  27.415  15.633   6.180
 5586POPC   C2B70760  27.250  15.605   6.606
 5586POPC   C3B70761  27.457  15.739   7.014
 5586POPC   C4B70762  27.316  16.146   7.216
 5587POPC   NC370763  11.665   1.079   5.431
 5587POPC   PO470764  11.060   1.359   5.538
 5587POPC   GL170765  11.264   1.200   5.892
 5587POPC   GL270766  11.639   1.229   5.924
 5587POPC   C1A70767  11.284   1.170   6.324
 5587POPC   D2A70768  11.607   1.134   6.591
 5587POPC   C3A70769  11.413   1.198   6.951
 5587POPC   C4A70770  11.066   1.048   7.123
 5587POPC   C1B70771  11.657   1.544   6.243
 5587POPC   C2B70772  11.435   1.625   6.598
 5587POPC   C3B70773  11.635   1.663   6.963
 5587POPC   C4B70774  11.621   1.466   7.327
 5588POPC   NC370775  22.609  21.998   5.391
 5588POPC   PO470776  23.111  22.411   5.280
 5588POPC   GL170777  22.984  22.286   5.758
 5588POPC   GL270778  22.711  22.102   5.877
 5588POPC   C1A70779  23.075  21.964   6.180
 5588POPC   D2A70780  22.881  21.773   6.585
 5588POPC   C3A70781  22.932  21.927   7.031
 5588POPC   C4A70782  23.192  21.901   7.409
 5588POPC   C1B70783  22.847  22.417   6.227
 5588POPC   C2B70784  22.884  22.285   6.652
 5588POPC   C3B70785  22.800  22.477   7.052
 5588POPC   C4B70786  22.843  22.332   7.465
 5589POPC   NC370787  12.547  29.035   5.507
 5589POPC   PO470788  12.072  29.506   5.401
 5589POPC   GL170789  12.138  29.244   5.786
 5589POPC   GL270790  12.114  28.865   5.828
 5589POPC   C1A70791  12.373  29.220   6.184
 5589POPC   D2A70792  12.287  29.027   6.594
 5589POPC   C3A70793  12.341  29.279   6.920
 5589POPC   C4A70794  12.258  29.421   7.298
 5589POPC   C1B70795  11.893  29.072   6.216
 5589POPC   C2B70796  11.813  29.237   6.653
 5589POPC   C3B70797  11.841  29.146   7.114
 5589POPC   C4B70798  11.947  28.900   7.494
 5590POPC   NC370799  18.118   3.218   5.307
 5590POPC   PO470800  18.428   3.888   5.315
 5590POPC   GL170801  18.382   3.511   5.663
 5590POPC   GL270802  18.122   3.553   5.932
 5590POPC   C1A70803  18.563   3.301   6.038
 5590POPC   D2A70804  18.548   3.132   6.466
 5590POPC   C3A70805  18.561   3.428   6.806
 5590POPC   C4A70806  18.320   3.397   7.179
 5590POPC   C1B70807  18.127   3.484   6.373
 5590POPC   C2B70808  18.136   3.732   6.745
 5590POPC   C3B70809  17.926   3.845   7.097
 5590POPC   C4B70810  18.030   3.712   7.521
 5591POPC   NC370811   2.274  14.463   5.533
 5591POPC   PO470812   1.719  14.120   5.525
 5591POPC   GL170813   1.861  14.288   5.889
 5591POPC   GL270814   1.889  14.610   5.841
 5591POPC   C1A70815   1.678  14.424   6.284
 5591POPC   D2A70816   1.860  14.621   6.663
 5591POPC   C3A70817   2.192  14.411   6.895
 5591POPC   C4A70818   2.094  14.341   7.320
 5591POPC   C1B70819   2.127  14.676   6.218
 5591POPC   C2B70820   2.515  14.747   6.445
 5591POPC   C3B70821   2.505  14.836   6.879
 5591POPC   C4B70822   2.193  14.833   7.185
 5592POPC   NC370823  24.754   4.751   5.571
 5592POPC   PO470824  25.034   4.159   5.218
 5592POPC   GL170825  25.060   4.156   5.692
 5592POPC   GL270826  24.907   4.419   5.901
 5592POPC   C1A70827  25.289   4.216   6.135
 5592POPC   D2A70828  25.251   4.519   6.503
 5592POPC   C3A70829  25.398   4.385   6.927
 5592POPC   C4A70830  25.376   4.136   7.343
 5592POPC   C1B70831  24.776   4.367   6.335
 5592POPC   C2B70832  24.933   4.192   6.730
 5592POPC   C3B70833  24.911   4.170   7.146
 5592POPC   C4B70834  25.055   4.548   7.277
 5593POPC   NC370835  43.736  33.513   5.493
 5593POPC   PO470836  43.957  34.127   5.237
 5593POPC   GL170837  43.874  33.982   5.660
 5593POPC   GL270838  43.491  34.043   5.655
 5593POPC   C1A70839  44.036  33.812   6.089
 5593POPC   D2A70840  44.244  33.603   6.464
 5593POPC   C3A70841  44.094  33.699   6.897
 5593POPC   C4A70842  44.150  33.933   7.252
 5593POPC   C1B70843  43.509  33.842   6.083
 5593POPC   C2B70844  43.731  33.730   6.493
 5593POPC   C3B70845  43.566  33.656   6.904
 5593POPC   C4B70846  43.718  33.536   7.283
 5594POPC   NC370847  35.220  18.036   5.520
 5594POPC   PO470848  35.747  18.508   5.631
 5594POPC   GL170849  35.468  18.295   5.876
 5594POPC   GL270850  35.120  18.440   5.835
 5594POPC   C1A70851  35.567  18.032   6.214
 5594POPC   D2A70852  35.759  18.341   6.469
 5594POPC   C3A70853  35.621  18.343   6.889
 5594POPC   C4A70854  35.261  18.190   7.115
 5594POPC   C1B70855  35.067  18.150   6.172
 5594POPC   C2B70856  35.229  18.197   6.578
 5594POPC   C3B70857  34.977  18.454   6.785
 5594POPC   C4B70858  34.813  18.481   7.170
 5595POPC   NC370859   3.748   1.348   5.572
 5595POPC   PO470860   4.256   1.170   5.158
 5595POPC   GL170861   4.325   1.217   5.662
 5595POPC   GL270862   4.616   1.375   5.850
 5595POPC   C1A70863   4.371   1.021   6.113
 5595POPC   D2A70864   4.512   1.203   6.505
 5595POPC   C3A70865   4.573   1.007   6.898
 5595POPC   C4A70866   4.504   1.017   7.344
 5595POPC   C1B70867   4.259   1.509   6.143
 5595POPC   C2B70868   4.102   1.480   6.586
 5595POPC   C3B70869   4.269   1.406   7.004
 5595POPC   C4B70870   4.188   1.642   7.383
 5596POPC   NC370871  16.786   5.263   5.429
 5596POPC   PO470872  16.920   4.616   5.250
 5596POPC   GL170873  16.750   4.727   5.737
 5596POPC   GL270874  16.808   5.079   5.920
 5596POPC   C1A70875  16.500   4.769   6.171
 5596POPC   D2A70876  16.516   4.763   6.620
 5596POPC   C3A70877  16.818   4.882   6.940
 5596POPC   C4A70878  16.497   4.865   7.238
 5596POPC   C1B70879  17.055   5.236   6.280
 5596POPC   C2B70880  16.960   5.345   6.715
 5596POPC   C3B70881  17.034   5.298   7.176
 5596POPC   C4B70882  17.039   5.431   7.630
 5597POPC   NC370883  43.250  16.807   5.479
 5597POPC   PO470884  43.928  16.583   5.460
 5597POPC   GL170885  43.808  16.610   5.900
 5597POPC   GL270886  43.604  16.913   5.925
 5597POPC   C1A70887  43.967  16.461   6.308
 5597POPC   D2A70888  44.122  16.295   6.687
 5597POPC   C3A70889  43.943  16.464   7.033
 5597POPC   C4A70890  43.792  16.691   7.376
 5597POPC   C1B70891  43.834  16.978   6.331
 5597POPC   C2B70892  43.787  16.931   6.792
 5597POPC   C3B70893  43.491  17.032   7.140
 5597POPC   C4B70894  43.575  17.054   7.628
 5598POPC   NC370895  33.464  14.825   5.295
 5598POPC   PO470896  33.814  15.477   5.400
 5598POPC   GL170897  33.775  15.185   5.788
 5598POPC   GL270898  33.495  14.990   5.779
 5598POPC   C1A70899  33.840  14.978   6.210
 5598POPC   D2A70900  33.921  14.816   6.669
 5598POPC   C3A70901  33.736  15.046   7.016
 5598POPC   C4A70902  33.900  15.393   7.232
 5598POPC   C1B70903  33.366  15.165   6.168
 5598POPC   C2B70904  33.572  15.265   6.564
 5598POPC   C3B70905  33.519  15.492   6.919
 5598POPC   C4B70906  33.352  15.403   7.278
 5599POPC   NC370907  39.151  16.568   5.492
 5599POPC   PO470908  39.650  16.969   5.406
 5599POPC   GL170909  39.473  16.868   5.781
 5599POPC   GL270910  39.182  17.064   5.661
 5599POPC   C1A70911  39.198  16.779   6.160
 5599POPC   D2A70912  39.258  16.859   6.616
 5599POPC   C3A70913  39.159  16.665   7.016
 5599POPC   C4A70914  39.470  16.635   7.357
 5599POPC   C1B70915  38.881  17.170   5.979
 5599POPC   C2B70916  38.883  17.162   6.424
 5599POPC   C3B70917  38.865  17.077   6.863
 5599POPC   C4B70918  38.954  17.170   7.285
 5600POPC   NC370919   2.881   6.880   5.502
 5600POPC   PO470920   3.104   6.247   5.485
 5600POPC   GL170921   2.925   6.399   5.880
 5600POPC   GL270922   2.794   6.740   5.978
 5600POPC   C1A70923   2.780   6.355   6.321
 5600POPC   D2A70924   2.793   6.684   6.625
 5600POPC   C3A70925   2.897   6.624   7.050
 5600POPC   C4A70926   2.668   6.573   7.430
 5600POPC   C1B70927   2.455   6.883   6.273
 5600POPC   C2B70928   2.238   7.002   6.657
 5600POPC   C3B70929   2.464   6.900   7.022
 5600POPC   C4B70930   2.499   7.099   7.432
 5601POPC   NC370931   8.744   0.046   5.581
 5601POPC   PO470932   9.204   0.463   5.288
 5601POPC   GL170933   9.115   0.519   5.746
 5601POPC   GL270934   8.739   0.560   5.837
 5601POPC   C1A70935   9.119   0.745   6.158
 5601POPC   D2A70936   8.955   0.615   6.550
 5601POPC   C3A70937   9.006   0.684   6.981
 5601POPC   C4A70938   9.092   0.456   7.325
 5601POPC   C1B70939   8.884   0.279   6.178
 5601POPC   C2B70940   8.857   0.121   6.615
 5601POPC   C3B70941   8.604   0.394   6.861
 5601POPC   C4B70942   8.533   0.619   7.208
 5602POPC   NC370943  13.082  10.204   5.307
 5602POPC   PO470944  12.583   9.877   5.530
 5602POPC   GL170945  12.991   9.894   5.699
 5602POPC   GL270946  13.194   9.579   5.757
 5602POPC   C1A70947  13.036   9.976   6.096
 5602POPC   D2A70948  13.032   9.842   6.511
 5602POPC   C3A70949  12.737   9.952   6.813
 5602POPC   C4A70950  12.699   9.925   7.279
 5602POPC   C1B70951  13.003   9.448   6.170
 5602POPC   C2B70952  12.961   9.348   6.629
 5602POPC   C3B70953  12.826   9.445   7.057
 5602POPC   C4B70954  12.923   9.461   7.508
 5603POPC   NC370955  18.216  40.683   5.343
 5603POPC   PO470956  18.382  41.375   5.117
 5603POPC   GL170957  18.487  41.030   5.583
 5603POPC   GL270958  18.134  40.946   5.753
 5603POPC   C1A70959  18.477  40.981   6.113
 5603POPC   D2A70960  18.406  40.702   6.515
 5603POPC   C3A70961  18.606  40.766   6.928
 5603POPC   C4A70962  18.662  41.089   7.268
 5603POPC   C1B70963  18.071  40.662   6.121
 5603POPC   C2B70964  17.935  40.471   6.511
 5603POPC   C3B70965  18.040  40.565   6.942
 5603POPC   C4B70966  18.169  40.928   7.195
 5604POPC   NC370967  30.400  21.302   5.113
 5604POPC   PO470968  30.963  21.575   5.382
 5604POPC   GL170969  30.660  21.524   5.771
 5604POPC   GL270970  30.344  21.308   5.786
 5604POPC   C1A70971  30.714  21.352   6.214
 5604POPC   D2A70972  30.881  21.514   6.613
 5604POPC   C3A70973  30.872  21.318   7.017
 5604POPC   C4A70974  30.710  21.125   7.368
 5604POPC   C1B70975  30.227  21.502   6.194
 5604POPC   C2B70976  30.368  21.376   6.622
 5604POPC   C3B70977  30.365  21.416   7.068
 5604POPC   C4B70978  30.616  21.666   7.324
 5605POPC   NC370979  20.943  25.580   5.432
 5605POPC   PO470980  21.634  25.585   5.485
 5605POPC   GL170981  21.472  25.320   5.811
 5605POPC   GL270982  21.149  25.143   5.751
 5605POPC   C1A70983  21.401  25.466   6.213
 5605POPC   D2A70984  21.553  25.626   6.588
 5605POPC   C3A70985  21.390  25.321   6.835
 5605POPC   C4A70986  21.211  25.362   7.208
 5605POPC   C1B70987  21.267  24.974   6.150
 5605POPC   C2B70988  21.608  25.022   6.448
 5605POPC   C3B70989  21.727  24.922   6.879
 5605POPC   C4B70990  21.652  25.088   7.294
 5606POPC   NC370991  28.888  34.503   5.443
 5606POPC   PO470992  28.120  34.826   5.464
 5606POPC   GL170993  28.217  34.609   5.842
 5606POPC   GL270994  28.588  34.618   5.884
 5606POPC   C1A70995  28.026  34.674   6.268
 5606POPC   D2A70996  28.202  34.564   6.637
 5606POPC   C3A70997  28.026  34.624   7.028
 5606POPC   C4A70998  28.244  34.418   7.328
 5606POPC   C1B70999  28.444  34.357   6.206
 5606POPC   C2B71000  28.587  34.200   6.574
 5606POPC   C3B71001  28.586  34.371   6.973
 5606POPC   C4B71002  28.709  34.218   7.396
 5607POPC   NC371003   1.670  37.755   5.158
 5607POPC   PO471004   2.199  37.678   5.545
 5607POPC   GL171005   1.889  37.615   5.800
 5607POPC   GL271006   1.742  37.949   5.717
 5607POPC   C1A71007   1.915  37.414   6.210
 5607POPC   D2A71008   2.262  37.466   6.507
 5607POPC   C3A71009   2.156  37.692   6.871
 5607POPC   C4A71010   2.012  37.589   7.256
 5607POPC   C1B71011   1.860  38.012   6.169
 5607POPC   C2B71012   1.734  38.110   6.623
 5607POPC   C3B71013   1.799  38.016   7.071
 5607POPC   C4B71014   1.864  38.027   7.526
 5608POPC   NC371015  15.220  31.295   5.335
 5608POPC   PO471016  15.071  30.577   5.320
 5608POPC   GL171017  15.152  30.497   5.808
 5608POPC   GL271018  15.313  30.163   5.896
 5608POPC   C1A71019  15.243  30.756   6.218
 5608POPC   D2A71020  15.375  30.742   6.681
 5608POPC   C3A71021  15.118  30.870   7.070
 5608POPC   C4A71022  15.207  31.017   7.515
 5608POPC   C1B71023  15.394  30.279   6.283
 5608POPC   C2B71024  15.065  30.315   6.577
 5608POPC   C3B71025  15.046  30.271   7.011
 5608POPC   C4B71026  15.409  30.477   7.203
 5609POPC   NC371027  16.296   1.643   5.468
 5609POPC   PO471028  15.844   1.265   5.125
 5609POPC   GL171029  15.863   1.366   5.608
 5609POPC   GL271030  15.816   1.051   5.801
 5609POPC   C1A71031  16.061   1.415   6.062
 5609POPC   D2A71032  16.066   1.238   6.521
 5609POPC   C3A71033  16.095   1.536   6.848
 5609POPC   C4A71034  16.255   1.761   7.205
 5609POPC   C1B71035  15.677   1.095   6.233
 5609POPC   C2B71036  15.594   0.966   6.655
 5609POPC   C3B71037  15.882   0.980   6.949
 5609POPC   C4B71038  16.082   1.267   7.269
 5610POPC   NC371039  28.473   9.319   5.374
 5610POPC   PO471040  28.605   9.936   5.292
 5610POPC   GL171041  28.620   9.801   5.782
 5610POPC   GL271042  28.772   9.441   5.775
 5610POPC   C1A71043  28.366   9.933   6.247
 5610POPC   D2A71044  28.170   9.807   6.701
 5610POPC   C3A71045  28.265   9.913   7.158
 5610POPC   C4A71046  28.197   9.768   7.615
 5610POPC   C1B71047  28.483   9.454   6.136
 5610POPC   C2B71048  28.626   9.528   6.566
 5610POPC   C3B71049  28.553   9.484   7.006
 5610POPC   C4B71050  28.647   9.674   7.403
 5611POPC   NC371051  18.131   9.491   5.459
 5611POPC   PO471052  18.424  10.122   5.292
 5611POPC   GL171053  18.238  10.009   5.687
 5611POPC   GL271054  18.554   9.830   5.762
 5611POPC   C1A71055  18.138   9.856   6.124
 5611POPC   D2A71056  18.297   9.601   6.499
 5611POPC   C3A71057  17.994   9.411   6.770
 5611POPC   C4A71058  17.885   9.539   7.165
 5611POPC   C1B71059  18.649   9.848   6.199
 5611POPC   C2B71060  18.606  10.010   6.620
 5611POPC   C3B71061  18.361   9.864   6.977
 5611POPC   C4B71062  18.541   9.486   7.175
 5612POPC   NC371063  43.859  30.152   5.451
 5612POPC   PO471064  43.666  29.431   5.456
 5612POPC   GL171065  43.570  29.749   5.863
 5612POPC   GL271066  43.663  30.145   5.923
 5612POPC   C1A71067  43.785  29.838   6.296
 5612POPC   D2A71068  44.025  29.884   6.694
 5612POPC   C3A71069  43.834  29.845   7.100
 5612POPC   C4A71070  43.566  30.166   7.143
 5612POPC   C1B71071  44.023  30.291   6.147
 5612POPC   C2B71072  44.191  30.350   6.554
 5612POPC   C3B71073  44.119  30.378   7.003
 5612POPC   C4B71074  44.026  30.209   7.415
 5613POPC   NC371075  40.886  20.963   5.459
 5613POPC   PO471076  40.747  20.323   5.508
 5613POPC   GL171077  40.690  20.635   5.818
 5613POPC   GL271078  40.489  20.936   5.821
 5613POPC   C1A71079  40.557  20.598   6.230
 5613POPC   D2A71080  40.702  20.389   6.583
 5613POPC   C3A71081  40.618  20.509   6.996
 5613POPC   C4A71082  40.772  20.173   7.254
 5613POPC   C1B71083  40.824  21.016   6.150
 5613POPC   C2B71084  40.828  20.899   6.613
 5613POPC   C3B71085  40.977  20.996   7.052
 5613POPC   C4B71086  40.860  20.959   7.548
 5614POPC   NC371087  30.863   9.121   5.329
 5614POPC   PO471088  30.552   8.602   5.457
 5614POPC   GL171089  30.703   8.855   5.824
 5614POPC   GL271090  30.636   9.225   5.842
 5614POPC   C1A71091  30.528   8.921   6.249
 5614POPC   D2A71092  30.580   9.171   6.601
 5614POPC   C3A71093  30.631   8.928   6.993
 5614POPC   C4A71094  30.505   8.866   7.413
 5614POPC   C1B71095  30.911   9.293   6.217
 5614POPC   C2B71096  31.089   9.157   6.644
 5614POPC   C3B71097  30.915   9.349   7.029
 5614POPC   C4B71098  30.863   9.265   7.501
 5615POPC   NC371099  22.184   0.048   5.263
 5615POPC   PO471100  22.108  44.370   5.279
 5615POPC   GL171101  22.094  44.537   5.732
 5615POPC   GL271102  21.926  44.839   5.676
 5615POPC   C1A71103  22.252  44.758   6.141
 5615POPC   D2A71104  22.440  44.626   6.539
 5615POPC   C3A71105  22.179  44.588   6.905
 5615POPC   C4A71106  22.271  44.683   7.302
 5615POPC   C1B71107  21.752  44.803   6.080
 5615POPC   C2B71108  21.871  44.727   6.509
 5615POPC   C3B71109  21.834  44.949   6.917
 5615POPC   C4B71110  21.785  44.747   7.301
 5616POPC   NC371111  16.430  36.135   5.192
 5616POPC   PO471112  17.079  36.156   5.389
 5616POPC   GL171113  16.838  36.100   5.795
 5616POPC   GL271114  16.600  35.811   5.833
 5616POPC   C1A71115  16.891  36.023   6.252
 5616POPC   D2A71116  16.713  36.150   6.663
 5616POPC   C3A71117  16.941  36.163   7.060
 5616POPC   C4A71118  16.836  36.407   7.424
 5616POPC   C1B71119  16.517  35.579   6.238
 5616POPC   C2B71120  16.691  35.628   6.657
 5616POPC   C3B71121  16.461  35.835   6.988
 5616POPC   C4B71122  16.563  35.998   7.389
 5617POPC   NC371123  41.530  35.011   5.295
 5617POPC   PO471124  41.613  35.706   5.457
 5617POPC   GL171125  41.507  35.564   5.855
 5617POPC   GL271126  41.222  35.343   5.909
 5617POPC   C1A71127  41.655  35.336   6.223
 5617POPC   D2A71128  41.900  35.375   6.615
 5617POPC   C3A71129  41.661  35.399   7.023
 5617POPC   C4A71130  41.621  35.609   7.451
 5617POPC   C1B71131  41.216  34.981   6.170
 5617POPC   C2B71132  41.424  34.964   6.574
 5617POPC   C3B71133  41.301  35.002   7.035
 5617POPC   C4B71134  41.306  35.233   7.428
 5618POPC   NC371135  16.126  16.435   5.657
 5618POPC   PO471136  15.655  16.807   5.409
 5618POPC   GL171137  15.859  16.811   5.829
 5618POPC   GL271138  16.172  16.943   5.703
 5618POPC   C1A71139  15.998  16.643   6.261
 5618POPC   D2A71140  16.104  16.833   6.639
 5618POPC   C3A71141  15.977  16.704   7.072
 5618POPC   C4A71142  16.112  16.389   7.374
 5618POPC   C1B71143  16.115  17.138   6.119
 5618POPC   C2B71144  16.342  17.280   6.506
 5618POPC   C3B71145  16.328  17.149   6.953
 5618POPC   C4B71146  16.105  17.253   7.310
 5619POPC   NC371147  37.802  19.267   5.502
 5619POPC   PO471148  37.452  18.672   5.443
 5619POPC   GL171149  37.590  18.889   5.794
 5619POPC   GL271150  37.402  19.203   5.837
 5619POPC   C1A71151  37.433  18.909   6.225
 5619POPC   D2A71152  37.618  19.011   6.554
 5619POPC   C3A71153  37.443  18.998   6.891
 5619POPC   C4A71154  37.436  18.811   7.222
 5619POPC   C1B71155  37.628  19.375   6.149
 5619POPC   C2B71156  37.910  19.404   6.464
 5619POPC   C3B71157  37.704  19.429   6.838
 5619POPC   C4B71158  37.841  19.435   7.226
 5620POPC   NC371159  33.016  18.707   5.470
 5620POPC   PO471160  32.943  18.024   5.479
 5620POPC   GL171161  33.174  18.222   5.812
 5620POPC   GL271162  33.362  18.536   5.790
 5620POPC   C1A71163  33.234  18.223   6.253
 5620POPC   D2A71164  33.032  18.141   6.642
 5620POPC   C3A71165  32.718  18.429   6.770
 5620POPC   C4A71166  32.908  18.468   7.166
 5620POPC   C1B71167  33.344  18.734   6.205
 5620POPC   C2B71168  33.407  18.541   6.630
 5620POPC   C3B71169  33.448  18.651   7.066
 5620POPC   C4B71170  33.407  18.527   7.529
 5621POPC   NC371171  39.009   9.389   5.061
 5621POPC   PO471172  39.005  10.052   5.144
 5621POPC   GL171173  38.968   9.722   5.589
 5621POPC   GL271174  39.241   9.474   5.717
 5621POPC   C1A71175  38.975   9.607   6.120
 5621POPC   D2A71176  39.265   9.632   6.528
 5621POPC   C3A71177  39.062   9.731   6.959
 5621POPC   C4A71178  38.849   9.990   7.282
 5621POPC   C1B71179  39.423   9.320   6.129
 5621POPC   C2B71180  39.570   9.201   6.550
 5621POPC   C3B71181  39.476   9.413   6.952
 5621POPC   C4B71182  39.404   9.642   7.376
 5622POPC   NC371183  20.310  29.481   5.041
 5622POPC   PO471184  20.599  30.025   5.357
 5622POPC   GL171185  20.796  29.921   5.803
 5622POPC   GL271186  20.591  29.656   5.903
 5622POPC   C1A71187  20.901  29.757   6.286
 5622POPC   D2A71188  21.022  29.528   6.671
 5622POPC   C3A71189  20.844  29.735   7.038
 5622POPC   C4A71190  20.720  29.956   7.431
 5622POPC   C1B71191  20.482  30.041   6.194
 5622POPC   C2B71192  20.587  30.213   6.606
 5622POPC   C3B71193  20.427  30.058   7.004
 5622POPC   C4B71194  20.359  29.644   7.216
 5623POPC   NC371195  39.125  15.147   5.329
 5623POPC   PO471196  39.630  15.566   5.535
 5623POPC   GL171197  39.300  15.331   5.848
 5623POPC   GL271198  39.132  14.970   5.868
 5623POPC   C1A71199  39.223  15.237   6.295
 5623POPC   D2A71200  38.943  15.430   6.556
 5623POPC   C3A71201  39.081  15.469   6.966
 5623POPC   C4A71202  38.925  15.487   7.372
 5623POPC   C1B71203  38.816  14.937   6.273
 5623POPC   C2B71204  38.750  15.002   6.744
 5623POPC   C3B71205  39.056  14.964   7.123
 5623POPC   C4B71206  38.946  14.989   7.584
 5624POPC   NC371207  28.298  30.813   5.319
 5624POPC   PO471208  28.349  31.526   5.444
 5624POPC   GL171209  28.345  31.553   5.879
 5624POPC   GL271210  28.545  31.844   5.870
 5624POPC   C1A71211  28.154  31.494   6.312
 5624POPC   D2A71212  28.098  31.558   6.774
 5624POPC   C3A71213  28.178  31.272   7.131
 5624POPC   C4A71214  28.218  30.996   7.490
 5624POPC   C1B71215  28.666  31.696   6.280
 5624POPC   C2B71216  28.549  31.786   6.697
 5624POPC   C3B71217  28.479  31.701   7.136
 5624POPC   C4B71218  28.776  31.524   7.439
 5625POPC   NC371219  43.426   7.339   5.318
 5625POPC   PO471220  44.034   7.682   5.249
 5625POPC   GL171221  43.799   7.576   5.675
 5625POPC   GL271222  44.012   7.676   5.866
 5625POPC   C1A71223  43.823   7.281   6.114
 5625POPC   D2A71224  43.582   7.169   6.515
 5625POPC   C3A71225  43.752   7.210   6.953
 5625POPC   C4A71226  43.540   7.411   7.302
 5625POPC   C1B71227  43.882   7.803   6.242
 5625POPC   C2B71228  43.873   7.595   6.598
 5625POPC   C3B71229  43.715   7.749   6.959
 5625POPC   C4B71230  43.891   7.860   7.329
 5626POPC   NC371231  40.776  14.965   5.436
 5626POPC   PO471232  41.087  15.486   5.262
 5626POPC   GL171233  40.958  15.346   5.725
 5626POPC   GL271234  40.558  15.274   5.773
 5626POPC   C1A71235  40.903  15.164   6.175
 5626POPC   D2A71236  41.001  15.087   6.629
 5626POPC   C3A71237  40.988  15.376   7.004
 5626POPC   C4A71238  41.048  15.140   7.393
 5626POPC   C1B71239  40.487  14.917   6.064
 5626POPC   C2B71240  40.481  14.994   6.490
 5626POPC   C3B71241  40.517  15.234   6.834
 5626POPC   C4B71242  40.575  15.099   7.218
 5627POPC   NC371243   3.093   5.779   5.480
 5627POPC   PO471244   2.369   5.727   5.422
 5627POPC   GL171245   2.667   5.753   5.761
 5627POPC   GL271246   2.917   5.478   5.846
 5627POPC   C1A71247   2.694   5.840   6.190
 5627POPC   D2A71248   2.500   5.995   6.558
 5627POPC   C3A71249   2.747   6.187   6.850
 5627POPC   C4A71250   2.765   6.110   7.279
 5627POPC   C1B71251   3.081   5.488   6.277
 5627POPC   C2B71252   2.788   5.492   6.644
 5627POPC   C3B71253   2.786   5.674   7.050
 5627POPC   C4B71254   2.828   5.500   7.488
 5628POPC   NC371255  31.580  12.464   5.320
 5628POPC   PO471256  31.135  11.986   5.391
 5628POPC   GL171257  31.420  12.073   5.739
 5628POPC   GL271258  31.646  11.803   5.789
 5628POPC   C1A71259  31.611  12.253   6.134
 5628POPC   D2A71260  31.474  12.173   6.580
 5628POPC   C3A71261  31.589  12.346   7.006
 5628POPC   C4A71262  31.385  12.246   7.415
 5628POPC   C1B71263  31.909  11.661   6.137
 5628POPC   C2B71264  32.005  11.681   6.588
 5628POPC   C3B71265  31.923  11.633   7.021
 5628POPC   C4B71266  31.770  11.946   7.279
 5629POPC   NC371267   0.337  23.719   5.337
 5629POPC   PO471268   0.902  23.621   5.374
 5629POPC   GL171269   0.633  23.801   5.766
 5629POPC   GL271270   0.255  23.899   5.825
 5629POPC   C1A71271   0.542  23.817   6.242
 5629POPC   D2A71272   0.639  23.573   6.614
 5629POPC   C3A71273   0.519  23.595   7.025
 5629POPC   C4A71274   0.669  23.826   7.370
 5629POPC   C1B71275   0.039  24.099   6.200
 5629POPC   C2B71276   0.033  24.125   6.675
 5629POPC   C3B71277   0.108  23.907   7.050
 5629POPC   C4B71278   0.202  23.679   7.414
 5630POPC   NC371279  44.249  28.282   5.328
 5630POPC   PO471280  44.946  28.568   5.340
 5630POPC   GL171281  44.893  28.380   5.752
 5630POPC   GL271282  44.554  28.417   5.752
 5630POPC   C1A71283  44.888  28.474   6.204
 5630POPC   D2A71284  44.691  28.250   6.556
 5630POPC   C3A71285  44.816  28.380   6.943
 5630POPC   C4A71286  44.825  28.097   7.252
 5630POPC   C1B71287  44.364  28.397   6.168
 5630POPC   C2B71288  44.152  28.576   6.524
 5630POPC   C3B71289  44.247  28.599   6.969
 5630POPC   C4B71290  44.506  28.470   7.337
 5631POPC   NC371291   3.339  29.648   5.380
 5631POPC   PO471292   3.355  30.343   5.669
 5631POPC   GL171293   3.679  30.134   6.020
 5631POPC   GL271294   3.759  29.725   5.963
 5631POPC   C1A71295   3.535  29.906   6.416
 5631POPC   D2A71296   3.437  30.219   6.668
 5631POPC   C3A71297   3.503  30.131   7.062
 5631POPC   C4A71298   3.728  30.169   7.396
 5631POPC   C1B71299   4.012  29.818   6.287
 5631POPC   C2B71300   3.979  29.662   6.698
 5631POPC   C3B71301   3.961  29.818   7.111
 5631POPC   C4B71302   3.851  29.688   7.542
 5632POPC   NC371303   3.705  39.011   5.432
 5632POPC   PO471304   3.837  39.629   5.142
 5632POPC   GL171305   3.808  39.501   5.634
 5632POPC   GL271306   3.465  39.343   5.780
 5632POPC   C1A71307   3.854  39.336   6.096
 5632POPC   D2A71308   3.614  39.369   6.482
 5632POPC   C3A71309   3.682  39.182   6.894
 5632POPC   C4A71310   3.754  39.328   7.294
 5632POPC   C1B71311   3.327  39.069   6.177
 5632POPC   C2B71312   3.222  39.081   6.644
 5632POPC   C3B71313   3.224  39.324   7.040
 5632POPC   C4B71314   3.283  39.197   7.469
 5633POPC   NC371315  27.123   0.315   5.379
 5633POPC   PO471316  26.531   0.584   5.363
 5633POPC   GL171317  26.708   0.364   5.691
 5633POPC   GL271318  27.015   0.612   5.803
 5633POPC   C1A71319  26.717   0.351   6.128
 5633POPC   D2A71320  26.925   0.380   6.510
 5633POPC   C3A71321  26.635   0.491   6.849
 5633POPC   C4A71322  26.704   0.357   7.252
 5633POPC   C1B71323  27.010   0.848   6.237
 5633POPC   C2B71324  26.900   0.887   6.696
 5633POPC   C3B71325  26.891   0.818   7.160
 5633POPC   C4B71326  27.175   0.724   7.516
 5634POPC   NC371327   8.493  24.219   5.364
 5634POPC   PO471328   8.974  23.686   5.440
 5634POPC   GL171329   8.973  23.640   5.843
 5634POPC   GL271330   9.067  23.983   5.866
 5634POPC   C1A71331   8.995  23.385   6.213
 5634POPC   D2A71332   8.832  23.311   6.618
 5634POPC   C3A71333   8.873  23.568   6.969
 5634POPC   C4A71334   8.589  23.721   7.297
 5634POPC   C1B71335   8.861  23.892   6.272
 5634POPC   C2B71336   9.040  23.962   6.658
 5634POPC   C3B71337   8.948  24.056   7.082
 5634POPC   C4B71338   9.218  24.039   7.438
 5635POPC   NC371339  42.691  16.102   5.407
 5635POPC   PO471340  42.942  15.483   5.403
 5635POPC   GL171341  43.177  15.785   5.728
 5635POPC   GL271342  43.065  16.089   5.761
 5635POPC   C1A71343  43.173  15.762   6.180
 5635POPC   D2A71344  43.240  16.024   6.545
 5635POPC   C3A71345  43.141  15.815   6.919
 5635POPC   C4A71346  43.308  15.771   7.341
 5635POPC   C1B71347  42.934  16.220   6.152
 5635POPC   C2B71348  43.000  16.497   6.480
 5635POPC   C3B71349  43.002  16.338   6.870
 5635POPC   C4B71350  43.067  16.215   7.268
 5636POPC   NC371351  29.074   6.016   5.499
 5636POPC   PO471352  29.699   5.848   5.325
 5636POPC   GL171353  29.528   5.982   5.747
 5636POPC   GL271354  29.289   5.733   5.849
 5636POPC   C1A71355  29.362   6.124   6.147
 5636POPC   D2A71356  29.227   5.895   6.484
 5636POPC   C3A71357  29.435   5.997   6.829
 5636POPC   C4A71358  29.480   6.035   7.213
 5636POPC   C1B71359  28.934   5.639   6.152
 5636POPC   C2B71360  28.791   5.668   6.605
 5636POPC   C3B71361  29.075   5.653   6.938
 5636POPC   C4B71362  29.030   5.841   7.322
 5637POPC   NC371363  12.203  13.411   5.418
 5637POPC   PO471364  11.827  14.008   5.378
 5637POPC   GL171365  11.963  13.730   5.776
 5637POPC   GL271366  12.354  13.664   5.832
 5637POPC   C1A71367  12.077  13.707   6.240
 5637POPC   D2A71368  12.167  14.000   6.585
 5637POPC   C3A71369  12.128  13.739   6.988
 5637POPC   C4A71370  11.831  13.547   7.295
 5637POPC   C1B71371  12.342  13.220   6.044
 5637POPC   C2B71372  12.457  13.133   6.482
 5637POPC   C3B71373  12.309  13.222   6.873
 5637POPC   C4B71374  12.335  13.347   7.281
 5638POPC   NC371375   2.868  27.797   5.319
 5638POPC   PO471376   2.595  27.166   5.325
 5638POPC   GL171377   2.573  27.406   5.767
 5638POPC   GL271378   2.863  27.654   5.841
 5638POPC   C1A71379   2.605  27.408   6.259
 5638POPC   D2A71380   2.900  27.561   6.638
 5638POPC   C3A71381   2.702  27.494   7.078
 5638POPC   C4A71382   2.814  27.319   7.508
 5638POPC   C1B71383   2.775  27.881   6.248
 5638POPC   C2B71384   2.866  28.093   6.629
 5638POPC   C3B71385   2.994  27.926   7.038
 5638POPC   C4B71386   2.867  27.814   7.457
 5639POPC   NC371387   7.635  11.670   5.285
 5639POPC   PO471388   7.401  11.052   5.503
 5639POPC   GL171389   7.469  11.206   5.890
 5639POPC   GL271390   7.178  11.420   5.894
 5639POPC   C1A71391   7.277  11.122   6.302
 5639POPC   D2A71392   7.039  11.039   6.632
 5639POPC   C3A71393   7.322  11.091   6.940
 5639POPC   C4A71394   7.376  11.037   7.353
 5639POPC   C1B71395   7.436  11.592   6.249
 5639POPC   C2B71396   7.598  11.520   6.684
 5639POPC   C3B71397   7.423  11.539   7.113
 5639POPC   C4B71398   7.443  11.500   7.566
 5640POPC   NC371399  30.142  22.378   5.298
 5640POPC   PO471400  29.922  23.042   5.321
 5640POPC   GL171401  29.832  23.032   5.754
 5640POPC   GL271402  29.739  22.683   5.732
 5640POPC   C1A71403  29.952  22.875   6.180
 5640POPC   D2A71404  30.316  22.864   6.478
 5640POPC   C3A71405  30.172  23.064   6.832
 5640POPC   C4A71406  30.081  22.962   7.222
 5640POPC   C1B71407  29.453  22.655   6.077
 5640POPC   C2B71408  29.407  22.668   6.503
 5640POPC   C3B71409  29.727  22.612   6.808
 5640POPC   C4B71410  29.723  22.597   7.255
 5641POPC   NC371411  18.482  41.753   5.388
 5641POPC   PO471412  19.173  41.647   5.359
 5641POPC   GL171413  19.029  41.722   5.750
 5641POPC   GL271414  19.297  41.496   5.851
 5641POPC   C1A71415  18.854  41.715   6.158
 5641POPC   D2A71416  18.721  41.894   6.553
 5641POPC   C3A71417  18.740  41.585   6.857
 5641POPC   C4A71418  18.839  41.573   7.262
 5641POPC   C1B71419  19.351  41.714   6.211
 5641POPC   C2B71420  19.189  41.590   6.586
 5641POPC   C3B71421  19.282  41.627   6.981
 5641POPC   C4B71422  19.464  41.462   7.336
 5642POPC   NC371423  34.179  21.211   5.560
 5642POPC   PO471424  34.766  21.656   5.454
 5642POPC   GL171425  34.558  21.624   5.852
 5642POPC   GL271426  34.585  21.267   5.916
 5642POPC   C1A71427  34.456  21.599   6.317
 5642POPC   D2A71428  34.596  21.324   6.655
 5642POPC   C3A71429  34.418  21.377   7.058
 5642POPC   C4A71430  34.671  21.358   7.434
 5642POPC   C1B71431  34.344  21.068   6.242
 5642POPC   C2B71432  34.412  20.835   6.627
 5642POPC   C3B71433  34.224  20.859   7.008
 5642POPC   C4B71434  34.278  21.034   7.418
 5643POPC   NC371435  39.811  35.979   5.447
 5643POPC   PO471436  40.263  36.454   5.508
 5643POPC   GL171437  39.997  36.291   5.787
 5643POPC   GL271438  40.226  35.985   5.764
 5643POPC   C1A71439  39.749  36.286   6.156
 5643POPC   D2A71440  39.941  36.399   6.535
 5643POPC   C3A71441  39.811  36.233   6.890
 5643POPC   C4A71442  39.812  35.909   7.181
 5643POPC   C1B71443  40.235  36.116   6.200
 5643POPC   C2B71444  40.283  35.998   6.613
 5643POPC   C3B71445  40.278  36.064   7.027
 5643POPC   C4B71446  40.270  35.864   7.418
 5644POPC   NC371447  18.936  32.730   5.275
 5644POPC   PO471448  19.448  33.126   5.047
 5644POPC   GL171449  19.251  32.988   5.584
 5644POPC   GL271450  18.936  32.883   5.759
 5644POPC   C1A71451  19.308  32.968   6.088
 5644POPC   D2A71452  19.375  33.174   6.513
 5644POPC   C3A71453  19.253  32.967   6.910
 5644POPC   C4A71454  19.256  33.142   7.336
 5644POPC   C1B71455  18.802  33.111   6.132
 5644POPC   C2B71456  18.871  33.058   6.563
 5644POPC   C3B71457  18.690  33.069   6.977
 5644POPC   C4B71458  18.824  32.860   7.321
 5645POPC   NC371459   5.440  32.797   5.618
 5645POPC   PO471460   4.809  32.849   5.508
 5645POPC   GL171461   4.887  33.110   5.854
 5645POPC   GL271462   5.247  33.200   5.883
 5645POPC   C1A71463   4.953  32.996   6.274
 5645POPC   D2A71464   5.257  32.894   6.592
 5645POPC   C3A71465   5.052  32.853   6.977
 5645POPC   C4A71466   4.757  33.098   7.187
 5645POPC   C1B71467   5.431  33.325   6.272
 5645POPC   C2B71468   5.569  33.289   6.685
 5645POPC   C3B71469   5.497  33.128   7.097
 5645POPC   C4B71470   5.253  33.164   7.454
 5646POPC   NC371471   4.580  38.551   5.580
 5646POPC   PO471472   4.056  38.817   5.148
 5646POPC   GL171473   3.969  38.589   5.682
 5646POPC   GL271474   4.290  38.674   5.999
 5646POPC   C1A71475   3.974  38.330   6.100
 5646POPC   D2A71476   4.148  38.557   6.486
 5646POPC   C3A71477   4.159  38.328   6.876
 5646POPC   C4A71478   4.152  38.470   7.284
 5646POPC   C1B71479   4.637  38.502   6.271
 5646POPC   C2B71480   4.643  38.440   6.722
 5646POPC   C3B71481   4.612  38.289   7.142
 5646POPC   C4B71482   4.423  37.867   7.187
 5647POPC   NC371483  25.881  37.040   5.406
 5647POPC   PO471484  25.943  36.418   5.121
 5647POPC   GL171485  26.190  36.635   5.589
 5647POPC   GL271486  26.233  36.991   5.767
 5647POPC   C1A71487  26.079  36.659   6.115
 5647POPC   D2A71488  26.073  36.871   6.569
 5647POPC   C3A71489  26.177  36.690   6.997
 5647POPC   C4A71490  25.994  36.335   7.244
 5647POPC   C1B71491  25.923  37.155   6.098
 5647POPC   C2B71492  25.766  37.297   6.525
 5647POPC   C3B71493  25.765  37.133   6.919
 5647POPC   C4B71494  26.090  37.181   7.167
 5648POPC   NC371495  20.451  38.071   5.440
 5648POPC   PO471496  21.048  37.557   5.425
 5648POPC   GL171497  20.813  37.597   5.838
 5648POPC   GL271498  20.500  37.410   5.909
 5648POPC   C1A71499  20.819  37.456   6.305
 5648POPC   D2A71500  20.624  37.636   6.692
 5648POPC   C3A71501  20.796  37.660   7.099
 5648POPC   C4A71502  20.671  37.277   7.243
 5648POPC   C1B71503  20.380  37.715   6.242
 5648POPC   C2B71504  20.228  37.952   6.645
 5648POPC   C3B71505  20.316  37.856   7.100
 5648POPC   C4B71506  20.326  37.606   7.489
 5649POPC   NC371507  42.699   4.437   5.555
 5649POPC   PO471508  43.351   4.648   5.276
 5649POPC   GL171509  43.345   4.470   5.701
 5649POPC   GL271510  43.149   4.183   5.681
 5649POPC   C1A71511  43.231   4.412   6.176
 5649POPC   D2A71512  43.127   4.551   6.614
 5649POPC   C3A71513  43.174   4.376   7.048
 5649POPC   C4A71514  43.287   4.118   7.404
 5649POPC   C1B71515  42.854   4.088   6.068
 5649POPC   C2B71516  42.877   4.093   6.510
 5649POPC   C3B71517  42.841   3.954   6.931
 5649POPC   C4B71518  42.540   4.052   7.249
 5650POPC   NC371519  28.601   1.464   5.635
 5650POPC   PO471520  28.313   0.901   5.280
 5650POPC   GL171521  28.247   0.977   5.724
 5650POPC   GL271522  28.098   1.273   5.790
 5650POPC   C1A71523  28.423   1.035   6.140
 5650POPC   D2A71524  28.298   1.040   6.541
 5650POPC   C3A71525  28.524   1.220   6.857
 5650POPC   C4A71526  28.415   1.155   7.246
 5650POPC   C1B71527  28.014   1.410   6.212
 5650POPC   C2B71528  27.935   1.408   6.661
 5650POPC   C3B71529  28.078   1.499   7.095
 5650POPC   C4B71530  28.228   1.496   7.571
 5651POPC   NC371531   6.709   5.297   5.402
 5651POPC   PO471532   6.455   4.728   5.687
 5651POPC   GL171533   6.679   5.082   5.869
 5651POPC   GL271534   6.527   5.443   5.841
 5651POPC   C1A71535   6.944   5.044   6.238
 5651POPC   D2A71536   6.990   5.221   6.652
 5651POPC   C3A71537   6.732   4.995   6.941
 5651POPC   C4A71538   6.482   4.734   7.152
 5651POPC   C1B71539   6.653   5.447   6.247
 5651POPC   C2B71540   6.466   5.332   6.613
 5651POPC   C3B71541   6.657   5.499   6.934
 5651POPC   C4B71542   6.710   5.349   7.329
 5652POPC   NC371543  42.653  20.372   5.374
 5652POPC   PO471544  42.236  20.788   5.083
 5652POPC   GL171545  42.242  20.574   5.566
 5652POPC   GL271546  42.515  20.685   5.776
 5652POPC   C1A71547  42.138  20.425   6.019
 5652POPC   D2A71548  42.278  20.398   6.468
 5652POPC   C3A71549  42.174  20.649   6.836
 5652POPC   C4A71550  42.211  20.579   7.276
 5652POPC   C1B71551  42.429  20.826   6.220
 5652POPC   C2B71552  42.652  20.888   6.654
 5652POPC   C3B71553  42.613  20.832   7.130
 5652POPC   C4B71554  42.609  20.748   7.597
 5653POPC   NC371555  41.854  41.022   5.555
 5653POPC   PO471556  41.192  40.753   5.439
 5653POPC   GL171557  41.425  40.733   5.825
 5653POPC   GL271558  41.352  41.067   5.908
 5653POPC   C1A71559  41.645  40.496   6.163
 5653POPC   D2A71560  41.984  40.596   6.471
 5653POPC   C3A71561  41.888  40.421   6.871
 5653POPC   C4A71562  41.606  40.506   7.206
 5653POPC   C1B71563  41.703  41.024   6.215
 5653POPC   C2B71564  41.875  41.115   6.638
 5653POPC   C3B71565  41.770  40.963   7.046
 5653POPC   C4B71566  41.811  40.914   7.521
 5654POPC   NC371567  27.098   3.498   5.509
 5654POPC   PO471568  26.463   3.692   5.471
 5654POPC   GL171569  26.566   3.612   5.859
 5654POPC   GL271570  26.913   3.594   5.962
 5654POPC   C1A71571  26.486   3.543   6.248
 5654POPC   D2A71572  26.672   3.359   6.555
 5654POPC   C3A71573  26.661   3.535   6.946
 5654POPC   C4A71574  26.448   3.617   7.316
 5654POPC   C1B71575  27.070   3.251   6.220
 5654POPC   C2B71576  27.033   2.984   6.580
 5654POPC   C3B71577  26.970   3.131   7.008
 5654POPC   C4B71578  26.921   3.423   7.394
 5655POPC   NC371579  19.144  24.729   5.164
 5655POPC   PO471580  18.752  24.263   5.486
 5655POPC   GL171581  19.022  24.450   5.824
 5655POPC   GL271582  19.255  24.725   5.714
 5655POPC   C1A71583  19.102  24.347   6.274
 5655POPC   D2A71584  18.975  24.556   6.639
 5655POPC   C3A71585  19.063  24.307   6.974
 5655POPC   C4A71586  19.115  24.429   7.345
 5655POPC   C1B71587  19.166  24.859   6.152
 5655POPC   C2B71588  19.400  24.857   6.547
 5655POPC   C3B71589  19.311  24.771   6.978
 5655POPC   C4B71590  18.884  24.870   7.118
 5656POPC   NC371591   1.747  29.437   5.231
 5656POPC   PO471592   1.182  29.011   5.343
 5656POPC   GL171593   1.148  29.322   5.677
 5656POPC   GL271594   1.489  29.462   5.778
 5656POPC   C1A71595   1.127  29.233   6.111
 5656POPC   D2A71596   1.330  29.032   6.455
 5656POPC   C3A71597   1.114  29.165   6.812
 5656POPC   C4A71598   0.865  28.978   7.101
 5656POPC   C1B71599   1.644  29.455   6.239
 5656POPC   C2B71600   1.549  29.475   6.695
 5656POPC   C3B71601   1.526  29.238   7.103
 5656POPC   C4B71602   1.583  29.178   7.560
 5657POPC   NC371603  30.796  13.205   5.229
 5657POPC   PO471604  30.585  13.822   5.515
 5657POPC   GL171605  30.833  13.605   5.818
 5657POPC   GL271606  30.637  13.273   5.791
 5657POPC   C1A71607  30.951  13.787   6.258
 5657POPC   D2A71608  30.989  13.891   6.724
 5657POPC   C3A71609  30.856  13.560   7.014
 5657POPC   C4A71610  30.753  13.478   7.448
 5657POPC   C1B71611  30.538  13.441   6.212
 5657POPC   C2B71612  30.527  13.631   6.596
 5657POPC   C3B71613  30.296  13.849   6.880
 5657POPC   C4B71614  30.498  13.864   7.259
 5658POPC   NC371615  43.181  27.026   5.354
 5658POPC   PO471616  43.318  26.401   5.468
 5658POPC   GL171617  43.319  26.731   5.773
 5658POPC   GL271618  43.165  27.083   5.852
 5658POPC   C1A71619  43.386  26.761   6.195
 5658POPC   D2A71620  43.264  27.030   6.527
 5658POPC   C3A71621  43.300  26.878   6.918
 5658POPC   C4A71622  43.368  26.713   7.279
 5658POPC   C1B71623  42.887  27.002   6.181
 5658POPC   C2B71624  42.613  27.026   6.539
 5658POPC   C3B71625  42.813  27.070   6.906
 5658POPC   C4B71626  42.882  26.848   7.228
 5659POPC   NC371627  25.747   4.916   5.490
 5659POPC   PO471628  26.399   5.257   5.490
 5659POPC   GL171629  26.199   4.971   5.775
 5659POPC   GL271630  25.924   5.170   5.893
 5659POPC   C1A71631  26.093   4.774   6.189
 5659POPC   D2A71632  26.155   4.977   6.599
 5659POPC   C3A71633  26.184   4.789   6.992
 5659POPC   C4A71634  26.158   5.061   7.320
 5659POPC   C1B71635  25.789   5.175   6.292
 5659POPC   C2B71636  25.699   5.261   6.686
 5659POPC   C3B71637  25.938   5.384   6.996
 5659POPC   C4B71638  25.674   5.391   7.303
 5660POPC   NC371639  41.331  26.790   5.283
 5660POPC   PO471640  41.879  26.444   5.461
 5660POPC   GL171641  41.646  26.729   5.741
 5660POPC   GL271642  41.274  26.729   5.791
 5660POPC   C1A71643  41.695  26.903   6.170
 5660POPC   D2A71644  41.551  26.861   6.608
 5660POPC   C3A71645  41.806  26.811   7.002
 5660POPC   C4A71646  41.984  26.466   7.252
 5660POPC   C1B71647  41.186  27.062   6.113
 5660POPC   C2B71648  41.253  27.281   6.527
 5660POPC   C3B71649  41.223  27.076   6.923
 5660POPC   C4B71650  41.389  26.939   7.289
 5661POPC   NC371651  43.529   9.614   5.545
 5661POPC   PO471652  42.873   9.712   5.625
 5661POPC   GL171653  43.056   9.778   5.945
 5661POPC   GL271654  43.329   9.602   5.995
 5661POPC   C1A71655  42.977   9.779   6.355
 5661POPC   D2A71656  43.094   9.922   6.715
 5661POPC   C3A71657  42.954   9.716   7.050
 5661POPC   C4A71658  42.850   9.821   7.445
 5661POPC   C1B71659  43.486   9.775   6.325
 5661POPC   C2B71660  43.391   9.504   6.637
 5661POPC   C3B71661  43.470   9.674   7.005
 5661POPC   C4B71662  43.421   9.673   7.411
 5662POPC   NC371663  25.250  26.411   5.365
 5662POPC   PO471664  25.550  27.027   5.381
 5662POPC   GL171665  25.225  26.956   5.699
 5662POPC   GL271666  25.180  26.623   5.841
 5662POPC   C1A71667  25.208  27.044   6.129
 5662POPC   D2A71668  25.044  26.828   6.462
 5662POPC   C3A71669  25.237  26.855   6.853
 5662POPC   C4A71670  25.350  27.146   7.190
 5662POPC   C1B71671  25.365  26.475   6.271
 5662POPC   C2B71672  25.495  26.405   6.733
 5662POPC   C3B71673  25.450  26.395   7.200
 5662POPC   C4B71674  25.557  26.270   7.609
 5663POPC   NC371675   8.294   3.779   5.444
 5663POPC   PO471676   8.167   3.091   5.349
 5663POPC   GL171677   8.129   3.343   5.704
 5663POPC   GL271678   8.439   3.297   5.813
 5663POPC   C1A71679   8.173   3.596   6.133
 5663POPC   D2A71680   8.175   3.810   6.539
 5663POPC   C3A71681   8.209   3.600   6.920
 5663POPC   C4A71682   8.204   3.376   7.292
 5663POPC   C1B71683   8.599   3.287   6.203
 5663POPC   C2B71684   8.577   3.443   6.599
 5663POPC   C3B71685   8.595   3.249   6.975
 5663POPC   C4B71686   8.695   3.348   7.382
 5664POPC   NC371687  37.041  31.843   5.388
 5664POPC   PO471688  36.572  32.413   5.438
 5664POPC   GL171689  36.643  32.308   5.857
 5664POPC   GL271690  36.667  31.958   5.764
 5664POPC   C1A71691  36.835  32.466   6.260
 5664POPC   D2A71692  37.117  32.622   6.647
 5664POPC   C3A71693  36.943  32.705   7.111
 5664POPC   C4A71694  36.726  32.556   7.535
 5664POPC   C1B71695  36.888  31.936   6.170
 5664POPC   C2B71696  36.955  32.118   6.603
 5664POPC   C3B71697  36.817  32.195   7.000
 5664POPC   C4B71698  36.575  31.888   7.204
 5665POPC   NC371699   5.317  17.785   5.353
 5665POPC   PO471700   5.040  18.419   5.326
 5665POPC   GL171701   5.243  18.402   5.710
 5665POPC   GL271702   5.146  18.035   5.755
 5665POPC   C1A71703   5.348  18.611   6.115
 5665POPC   D2A71704   5.309  18.421   6.505
 5665POPC   C3A71705   5.187  18.547   6.889
 5665POPC   C4A71706   5.071  18.261   7.210
 5665POPC   C1B71707   4.995  18.221   6.124
 5665POPC   C2B71708   4.789  18.412   6.458
 5665POPC   C3B71709   4.683  18.400   6.869
 5665POPC   C4B71710   4.582  18.476   7.263
 5666POPC   NC371711  29.927  34.745   5.407
 5666POPC   PO471712  29.987  34.110   5.734
 5666POPC   GL171713  29.980  34.523   5.912
 5666POPC   GL271714  29.761  34.810   5.882
 5666POPC   C1A71715  29.986  34.496   6.345
 5666POPC   D2A71716  30.254  34.391   6.663
 5666POPC   C3A71717  29.976  34.471   6.978
 5666POPC   C4A71718  29.940  34.611   7.417
 5666POPC   C1B71719  29.711  34.921   6.328
 5666POPC   C2B71720  29.569  34.615   6.652
 5666POPC   C3B71721  29.493  34.537   7.088
 5666POPC   C4B71722  29.496  34.863   7.389
 5667POPC   NC371723  14.342   3.573   5.280
 5667POPC   PO471724  14.795   3.194   5.500
 5667POPC   GL171725  14.436   3.349   5.768
 5667POPC   GL271726  14.105   3.204   5.610
 5667POPC   C1A71727  14.487   3.625   6.185
 5667POPC   D2A71728  14.638   3.617   6.652
 5667POPC   C3A71729  14.409   3.775   7.024
 5667POPC   C4A71730  14.003   3.662   7.221
 5667POPC   C1B71731  14.072   3.169   6.081
 5667POPC   C2B71732  14.235   3.298   6.466
 5667POPC   C3B71733  14.165   3.361   6.840
 5667POPC   C4B71734  14.140   3.171   7.210
 5668POPC   NC371735  28.125  11.977   5.288
 5668POPC   PO471736  28.799  12.020   5.420
 5668POPC   GL171737  28.457  12.082   5.688
 5668POPC   GL271738  28.589  11.873   5.906
 5668POPC   C1A71739  28.251  12.193   6.094
 5668POPC   D2A71740  28.331  12.301   6.529
 5668POPC   C3A71741  28.316  12.067   6.903
 5668POPC   C4A71742  28.048  12.070   7.258
 5668POPC   C1B71743  28.790  11.824   6.270
 5668POPC   C2B71744  28.789  11.897   6.691
 5668POPC   C3B71745  28.751  11.902   7.123
 5668POPC   C4B71746  28.553  11.968   7.485
 5669POPC   NC371747  13.678  22.332   5.128
 5669POPC   PO471748  13.869  21.714   5.429
 5669POPC   GL171749  13.640  22.034   5.719
 5669POPC   GL271750  13.533  22.363   5.861
 5669POPC   C1A71751  13.503  21.959   6.161
 5669POPC   D2A71752  13.400  22.151   6.556
 5669POPC   C3A71753  13.543  22.008   6.946
 5669POPC   C4A71754  13.379  21.814   7.287
 5669POPC   C1B71755  13.724  22.457   6.295
 5669POPC   C2B71756  13.889  22.301   6.693
 5669POPC   C3B71757  13.761  22.412   7.148
 5669POPC   C4B71758  13.964  22.590   7.540
 5670POPC   NC371759  31.180  39.310   5.351
 5670POPC   PO471760  31.814  39.068   5.473
 5670POPC   GL171761  31.521  39.274   5.755
 5670POPC   GL271762  31.181  39.155   5.830
 5670POPC   C1A71763  31.551  39.270   6.194
 5670POPC   D2A71764  31.701  39.441   6.571
 5670POPC   C3A71765  31.756  39.272   6.977
 5670POPC   C4A71766  31.643  39.532   7.359
 5670POPC   C1B71767  31.107  39.520   6.086
 5670POPC   C2B71768  31.165  39.481   6.525
 5670POPC   C3B71769  31.245  39.205   6.898
 5670POPC   C4B71770  31.263  39.206   7.351
 5671POPC   NC371771   3.891  20.786   5.575
 5671POPC   PO471772   4.552  20.899   5.450
 5671POPC   GL171773   4.457  20.607   5.797
 5671POPC   GL271774   4.136  20.386   5.832
 5671POPC   C1A71775   4.529  20.470   6.212
 5671POPC   D2A71776   4.290  20.265   6.565
 5671POPC   C3A71777   4.423  20.373   6.976
 5671POPC   C4A71778   4.550  20.772   7.114
 5671POPC   C1B71779   4.051  20.618   6.246
 5671POPC   C2B71780   4.199  20.753   6.699
 5671POPC   C3B71781   4.049  20.659   7.148
 5671POPC   C4B71782   3.937  20.517   7.571
 5672POPC   NC371783  28.630  12.527   5.477
 5672POPC   PO471784  28.185  12.922   5.575
 5672POPC   GL171785  28.317  12.720   5.953
 5672POPC   GL271786  28.698  12.783   5.917
 5672POPC   C1A71787  28.112  12.888   6.355
 5672POPC   D2A71788  28.049  13.164   6.720
 5672POPC   C3A71789  28.092  12.881   7.053
 5672POPC   C4A71790  28.296  12.509   7.135
 5672POPC   C1B71791  28.621  12.948   6.312
 5672POPC   C2B71792  28.498  12.834   6.732
 5672POPC   C3B71793  28.654  12.904   7.158
 5672POPC   C4B71794  28.858  12.846   7.568
 5673POPC   NC371795  25.923  29.989   5.430
 5673POPC   PO471796  26.193  29.434   5.454
 5673POPC   GL171797  26.174  29.755   5.811
 5673POPC   GL271798  26.182  30.123   5.836
 5673POPC   C1A71799  26.119  29.812   6.259
 5673POPC   D2A71800  25.932  29.686   6.641
 5673POPC   C3A71801  26.051  29.821   7.028
 5673POPC   C4A71802  26.313  29.702   7.352
 5673POPC   C1B71803  25.997  30.298   6.180
 5673POPC   C2B71804  26.028  30.188   6.608
 5673POPC   C3B71805  25.991  30.331   7.017
 5673POPC   C4B71806  26.075  30.166   7.428
 5674POPC   NC371807   7.901  16.913   5.587
 5674POPC   PO471808   8.143  17.534   5.412
 5674POPC   GL171809   8.106  17.488   5.853
 5674POPC   GL271810   8.457  17.504   5.956
 5674POPC   C1A71811   7.866  17.666   6.207
 5674POPC   D2A71812   7.755  17.479   6.610
 5674POPC   C3A71813   7.784  17.737   6.964
 5674POPC   C4A71814   7.828  17.652   7.380
 5674POPC   C1B71815   8.325  17.462   6.390
 5674POPC   C2B71816   8.190  17.174   6.689
 5674POPC   C3B71817   8.088  17.316   7.096
 5674POPC   C4B71818   8.272  17.428   7.515
 5675POPC   NC371819   2.852  26.813   5.479
 5675POPC   PO471820   2.269  26.841   5.741
 5675POPC   GL171821   2.566  26.553   5.896
 5675POPC   GL271822   2.932  26.615   5.944
 5675POPC   C1A71823   2.594  26.643   6.336
 5675POPC   D2A71824   2.345  26.594   6.688
 5675POPC   C3A71825   2.593  26.615   7.022
 5675POPC   C4A71826   2.736  26.980   7.146
 5675POPC   C1B71827   2.914  27.005   6.183
 5675POPC   C2B71828   2.829  27.058   6.639
 5675POPC   C3B71829   3.123  27.228   6.961
 5675POPC   C4B71830   3.200  27.039   7.346
 5676POPC   NC371831  15.599  19.829   5.460
 5676POPC   PO471832  16.095  19.419   5.347
 5676POPC   GL171833  16.016  19.695   5.746
 5676POPC   GL271834  15.676  19.696   5.943
 5676POPC   C1A71835  16.014  19.983   6.150
 5676POPC   D2A71836  15.778  19.972   6.538
 5676POPC   C3A71837  15.955  19.947   6.933
 5676POPC   C4A71838  15.818  20.006   7.334
 5676POPC   C1B71839  15.760  19.517   6.351
 5676POPC   C2B71840  15.889  19.396   6.816
 5676POPC   C3B71841  15.963  19.518   7.244
 5676POPC   C4B71842  16.126  19.581   7.690
 5677POPC   NC371843  10.923  19.483   5.462
 5677POPC   PO471844  11.590  19.684   5.270
 5677POPC   GL171845  11.549  19.927   5.680
 5677POPC   GL271846  11.799  20.146   5.793
 5677POPC   C1A71847  11.319  19.925   6.091
 5677POPC   D2A71848  11.051  19.790   6.440
 5677POPC   C3A71849  11.089  19.948   6.863
 5677POPC   C4A71850  11.057  19.700   7.233
 5677POPC   C1B71851  11.828  19.922   6.163
 5677POPC   C2B71852  11.609  19.857   6.547
 5677POPC   C3B71853  11.533  19.746   6.983
 5677POPC   C4B71854  11.462  19.960   7.367
 5678POPC   NC371855  44.367   9.125   5.386
 5678POPC   PO471856  43.916   8.675   5.252
 5678POPC   GL171857  43.841   8.695   5.709
 5678POPC   GL271858  43.740   9.071   5.716
 5678POPC   C1A71859  44.051   8.804   6.105
 5678POPC   D2A71860  44.127   8.718   6.542
 5678POPC   C3A71861  44.119   9.033   6.857
 5678POPC   C4A71862  43.970   8.913   7.258
 5678POPC   C1B71863  43.654   9.207   6.135
 5678POPC   C2B71864  43.675   9.049   6.557
 5678POPC   C3B71865  43.627   9.188   6.988
 5678POPC   C4B71866  43.886   9.430   7.231
 5679POPC   NC371867   8.574   5.738   5.503
 5679POPC   PO471868   7.945   5.870   5.273
 5679POPC   GL171869   8.101   5.890   5.712
 5679POPC   GL271870   7.988   5.570   5.838
 5679POPC   C1A71871   8.249   5.900   6.175
 5679POPC   D2A71872   7.992   5.860   6.542
 5679POPC   C3A71873   8.151   5.853   6.951
 5679POPC   C4A71874   8.555   5.898   7.109
 5679POPC   C1B71875   8.245   5.394   6.183
 5679POPC   C2B71876   8.514   5.269   6.510
 5679POPC   C3B71877   8.592   5.348   6.921
 5679POPC   C4B71878   8.282   5.454   7.223
 5680POPC   NC371879  21.268  20.057   5.532
 5680POPC   PO471880  21.555  19.400   5.420
 5680POPC   GL171881  21.511  19.650   5.833
 5680POPC   GL271882  21.541  19.998   5.955
 5680POPC   C1A71883  21.366  19.625   6.288
 5680POPC   D2A71884  21.355  19.946   6.626
 5680POPC   C3A71885  21.296  19.911   7.054
 5680POPC   C4A71886  20.938  19.641   7.148
 5680POPC   C1B71887  21.794  19.902   6.350
 5680POPC   C2B71888  21.790  19.676   6.758
 5680POPC   C3B71889  21.808  19.790   7.203
 5680POPC   C4B71890  21.545  19.761   7.599
 5681POPC   NC371891  24.994  28.928   5.219
 5681POPC   PO471892  24.542  28.394   5.383
 5681POPC   GL171893  24.641  28.289   5.832
 5681POPC   GL271894  24.594  28.661   5.854
 5681POPC   C1A71895  24.599  28.393   6.289
 5681POPC   D2A71896  24.475  28.547   6.710
 5681POPC   C3A71897  24.723  28.316   7.036
 5681POPC   C4A71898  24.682  28.180   7.485
 5681POPC   C1B71899  24.668  28.909   6.210
 5681POPC   C2B71900  24.849  28.872   6.602
 5681POPC   C3B71901  24.717  28.885   7.042
 5681POPC   C4B71902  24.489  28.656   7.338
 5682POPC   NC371903  14.146  14.610   5.594
 5682POPC   PO471904  14.799  14.315   5.578
 5682POPC   GL171905  14.577  14.438   5.918
 5682POPC   GL271906  14.254  14.290   5.971
 5682POPC   C1A71907  14.580  14.304   6.357
 5682POPC   D2A71908  14.566  14.589   6.696
 5682POPC   C3A71909  14.481  14.390   7.079
 5682POPC   C4A71910  14.459  14.068   7.415
 5682POPC   C1B71911  14.090  14.486   6.302
 5682POPC   C2B71912  14.088  14.396   6.722
 5682POPC   C3B71913  14.087  14.698   7.024
 5682POPC   C4B71914  14.135  15.018   7.270
 5683POPC   NC371915  18.781   6.732   5.176
 5683POPC   PO471916  18.154   6.571   5.462
 5683POPC   GL171917  18.092   6.625   5.866
 5683POPC   GL271918  18.393   6.812   5.919
 5683POPC   C1A71919  18.184   6.390   6.231
 5683POPC   D2A71920  18.037   6.459   6.623
 5683POPC   C3A71921  18.305   6.494   6.972
 5683POPC   C4A71922  18.091   6.758   7.193
 5683POPC   C1B71923  18.254   6.881   6.311
 5683POPC   C2B71924  18.295   6.918   6.719
 5683POPC   C3B71925  18.504   7.055   7.066
 5683POPC   C4B71926  18.459   6.956   7.490
 5684POPC   NC371927  31.743  17.776   5.572
 5684POPC   PO471928  31.293  17.307   5.325
 5684POPC   GL171929  31.343  17.452   5.769
 5684POPC   GL271930  31.691  17.307   5.811
 5684POPC   C1A71931  31.359  17.727   6.199
 5684POPC   D2A71932  31.122  17.873   6.606
 5684POPC   C3A71933  31.289  17.686   6.977
 5684POPC   C4A71934  31.689  17.682   7.121
 5684POPC   C1B71935  31.469  17.236   6.218
 5684POPC   C2B71936  31.555  17.430   6.623
 5684POPC   C3B71937  31.500  17.202   7.010
 5684POPC   C4B71938  31.121  17.023   7.207
 5685POPC   NC371939  33.976  15.635   5.007
 5685POPC   PO471940  33.759  16.137   5.422
 5685POPC   GL171941  33.755  15.945   5.859
 5685POPC   GL271942  34.011  15.629   5.864
 5685POPC   C1A71943  34.036  15.943   6.268
 5685POPC   D2A71944  33.899  15.702   6.647
 5685POPC   C3A71945  33.933  15.867   7.054
 5685POPC   C4A71946  34.205  16.177   7.213
 5685POPC   C1B71947  33.707  15.560   6.173
 5685POPC   C2B71948  33.540  15.952   6.356
 5685POPC   C3B71949  33.421  15.942   6.748
 5685POPC   C4B71950  33.447  15.928   7.218
 5686POPC   NC371951   5.382  26.938   5.439
 5686POPC   PO471952   4.885  26.576   5.440
 5686POPC   GL171953   5.056  26.625   5.819
 5686POPC   GL271954   5.148  26.950   5.876
 5686POPC   C1A71955   5.214  26.566   6.227
 5686POPC   D2A71956   5.411  26.538   6.621
 5686POPC   C3A71957   5.064  26.692   6.859
 5686POPC   C4A71958   5.086  26.901   7.225
 5686POPC   C1B71959   4.824  27.142   6.103
 5686POPC   C2B71960   4.809  27.383   6.469
 5686POPC   C3B71961   4.973  27.257   6.856
 5686POPC   C4B71962   4.780  27.289   7.259
 5687POPC   NC371963  21.779   5.814   5.363
 5687POPC   PO471964  21.435   6.365   5.517
 5687POPC   GL171965  21.325   6.055   5.843
 5687POPC   GL271966  21.223   5.688   5.784
 5687POPC   C1A71967  21.408   5.996   6.292
 5687POPC   D2A71968  21.312   5.855   6.706
 5687POPC   C3A71969  21.410   6.130   7.039
 5687POPC   C4A71970  21.566   6.024   7.449
 5687POPC   C1B71971  21.004   5.395   6.076
 5687POPC   C2B71972  20.873   5.384   6.513
 5687POPC   C3B71973  20.939   5.564   6.912
 5687POPC   C4B71974  21.149   5.741   7.270
 5688POPC   NC371975  24.344   3.308   5.574
 5688POPC   PO471976  24.939   3.556   5.438
 5688POPC   GL171977  24.789   3.596   5.785
 5688POPC   GL271978  24.756   3.245   5.856
 5688POPC   C1A71979  24.838   3.889   6.092
 5688POPC   D2A71980  24.636   3.885   6.482
 5688POPC   C3A71981  24.823   3.713   6.889
 5688POPC   C4A71982  24.693   3.738   7.314
 5688POPC   C1B71983  24.613   3.421   6.243
 5688POPC   C2B71984  24.449   3.462   6.657
 5688POPC   C3B71985  24.310   3.526   7.058
 5688POPC   C4B71986  24.371   3.338   7.480
 5689POPC   NC371987  13.281  15.540   5.552
 5689POPC   PO471988  13.782  14.952   5.520
 5689POPC   GL171989  13.702  14.804   5.914
 5689POPC   GL271990  13.580  15.164   5.956
 5689POPC   C1A71991  13.722  14.885   6.357
 5689POPC   D2A71992  13.842  15.061   6.756
 5689POPC   C3A71993  13.646  14.940   7.158
 5689POPC   C4A71994  13.715  15.104   7.621
 5689POPC   C1B71995  13.284  15.278   6.249
 5689POPC   C2B71996  13.424  15.369   6.648
 5689POPC   C3B71997  13.602  15.440   7.010
 5689POPC   C4B71998  13.387  15.346   7.335
 5690POPC   NC371999  17.114  39.482   5.194
 5690POPC   PO472000  17.732  39.509   5.516
 5690POPC   GL172001  17.669  39.159   5.841
 5690POPC   GL272002  17.612  39.413   6.093
 5690POPC   C1A72003  17.667  38.921   6.275
 5690POPC   D2A72004  17.585  39.249   6.583
 5690POPC   C3A72005  17.726  39.252   7.021
 5690POPC   C4A72006  17.667  39.575   7.352
 5690POPC   C1B72007  17.228  39.125   6.135
 5690POPC   C2B72008  17.185  38.843   6.485
 5690POPC   C3B72009  17.247  39.018   6.870
 5690POPC   C4B72010  17.238  39.348   7.160
 5691POPC   NC372011  38.130  22.930   5.561
 5691POPC   PO472012  38.838  22.737   5.558
 5691POPC   GL172013  38.746  22.949   5.930
 5691POPC   GL272014  38.441  23.181   5.898
 5691POPC   C1A72015  38.517  22.869   6.301
 5691POPC   D2A72016  38.491  23.024   6.704
 5691POPC   C3A72017  38.319  22.711   6.978
 5691POPC   C4A72018  38.632  22.502   7.214
 5691POPC   C1B72019  38.198  23.288   6.290
 5691POPC   C2B72020  37.977  23.154   6.683
 5691POPC   C3B72021  38.191  23.227   7.071
 5691POPC   C4B72022  38.367  23.589   7.162
 5692POPC   NC372023  35.512   4.041   5.423
 5692POPC   PO472024  35.627   4.741   5.451
 5692POPC   GL172025  35.403   4.633   5.837
 5692POPC   GL272026  35.290   4.276   5.828
 5692POPC   C1A72027  35.107   4.662   6.194
 5692POPC   D2A72028  34.949   4.511   6.615
 5692POPC   C3A72029  35.272   4.532   6.950
 5692POPC   C4A72030  35.304   4.499   7.410
 5692POPC   C1B72031  35.510   4.035   6.133
 5692POPC   C2B72032  35.433   4.094   6.557
 5692POPC   C3B72033  35.432   4.043   6.984
 5692POPC   C4B72034  35.103   4.060   7.292
 5693POPC   NC372035   2.156  27.218   5.499
 5693POPC   PO472036   1.721  26.720   5.402
 5693POPC   GL172037   1.766  26.817   5.857
 5693POPC   GL272038   1.798  26.522   5.919
 5693POPC   C1A72039   1.950  26.810   6.316
 5693POPC   D2A72040   2.317  27.054   6.519
 5693POPC   C3A72041   2.250  27.022   6.947
 5693POPC   C4A72042   2.304  27.195   7.314
 5693POPC   C1B72043   1.676  26.323   6.283
 5693POPC   C2B72044   1.539  26.460   6.675
 5693POPC   C3B72045   1.818  26.686   6.926
 5693POPC   C4B72046   1.837  26.889   7.323
 5694POPC   NC372047   2.950  31.803   5.497
 5694POPC   PO472048   3.506  32.200   5.362
 5694POPC   GL172049   3.767  32.180   5.762
 5694POPC   GL272050   3.480  32.227   5.985
 5694POPC   C1A72051   3.905  32.357   6.194
 5694POPC   D2A72052   3.617  32.362   6.563
 5694POPC   C3A72053   3.847  32.358   6.969
 5694POPC   C4A72054   3.703  32.511   7.361
 5694POPC   C1B72055   3.276  31.963   6.327
 5694POPC   C2B72056   3.085  32.075   6.679
 5694POPC   C3B72057   3.300  32.307   6.984
 5694POPC   C4B72058   3.495  32.075   7.265
 5695POPC   NC372059  34.776  43.294   5.488
 5695POPC   PO472060  34.546  42.585   5.497
 5695POPC   GL172061  34.554  42.835   5.839
 5695POPC   GL272062  34.903  42.907   5.852
 5695POPC   C1A72063  34.304  42.814   6.214
 5695POPC   D2A72064  34.171  43.005   6.574
 5695POPC   C3A72065  34.434  43.018   6.915
 5695POPC   C4A72066  34.386  42.982   7.343
 5695POPC   C1B72067  34.796  43.091   6.280
 5695POPC   C2B72068  34.926  43.115   6.747
 5695POPC   C3B72069  34.804  43.348   7.126
 5695POPC   C4B72070  34.933  43.779   7.172
 5696POPC   NC372071  39.495  38.340   5.426
 5696POPC   PO472072  40.068  38.676   5.162
 5696POPC   GL172073  39.980  38.499   5.647
 5696POPC   GL272074  39.921  38.769   5.902
 5696POPC   C1A72075  40.030  38.323   6.127
 5696POPC   D2A72076  39.999  38.459   6.591
 5696POPC   C3A72077  39.980  38.249   6.983
 5696POPC   C4A72078  40.156  37.911   7.241
 5696POPC   C1B72079  40.229  38.811   6.246
 5696POPC   C2B72080  40.401  38.783   6.674
 5696POPC   C3B72081  40.265  38.703   7.094
 5696POPC   C4B72082  40.266  38.390   7.380
 5697POPC   NC372083   6.302  32.405   5.487
 5697POPC   PO472084   6.675  31.862   5.401
 5697POPC   GL172085   6.711  32.178   5.752
 5697POPC   GL272086   6.958  32.449   5.709
 5697POPC   C1A72087   6.512  32.411   6.130
 5697POPC   D2A72088   6.561  32.300   6.576
 5697POPC   C3A72089   6.321  32.416   6.965
 5697POPC   C4A72090   6.544  32.405   7.336
 5697POPC   C1B72091   7.110  32.640   6.095
 5697POPC   C2B72092   7.010  32.633   6.537
 5697POPC   C3B72093   6.910  32.462   6.941
 5697POPC   C4B72094   7.001  32.644   7.347
 5698POPC   NC372095  42.992  16.955   4.931
 5698POPC   PO472096  42.933  16.482   5.446
 5698POPC   GL172097  42.975  16.634   5.867
 5698POPC   GL272098  43.289  16.514   5.931
 5698POPC   C1A72099  43.117  16.932   6.189
 5698POPC   D2A72100  43.302  16.972   6.624
 5698POPC   C3A72101  43.010  16.842   6.959
 5698POPC   C4A72102  42.767  16.995   7.308
 5698POPC   C1B72103  43.477  16.602   6.308
 5698POPC   C2B72104  43.561  16.450   6.667
 5698POPC   C3B72105  43.426  16.545   7.050
 5698POPC   C4B72106  43.221  16.691   7.423
 5699POPC   NC372107   1.511  40.850   5.245
 5699POPC   PO472108   1.323  40.218   5.455
 5699POPC   GL172109   1.200  40.488   5.789
 5699POPC   GL272110   1.315  40.840   5.727
 5699POPC   C1A72111   1.437  40.588   6.159
 5699POPC   D2A72112   1.438  40.441   6.560
 5699POPC   C3A72113   1.175  40.645   6.824
 5699POPC   C4A72114   1.351  40.759   7.187
 5699POPC   C1B72115   1.063  40.948   6.082
 5699POPC   C2B72116   0.990  41.038   6.512
 5699POPC   C3B72117   1.118  41.154   6.924
 5699POPC   C4B72118   0.970  41.067   7.340
 5700POPC   NC372119  38.866  37.776   5.473
 5700POPC   PO472120  39.491  37.881   5.351
 5700POPC   GL172121  39.340  37.668   5.788
 5700POPC   GL272122  39.078  37.844   5.992
 5700POPC   C1A72123  39.239  37.421   6.238
 5700POPC   D2A72124  39.205  37.117   6.620
 5700POPC   C3A72125  39.110  37.323   7.031
 5700POPC   C4A72126  39.366  37.555   7.323
 5700POPC   C1B72127  39.108  38.136   6.355
 5700POPC   C2B72128  39.034  37.965   6.723
 5700POPC   C3B72129  39.164  37.968   7.118
 5700POPC   C4B72130  38.949  37.865   7.496
 5701POPC   NC372131  19.382  22.912   5.426
 5701POPC   PO472132  18.745  22.576   5.463
 5701POPC   GL172133  19.018  22.831   5.780
 5701POPC   GL272134  19.340  23.070   5.889
 5701POPC   C1A72135  18.946  22.775   6.203
 5701POPC   D2A72136  18.711  22.911   6.560
 5701POPC   C3A72137  18.859  22.768   6.945
 5701POPC   C4A72138  18.816  23.130   7.159
 5701POPC   C1B72139  19.254  23.178   6.290
 5701POPC   C2B72140  19.212  23.021   6.691
 5701POPC   C3B72141  19.321  23.083   7.109
 5701POPC   C4B72142  19.597  23.404   7.231
 5702POPC   NC372143  44.964  34.761   5.610
 5702POPC   PO472144   0.539  34.412   5.341
 5702POPC   GL172145   0.495  34.653   5.714
 5702POPC   GL272146   0.740  34.489   5.881
 5702POPC   C1A72147   0.378  34.769   6.146
 5702POPC   D2A72148   0.133  34.596   6.489
 5702POPC   C3A72149   0.248  34.594   6.928
 5702POPC   C4A72150   0.608  34.825   7.142
 5702POPC   C1B72151   0.802  34.547   6.312
 5702POPC   C2B72152   0.728  34.539   6.722
 5702POPC   C3B72153   0.634  34.272   7.041
 5702POPC   C4B72154   0.569  34.321   7.467
 5703POPC   NC372155  16.248  35.472   5.628
 5703POPC   PO472156  16.839  35.189   5.473
 5703POPC   GL172157  16.770  35.316   5.858
 5703POPC   GL272158  16.491  35.138   5.925
 5703POPC   C1A72159  17.004  35.471   6.211
 5703POPC   D2A72160  17.103  35.303   6.610
 5703POPC   C3A72161  16.910  35.271   7.025
 5703POPC   C4A72162  16.866  35.643   7.221
 5703POPC   C1B72163  16.671  35.057   6.306
 5703POPC   C2B72164  16.561  35.132   6.693
 5703POPC   C3B72165  16.398  35.319   7.050
 5703POPC   C4B72166  16.290  35.532   7.402
 5704POPC   NC372167  22.246  34.963   5.312
 5704POPC   PO472168  22.038  34.310   5.333
 5704POPC   GL172169  22.234  34.560   5.672
 5704POPC   GL272170  22.081  34.869   5.787
 5704POPC   C1A72171  22.423  34.564   6.076
 5704POPC   D2A72172  22.528  34.637   6.511
 5704POPC   C3A72173  22.178  34.608   6.850
 5704POPC   C4A72174  22.197  34.475   7.256
 5704POPC   C1B72175  21.943  34.776   6.195
 5704POPC   C2B72176  21.765  34.837   6.585
 5704POPC   C3B72177  21.823  35.019   6.968
 5704POPC   C4B72178  21.954  34.908   7.331
 5705POPC   NC372179   2.662  42.978   5.431
 5705POPC   PO472180   3.321  43.090   5.435
 5705POPC   GL172181   2.995  43.034   5.836
 5705POPC   GL272182   2.709  43.270   5.849
 5705POPC   C1A72183   2.872  43.211   6.309
 5705POPC   D2A72184   2.579  43.266   6.683
 5705POPC   C3A72185   2.850  43.198   7.050
 5705POPC   C4A72186   3.244  43.312   7.237
 5705POPC   C1B72187   2.546  42.869   6.072
 5705POPC   C2B72188   2.389  42.774   6.508
 5705POPC   C3B72189   2.427  42.832   6.953
 5705POPC   C4B72190   2.370  43.187   7.234
 5706POPC   NC372191   7.658  21.078   5.729
 5706POPC   PO472192   7.704  21.594   5.329
 5706POPC   GL172193   7.410  21.649   5.709
 5706POPC   GL272194   7.188  21.376   5.742
 5706POPC   C1A72195   7.274  21.745   6.171
 5706POPC   D2A72196   7.354  21.516   6.573
 5706POPC   C3A72197   7.264  21.659   6.989
 5706POPC   C4A72198   7.387  21.537   7.415
 5706POPC   C1B72199   7.097  21.276   6.165
 5706POPC   C2B72200   7.136  21.038   6.545
 5706POPC   C3B72201   7.064  21.185   6.980
 5706POPC   C4B72202   7.018  21.173   7.435
 5707POPC   NC372203  36.548   9.820   5.221
 5707POPC   PO472204  35.956   9.694   5.388
 5707POPC   GL172205  35.912   9.491   5.809
 5707POPC   GL272206  36.243   9.540   5.917
 5707POPC   C1A72207  35.867   9.409   6.267
 5707POPC   D2A72208  36.059   9.363   6.695
 5707POPC   C3A72209  35.903   9.604   7.069
 5707POPC   C4A72210  35.898   9.654   7.511
 5707POPC   C1B72211  36.283   9.699   6.379
 5707POPC   C2B72212  36.298   9.871   6.843
 5707POPC   C3B72213  36.526  10.189   7.154
 5707POPC   C4B72214  36.408  10.362   7.579
 5708POPC   NC372215   6.806  19.864   5.109
 5708POPC   PO472216   7.400  19.885   5.337
 5708POPC   GL172217   7.296  19.726   5.720
 5708POPC   GL272218   7.555  19.951   5.835
 5708POPC   C1A72219   7.300  19.680   6.190
 5708POPC   D2A72220   7.550  19.567   6.566
 5708POPC   C3A72221   7.370  19.680   6.967
 5708POPC   C4A72222   7.097  19.847   7.288
 5708POPC   C1B72223   7.761  19.943   6.236
 5708POPC   C2B72224   7.822  20.225   6.574
 5708POPC   C3B72225   7.870  20.134   6.987
 5708POPC   C4B72226   7.598  19.982   7.326
 5709POPC   NC372227  41.306  10.258   5.147
 5709POPC   PO472228  40.703  10.440   5.426
 5709POPC   GL172229  40.935  10.427   5.838
 5709POPC   GL272230  41.167  10.134   5.932
 5709POPC   C1A72231  40.893  10.519   6.280
 5709POPC   D2A72232  40.661  10.641   6.649
 5709POPC   C3A72233  40.837  10.772   7.012
 5709POPC   C4A72234  40.962  10.591   7.351
 5709POPC   C1B72235  41.275  10.178   6.385
 5709POPC   C2B72236  41.257  10.186   6.861
 5709POPC   C3B72237  41.226   9.987   7.288
 5709POPC   C4B72238  41.093  10.228   7.671
 5710POPC   NC372239  22.414  33.047   5.661
 5710POPC   PO472240  21.795  32.914   5.467
 5710POPC   GL172241  21.895  32.876   5.907
 5710POPC   GL272242  21.998  33.217   5.923
 5710POPC   C1A72243  21.991  32.943   6.371
 5710POPC   D2A72244  22.382  32.941   6.573
 5710POPC   C3A72245  22.322  32.913   6.991
 5710POPC   C4A72246  22.326  33.190   7.294
 5710POPC   C1B72247  21.946  33.431   6.304
 5710POPC   C2B72248  22.060  33.339   6.743
 5710POPC   C3B72249  21.856  33.130   7.058
 5710POPC   C4B72250  21.797  33.172   7.479
 5711POPC   NC372251   6.048  22.918   5.326
 5711POPC   PO472252   5.341  22.910   5.270
 5711POPC   GL172253   5.584  22.773   5.699
 5711POPC   GL272254   5.954  22.711   5.797
 5711POPC   C1A72255   5.663  22.971   6.142
 5711POPC   D2A72256   5.713  23.267   6.526
 5711POPC   C3A72257   5.671  23.165   6.954
 5711POPC   C4A72258   5.619  22.785   7.212
 5711POPC   C1B72259   6.142  22.809   6.219
 5711POPC   C2B72260   5.939  22.797   6.639
 5711POPC   C3B72261   6.113  22.938   7.020
 5711POPC   C4B72262   6.432  22.916   7.275
 5712POPC   NC372263  13.625  41.999   5.453
 5712POPC   PO472264  13.458  41.386   5.205
 5712POPC   GL172265  13.423  41.424   5.657
 5712POPC   GL272266  13.718  41.589   5.770
 5712POPC   C1A72267  13.386  41.383   6.131
 5712POPC   D2A72268  13.277  41.198   6.556
 5712POPC   C3A72269  13.491  41.308   6.961
 5712POPC   C4A72270  13.833  41.288   7.287
 5712POPC   C1B72271  13.643  41.883   6.116
 5712POPC   C2B72272  13.715  41.910   6.555
 5712POPC   C3B72273  13.813  41.710   6.939
 5712POPC   C4B72274  13.802  41.778   7.372
 5713POPC   NC372275  20.170  31.422   5.416
 5713POPC   PO472276  19.706  31.879   5.447
 5713POPC   GL172277  19.860  31.633   5.809
 5713POPC   GL272278  19.573  31.401   5.879
 5713POPC   C1A72279  20.005  31.472   6.231
 5713POPC   D2A72280  20.218  31.254   6.579
 5713POPC   C3A72281  20.171  31.439   6.977
 5713POPC   C4A72282  20.070  31.373   7.414
 5713POPC   C1B72283  19.473  31.465   6.313
 5713POPC   C2B72284  19.728  31.341   6.680
 5713POPC   C3B72285  19.654  31.345   7.115
 5713POPC   C4B72286  19.345  31.286   7.449
 5714POPC   NC372287  34.267   4.749   5.427
 5714POPC   PO472288  34.403   4.103   5.553
 5714POPC   GL172289  34.745   4.220   5.831
 5714POPC   GL272290  34.539   4.517   5.849
 5714POPC   C1A72291  34.982   4.127   6.239
 5714POPC   D2A72292  34.966   3.934   6.680
 5714POPC   C3A72293  34.723   4.179   6.965
 5714POPC   C4A72294  34.839   4.497   7.216
 5714POPC   C1B72295  34.442   4.275   6.244
 5714POPC   C2B72296  34.403   4.461   6.656
 5714POPC   C3B72297  34.410   4.701   7.046
 5714POPC   C4B72298  34.419   4.579   7.499
 5715POPC   NC372299  24.225  13.513   5.260
 5715POPC   PO472300  24.747  13.224   5.518
 5715POPC   GL172301  24.498  13.347   5.916
 5715POPC   GL272302  24.109  13.388   5.802
 5715POPC   C1A72303  24.599  13.324   6.369
 5715POPC   D2A72304  24.680  13.307   6.814
 5715POPC   C3A72305  24.960  13.645   6.972
 5715POPC   C4A72306  24.774  14.011   7.144
 5715POPC   C1B72307  24.095  13.470   6.245
 5715POPC   C2B72308  24.214  13.572   6.661
 5715POPC   C3B72309  24.245  13.444   7.072
 5715POPC   C4B72310  24.059  13.591   7.419
 5716POPC   NC372311  41.038   9.315   5.344
 5716POPC   PO472312  41.569   8.970   5.422
 5716POPC   GL172313  41.544   8.902   5.819
 5716POPC   GL272314  41.890   8.925   5.847
 5716POPC   C1A72315  41.366   9.033   6.216
 5716POPC   D2A72316  41.191   9.197   6.583
 5716POPC   C3A72317  41.404   8.977   6.875
 5716POPC   C4A72318  41.284   9.045   7.256
 5716POPC   C1B72319  42.014   8.696   6.190
 5716POPC   C2B72320  41.792   8.769   6.548
 5716POPC   C3B72321  41.810   8.628   6.941
 5716POPC   C4B72322  41.787   8.916   7.256
 5717POPC   NC372323  39.545  13.813   5.041
 5717POPC   PO472324  39.060  13.674   5.500
 5717POPC   GL172325  39.146  13.631   5.901
 5717POPC   GL272326  39.423  13.390   5.888
 5717POPC   C1A72327  39.187  13.589   6.344
 5717POPC   D2A72328  39.347  13.296   6.655
 5717POPC   C3A72329  39.109  13.325   7.039
 5717POPC   C4A72330  39.155  13.542   7.397
 5717POPC   C1B72331  39.630  13.697   6.164
 5717POPC   C2B72332  39.559  13.865   6.560
 5717POPC   C3B72333  39.388  13.752   6.959
 5717POPC   C4B72334  39.448  13.953   7.384
 5718POPC   NC372335  34.633  31.180   5.439
 5718POPC   PO472336  34.820  30.554   5.247
 5718POPC   GL172337  34.628  30.630   5.702
 5718POPC   GL272338  34.774  30.911   5.872
 5718POPC   C1A72339  34.377  30.640   6.146
 5718POPC   D2A72340  34.331  30.804   6.580
 5718POPC   C3A72341  34.239  30.561   6.956
 5718POPC   C4A72342  34.457  30.497   7.362
 5718POPC   C1B72343  34.754  31.004   6.318
 5718POPC   C2B72344  34.825  30.939   6.768
 5718POPC   C3B72345  34.826  30.841   7.212
 5718POPC   C4B72346  34.988  30.928   7.618
 5719POPC   NC372347  19.867  39.107   5.539
 5719POPC   PO472348  20.150  39.659   5.200
 5719POPC   GL172349  19.738  39.672   5.571
 5719POPC   GL272350  19.454  39.408   5.651
 5719POPC   C1A72351  19.681  39.637   6.062
 5719POPC   D2A72352  20.022  39.594   6.425
 5719POPC   C3A72353  20.010  39.359   6.836
 5719POPC   C4A72354  19.727  39.202   7.157
 5719POPC   C1B72355  19.456  39.186   6.082
 5719POPC   C2B72356  19.444  39.138   6.553
 5719POPC   C3B72357  19.326  38.970   6.970
 5719POPC   C4B72358  19.620  38.694   7.211
 5720POPC   NC372359  24.362  12.993   5.592
 5720POPC   PO472360  24.783  12.543   5.269
 5720POPC   GL172361  24.563  12.402   5.661
 5720POPC   GL272362  24.272  12.566   5.833
 5720POPC   C1A72363  24.655  12.451   6.132
 5720POPC   D2A72364  24.345  12.442   6.480
 5720POPC   C3A72365  24.393  12.614   6.917
 5720POPC   C4A72366  24.521  12.989   7.184
 5720POPC   C1B72367  24.366  12.877   6.213
 5720POPC   C2B72368  24.251  13.037   6.624
 5720POPC   C3B72369  24.021  12.979   7.002
 5720POPC   C4B72370  24.099  13.082   7.437
 5721POPC   NC372371  33.651  31.636   5.421
 5721POPC   PO472372  34.271  31.458   5.306
 5721POPC   GL172373  34.034  31.512   5.752
 5721POPC   GL272374  33.673  31.427   5.874
 5721POPC   C1A72375  34.066  31.500   6.234
 5721POPC   D2A72376  34.176  31.718   6.643
 5721POPC   C3A72377  34.051  31.535   7.035
 5721POPC   C4A72378  33.669  31.312   7.166
 5721POPC   C1B72379  33.583  31.656   6.256
 5721POPC   C2B72380  33.660  31.559   6.684
 5721POPC   C3B72381  33.471  31.787   7.017
 5721POPC   C4B72382  33.255  31.611   7.348
 5722POPC   NC372383  20.526  13.064   5.463
 5722POPC   PO472384  21.006  12.690   5.554
 5722POPC   GL172385  20.780  12.864   5.878
 5722POPC   GL272386  20.481  12.695   5.849
 5722POPC   C1A72387  20.644  12.923   6.309
 5722POPC   D2A72388  20.909  12.805   6.649
 5722POPC   C3A72389  20.682  12.890   7.031
 5722POPC   C4A72390  20.430  12.877   7.411
 5722POPC   C1B72391  20.245  12.475   6.164
 5722POPC   C2B72392  20.030  12.555   6.567
 5722POPC   C3B72393  20.261  12.613   6.919
 5722POPC   C4B72394  20.469  12.353   7.176
 5723POPC   NC372395  39.499  28.517   5.380
 5723POPC   PO472396  38.862  28.392   5.419
 5723POPC   GL172397  38.944  28.278   5.833
 5723POPC   GL272398  39.261  28.468   5.829
 5723POPC   C1A72399  39.200  28.054   6.157
 5723POPC   D2A72400  39.396  27.988   6.561
 5723POPC   C3A72401  39.211  27.986   6.962
 5723POPC   C4A72402  39.400  28.134   7.330
 5723POPC   C1B72403  39.129  28.583   6.230
 5723POPC   C2B72404  39.002  28.472   6.646
 5723POPC   C3B72405  39.238  28.513   7.006
 5723POPC   C4B72406  39.358  28.706   7.356
 5724POPC   NC372407  41.121  42.842   5.197
 5724POPC   PO472408  41.652  43.266   5.471
 5724POPC   GL172409  41.514  43.305   5.881
 5724POPC   GL272410  41.485  42.964   5.904
 5724POPC   C1A72411  41.691  43.195   6.308
 5724POPC   D2A72412  41.757  43.458   6.651
 5724POPC   C3A72413  41.552  43.377   7.031
 5724POPC   C4A72414  41.643  43.065   7.316
 5724POPC   C1B72415  41.183  43.073   6.246
 5724POPC   C2B72416  41.262  43.178   6.659
 5724POPC   C3B72417  41.240  42.942   7.024
 5724POPC   C4B72418  40.980  42.850   7.347
 5725POPC   NC372419   9.904  22.540   5.013
 5725POPC   PO472420   9.721  23.044   5.308
 5725POPC   GL172421   9.592  22.975   5.778
 5725POPC   GL272422   9.311  23.211   5.831
 5725POPC   C1A72423   9.661  22.798   6.230
 5725POPC   D2A72424  10.035  22.752   6.544
 5725POPC   C3A72425   9.987  22.877   6.998
 5725POPC   C4A72426   9.613  22.798   7.247
 5725POPC   C1B72427   9.611  23.320   6.165
 5725POPC   C2B72428   9.678  23.413   6.606
 5725POPC   C3B72429   9.616  23.270   7.024
 5725POPC   C4B72430   9.870  23.220   7.407
 5726POPC   NC372431   7.130  32.964   5.516
 5726POPC   PO472432   6.448  32.831   5.303
 5726POPC   GL172433   6.631  32.945   5.745
 5726POPC   GL272434   6.866  33.194   5.871
 5726POPC   C1A72435   6.677  32.890   6.229
 5726POPC   D2A72436   6.453  32.789   6.639
 5726POPC   C3A72437   6.598  32.871   7.089
 5726POPC   C4A72438   6.470  33.157   7.452
 5726POPC   C1B72439   6.881  33.359   6.280
 5726POPC   C2B72440   6.726  33.213   6.639
 5726POPC   C3B72441   6.716  33.373   7.015
 5726POPC   C4B72442   7.055  33.471   7.236
 5727POPC   NC372443  30.639  18.954   5.456
 5727POPC   PO472444  30.653  19.647   5.611
 5727POPC   GL172445  30.750  19.265   5.874
 5727POPC   GL272446  30.432  19.080   5.908
 5727POPC   C1A72447  30.882  18.931   6.217
 5727POPC   D2A72448  31.128  18.624   6.484
 5727POPC   C3A72449  31.154  18.667   6.951
 5727POPC   C4A72450  30.867  18.951   7.168
 5727POPC   C1B72451  30.486  19.221   6.319
 5727POPC   C2B72452  30.610  19.065   6.719
 5727POPC   C3B72453  30.385  19.133   7.120
 5727POPC   C4B72454  30.450  18.873   7.480
 5728POPC   NC372455  41.003  11.647   5.455
 5728POPC   PO472456  40.903  12.237   5.713
 5728POPC   GL172457  40.607  12.017   5.913
 5728POPC   GL272458  40.451  11.774   5.721
 5728POPC   C1A72459  40.639  11.961   6.353
 5728POPC   D2A72460  40.878  12.242   6.580
 5728POPC   C3A72461  40.736  12.393   6.949
 5728POPC   C4A72462  40.922  12.339   7.340
 5728POPC   C1B72463  40.226  11.751   6.133
 5728POPC   C2B72464  40.330  11.616   6.578
 5728POPC   C3B72465  40.334  11.654   7.026
 5728POPC   C4B72466  40.635  11.935   7.202
 5729POPC   NC372467  12.608  40.502   5.623
 5729POPC   PO472468  12.973  39.870   5.387
 5729POPC   GL172469  12.983  39.954   5.786
 5729POPC   GL272470  13.350  39.868   5.789
 5729POPC   C1A72471  12.745  40.011   6.203
 5729POPC   D2A72472  12.771  39.748   6.597
 5729POPC   C3A72473  12.674  39.984   6.951
 5729POPC   C4A72474  12.526  39.927   7.348
 5729POPC   C1B72475  13.248  40.175   6.143
 5729POPC   C2B72476  13.107  40.139   6.555
 5729POPC   C3B72477  13.187  39.947   6.926
 5729POPC   C4B72478  13.019  39.775   7.266
 5730POPC   NC372479  15.424  17.336   5.310
 5730POPC   PO472480  14.924  17.844   5.420
 5730POPC   GL172481  15.226  17.824   5.794
 5730POPC   GL272482  15.288  17.475   5.820
 5730POPC   C1A72483  15.230  17.721   6.260
 5730POPC   D2A72484  15.422  17.576   6.629
 5730POPC   C3A72485  15.188  17.782   6.945
 5730POPC   C4A72486  15.236  17.784   7.339
 5730POPC   C1B72487  15.232  17.218   6.252
 5730POPC   C2B72488  15.356  17.052   6.649
 5730POPC   C3B72489  15.251  17.265   7.014
 5730POPC   C4B72490  15.217  17.274   7.433
 5731POPC   NC372491  32.490   7.455   5.486
 5731POPC   PO472492  31.943   7.389   5.071
 5731POPC   GL172493  32.016   7.392   5.640
 5731POPC   GL272494  32.253   7.127   5.838
 5731POPC   C1A72495  32.267   7.557   6.085
 5731POPC   D2A72496  32.242   7.517   6.530
 5731POPC   C3A72497  32.463   7.496   6.918
 5731POPC   C4A72498  32.077   7.471   7.106
 5731POPC   C1B72499  32.380   7.059   6.299
 5731POPC   C2B72500  32.314   7.036   6.767
 5731POPC   C3B72501  32.346   7.033   7.237
 5731POPC   C4B72502  32.211   6.945   7.685
 5732POPC   NC372503  22.471   5.677   5.359
 5732POPC   PO472504  22.040   6.183   5.289
 5732POPC   GL172505  22.073   6.181   5.725
 5732POPC   GL272506  22.423   6.130   5.716
 5732POPC   C1A72507  21.869   6.243   6.153
 5732POPC   D2A72508  21.791   6.270   6.615
 5732POPC   C3A72509  21.847   5.876   6.824
 5732POPC   C4A72510  21.944   5.746   7.258
 5732POPC   C1B72511  22.352   5.834   6.045
 5732POPC   C2B72512  22.230   5.988   6.466
 5732POPC   C3B72513  22.304   6.192   6.871
 5732POPC   C4B72514  22.449   5.969   7.263
 5733POPC   NC372515  42.010   6.659   5.280
 5733POPC   PO472516  42.664   6.620   5.365
 5733POPC   GL172517  42.344   6.388   5.607
 5733POPC   GL272518  42.127   6.629   5.781
 5733POPC   C1A72519  42.348   6.260   6.052
 5733POPC   D2A72520  42.501   6.431   6.418
 5733POPC   C3A72521  42.472   6.386   6.854
 5733POPC   C4A72522  42.337   6.449   7.280
 5733POPC   C1B72523  42.220   6.834   6.186
 5733POPC   C2B72524  42.110   7.038   6.591
 5733POPC   C3B72525  42.199   6.858   6.973
 5733POPC   C4B72526  42.021   6.820   7.336
 5734POPC   NC372527  18.260  39.930   5.452
 5734POPC   PO472528  18.644  40.448   5.314
 5734POPC   GL172529  18.506  40.243   5.777
 5734POPC   GL272530  18.517  39.833   5.878
 5734POPC   C1A72531  18.298  40.208   6.223
 5734POPC   D2A72532  18.118  40.021   6.643
 5734POPC   C3A72533  18.325  40.129   7.037
 5734POPC   C4A72534  18.667  39.883   7.174
 5734POPC   C1B72535  18.178  39.711   6.203
 5734POPC   C2B72536  18.065  39.511   6.610
 5734POPC   C3B72537  18.086  39.628   7.035
 5734POPC   C4B72538  18.102  39.831   7.410
 5735POPC   NC372539  10.169   6.055   5.483
 5735POPC   PO472540   9.648   5.603   5.539
 5735POPC   GL172541   9.793   5.852   5.822
 5735POPC   GL272542  10.084   5.700   5.838
 5735POPC   C1A72543   9.674   6.029   6.201
 5735POPC   D2A72544   9.584   6.244   6.586
 5735POPC   C3A72545   9.609   6.004   6.968
 5735POPC   C4A72546   9.932   6.115   7.208
 5735POPC   C1B72547  10.083   5.643   6.224
 5735POPC   C2B72548   9.861   5.731   6.580
 5735POPC   C3B72549   9.956   5.546   6.923
 5735POPC   C4B72550   9.813   5.653   7.319
 5736POPC   NC372551  30.850  21.996   5.238
 5736POPC   PO472552  30.405  22.330   5.686
 5736POPC   GL172553  30.624  22.090   5.989
 5736POPC   GL272554  30.869  22.003   5.755
 5736POPC   C1A72555  30.519  21.897   6.395
 5736POPC   D2A72556  30.542  21.845   6.835
 5736POPC   C3A72557  30.608  22.174   7.150
 5736POPC   C4A72558  30.569  22.207   7.576
 5736POPC   C1B72559  30.986  21.793   6.184
 5736POPC   C2B72560  31.004  22.004   6.629
 5736POPC   C3B72561  31.021  21.867   7.065
 5736POPC   C4B72562  30.988  21.920   7.533
 5737POPC   NC372563  42.959   2.017   5.413
 5737POPC   PO472564  43.435   1.558   5.512
 5737POPC   GL172565  43.473   1.887   5.822
 5737POPC   GL272566  43.314   2.215   5.774
 5737POPC   C1A72567  43.513   2.014   6.271
 5737POPC   D2A72568  43.579   2.088   6.704
 5737POPC   C3A72569  43.294   2.217   6.970
 5737POPC   C4A72570  43.074   1.876   7.138
 5737POPC   C1B72571  43.053   1.993   6.098
 5737POPC   C2B72572  43.032   2.125   6.526
 5737POPC   C3B72573  42.700   2.041   6.813
 5737POPC   C4B72574  42.672   2.159   7.241
 5738POPC   NC372575  12.774  38.677   5.353
 5738POPC   PO472576  12.924  38.131   5.711
 5738POPC   GL172577  12.701  38.370   5.981
 5738POPC   GL272578  12.622  38.719   5.879
 5738POPC   C1A72579  12.831  38.327   6.397
 5738POPC   D2A72580  12.766  38.459   6.797
 5738POPC   C3A72581  12.849  38.212   7.183
 5738POPC   C4A72582  13.106  38.220   7.593
 5738POPC   C1B72583  12.487  38.708   6.331
 5738POPC   C2B72584  12.416  38.836   6.771
 5738POPC   C3B72585  12.474  38.605   7.168
 5738POPC   C4B72586  12.604  38.471   7.587
 5739POPC   NC372587  20.044  19.204   5.576
 5739POPC   PO472588  19.467  19.126   5.229
 5739POPC   GL172589  19.519  19.002   5.679
 5739POPC   GL272590  19.614  19.293   5.849
 5739POPC   C1A72591  19.776  18.867   6.090
 5739POPC   D2A72592  19.936  18.781   6.509
 5739POPC   C3A72593  19.764  18.905   6.920
 5739POPC   C4A72594  19.888  18.981   7.329
 5739POPC   C1B72595  19.820  19.376   6.230
 5739POPC   C2B72596  19.947  19.278   6.632
 5739POPC   C3B72597  19.911  19.422   7.038
 5739POPC   C4B72598  20.137  19.611   7.347
 5740POPC   NC372599  29.454  15.605   5.435
 5740POPC   PO472600  29.072  15.141   5.206
 5740POPC   GL172601  29.173  15.139   5.683
 5740POPC   GL272602  29.346  15.407   5.876
 5740POPC   C1A72603  28.932  15.088   6.097
 5740POPC   D2A72604  28.753  15.309   6.486
 5740POPC   C3A72605  28.877  15.254   6.899
 5740POPC   C4A72606  28.751  15.060   7.271
 5740POPC   C1B72607  29.127  15.540   6.218
 5740POPC   C2B72608  29.283  15.380   6.580
 5740POPC   C3B72609  29.303  15.511   6.983
 5740POPC   C4B72610  29.169  15.328   7.346
 5741POPC   NC372611  31.692  42.860   5.543
 5741POPC   PO472612  31.289  43.519   5.388
 5741POPC   GL172613  31.452  43.272   5.780
 5741POPC   GL272614  31.256  42.992   5.924
 5741POPC   C1A72615  31.720  43.183   6.146
 5741POPC   D2A72616  31.842  43.108   6.586
 5741POPC   C3A72617  31.545  43.330   6.860
 5741POPC   C4A72618  31.533  43.392   7.307
 5741POPC   C1B72619  31.470  42.753   6.264
 5741POPC   C2B72620  31.439  42.816   6.717
 5741POPC   C3B72621  31.401  42.923   7.161
 5741POPC   C4B72622  31.140  43.130   7.514
 5742POPC   NC372623  38.238  41.098   5.475
 5742POPC   PO472624  38.828  40.885   5.537
 5742POPC   GL172625  38.592  40.631   5.823
 5742POPC   GL272626  38.240  40.666   5.791
 5742POPC   C1A72627  38.522  40.539   6.236
 5742POPC   D2A72628  38.664  40.757   6.597
 5742POPC   C3A72629  38.581  40.748   7.017
 5742POPC   C4A72630  38.303  40.501   7.227
 5742POPC   C1B72631  38.403  41.013   6.120
 5742POPC   C2B72632  38.463  41.216   6.544
 5742POPC   C3B72633  38.451  41.248   6.986
 5742POPC   C4B72634  38.334  41.003   7.411
 5743POPC   NC372635   6.829   1.594   5.526
 5743POPC   PO472636   6.249   1.307   5.344
 5743POPC   GL172637   6.401   1.191   5.768
 5743POPC   GL272638   6.724   1.033   5.867
 5743POPC   C1A72639   6.320   1.109   6.194
 5743POPC   D2A72640   6.282   1.229   6.636
 5743POPC   C3A72641   6.348   0.978   7.038
 5743POPC   C4A72642   6.770   0.978   7.166
 5743POPC   C1B72643   6.806   1.104   6.330
 5743POPC   C2B72644   6.815   1.431   6.631
 5743POPC   C3B72645   6.989   1.483   7.013
 5743POPC   C4B72646   7.074   1.352   7.389
 5744POPC   NC372647  39.138  25.728   5.394
 5744POPC   PO472648  39.180  26.411   5.311
 5744POPC   GL172649  39.336  26.117   5.693
 5744POPC   GL272650  39.600  25.802   5.679
 5744POPC   C1A72651  39.228  26.113   6.151
 5744POPC   D2A72652  39.015  26.080   6.554
 5744POPC   C3A72653  39.112  26.275   6.908
 5744POPC   C4A72654  38.913  26.256   7.300
 5744POPC   C1B72655  39.626  25.648   6.135
 5744POPC   C2B72656  39.497  25.807   6.552
 5744POPC   C3B72657  39.359  25.810   7.007
 5744POPC   C4B72658  39.408  26.134   7.298
 5745POPC   NC372659  16.489  28.501   5.501
 5745POPC   PO472660  17.105  28.660   5.361
 5745POPC   GL172661  16.965  28.430   5.754
 5745POPC   GL272662  16.780  28.102   5.707
 5745POPC   C1A72663  16.816  28.534   6.183
 5745POPC   D2A72664  16.544  28.700   6.525
 5745POPC   C3A72665  16.627  28.491   6.927
 5745POPC   C4A72666  16.782  28.433   7.332
 5745POPC   C1B72667  16.651  28.037   6.151
 5745POPC   C2B72668  16.610  28.058   6.637
 5745POPC   C3B72669  16.604  27.961   7.107
 5745POPC   C4B72670  16.792  27.973   7.553
 5746POPC   NC372671  15.113   2.182   5.266
 5746POPC   PO472672  15.313   2.800   5.527
 5746POPC   GL172673  15.177   2.630   5.898
 5746POPC   GL272674  15.008   2.938   5.974
 5746POPC   C1A72675  15.045   2.424   6.279
 5746POPC   D2A72676  14.803   2.570   6.633
 5746POPC   C3A72677  14.906   2.508   7.065
 5746POPC   C4A72678  15.244   2.677   7.251
 5746POPC   C1B72679  15.186   2.910   6.362
 5746POPC   C2B72680  15.286   2.850   6.774
 5746POPC   C3B72681  15.129   3.141   7.103
 5746POPC   C4B72682  15.079   3.265   7.532
 5747POPC   NC372683  19.345  18.670   5.100
 5747POPC   PO472684  19.096  18.096   5.287
 5747POPC   GL172685  18.893  18.235   5.696
 5747POPC   GL272686  18.856  17.901   5.802
 5747POPC   C1A72687  18.932  18.489   6.103
 5747POPC   D2A72688  19.051  18.291   6.479
 5747POPC   C3A72689  18.972  18.471   6.861
 5747POPC   C4A72690  18.976  18.462   7.306
 5747POPC   C1B72691  19.229  18.012   6.070
 5747POPC   C2B72692  19.477  17.962   6.456
 5747POPC   C3B72693  19.252  17.980   6.843
 5747POPC   C4B72694  19.362  18.096   7.236
 5748POPC   NC372695   7.481   3.916   5.420
 5748POPC   PO472696   7.231   4.544   5.559
 5748POPC   GL172697   7.268   4.195   5.837
 5748POPC   GL272698   7.625   4.135   5.865
 5748POPC   C1A72699   7.349   4.294   6.280
 5748POPC   D2A72700   7.522   4.562   6.635
 5748POPC   C3A72701   7.328   4.563   7.068
 5748POPC   C4A72702   6.915   4.436   7.305
 5748POPC   C1B72703   7.751   3.944   6.269
 5748POPC   C2B72704   7.474   3.957   6.633
 5748POPC   C3B72705   7.395   4.053   7.046
 5748POPC   C4B72706   7.783   4.185   7.207
 5749POPC   NC372707  28.843  38.776   5.363
 5749POPC   PO472708  29.387  38.380   5.334
 5749POPC   GL172709  29.288  38.545   5.733
 5749POPC   GL272710  28.958  38.610   5.856
 5749POPC   C1A72711  29.437  38.609   6.130
 5749POPC   D2A72712  29.284  38.650   6.521
 5749POPC   C3A72713  29.526  38.542   6.896
 5749POPC   C4A72714  29.454  38.746   7.290
 5749POPC   C1B72715  28.697  38.667   6.249
 5749POPC   C2B72716  28.794  38.759   6.677
 5749POPC   C3B72717  29.032  38.467   6.935
 5749POPC   C4B72718  29.030  38.434   7.370
 5750POPC   NC372719  26.433  13.864   4.996
 5750POPC   PO472720  26.973  13.707   5.419
 5750POPC   GL172721  26.791  13.500   5.802
 5750POPC   GL272722  26.442  13.381   5.821
 5750POPC   C1A72723  26.844  13.413   6.268
 5750POPC   D2A72724  26.556  13.329   6.646
 5750POPC   C3A72725  26.616  13.408   7.109
 5750POPC   C4A72726  26.839  13.405   7.510
 5750POPC   C1B72727  26.434  13.692   6.201
 5750POPC   C2B72728  26.545  13.831   6.670
 5750POPC   C3B72729  26.443  13.884   7.128
 5750POPC   C4B72730  26.385  13.647   7.527
 5751POPC   NC372731  36.957  42.075   5.381
 5751POPC   PO472732  37.225  42.705   5.254
 5751POPC   GL172733  37.202  42.440   5.678
 5751POPC   GL272734  36.848  42.394   5.785
 5751POPC   C1A72735  37.206  42.341   6.145
 5751POPC   D2A72736  36.991  42.332   6.554
 5751POPC   C3A72737  37.140  42.099   6.919
 5751POPC   C4A72738  37.109  42.319   7.282
 5751POPC   C1B72739  36.651  42.219   6.168
 5751POPC   C2B72740  36.493  42.155   6.625
 5751POPC   C3B72741  36.653  42.348   7.028
 5751POPC   C4B72742  36.662  42.306   7.500
 5752POPC   NC372743   6.009   2.160   5.454
 5752POPC   PO472744   6.634   2.196   5.592
 5752POPC   GL172745   6.699   1.942   5.922
 5752POPC   GL272746   6.436   1.699   5.839
 5752POPC   C1A72747   6.561   2.109   6.326
 5752POPC   D2A72748   6.743   2.254   6.710
 5752POPC   C3A72749   6.744   1.950   7.011
 5752POPC   C4A72750   6.324   1.921   7.196
 5752POPC   C1B72751   6.482   1.596   6.267
 5752POPC   C2B72752   6.365   1.733   6.691
 5752POPC   C3B72753   6.487   1.472   7.044
 5752POPC   C4B72754   6.590   1.499   7.460
 5753POPC   NC372755  42.704  18.475   5.498
 5753POPC   PO472756  42.105  18.454   5.495
 5753POPC   GL172757  42.349  18.368   5.869
 5753POPC   GL272758  42.534  18.070   5.771
 5753POPC   C1A72759  42.354  18.499   6.304
 5753POPC   D2A72760  42.144  18.437   6.705
 5753POPC   C3A72761  42.397  18.323   7.046
 5753POPC   C4A72762  42.323  18.338   7.484
 5753POPC   C1B72763  42.695  18.114   6.179
 5753POPC   C2B72764  42.539  18.079   6.585
 5753POPC   C3B72765  42.828  18.033   6.942
 5753POPC   C4B72766  42.726  18.069   7.362
 5754POPC   NC372767  39.469  17.360   5.228
 5754POPC   PO472768  39.038  17.758   5.363
 5754POPC   GL172769  39.284  17.612   5.727
 5754POPC   GL272770  39.586  17.380   5.741
 5754POPC   C1A72771  39.233  17.749   6.157
 5754POPC   D2A72772  39.109  17.603   6.572
 5754POPC   C3A72773  39.098  17.822   6.959
 5754POPC   C4A72774  39.190  17.630   7.358
 5754POPC   C1B72775  39.376  17.255   6.124
 5754POPC   C2B72776  39.524  17.278   6.540
 5754POPC   C3B72777  39.326  17.294   6.922
 5754POPC   C4B72778  39.553  17.336   7.245
 5755POPC   NC372779  11.922  17.908   5.450
 5755POPC   PO472780  12.242  17.258   5.423
 5755POPC   GL172781  12.033  17.261   5.847
 5755POPC   GL272782  11.827  17.552   5.851
 5755POPC   C1A72783  12.118  17.106   6.296
 5755POPC   D2A72784  11.959  17.199   6.721
 5755POPC   C3A72785  12.158  17.315   7.080
 5755POPC   C4A72786  12.404  17.700   7.087
 5755POPC   C1B72787  11.966  17.578   6.294
 5755POPC   C2B72788  12.078  17.790   6.664
 5755POPC   C3B72789  11.878  17.758   7.031
 5755POPC   C4B72790  11.629  17.418   7.177
 5756POPC   NC372791  34.104  42.699   5.603
 5756POPC   PO472792  33.549  42.913   5.633
 5756POPC   GL172793  33.843  43.014   5.957
 5756POPC   GL272794  34.130  43.202   5.831
 5756POPC   C1A72795  33.818  43.289   6.305
 5756POPC   D2A72796  33.730  43.291   6.725
 5756POPC   C3A72797  33.919  43.063   7.023
 5756POPC   C4A72798  33.826  43.309   7.355
 5756POPC   C1B72799  34.320  43.353   6.218
 5756POPC   C2B72800  34.230  43.505   6.661
 5756POPC   C3B72801  34.284  43.462   7.126
 5756POPC   C4B72802  34.176  43.642   7.526
 5757POPC   NC372803   9.993   4.397   5.381
 5757POPC   PO472804   9.446   3.996   5.444
 5757POPC   GL172805   9.720   4.151   5.784
 5757POPC   GL272806  10.049   4.013   5.752
 5757POPC   C1A72807   9.717   4.356   6.202
 5757POPC   D2A72808   9.493   4.303   6.598
 5757POPC   C3A72809   9.785   4.350   6.939
 5757POPC   C4A72810   9.731   4.505   7.335
 5757POPC   C1B72811  10.044   3.859   6.155
 5757POPC   C2B72812   9.900   3.981   6.544
 5757POPC   C3B72813   9.946   3.861   6.960
 5757POPC   C4B72814   9.824   3.994   7.355
 5758POPC   NC372815  13.549   3.062   5.369
 5758POPC   PO472816  13.974   2.622   5.508
 5758POPC   GL172817  13.794   2.814   5.834
 5758POPC   GL272818  13.428   2.891   5.830
 5758POPC   C1A72819  13.936   2.676   6.219
 5758POPC   D2A72820  13.854   2.958   6.527
 5758POPC   C3A72821  13.950   2.794   6.915
 5758POPC   C4A72822  13.754   2.831   7.325
 5758POPC   C1B72823  13.432   2.765   6.270
 5758POPC   C2B72824  13.592   2.522   6.620
 5758POPC   C3B72825  13.426   2.591   7.018
 5758POPC   C4B72826  13.106   2.385   7.207
 5759POPC   NC372827  44.794  33.299   5.479
 5759POPC   PO472828  44.538  32.669   5.603
 5759POPC   GL172829  44.733  32.956   5.861
 5759POPC   GL272830   0.059  32.923   5.797
 5759POPC   C1A72831  44.567  33.229   6.180
 5759POPC   D2A72832  44.315  33.082   6.490
 5759POPC   C3A72833  44.409  33.272   6.879
 5759POPC   C4A72834  44.595  33.086   7.244
 5759POPC   C1B72835   0.064  33.173   6.228
 5759POPC   C2B72836  44.873  33.147   6.638
 5759POPC   C3B72837  44.919  33.408   6.998
 5759POPC   C4B72838  44.993  33.329   7.436
 5760POPC   NC372839  39.312  24.144   5.503
 5760POPC   PO472840  38.707  24.426   5.422
 5760POPC   GL172841  39.069  24.595   5.753
 5760POPC   GL272842  39.424  24.428   5.901
 5760POPC   C1A72843  39.199  24.731   6.214
 5760POPC   D2A72844  39.388  24.487   6.543
 5760POPC   C3A72845  39.330  24.580   6.966
 5760POPC   C4A72846  39.249  24.854   7.288
 5760POPC   C1B72847  39.536  24.105   6.223
 5760POPC   C2B72848  39.544  23.999   6.675
 5760POPC   C3B72849  39.675  24.219   7.056
 5760POPC   C4B72850  39.488  24.425   7.464
 5761POPC   NC372851  15.602  42.716   5.546
 5761POPC   PO472852  16.237  43.079   5.548
 5761POPC   GL172853  15.979  43.128   5.905
 5761POPC   GL272854  15.624  43.161   5.809
 5761POPC   C1A72855  15.962  43.362   6.296
 5761POPC   D2A72856  16.226  43.614   6.587
 5761POPC   C3A72857  16.152  43.421   7.003
 5761POPC   C4A72858  16.009  43.011   7.097
 5761POPC   C1B72859  15.633  42.933   6.225
 5761POPC   C2B72860  15.698  43.008   6.679
 5761POPC   C3B72861  15.526  42.919   7.098
 5761POPC   C4B72862  15.472  42.999   7.597
 5762POPC   NC372863  21.886   4.069   5.368
 5762POPC   PO472864  22.150   4.618   5.293
 5762POPC   GL172865  22.269   4.432   5.718
 5762POPC   GL272866  22.046   4.152   5.851
 5762POPC   C1A72867  22.399   4.334   6.179
 5762POPC   D2A72868  22.264   4.212   6.605
 5762POPC   C3A72869  22.392   4.408   7.008
 5762POPC   C4A72870  22.285   4.351   7.466
 5762POPC   C1B72871  21.868   4.050   6.265
 5762POPC   C2B72872  21.759   4.192   6.699
 5762POPC   C3B72873  21.958   4.188   7.119
 5762POPC   C4B72874  21.796   4.165   7.588
 5763POPC   NC372875  39.813  31.155   5.324
 5763POPC   PO472876  40.295  31.570   5.402
 5763POPC   GL172877  39.911  31.467   5.741
 5763POPC   GL272878  39.666  31.143   5.807
 5763POPC   C1A72879  40.046  31.594   6.171
 5763POPC   D2A72880  40.281  31.762   6.533
 5763POPC   C3A72881  40.181  31.574   6.943
 5763POPC   C4A72882  39.951  31.554   7.326
 5763POPC   C1B72883  39.569  31.416   6.169
 5763POPC   C2B72884  39.732  31.546   6.580
 5763POPC   C3B72885  39.685  31.362   6.972
 5763POPC   C4B72886  39.680  31.110   7.394
 5764POPC   NC372887  17.076   7.621   5.473
 5764POPC   PO472888  17.768   7.298   5.387
 5764POPC   GL172889  17.532   7.445   5.728
 5764POPC   GL272890  17.227   7.227   5.752
 5764POPC   C1A72891  17.678   7.593   6.150
 5764POPC   D2A72892  17.638   7.412   6.573
 5764POPC   C3A72893  17.565   7.481   7.017
 5764POPC   C4A72894  17.794   7.722   7.301
 5764POPC   C1B72895  17.219   7.373   6.185
 5764POPC   C2B72896  17.123   7.439   6.633
 5764POPC   C3B72897  17.174   7.151   6.974
 5764POPC   C4B72898  17.238   7.198   7.387
 5765POPC   NC372899  24.268  41.284   5.649
 5765POPC   PO472900  24.440  41.879   5.416
 5765POPC   GL172901  24.524  41.687   5.793
 5765POPC   GL272902  24.732  41.900   5.906
 5765POPC   C1A72903  24.485  41.587   6.214
 5765POPC   D2A72904  24.444  41.803   6.575
 5765POPC   C3A72905  24.495  41.450   6.810
 5765POPC   C4A72906  24.474  41.420   7.201
 5765POPC   C1B72907  24.944  41.826   6.317
 5765POPC   C2B72908  24.946  41.666   6.752
 5765POPC   C3B72909  24.764  41.826   7.156
 5765POPC   C4B72910  24.865  41.893   7.620
 5766POPC   NC372911  40.332  20.131   5.434
 5766POPC   PO472912  39.786  19.653   5.412
 5766POPC   GL172913  39.901  19.991   5.677
 5766POPC   GL272914  39.738  20.307   5.605
 5766POPC   C1A72915  40.051  19.871   6.074
 5766POPC   D2A72916  40.055  19.523   6.368
 5766POPC   C3A72917  40.118  19.612   6.806
 5766POPC   C4A72918  39.891  19.671   7.188
 5766POPC   C1B72919  39.639  20.215   6.051
 5766POPC   C2B72920  39.760  20.037   6.468
 5766POPC   C3B72921  39.622  20.018   6.891
 5766POPC   C4B72922  39.777  20.178   7.271
 5767POPC   NC372923   8.733  27.495   5.211
 5767POPC   PO472924   9.178  27.903   5.525
 5767POPC   GL172925   8.912  27.589   5.722
 5767POPC   GL272926   8.997  27.265   5.641
 5767POPC   C1A72927   8.690  27.503   6.117
 5767POPC   D2A72928   8.736  27.404   6.565
 5767POPC   C3A72929   8.969  27.750   6.776
 5767POPC   C4A72930   8.842  27.744   7.166
 5767POPC   C1B72931   9.150  27.302   6.078
 5767POPC   C2B72932   9.247  27.398   6.509
 5767POPC   C3B72933   9.216  27.313   6.962
 5767POPC   C4B72934   9.552  27.305   7.273
 5768POPC   NC372935  36.594  36.802   5.605
 5768POPC   PO472936  35.936  37.005   5.473
 5768POPC   GL172937  36.079  37.133   5.889
 5768POPC   GL272938  36.352  37.364   5.930
 5768POPC   C1A72939  36.244  36.895   6.238
 5768POPC   D2A72940  36.380  36.556   6.530
 5768POPC   C3A72941  36.403  36.637   6.976
 5768POPC   C4A72942  36.073  36.744   7.293
 5768POPC   C1B72943  36.373  37.383   6.374
 5768POPC   C2B72944  36.283  37.101   6.706
 5768POPC   C3B72945  36.426  37.134   7.082
 5768POPC   C4B72946  36.374  37.079   7.517
 5769POPC   NC372947  37.993   6.737   5.372
 5769POPC   PO472948  37.415   6.946   5.444
 5769POPC   GL172949  37.648   6.804   5.790
 5769POPC   GL272950  37.829   6.509   5.830
 5769POPC   C1A72951  37.539   6.775   6.215
 5769POPC   D2A72952  37.263   6.590   6.503
 5769POPC   C3A72953  37.447   6.718   6.859
 5769POPC   C4A72954  37.599   6.726   7.238
 5769POPC   C1B72955  38.026   6.605   6.200
 5769POPC   C2B72956  37.874   6.564   6.580
 5769POPC   C3B72957  37.991   6.522   6.983
 5769POPC   C4B72958  37.832   6.265   7.296
 5770POPC   NC372959   9.527  16.384   5.404
 5770POPC   PO472960   9.891  15.799   5.441
 5770POPC   GL172961   9.878  16.071   5.831
 5770POPC   GL272962   9.532  16.183   5.871
 5770POPC   C1A72963   9.864  15.997   6.302
 5770POPC   D2A72964   9.691  16.251   6.669
 5770POPC   C3A72965   9.601  16.097   7.094
 5770POPC   C4A72966   9.825  15.777   7.355
 5770POPC   C1B72967   9.363  16.138   6.269
 5770POPC   C2B72968   9.452  15.808   6.556
 5770POPC   C3B72969   9.304  15.729   6.940
 5770POPC   C4B72970   9.281  15.789   7.358
 5771POPC   NC372971  44.207  15.383   5.455
 5771POPC   PO472972  43.735  14.877   5.461
 5771POPC   GL172973  43.958  15.001   5.825
 5771POPC   GL272974  43.708  15.266   5.898
 5771POPC   C1A72975  44.067  15.199   6.244
 5771POPC   D2A72976  43.955  15.421   6.631
 5771POPC   C3A72977  44.205  15.323   6.990
 5771POPC   C4A72978  44.277  14.902   7.188
 5771POPC   C1B72979  43.661  15.595   6.216
 5771POPC   C2B72980  43.447  15.537   6.595
 5771POPC   C3B72981  43.561  15.115   6.690
 5771POPC   C4B72982  43.740  15.031   7.057
 5772POPC   NC372983  41.343  16.574   5.424
 5772POPC   PO472984  41.950  16.852   5.365
 5772POPC   GL172985  41.704  16.824   5.748
 5772POPC   GL272986  41.359  16.850   5.854
 5772POPC   C1A72987  41.737  16.773   6.190
 5772POPC   D2A72988  41.949  16.985   6.509
 5772POPC   C3A72989  41.862  16.766   6.874
 5772POPC   C4A72990  41.690  16.899   7.266
 5772POPC   C1B72991  41.240  16.536   6.159
 5772POPC   C2B72992  41.372  16.581   6.583
 5772POPC   C3B72993  41.285  16.807   6.951
 5772POPC   C4B72994  41.318  16.569   7.327
 5773POPC   NC372995  11.541  14.915   5.334
 5773POPC   PO472996  11.157  14.362   5.411
 5773POPC   GL172997  11.263  14.432   5.795
 5773POPC   GL272998  10.951  14.571   5.833
 5773POPC   C1A72999  11.327  14.380   6.226
 5773POPC   D2A73000  11.330  14.168   6.611
 5773POPC   C3A73001  11.428  14.481   6.900
 5773POPC   C4A73002  11.591  14.572   7.283
 5773POPC   C1B73003  10.973  14.800   6.181
 5773POPC   C2B73004  11.124  14.729   6.567
 5773POPC   C3B73005  10.932  14.831   6.907
 5773POPC   C4B73006  11.060  14.646   7.255
 5774POPC   NC373007  41.841  21.500   5.419
 5774POPC   PO473008  41.298  21.144   5.358
 5774POPC   GL173009  41.224  21.321   5.745
 5774POPC   GL273010  41.397  21.624   5.727
 5774POPC   C1A73011  41.311  21.175   6.178
 5774POPC   D2A73012  41.329  21.013   6.615
 5774POPC   C3A73013  41.517  21.187   7.005
 5774POPC   C4A73014  41.332  21.121   7.416
 5774POPC   C1B73015  41.510  21.639   6.149
 5774POPC   C2B73016  41.505  21.504   6.562
 5774POPC   C3B73017  41.610  21.699   6.944
 5774POPC   C4B73018  41.388  21.637   7.278
 5775POPC   NC373019  21.423  25.112   5.335
 5775POPC   PO473020  21.207  24.316   5.344
 5775POPC   GL173021  21.213  24.559   5.754
 5775POPC   GL273022  21.532  24.778   5.714
 5775POPC   C1A73023  21.138  24.472   6.236
 5775POPC   D2A73024  21.242  24.713   6.634
 5775POPC   C3A73025  21.062  24.597   7.038
 5775POPC   C4A73026  21.178  24.273   7.282
 5775POPC   C1B73027  21.611  24.578   6.103
 5775POPC   C2B73028  21.704  24.495   6.520
 5775POPC   C3B73029  21.575  24.408   6.918
 5775POPC   C4B73030  21.584  24.585   7.286
 5776POPC   NC373031  34.109  12.539   5.250
 5776POPC   PO473032  34.099  11.836   5.380
 5776POPC   GL173033  34.004  11.850   5.849
 5776POPC   GL273034  33.674  12.042   5.852
 5776POPC   C1A73035  33.966  12.000   6.291
 5776POPC   D2A73036  33.989  12.326   6.632
 5776POPC   C3A73037  34.054  12.128   7.038
 5776POPC   C4A73038  33.918  12.050   7.459
 5776POPC   C1B73039  33.615  12.344   6.173
 5776POPC   C2B73040  33.466  12.321   6.585
 5776POPC   C3B73041  33.617  12.375   7.023
 5776POPC   C4B73042  33.415  12.119   7.345
 5777POPC   NC373043   5.542  31.915   5.470
 5777POPC   PO473044   5.885  32.549   5.597
 5777POPC   GL173045   5.759  32.255   5.884
 5777POPC   GL273046   5.947  31.986   5.767
 5777POPC   C1A73047   5.666  32.348   6.323
 5777POPC   D2A73048   5.437  32.426   6.737
 5777POPC   C3A73049   5.720  32.266   7.070
 5777POPC   C4A73050   5.835  32.348   7.505
 5777POPC   C1B73051   6.110  32.015   6.192
 5777POPC   C2B73052   6.063  32.135   6.615
 5777POPC   C3B73053   6.115  31.926   7.004
 5777POPC   C4B73054   6.253  32.011   7.400
 5778POPC   NC373055   1.003  13.138   5.512
 5778POPC   PO473056   1.103  13.826   5.440
 5778POPC   GL173057   1.149  13.653   5.863
 5778POPC   GL273058   1.019  13.355   5.961
 5778POPC   C1A73059   1.402  13.579   6.247
 5778POPC   D2A73060   1.531  13.764   6.655
 5778POPC   C3A73061   1.276  13.644   6.993
 5778POPC   C4A73062   1.100  14.019   7.201
 5778POPC   C1B73063   1.104  13.186   6.340
 5778POPC   C2B73064   0.950  13.382   6.681
 5778POPC   C3B73065   0.768  13.475   7.057
 5778POPC   C4B73066   1.003  13.527   7.407
 5779POPC   NC373067  10.447  22.881   5.541
 5779POPC   PO473068  11.103  23.238   5.431
 5779POPC   GL173069  10.833  23.094   5.789
 5779POPC   GL273070  10.858  22.721   5.862
 5779POPC   C1A73071  10.607  23.067   6.196
 5779POPC   D2A73072  10.692  23.264   6.591
 5779POPC   C3A73073  10.654  23.068   6.985
 5779POPC   C4A73074  10.886  23.257   7.308
 5779POPC   C1B73075  10.593  22.543   6.227
 5779POPC   C2B73076  10.490  22.530   6.700
 5779POPC   C3B73077  10.439  22.627   7.159
 5779POPC   C4B73078  10.559  22.907   7.501
 5780POPC   NC373079  42.261  30.032   5.430
 5780POPC   PO473080  42.846  30.287   5.464
 5780POPC   GL173081  42.575  30.074   5.840
 5780POPC   GL273082  42.197  30.196   5.911
 5780POPC   C1A73083  42.489  29.870   6.266
 5780POPC   D2A73084  42.331  30.059   6.670
 5780POPC   C3A73085  42.603  29.959   7.022
 5780POPC   C4A73086  42.723  29.700   7.327
 5780POPC   C1B73087  42.009  29.800   6.124
 5780POPC   C2B73088  42.030  29.651   6.583
 5780POPC   C3B73089  42.087  29.780   7.059
 5780POPC   C4B73090  42.029  29.812   7.523
 5781POPC   NC373091  10.374  32.765   5.650
 5781POPC   PO473092  10.626  32.178   5.453
 5781POPC   GL173093  10.609  32.356   5.865
 5781POPC   GL273094  10.964  32.471   5.881
 5781POPC   C1A73095  10.394  32.136   6.241
 5781POPC   D2A73096  10.342  31.911   6.661
 5781POPC   C3A73097  10.302  32.212   7.039
 5781POPC   C4A73098  10.192  32.646   7.214
 5781POPC   C1B73099  10.897  32.225   6.256
 5781POPC   C2B73100  10.673  32.293   6.638
 5781POPC   C3B73101  10.814  32.195   7.038
 5781POPC   C4B73102  10.956  32.225   7.454
 5782POPC   NC373103  12.757  15.070   5.039
 5782POPC   PO473104  12.804  15.489   5.563
 5782POPC   GL173105  12.938  15.125   5.816
 5782POPC   GL273106  13.208  14.911   5.728
 5782POPC   C1A73107  12.824  15.044   6.235
 5782POPC   D2A73108  12.896  15.257   6.622
 5782POPC   C3A73109  12.697  15.209   7.008
 5782POPC   C4A73110  12.884  15.276   7.394
 5782POPC   C1B73111  13.244  14.755   6.161
 5782POPC   C2B73112  13.244  14.887   6.595
 5782POPC   C3B73113  13.160  15.004   7.030
 5782POPC   C4B73114  13.245  14.890   7.503
 5783POPC   NC373115  40.973  10.882   5.568
 5783POPC   PO473116  40.593  11.285   5.110
 5783POPC   GL173117  40.635  11.315   5.605
 5783POPC   GL273118  40.560  11.046   5.824
 5783POPC   C1A73119  40.716  11.515   6.062
 5783POPC   D2A73120  40.989  11.487   6.444
 5783POPC   C3A73121  40.812  11.603   6.841
 5783POPC   C4A73122  40.849  11.482   7.291
 5783POPC   C1B73123  40.831  11.022   6.193
 5783POPC   C2B73124  41.076  10.958   6.558
 5783POPC   C3B73125  41.106  11.195   6.925
 5783POPC   C4B73126  41.278  11.108   7.297
 5784POPC   NC373127  42.277  26.662   5.579
 5784POPC   PO473128  42.701  27.185   5.395
 5784POPC   GL173129  42.580  27.004   5.788
 5784POPC   GL273130  42.795  26.714   5.736
 5784POPC   C1A73131  42.252  26.978   6.155
 5784POPC   D2A73132  42.077  26.895   6.557
 5784POPC   C3A73133  42.174  27.177   6.892
 5784POPC   C4A73134  42.188  27.015   7.298
 5784POPC   C1B73135  42.588  26.585   6.143
 5784POPC   C2B73136  42.445  26.545   6.532
 5784POPC   C3B73137  42.417  26.736   6.928
 5784POPC   C4B73138  42.479  26.575   7.308
 5785POPC   NC373139  16.594   8.550   5.574
 5785POPC   PO473140  16.678   7.856   5.311
 5785POPC   GL173141  16.694   8.042   5.730
 5785POPC   GL273142  17.012   8.191   5.664
 5785POPC   C1A73143  16.453   8.220   6.127
 5785POPC   D2A73144  16.274   8.300   6.567
 5785POPC   C3A73145  16.404   8.060   6.929
 5785POPC   C4A73146  16.619   8.147   7.321
 5785POPC   C1B73147  16.978   8.286   6.100
 5785POPC   C2B73148  16.808   8.188   6.503
 5785POPC   C3B73149  16.890   8.268   6.907
 5785POPC   C4B73150  16.890   8.561   7.254
 5786POPC   NC373151  36.771  20.469   5.430
 5786POPC   PO473152  37.251  20.783   5.032
 5786POPC   GL173153  37.153  20.825   5.559
 5786POPC   GL273154  37.143  20.561   5.831
 5786POPC   C1A73155  36.796  20.916   5.934
 5786POPC   D2A73156  36.628  20.889   6.394
 5786POPC   C3A73157  36.744  21.033   6.820
 5786POPC   C4A73158  36.854  20.723   7.140
 5786POPC   C1B73159  36.882  20.447   6.203
 5786POPC   C2B73160  36.979  20.460   6.665
 5786POPC   C3B73161  37.142  20.297   7.081
 5786POPC   C4B73162  36.981  20.304   7.518
 5787POPC   NC373163   5.434   0.664   5.468
 5787POPC   PO473164   4.875   0.461   5.497
 5787POPC   GL173165   5.153   0.473   5.855
 5787POPC   GL273166   5.389   0.197   5.834
 5787POPC   C1A73167   5.098   0.625   6.268
 5787POPC   D2A73168   5.010   0.552   6.701
 5787POPC   C3A73169   5.058   0.859   7.054
 5787POPC   C4A73170   4.923   0.719   7.516
 5787POPC   C1B73171   5.289   0.140   6.294
 5787POPC   C2B73172   5.370   0.187   6.745
 5787POPC   C3B73173   5.321   0.215   7.220
 5787POPC   C4B73174   5.395   0.312   7.686
 5788POPC   NC373175  24.670   1.768   5.231
 5788POPC   PO473176  24.153   2.191   5.367
 5788POPC   GL173177  24.383   2.125   5.762
 5788POPC   GL273178  24.616   1.859   5.742
 5788POPC   C1A73179  24.304   2.125   6.218
 5788POPC   D2A73180  24.176   2.013   6.650
 5788POPC   C3A73181  24.447   2.107   6.998
 5788POPC   C4A73182  24.342   2.061   7.418
 5788POPC   C1B73183  24.707   1.776   6.184
 5788POPC   C2B73184  24.745   2.010   6.574
 5788POPC   C3B73185  24.853   1.786   6.974
 5788POPC   C4B73186  24.688   1.683   7.374
 5789POPC   NC373187   4.812  20.440   5.419
 5789POPC   PO473188   5.272  20.982   5.398
 5789POPC   GL173189   4.976  20.896   5.785
 5789POPC   GL273190   4.963  20.515   5.895
 5789POPC   C1A73191   4.961  20.862   6.267
 5789POPC   D2A73192   4.727  20.685   6.626
 5789POPC   C3A73193   5.000  20.572   6.938
 5789POPC   C4A73194   5.022  20.929   7.211
 5789POPC   C1B73195   5.020  20.355   6.319
 5789POPC   C2B73196   4.777  20.179   6.646
 5789POPC   C3B73197   4.829  20.091   7.063
 5789POPC   C4B73198   5.189  20.107   7.315
 5790POPC   NC373199  13.010  43.218   5.435
 5790POPC   PO473200  12.472  42.791   5.385
 5790POPC   GL173201  12.759  42.815   5.777
 5790POPC   GL273202  13.144  42.875   5.811
 5790POPC   C1A73203  12.750  42.969   6.223
 5790POPC   D2A73204  12.467  43.049   6.583
 5790POPC   C3A73205  12.617  43.118   6.992
 5790POPC   C4A73206  12.765  43.537   7.035
 5790POPC   C1B73207  13.223  43.178   6.177
 5790POPC   C2B73208  13.037  43.258   6.618
 5790POPC   C3B73209  13.131  43.123   7.051
 5790POPC   C4B73210  13.028  42.717   7.219
 5791POPC   NC373211  37.377  41.349   5.042
 5791POPC   PO473212  37.807  40.899   5.409
 5791POPC   GL173213  37.578  40.862   5.757
 5791POPC   GL273214  37.727  40.561   5.839
 5791POPC   C1A73215  37.446  40.932   6.192
 5791POPC   D2A73216  37.666  40.812   6.589
 5791POPC   C3A73217  37.559  40.818   7.001
 5791POPC   C4A73218  37.341  41.126   7.183
 5791POPC   C1B73219  37.938  40.793   6.162
 5791POPC   C2B73220  38.162  40.749   6.554
 5791POPC   C3B73221  38.074  40.883   6.974
 5791POPC   C4B73222  37.899  40.722   7.401
 5792POPC   NC373223  35.849  13.070   5.426
 5792POPC   PO473224  35.232  12.862   5.391
 5792POPC   GL173225  35.388  12.893   5.844
 5792POPC   GL273226  35.688  13.110   5.927
 5792POPC   C1A73227  35.358  12.903   6.320
 5792POPC   D2A73228  35.307  13.186   6.672
 5792POPC   C3A73229  35.354  12.997   7.068
 5792POPC   C4A73230  35.445  13.129   7.467
 5792POPC   C1B73231  35.824  13.096   6.377
 5792POPC   C2B73232  35.760  12.953   6.780
 5792POPC   C3B73233  35.867  13.110   7.189
 5792POPC   C4B73234  35.855  12.859   7.590
 5793POPC   NC373235  15.140  30.131   5.428
 5793POPC   PO473236  15.234  29.387   5.283
 5793POPC   GL173237  15.288  29.681   5.655
 5793POPC   GL273238  14.947  29.791   5.756
 5793POPC   C1A73239  15.306  29.698   6.129
 5793POPC   D2A73240  15.334  29.866   6.563
 5793POPC   C3A73241  15.238  29.785   7.013
 5793POPC   C4A73242  15.263  30.047   7.448
 5793POPC   C1B73243  14.897  30.015   6.161
 5793POPC   C2B73244  14.824  29.861   6.560
 5793POPC   C3B73245  14.702  29.813   6.961
 5793POPC   C4B73246  14.868  29.753   7.360
 5794POPC   NC373247  12.545   0.696   5.256
 5794POPC   PO473248  12.272   0.078   5.340
 5794POPC   GL173249  12.255   0.172   5.804
 5794POPC   GL273250  12.328   0.529   5.830
 5794POPC   C1A73251  11.944   0.257   6.171
 5794POPC   D2A73252  12.029   0.154   6.629
 5794POPC   C3A73253  11.846   0.422   6.945
 5794POPC   C4A73254  11.888   0.625   7.323
 5794POPC   C1B73255  12.432   0.342   6.269
 5794POPC   C2B73256  12.407   0.506   6.722
 5794POPC   C3B73257  12.371   0.818   7.082
 5794POPC   C4B73258  12.342   0.770   7.548
 5795POPC   NC373259   3.998  35.743   5.346
 5795POPC   PO473260   3.435  35.787   5.744
 5795POPC   GL173261   3.667  36.137   5.839
 5795POPC   GL273262   3.433  36.414   5.841
 5795POPC   C1A73263   3.790  36.201   6.267
 5795POPC   D2A73264   3.654  35.981   6.635
 5795POPC   C3A73265   3.737  36.180   7.024
 5795POPC   C4A73266   3.608  36.077   7.430
 5795POPC   C1B73267   3.123  36.526   6.191
 5795POPC   C2B73268   3.154  36.390   6.644
 5795POPC   C3B73269   3.222  36.315   7.115
 5795POPC   C4B73270   3.295  36.463   7.572
 5796POPC   NC373271   9.194   8.297   5.337
 5796POPC   PO473272   8.670   7.944   5.509
 5796POPC   GL173273   8.782   8.146   5.898
 5796POPC   GL273274   8.790   8.501   5.945
 5796POPC   C1A73275   8.967   7.982   6.285
 5796POPC   D2A73276   9.202   7.819   6.639
 5796POPC   C3A73277   8.920   7.916   6.977
 5796POPC   C4A73278   8.610   8.218   7.097
 5796POPC   C1B73279   9.145   8.478   6.264
 5796POPC   C2B73280   9.163   8.353   6.704
 5796POPC   C3B73281   9.023   8.535   7.067
 5796POPC   C4B73282   8.643   8.730   7.181
 5797POPC   NC373283  34.920  10.681   5.393
 5797POPC   PO473284  34.362  10.338   5.488
 5797POPC   GL173285  34.442  10.513   5.831
 5797POPC   GL273286  34.775  10.407   5.815
 5797POPC   C1A73287  34.579  10.671   6.208
 5797POPC   D2A73288  34.453  10.495   6.553
 5797POPC   C3A73289  34.370  10.749   6.871
 5797POPC   C4A73290  34.425  10.602   7.249
 5797POPC   C1B73291  35.007  10.293   6.179
 5797POPC   C2B73292  35.016  10.458   6.581
 5797POPC   C3B73293  34.808  10.494   6.941
 5797POPC   C4B73294  34.891  10.518   7.371
 5798POPC   NC373295  19.407  21.915   5.495
 5798POPC   PO473296  20.097  22.004   5.357
 5798POPC   GL173297  19.935  22.177   5.776
 5798POPC   GL273298  19.675  22.431   5.833
 5798POPC   C1A73299  19.792  22.128   6.217
 5798POPC   D2A73300  19.567  22.239   6.590
 5798POPC   C3A73301  19.626  21.985   6.956
 5798POPC   C4A73302  19.953  21.789   7.221
 5798POPC   C1B73303  19.500  22.662   6.168
 5798POPC   C2B73304  19.646  22.756   6.571
 5798POPC   C3B73305  19.494  22.633   6.948
 5798POPC   C4B73306  19.595  22.377   7.274
 5799POPC   NC373307  31.395  23.294   5.439
 5799POPC   PO473308  31.149  24.037   5.471
 5799POPC   GL173309  31.375  23.781   5.768
 5799POPC   GL273310  31.722  23.737   5.796
 5799POPC   C1A73311  31.241  23.586   6.179
 5799POPC   D2A73312  31.253  23.392   6.598
 5799POPC   C3A73313  31.277  23.665   6.923
 5799POPC   C4A73314  31.114  23.817   7.277
 5799POPC   C1B73315  31.721  23.407   6.171
 5799POPC   C2B73316  31.782  23.356   6.634
 5799POPC   C3B73317  31.609  23.293   7.051
 5799POPC   C4B73318  31.609  23.692   7.302
 5800POPC   NC373319   6.990  35.161   5.180
 5800POPC   PO473320   6.402  35.523   5.102
 5800POPC   GL173321   6.429  35.354   5.582
 5800POPC   GL273322   6.234  35.050   5.675
 5800POPC   C1A73323   6.381  35.453   6.047
 5800POPC   D2A73324   6.602  35.455   6.459
 5800POPC   C3A73325   6.486  35.344   6.864
 5800POPC   C4A73326   6.648  35.266   7.264
 5800POPC   C1B73327   6.212  34.928   6.145
 5800POPC   C2B73328   6.452  34.896   6.570
 5800POPC   C3B73329   6.361  34.867   7.017
 5800POPC   C4B73330   6.149  35.190   7.227
 5801POPC   NC373331  43.534  28.326   5.576
 5801POPC   PO473332  43.965  28.761   5.336
 5801POPC   GL173333  44.019  28.409   5.756
 5801POPC   GL273334  44.165  28.084   5.794
 5801POPC   C1A73335  43.855  28.210   6.193
 5801POPC   D2A73336  43.671  28.186   6.630
 5801POPC   C3A73337  43.846  28.218   7.066
 5801POPC   C4A73338  43.945  28.477   7.409
 5801POPC   C1B73339  44.239  27.881   6.171
 5801POPC   C2B73340  44.203  28.061   6.592
 5801POPC   C3B73341  44.348  28.086   7.026
 5801POPC   C4B73342  44.205  28.040   7.468
 5802POPC   NC373343   7.899   9.127   5.251
 5802POPC   PO473344   8.546   8.929   5.392
 5802POPC   GL173345   8.251   8.898   5.678
 5802POPC   GL273346   8.186   9.235   5.718
 5802POPC   C1A73347   8.306   8.852   6.129
 5802POPC   D2A73348   8.424   9.122   6.474
 5802POPC   C3A73349   8.330   8.952   6.857
 5802POPC   C4A73350   8.319   9.108   7.303
 5802POPC   C1B73351   7.869   9.110   6.041
 5802POPC   C2B73352   7.922   9.047   6.492
 5802POPC   C3B73353   7.913   9.196   6.934
 5802POPC   C4B73354   7.832   8.965   7.260
 5803POPC   NC373355  28.477  37.415   5.477
 5803POPC   PO473356  28.738  38.032   5.444
 5803POPC   GL173357  28.631  37.784   5.836
 5803POPC   GL273358  28.318  37.576   5.918
 5803POPC   C1A73359  28.705  37.779   6.262
 5803POPC   D2A73360  28.852  37.523   6.602
 5803POPC   C3A73361  28.670  37.711   6.972
 5803POPC   C4A73362  28.350  37.658   7.265
 5803POPC   C1B73363  28.139  37.819   6.215
 5803POPC   C2B73364  28.318  37.864   6.615
 5803POPC   C3B73365  28.252  38.071   6.977
 5803POPC   C4B73366  28.086  38.099   7.347
 5804POPC   NC373367  17.717  17.800   5.359
 5804POPC   PO473368  17.246  17.330   5.531
 5804POPC   GL173369  17.361  17.588   5.810
 5804POPC   GL273370  17.726  17.557   5.823
 5804POPC   C1A73371  17.206  17.535   6.214
 5804POPC   D2A73372  17.407  17.566   6.553
 5804POPC   C3A73373  17.273  17.395   6.898
 5804POPC   C4A73374  17.249  17.260   7.288
 5804POPC   C1B73375  17.816  17.671   6.255
 5804POPC   C2B73376  17.884  17.608   6.728
 5804POPC   C3B73377  17.703  17.595   7.163
 5804POPC   C4B73378  17.760  17.832   7.570
 5805POPC   NC373379  35.256  23.105   5.138
 5805POPC   PO473380  35.790  23.157   5.585
 5805POPC   GL173381  35.437  23.055   5.938
 5805POPC   GL273382  35.142  22.801   5.872
 5805POPC   C1A73383  35.440  23.134   6.390
 5805POPC   D2A73384  35.782  23.071   6.688
 5805POPC   C3A73385  35.576  23.059   7.051
 5805POPC   C4A73386  35.284  23.182   7.371
 5805POPC   C1B73387  35.294  22.666   6.275
 5805POPC   C2B73388  35.446  22.684   6.697
 5805POPC   C3B73389  35.252  22.671   7.104
 5805POPC   C4B73390  34.833  22.603   7.248
 5806POPC   NC373391  32.675  26.345   5.552
 5806POPC   PO473392  32.120  25.990   5.408
 5806POPC   GL173393  32.347  26.017   5.791
 5806POPC   GL273394  32.282  25.711   5.939
 5806POPC   C1A73395  32.613  26.078   6.168
 5806POPC   D2A73396  32.669  25.976   6.569
 5806POPC   C3A73397  32.402  26.173   6.827
 5806POPC   C4A73398  32.449  26.241   7.249
 5806POPC   C1B73399  32.126  26.001   6.289
 5806POPC   C2B73400  31.923  26.201   6.653
 5806POPC   C3B73401  31.956  26.089   7.122
 5806POPC   C4B73402  32.003  25.857   7.558
 5807POPC   NC373403  21.011  41.121   5.251
 5807POPC   PO473404  21.447  40.595   5.449
 5807POPC   GL173405  21.341  40.560   5.892
 5807POPC   GL273406  21.599  40.741   6.051
 5807POPC   C1A73407  21.239  40.606   6.358
 5807POPC   D2A73408  21.634  40.648   6.604
 5807POPC   C3A73409  21.585  40.564   7.040
 5807POPC   C4A73410  21.154  40.416   7.133
 5807POPC   C1B73411  21.483  41.068   6.366
 5807POPC   C2B73412  21.365  41.040   6.804
 5807POPC   C3B73413  21.448  41.021   7.220
 5807POPC   C4B73414  21.653  40.755   7.536
 5808POPC   NC373415  40.268  13.826   5.379
 5808POPC   PO473416  39.642  13.535   5.404
 5808POPC   GL173417  39.910  13.620   5.750
 5808POPC   GL273418  39.949  13.942   5.857
 5808POPC   C1A73419  40.113  13.549   6.190
 5808POPC   D2A73420  40.147  13.297   6.560
 5808POPC   C3A73421  39.833  13.367   6.893
 5808POPC   C4A73422  39.784  13.607   7.250
 5808POPC   C1B73423  40.001  14.048   6.318
 5808POPC   C2B73424  40.049  13.812   6.703
 5808POPC   C3B73425  40.260  13.723   7.082
 5808POPC   C4B73426  40.280  13.835   7.572
 5809POPC   NC373427  37.542  34.161   5.394
 5809POPC   PO473428  37.494  34.893   5.378
 5809POPC   GL173429  37.560  34.763   5.783
 5809POPC   GL273430  37.407  34.475   5.756
 5809POPC   C1A73431  37.750  34.564   6.169
 5809POPC   D2A73432  37.925  34.446   6.557
 5809POPC   C3A73433  37.746  34.593   6.920
 5809POPC   C4A73434  38.026  34.740   7.200
 5809POPC   C1B73435  37.349  34.234   6.097
 5809POPC   C2B73436  37.425  34.299   6.549
 5809POPC   C3B73437  37.452  34.158   6.994
 5809POPC   C4B73438  37.193  34.268   7.334
 5810POPC   NC373439   0.021  18.884   5.438
 5810POPC   PO473440  44.359  19.168   5.427
 5810POPC   GL173441  44.652  19.172   5.711
 5810POPC   GL273442  44.711  18.835   5.826
 5810POPC   C1A73443  44.595  19.217   6.157
 5810POPC   D2A73444  44.611  19.374   6.587
 5810POPC   C3A73445  44.491  19.073   6.924
 5810POPC   C4A73446  44.654  19.067   7.357
 5810POPC   C1B73447  44.918  18.803   6.222
 5810POPC   C2B73448  44.758  18.687   6.639
 5810POPC   C3B73449  44.936  18.830   7.025
 5810POPC   C4B73450   0.161  18.920   7.409
 5811POPC   NC373451   6.369   9.293   5.396
 5811POPC   PO473452   6.668   8.684   5.306
 5811POPC   GL173453   6.655   8.867   5.759
 5811POPC   GL273454   6.450   9.154   5.864
 5811POPC   C1A73455   6.623   8.778   6.218
 5811POPC   D2A73456   6.910   8.940   6.555
 5811POPC   C3A73457   6.825   8.999   6.979
 5811POPC   C4A73458   6.655   8.779   7.295
 5811POPC   C1B73459   6.798   9.233   6.115
 5811POPC   C2B73460   6.486   9.214   6.473
 5811POPC   C3B73461   6.320   9.042   6.842
 5811POPC   C4B73462   6.385   9.222   7.230
 5812POPC   NC373463  39.764  23.492   5.026
 5812POPC   PO473464  39.215  23.648   5.475
 5812POPC   GL173465  39.066  23.818   5.841
 5812POPC   GL273466  38.858  24.110   5.782
 5812POPC   C1A73467  39.177  23.737   6.251
 5812POPC   D2A73468  39.122  23.715   6.681
 5812POPC   C3A73469  39.400  23.599   7.007
 5812POPC   C4A73470  39.311  23.208   7.180
 5812POPC   C1B73471  39.033  24.247   6.137
 5812POPC   C2B73472  38.996  24.166   6.504
 5812POPC   C3B73473  38.979  24.200   6.889
 5812POPC   C4B73474  39.214  24.050   7.178
 5813POPC   NC373475  40.369  29.796   5.495
 5813POPC   PO473476  39.700  29.908   5.405
 5813POPC   GL173477  39.756  29.999   5.842
 5813POPC   GL273478  40.107  30.066   5.857
 5813POPC   C1A73479  39.821  30.031   6.306
 5813POPC   D2A73480  39.860  29.790   6.677
 5813POPC   C3A73481  39.765  29.989   7.039
 5813POPC   C4A73482  40.060  29.975   7.295
 5813POPC   C1B73483  40.255  29.762   6.226
 5813POPC   C2B73484  40.360  29.541   6.603
 5813POPC   C3B73485  40.415  29.713   7.022
 5813POPC   C4B73486  40.420  29.720   7.501
 5814POPC   NC373487  18.209  32.743   5.272
 5814POPC   PO473488  18.733  33.138   5.383
 5814POPC   GL173489  18.441  33.057   5.757
 5814POPC   GL273490  18.175  32.769   5.794
 5814POPC   C1A73491  18.260  33.267   6.156
 5814POPC   D2A73492  18.019  33.233   6.541
 5814POPC   C3A73493  18.187  33.222   6.972
 5814POPC   C4A73494  18.015  33.137   7.386
 5814POPC   C1B73495  18.397  32.782   6.203
 5814POPC   C2B73496  18.386  32.890   6.625
 5814POPC   C3B73497  18.265  32.698   7.045
 5814POPC   C4B73498  18.358  32.663   7.503
 5815POPC   NC373499  20.315  27.764   5.076
 5815POPC   PO473500  19.717  27.523   5.267
 5815POPC   GL173501  19.890  27.419   5.693
 5815POPC   GL273502  19.591  27.273   5.865
 5815POPC   C1A73503  19.998  27.548   6.139
 5815POPC   D2A73504  20.167  27.461   6.593
 5815POPC   C3A73505  19.941  27.665   6.961
 5815POPC   C4A73506  19.877  27.959   7.307
 5815POPC   C1B73507  19.735  27.129   6.275
 5815POPC   C2B73508  19.690  27.269   6.677
 5815POPC   C3B73509  19.754  27.155   7.083
 5815POPC   C4B73510  19.706  27.428   7.412
 5816POPC   NC373511   6.172   0.843   5.457
 5816POPC   PO473512   5.711   0.267   5.424
 5816POPC   GL173513   5.968   0.409   5.732
 5816POPC   GL273514   5.821   0.675   5.809
 5816POPC   C1A73515   6.077   0.389   6.175
 5816POPC   D2A73516   5.886   0.289   6.576
 5816POPC   C3A73517   6.018   0.479   6.953
 5816POPC   C4A73518   5.802   0.408   7.324
 5816POPC   C1B73519   5.595   0.532   6.148
 5816POPC   C2B73520   5.536   0.669   6.542
 5816POPC   C3B73521   5.509   0.630   6.961
 5816POPC   C4B73522   5.414   0.724   7.375
 5817POPC   NC373523  30.600   6.979   5.384
 5817POPC   PO473524  30.989   6.409   5.623
 5817POPC   GL173525  30.664   6.576   5.903
 5817POPC   GL273526  30.512   6.883   5.861
 5817POPC   C1A73527  30.412   6.506   6.272
 5817POPC   D2A73528  30.109   6.574   6.603
 5817POPC   C3A73529  30.305   6.703   6.997
 5817POPC   C4A73530  30.561   6.476   7.301
 5817POPC   C1B73531  30.684   6.954   6.261
 5817POPC   C2B73532  30.693   6.764   6.646
 5817POPC   C3B73533  30.836   6.825   7.042
 5817POPC   C4B73534  30.627   7.004   7.296
 5818POPC   NC373535  39.857  23.319   5.653
 5818POPC   PO473536  40.020  23.830   5.249
 5818POPC   GL173537  39.928  23.824   5.734
 5818POPC   GL273538  39.590  23.763   5.849
 5818POPC   C1A73539  40.072  23.785   6.192
 5818POPC   D2A73540  40.133  23.417   6.519
 5818POPC   C3A73541  40.225  23.523   6.972
 5818POPC   C4A73542  39.933  23.794   7.164
 5818POPC   C1B73543  39.638  23.522   6.269
 5818POPC   C2B73544  39.631  23.273   6.657
 5818POPC   C3B73545  39.807  23.252   7.063
 5818POPC   C4B73546  39.673  23.439   7.436
 5819POPC   NC373547  42.714  25.317   5.517
 5819POPC   PO473548  42.149  24.976   5.477
 5819POPC   GL173549  42.339  25.138   5.844
 5819POPC   GL273550  42.701  25.052   5.945
 5819POPC   C1A73551  42.232  25.016   6.255
 5819POPC   D2A73552  42.426  25.059   6.641
 5819POPC   C3A73553  42.155  25.053   6.981
 5819POPC   C4A73554  42.316  24.975   7.376
 5819POPC   C1B73555  42.592  25.417   6.227
 5819POPC   C2B73556  42.696  25.539   6.659
 5819POPC   C3B73557  42.582  25.334   7.055
 5819POPC   C4B73558  42.248  25.463   7.310
 5820POPC   NC373559  26.494  33.546   5.491
 5820POPC   PO473560  27.097  33.296   5.536
 5820POPC   GL173561  26.827  33.555   5.859
 5820POPC   GL273562  26.772  33.915   5.797
 5820POPC   C1A73563  26.666  33.705   6.252
 5820POPC   D2A73564  26.807  33.647   6.678
 5820POPC   C3A73565  26.699  33.873   7.030
 5820POPC   C4A73566  26.690  33.582   7.362
 5820POPC   C1B73567  27.054  34.023   6.172
 5820POPC   C2B73568  27.109  34.097   6.625
 5820POPC   C3B73569  27.132  34.175   7.074
 5820POPC   C4B73570  26.974  34.020   7.486
 5821POPC   NC373571   4.715  18.092   5.402
 5821POPC   PO473572   4.164  18.415   5.361
 5821POPC   GL173573   4.226  18.429   5.777
 5821POPC   GL273574   4.591  18.378   5.833
 5821POPC   C1A73575   4.035  18.304   6.163
 5821POPC   D2A73576   4.264  18.306   6.549
 5821POPC   C3A73577   4.101  18.421   6.928
 5821POPC   C4A73578   4.076  18.115   7.246
 5821POPC   C1B73579   4.514  18.045   6.179
 5821POPC   C2B73580   4.589  17.921   6.652
 5821POPC   C3B73581   4.553  17.979   7.129
 5821POPC   C4B73582   4.451  18.120   7.593
 5822POPC   NC373583  11.897  32.182   5.363
 5822POPC   PO473584  12.554  31.991   5.450
 5822POPC   GL173585  12.263  32.092   5.839
 5822POPC   GL273586  11.901  32.015   5.872
 5822POPC   C1A73587  12.174  31.957   6.303
 5822POPC   D2A73588  11.923  31.922   6.717
 5822POPC   C3A73589  12.159  32.088   7.084
 5822POPC   C4A73590  12.294  32.122   7.539
 5822POPC   C1B73591  11.688  32.087   6.275
 5822POPC   C2B73592  11.681  32.377   6.620
 5822POPC   C3B73593  11.692  32.334   7.046
 5822POPC   C4B73594  11.814  32.210   7.443
 5823POPC   NC373595  34.351   5.497   5.630
 5823POPC   PO473596  34.700   5.915   5.199
 5823POPC   GL173597  34.682   6.009   5.707
 5823POPC   GL273598  34.380   5.894   5.934
 5823POPC   C1A73599  34.743   6.102   6.194
 5823POPC   D2A73600  34.381   6.032   6.522
 5823POPC   C3A73601  34.518   6.051   6.956
 5823POPC   C4A73602  34.883   6.330   7.076
 5823POPC   C1B73603  34.600   5.630   6.282
 5823POPC   C2B73604  34.589   5.584   6.737
 5823POPC   C3B73605  34.555   5.538   7.183
 5823POPC   C4B73606  34.681   5.424   7.603
 5824POPC   NC373607  29.500  23.254   5.285
 5824POPC   PO473608  29.072  22.683   5.416
 5824POPC   GL173609  29.013  22.805   5.833
 5824POPC   GL273610  29.309  23.025   5.787
 5824POPC   C1A73611  29.058  23.010   6.247
 5824POPC   D2A73612  29.218  23.184   6.638
 5824POPC   C3A73613  29.082  22.948   7.009
 5824POPC   C4A73614  28.969  22.856   7.425
 5824POPC   C1B73615  29.547  23.235   6.157
 5824POPC   C2B73616  29.705  23.345   6.593
 5824POPC   C3B73617  29.635  23.090   6.974
 5824POPC   C4B73618  29.506  23.046   7.401
 5825POPC   NC373619  21.433  10.666   5.425
 5825POPC   PO473620  21.836  10.154   5.642
 5825POPC   GL173621  21.521  10.316   5.908
 5825POPC   GL273622  21.206  10.134   5.992
 5825POPC   C1A73623  21.409  10.567   6.238
 5825POPC   D2A73624  21.569  10.705   6.605
 5825POPC   C3A73625  21.315  10.592   6.936
 5825POPC   C4A73626  21.476  10.557   7.327
 5825POPC   C1B73627  21.202  10.131   6.458
 5825POPC   C2B73628  21.105  10.080   6.906
 5825POPC   C3B73629  21.030  10.307   7.286
 5825POPC   C4B73630  21.274  10.289   7.701
 5826POPC   NC373631  19.954   0.064   5.617
 5826POPC   PO473632  19.474   0.548   5.466
 5826POPC   GL173633  19.554   0.347   5.839
 5826POPC   GL273634  19.870   0.443   5.937
 5826POPC   C1A73635  19.517   0.163   6.234
 5826POPC   D2A73636  19.395   0.260   6.659
 5826POPC   C3A73637  19.505   0.645   6.891
 5826POPC   C4A73638  19.696   0.583   7.308
 5826POPC   C1B73639  20.040   0.265   6.306
 5826POPC   C2B73640  19.922   0.395   6.700
 5826POPC   C3B73641  19.785   0.177   7.031
 5826POPC   C4B73642  20.115   0.090   7.287
 5827POPC   NC373643  11.780  16.465   5.511
 5827POPC   PO473644  11.331  16.876   5.270
 5827POPC   GL173645  11.240  16.750   5.733
 5827POPC   GL273646  11.546  16.717   5.887
 5827POPC   C1A73647  11.119  16.537   6.144
 5827POPC   D2A73648  11.341  16.563   6.544
 5827POPC   C3A73649  11.237  16.371   6.924
 5827POPC   C4A73650  11.371  16.580   7.311
 5827POPC   C1B73651  11.650  17.048   6.140
 5827POPC   C2B73652  11.505  17.044   6.551
 5827POPC   C3B73653  11.561  16.929   6.961
 5827POPC   C4B73654  11.783  16.928   7.343
 5828POPC   NC373655  16.743  32.226   5.142
 5828POPC   PO473656  16.457  31.860   5.597
 5828POPC   GL173657  16.616  32.127   5.884
 5828POPC   GL273658  16.905  32.345   5.819
 5828POPC   C1A73659  16.836  32.077   6.251
 5828POPC   D2A73660  16.924  31.840   6.586
 5828POPC   C3A73661  16.856  32.070   6.923
 5828POPC   C4A73662  16.609  32.191   7.242
 5828POPC   C1B73663  16.680  32.578   6.127
 5828POPC   C2B73664  16.726  32.499   6.533
 5828POPC   C3B73665  16.664  32.591   6.912
 5828POPC   C4B73666  16.602  32.694   7.293
 5829POPC   NC373667  17.755  10.555   5.470
 5829POPC   PO473668  17.149  10.474   5.608
 5829POPC   GL173669  17.491  10.468   5.929
 5829POPC   GL273670  17.895  10.424   5.943
 5829POPC   C1A73671  17.420  10.628   6.330
 5829POPC   D2A73672  17.614  10.671   6.736
 5829POPC   C3A73673  17.388  10.787   7.075
 5829POPC   C4A73674  17.060  10.564   7.226
 5829POPC   C1B73675  17.842  10.343   6.397
 5829POPC   C2B73676  17.431  10.192   6.588
 5829POPC   C3B73677  17.300  10.182   6.985
 5829POPC   C4B73678  17.613  10.361   7.238
 5830POPC   NC373679  41.464  38.605   5.313
 5830POPC   PO473680  41.914  38.176   5.466
 5830POPC   GL173681  41.797  38.421   5.857
 5830POPC   GL273682  41.425  38.528   5.824
 5830POPC   C1A73683  41.566  38.290   6.250
 5830POPC   D2A73684  41.383  38.453   6.609
 5830POPC   C3A73685  41.616  38.272   6.933
 5830POPC   C4A73686  41.427  38.093   7.254
 5830POPC   C1B73687  41.250  38.754   6.197
 5830POPC   C2B73688  41.350  38.990   6.605
 5830POPC   C3B73689  41.206  38.990   7.031
 5830POPC   C4B73690  41.287  38.578   7.196
 5831POPC   NC373691   9.821   6.986   5.380
 5831POPC   PO473692   9.800   6.317   5.384
 5831POPC   GL173693   9.893   6.361   5.810
 5831POPC   GL273694   9.761   6.682   5.862
 5831POPC   C1A73695  10.014   6.414   6.246
 5831POPC   D2A73696   9.945   6.686   6.598
 5831POPC   C3A73697   9.759   6.534   7.001
 5831POPC   C4A73698   9.974   6.571   7.429
 5831POPC   C1B73699   9.520   6.642   6.260
 5831POPC   C2B73700   9.380   6.729   6.699
 5831POPC   C3B73701   9.469   6.936   7.142
 5831POPC   C4B73702   9.546   6.816   7.591
 5832POPC   NC373703  34.167  16.045   5.620
 5832POPC   PO473704  34.649  16.001   5.194
 5832POPC   GL173705  34.701  16.054   5.687
 5832POPC   GL273706  34.540  15.755   5.896
 5832POPC   C1A73707  34.620  16.205   6.155
 5832POPC   D2A73708  34.781  16.318   6.605
 5832POPC   C3A73709  34.694  16.131   7.039
 5832POPC   C4A73710  34.830  15.727   7.175
 5832POPC   C1B73711  34.465  15.639   6.364
 5832POPC   C2B73712  34.395  15.634   6.854
 5832POPC   C3B73713  34.334  15.654   7.327
 5832POPC   C4B73714  34.180  15.880   7.723
 5833POPC   NC373715   5.538  16.889   5.639
 5833POPC   PO473716   5.232  17.333   5.228
 5833POPC   GL173717   5.219  17.448   5.722
 5833POPC   GL273718   5.520  17.623   5.861
 5833POPC   C1A73719   5.097  17.695   6.144
 5833POPC   D2A73720   5.111  17.955   6.554
 5833POPC   C3A73721   5.028  17.778   6.983
 5833POPC   C4A73722   4.840  17.416   7.240
 5833POPC   C1B73723   5.424  17.268   6.155
 5833POPC   C2B73724   5.479  17.162   6.578
 5833POPC   C3B73725   5.292  17.305   6.965
 5833POPC   C4B73726   5.401  17.224   7.368
 5834POPC   NC373727  14.715   1.838   5.400
 5834POPC   PO473728  14.210   1.477   5.510
 5834POPC   GL173729  14.340   1.859   5.779
 5834POPC   GL273730  14.685   1.771   5.902
 5834POPC   C1A73731  14.267   2.058   6.213
 5834POPC   D2A73732  14.150   2.291   6.652
 5834POPC   C3A73733  14.374   2.241   7.094
 5834POPC   C4A73734  14.135   2.240   7.548
 5834POPC   C1B73735  14.767   1.964   6.301
 5834POPC   C2B73736  14.508   1.894   6.659
 5834POPC   C3B73737  14.622   1.744   7.031
 5834POPC   C4B73738  14.869   2.019   7.227
 5835POPC   NC373739  38.575  32.499   5.480
 5835POPC   PO473740  38.131  32.054   5.340
 5835POPC   GL173741  38.395  31.962   5.712
 5835POPC   GL273742  38.650  32.214   5.929
 5835POPC   C1A73743  38.230  32.048   6.133
 5835POPC   D2A73744  38.471  32.334   6.396
 5835POPC   C3A73745  38.465  32.277   6.803
 5835POPC   C4A73746  38.267  31.960   6.980
 5835POPC   C1B73747  38.811  32.619   6.166
 5835POPC   C2B73748  38.720  32.727   6.631
 5835POPC   C3B73749  38.848  32.523   7.029
 5835POPC   C4B73750  38.731  32.123   7.250
 5836POPC   NC373751  41.040  38.946   5.591
 5836POPC   PO473752  40.453  39.290   5.605
 5836POPC   GL173753  40.566  39.189   6.003
 5836POPC   GL273754  40.690  38.852   5.990
 5836POPC   C1A73755  40.759  39.455   6.313
 5836POPC   D2A73756  41.127  39.458   6.555
 5836POPC   C3A73757  41.082  39.604   6.962
 5836POPC   C4A73758  40.990  39.388   7.303
 5836POPC   C1B73759  40.828  38.953   6.418
 5836POPC   C2B73760  40.758  39.186   6.802
 5836POPC   C3B73761  40.671  39.024   7.207
 5836POPC   C4B73762  40.481  38.839   7.556
 5837POPC   NC373763  32.357  25.579   5.399
 5837POPC   PO473764  32.585  24.941   5.589
 5837POPC   GL173765  32.434  25.210   5.925
 5837POPC   GL273766  32.046  25.184   6.030
 5837POPC   C1A73767  32.430  25.085   6.340
 5837POPC   D2A73768  32.157  25.091   6.689
 5837POPC   C3A73769  32.372  25.239   7.034
 5837POPC   C4A73770  32.765  25.200   7.289
 5837POPC   C1B73771  32.075  25.494   6.357
 5837POPC   C2B73772  32.085  25.721   6.770
 5837POPC   C3B73773  31.918  25.535   7.148
 5837POPC   C4B73774  31.891  25.080   7.131
 5838POPC   NC373775  32.057  38.654   5.431
 5838POPC   PO473776  32.403  38.113   5.451
 5838POPC   GL173777  32.259  38.380   5.801
 5838POPC   GL273778  32.553  38.341   5.918
 5838POPC   C1A73779  32.042  38.621   6.155
 5838POPC   D2A73780  32.019  38.876   6.564
 5838POPC   C3A73781  32.105  38.634   6.933
 5838POPC   C4A73782  32.310  38.487   7.299
 5838POPC   C1B73783  32.372  38.239   6.303
 5838POPC   C2B73784  32.211  38.186   6.710
 5838POPC   C3B73785  32.535  38.118   7.004
 5838POPC   C4B73786  32.728  38.159   7.396
 5839POPC   NC373787   9.476  32.528   5.281
 5839POPC   PO473788   9.861  31.999   5.338
 5839POPC   GL173789   9.875  32.314   5.662
 5839POPC   GL273790   9.524  32.293   5.728
 5839POPC   C1A73791   9.906  32.344   6.139
 5839POPC   D2A73792   9.959  32.248   6.583
 5839POPC   C3A73793   9.719  32.368   6.957
 5839POPC   C4A73794   9.871  32.257   7.356
 5839POPC   C1B73795   9.416  32.110   6.103
 5839POPC   C2B73796   9.455  32.131   6.533
 5839POPC   C3B73797   9.436  31.910   6.894
 5839POPC   C4B73798   9.409  32.067   7.297
 5840POPC   NC373799  17.659  23.540   5.507
 5840POPC   PO473800  17.504  24.204   5.514
 5840POPC   GL173801  17.562  23.927   5.817
 5840POPC   GL273802  17.911  23.922   5.744
 5840POPC   C1A73803  17.303  23.745   6.154
 5840POPC   D2A73804  17.114  23.781   6.572
 5840POPC   C3A73805  17.283  23.476   6.856
 5840POPC   C4A73806  17.450  23.503   7.250
 5840POPC   C1B73807  17.880  23.648   6.116
 5840POPC   C2B73808  17.697  23.636   6.503
 5840POPC   C3B73809  17.803  23.576   6.914
 5840POPC   C4B73810  17.975  23.619   7.333
 5841POPC   NC373811   9.104  28.934   5.146
 5841POPC   PO473812   8.525  29.213   5.503
 5841POPC   GL173813   8.849  29.177   5.821
 5841POPC   GL273814   9.232  29.252   5.809
 5841POPC   C1A73815   8.996  29.047   6.226
 5841POPC   D2A73816   9.162  29.188   6.619
 5841POPC   C3A73817   8.824  29.098   6.900
 5841POPC   C4A73818   8.762  28.974   7.311
 5841POPC   C1B73819   9.280  29.497   6.213
 5841POPC   C2B73820   9.542  29.599   6.595
 5841POPC   C3B73821   9.693  29.444   7.008
 5841POPC   C4B73822   9.291  29.239   7.123
 5842POPC   NC373823  12.061  16.932   5.168
 5842POPC   PO473824  12.131  16.275   5.273
 5842POPC   GL173825  12.220  16.472   5.744
 5842POPC   GL273826  12.307  16.824   5.770
 5842POPC   C1A73827  11.964  16.571   6.170
 5842POPC   D2A73828  11.907  16.694   6.632
 5842POPC   C3A73829  11.783  16.444   7.030
 5842POPC   C4A73830  11.725  16.225   7.454
 5842POPC   C1B73831  12.443  16.736   6.212
 5842POPC   C2B73832  12.410  16.897   6.662
 5842POPC   C3B73833  12.437  16.767   7.089
 5842POPC   C4B73834  12.274  16.868   7.483
 5843POPC   NC373835  11.532  23.401   5.558
 5843POPC   PO473836  11.551  24.112   5.562
 5843POPC   GL173837  11.348  23.786   5.885
 5843POPC   GL273838  11.045  23.563   5.850
 5843POPC   C1A73839  11.318  23.510   6.285
 5843POPC   D2A73840  11.459  23.634   6.706
 5843POPC   C3A73841  11.326  23.443   7.093
 5843POPC   C4A73842  11.378  23.599   7.508
 5843POPC   C1B73843  10.823  23.653   6.260
 5843POPC   C2B73844  10.923  23.723   6.686
 5843POPC   C3B73845  11.131  24.041   6.885
 5843POPC   C4B73846  11.323  24.105   7.272
 5844POPC   NC373847  28.145  41.513   5.241
 5844POPC   PO473848  28.777  41.510   5.458
 5844POPC   GL173849  28.547  41.338   5.806
 5844POPC   GL273850  28.183  41.398   5.762
 5844POPC   C1A73851  28.397  41.476   6.230
 5844POPC   D2A73852  28.047  41.508   6.549
 5844POPC   C3A73853  28.252  41.507   6.977
 5844POPC   C4A73854  28.357  41.668   7.410
 5844POPC   C1B73855  27.990  41.167   6.131
 5844POPC   C2B73856  27.806  41.027   6.544
 5844POPC   C3B73857  27.948  41.086   6.976
 5844POPC   C4B73858  27.950  41.340   7.359
 5845POPC   NC373859   3.360  36.079   5.399
 5845POPC   PO473860   2.681  35.976   5.457
 5845POPC   GL173861   2.756  35.940   5.880
 5845POPC   GL273862   3.049  36.079   5.888
 5845POPC   C1A73863   2.758  36.180   6.297
 5845POPC   D2A73864   2.491  36.259   6.633
 5845POPC   C3A73865   2.736  36.289   6.916
 5845POPC   C4A73866   2.702  36.217   7.272
 5845POPC   C1B73867   3.047  35.772   6.257
 5845POPC   C2B73868   3.153  35.848   6.682
 5845POPC   C3B73869   3.340  35.805   7.087
 5845POPC   C4B73870   3.127  35.972   7.472
 5846POPC   NC373871  42.189  40.097   5.283
 5846POPC   PO473872  42.886  40.321   5.400
 5846POPC   GL173873  42.484  40.199   5.704
 5846POPC   GL273874  42.295  39.888   5.797
 5846POPC   C1A73875  42.200  40.269   6.117
 5846POPC   D2A73876  42.271  40.163   6.572
 5846POPC   C3A73877  42.369  40.228   7.011
 5846POPC   C4A73878  42.059  40.156   7.313
 5846POPC   C1B73879  42.341  39.751   6.210
 5846POPC   C2B73880  42.101  39.679   6.581
 5846POPC   C3B73881  42.232  39.737   6.981
 5846POPC   C4B73882  42.371  39.765   7.387
 5847POPC   NC373883  19.475  10.889   5.462
 5847POPC   PO473884  20.000  10.403   5.398
 5847POPC   GL173885  19.808  10.524   5.762
 5847POPC   GL273886  20.061  10.786   5.771
 5847POPC   C1A73887  19.761  10.296   6.168
 5847POPC   D2A73888  19.959  10.158   6.583
 5847POPC   C3A73889  19.712  10.290   6.950
 5847POPC   C4A73890  19.672  10.537   7.316
 5847POPC   C1B73891  19.963  10.766   6.200
 5847POPC   C2B73892  19.754  10.663   6.576
 5847POPC   C3B73893  19.870  10.808   6.944
 5847POPC   C4B73894  20.206  10.917   7.205
 5848POPC   NC373895  19.629  35.793   5.577
 5848POPC   PO473896  20.042  35.274   5.418
 5848POPC   GL173897  19.988  35.469   5.780
 5848POPC   GL273898  19.632  35.363   5.844
 5848POPC   C1A73899  19.982  35.480   6.221
 5848POPC   D2A73900  19.812  35.261   6.584
 5848POPC   C3A73901  20.011  35.417   6.925
 5848POPC   C4A73902  20.081  35.207   7.268
 5848POPC   C1B73903  19.460  35.471   6.249
 5848POPC   C2B73904  19.347  35.455   6.701
 5848POPC   C3B73905  19.522  35.373   7.142
 5848POPC   C4B73906  19.438  35.593   7.529
 5849POPC   NC373907  30.513  40.691   5.386
 5849POPC   PO473908  31.190  40.460   5.469
 5849POPC   GL173909  30.850  40.673   5.786
 5849POPC   GL273910  30.550  40.942   5.825
 5849POPC   C1A73911  30.596  40.556   6.162
 5849POPC   D2A73912  30.827  40.590   6.518
 5849POPC   C3A73913  30.772  40.487   6.946
 5849POPC   C4A73914  31.008  40.744   7.227
 5849POPC   C1B73915  30.695  41.037   6.247
 5849POPC   C2B73916  30.480  40.948   6.647
 5849POPC   C3B73917  30.580  41.000   7.070
 5849POPC   C4B73918  30.792  41.183   7.422
 5850POPC   NC373919  23.744  24.462   5.322
 5850POPC   PO473920  23.113  24.420   5.603
 5850POPC   GL173921  23.461  24.631   5.811
 5850POPC   GL273922  23.797  24.437   5.829
 5850POPC   C1A73923  23.634  24.716   6.242
 5850POPC   D2A73924  23.977  24.666   6.561
 5850POPC   C3A73925  23.793  24.569   6.969
 5850POPC   C4A73926  23.531  24.773   7.282
 5850POPC   C1B73927  23.903  24.254   6.239
 5850POPC   C2B73928  23.910  24.042   6.647
 5850POPC   C3B73929  23.984  24.098   7.100
 5850POPC   C4B73930  23.686  24.249   7.386
 5851POPC   NC373931  20.200  39.879   5.611
 5851POPC   PO473932  20.907  40.028   5.419
 5851POPC   GL173933  20.654  40.117   5.816
 5851POPC   GL273934  20.337  40.210   5.967
 5851POPC   C1A73935  20.788  40.327   6.229
 5851POPC   D2A73936  20.933  40.289   6.661
 5851POPC   C3A73937  20.652  40.147   7.012
 5851POPC   C4A73938  20.711  40.154   7.469
 5851POPC   C1B73939  20.439  39.925   6.307
 5851POPC   C2B73940  20.454  39.705   6.720
 5851POPC   C3B73941  20.255  39.776   7.078
 5851POPC   C4B73942  20.310  39.791   7.497
 5852POPC   NC373943   7.031  34.576   5.584
 5852POPC   PO473944   7.558  34.107   5.490
 5852POPC   GL173945   7.532  34.314   5.889
 5852POPC   GL273946   7.485  34.673   5.829
 5852POPC   C1A73947   7.646  34.377   6.320
 5852POPC   D2A73948   7.510  34.600   6.685
 5852POPC   C3A73949   7.447  34.447   7.070
 5852POPC   C4A73950   7.057  34.312   7.236
 5852POPC   C1B73951   7.304  34.764   6.237
 5852POPC   C2B73952   7.332  35.058   6.647
 5852POPC   C3B73953   7.393  34.970   7.098
 5852POPC   C4B73954   7.145  35.117   7.447
 5853POPC   NC373955  10.889  28.790   5.444
 5853POPC   PO473956  10.326  29.129   5.308
 5853POPC   GL173957  10.456  29.188   5.765
 5853POPC   GL273958  10.240  29.401   5.902
 5853POPC   C1A73959  10.571  29.001   6.197
 5853POPC   D2A73960  10.675  28.782   6.601
 5853POPC   C3A73961  10.820  29.045   6.952
 5853POPC   C4A73962  10.583  29.195   7.287
 5853POPC   C1B73963  10.398  29.470   6.323
 5853POPC   C2B73964  10.464  29.386   6.757
 5853POPC   C3B73965  10.313  29.600   7.137
 5853POPC   C4B73966  10.479  29.612   7.567
 5854POPC   NC373967  40.192  28.813   5.543
 5854POPC   PO473968  39.838  28.179   5.442
 5854POPC   GL173969  39.991  28.375   5.795
 5854POPC   GL273970  39.766  28.655   5.861
 5854POPC   C1A73971  40.099  28.393   6.218
 5854POPC   D2A73972  40.121  28.488   6.648
 5854POPC   C3A73973  40.248  28.164   6.929
 5854POPC   C4A73974  40.283  28.426   7.252
 5854POPC   C1B73975  39.603  28.390   6.215
 5854POPC   C2B73976  39.616  28.426   6.664
 5854POPC   C3B73977  39.783  28.492   7.077
 5854POPC   C4B73978  39.803  28.564   7.537
 5855POPC   NC373979  20.391  14.853   5.268
 5855POPC   PO473980  20.725  15.392   5.481
 5855POPC   GL173981  20.560  15.098   5.809
 5855POPC   GL273982  20.251  14.890   5.757
 5855POPC   C1A73983  20.684  15.174   6.233
 5855POPC   D2A73984  20.518  15.357   6.595
 5855POPC   C3A73985  20.509  15.195   6.999
 5855POPC   C4A73986  20.725  15.541   7.122
 5855POPC   C1B73987  20.297  14.746   6.153
 5855POPC   C2B73988  20.337  14.881   6.567
 5855POPC   C3B73989  20.304  14.720   6.977
 5855POPC   C4B73990  20.479  14.776   7.382
 5856POPC   NC373991  30.602  31.082   5.458
 5856POPC   PO473992  31.033  31.689   5.455
 5856POPC   GL173993  30.836  31.544   5.825
 5856POPC   GL273994  30.911  31.186   5.844
 5856POPC   C1A73995  30.664  31.459   6.233
 5856POPC   D2A73996  30.823  31.493   6.654
 5856POPC   C3A73997  30.679  31.569   7.068
 5856POPC   C4A73998  30.758  31.935   7.332
 5856POPC   C1B73999  30.858  30.967   6.221
 5856POPC   C2B74000  31.026  31.030   6.611
 5856POPC   C3B74001  30.794  31.057   6.968
 5856POPC   C4B74002  30.889  31.114   7.370
 5857POPC   NC374003  18.891  36.069   5.422
 5857POPC   PO474004  19.570  36.200   5.358
 5857POPC   GL174005  19.348  36.132   5.806
 5857POPC   GL274006  19.203  36.379   5.714
 5857POPC   C1A74007  19.266  35.966   6.275
 5857POPC   D2A74008  19.057  35.890   6.727
 5857POPC   C3A74009  19.159  35.914   7.221
 5857POPC   C4A74010  19.121  35.943   7.714
 5857POPC   C1B74011  18.951  36.337   6.114
 5857POPC   C2B74012  18.828  36.347   6.550
 5857POPC   C3B74013  19.009  36.348   6.964
 5857POPC   C4B74014  18.944  36.360   7.392
 5858POPC   NC374015   0.408  37.034   5.399
 5858POPC   PO474016   0.104  36.424   5.256
 5858POPC   GL174017   0.253  36.622   5.698
 5858POPC   GL274018   0.585  36.736   5.780
 5858POPC   C1A74019   0.168  36.700   6.160
 5858POPC   D2A74020   0.190  36.975   6.567
 5858POPC   C3A74021   0.207  36.794   7.018
 5858POPC   C4A74022   0.579  36.685   7.284
 5858POPC   C1B74023   0.525  37.107   6.082
 5858POPC   C2B74024   0.700  37.143   6.498
 5858POPC   C3B74025   0.610  37.147   6.935
 5858POPC   C4B74026   0.643  37.172   7.380
 5859POPC   NC374027  39.563  29.468   5.680
 5859POPC   PO474028  39.383  28.971   5.253
 5859POPC   GL174029  39.352  28.984   5.744
 5859POPC   GL274030  39.124  29.260   5.891
 5859POPC   C1A74031  39.476  29.025   6.197
 5859POPC   D2A74032  39.367  28.862   6.612
 5859POPC   C3A74033  39.300  29.080   6.993
 5859POPC   C4A74034  39.412  29.206   7.417
 5859POPC   C1B74035  38.959  29.424   6.307
 5859POPC   C2B74036  38.904  29.354   6.772
 5859POPC   C3B74037  39.053  29.518   7.167
 5859POPC   C4B74038  39.035  29.460   7.612
 5860POPC   NC374039  40.173  41.424   5.437
 5860POPC   PO474040  40.293  42.054   5.307
 5860POPC   GL174041  40.268  41.808   5.762
 5860POPC   GL274042  39.959  41.571   5.924
 5860POPC   C1A74043  40.178  41.898   6.211
 5860POPC   D2A74044  39.964  41.686   6.549
 5860POPC   C3A74045  40.112  41.709   6.987
 5860POPC   C4A74046  39.986  41.749   7.436
 5860POPC   C1B74047  39.756  41.277   6.267
 5860POPC   C2B74048  39.830  41.230   6.732
 5860POPC   C3B74049  39.943  41.237   7.182
 5860POPC   C4B74050  40.002  41.124   7.605
 5861POPC   NC374051  12.431  29.825   5.434
 5861POPC   PO474052  11.755  29.977   5.377
 5861POPC   GL174053  12.032  29.996   5.729
 5861POPC   GL274054  11.932  29.715   5.834
 5861POPC   C1A74055  12.199  30.050   6.167
 5861POPC   D2A74056  12.226  30.259   6.588
 5861POPC   C3A74057  12.316  30.036   6.970
 5861POPC   C4A74058  12.149  29.928   7.369
 5861POPC   C1B74059  11.979  29.572   6.231
 5861POPC   C2B74060  12.195  29.669   6.596
 5861POPC   C3B74061  11.962  29.647   6.960
 5861POPC   C4B74062  11.746  29.597   7.347
 5862POPC   NC374063  20.759  28.668   5.335
 5862POPC   PO474064  20.578  28.024   5.361
 5862POPC   GL174065  20.484  28.299   5.757
 5862POPC   GL274066  20.357  28.686   5.738
 5862POPC   C1A74067  20.630  28.283   6.217
 5862POPC   D2A74068  20.850  28.177   6.611
 5862POPC   C3A74069  20.725  28.344   7.025
 5862POPC   C4A74070  20.724  28.125   7.425
 5862POPC   C1B74071  20.224  28.619   6.209
 5862POPC   C2B74072  20.387  28.576   6.653
 5862POPC   C3B74073  20.374  28.739   7.097
 5862POPC   C4B74074  20.561  28.605   7.494
 5863POPC   NC374075  16.293  20.804   5.561
 5863POPC   PO474076  15.914  20.228   5.508
 5863POPC   GL174077  15.980  20.448   5.875
 5863POPC   GL274078  15.852  20.777   5.857
 5863POPC   C1A74079  15.772  20.450   6.285
 5863POPC   D2A74080  15.816  20.425   6.738
 5863POPC   C3A74081  16.116  20.445   7.044
 5863POPC   C4A74082  15.858  20.683   7.280
 5863POPC   C1B74083  16.161  20.797   6.222
 5863POPC   C2B74084  16.114  20.845   6.666
 5863POPC   C3B74085  16.201  20.997   7.069
 5863POPC   C4B74086  16.326  20.794   7.472
 5864POPC   NC374087  36.963   4.596   5.035
 5864POPC   PO474088  36.549   4.359   5.520
 5864POPC   GL174089  36.700   4.489   5.897
 5864POPC   GL274090  37.000   4.319   5.792
 5864POPC   C1A74091  36.596   4.509   6.300
 5864POPC   D2A74092  36.454   4.321   6.677
 5864POPC   C3A74093  36.768   4.384   6.980
 5864POPC   C4A74094  36.701   4.531   7.376
 5864POPC   C1B74095  36.815   4.071   6.139
 5864POPC   C2B74096  36.965   4.161   6.542
 5864POPC   C3B74097  37.157   4.017   6.911
 5864POPC   C4B74098  37.106   4.157   7.327
 5865POPC   NC374099  30.507  28.744   5.497
 5865POPC   PO474100  31.124  28.480   5.372
 5865POPC   GL174101  31.044  28.456   5.819
 5865POPC   GL274102  30.779  28.692   5.948
 5865POPC   C1A74103  31.042  28.389   6.285
 5865POPC   D2A74104  30.810  28.626   6.613
 5865POPC   C3A74105  30.751  28.434   7.009
 5865POPC   C4A74106  30.792  28.294   7.427
 5865POPC   C1B74107  30.429  28.685   6.282
 5865POPC   C2B74108  30.289  28.579   6.736
 5865POPC   C3B74109  30.286  28.529   7.218
 5865POPC   C4B74110  30.395  28.501   7.699
 5866POPC   NC374111  21.880  22.187   5.402
 5866POPC   PO474112  22.535  22.446   5.507
 5866POPC   GL174113  22.248  22.256   5.773
 5866POPC   GL274114  22.376  22.475   6.032
 5866POPC   C1A74115  22.020  22.033   6.080
 5866POPC   D2A74116  21.971  21.997   6.534
 5866POPC   C3A74117  21.986  22.154   6.981
 5866POPC   C4A74118  21.947  22.006   7.393
 5866POPC   C1B74119  22.459  22.104   6.343
 5866POPC   C2B74120  22.437  21.944   6.783
 5866POPC   C3B74121  22.454  22.129   7.188
 5866POPC   C4B74122  22.318  22.476   7.385
 5867POPC   NC374123  41.426  23.538   5.484
 5867POPC   PO474124  41.571  24.016   5.037
 5867POPC   GL174125  41.634  24.021   5.587
 5867POPC   GL274126  41.411  23.820   5.888
 5867POPC   C1A74127  41.794  24.052   6.083
 5867POPC   D2A74128  41.470  23.847   6.409
 5867POPC   C3A74129  41.425  23.941   6.852
 5867POPC   C4A74130  41.616  23.861   7.266
 5867POPC   C1B74131  41.778  23.551   6.125
 5867POPC   C2B74132  41.957  23.407   6.523
 5867POPC   C3B74133  41.793  23.528   6.920
 5867POPC   C4B74134  41.869  23.371   7.340
 5868POPC   NC374135  11.504  21.361   5.346
 5868POPC   PO474136  10.892  21.663   5.445
 5868POPC   GL174137  11.165  21.429   5.730
 5868POPC   GL274138  11.492  21.635   5.790
 5868POPC   C1A74139  11.149  21.111   6.069
 5868POPC   D2A74140  11.389  21.011   6.446
 5868POPC   C3A74141  11.227  21.220   6.831
 5868POPC   C4A74142  11.207  21.248   7.277
 5868POPC   C1B74143  11.448  21.503   6.230
 5868POPC   C2B74144  11.653  21.447   6.639
 5868POPC   C3B74145  11.591  21.524   7.084
 5868POPC   C4B74146  11.260  21.785   7.244
 5869POPC   NC374147   4.615  19.625   5.522
 5869POPC   PO474148   5.113  20.072   5.492
 5869POPC   GL174149   5.036  19.972   5.908
 5869POPC   GL274150   4.969  19.637   5.888
 5869POPC   C1A74151   5.136  19.861   6.329
 5869POPC   D2A74152   5.270  20.061   6.706
 5869POPC   C3A74153   5.205  19.743   6.940
 5869POPC   C4A74154   5.260  19.596   7.293
 5869POPC   C1B74155   4.755  19.503   6.246
 5869POPC   C2B74156   4.781  19.677   6.668
 5869POPC   C3B74157   4.747  19.598   7.101
 5869POPC   C4B74158   4.825  19.827   7.506
 5870POPC   NC374159  12.128  42.887   5.089
 5870POPC   PO474160  12.204  42.298   5.374
 5870POPC   GL174161  12.007  42.230   5.835
 5870POPC   GL274162  11.820  41.999   5.976
 5870POPC   C1A74163  11.836  42.386   6.310
 5870POPC   D2A74164  11.688  42.401   6.768
 5870POPC   C3A74165  11.846  42.267   7.172
 5870POPC   C4A74166  12.153  42.388   7.530
 5870POPC   C1B74167  12.208  42.059   6.280
 5870POPC   C2B74168  12.181  42.231   6.714
 5870POPC   C3B74169  12.322  42.059   7.110
 5870POPC   C4B74170  11.997  41.783   7.201
 5871POPC   NC374171  13.970  37.134   5.450
 5871POPC   PO474172  14.664  36.971   5.407
 5871POPC   GL174173  14.380  36.964   5.791
 5871POPC   GL274174  14.215  37.270   5.904
 5871POPC   C1A74175  14.221  36.780   6.197
 5871POPC   D2A74176  14.213  36.686   6.676
 5871POPC   C3A74177  14.534  36.628   7.046
 5871POPC   C4A74178  14.417  36.432   7.459
 5871POPC   C1B74179  14.541  37.169   6.262
 5871POPC   C2B74180  14.593  37.034   6.710
 5871POPC   C3B74181  14.387  37.134   7.103
 5871POPC   C4B74182  14.492  37.233   7.537
 5872POPC   NC374183  36.828  42.897   5.096
 5872POPC   PO474184  37.123  43.354   5.603
 5872POPC   GL174185  36.935  43.172   5.983
 5872POPC   GL274186  37.072  42.882   5.868
 5872POPC   C1A74187  36.700  42.838   6.244
 5872POPC   D2A74188  36.780  42.777   6.693
 5872POPC   C3A74189  36.947  43.186   6.882
 5872POPC   C4A74190  36.998  43.188   7.342
 5872POPC   C1B74191  37.216  42.854   6.275
 5872POPC   C2B74192  37.289  42.766   6.674
 5872POPC   C3B74193  37.142  42.771   7.081
 5872POPC   C4B74194  37.437  42.801   7.407
 5873POPC   NC374195  26.231  10.939   5.556
 5873POPC   PO474196  25.979  10.324   5.437
 5873POPC   GL174197  25.755  10.401   5.853
 5873POPC   GL274198  25.895  10.725   5.892
 5873POPC   C1A74199  25.774  10.419   6.328
 5873POPC   D2A74200  26.165  10.395   6.618
 5873POPC   C3A74201  26.028  10.612   6.981
 5873POPC   C4A74202  25.686  10.323   7.101
 5873POPC   C1B74203  26.234  10.623   6.169
 5873POPC   C2B74204  26.426  10.853   6.541
 5873POPC   C3B74205  26.652  10.912   6.926
 5873POPC   C4B74206  26.434  10.881   7.334
 5874POPC   NC374207  32.909  44.113   5.378
 5874POPC   PO474208  33.442  43.754   5.486
 5874POPC   GL174209  33.103  43.774   5.768
 5874POPC   GL274210  32.862  43.508   5.800
 5874POPC   C1A74211  32.996  43.948   6.148
 5874POPC   D2A74212  33.061  43.825   6.547
 5874POPC   C3A74213  33.065  44.029   6.914
 5874POPC   C4A74214  32.786  44.009   7.231
 5874POPC   C1B74215  33.084  43.422   6.216
 5874POPC   C2B74216  33.217  43.371   6.672
 5874POPC   C3B74217  33.074  43.411   7.117
 5874POPC   C4B74218  33.199  43.371   7.567
 5875POPC   NC374219  29.279   2.235   5.519
 5875POPC   PO474220  29.012   1.662   5.715
 5875POPC   GL174221  29.194   1.968   5.971
 5875POPC   GL274222  28.991   2.253   5.937
 5875POPC   C1A74223  29.412   2.049   6.373
 5875POPC   D2A74224  29.520   2.142   6.781
 5875POPC   C3A74225  29.269   1.861   6.971
 5875POPC   C4A74226  29.172   1.804   7.362
 5875POPC   C1B74227  28.949   2.323   6.364
 5875POPC   C2B74228  29.011   2.296   6.808
 5875POPC   C3B74229  29.179   2.344   7.220
 5875POPC   C4B74230  29.434   2.227   7.575
 5876POPC   NC374231  19.371  33.423   5.405
 5876POPC   PO474232  18.930  33.945   5.293
 5876POPC   GL174233  18.947  33.784   5.724
 5876POPC   GL274234  18.963  33.416   5.743
 5876POPC   C1A74235  18.997  33.989   6.121
 5876POPC   D2A74236  19.167  34.073   6.513
 5876POPC   C3A74237  18.948  33.937   6.909
 5876POPC   C4A74238  19.141  33.753   7.304
 5876POPC   C1B74239  19.193  33.490   6.124
 5876POPC   C2B74240  19.046  33.573   6.539
 5876POPC   C3B74241  19.043  33.426   6.942
 5876POPC   C4B74242  18.811  33.378   7.361
 5877POPC   NC374243  27.733  35.055   5.554
 5877POPC   PO474244  27.496  35.633   5.320
 5877POPC   GL174245  27.535  35.514   5.769
 5877POPC   GL274246  27.404  35.209   5.933
 5877POPC   C1A74247  27.584  35.650   6.199
 5877POPC   D2A74248  27.636  35.463   6.606
 5877POPC   C3A74249  27.897  35.625   6.936
 5877POPC   C4A74250  27.596  35.470   7.189
 5877POPC   C1B74251  27.746  35.113   6.240
 5877POPC   C2B74252  27.778  34.939   6.680
 5877POPC   C3B74253  27.948  35.123   7.075
 5877POPC   C4B74254  27.831  35.048   7.552
 5878POPC   NC374255  21.476  37.397   5.438
 5878POPC   PO474256  21.808  36.872   5.437
 5878POPC   GL174257  21.948  36.848   5.868
 5878POPC   GL274258  21.846  36.571   6.039
 5878POPC   C1A74259  22.050  36.958   6.325
 5878POPC   D2A74260  22.369  36.857   6.637
 5878POPC   C3A74261  22.301  36.888   7.058
 5878POPC   C4A74262  22.237  37.216   7.364
 5878POPC   C1B74263  21.659  36.641   6.448
 5878POPC   C2B74264  21.854  36.838   6.794
 5878POPC   C3B74265  21.802  36.990   7.198
 5878POPC   C4B74266  21.742  37.078   7.636
 5879POPC   NC374267   9.912  26.447   5.334
 5879POPC   PO474268   9.911  25.793   5.233
 5879POPC   GL174269   9.660  25.873   5.638
 5879POPC   GL274270   9.575  25.552   5.767
 5879POPC   C1A74271   9.599  26.082   6.096
 5879POPC   D2A74272   9.786  26.048   6.541
 5879POPC   C3A74273   9.630  26.068   6.977
 5879POPC   C4A74274   9.881  25.999   7.363
 5879POPC   C1B74275   9.287  25.686   6.093
 5879POPC   C2B74276   9.271  25.858   6.521
 5879POPC   C3B74277   9.222  25.745   6.968
 5879POPC   C4B74278   9.371  25.849   7.381
 5880POPC   NC374279   5.535  16.992   5.081
 5880POPC   PO474280   5.112  16.707   5.517
 5880POPC   GL174281   5.104  16.658   5.933
 5880POPC   GL274282   4.755  16.722   5.939
 5880POPC   C1A74283   5.312  16.691   6.345
 5880POPC   D2A74284   5.242  16.524   6.765
 5880POPC   C3A74285   5.412  16.734   7.160
 5880POPC   C4A74286   5.259  16.576   7.593
 5880POPC   C1B74287   4.805  16.462   6.323
 5880POPC   C2B74288   4.727  16.618   6.737
 5880POPC   C3B74289   4.903  16.710   7.118
 5880POPC   C4B74290   4.991  16.968   7.466
 5881POPC   NC374291  27.095  17.325   5.582
 5881POPC   PO474292  27.648  17.553   5.334
 5881POPC   GL174293  27.620  17.402   5.755
 5881POPC   GL274294  27.495  17.712   5.824
 5881POPC   C1A74295  27.543  17.215   6.173
 5881POPC   D2A74296  27.602  16.996   6.590
 5881POPC   C3A74297  27.561  17.329   6.913
 5881POPC   C4A74298  27.310  17.685   7.112
 5881POPC   C1B74299  27.781  17.684   6.180
 5881POPC   C2B74300  27.651  17.773   6.617
 5881POPC   C3B74301  27.817  17.780   7.039
 5881POPC   C4B74302  28.222  17.856   7.208
 5882POPC   NC374303  20.251  35.685   5.345
 5882POPC   PO474304  20.672  35.258   5.187
 5882POPC   GL174305  20.619  35.444   5.645
 5882POPC   GL274306  20.457  35.190   5.855
 5882POPC   C1A74307  20.742  35.614   6.097
 5882POPC   D2A74308  20.971  35.780   6.491
 5882POPC   C3A74309  20.804  35.723   6.907
 5882POPC   C4A74310  20.556  35.428   7.143
 5882POPC   C1B74311  20.695  35.105   6.261
 5882POPC   C2B74312  20.801  35.202   6.682
 5882POPC   C3B74313  20.680  34.960   7.028
 5882POPC   C4B74314  20.947  35.007   7.299
 5883POPC   NC374315  37.294  43.949   5.369
 5883POPC   PO474316  36.733  43.500   5.256
 5883POPC   GL174317  36.824  43.773   5.681
 5883POPC   GL274318  37.114  43.741   5.910
 5883POPC   C1A74319  36.686  43.845   6.163
 5883POPC   D2A74320  36.584  43.752   6.641
 5883POPC   C3A74321  36.703  44.053   6.979
 5883POPC   C4A74322  36.557  44.091   7.399
 5883POPC   C1B74323  37.182  43.954   6.296
 5883POPC   C2B74324  37.089  43.801   6.726
 5883POPC   C3B74325  37.217  43.611   7.105
 5883POPC   C4B74326  37.146  43.601   7.587
 5884POPC   NC374327  20.315  16.690   5.399
 5884POPC   PO474328  19.597  16.865   5.389
 5884POPC   GL174329  19.674  16.916   5.827
 5884POPC   GL274330  19.930  16.665   5.790
 5884POPC   C1A74331  19.897  16.964   6.199
 5884POPC   D2A74332  19.884  16.697   6.564
 5884POPC   C3A74333  20.063  16.823   6.923
 5884POPC   C4A74334  20.077  16.802   7.336
 5884POPC   C1B74335  19.629  16.503   6.134
 5884POPC   C2B74336  19.494  16.377   6.566
 5884POPC   C3B74337  19.624  16.508   6.990
 5884POPC   C4B74338  19.898  16.339   7.310
 5885POPC   NC374339  14.630  10.854   5.717
 5885POPC   PO474340  14.220  10.483   5.293
 5885POPC   GL174341  14.388  10.370   5.710
 5885POPC   GL274342  14.693  10.192   5.779
 5885POPC   C1A74343  14.264  10.429   6.123
 5885POPC   D2A74344  14.360  10.274   6.527
 5885POPC   C3A74345  14.080  10.335   6.871
 5885POPC   C4A74346  14.236  10.437   7.270
 5885POPC   C1B74347  14.771  10.382   6.194
 5885POPC   C2B74348  14.646  10.713   6.471
 5885POPC   C3B74349  14.476  10.694   6.889
 5885POPC   C4B74350  14.693  10.684   7.285
 5886POPC   NC374351  29.442  13.252   5.452
 5886POPC   PO474352  29.005  12.789   5.496
 5886POPC   GL174353  29.248  12.766   5.856
 5886POPC   GL274354  29.537  12.942   5.839
 5886POPC   C1A74355  29.246  12.651   6.256
 5886POPC   D2A74356  29.013  12.762   6.609
 5886POPC   C3A74357  29.129  12.688   7.018
 5886POPC   C4A74358  29.315  12.961   7.275
 5886POPC   C1B74359  29.575  13.041   6.267
 5886POPC   C2B74360  29.545  12.815   6.658
 5886POPC   C3B74361  29.766  12.949   6.977
 5886POPC   C4B74362  29.761  13.236   7.264
 5887POPC   NC374363  41.963  10.794   5.677
 5887POPC   PO474364  42.098  11.321   5.264
 5887POPC   GL174365  42.369  11.368   5.661
 5887POPC   GL274366  42.578  11.063   5.762
 5887POPC   C1A74367  42.339  11.580   6.077
 5887POPC   D2A74368  42.474  11.507   6.515
 5887POPC   C3A74369  42.268  11.618   6.890
 5887POPC   C4A74370  42.177  11.439   7.269
 5887POPC   C1B74371  42.403  11.068   6.170
 5887POPC   C2B74372  42.536  10.987   6.575
 5887POPC   C3B74373  42.510  11.165   6.957
 5887POPC   C4B74374  42.549  11.010   7.355
 5888POPC   NC374375  43.439  11.546   5.435
 5888POPC   PO474376  43.680  10.966   5.578
 5888POPC   GL174377  43.788  11.192   5.944
 5888POPC   GL274378  43.655  11.533   5.891
 5888POPC   C1A74379  43.976  11.111   6.368
 5888POPC   D2A74380  44.040  10.883   6.791
 5888POPC   C3A74381  43.769  11.043   7.124
 5888POPC   C4A74382  43.570  11.406   7.271
 5888POPC   C1B74383  44.047  11.618   6.124
 5888POPC   C2B74384  44.202  11.560   6.521
 5888POPC   C3B74385  43.999  11.402   6.850
 5888POPC   C4B74386  44.066  11.522   7.261
 5889POPC   NC374387   7.376  39.748   5.390
 5889POPC   PO474388   7.562  39.160   5.596
 5889POPC   GL174389   7.186  39.270   5.799
 5889POPC   GL274390   7.327  39.545   5.898
 5889POPC   C1A74391   7.053  39.260   6.222
 5889POPC   D2A74392   7.219  39.408   6.608
 5889POPC   C3A74393   7.273  39.106   6.925
 5889POPC   C4A74394   7.628  39.173   7.119
 5889POPC   C1B74395   7.577  39.321   6.223
 5889POPC   C2B74396   7.741  39.454   6.624
 5889POPC   C3B74397   7.698  39.707   6.967
 5889POPC   C4B74398   7.607  39.628   7.396
 5890POPC   NC374399   3.025  33.330   5.536
 5890POPC   PO474400   2.708  32.788   5.227
 5890POPC   GL174401   2.691  32.966   5.700
 5890POPC   GL274402   3.004  32.926   5.878
 5890POPC   C1A74403   2.481  33.119   6.111
 5890POPC   D2A74404   2.423  32.898   6.541
 5890POPC   C3A74405   2.691  32.966   6.914
 5890POPC   C4A74406   2.595  33.037   7.359
 5890POPC   C1B74407   2.927  32.949   6.334
 5890POPC   C2B74408   3.123  32.761   6.713
 5890POPC   C3B74409   3.087  32.720   7.176
 5890POPC   C4B74410   3.021  32.857   7.599
 5891POPC   NC374411  19.842  33.075   5.353
 5891POPC   PO474412  20.425  33.484   5.498
 5891POPC   GL174413  20.115  33.265   5.842
 5891POPC   GL274414  19.734  33.136   5.849
 5891POPC   C1A74415  20.097  32.927   6.167
 5891POPC   D2A74416  19.815  32.872   6.509
 5891POPC   C3A74417  19.916  32.849   6.935
 5891POPC   C4A74418  19.600  32.757   7.247
 5891POPC   C1B74419  19.796  33.344   6.255
 5891POPC   C2B74420  19.823  33.359   6.733
 5891POPC   C3B74421  20.063  33.322   7.141
 5891POPC   C4B74422  19.957  33.379   7.582
 5892POPC   NC374423   4.803   7.397   5.442
 5892POPC   PO474424   5.271   7.856   5.565
 5892POPC   GL174425   5.093   7.504   5.847
 5892POPC   GL274426   4.707   7.484   5.928
 5892POPC   C1A74427   5.233   7.336   6.252
 5892POPC   D2A74428   5.081   7.189   6.660
 5892POPC   C3A74429   5.079   7.405   7.048
 5892POPC   C4A74430   5.179   7.318   7.473
 5892POPC   C1B74431   4.773   7.508   6.367
 5892POPC   C2B74432   4.673   7.785   6.680
 5892POPC   C3B74433   4.618   7.789   7.097
 5892POPC   C4B74434   4.741   7.557   7.427
 5893POPC   NC374435   6.335  17.464   5.452
 5893POPC   PO474436   5.776  17.751   5.436
 5893POPC   GL174437   6.046  17.727   5.809
 5893POPC   GL274438   6.074  17.369   5.892
 5893POPC   C1A74439   6.200  17.801   6.234
 5893POPC   D2A74440   6.042  17.787   6.680
 5893POPC   C3A74441   5.707  17.610   6.869
 5893POPC   C4A74442   5.794  17.524   7.295
 5893POPC   C1B74443   5.890  17.414   6.299
 5893POPC   C2B74444   6.007  17.229   6.671
 5893POPC   C3B74445   5.768  17.111   7.006
 5893POPC   C4B74446   5.876  17.030   7.414
 5894POPC   NC374447  36.856  25.887   5.366
 5894POPC   PO474448  37.238  26.437   5.608
 5894POPC   GL174449  36.971  26.129   5.812
 5894POPC   GL274450  36.583  26.113   5.753
 5894POPC   C1A74451  37.025  26.117   6.240
 5894POPC   D2A74452  37.218  26.286   6.616
 5894POPC   C3A74453  36.960  26.126   6.942
 5894POPC   C4A74454  37.012  25.934   7.365
 5894POPC   C1B74455  36.521  26.199   6.194
 5894POPC   C2B74456  36.556  26.000   6.626
 5894POPC   C3B74457  36.499  26.013   7.090
 5894POPC   C4B74458  36.555  25.672   7.370
 5895POPC   NC374459  18.563  31.960   5.537
 5895POPC   PO474460  18.327  31.417   5.194
 5895POPC   GL174461  18.489  31.425   5.641
 5895POPC   GL274462  18.203  31.312   5.800
 5895POPC   C1A74463  18.553  31.429   6.126
 5895POPC   D2A74464  18.396  31.713   6.461
 5895POPC   C3A74465  18.304  31.494   6.840
 5895POPC   C4A74466  18.368  31.462   7.259
 5895POPC   C1B74467  18.034  31.441   6.183
 5895POPC   C2B74468  17.953  31.216   6.537
 5895POPC   C3B74469  17.650  31.183   6.801
 5895POPC   C4B74470  17.855  31.263   7.164
 5896POPC   NC374471   5.465  33.754   5.328
 5896POPC   PO474472   6.147  33.808   5.368
 5896POPC   GL174473   5.961  33.573   5.725
 5896POPC   GL274474   5.608  33.676   5.828
 5896POPC   C1A74475   5.915  33.477   6.188
 5896POPC   D2A74476   5.844  33.720   6.560
 5896POPC   C3A74477   5.865  33.576   6.978
 5896POPC   C4A74478   5.968  33.880   7.309
 5896POPC   C1B74479   5.448  33.835   6.206
 5896POPC   C2B74480   5.337  33.786   6.615
 5896POPC   C3B74481   5.483  33.915   6.998
 5896POPC   C4B74482   5.509  33.618   7.337
 5897POPC   NC374483  37.984  44.208   5.438
 5897POPC   PO474484  37.705  43.628   5.260
 5897POPC   GL174485  37.596  43.706   5.725
 5897POPC   GL274486  37.521  44.045   5.835
 5897POPC   C1A74487  37.625  43.681   6.200
 5897POPC   D2A74488  37.586  43.866   6.610
 5897POPC   C3A74489  37.720  43.628   6.960
 5897POPC   C4A74490  37.632  43.787   7.357
 5897POPC   C1B74491  37.865  44.135   6.147
 5897POPC   C2B74492  37.923  44.263   6.589
 5897POPC   C3B74493  37.839  44.120   7.023
 5897POPC   C4B74494  37.627  44.285   7.395
 5898POPC   NC374495   1.691  44.238   5.561
 5898POPC   PO474496   1.292  44.761   5.388
 5898POPC   GL174497   1.295  44.688   5.811
 5898POPC   GL274498   1.667  44.698   5.807
 5898POPC   C1A74499   1.109  44.806   6.221
 5898POPC   D2A74500   0.970  44.968   6.624
 5898POPC   C3A74501   1.197  44.779   6.972
 5898POPC   C4A74502   1.112  44.487   7.283
 5898POPC   C1B74503   1.545  44.472   6.193
 5898POPC   C2B74504   1.619  44.567   6.616
 5898POPC   C3B74505   1.610  44.457   7.034
 5898POPC   C4B74506   1.566  44.704   7.394
 5899POPC   NC374507  11.148  17.297   5.325
 5899POPC   PO474508  11.462  17.851   5.365
 5899POPC   GL174509  11.326  17.628   5.771
 5899POPC   GL274510  11.311  17.262   5.813
 5899POPC   C1A74511  11.448  17.552   6.222
 5899POPC   D2A74512  11.573  17.523   6.660
 5899POPC   C3A74513  11.223  17.355   6.868
 5899POPC   C4A74514  11.000  17.624   7.119
 5899POPC   C1B74515  11.148  17.049   6.196
 5899POPC   C2B74516  10.968  16.962   6.592
 5899POPC   C3B74517  11.059  16.861   7.017
 5899POPC   C4B74518  11.244  17.118   7.348
 5900POPC   NC374519  40.899  30.664   5.509
 5900POPC   PO474520  40.466  30.218   5.342
 5900POPC   GL174521  40.508  30.464   5.777
 5900POPC   GL274522  40.589  30.825   5.888
 5900POPC   C1A74523  40.856  30.469   6.155
 5900POPC   D2A74524  40.730  30.405   6.604
 5900POPC   C3A74525  40.857  30.648   6.967
 5900POPC   C4A74526  40.875  30.541   7.390
 5900POPC   C1B74527  40.388  30.731   6.310
 5900POPC   C2B74528  40.367  30.728   6.777
 5900POPC   C3B74529  40.433  30.728   7.244
 5900POPC   C4B74530  40.589  30.902   7.648
 5901POPC   NC374531  18.053  44.923   5.640
 5901POPC   PO474532  17.456  44.760   5.443
 5901POPC   GL174533  17.328  44.695   5.840
 5901POPC   GL274534  17.680  44.575   5.915
 5901POPC   C1A74535  17.299  44.865   6.246
 5901POPC   D2A74536  17.566  44.748   6.592
 5901POPC   C3A74537  17.362  44.804   6.977
 5901POPC   C4A74538  17.547  44.723   7.383
 5901POPC   C1B74539  17.834  44.247   6.207
 5901POPC   C2B74540  17.632  44.192   6.620
 5901POPC   C3B74541  17.704  44.336   7.037
 5901POPC   C4B74542  17.921  44.368   7.422
 5902POPC   NC374543  44.417  39.068   5.601
 5902POPC   PO474544   0.070  39.274   5.589
 5902POPC   GL174545  44.850  39.564   5.868
 5902POPC   GL274546  44.480  39.510   5.873
 5902POPC   C1A74547  44.736  39.637   6.278
 5902POPC   D2A74548  44.464  39.470   6.565
 5902POPC   C3A74549  44.679  39.323   6.914
 5902POPC   C4A74550  44.410  39.389   7.254
 5902POPC   C1B74551  44.626  39.147   6.192
 5902POPC   C2B74552  44.389  38.940   6.516
 5902POPC   C3B74553  44.284  39.000   6.941
 5902POPC   C4B74554  44.639  38.916   7.223
 5903POPC   NC374555  17.500  28.853   5.507
 5903POPC   PO474556  17.175  29.436   5.591
 5903POPC   GL174557  17.554  29.269   5.830
 5903POPC   GL274558  17.833  28.999   5.862
 5903POPC   C1A74559  17.814  29.405   6.165
 5903POPC   D2A74560  17.704  29.302   6.550
 5903POPC   C3A74561  17.854  29.371   6.919
 5903POPC   C4A74562  17.596  29.363   7.252
 5903POPC   C1B74563  17.726  28.860   6.293
 5903POPC   C2B74564  17.534  28.864   6.744
 5903POPC   C3B74565  17.621  28.822   7.207
 5903POPC   C4B74566  17.914  28.674   7.551
 5904POPC   NC374567  33.302  13.620   5.247
 5904POPC   PO474568  33.989  13.804   5.358
 5904POPC   GL174569  33.713  13.644   5.671
 5904POPC   GL274570  33.789  13.283   5.764
 5904POPC   C1A74571  33.574  13.591   6.118
 5904POPC   D2A74572  33.753  13.673   6.516
 5904POPC   C3A74573  33.656  13.452   6.888
 5904POPC   C4A74574  33.748  13.627   7.285
 5904POPC   C1B74575  34.025  13.312   6.208
 5904POPC   C2B74576  34.171  13.416   6.669
 5904POPC   C3B74577  34.108  13.303   7.165
 5904POPC   C4B74578  34.135  13.422   7.674
 5905POPC   NC374579   3.817  30.362   5.559
 5905POPC   PO474580   3.657  30.933   5.319
 5905POPC   GL174581   3.522  30.980   5.793
 5905POPC   GL274582   3.659  30.672   5.932
 5905POPC   C1A74583   3.653  31.075   6.243
 5905POPC   D2A74584   3.680  30.716   6.549
 5905POPC   C3A74585   3.444  30.652   6.936
 5905POPC   C4A74586   3.601  30.659   7.333
 5905POPC   C1B74587   3.278  30.724   6.186
 5905POPC   C2B74588   3.104  30.590   6.549
 5905POPC   C3B74589   2.981  30.333   6.892
 5905POPC   C4B74590   3.139  30.401   7.290
 5906POPC   NC374591  30.959   8.203   5.361
 5906POPC   PO474592  30.369   8.078   5.204
 5906POPC   GL174593  30.435   8.197   5.724
 5906POPC   GL274594  30.810   8.338   5.833
 5906POPC   C1A74595  30.471   8.293   6.205
 5906POPC   D2A74596  30.416   8.550   6.617
 5906POPC   C3A74597  30.536   8.414   7.057
 5906POPC   C4A74598  30.750   8.037   7.290
 5906POPC   C1B74599  30.915   8.589   6.250
 5906POPC   C2B74600  30.946   8.628   6.728
 5906POPC   C3B74601  31.023   8.507   7.199
 5906POPC   C4B74602  30.948   8.657   7.644
 5907POPC   NC374603  11.804  12.493   5.443
 5907POPC   PO474604  11.251  11.959   5.540
 5907POPC   GL174605  11.436  12.251   5.816
 5907POPC   GL274606  11.129  12.421   5.867
 5907POPC   C1A74607  11.553  12.294   6.258
 5907POPC   D2A74608  11.349  12.056   6.599
 5907POPC   C3A74609  11.387  11.971   7.033
 5907POPC   C4A74610  11.040  11.985   7.325
 5907POPC   C1B74611  11.034  12.312   6.253
 5907POPC   C2B74612  11.168  12.561   6.584
 5907POPC   C3B74613  11.082  12.378   6.949
 5907POPC   C4B74614  10.828  12.450   7.276
 5908POPC   NC374615  36.616  39.073   5.076
 5908POPC   PO474616  36.945  38.539   5.431
 5908POPC   GL174617  37.040  38.651   5.811
 5908POPC   GL274618  37.281  38.377   5.818
 5908POPC   C1A74619  36.818  38.573   6.198
 5908POPC   D2A74620  36.915  38.624   6.619
 5908POPC   C3A74621  36.742  38.430   7.018
 5908POPC   C4A74622  36.925  38.574   7.447
 5908POPC   C1B74623  37.324  38.545   6.225
 5908POPC   C2B74624  37.321  38.328   6.593
 5908POPC   C3B74625  37.230  38.515   6.986
 5908POPC   C4B74626  37.393  38.389   7.326
 5909POPC   NC374627  41.420  33.115   5.350
 5909POPC   PO474628  41.918  32.633   5.360
 5909POPC   GL174629  41.733  32.935   5.714
 5909POPC   GL274630  41.406  32.764   5.761
 5909POPC   C1A74631  41.465  33.120   6.108
 5909POPC   D2A74632  41.391  32.877   6.501
 5909POPC   C3A74633  41.343  33.068   6.909
 5909POPC   C4A74634  41.663  33.073   7.203
 5909POPC   C1B74635  41.690  32.657   6.140
 5909POPC   C2B74636  41.899  32.732   6.512
 5909POPC   C3B74637  41.751  32.703   6.878
 5909POPC   C4B74638  41.865  32.589   7.301
 5910POPC   NC374639  23.908  32.174   5.204
 5910POPC   PO474640  23.379  32.539   5.114
 5910POPC   GL174641  23.345  32.382   5.654
 5910POPC   GL274642  23.707  32.223   5.829
 5910POPC   C1A74643  23.465  32.533   6.125
 5910POPC   D2A74644  23.699  32.463   6.553
 5910POPC   C3A74645  23.479  32.457   6.971
 5910POPC   C4A74646  23.647  32.481   7.407
 5910POPC   C1B74647  24.006  32.207   6.211
 5910POPC   C2B74648  24.168  32.246   6.616
 5910POPC   C3B74649  23.914  32.236   6.991
 5910POPC   C4B74650  23.675  31.973   7.321
 5911POPC   NC374651  27.737  12.874   5.434
 5911POPC   PO474652  27.090  12.646   5.405
 5911POPC   GL174653  27.377  12.741   5.764
 5911POPC   GL274654  27.744  12.561   5.831
 5911POPC   C1A74655  27.582  12.934   6.133
 5911POPC   D2A74656  27.573  12.825   6.544
 5911POPC   C3A74657  27.583  13.016   6.932
 5911POPC   C4A74658  27.340  12.753   7.168
 5911POPC   C1B74659  27.853  12.465   6.263
 5911POPC   C2B74660  27.929  12.520   6.710
 5911POPC   C3B74661  27.736  12.438   7.061
 5911POPC   C4B74662  27.850  12.572   7.427
 5912POPC   NC374663  15.781   2.857   5.580
 5912POPC   PO474664  16.251   2.415   5.479
 5912POPC   GL174665  16.019   2.478   5.839
 5912POPC   GL274666  15.647   2.423   5.809
 5912POPC   C1A74667  16.054   2.678   6.240
 5912POPC   D2A74668  15.880   2.893   6.624
 5912POPC   C3A74669  16.127   2.762   6.960
 5912POPC   C4A74670  16.293   2.972   7.283
 5912POPC   C1B74671  15.564   2.563   6.226
 5912POPC   C2B74672  15.758   2.399   6.588
 5912POPC   C3B74673  15.680   2.529   6.998
 5912POPC   C4B74674  15.714   2.932   7.204
 5913POPC   NC374675  33.907   6.751   5.388
 5913POPC   PO474676  33.329   6.502   5.434
 5913POPC   GL174677  33.443   6.331   5.804
 5913POPC   GL274678  33.765   6.187   5.726
 5913POPC   C1A74679  33.603   6.516   6.190
 5913POPC   D2A74680  33.782   6.822   6.508
 5913POPC   C3A74681  33.719   6.645   6.901
 5913POPC   C4A74682  33.931   6.543   7.290
 5913POPC   C1B74683  33.982   6.156   6.116
 5913POPC   C2B74684  33.957   6.326   6.524
 5913POPC   C3B74685  33.901   6.170   6.922
 5913POPC   C4B74686  34.095   6.064   7.273
 5914POPC   NC374687  30.727  33.109   5.373
 5914POPC   PO474688  31.149  32.679   5.534
 5914POPC   GL174689  30.795  32.874   5.821
 5914POPC   GL274690  30.645  33.221   5.856
 5914POPC   C1A74691  30.552  32.826   6.203
 5914POPC   D2A74692  30.535  32.555   6.565
 5914POPC   C3A74693  30.457  32.756   6.942
 5914POPC   C4A74694  30.721  32.778   7.287
 5914POPC   C1B74695  30.612  33.420   6.229
 5914POPC   C2B74696  30.457  33.269   6.589
 5914POPC   C3B74697  30.199  33.407   6.875
 5914POPC   C4B74698  30.292  33.171   7.217
 5915POPC   NC374699  38.045   2.730   5.649
 5915POPC   PO474700  37.424   2.926   5.329
 5915POPC   GL174701  37.598   2.974   5.722
 5915POPC   GL274702  37.513   2.634   5.767
 5915POPC   C1A74703  37.664   2.927   6.186
 5915POPC   D2A74704  37.514   3.116   6.596
 5915POPC   C3A74705  37.475   2.979   7.046
 5915POPC   C4A74706  37.463   2.964   7.508
 5915POPC   C1B74707  37.407   2.376   6.095
 5915POPC   C2B74708  37.500   2.558   6.490
 5915POPC   C3B74709  37.457   2.484   6.904
 5915POPC   C4B74710  37.558   2.474   7.320
 5916POPC   NC374711  35.966  25.447   5.491
 5916POPC   PO474712  36.357  24.891   5.562
 5916POPC   GL174713  35.995  25.050   5.865
 5916POPC   GL274714  36.058  25.418   5.983
 5916POPC   C1A74715  36.002  25.072   6.339
 5916POPC   D2A74716  36.437  25.169   6.461
 5916POPC   C3A74717  36.484  25.404   6.840
 5916POPC   C4A74718  36.254  25.296   7.192
 5916POPC   C1B74719  35.731  25.516   6.275
 5916POPC   C2B74720  35.532  25.397   6.640
 5916POPC   C3B74721  35.824  25.284   6.903
 5916POPC   C4B74722  35.781  25.334   7.336
 5917POPC   NC374723  39.820   2.604   5.393
 5917POPC   PO474724  40.277   3.064   5.414
 5917POPC   GL174725  40.165   2.672   5.777
 5917POPC   GL274726  39.803   2.654   5.889
 5917POPC   C1A74727  40.110   2.475   6.231
 5917POPC   D2A74728  40.058   2.729   6.603
 5917POPC   C3A74729  40.072   2.525   6.991
 5917POPC   C4A74730  40.216   2.413   7.389
 5917POPC   C1B74731  39.879   2.981   6.185
 5917POPC   C2B74732  39.718   3.127   6.603
 5917POPC   C3B74733  39.693   2.884   6.935
 5917POPC   C4B74734  39.810   2.977   7.306
 5918POPC   NC374735   3.802   0.399   5.261
 5918POPC   PO474736   3.187   0.165   5.373
 5918POPC   GL174737   3.405   0.362   5.723
 5918POPC   GL274738   3.764   0.456   5.777
 5918POPC   C1A74739   3.468   0.220   6.155
 5918POPC   D2A74740   3.359   0.304   6.596
 5918POPC   C3A74741   3.622   0.112   6.927
 5918POPC   C4A74742   3.491   0.194   7.369
 5918POPC   C1B74743   3.764   0.626   6.215
 5918POPC   C2B74744   3.857   0.480   6.632
 5918POPC   C3B74745   3.663   0.602   7.036
 5918POPC   C4B74746   3.603   0.845   7.390
 5919POPC   NC374747  10.826  14.688   5.319
 5919POPC   PO474748  10.457  14.184   5.242
 5919POPC   GL174749  10.590  14.233   5.681
 5919POPC   GL274750  10.879  14.001   5.658
 5919POPC   C1A74751  10.533  14.473   6.103
 5919POPC   D2A74752  10.587  14.709   6.539
 5919POPC   C3A74753  10.477  14.565   6.966
 5919POPC   C4A74754  10.620  14.250   7.271
 5919POPC   C1B74755  10.929  14.107   6.067
 5919POPC   C2B74756  10.866  14.304   6.447
 5919POPC   C3B74757  10.934  14.315   6.881
 5919POPC   C4B74758  11.181  14.149   7.224
 5920POPC   NC374759  30.053  30.247   5.419
 5920POPC   PO474760  29.633  29.744   5.532
 5920POPC   GL174761  29.867  29.987   5.836
 5920POPC   GL274762  30.207  29.889   5.800
 5920POPC   C1A74763  29.753  30.111   6.262
 5920POPC   D2A74764  29.663  30.377   6.639
 5920POPC   C3A74765  29.755  30.099   6.998
 5920POPC   C4A74766  29.565  29.740   7.161
 5920POPC   C1B74767  30.280  30.102   6.181
 5920POPC   C2B74768  30.125  30.060   6.597
 5920POPC   C3B74769  30.265  29.997   6.989
 5920POPC   C4B74770  30.265  30.306   7.297
 5921POPC   NC374771  43.504  39.498   5.337
 5921POPC   PO474772  44.089  39.266   5.363
 5921POPC   GL174773  43.772  39.198   5.704
 5921POPC   GL274774  43.560  39.454   5.844
 5921POPC   C1A74775  43.790  39.100   6.150
 5921POPC   D2A74776  43.980  39.246   6.542
 5921POPC   C3A74777  43.805  39.168   6.939
 5921POPC   C4A74778  43.922  39.076   7.340
 5921POPC   C1B74779  43.493  39.661   6.236
 5921POPC   C2B74780  43.551  39.522   6.657
 5921POPC   C3B74781  43.506  39.568   7.094
 5921POPC   C4B74782  43.541  39.462   7.557
 5922POPC   NC374783  25.762  13.986   5.422
 5922POPC   PO474784  26.323  13.599   5.355
 5922POPC   GL174785  26.104  13.758   5.721
 5922POPC   GL274786  25.883  13.463   5.745
 5922POPC   C1A74787  25.940  13.792   6.159
 5922POPC   D2A74788  26.094  13.572   6.572
 5922POPC   C3A74789  25.982  13.674   6.999
 5922POPC   C4A74790  25.976  13.939   7.360
 5922POPC   C1B74791  26.025  13.281   6.147
 5922POPC   C2B74792  26.129  13.045   6.524
 5922POPC   C3B74793  25.990  13.172   6.909
 5922POPC   C4B74794  26.130  13.267   7.277
 5923POPC   NC374795  43.063  35.827   5.393
 5923POPC   PO474796  43.355  36.418   5.526
 5923POPC   GL174797  43.065  36.135   5.797
 5923POPC   GL274798  42.833  35.788   5.831
 5923POPC   C1A74799  43.199  35.934   6.155
 5923POPC   D2A74800  43.336  36.090   6.536
 5923POPC   C3A74801  43.230  36.013   6.955
 5923POPC   C4A74802  43.212  36.382   7.194
 5923POPC   C1B74803  42.702  35.966   6.197
 5923POPC   C2B74804  42.862  35.833   6.553
 5923POPC   C3B74805  42.743  35.892   6.934
 5923POPC   C4B74806  42.954  35.666   7.245
 5924POPC   NC374807  32.774  13.932   5.565
 5924POPC   PO474808  32.867  13.432   5.149
 5924POPC   GL174809  32.901  13.425   5.623
 5924POPC   GL274810  33.209  13.571   5.752
 5924POPC   C1A74811  32.883  13.433   6.117
 5924POPC   D2A74812  33.183  13.510   6.481
 5924POPC   C3A74813  33.109  13.430   6.918
 5924POPC   C4A74814  33.272  13.480   7.304
 5924POPC   C1B74815  33.119  13.883   6.112
 5924POPC   C2B74816  32.865  13.933   6.489
 5924POPC   C3B74817  32.954  13.933   6.936
 5924POPC   C4B74818  32.926  13.978   7.389
 5925POPC   NC374819  43.242  13.892   5.478
 5925POPC   PO474820  42.619  13.690   5.237
 5925POPC   GL174821  42.790  13.471   5.725
 5925POPC   GL274822  43.130  13.589   5.871
 5925POPC   C1A74823  42.818  13.324   6.179
 5925POPC   D2A74824  42.880  13.547   6.578
 5925POPC   C3A74825  42.811  13.373   7.008
 5925POPC   C4A74826  42.872  13.664   7.368
 5925POPC   C1B74827  43.334  13.468   6.275
 5925POPC   C2B74828  43.341  13.339   6.727
 5925POPC   C3B74829  43.319  13.429   7.187
 5925POPC   C4B74830  43.288  13.202   7.595
 5926POPC   NC374831  24.838  21.301   5.369
 5926POPC   PO474832  24.332  21.758   5.388
 5926POPC   GL174833  24.504  21.505   5.723
 5926POPC   GL274834  24.520  21.143   5.745
 5926POPC   C1A74835  24.816  21.487   6.053
 5926POPC   D2A74836  24.903  21.383   6.495
 5926POPC   C3A74837  24.647  21.562   6.828
 5926POPC   C4A74838  24.763  21.417   7.215
 5926POPC   C1B74839  24.488  21.102   6.196
 5926POPC   C2B74840  24.281  21.323   6.523
 5926POPC   C3B74841  24.177  21.281   6.942
 5926POPC   C4B74842  24.381  21.110   7.272
 5927POPC   NC374843  36.871  38.058   5.437
 5927POPC   PO474844  36.619  37.334   5.494
 5927POPC   GL174845  36.728  37.671   5.758
 5927POPC   GL274846  37.093  37.775   5.815
 5927POPC   C1A74847  36.745  37.716   6.200
 5927POPC   D2A74848  36.970  37.581   6.522
 5927POPC   C3A74849  36.748  37.645   6.865
 5927POPC   C4A74850  36.591  37.851   7.197
 5927POPC   C1B74851  37.069  38.094   6.179
 5927POPC   C2B74852  36.862  38.100   6.588
 5927POPC   C3B74853  37.078  38.030   6.981
 5927POPC   C4B74854  37.024  38.079   7.424
 5928POPC   NC374855   0.463  30.261   5.279
 5928POPC   PO474856   0.159  30.872   5.410
 5928POPC   GL174857   0.445  30.809   5.782
 5928POPC   GL274858   0.348  30.479   5.798
 5928POPC   C1A74859   0.644  30.665   6.213
 5928POPC   D2A74860   0.523  30.625   6.669
 5928POPC   C3A74861   0.739  30.674   7.072
 5928POPC   C4A74862   0.670  30.780   7.507
 5928POPC   C1B74863   0.146  30.330   6.214
 5928POPC   C2B74864   0.220  30.199   6.668
 5928POPC   C3B74865   0.253  30.424   7.085
 5928POPC   C4B74866   0.176  30.805   7.342
 5929POPC   NC374867   9.886  23.449   5.429
 5929POPC   PO474868   9.759  24.030   5.149
 5929POPC   GL174869   9.773  23.862   5.668
 5929POPC   GL274870   9.488  23.679   5.760
 5929POPC   C1A74871   9.855  23.799   6.147
 5929POPC   D2A74872  10.020  23.788   6.590
 5929POPC   C3A74873   9.918  23.683   7.041
 5929POPC   C4A74874  10.018  23.690   7.517
 5929POPC   C1B74875   9.355  23.755   6.208
 5929POPC   C2B74876   9.532  23.901   6.593
 5929POPC   C3B74877   9.399  23.773   7.007
 5929POPC   C4B74878   9.537  23.638   7.403
 5930POPC   NC374879  23.269   7.159   5.650
 5930POPC   PO474880  22.922   7.703   5.468
 5930POPC   GL174881  22.891   7.436   5.903
 5930POPC   GL274882  23.056   7.127   6.093
 5930POPC   C1A74883  22.769   7.427   6.368
 5930POPC   D2A74884  22.615   7.477   6.771
 5930POPC   C3A74885  22.930   7.471   7.080
 5930POPC   C4A74886  22.801   7.100   7.277
 5930POPC   C1B74887  23.407   7.187   6.395
 5930POPC   C2B74888  23.363   7.345   6.795
 5930POPC   C3B74889  23.308   7.114   7.165
 5930POPC   C4B74890  23.269   7.213   7.583
 5931POPC   NC374891  30.144  43.167   5.515
 5931POPC   PO474892  29.469  43.256   5.541
 5931POPC   GL174893  29.777  43.022   5.827
 5931POPC   GL274894  30.167  42.842   5.899
 5931POPC   C1A74895  29.892  43.163   6.210
 5931POPC   D2A74896  29.766  43.037   6.584
 5931POPC   C3A74897  29.628  43.310   6.872
 5931POPC   C4A74898  29.642  43.252   7.315
 5931POPC   C1B74899  30.308  42.887   6.313
 5931POPC   C2B74900  30.255  43.036   6.702
 5931POPC   C3B74901  30.005  42.957   7.086
 5931POPC   C4B74902  30.172  42.897   7.525
 5932POPC   NC374903  16.364  20.040   5.477
 5932POPC   PO474904  16.997  19.833   5.471
 5932POPC   GL174905  16.693  19.803   5.827
 5932POPC   GL274906  16.508  19.473   5.827
 5932POPC   C1A74907  16.516  19.986   6.241
 5932POPC   D2A74908  16.348  20.178   6.655
 5932POPC   C3A74909  16.642  20.090   7.020
 5932POPC   C4A74910  16.836  19.691   7.168
 5932POPC   C1B74911  16.240  19.513   6.167
 5932POPC   C2B74912  16.216  19.685   6.553
 5932POPC   C3B74913  16.373  19.642   6.951
 5932POPC   C4B74914  16.438  19.367   7.302
 5933POPC   NC374915  17.423  40.378   5.295
 5933POPC   PO474916  18.034  40.319   5.586
 5933POPC   GL174917  17.800  39.993   5.838
 5933POPC   GL274918  17.454  40.143   5.777
 5933POPC   C1A74919  17.697  39.890   6.304
 5933POPC   D2A74920  17.636  39.757   6.763
 5933POPC   C3A74921  17.752  40.065   7.096
 5933POPC   C4A74922  17.664  40.081   7.551
 5933POPC   C1B74923  17.130  40.387   6.004
 5933POPC   C2B74924  17.020  40.396   6.462
 5933POPC   C3B74925  17.219  40.267   6.853
 5933POPC   C4B74926  17.338  40.375   7.271
 5934POPC   NC374927   7.910  24.436   5.160
 5934POPC   PO474928   8.408  24.626   5.569
 5934POPC   GL174929   8.328  24.358   5.890
 5934POPC   GL274930   8.570  24.116   5.887
 5934POPC   C1A74931   8.039  24.394   6.270
 5934POPC   D2A74932   8.084  24.250   6.666
 5934POPC   C3A74933   8.175  24.582   6.927
 5934POPC   C4A74934   8.015  24.456   7.292
 5934POPC   C1B74935   8.522  24.264   6.336
 5934POPC   C2B74936   8.559  24.080   6.708
 5934POPC   C3B74937   8.450  24.177   7.102
 5934POPC   C4B74938   8.537  24.543   7.290
 5935POPC   NC374939   5.612  28.184   5.557
 5935POPC   PO474940   6.103  28.661   5.447
 5935POPC   GL174941   5.968  28.511   5.862
 5935POPC   GL274942   5.886  28.159   5.967
 5935POPC   C1A74943   5.850  28.553   6.299
 5935POPC   D2A74944   5.967  28.310   6.702
 5935POPC   C3A74945   5.979  28.348   7.167
 5935POPC   C4A74946   6.015  28.367   7.624
 5935POPC   C1B74947   5.512  28.159   6.235
 5935POPC   C2B74948   5.576  27.995   6.633
 5935POPC   C3B74949   5.515  28.152   7.006
 5935POPC   C4B74950   5.623  28.035   7.395
 5936POPC   NC374951  31.499  28.668   5.596
 5936POPC   PO474952  31.482  28.029   5.498
 5936POPC   GL174953  31.511  28.190   5.916
 5936POPC   GL274954  31.479  28.552   6.078
 5936POPC   C1A74955  31.592  28.167   6.371
 5936POPC   D2A74956  31.448  28.490   6.623
 5936POPC   C3A74957  31.243  28.260   6.935
 5936POPC   C4A74958  31.589  28.158   7.186
 5936POPC   C1B74959  31.813  28.777   6.290
 5936POPC   C2B74960  32.046  28.834   6.681
 5936POPC   C3B74961  31.840  28.787   7.067
 5936POPC   C4B74962  31.448  28.667   7.150
 5937POPC   NC374963  26.760  20.015   5.435
 5937POPC   PO474964  26.396  19.524   5.347
 5937POPC   GL174965  26.606  19.647   5.782
 5937POPC   GL274966  26.790  19.994   5.933
 5937POPC   C1A74967  26.474  19.751   6.214
 5937POPC   D2A74968  26.560  20.006   6.553
 5937POPC   C3A74969  26.596  19.757   6.886
 5937POPC   C4A74970  26.552  19.930   7.248
 5937POPC   C1B74971  27.028  19.911   6.304
 5937POPC   C2B74972  27.074  19.927   6.727
 5937POPC   C3B74973  27.066  19.871   7.157
 5937POPC   C4B74974  26.907  19.924   7.607
 5938POPC   NC374975  22.346  23.553   5.346
 5938POPC   PO474976  22.171  24.099   5.498
 5938POPC   GL174977  22.227  23.836   5.834
 5938POPC   GL274978  21.870  23.774   5.913
 5938POPC   C1A74979  22.318  23.480   6.116
 5938POPC   D2A74980  22.426  23.517   6.538
 5938POPC   C3A74981  22.137  23.623   6.846
 5938POPC   C4A74982  22.177  23.480   7.244
 5938POPC   C1B74983  21.941  23.767   6.353
 5938POPC   C2B74984  21.824  24.004   6.694
 5938POPC   C3B74985  21.946  24.096   7.123
 5938POPC   C4B74986  22.061  23.891   7.491
 5939POPC   NC374987  13.779  20.697   5.292
 5939POPC   PO474988  13.150  20.503   5.480
 5939POPC   GL174989  13.467  20.678   5.774
 5939POPC   GL274990  13.690  20.962   5.935
 5939POPC   C1A74991  13.454  20.577   6.208
 5939POPC   D2A74992  13.443  20.714   6.601
 5939POPC   C3A74993  13.561  20.582   6.973
 5939POPC   C4A74994  13.435  20.780   7.331
 5939POPC   C1B74995  13.936  20.740   6.294
 5939POPC   C2B74996  13.983  20.795   6.703
 5939POPC   C3B74997  14.042  20.700   7.080
 5939POPC   C4B74998  13.919  20.751   7.466
 5940POPC   NC374999  37.964  34.990   5.361
 5940POPC   PO475000  38.402  34.474   5.400
 5940POPC   GL175001  38.366  34.560   5.823
 5940POPC   GL275002  38.076  34.747   5.821
 5940POPC   C1A75003  38.203  34.292   6.140
 5940POPC   D2A75004  38.281  34.079   6.532
 5940POPC   C3A75005  38.437  34.361   6.840
 5940POPC   C4A75006  38.447  34.429   7.271
 5940POPC   C1B75007  38.240  34.812   6.264
 5940POPC   C2B75008  38.266  34.835   6.728
 5940POPC   C3B75009  38.503  34.938   7.088
 5940POPC   C4B75010  38.441  34.857   7.534
 5941POPC   NC375011  36.975  31.123   5.396
 5941POPC   PO475012  36.573  31.651   5.303
 5941POPC   GL175013  36.695  31.447   5.689
 5941POPC   GL275014  36.997  31.512   5.795
 5941POPC   C1A75015  36.657  31.434   6.175
 5941POPC   D2A75016  36.801  31.612   6.598
 5941POPC   C3A75017  36.941  31.383   6.979
 5941POPC   C4A75018  36.757  31.442   7.419
 5941POPC   C1B75019  37.165  31.481   6.219
 5941POPC   C2B75020  37.297  31.778   6.449
 5941POPC   C3B75021  37.250  31.786   6.854
 5941POPC   C4B75022  37.072  31.807   7.227
 5942POPC   NC375023   5.726  10.826   5.350
 5942POPC   PO475024   5.912  10.242   5.215
 5942POPC   GL175025   6.023  10.419   5.625
 5942POPC   GL275026   5.710  10.415   5.796
 5942POPC   C1A75027   6.134  10.444   6.099
 5942POPC   D2A75028   5.929  10.309   6.523
 5942POPC   C3A75029   6.050  10.613   6.868
 5942POPC   C4A75030   5.971  10.596   7.301
 5942POPC   C1B75031   5.681  10.659   6.203
 5942POPC   C2B75032   5.544  10.616   6.637
 5942POPC   C3B75033   5.639  10.342   6.991
 5942POPC   C4B75034   5.466  10.586   7.297
 5943POPC   NC375035   8.393  20.445   5.498
 5943POPC   PO475036   7.867  20.763   5.444
 5943POPC   GL175037   8.134  20.899   5.815
 5943POPC   GL275038   8.480  20.840   5.809
 5943POPC   C1A75039   8.096  20.891   6.282
 5943POPC   D2A75040   7.949  20.741   6.691
 5943POPC   C3A75041   8.124  20.766   7.092
 5943POPC   C4A75042   8.090  20.418   7.356
 5943POPC   C1B75043   8.453  20.539   6.171
 5943POPC   C2B75044   8.597  20.588   6.613
 5943POPC   C3B75045   8.490  20.415   6.995
 5943POPC   C4B75046   8.580  20.552   7.385
 5944POPC   NC375047   3.860  41.781   5.214
 5944POPC   PO475048   3.495  41.391   5.625
 5944POPC   GL175049   3.347  41.637   5.897
 5944POPC   GL275050   3.247  41.386   6.073
 5944POPC   C1A75051   3.432  41.847   6.291
 5944POPC   D2A75052   3.556  42.059   6.676
 5944POPC   C3A75053   3.600  41.778   7.017
 5944POPC   C4A75054   3.682  41.508   7.366
 5944POPC   C1B75055   3.343  41.344   6.472
 5944POPC   C2B75056   3.374  41.195   6.876
 5944POPC   C3B75057   3.209  41.067   7.253
 5944POPC   C4B75058   3.245  41.309   7.616
 5945POPC   NC375059   5.322  18.860   5.394
 5945POPC   PO475060   4.653  19.202   5.319
 5945POPC   GL175061   4.876  19.145   5.740
 5945POPC   GL275062   5.242  19.218   5.761
 5945POPC   C1A75063   4.840  19.004   6.211
 5945POPC   D2A75064   4.984  19.211   6.625
 5945POPC   C3A75065   4.795  19.102   7.036
 5945POPC   C4A75066   4.906  19.289   7.474
 5945POPC   C1B75067   5.336  19.195   6.214
 5945POPC   C2B75068   5.400  18.932   6.588
 5945POPC   C3B75069   5.318  19.037   7.015
 5945POPC   C4B75070   5.542  18.853   7.350
 5946POPC   NC375071  21.719  36.435   5.561
 5946POPC   PO475072  21.242  36.054   5.339
 5946POPC   GL175073  21.429  35.962   5.736
 5946POPC   GL275074  21.463  36.258   5.951
 5946POPC   C1A75075  21.381  35.817   6.167
 5946POPC   D2A75076  21.519  35.709   6.553
 5946POPC   C3A75077  21.319  35.837   6.918
 5946POPC   C4A75078  21.439  36.098   7.266
 5946POPC   C1B75079  21.743  36.146   6.323
 5946POPC   C2B75080  21.670  36.182   6.784
 5946POPC   C3B75081  21.526  36.533   7.039
 5946POPC   C4B75082  21.632  36.589   7.478
 5947POPC   NC375083  25.007  43.022   5.332
 5947POPC   PO475084  25.058  43.507   5.719
 5947POPC   GL175085  25.224  43.111   5.797
 5947POPC   GL275086  24.902  42.948   5.847
 5947POPC   C1A75087  25.472  43.019   6.149
 5947POPC   D2A75088  25.516  42.825   6.559
 5947POPC   C3A75089  25.274  43.028   6.835
 5947POPC   C4A75090  25.393  42.984   7.226
 5947POPC   C1B75091  24.988  42.813   6.292
 5947POPC   C2B75092  24.870  42.696   6.730
 5947POPC   C3B75093  24.893  42.844   7.180
 5947POPC   C4B75094  24.939  42.688   7.609
 5948POPC   NC375095  29.421   9.030   5.512
 5948POPC   PO475096  28.736   8.947   5.389
 5948POPC   GL175097  29.002   8.954   5.791
 5948POPC   GL275098  29.138   8.610   5.770
 5948POPC   C1A75099  29.221   9.088   6.207
 5948POPC   D2A75100  29.052   9.216   6.651
 5948POPC   C3A75101  29.215   8.980   7.015
 5948POPC   C4A75102  29.149   9.006   7.482
 5948POPC   C1B75103  28.878   8.575   6.146
 5948POPC   C2B75104  28.953   8.703   6.603
 5948POPC   C3B75105  28.936   8.521   7.031
 5948POPC   C4B75106  29.201   8.508   7.398
 5949POPC   NC375107  27.723  13.848   5.211
 5949POPC   PO475108  27.478  13.276   5.436
 5949POPC   GL175109  27.589  13.652   5.709
 5949POPC   GL275110  27.265  13.706   5.874
 5949POPC   C1A75111  27.700  13.814   6.152
 5949POPC   D2A75112  27.956  13.898   6.544
 5949POPC   C3A75113  27.843  13.654   6.929
 5949POPC   C4A75114  27.544  13.743   7.247
 5949POPC   C1B75115  27.374  13.395   6.148
 5949POPC   C2B75116  27.583  13.396   6.548
 5949POPC   C3B75117  27.304  13.467   6.907
 5949POPC   C4B75118  27.028  13.739   7.180
 5950POPC   NC375119  44.931  21.721   5.119
 5950POPC   PO475120   0.472  21.468   5.399
 5950POPC   GL175121   0.509  21.272   5.830
 5950POPC   GL275122   0.220  21.456   6.002
 5950POPC   C1A75123   0.556  21.155   6.272
 5950POPC   D2A75124   0.546  21.385   6.649
 5950POPC   C3A75125   0.708  21.206   7.029
 5950POPC   C4A75126   0.873  21.447   7.384
 5950POPC   C1B75127   0.047  21.175   6.264
 5950POPC   C2B75128   0.049  21.276   6.717
 5950POPC   C3B75129   0.246  21.412   7.113
 5950POPC   C4B75130   0.292  21.176   7.491
 5951POPC   NC375131  19.423  41.227   5.421
 5951POPC   PO475132  20.122  41.334   5.476
 5951POPC   GL175133  19.800  41.474   5.727
 5951POPC   GL275134  19.800  41.801   5.914
 5951POPC   C1A75135  19.696  41.329   6.130
 5951POPC   D2A75136  19.722  41.514   6.508
 5951POPC   C3A75137  19.727  41.361   6.895
 5951POPC   C4A75138  19.955  41.573   7.208
 5951POPC   C1B75139  19.758  41.998   6.346
 5951POPC   C2B75140  19.701  41.925   6.817
 5951POPC   C3B75141  19.483  42.027   7.209
 5951POPC   C4B75142  19.651  41.823   7.617
 5952POPC   NC375143  16.678  33.281   5.303
 5952POPC   PO475144  16.689  32.594   5.425
 5952POPC   GL175145  16.691  32.953   5.746
 5952POPC   GL275146  16.997  33.137   5.809
 5952POPC   C1A75147  16.613  33.159   6.169
 5952POPC   D2A75148  16.571  33.013   6.594
 5952POPC   C3A75149  16.695  33.159   7.025
 5952POPC   C4A75150  16.502  33.142   7.478
 5952POPC   C1B75151  17.057  32.913   6.228
 5952POPC   C2B75152  17.058  32.889   6.689
 5952POPC   C3B75153  17.071  32.839   7.138
 5952POPC   C4B75154  17.014  33.190   7.453
 5953POPC   NC375155  38.546   0.701   5.351
 5953POPC   PO475156  38.577   1.402   5.598
 5953POPC   GL175157  38.351   1.087   5.798
 5953POPC   GL275158  38.670   0.904   5.816
 5953POPC   C1A75159  38.195   1.088   6.222
 5953POPC   D2A75160  38.391   1.330   6.570
 5953POPC   C3A75161  38.282   1.169   6.970
 5953POPC   C4A75162  38.362   1.309   7.387
 5953POPC   C1B75163  38.731   1.111   6.225
 5953POPC   C2B75164  38.922   1.402   6.560
 5953POPC   C3B75165  38.752   1.430   7.004
 5953POPC   C4B75166  38.743   1.020   7.220
 5954POPC   NC375167   1.736  16.116   5.451
 5954POPC   PO475168   2.309  15.754   5.223
 5954POPC   GL175169   2.213  16.058   5.692
 5954POPC   GL275170   1.909  16.043   5.913
 5954POPC   C1A75171   2.300  16.213   6.163
 5954POPC   D2A75172   2.001  16.227   6.511
 5954POPC   C3A75173   2.036  16.125   6.944
 5954POPC   C4A75174   2.176  16.208   7.371
 5954POPC   C1B75175   1.848  15.806   6.261
 5954POPC   C2B75176   1.985  15.695   6.639
 5954POPC   C3B75177   1.828  15.665   7.010
 5954POPC   C4B75178   2.096  15.682   7.330
 5955POPC   NC375179  24.280  19.778   5.496
 5955POPC   PO475180  24.719  20.208   5.592
 5955POPC   GL175181  24.831  19.823   5.768
 5955POPC   GL275182  24.617  19.511   5.786
 5955POPC   C1A75183  24.817  19.743   6.199
 5955POPC   D2A75184  24.495  19.925   6.483
 5955POPC   C3A75185  24.503  19.843   6.920
 5955POPC   C4A75186  24.658  19.840   7.325
 5955POPC   C1B75187  24.384  19.498   6.201
 5955POPC   C2B75188  24.184  19.531   6.578
 5955POPC   C3B75189  24.031  19.520   6.974
 5955POPC   C4B75190  24.185  19.646   7.342
 5956POPC   NC375191   8.975  37.086   5.328
 5956POPC   PO475192   9.309  36.642   5.758
 5956POPC   GL175193   8.926  36.776   5.957
 5956POPC   GL275194   8.973  37.092   5.853
 5956POPC   C1A75195   8.720  36.987   6.316
 5956POPC   D2A75196   8.584  37.142   6.732
 5956POPC   C3A75197   8.733  36.821   7.041
 5956POPC   C4A75198   9.044  36.492   7.114
 5956POPC   C1B75199   9.155  37.247   6.269
 5956POPC   C2B75200   9.106  37.281   6.731
 5956POPC   C3B75201   9.100  37.145   7.182
 5956POPC   C4B75202   9.063  37.272   7.642
 5957POPC   NC375203  26.313  23.394   5.288
 5957POPC   PO475204  27.051  23.540   5.449
 5957POPC   GL175205  26.897  23.473   5.843
 5957POPC   GL275206  26.977  23.815   5.976
 5957POPC   C1A75207  26.558  23.557   6.134
 5957POPC   D2A75208  26.601  23.810   6.513
 5957POPC   C3A75209  26.536  23.747   6.956
 5957POPC   C4A75210  26.497  23.462   7.293
 5957POPC   C1B75211  27.077  23.541   6.321
 5957POPC   C2B75212  27.023  23.573   6.742
 5957POPC   C3B75213  26.984  23.612   7.196
 5957POPC   C4B75214  27.190  23.693   7.599
 5958POPC   NC375215  22.239  20.283   5.610
 5958POPC   PO475216  22.519  20.878   5.482
 5958POPC   GL175217  22.321  20.811   5.849
 5958POPC   GL275218  21.981  20.726   5.787
 5958POPC   C1A75219  22.190  20.710   6.246
 5958POPC   D2A75220  22.035  20.484   6.592
 5958POPC   C3A75221  22.125  20.628   6.976
 5958POPC   C4A75222  22.024  20.843   7.350
 5958POPC   C1B75223  21.819  20.396   6.116
 5958POPC   C2B75224  21.570  20.370   6.478
 5958POPC   C3B75225  21.697  20.227   6.896
 5958POPC   C4B75226  21.753  20.413   7.288
 5959POPC   NC375227  25.531   0.256   5.167
 5959POPC   PO475228  25.425   0.802   5.520
 5959POPC   GL175229  25.343   0.489   5.804
 5959POPC   GL275230  24.974   0.472   5.863
 5959POPC   C1A75231  25.535   0.352   6.187
 5959POPC   D2A75232  25.366   0.314   6.588
 5959POPC   C3A75233  25.550   0.096   6.930
 5959POPC   C4A75234  25.459   0.323   7.338
 5959POPC   C1B75235  25.159   0.709   6.237
 5959POPC   C2B75236  25.177   0.881   6.653
 5959POPC   C3B75237  25.084   0.794   7.074
 5959POPC   C4B75238  24.992   0.506   7.435
 5960POPC   NC375239  26.639  17.631   5.456
 5960POPC   PO475240  26.742  17.042   5.678
 5960POPC   GL175241  26.706  17.426   5.922
 5960POPC   GL275242  27.032  17.587   6.018
 5960POPC   C1A75243  26.597  17.654   6.292
 5960POPC   D2A75244  26.848  17.734   6.637
 5960POPC   C3A75245  26.647  17.623   7.030
 5960POPC   C4A75246  26.876  17.705   7.394
 5960POPC   C1B75247  27.046  17.248   6.337
 5960POPC   C2B75248  27.112  17.037   6.762
 5960POPC   C3B75249  26.995  17.266   7.140
 5960POPC   C4B75250  27.175  17.342   7.557
 5961POPC   NC375251  34.004   3.913   5.412
 5961POPC   PO475252  33.836   4.562   5.328
 5961POPC   GL175253  33.718   4.285   5.691
 5961POPC   GL275254  34.046   4.317   5.845
 5961POPC   C1A75255  33.669   4.363   6.174
 5961POPC   D2A75256  33.857   4.395   6.608
 5961POPC   C3A75257  33.610   4.299   7.001
 5961POPC   C4A75258  33.632   4.210   7.509
 5961POPC   C1B75259  34.097   4.658   6.167
 5961POPC   C2B75260  34.081   4.867   6.561
 5961POPC   C3B75261  33.917   4.805   6.978
 5961POPC   C4B75262  33.979   4.494   7.280
 5962POPC   NC375263  30.749  20.377   5.204
 5962POPC   PO475264  30.304  20.861   5.146
 5962POPC   GL175265  30.411  20.746   5.650
 5962POPC   GL275266  30.732  20.592   5.818
 5962POPC   C1A75267  30.308  20.530   6.104
 5962POPC   D2A75268  30.485  20.404   6.527
 5962POPC   C3A75269  30.297  20.422   6.960
 5962POPC   C4A75270  30.572  20.450   7.305
 5962POPC   C1B75271  30.903  20.849   6.186
 5962POPC   C2B75272  30.780  20.997   6.605
 5962POPC   C3B75273  30.834  20.787   7.001
 5962POPC   C4B75274  31.106  20.537   7.273
 5963POPC   NC375275  31.889  43.737   5.529
 5963POPC   PO475276  32.459  44.088   5.412
 5963POPC   GL175277  32.191  44.124   5.795
 5963POPC   GL275278  32.182  43.782   5.930
 5963POPC   C1A75279  32.062  44.128   6.265
 5963POPC   D2A75280  32.184  43.784   6.562
 5963POPC   C3A75281  32.274  43.922   6.986
 5963POPC   C4A75282  32.018  44.060   7.300
 5963POPC   C1B75283  32.543  43.705   6.150
 5963POPC   C2B75284  32.646  43.517   6.503
 5963POPC   C3B75285  32.695  43.649   6.875
 5963POPC   C4B75286  32.587  43.536   7.266
 5964POPC   NC375287  36.849  30.469   5.643
 5964POPC   PO475288  37.196  31.030   5.778
 5964POPC   GL175289  37.012  30.808   5.986
 5964POPC   GL275290  36.683  30.972   5.888
 5964POPC   C1A75291  37.145  30.608   6.356
 5964POPC   D2A75292  36.975  30.425   6.762
 5964POPC   C3A75293  37.165  30.549   7.145
 5964POPC   C4A75294  37.172  30.592   7.612
 5964POPC   C1B75295  36.646  30.834   6.311
 5964POPC   C2B75296  36.906  30.952   6.661
 5964POPC   C3B75297  36.698  30.934   7.037
 5964POPC   C4B75298  36.710  30.789   7.423
 5965POPC   NC375299   3.748  18.312   5.528
 5965POPC   PO475300   3.261  17.919   5.242
 5965POPC   GL175301   3.326  17.991   5.727
 5965POPC   GL275302   3.321  18.303   5.838
 5965POPC   C1A75303   3.521  17.996   6.194
 5965POPC   D2A75304   3.769  18.128   6.596
 5965POPC   C3A75305   3.582  18.065   7.030
 5965POPC   C4A75306   3.646  18.056   7.492
 5965POPC   C1B75307   3.504  18.555   6.167
 5965POPC   C2B75308   3.385  18.747   6.549
 5965POPC   C3B75309   3.411  18.551   6.945
 5965POPC   C4B75310   3.709  18.513   7.263
 5966POPC   NC375311  20.435  10.612   5.455
 5966POPC   PO475312  21.075  10.482   5.653
 5966POPC   GL175313  20.714  10.367   5.895
 5966POPC   GL275314  20.414  10.153   5.762
 5966POPC   C1A75315  20.742  10.376   6.357
 5966POPC   D2A75316  20.676  10.333   6.795
 5966POPC   C3A75317  20.800  10.738   6.941
 5966POPC   C4A75318  20.996  10.813   7.316
 5966POPC   C1B75319  20.267  10.325   6.170
 5966POPC   C2B75320  20.261  10.558   6.583
 5966POPC   C3B75321  20.207  10.420   7.020
 5966POPC   C4B75322  20.539  10.495   7.294
 5967POPC   NC375323  27.045  35.684   5.217
 5967POPC   PO475324  26.588  35.256   5.140
 5967POPC   GL175325  26.649  35.430   5.625
 5967POPC   GL275326  27.008  35.534   5.759
 5967POPC   C1A75327  26.558  35.457   6.122
 5967POPC   D2A75328  26.509  35.651   6.582
 5967POPC   C3A75329  26.593  35.449   7.015
 5967POPC   C4A75330  26.773  35.212   7.408
 5967POPC   C1B75331  27.072  35.537   6.234
 5967POPC   C2B75332  27.030  35.495   6.687
 5967POPC   C3B75333  27.088  35.506   7.148
 5967POPC   C4B75334  27.101  35.580   7.617
 5968POPC   NC375335  24.477   9.229   5.394
 5968POPC   PO475336  24.368   8.659   5.174
 5968POPC   GL175337  24.315   8.754   5.644
 5968POPC   GL275338  24.640   8.897   5.765
 5968POPC   C1A75339  24.272   8.750   6.126
 5968POPC   D2A75340  24.501   8.796   6.546
 5968POPC   C3A75341  24.267   8.756   6.929
 5968POPC   C4A75342  24.333   8.998   7.296
 5968POPC   C1B75343  24.894   9.042   6.112
 5968POPC   C2B75344  24.903   9.150   6.514
 5968POPC   C3B75345  24.948   9.328   6.900
 5968POPC   C4B75346  24.884   9.171   7.310
 5969POPC   NC375347   1.361   6.244   5.359
 5969POPC   PO475348   0.888   5.779   5.243
 5969POPC   GL175349   1.046   5.945   5.689
 5969POPC   GL275350   0.944   5.723   5.905
 5969POPC   C1A75351   1.233   5.983   6.191
 5969POPC   D2A75352   1.497   5.795   6.522
 5969POPC   C3A75353   1.408   5.867   6.961
 5969POPC   C4A75354   1.376   5.972   7.410
 5969POPC   C1B75355   0.728   5.874   6.273
 5969POPC   C2B75356   0.884   6.028   6.662
 5969POPC   C3B75357   0.914   5.833   7.081
 5969POPC   C4B75358   1.008   5.633   7.472
 5970POPC   NC375359  14.637  42.865   5.413
 5970POPC   PO475360  14.063  43.150   5.594
 5970POPC   GL175361  14.297  42.968   5.897
 5970POPC   GL275362  14.630  43.090   5.885
 5970POPC   C1A75363  14.260  43.065   6.325
 5970POPC   D2A75364  14.158  43.319   6.647
 5970POPC   C3A75365  14.232  43.239   7.069
 5970POPC   C4A75366  13.989  43.053   7.380
 5970POPC   C1B75367  14.752  43.109   6.314
 5970POPC   C2B75368  14.587  43.006   6.721
 5970POPC   C3B75369  14.690  42.923   7.172
 5970POPC   C4B75370  14.707  43.240   7.458
 5971POPC   NC375371  34.249   2.901   5.316
 5971POPC   PO475372  34.730   2.509   5.433
 5971POPC   GL175373  34.633   2.826   5.733
 5971POPC   GL275374  34.293   2.821   5.836
 5971POPC   C1A75375  34.660   2.945   6.176
 5971POPC   D2A75376  34.562   2.830   6.598
 5971POPC   C3A75377  34.831   2.841   6.945
 5971POPC   C4A75378  34.682   2.667   7.292
 5971POPC   C1B75379  34.164   2.726   6.263
 5971POPC   C2B75380  34.059   2.853   6.701
 5971POPC   C3B75381  34.240   2.717   7.061
 5971POPC   C4B75382  34.298   2.956   7.465
 5972POPC   NC375383  28.983  24.738   5.399
 5972POPC   PO475384  29.113  25.373   5.475
 5972POPC   GL175385  29.198  25.065   5.786
 5972POPC   GL275386  28.881  24.958   5.874
 5972POPC   C1A75387  29.269  24.891   6.221
 5972POPC   D2A75388  29.351  24.830   6.686
 5972POPC   C3A75389  29.230  25.118   7.049
 5972POPC   C4A75390  28.905  25.140   7.409
 5972POPC   C1B75391  28.909  25.248   6.260
 5972POPC   C2B75392  28.964  25.409   6.714
 5972POPC   C3B75393  29.031  25.577   7.155
 5972POPC   C4B75394  29.074  25.637   7.607
 5973POPC   NC375395   4.111  15.606   5.495
 5973POPC   PO475396   4.244  14.970   5.592
 5973POPC   GL175397   4.230  15.186   5.958
 5973POPC   GL275398   4.452  15.432   5.837
 5973POPC   C1A75399   4.322  14.968   6.338
 5973POPC   D2A75400   4.469  14.969   6.769
 5973POPC   C3A75401   4.164  15.046   7.124
 5973POPC   C4A75402   4.147  15.369   7.454
 5973POPC   C1B75403   4.693  15.362   6.202
 5973POPC   C2B75404   4.656  15.450   6.617
 5973POPC   C3B75405   4.738  15.422   7.041
 5973POPC   C4B75406   4.640  15.461   7.483
 5974POPC   NC375407  43.897   2.292   5.485
 5974POPC   PO475408  44.259   1.745   5.361
 5974POPC   GL175409  43.988   1.815   5.739
 5974POPC   GL275410  43.912   2.113   5.956
 5974POPC   C1A75411  43.842   1.629   6.129
 5974POPC   D2A75412  43.964   1.883   6.465
 5974POPC   C3A75413  43.953   1.780   6.920
 5974POPC   C4A75414  43.598   1.858   7.208
 5974POPC   C1B75415  43.840   2.409   6.298
 5974POPC   C2B75416  43.824   2.530   6.710
 5974POPC   C3B75417  43.843   2.311   7.089
 5974POPC   C4B75418  43.618   2.336   7.454
 5975POPC   NC375419  22.072  12.984   5.383
 5975POPC   PO475420  22.572  12.499   5.392
 5975POPC   GL175421  22.385  12.811   5.758
 5975POPC   GL275422  21.985  12.825   5.855
 5975POPC   C1A75423  22.318  12.986   6.202
 5975POPC   D2A75424  22.383  13.170   6.608
 5975POPC   C3A75425  22.262  12.915   6.970
 5975POPC   C4A75426  22.128  13.262   7.215
 5975POPC   C1B75427  21.752  12.895   6.243
 5975POPC   C2B75428  21.868  13.097   6.639
 5975POPC   C3B75429  21.738  12.967   7.046
 5975POPC   C4B75430  21.869  12.626   7.251
 5976POPC   NC375431   7.343  41.248   5.472
 5976POPC   PO475432   7.121  41.926   5.522
 5976POPC   GL175433   7.332  41.622   5.818
 5976POPC   GL275434   7.134  41.322   5.933
 5976POPC   C1A75435   7.525  41.516   6.221
 5976POPC   D2A75436   7.300  41.576   6.621
 5976POPC   C3A75437   7.476  41.607   7.032
 5976POPC   C4A75438   7.394  41.917   7.377
 5976POPC   C1B75439   7.145  41.153   6.344
 5976POPC   C2B75440   7.205  41.104   6.800
 5976POPC   C3B75441   7.070  41.257   7.207
 5976POPC   C4B75442   7.003  41.232   7.688
 5977POPC   NC375443   9.108  25.619   5.371
 5977POPC   PO475444   8.825  26.170   5.203
 5977POPC   GL175445   8.951  26.109   5.655
 5977POPC   GL275446   8.855  25.784   5.791
 5977POPC   C1A75447   9.043  26.159   6.124
 5977POPC   D2A75448   8.848  26.132   6.553
 5977POPC   C3A75449   9.148  26.280   6.854
 5977POPC   C4A75450   9.287  26.377   7.257
 5977POPC   C1B75451   8.784  25.710   6.239
 5977POPC   C2B75452   8.791  25.580   6.666
 5977POPC   C3B75453   8.653  25.627   7.086
 5977POPC   C4B75454   8.852  25.987   7.216
 5978POPC   NC375455  43.977  35.667   5.062
 5978POPC   PO475456  44.162  35.218   5.575
 5978POPC   GL175457  44.032  35.294   5.966
 5978POPC   GL275458  44.346  35.435   6.033
 5978POPC   C1A75459  43.864  35.234   6.397
 5978POPC   D2A75460  44.021  35.088   6.794
 5978POPC   C3A75461  43.876  35.246   7.200
 5978POPC   C4A75462  43.586  35.200   7.574
 5978POPC   C1B75463  44.168  35.636   6.317
 5978POPC   C2B75464  44.163  35.582   6.733
 5978POPC   C3B75465  44.299  35.670   7.118
 5978POPC   C4B75466  43.987  35.678   7.460
 5979POPC   NC375467  44.721   3.047   5.344
 5979POPC   PO475468  44.269   2.543   5.344
 5979POPC   GL175469  44.541   2.692   5.684
 5979POPC   GL275470  44.510   3.011   5.858
 5979POPC   C1A75471  44.692   2.537   6.080
 5979POPC   D2A75472  44.686   2.439   6.533
 5979POPC   C3A75473  44.731   2.772   6.875
 5979POPC   C4A75474  44.638   2.624   7.269
 5979POPC   C1B75475  44.789   3.214   6.188
 5979POPC   C2B75476  44.944   3.300   6.643
 5979POPC   C3B75477  44.995   3.293   7.103
 5979POPC   C4B75478  44.888   3.078   7.478
 5980POPC   NC375479  18.633  16.378   5.291
 5980POPC   PO475480  18.039  16.730   5.423
 5980POPC   GL175481  17.966  16.672   5.873
 5980POPC   GL275482  18.210  16.460   5.927
 5980POPC   C1A75483  17.893  16.782   6.328
 5980POPC   D2A75484  18.114  16.585   6.635
 5980POPC   C3A75485  18.156  16.726   7.068
 5980POPC   C4A75486  18.507  16.530   7.263
 5980POPC   C1B75487  18.381  16.792   6.219
 5980POPC   C2B75488  18.606  16.836   6.582
 5980POPC   C3B75489  18.622  16.974   6.978
 5980POPC   C4B75490  18.756  16.953   7.393
 5981POPC   NC375491   3.598   4.813   5.514
 5981POPC   PO475492   3.296   5.354   5.475
 5981POPC   GL175493   3.633   5.265   5.752
 5981POPC   GL275494   3.773   5.562   5.768
 5981POPC   C1A75495   3.788   5.205   6.161
 5981POPC   D2A75496   3.518   5.233   6.507
 5981POPC   C3A75497   3.445   4.929   6.887
 5981POPC   C4A75498   3.067   4.654   7.007
 5981POPC   C1B75499   3.576   5.682   6.154
 5981POPC   C2B75500   3.540   5.747   6.589
 5981POPC   C3B75501   3.573   5.457   6.943
 5981POPC   C4B75502   3.714   5.180   7.266
 5982POPC   NC375503  31.450   6.347   5.496
 5982POPC   PO475504  31.709   7.011   5.530
 5982POPC   GL175505  31.468   6.761   5.823
 5982POPC   GL275506  31.100   6.865   5.833
 5982POPC   C1A75507  31.577   6.520   6.190
 5982POPC   D2A75508  31.500   6.662   6.593
 5982POPC   C3A75509  31.584   6.423   6.931
 5982POPC   C4A75510  31.704   6.472   7.312
 5982POPC   C1B75511  31.084   6.644   6.225
 5982POPC   C2B75512  30.917   6.347   6.449
 5982POPC   C3B75513  31.056   6.424   6.848
 5982POPC   C4B75514  31.171   6.402   7.272
 5983POPC   NC375515   0.402  38.946   5.477
 5983POPC   PO475516   0.587  39.617   5.390
 5983POPC   GL175517   0.542  39.533   5.855
 5983POPC   GL275518   0.477  39.154   5.939
 5983POPC   C1A75519   0.578  39.444   6.336
 5983POPC   D2A75520   0.500  39.034   6.592
 5983POPC   C3A75521   0.499  39.127   7.049
 5983POPC   C4A75522   0.599  39.545   7.200
 5983POPC   C1B75523   0.132  38.945   6.217
 5983POPC   C2B75524  44.883  38.813   6.608
 5983POPC   C3B75525  44.983  38.605   6.994
 5983POPC   C4B75526   0.216  38.732   7.361
 5984POPC   NC375527  38.357   0.131   5.530
 5984POPC   PO475528  38.050   0.641   5.221
 5984POPC   GL175529  38.271   0.580   5.745
 5984POPC   GL275530  38.200   0.270   5.979
 5984POPC   C1A75531  38.406   0.644   6.210
 5984POPC   D2A75532  38.230   0.712   6.609
 5984POPC   C3A75533  38.534   0.690   6.896
 5984POPC   C4A75534  38.590   0.525   7.290
 5984POPC   C1B75535  38.529   0.123   6.241
 5984POPC   C2B75536  38.481   0.249   6.620
 5984POPC   C3B75537  38.679   0.154   6.966
 5984POPC   C4B75538  38.489   0.026   7.320
 5985POPC   NC375539  28.299   2.425   5.571
 5985POPC   PO475540  28.408   3.121   5.482
 5985POPC   GL175541  28.429   2.882   5.868
 5985POPC   GL275542  28.563   2.558   5.991
 5985POPC   C1A75543  28.496   2.976   6.300
 5985POPC   D2A75544  28.351   2.820   6.671
 5985POPC   C3A75545  28.435   2.980   7.051
 5985POPC   C4A75546  28.348   3.172   7.431
 5985POPC   C1B75547  28.154   2.557   6.243
 5985POPC   C2B75548  27.993   2.469   6.676
 5985POPC   C3B75549  28.239   2.474   7.054
 5985POPC   C4B75550  28.691   2.546   7.131
 5986POPC   NC375551  10.992  11.585   5.431
 5986POPC   PO475552  11.537  11.041   5.265
 5986POPC   GL175553  11.251  11.174   5.682
 5986POPC   GL275554  11.278  11.537   5.835
 5986POPC   C1A75555  11.281  11.175   6.181
 5986POPC   D2A75556  11.241  10.841   6.515
 5986POPC   C3A75557  11.190  11.039   6.925
 5986POPC   C4A75558  11.417  11.010   7.326
 5986POPC   C1B75559  11.410  11.723   6.209
 5986POPC   C2B75560  11.411  11.519   6.612
 5986POPC   C3B75561  11.665  11.362   6.953
 5986POPC   C4B75562  11.592  11.581   7.316
 5987POPC   NC375563  32.986   6.452   5.136
 5987POPC   PO475564  32.610   6.926   5.498
 5987POPC   GL175565  32.664   6.806   5.936
 5987POPC   GL275566  32.805   6.476   5.849
 5987POPC   C1A75567  32.904   6.842   6.308
 5987POPC   D2A75568  33.269   6.721   6.563
 5987POPC   C3A75569  33.256   6.927   6.959
 5987POPC   C4A75570  33.478   6.804   7.317
 5987POPC   C1B75571  33.094   6.362   6.180
 5987POPC   C2B75572  32.948   6.325   6.576
 5987POPC   C3B75573  33.096   6.402   6.993
 5987POPC   C4B75574  32.897   6.285   7.384
 5988POPC   NC375575  19.797  44.311   5.397
 5988POPC   PO475576  19.529  44.926   5.503
 5988POPC   GL175577  19.711  44.620   5.789
 5988POPC   GL275578  19.497  44.291   5.787
 5988POPC   C1A75579  19.842  44.725   6.215
 5988POPC   D2A75580  19.787  44.902   6.599
 5988POPC   C3A75581  20.001  44.707   6.937
 5988POPC   C4A75582  20.071  44.465   7.290
 5988POPC   C1B75583  19.682  44.253   6.194
 5988POPC   C2B75584  19.693  44.388   6.647
 5988POPC   C3B75585  19.611  44.390   7.099
 5988POPC   C4B75586  19.614  44.370   7.581
 5989POPC   NC375587  13.058  16.139   5.168
 5989POPC   PO475588  13.618  15.937   5.483
 5989POPC   GL175589  13.607  15.982   5.912
 5989POPC   GL275590  13.645  16.341   5.959
 5989POPC   C1A75591  13.602  15.693   6.268
 5989POPC   D2A75592  13.906  15.575   6.599
 5989POPC   C3A75593  13.921  15.842   6.978
 5989POPC   C4A75594  13.551  15.899   7.235
 5989POPC   C1B75595  13.716  16.191   6.406
 5989POPC   C2B75596  13.493  15.925   6.711
 5989POPC   C3B75597  13.135  16.048   6.939
 5989POPC   C4B75598  13.186  16.247   7.294
 5990POPC   NC375599   7.049   7.648   5.572
 5990POPC   PO475600   7.587   7.304   5.709
 5990POPC   GL175601   7.431   7.618   5.963
 5990POPC   GL275602   7.157   7.371   5.973
 5990POPC   C1A75603   7.533   7.683   6.410
 5990POPC   D2A75604   7.883   7.574   6.701
 5990POPC   C3A75605   7.741   7.529   7.121
 5990POPC   C4A75606   7.637   7.127   7.298
 5990POPC   C1B75607   7.358   7.170   6.323
 5990POPC   C2B75608   7.387   7.149   6.772
 5990POPC   C3B75609   7.211   7.333   7.137
 5990POPC   C4B75610   7.183   7.646   7.454
 5991POPC   NC375611   9.424  34.055   5.238
 5991POPC   PO475612   8.816  33.661   5.371
 5991POPC   GL175613   9.108  33.667   5.693
 5991POPC   GL275614   9.107  34.028   5.687
 5991POPC   C1A75615   9.219  33.795   6.134
 5991POPC   D2A75616   9.394  33.816   6.574
 5991POPC   C3A75617   9.055  33.836   6.864
 5991POPC   C4A75618   8.897  33.794   7.278
 5991POPC   C1B75619   8.782  34.172   6.028
 5991POPC   C2B75620   8.619  34.321   6.453
 5991POPC   C3B75621   8.676  34.188   6.895
 5991POPC   C4B75622   8.556  34.279   7.321
 5992POPC   NC375623   8.303  44.640   5.037
 5992POPC   PO475624   7.938  44.275   5.458
 5992POPC   GL175625   8.064  44.482   5.813
 5992POPC   GL275626   8.328  44.711   5.707
 5992POPC   C1A75627   8.023  44.516   6.258
 5992POPC   D2A75628   8.248  44.437   6.661
 5992POPC   C3A75629   8.088  44.284   7.073
 5992POPC   C4A75630   8.151  44.338   7.554
 5992POPC   C1B75631   8.401  44.872   6.130
 5992POPC   C2B75632   8.351   0.022   6.544
 5992POPC   C3B75633   8.249   0.047   6.960
 5992POPC   C4B75634   8.197  44.750   7.247
 5993POPC   NC375635  19.972  30.663   5.494
 5993POPC   PO475636  19.548  31.038   5.504
 5993POPC   GL175637  19.541  30.747   5.868
 5993POPC   GL275638  19.339  30.960   6.075
 5993POPC   C1A75639  19.749  30.482   6.217
 5993POPC   D2A75640  20.113  30.354   6.497
 5993POPC   C3A75641  20.006  30.382   6.927
 5993POPC   C4A75642  19.628  30.595   7.030
 5993POPC   C1B75643  19.751  31.012   6.263
 5993POPC   C2B75644  19.911  30.830   6.634
 5993POPC   C3B75645  19.990  30.955   7.057
 5993POPC   C4B75646  19.718  30.920   7.387
 5994POPC   NC375647  18.959  37.836   5.543
 5994POPC   PO475648  19.312  37.326   5.495
 5994POPC   GL175649  19.272  37.560   5.817
 5994POPC   GL275650  19.598  37.447   5.928
 5994POPC   C1A75651  18.931  37.640   6.162
 5994POPC   D2A75652  18.753  37.829   6.528
 5994POPC   C3A75653  18.886  37.639   6.905
 5994POPC   C4A75654  18.935  37.753   7.329
 5994POPC   C1B75655  19.292  37.271   6.206
 5994POPC   C2B75656  19.059  37.289   6.537
 5994POPC   C3B75657  19.274  37.252   6.893
 5994POPC   C4B75658  19.281  37.296   7.291
 5995POPC   NC375659   8.418   2.363   5.389
 5995POPC   PO475660   8.074   1.788   5.518
 5995POPC   GL175661   8.175   2.110   5.805
 5995POPC   GL275662   7.848   2.118   5.901
 5995POPC   C1A75663   8.228   2.123   6.278
 5995POPC   D2A75664   8.312   1.848   6.628
 5995POPC   C3A75665   8.196   1.920   7.066
 5995POPC   C4A75666   8.525   2.027   7.314
 5995POPC   C1B75667   7.897   1.720   6.167
 5995POPC   C2B75668   7.869   1.604   6.608
 5995POPC   C3B75669   7.782   2.019   6.789
 5995POPC   C4B75670   7.773   2.306   7.161
 5996POPC   NC375671   8.372  26.269   5.180
 5996POPC   PO475672   7.911  25.726   5.220
 5996POPC   GL175673   8.055  25.998   5.582
 5996POPC   GL275674   8.419  26.068   5.640
 5996POPC   C1A75675   8.008  26.111   6.037
 5996POPC   D2A75676   8.051  26.376   6.420
 5996POPC   C3A75677   7.926  26.204   6.820
 5996POPC   C4A75678   8.105  26.362   7.210
 5996POPC   C1B75679   8.520  26.122   6.081
 5996POPC   C2B75680   8.369  25.975   6.480
 5996POPC   C3B75681   8.408  26.036   6.923
 5996POPC   C4B75682   8.245  25.860   7.315
 5997POPC   NC375683  27.179  12.188   5.368
 5997POPC   PO475684  27.875  12.362   5.352
 5997POPC   GL175685  27.629  12.079   5.650
 5997POPC   GL275686  27.356  12.231   5.827
 5997POPC   C1A75687  27.669  11.984   6.123
 5997POPC   D2A75688  27.891  12.027   6.531
 5997POPC   C3A75689  27.659  11.952   6.898
 5997POPC   C4A75690  27.549  11.954   7.287
 5997POPC   C1B75691  27.350  12.464   6.205
 5997POPC   C2B75692  27.445  12.308   6.610
 5997POPC   C3B75693  27.239  12.274   7.027
 5997POPC   C4B75694  27.306  12.345   7.493
 5998POPC   NC375695  22.413  30.565   5.449
 5998POPC   PO475696  21.787  30.375   5.489
 5998POPC   GL175697  22.096  30.361   5.806
 5998POPC   GL275698  22.200  30.724   5.895
 5998POPC   C1A75699  22.045  30.357   6.240
 5998POPC   D2A75700  22.146  30.667   6.549
 5998POPC   C3A75701  22.001  30.574   6.917
 5998POPC   C4A75702  22.156  30.635   7.323
 5998POPC   C1B75703  22.400  31.009   6.211
 5998POPC   C2B75704  22.312  31.150   6.605
 5998POPC   C3B75705  22.236  31.030   7.008
 5998POPC   C4B75706  22.448  31.076   7.404
 5999POPC   NC375707  27.322  41.866   5.565
 5999POPC   PO475708  27.660  42.512   5.460
 5999POPC   GL175709  27.728  42.436   5.879
 5999POPC   GL275710  27.664  42.102   5.890
 5999POPC   C1A75711  27.616  42.466   6.306
 5999POPC   D2A75712  27.451  42.280   6.653
 5999POPC   C3A75713  27.652  42.310   7.031
 5999POPC   C4A75714  27.524  42.619   7.286
 5999POPC   C1B75715  27.286  42.090   6.169
 5999POPC   C2B75716  27.133  41.897   6.525
 5999POPC   C3B75717  27.303  41.875   6.915
 5999POPC   C4B75718  27.216  42.143   7.248
 6000POPC   NC375719  16.171  43.535   5.622
 6000POPC   PO475720  15.622  43.924   5.455
 6000POPC   GL175721  15.869  43.937   5.849
 6000POPC   GL275722  16.182  43.772   6.061
 6000POPC   C1A75723  15.734  43.855   6.254
 6000POPC   D2A75724  15.889  44.038   6.568
 6000POPC   C3A75725  15.900  43.843   6.907
 6000POPC   C4A75726  15.872  43.888   7.289
 6000POPC   C1B75727  16.345  44.071   6.339
 6000POPC   C2B75728  16.345  44.098   6.795
 6000POPC   C3B75729  16.211  44.300   7.168
 6000POPC   C4B75730  16.114  44.213   7.620
 6001POPC   NC375731  12.248  43.607   5.413
 6001POPC   PO475732  11.966  44.231   5.504
 6001POPC   GL175733  11.911  43.975   5.877
 6001POPC   GL275734  11.996  43.614   5.865
 6001POPC   C1A75735  11.965  44.130   6.288
 6001POPC   D2A75736  12.133  44.167   6.675
 6001POPC   C3A75737  11.896  44.046   7.040
 6001POPC   C4A75738  12.152  44.072   7.367
 6001POPC   C1B75739  12.217  43.681   6.233
 6001POPC   C2B75740  12.410  43.716   6.636
 6001POPC   C3B75741  12.269  43.696   7.040
 6001POPC   C4B75742  11.972  43.592   7.368
 6002POPC   NC375743  34.882  12.544   5.461
 6002POPC   PO475744  34.385  12.907   5.158
 6002POPC   GL175745  34.559  12.960   5.608
 6002POPC   GL275746  34.880  13.067   5.685
 6002POPC   C1A75747  34.455  13.042   6.069
 6002POPC   D2A75748  34.335  12.957   6.506
 6002POPC   C3A75749  34.361  12.704   6.887
 6002POPC   C4A75750  34.410  12.910   7.276
 6002POPC   C1B75751  34.911  12.838   6.073
 6002POPC   C2B75752  34.846  13.059   6.452
 6002POPC   C3B75753  34.797  13.080   6.879
 6002POPC   C4B75754  34.901  12.863   7.221
 6003POPC   NC375755  19.680  12.887   4.959
 6003POPC   PO475756  20.157  12.802   5.442
 6003POPC   GL175757  19.977  12.805   5.830
 6003POPC   GL275758  19.849  12.452   5.820
 6003POPC   C1A75759  20.070  12.951   6.255
 6003POPC   D2A75760  19.790  13.014   6.609
 6003POPC   C3A75761  19.908  12.995   7.016
 6003POPC   C4A75762  19.820  12.610   7.180
 6003POPC   C1B75763  19.665  12.624   6.213
 6003POPC   C2B75764  19.362  12.763   6.538
 6003POPC   C3B75765  19.406  12.851   6.972
 6003POPC   C4B75766  19.396  12.754   7.424
 6004POPC   NC375767  20.871  33.696   5.460
 6004POPC   PO475768  20.514  34.226   5.727
 6004POPC   GL175769  20.424  33.841   5.941
 6004POPC   GL275770  20.665  33.601   5.921
 6004POPC   C1A75771  20.569  33.848   6.359
 6004POPC   D2A75772  20.781  34.137   6.625
 6004POPC   C3A75773  20.748  33.899   6.979
 6004POPC   C4A75774  20.645  34.113   7.299
 6004POPC   C1B75775  20.856  33.425   6.274
 6004POPC   C2B75776  20.706  33.461   6.683
 6004POPC   C3B75777  20.588  33.419   7.087
 6004POPC   C4B75778  20.813  33.509   7.472
 6005POPC   NC375779  39.379   3.810   5.146
 6005POPC   PO475780  38.871   3.505   5.577
 6005POPC   GL175781  39.202   3.297   5.858
 6005POPC   GL275782  38.935   3.301   6.066
 6005POPC   C1A75783  39.431   3.285   6.212
 6005POPC   D2A75784  39.259   3.395   6.587
 6005POPC   C3A75785  39.416   3.317   7.001
 6005POPC   C4A75786  39.106   3.089   7.220
 6005POPC   C1B75787  38.993   3.723   6.228
 6005POPC   C2B75788  39.134   3.891   6.590
 6005POPC   C3B75789  39.082   3.718   6.968
 6005POPC   C4B75790  39.041   3.994   7.266
 6006POPC   NC375791  17.672  29.655   5.476
 6006POPC   PO475792  17.310  30.149   5.170
 6006POPC   GL175793  17.321  30.039   5.657
 6006POPC   GL275794  17.655  30.044   5.839
 6006POPC   C1A75795  17.280  29.877   6.119
 6006POPC   D2A75796  17.615  29.807   6.431
 6006POPC   C3A75797  17.538  29.778   6.854
 6006POPC   C4A75798  17.211  29.756   7.150
 6006POPC   C1B75799  17.741  30.273   6.214
 6006POPC   C2B75800  17.600  30.308   6.636
 6006POPC   C3B75801  17.482  30.261   7.047
 6006POPC   C4B75802  17.825  30.338   7.317
 6007POPC   NC375803  10.817  23.694   5.398
 6007POPC   PO475804  10.298  23.312   5.588
 6007POPC   GL175805  10.500  23.502   5.906
 6007POPC   GL275806  10.584  23.844   5.834
 6007POPC   C1A75807  10.307  23.473   6.312
 6007POPC   D2A75808  10.184  23.308   6.714
 6007POPC   C3A75809  10.421  23.534   7.016
 6007POPC   C4A75810  10.418  23.390   7.429
 6007POPC   C1B75811  10.371  23.963   6.216
 6007POPC   C2B75812  10.466  23.973   6.659
 6007POPC   C3B75813  10.646  23.996   7.051
 6007POPC   C4B75814  10.936  23.754   7.260
 6008POPC   NC375815  21.639  26.082   5.229
 6008POPC   PO475816  22.285  25.857   5.508
 6008POPC   GL175817  22.202  25.864   5.978
 6008POPC   GL275818  22.072  26.220   6.038
 6008POPC   C1A75819  22.000  25.863   6.406
 6008POPC   D2A75820  22.199  26.016   6.804
 6008POPC   C3A75821  22.099  25.832   7.213
 6008POPC   C4A75822  22.209  25.846   7.632
 6008POPC   C1B75823  22.057  26.383   6.465
 6008POPC   C2B75824  21.972  26.602   6.827
 6008POPC   C3B75825  22.008  26.335   7.162
 6008POPC   C4B75826  21.982  26.310   7.589
 6009POPC   NC375827  30.925  34.703   5.362
 6009POPC   PO475828  30.295  34.480   5.269
 6009POPC   GL175829  30.436  34.647   5.702
 6009POPC   GL275830  30.797  34.665   5.842
 6009POPC   C1A75831  30.456  34.481   6.148
 6009POPC   D2A75832  30.745  34.440   6.475
 6009POPC   C3A75833  30.628  34.712   6.796
 6009POPC   C4A75834  30.348  34.764   7.126
 6009POPC   C1B75835  31.090  34.408   6.074
 6009POPC   C2B75836  31.250  34.379   6.506
 6009POPC   C3B75837  31.032  34.377   6.926
 6009POPC   C4B75838  30.841  34.662   7.252
 6010POPC   NC375839  30.174  44.270   5.558
 6010POPC   PO475840  29.815  44.846   5.437
 6010POPC   GL175841  29.977  44.726   5.810
 6010POPC   GL275842  30.337  44.804   5.698
 6010POPC   C1A75843  29.774  44.728   6.231
 6010POPC   D2A75844  29.755  44.532   6.642
 6010POPC   C3A75845  29.752  44.705   7.050
 6010POPC   C4A75846  29.672  44.331   7.224
 6010POPC   C1B75847  30.413  44.616   6.114
 6010POPC   C2B75848  30.276  44.618   6.535
 6010POPC   C3B75849  30.210  44.471   6.936
 6010POPC   C4B75850  30.249  44.659   7.348
 6011POPC   NC375851  41.388   2.197   5.466
 6011POPC   PO475852  41.578   1.591   5.554
 6011POPC   GL175853  41.601   1.908   5.861
 6011POPC   GL275854  41.253   2.000   5.911
 6011POPC   C1A75855  41.822   2.017   6.236
 6011POPC   D2A75856  41.731   2.124   6.658
 6011POPC   C3A75857  42.004   2.141   6.973
 6011POPC   C4A75858  41.926   1.932   7.353
 6011POPC   C1B75859  41.316   1.862   6.334
 6011POPC   C2B75860  41.240   2.066   6.726
 6011POPC   C3B75861  41.255   2.079   7.211
 6011POPC   C4B75862  41.063   2.180   7.638
 6012POPC   NC375863  15.606  18.848   5.657
 6012POPC   PO475864  14.960  18.931   5.427
 6012POPC   GL175865  14.902  19.175   5.770
 6012POPC   GL275866  15.227  19.092   5.887
 6012POPC   C1A75867  14.858  19.198   6.215
 6012POPC   D2A75868  15.019  19.046   6.563
 6012POPC   C3A75869  14.934  19.285   6.886
 6012POPC   C4A75870  14.935  19.178   7.279
 6012POPC   C1B75871  15.461  19.100   6.273
 6012POPC   C2B75872  15.418  19.314   6.649
 6012POPC   C3B75873  15.412  19.214   7.054
 6012POPC   C4B75874  15.632  19.154   7.373
 6013POPC   NC375875  18.514  44.118   5.644
 6013POPC   PO475876  17.924  43.828   5.508
 6013POPC   GL175877  18.107  43.896   5.896
 6013POPC   GL275878  18.420  43.709   5.904
 6013POPC   C1A75879  18.119  43.816   6.338
 6013POPC   D2A75880  17.903  43.720   6.702
 6013POPC   C3A75881  18.045  43.920   7.087
 6013POPC   C4A75882  18.180  43.941   7.519
 6013POPC   C1B75883  18.626  43.800   6.291
 6013POPC   C2B75884  18.500  43.908   6.726
 6013POPC   C3B75885  18.708  44.048   7.102
 6013POPC   C4B75886  18.702  43.922   7.549
 6014POPC   NC375887  12.023  11.001   5.193
 6014POPC   PO475888  11.721  11.390   5.658
 6014POPC   GL175889  11.881  11.511   5.994
 6014POPC   GL275890  12.131  11.696   5.812
 6014POPC   C1A75891  12.023  11.440   6.427
 6014POPC   D2A75892  12.357  11.297   6.703
 6014POPC   C3A75893  12.181  11.132   7.069
 6014POPC   C4A75894  11.908  11.212   7.433
 6014POPC   C1B75895  12.399  11.710   6.160
 6014POPC   C2B75896  12.361  11.832   6.576
 6014POPC   C3B75897  12.454  11.720   6.973
 6014POPC   C4B75898  12.216  11.589   7.317
 6015POPC   NC375899  32.407   6.056   5.469
 6015POPC   PO475900  32.242   5.353   5.337
 6015POPC   GL175901  32.156   5.682   5.719
 6015POPC   GL275902  31.791   5.817   5.797
 6015POPC   C1A75903  32.212   5.914   6.129
 6015POPC   D2A75904  32.351   6.126   6.526
 6015POPC   C3A75905  32.352   5.882   6.884
 6015POPC   C4A75906  32.460   6.062   7.250
 6015POPC   C1B75907  31.726   5.944   6.249
 6015POPC   C2B75908  31.875   6.066   6.679
 6015POPC   C3B75909  31.958   6.095   7.115
 6015POPC   C4B75910  32.042   6.099   7.575
 6016POPC   NC375911  13.740  38.930   5.404
 6016POPC   PO475912  13.748  38.283   5.511
 6016POPC   GL175913  13.648  38.596   5.844
 6016POPC   GL275914  13.848  38.879   5.938
 6016POPC   C1A75915  13.416  38.515   6.236
 6016POPC   D2A75916  13.173  38.708   6.575
 6016POPC   C3A75917  13.247  38.506   6.991
 6016POPC   C4A75918  13.061  38.644   7.352
 6016POPC   C1B75919  13.806  38.837   6.373
 6016POPC   C2B75920  13.671  38.622   6.716
 6016POPC   C3B75921  13.767  38.449   7.116
 6016POPC   C4B75922  13.598  38.345   7.496
 6017POPC   NC375923  37.804  23.617   5.421
 6017POPC   PO475924  37.314  24.020   5.247
 6017POPC   GL175925  37.426  23.933   5.724
 6017POPC   GL275926  37.466  23.577   5.829
 6017POPC   C1A75927  37.439  23.952   6.216
 6017POPC   D2A75928  37.773  24.016   6.520
 6017POPC   C3A75929  37.600  24.039   6.922
 6017POPC   C4A75930  37.716  23.940   7.346
 6017POPC   C1B75931  37.745  23.561   6.198
 6017POPC   C2B75932  37.630  23.548   6.641
 6017POPC   C3B75933  37.817  23.565   7.033
 6017POPC   C4B75934  37.814  23.370   7.445
 6018POPC   NC375935  21.149  23.835   5.369
 6018POPC   PO475936  21.451  23.310   5.413
 6018POPC   GL175937  21.225  23.531   5.777
 6018POPC   GL275938  21.345  23.916   5.824
 6018POPC   C1A75939  21.308  23.586   6.223
 6018POPC   D2A75940  21.525  23.548   6.630
 6018POPC   C3A75941  21.259  23.432   6.997
 6018POPC   C4A75942  21.098  23.688   7.342
 6018POPC   C1B75943  21.509  24.078   6.217
 6018POPC   C2B75944  21.329  24.064   6.617
 6018POPC   C3B75945  21.440  23.912   7.026
 6018POPC   C4B75946  21.543  23.983   7.461
 6019POPC   NC375947   4.794  30.346   5.453
 6019POPC   PO475948   4.873  30.998   5.429
 6019POPC   GL175949   4.924  30.803   5.829
 6019POPC   GL275950   4.745  30.494   5.925
 6019POPC   C1A75951   5.185  30.728   6.193
 6019POPC   D2A75952   5.364  30.464   6.521
 6019POPC   C3A75953   5.199  30.555   6.911
 6019POPC   C4A75954   5.063  30.654   7.345
 6019POPC   C1B75955   4.654  30.683   6.277
 6019POPC   C2B75956   4.765  30.738   6.691
 6019POPC   C3B75957   4.607  30.686   7.080
 6019POPC   C4B75958   4.568  30.501   7.486
 6020POPC   NC375959   6.005  37.818   5.163
 6020POPC   PO475960   6.280  37.481   5.612
 6020POPC   GL175961   5.999  37.665   5.845
 6020POPC   GL275962   6.045  37.963   5.673
 6020POPC   C1A75963   5.751  37.610   6.225
 6020POPC   D2A75964   5.864  37.660   6.650
 6020POPC   C3A75965   5.701  37.445   6.993
 6020POPC   C4A75966   5.737  37.276   7.429
 6020POPC   C1B75967   5.891  38.102   6.089
 6020POPC   C2B75968   5.760  38.160   6.526
 6020POPC   C3B75969   5.949  38.079   6.949
 6020POPC   C4B75970   5.948  37.785   7.297
 6021POPC   NC375971  25.883   0.934   5.590
 6021POPC   PO475972  25.989   0.419   5.156
 6021POPC   GL175973  26.118   0.373   5.625
 6021POPC   GL275974  26.248   0.646   5.790
 6021POPC   C1A75975  26.176   0.262   6.106
 6021POPC   D2A75976  25.965   0.346   6.535
 6021POPC   C3A75977  26.154   0.302   6.935
 6021POPC   C4A75978  25.919   0.144   7.259
 6021POPC   C1B75979  25.930   0.707   6.173
 6021POPC   C2B75980  25.653   0.770   6.510
 6021POPC   C3B75981  25.618   0.613   6.920
 6021POPC   C4B75982  25.907   0.653   7.230
 6022POPC   NC375983   4.684  31.406   5.539
 6022POPC   PO475984   4.062  31.522   5.302
 6022POPC   GL175985   4.023  31.571   5.792
 6022POPC   GL275986   4.340  31.539   5.868
 6022POPC   C1A75987   4.080  31.409   6.267
 6022POPC   D2A75988   4.277  31.568   6.661
 6022POPC   C3A75989   4.085  31.361   7.024
 6022POPC   C4A75990   4.067  31.439   7.467
 6022POPC   C1B75991   4.600  31.614   6.214
 6022POPC   C2B75992   4.806  31.542   6.583
 6022POPC   C3B75993   4.708  31.741   6.960
 6022POPC   C4B75994   4.491  31.585   7.257
 6023POPC   NC375995  21.820  27.667   5.081
 6023POPC   PO475996  21.348  27.392   5.450
 6023POPC   GL175997  21.272  27.386   5.871
 6023POPC   GL275998  21.276  27.715   5.873
 6023POPC   C1A75999  21.081  27.330   6.285
 6023POPC   D2A76000  21.273  27.201   6.650
 6023POPC   C3A76001  21.472  27.482   6.929
 6023POPC   C4A76002  21.311  27.446   7.357
 6023POPC   C1B76003  21.473  27.681   6.257
 6023POPC   C2B76004  21.785  27.658   6.543
 6023POPC   C3B76005  21.774  27.887   6.914
 6023POPC   C4B76006  21.667  27.812   7.314
 6024POPC   NC376007  35.254  19.564   5.221
 6024POPC   PO476008  34.944  20.046   5.592
 6024POPC   GL176009  35.336  19.885   5.779
 6024POPC   GL276010  35.174  19.608   5.935
 6024POPC   C1A76011  35.537  19.799   6.215
 6024POPC   D2A76012  35.251  19.591   6.544
 6024POPC   C3A76013  35.344  19.698   6.985
 6024POPC   C4A76014  35.785  19.531   7.049
 6024POPC   C1B76015  35.014  19.934   6.223
 6024POPC   C2B76016  34.872  19.927   6.628
 6024POPC   C3B76017  34.982  20.108   6.995
 6024POPC   C4B76018  35.064  19.988   7.408
 6025POPC   NC376019   8.848  15.467   5.576
 6025POPC   PO476020   9.121  16.178   5.489
 6025POPC   GL176021   9.013  16.192   5.879
 6025POPC   GL276022   9.066  15.834   5.932
 6025POPC   C1A76023   8.844  16.169   6.252
 6025POPC   D2A76024   8.992  15.990   6.614
 6025POPC   C3A76025   8.811  15.919   7.005
 6025POPC   C4A76026   8.791  15.851   7.444
 6025POPC   C1B76027   8.826  15.634   6.281
 6025POPC   C2B76028   8.923  15.474   6.693
 6025POPC   C3B76029   8.949  15.437   7.153
 6025POPC   C4B76030   9.083  15.378   7.590
 6026POPC   NC376031   2.207   0.645   5.486
 6026POPC   PO476032   1.727   0.270   5.089
 6026POPC   GL176033   1.880   0.285   5.568
 6026POPC   GL276034   1.716   0.619   5.640
 6026POPC   C1A76035   2.024   0.261   6.056
 6026POPC   D2A76036   2.186   0.453   6.475
 6026POPC   C3A76037   2.041   0.343   6.874
 6026POPC   C4A76038   2.268   0.344   7.230
 6026POPC   C1B76039   1.577   0.521   6.041
 6026POPC   C2B76040   1.659   0.495   6.474
 6026POPC   C3B76041   1.599   0.590   6.908
 6026POPC   C4B76042   1.795   0.549   7.305
 6027POPC   NC376043  33.753  22.611   5.423
 6027POPC   PO476044  34.222  23.090   5.507
 6027POPC   GL176045  33.915  22.935   5.793
 6027POPC   GL276046  33.719  23.235   5.743
 6027POPC   C1A76047  33.759  22.793   6.214
 6027POPC   D2A76048  33.594  22.598   6.596
 6027POPC   C3A76049  33.749  22.798   6.961
 6027POPC   C4A76050  33.567  23.173   7.106
 6027POPC   C1B76051  33.928  23.284   6.159
 6027POPC   C2B76052  33.793  23.196   6.604
 6027POPC   C3B76053  34.063  23.218   6.931
 6027POPC   C4B76054  34.004  23.271   7.343
 6028POPC   NC376055  44.240  16.940   5.454
 6028POPC   PO476056  44.913  16.732   5.374
 6028POPC   GL176057  44.843  16.839   5.791
 6028POPC   GL276058  44.629  17.091   5.780
 6028POPC   C1A76059  44.772  16.787   6.229
 6028POPC   D2A76060  44.793  16.622   6.618
 6028POPC   C3A76061  44.793  16.872   6.937
 6028POPC   C4A76062  44.792  16.729   7.309
 6028POPC   C1B76063  44.320  17.008   6.123
 6028POPC   C2B76064  44.306  16.810   6.531
 6028POPC   C3B76065  44.277  16.925   6.947
 6028POPC   C4B76066  44.289  16.729   7.318
 6029POPC   NC376067  26.938  43.512   5.470
 6029POPC   PO476068  26.549  42.987   5.484
 6029POPC   GL176069  26.899  43.038   5.777
 6029POPC   GL276070  26.652  43.217   5.951
 6029POPC   C1A76071  27.044  43.109   6.245
 6029POPC   D2A76072  26.771  43.254   6.629
 6029POPC   C3A76073  26.857  43.107   7.067
 6029POPC   C4A76074  27.186  43.192   7.424
 6029POPC   C1B76075  26.648  42.777   6.161
 6029POPC   C2B76076  26.667  42.772   6.599
 6029POPC   C3B76077  26.390  42.973   6.907
 6029POPC   C4B76078  26.484  42.785   7.296
 6030POPC   NC376079   6.061  26.598   5.521
 6030POPC   PO476080   5.740  27.237   5.534
 6030POPC   GL176081   5.697  26.865   5.826
 6030POPC   GL276082   6.026  26.876   5.931
 6030POPC   C1A76083   5.740  26.593   6.209
 6030POPC   D2A76084   6.037  26.736   6.562
 6030POPC   C3A76085   5.927  26.564   6.983
 6030POPC   C4A76086   5.485  26.567   7.139
 6030POPC   C1B76087   5.808  27.110   6.260
 6030POPC   C2B76088   6.082  27.311   6.509
 6030POPC   C3B76089   6.012  27.270   6.927
 6030POPC   C4B76090   5.875  27.091   7.309
 6031POPC   NC376091   8.796  24.866   5.362
 6031POPC   PO476092   9.388  25.255   5.325
 6031POPC   GL176093   9.168  25.260   5.783
 6031POPC   GL276094   9.002  24.945   5.817
 6031POPC   C1A76095   9.061  25.266   6.241
 6031POPC   D2A76096   9.232  25.350   6.652
 6031POPC   C3A76097   8.988  25.266   7.056
 6031POPC   C4A76098   8.907  25.477   7.507
 6031POPC   C1B76099   8.781  24.853   6.197
 6031POPC   C2B76100   8.823  25.007   6.616
 6031POPC   C3B76101   8.550  25.000   6.960
 6031POPC   C4B76102   8.657  25.022   7.372
 6032POPC   NC376103   2.259   6.168   5.500
 6032POPC   PO476104   2.429   6.797   5.601
 6032POPC   GL176105   2.115   6.781   5.891
 6032POPC   GL276106   1.958   6.442   5.844
 6032POPC   C1A76107   1.920   6.756   6.295
 6032POPC   D2A76108   1.820   6.499   6.614
 6032POPC   C3A76109   1.909   6.673   6.967
 6032POPC   C4A76110   1.702   6.798   7.343
 6032POPC   C1B76111   2.249   6.355   6.205
 6032POPC   C2B76112   2.330   6.478   6.627
 6032POPC   C3B76113   2.335   6.407   7.060
 6032POPC   C4B76114   2.184   6.671   7.384
 6033POPC   NC376115  15.214  33.932   5.421
 6033POPC   PO476116  14.706  33.574   5.420
 6033POPC   GL176117  14.971  33.591   5.774
 6033POPC   GL276118  15.237  33.790   5.903
 6033POPC   C1A76119  14.862  33.557   6.189
 6033POPC   D2A76120  14.738  33.486   6.615
 6033POPC   C3A76121  14.833  33.796   6.873
 6033POPC   C4A76122  15.145  33.822   7.177
 6033POPC   C1B76123  15.377  33.509   6.239
 6033POPC   C2B76124  15.292  33.685   6.662
 6033POPC   C3B76125  15.583  33.930   6.939
 6033POPC   C4B76126  15.653  33.732   7.317
 6034POPC   NC376127   2.185  31.985   5.412
 6034POPC   PO476128   1.694  32.170   5.064
 6034POPC   GL176129   1.756  32.188   5.603
 6034POPC   GL276130   2.084  32.342   5.779
 6034POPC   C1A76131   1.719  32.217   6.098
 6034POPC   D2A76132   1.847  32.431   6.489
 6034POPC   C3A76133   1.794  32.225   6.893
 6034POPC   C4A76134   1.932  32.370   7.303
 6034POPC   C1B76135   2.237  32.221   6.245
 6034POPC   C2B76136   2.281  32.294   6.743
 6034POPC   C3B76137   2.357  32.125   7.198
 6034POPC   C4B76138   2.281  31.815   7.586
 6035POPC   NC376139  43.625  42.114   5.385
 6035POPC   PO476140  44.274  42.349   5.405
 6035POPC   GL176141  44.061  42.305   5.811
 6035POPC   GL276142  43.720  42.403   5.818
 6035POPC   C1A76143  43.945  42.374   6.274
 6035POPC   D2A76144  44.113  42.586   6.650
 6035POPC   C3A76145  44.044  42.404   7.076
 6035POPC   C4A76146  43.996  42.208   7.524
 6035POPC   C1B76147  43.490  42.624   6.150
 6035POPC   C2B76148  43.617  42.694   6.562
 6035POPC   C3B76149  43.638  42.738   6.993
 6035POPC   C4B76150  43.774  42.670   7.414
 6036POPC   NC376151  19.106  40.497   5.342
 6036POPC   PO476152  19.364  39.843   5.251
 6036POPC   GL176153  19.273  39.884   5.691
 6036POPC   GL276154  18.999  40.101   5.731
 6036POPC   C1A76155  19.371  40.042   6.109
 6036POPC   D2A76156  19.188  40.134   6.514
 6036POPC   C3A76157  18.994  39.831   6.768
 6036POPC   C4A76158  19.184  39.920   7.150
 6036POPC   C1B76159  18.822  40.127   6.166
 6036POPC   C2B76160  18.663  40.227   6.594
 6036POPC   C3B76161  18.843  40.314   6.982
 6036POPC   C4B76162  18.923  40.261   7.431
 6037POPC   NC376163  17.651  25.416   5.454
 6037POPC   PO476164  17.272  24.999   5.873
 6037POPC   GL176165  17.680  25.224   5.951
 6037POPC   GL276166  17.670  25.583   5.924
 6037POPC   C1A76167  17.699  25.345   6.376
 6037POPC   D2A76168  17.319  25.332   6.584
 6037POPC   C3A76169  17.325  24.968   6.804
 6037POPC   C4A76170  17.440  25.078   7.188
 6037POPC   C1B76171  17.381  25.755   6.259
 6037POPC   C2B76172  17.262  25.824   6.711
 6037POPC   C3B76173  17.364  25.582   7.068
 6037POPC   C4B76174  17.153  25.467   7.430
 6038POPC   NC376175  38.257  34.034   5.351
 6038POPC   PO476176  38.827  33.743   5.464
 6038POPC   GL176177  38.569  33.567   5.791
 6038POPC   GL276178  38.220  33.629   5.688
 6038POPC   C1A76179  38.625  33.518   6.229
 6038POPC   D2A76180  38.636  33.690   6.627
 6038POPC   C3A76181  38.728  33.578   7.034
 6038POPC   C4A76182  38.705  33.997   7.124
 6038POPC   C1B76183  38.173  33.748   6.129
 6038POPC   C2B76184  38.158  33.589   6.581
 6038POPC   C3B76185  38.230  33.680   7.041
 6038POPC   C4B76186  38.151  33.514   7.492
 6039POPC   NC376187  21.846  19.027   5.440
 6039POPC   PO476188  21.241  18.817   5.694
 6039POPC   GL176189  21.397  19.039   6.009
 6039POPC   GL276190  21.656  19.172   5.876
 6039POPC   C1A76191  21.347  19.129   6.425
 6039POPC   D2A76192  21.079  19.389   6.696
 6039POPC   C3A76193  21.031  19.139   7.068
 6039POPC   C4A76194  21.170  18.742   7.249
 6039POPC   C1B76195  21.806  19.324   6.254
 6039POPC   C2B76196  21.837  19.117   6.641
 6039POPC   C3B76197  21.525  19.217   6.898
 6039POPC   C4B76198  21.416  19.451   7.222
 6040POPC   NC376199  23.562  41.689   5.423
 6040POPC   PO476200  23.895  41.075   5.458
 6040POPC   GL176201  23.791  41.427   5.786
 6040POPC   GL276202  23.998  41.738   5.717
 6040POPC   C1A76203  23.489  41.658   6.106
 6040POPC   D2A76204  23.620  41.678   6.544
 6040POPC   C3A76205  23.483  41.610   6.973
 6040POPC   C4A76206  23.460  41.739   7.382
 6040POPC   C1B76207  23.996  41.729   6.175
 6040POPC   C2B76208  24.068  41.442   6.522
 6040POPC   C3B76209  24.014  41.571   6.940
 6040POPC   C4B76210  23.940  41.607   7.376
 6041POPC   NC376211  17.019  13.158   5.345
 6041POPC   PO476212  16.776  13.758   5.516
 6041POPC   GL176213  16.918  13.448   5.805
 6041POPC   GL276214  17.002  13.745   5.999
 6041POPC   C1A76215  16.835  13.336   6.252
 6041POPC   D2A76216  16.724  13.534   6.657
 6041POPC   C3A76217  16.849  13.277   7.014
 6041POPC   C4A76218  16.808  13.374   7.454
 6041POPC   C1B76219  16.612  13.834   6.228
 6041POPC   C2B76220  16.626  14.042   6.628
 6041POPC   C3B76221  16.610  13.880   7.052
 6041POPC   C4B76222  16.562  14.166   7.355
 6042POPC   NC376223  40.908  15.951   5.341
 6042POPC   PO476224  40.297  15.756   5.391
 6042POPC   GL176225  40.623  15.789   5.750
 6042POPC   GL276226  40.853  16.069   5.829
 6042POPC   C1A76227  40.898  15.670   6.117
 6042POPC   D2A76228  40.783  15.556   6.531
 6042POPC   C3A76229  40.823  15.872   6.846
 6042POPC   C4A76230  40.989  15.889   7.264
 6042POPC   C1B76231  40.761  16.150   6.273
 6042POPC   C2B76232  40.863  16.402   6.607
 6042POPC   C3B76233  40.955  16.380   7.020
 6042POPC   C4B76234  40.827  16.369   7.430
 6043POPC   NC376235   0.673  17.345   5.165
 6043POPC   PO476236   0.647  16.824   5.649
 6043POPC   GL176237   0.576  16.956   6.067
 6043POPC   GL276238   0.277  16.786   6.105
 6043POPC   C1A76239   0.589  16.756   6.503
 6043POPC   D2A76240   0.274  16.623   6.814
 6043POPC   C3A76241   0.289  16.747   7.210
 6043POPC   C4A76242   0.487  17.105   7.382
 6043POPC   C1B76243   0.188  16.419   6.353
 6043POPC   C2B76244   0.090  16.162   6.746
 6043POPC   C3B76245   0.016  16.279   7.172
 6043POPC   C4B76246   0.042  16.369   7.609
 6044POPC   NC376247  28.417  43.634   5.075
 6044POPC   PO476248  28.461  44.089   5.607
 6044POPC   GL176249  28.391  43.840   5.912
 6044POPC   GL276250  28.027  43.849   5.839
 6044POPC   C1A76251  28.487  43.874   6.348
 6044POPC   D2A76252  28.607  43.779   6.761
 6044POPC   C3A76253  28.306  43.881   7.074
 6044POPC   C4A76254  28.103  44.211   7.276
 6044POPC   C1B76255  28.079  43.559   6.193
 6044POPC   C2B76256  28.213  43.452   6.585
 6044POPC   C3B76257  28.028  43.467   6.968
 6044POPC   C4B76258  28.156  43.457   7.372
 6045POPC   NC376259  39.607   8.893   5.284
 6045POPC   PO476260  40.215   8.605   5.426
 6045POPC   GL176261  39.884   8.688   5.707
 6045POPC   GL276262  39.908   9.025   5.750
 6045POPC   C1A76263  40.051   8.709   6.137
 6045POPC   D2A76264  40.188   8.768   6.551
 6045POPC   C3A76265  39.926   8.968   6.854
 6045POPC   C4A76266  39.778   8.797   7.238
 6045POPC   C1B76267  39.936   9.193   6.185
 6045POPC   C2B76268  40.199   9.301   6.532
 6045POPC   C3B76269  40.163   9.434   6.980
 6045POPC   C4B76270  39.860   9.322   7.265
 6046POPC   NC376271  25.720  38.845   5.445
 6046POPC   PO476272  26.235  38.304   5.404
 6046POPC   GL176273  26.083  38.573   5.750
 6046POPC   GL276274  25.739  38.480   5.791
 6046POPC   C1A76275  26.274  38.620   6.185
 6046POPC   D2A76276  26.157  38.354   6.552
 6046POPC   C3A76277  26.307  38.542   6.918
 6046POPC   C4A76278  26.182  38.475   7.313
 6046POPC   C1B76279  25.788  38.709   6.176
 6046POPC   C2B76280  25.960  38.829   6.594
 6046POPC   C3B76281  25.834  38.746   7.023
 6046POPC   C4B76282  25.678  38.779   7.455
 6047POPC   NC376283   7.154  32.006   5.280
 6047POPC   PO476284   7.378  32.572   5.436
 6047POPC   GL176285   7.485  32.350   5.815
 6047POPC   GL276286   7.315  32.024   5.782
 6047POPC   C1A76287   7.412  32.258   6.266
 6047POPC   D2A76288   7.487  32.057   6.657
 6047POPC   C3A76289   7.483  32.292   7.039
 6047POPC   C4A76290   7.874  32.234   7.272
 6047POPC   C1B76291   7.115  31.855   6.153
 6047POPC   C2B76292   6.980  31.993   6.560
 6047POPC   C3B76293   7.110  31.931   6.986
 6047POPC   C4B76294   6.986  32.153   7.350
 6048POPC   NC376295  37.194   2.455   5.311
 6048POPC   PO476296  36.510   2.547   5.245
 6048POPC   GL176297  36.691   2.774   5.679
 6048POPC   GL276298  37.039   2.842   5.655
 6048POPC   C1A76299  36.745   3.064   6.113
 6048POPC   D2A76300  37.021   3.012   6.517
 6048POPC   C3A76301  36.850   2.993   6.924
 6048POPC   C4A76302  36.609   2.721   7.193
 6048POPC   C1B76303  37.155   2.794   6.079
 6048POPC   C2B76304  36.985   2.487   6.389
 6048POPC   C3B76305  36.940   2.472   6.854
 6048POPC   C4B76306  37.113   2.679   7.240
 6049POPC   NC376307  35.284  40.561   5.280
 6049POPC   PO476308  35.805  40.814   5.155
 6049POPC   GL176309  35.538  40.822   5.644
 6049POPC   GL276310  35.205  40.988   5.717
 6049POPC   C1A76311  35.329  40.707   6.120
 6049POPC   D2A76312  35.356  40.435   6.501
 6049POPC   C3A76313  35.359  40.647   6.909
 6049POPC   C4A76314  35.383  40.490   7.322
 6049POPC   C1B76315  35.428  41.209   6.098
 6049POPC   C2B76316  35.485  41.035   6.527
 6049POPC   C3B76317  35.329  41.156   6.938
 6049POPC   C4B76318  35.140  41.051   7.311
 6050POPC   NC376319  23.842  34.892   5.235
 6050POPC   PO476320  23.703  34.222   5.343
 6050POPC   GL176321  23.717  34.403   5.748
 6050POPC   GL276322  23.849  34.740   5.759
 6050POPC   C1A76323  23.756  34.445   6.195
 6050POPC   D2A76324  23.624  34.579   6.601
 6050POPC   C3A76325  23.757  34.451   7.010
 6050POPC   C4A76326  23.928  34.091   7.197
 6050POPC   C1B76327  23.982  34.930   6.164
 6050POPC   C2B76328  24.027  34.962   6.620
 6050POPC   C3B76329  23.880  35.009   7.046
 6050POPC   C4B76330  23.817  34.750   7.423
 6051POPC   NC376331   5.729   7.784   5.562
 6051POPC   PO476332   5.894   7.131   5.335
 6051POPC   GL176333   5.920   7.194   5.771
 6051POPC   GL276334   5.571   7.290   5.808
 6051POPC   C1A76335   6.225   7.269   6.134
 6051POPC   D2A76336   6.137   7.484   6.539
 6051POPC   C3A76337   6.201   7.248   6.919
 6051POPC   C4A76338   5.951   7.305   7.273
 6051POPC   C1B76339   5.733   7.432   6.214
 6051POPC   C2B76340   5.624   7.379   6.659
 6051POPC   C3B76341   5.556   7.610   7.044
 6051POPC   C4B76342   5.744   7.768   7.410
 6052POPC   NC376343   8.712  10.366   5.390
 6052POPC   PO476344   8.285  10.818   5.585
 6052POPC   GL176345   8.280  10.522   5.872
 6052POPC   GL276346   7.967  10.398   5.759
 6052POPC   C1A76347   8.389  10.488   6.302
 6052POPC   D2A76348   8.372  10.455   6.728
 6052POPC   C3A76349   8.168  10.794   6.893
 6052POPC   C4A76350   8.161  10.803   7.309
 6052POPC   C1B76351   7.899  10.294   6.181
 6052POPC   C2B76352   7.860  10.446   6.620
 6052POPC   C3B76353   7.979  10.319   7.048
 6052POPC   C4B76354   7.799  10.186   7.441
 6053POPC   NC376355  28.971  36.190   5.269
 6053POPC   PO476356  29.409  35.788   5.508
 6053POPC   GL176357  29.144  36.095   5.749
 6053POPC   GL276358  28.901  35.871   5.834
 6053POPC   C1A76359  29.165  36.310   6.158
 6053POPC   D2A76360  29.085  36.132   6.569
 6053POPC   C3A76361  29.228  36.317   6.934
 6053POPC   C4A76362  29.187  36.202   7.347
 6053POPC   C1B76363  29.171  35.782   6.192
 6053POPC   C2B76364  29.272  35.642   6.617
 6053POPC   C3B76365  29.156  35.803   7.012
 6053POPC   C4B76366  28.761  35.848   7.173
 6054POPC   NC376367  38.406  37.002   5.113
 6054POPC   PO476368  38.342  37.709   5.367
 6054POPC   GL176369  38.437  37.759   5.813
 6054POPC   GL276370  38.632  38.070   5.831
 6054POPC   C1A76371  38.497  37.468   6.212
 6054POPC   D2A76372  38.791  37.437   6.601
 6054POPC   C3A76373  38.566  37.440   7.025
 6054POPC   C4A76374  38.192  37.407   7.324
 6054POPC   C1B76375  38.647  37.943   6.266
 6054POPC   C2B76376  38.497  37.851   6.675
 6054POPC   C3B76377  38.649  37.970   7.077
 6054POPC   C4B76378  38.398  37.876   7.409
 6055POPC   NC376379  20.198  36.432   5.549
 6055POPC   PO476380  19.719  36.860   5.280
 6055POPC   GL176381  19.761  37.038   5.681
 6055POPC   GL276382  20.064  37.232   5.676
 6055POPC   C1A76383  19.676  36.950   6.101
 6055POPC   D2A76384  19.494  36.925   6.524
 6055POPC   C3A76385  19.626  36.738   6.913
 6055POPC   C4A76386  19.692  36.950   7.320
 6055POPC   C1B76387  20.058  37.283   6.108
 6055POPC   C2B76388  19.994  37.043   6.486
 6055POPC   C3B76389  19.939  37.147   6.903
 6055POPC   C4B76390  20.177  37.154   7.283
 6056POPC   NC376391   9.833  25.370   5.363
 6056POPC   PO476392  10.166  24.868   5.515
 6056POPC   GL176393   9.804  25.055   5.791
 6056POPC   GL276394   9.518  24.895   5.745
 6056POPC   C1A76395   9.580  25.228   6.194
 6056POPC   D2A76396   9.681  25.545   6.534
 6056POPC   C3A76397   9.688  25.488   7.003
 6056POPC   C4A76398   9.835  25.123   7.312
 6056POPC   C1B76399   9.343  24.770   6.158
 6056POPC   C2B76400   9.349  24.873   6.590
 6056POPC   C3B76401   9.433  25.046   7.010
 6056POPC   C4B76402   9.372  25.334   7.371
 6057POPC   NC376403  14.962   6.015   5.454
 6057POPC   PO476404  15.631   6.114   5.503
 6057POPC   GL176405  15.320   5.974   5.834
 6057POPC   GL276406  14.986   6.155   5.922
 6057POPC   C1A76407  15.226   5.715   6.201
 6057POPC   D2A76408  15.407   5.818   6.594
 6057POPC   C3A76409  15.380   5.590   7.000
 6057POPC   C4A76410  15.365   5.817   7.389
 6057POPC   C1B76411  15.159   6.238   6.275
 6057POPC   C2B76412  15.008   6.159   6.656
 6057POPC   C3B76413  15.203   6.125   7.020
 6057POPC   C4B76414  14.991   6.181   7.400
 6058POPC   NC376415  24.806  39.713   5.332
 6058POPC   PO476416  25.275  40.088   5.382
 6058POPC   GL176417  25.333  40.197   5.809
 6058POPC   GL276418  25.708  40.093   5.826
 6058POPC   C1A76419  25.069  40.312   6.206
 6058POPC   D2A76420  24.887  40.024   6.555
 6058POPC   C3A76421  24.902  40.035   7.032
 6058POPC   C4A76422  25.045  39.775   7.406
 6058POPC   C1B76423  25.594  40.291   6.229
 6058POPC   C2B76424  25.368  40.203   6.607
 6058POPC   C3B76425  25.408  40.023   6.984
 6058POPC   C4B76426  25.684  40.279   7.128
 6059POPC   NC376427   5.544  15.189   5.025
 6059POPC   PO476428   5.016  14.919   5.408
 6059POPC   GL176429   5.008  15.077   5.816
 6059POPC   GL276430   4.691  14.990   5.843
 6059POPC   C1A76431   5.204  15.252   6.158
 6059POPC   D2A76432   5.184  15.514   6.517
 6059POPC   C3A76433   5.226  15.342   6.937
 6059POPC   C4A76434   5.108  15.180   7.340
 6059POPC   C1B76435   4.799  14.826   6.229
 6059POPC   C2B76436   5.016  14.996   6.571
 6059POPC   C3B76437   4.933  14.891   6.970
 6059POPC   C4B76438   4.643  14.983   7.270
 6060POPC   NC376439  12.356  22.833   5.540
 6060POPC   PO476440  12.349  22.226   5.222
 6060POPC   GL176441  11.979  22.501   5.651
 6060POPC   GL276442  12.193  22.689   5.984
 6060POPC   C1A76443  11.766  22.546   6.150
 6060POPC   D2A76444  12.000  22.822   6.525
 6060POPC   C3A76445  11.982  22.771   7.017
 6060POPC   C4A76446  12.024  22.873   7.485
 6060POPC   C1B76447  12.418  23.006   6.288
 6060POPC   C2B76448  12.372  23.144   6.740
 6060POPC   C3B76449  12.288  23.203   7.195
 6060POPC   C4B76450  12.351  23.219   7.666
 6061POPC   NC376451  27.200  31.880   5.470
 6061POPC   PO476452  27.838  32.171   5.546
 6061POPC   GL176453  27.561  32.014   5.839
 6061POPC   GL276454  27.873  31.780   5.905
 6061POPC   C1A76455  27.349  32.264   6.210
 6061POPC   D2A76456  27.505  32.560   6.535
 6061POPC   C3A76457  27.370  32.438   6.948
 6061POPC   C4A76458  27.319  32.180   7.325
 6061POPC   C1B76459  27.769  32.004   6.289
 6061POPC   C2B76460  27.566  31.937   6.667
 6061POPC   C3B76461  27.726  32.075   7.041
 6061POPC   C4B76462  27.899  32.438   7.216
 6062POPC   NC376463  31.423  25.247   5.263
 6062POPC   PO476464  31.945  25.483   5.619
 6062POPC   GL176465  31.599  25.461   5.853
 6062POPC   GL276466  31.561  25.111   5.767
 6062POPC   C1A76467  31.575  25.299   6.276
 6062POPC   D2A76468  31.605  24.949   6.578
 6062POPC   C3A76469  31.414  25.109   6.939
 6062POPC   C4A76470  31.343  25.518   7.126
 6062POPC   C1B76471  31.233  24.980   6.061
 6062POPC   C2B76472  31.065  24.930   6.468
 6062POPC   C3B76473  30.891  25.039   6.865
 6062POPC   C4B76474  31.029  25.111   7.283
 6063POPC   NC376475  31.546  18.540   5.531
 6063POPC   PO476476  31.296  17.947   5.582
 6063POPC   GL176477  31.487  18.168   5.906
 6063POPC   GL276478  31.829  18.205   5.856
 6063POPC   C1A76479  31.421  18.219   6.336
 6063POPC   D2A76480  31.600  18.109   6.720
 6063POPC   C3A76481  31.326  18.179   7.028
 6063POPC   C4A76482  31.337  17.939   7.414
 6063POPC   C1B76483  31.817  18.494   6.194
 6063POPC   C2B76484  31.641  18.623   6.610
 6063POPC   C3B76485  31.732  18.514   7.038
 6063POPC   C4B76486  31.783  18.156   7.290
 6064POPC   NC376487  31.686  32.902   5.129
 6064POPC   PO476488  31.549  32.310   5.385
 6064POPC   GL176489  31.376  32.289   5.839
 6064POPC   GL276490  31.129  31.990   5.934
 6064POPC   C1A76491  31.379  32.316   6.278
 6064POPC   D2A76492  31.481  32.082   6.632
 6064POPC   C3A76493  31.431  32.351   6.947
 6064POPC   C4A76494  31.588  32.459   7.328
 6064POPC   C1B76495  31.028  31.911   6.402
 6064POPC   C2B76496  31.075  31.892   6.881
 6064POPC   C3B76497  31.294  31.996   7.274
 6064POPC   C4B76498  31.099  31.969   7.707
 6065POPC   NC376499  44.077  39.944   5.258
 6065POPC   PO476500  44.699  40.081   5.409
 6065POPC   GL176501  44.600  40.039   5.788
 6065POPC   GL276502  44.239  40.142   5.782
 6065POPC   C1A76503  44.816  40.129   6.176
 6065POPC   D2A76504  44.862  40.404   6.522
 6065POPC   C3A76505  44.906  40.263   6.927
 6065POPC   C4A76506  44.823  40.181   7.318
 6065POPC   C1B76507  44.326  39.957   6.185
 6065POPC   C2B76508  44.522  39.998   6.583
 6065POPC   C3B76509  44.622  39.826   6.957
 6065POPC   C4B76510  44.350  39.925   7.256
 6066POPC   NC376511  27.425   7.258   5.377
 6066POPC   PO476512  28.032   7.542   5.484
 6066POPC   GL176513  27.671   7.613   5.770
 6066POPC   GL276514  27.342   7.460   5.865
 6066POPC   C1A76515  27.743   7.528   6.212
 6066POPC   D2A76516  27.590   7.478   6.637
 6066POPC   C3A76517  27.892   7.609   6.945
 6066POPC   C4A76518  27.962   7.523   7.376
 6066POPC   C1B76519  27.364   7.187   6.234
 6066POPC   C2B76520  27.519   6.958   6.595
 6066POPC   C3B76521  27.525   7.114   7.016
 6066POPC   C4B76522  27.727   7.091   7.378
 6067POPC   NC376523  41.843  15.726   5.597
 6067POPC   PO476524  41.292  16.126   5.565
 6067POPC   GL176525  41.551  16.140   5.896
 6067POPC   GL276526  41.459  15.807   5.941
 6067POPC   C1A76527  41.534  16.144   6.350
 6067POPC   D2A76528  41.280  16.076   6.728
 6067POPC   C3A76529  41.437  16.090   7.168
 6067POPC   C4A76530  41.253  16.163   7.626
 6067POPC   C1B76531  41.783  15.703   6.245
 6067POPC   C2B76532  41.728  15.744   6.678
 6067POPC   C3B76533  41.845  15.504   7.027
 6067POPC   C4B76534  41.931  15.873   7.259
 6068POPC   NC376535   5.547  29.951   5.523
 6068POPC   PO476536   4.834  29.871   5.476
 6068POPC   GL176537   5.054  30.076   5.823
 6068POPC   GL276538   5.268  30.375   5.827
 6068POPC   C1A76539   5.102  30.086   6.262
 6068POPC   D2A76540   5.153  29.761   6.566
 6068POPC   C3A76541   4.883  29.908   6.875
 6068POPC   C4A76542   4.858  30.251   7.110
 6068POPC   C1B76543   5.586  30.179   6.138
 6068POPC   C2B76544   5.637  30.004   6.560
 6068POPC   C3B76545   5.372  30.070   6.930
 6068POPC   C4B76546   5.190  29.885   7.286
 6069POPC   NC376547  41.910  42.010   5.699
 6069POPC   PO476548  41.318  42.323   5.491
 6069POPC   GL176549  41.521  42.333   5.850
 6069POPC   GL276550  41.449  41.983   5.871
 6069POPC   C1A76551  41.641  42.580   6.214
 6069POPC   D2A76552  41.451  42.720   6.591
 6069POPC   C3A76553  41.661  42.646   6.988
 6069POPC   C4A76554  41.416  42.570   7.335
 6069POPC   C1B76555  41.635  42.073   6.279
 6069POPC   C2B76556  41.778  42.269   6.642
 6069POPC   C3B76557  41.571  42.151   7.017
 6069POPC   C4B76558  41.548  41.792   7.235
 6070POPC   NC376559   1.290  17.912   5.538
 6070POPC   PO476560   1.429  18.605   5.547
 6070POPC   GL176561   1.228  18.547   5.940
 6070POPC   GL276562   1.163  18.182   5.957
 6070POPC   C1A76563   1.031  18.482   6.347
 6070POPC   D2A76564   1.075  18.090   6.594
 6070POPC   C3A76565   1.036  18.162   7.024
 6070POPC   C4A76566   1.236  18.437   7.249
 6070POPC   C1B76567   1.401  17.875   6.217
 6070POPC   C2B76568   1.604  17.977   6.603
 6070POPC   C3B76569   1.596  18.123   7.024
 6070POPC   C4B76570   1.408  17.964   7.368
 6071POPC   NC376571  40.820  23.239   5.395
 6071POPC   PO476572  41.139  22.709   5.513
 6071POPC   GL176573  40.921  22.804   5.884
 6071POPC   GL276574  40.704  23.099   5.877
 6071POPC   C1A76575  41.002  22.930   6.294
 6071POPC   D2A76576  41.186  23.149   6.629
 6071POPC   C3A76577  40.966  22.965   6.944
 6071POPC   C4A76578  40.961  22.764   7.326
 6071POPC   C1B76579  40.500  23.120   6.277
 6071POPC   C2B76580  40.609  23.273   6.713
 6071POPC   C3B76581  40.595  23.210   7.185
 6071POPC   C4B76582  40.652  23.045   7.634
 6072POPC   NC376583  17.791  18.595   5.008
 6072POPC   PO476584  17.351  18.083   5.242
 6072POPC   GL176585  17.319  18.106   5.675
 6072POPC   GL276586  17.413  18.441   5.753
 6072POPC   C1A76587  17.345  18.008   6.114
 6072POPC   D2A76588  17.566  18.059   6.498
 6072POPC   C3A76589  17.407  17.942   6.897
 6072POPC   C4A76590  17.702  18.121   7.172
 6072POPC   C1B76591  17.295  18.512   6.182
 6072POPC   C2B76592  17.196  18.427   6.616
 6072POPC   C3B76593  17.283  18.407   7.076
 6072POPC   C4B76594  17.352  18.316   7.540
 6073POPC   NC376595  31.802   0.375   5.447
 6073POPC   PO476596  32.430   0.468   5.418
 6073POPC   GL176597  32.274   0.398   5.869
 6073POPC   GL276598  31.941   0.228   5.924
 6073POPC   C1A76599  32.302   0.181   6.311
 6073POPC   D2A76600  32.136   0.346   6.722
 6073POPC   C3A76601  32.312   0.296   7.142
 6073POPC   C4A76602  32.471   0.298   7.565
 6073POPC   C1B76603  31.944   0.555   6.275
 6073POPC   C2B76604  31.784   0.731   6.663
 6073POPC   C3B76605  31.965   0.713   7.080
 6073POPC   C4B76606  31.986   0.475   7.496
 6074POPC   NC376607  29.448  14.859   5.298
 6074POPC   PO476608  29.058  14.287   5.455
 6074POPC   GL176609  29.277  14.311   5.850
 6074POPC   GL276610  29.330  14.640   5.788
 6074POPC   C1A76611  29.111  14.112   6.224
 6074POPC   D2A76612  28.891  14.144   6.585
 6074POPC   C3A76613  29.137  14.276   6.928
 6074POPC   C4A76614  29.500  14.096   7.189
 6074POPC   C1B76615  29.122  14.621   6.218
 6074POPC   C2B76616  29.076  14.875   6.581
 6074POPC   C3B76617  29.096  14.796   7.018
 6074POPC   C4B76618  29.243  14.560   7.337
 6075POPC   NC376619   4.044   8.968   5.435
 6075POPC   PO476620   4.544   9.191   5.832
 6075POPC   GL176621   4.142   9.077   5.993
 6075POPC   GL276622   4.111   8.748   5.985
 6075POPC   C1A76623   4.067   8.971   6.450
 6075POPC   D2A76624   4.465   8.843   6.683
 6075POPC   C3A76625   4.438   8.859   7.110
 6075POPC   C4A76626   4.261   9.190   7.383
 6075POPC   C1B76627   4.208   8.497   6.359
 6075POPC   C2B76628   4.078   8.558   6.810
 6075POPC   C3B76629   3.956   8.780   7.198
 6075POPC   C4B76630   4.232   8.742   7.605
 6076POPC   NC376631   2.869  29.092   5.432
 6076POPC   PO476632   3.264  29.446   5.789
 6076POPC   GL176633   2.967  29.172   5.924
 6076POPC   GL276634   2.675  29.364   5.893
 6076POPC   C1A76635   2.797  29.057   6.308
 6076POPC   D2A76636   2.437  29.104   6.588
 6076POPC   C3A76637   2.572  29.171   7.030
 6076POPC   C4A76638   2.904  28.910   7.235
 6076POPC   C1B76639   2.854  29.563   6.291
 6076POPC   C2B76640   2.916  29.368   6.698
 6076POPC   C3B76641   3.036  29.384   7.118
 6076POPC   C4B76642   3.043  29.290   7.581
 6077POPC   NC376643  14.015  10.103   5.476
 6077POPC   PO476644  13.457   9.838   5.321
 6077POPC   GL176645  13.696   9.803   5.749
 6077POPC   GL276646  13.492   9.989   5.849
 6077POPC   C1A76647  13.902   9.951   6.188
 6077POPC   D2A76648  14.113   9.831   6.601
 6077POPC   C3A76649  13.930   9.510   6.836
 6077POPC   C4A76650  13.694   9.733   7.134
 6077POPC   C1B76651  13.456   9.715   6.212
 6077POPC   C2B76652  13.521   9.841   6.658
 6077POPC   C3B76653  13.201   9.827   7.015
 6077POPC   C4B76654  13.201  10.016   7.429
 6078POPC   NC376655  27.020  11.202   5.415
 6078POPC   PO476656  26.401  11.202   5.213
 6078POPC   GL176657  26.626  11.463   5.662
 6078POPC   GL276658  26.962  11.321   5.883
 6078POPC   C1A76659  26.705  11.647   6.121
 6078POPC   D2A76660  26.970  11.540   6.466
 6078POPC   C3A76661  26.681  11.417   6.798
 6078POPC   C4A76662  26.651  11.548   7.208
 6078POPC   C1B76663  27.183  10.991   6.139
 6078POPC   C2B76664  27.354  11.128   6.534
 6078POPC   C3B76665  27.127  11.222   6.902
 6078POPC   C4B76666  26.939  11.138   7.297
 6079POPC   NC376667  21.239  21.507   5.561
 6079POPC   PO476668  20.575  21.325   5.419
 6079POPC   GL176669  20.671  21.370   5.806
 6079POPC   GL276670  20.954  21.137   5.858
 6079POPC   C1A76671  20.450  21.417   6.193
 6079POPC   D2A76672  20.581  21.274   6.595
 6079POPC   C3A76673  20.400  21.489   6.963
 6079POPC   C4A76674  20.417  21.240   7.331
 6079POPC   C1B76675  20.970  21.416   6.226
 6079POPC   C2B76676  20.903  21.668   6.633
 6079POPC   C3B76677  20.907  21.459   7.052
 6079POPC   C4B76678  20.887  21.278   7.519
 6080POPC   NC376679  12.775  11.016   5.645
 6080POPC   PO476680  12.762  10.544   5.180
 6080POPC   GL176681  12.844  10.462   5.706
 6080POPC   GL276682  12.582  10.614   5.913
 6080POPC   C1A76683  12.953  10.454   6.217
 6080POPC   D2A76684  12.746  10.469   6.652
 6080POPC   C3A76685  12.925  10.351   7.075
 6080POPC   C4A76686  12.870  10.379   7.518
 6080POPC   C1B76687  12.706  10.886   6.279
 6080POPC   C2B76688  12.778  11.011   6.695
 6080POPC   C3B76689  12.607  10.808   7.031
 6080POPC   C4B76690  12.453  10.449   7.251
 6081POPC   NC376691  12.931  44.893   5.276
 6081POPC   PO476692  12.971   0.502   5.228
 6081POPC   GL176693  12.836   0.566   5.669
 6081POPC   GL276694  12.778   0.220   5.780
 6081POPC   C1A76695  12.833   0.628   6.127
 6081POPC   D2A76696  12.883   0.361   6.518
 6081POPC   C3A76697  12.858   0.535   6.962
 6081POPC   C4A76698  12.559   0.382   7.275
 6081POPC   C1B76699  13.112   0.068   6.092
 6081POPC   C2B76700  13.316   0.086   6.515
 6081POPC   C3B76701  13.103   0.074   6.908
 6081POPC   C4B76702  13.182   0.160   7.322
 6082POPC   NC376703   1.105  28.528   5.387
 6082POPC   PO476704   1.813  28.522   5.463
 6082POPC   GL176705   1.452  28.464   5.761
 6082POPC   GL276706   1.282  28.131   5.769
 6082POPC   C1A76707   1.257  28.421   6.184
 6082POPC   D2A76708   1.336  28.048   6.442
 6082POPC   C3A76709   1.494  28.218   6.803
 6082POPC   C4A76710   1.272  28.629   6.897
 6082POPC   C1B76711   0.940  28.030   6.070
 6082POPC   C2B76712   0.801  28.234   6.433
 6082POPC   C3B76713   0.982  28.193   6.805
 6082POPC   C4B76714   1.198  28.120   7.184
 6083POPC   NC376715  38.268  16.896   5.157
 6083POPC   PO476716  38.751  16.472   5.293
 6083POPC   GL176717  38.452  16.591   5.654
 6083POPC   GL276718  38.081  16.501   5.590
 6083POPC   C1A76719  38.536  16.781   6.100
 6083POPC   D2A76720  38.787  16.661   6.474
 6083POPC   C3A76721  38.584  16.643   6.855
 6083POPC   C4A76722  38.497  16.912   7.209
 6083POPC   C1B76723  38.094  16.486   6.061
 6083POPC   C2B76724  38.154  16.698   6.462
 6083POPC   C3B76725  38.083  16.789   6.903
 6083POPC   C4B76726  38.057  16.535   7.256
 6084POPC   NC376727  29.467  21.643   5.233
 6084POPC   PO476728  30.149  21.559   5.387
 6084POPC   GL176729  29.826  21.358   5.629
 6084POPC   GL276730  29.852  21.649   5.827
 6084POPC   C1A76731  29.659  21.257   6.080
 6084POPC   D2A76732  29.850  21.304   6.494
 6084POPC   C3A76733  29.939  21.157   6.905
 6084POPC   C4A76734  30.009  21.176   7.342
 6084POPC   C1B76735  29.848  21.841   6.238
 6084POPC   C2B76736  30.030  21.768   6.649
 6084POPC   C3B76737  30.086  21.868   7.073
 6084POPC   C4B76738  29.816  21.631   7.338
 6085POPC   NC376739  28.157  40.611   5.368
 6085POPC   PO476740  28.838  40.661   5.423
 6085POPC   GL176741  28.516  40.542   5.723
 6085POPC   GL276742  28.308  40.859   5.787
 6085POPC   C1A76743  28.428  40.378   6.124
 6085POPC   D2A76744  28.430  40.590   6.541
 6085POPC   C3A76745  28.473  40.431   6.951
 6085POPC   C4A76746  28.455  40.627   7.349
 6085POPC   C1B76747  28.472  40.963   6.174
 6085POPC   C2B76748  28.315  41.076   6.567
 6085POPC   C3B76749  28.451  40.968   6.958
 6085POPC   C4B76750  28.473  41.172   7.338
 6086POPC   NC376751  13.157   1.808   5.173
 6086POPC   PO476752  12.538   2.067   5.029
 6086POPC   GL176753  12.627   1.875   5.529
 6086POPC   GL276754  12.975   1.929   5.712
 6086POPC   C1A76755  12.594   1.845   6.058
 6086POPC   D2A76756  12.774   2.095   6.461
 6086POPC   C3A76757  12.766   1.963   6.932
 6086POPC   C4A76758  12.452   1.891   7.265
 6086POPC   C1B76759  13.089   1.737   6.141
 6086POPC   C2B76760  12.938   1.590   6.548
 6086POPC   C3B76761  13.125   1.585   6.961
 6086POPC   C4B76762  13.284   1.911   7.211
 6087POPC   NC376763   6.235  34.536   5.378
 6087POPC   PO476764   6.762  34.949   5.501
 6087POPC   GL176765   6.623  34.766   5.832
 6087POPC   GL276766   6.669  35.054   5.997
 6087POPC   C1A76767   6.636  34.569   6.217
 6087POPC   D2A76768   6.442  34.365   6.557
 6087POPC   C3A76769   6.644  34.435   6.952
 6087POPC   C4A76770   6.491  34.385   7.390
 6087POPC   C1B76771   6.897  35.046   6.329
 6087POPC   C2B76772   6.947  34.718   6.614
 6087POPC   C3B76773   6.890  34.907   6.965
 6087POPC   C4B76774   6.818  34.760   7.326
 6088POPC   NC376775  43.492  44.745   5.672
 6088POPC   PO476776  42.907  44.643   5.428
 6088POPC   GL176777  42.996  44.470   5.870
 6088POPC   GL276778  43.123  44.778   6.030
 6088POPC   C1A76779  42.902  44.484   6.352
 6088POPC   D2A76780  43.173  44.813   6.600
 6088POPC   C3A76781  43.101  44.812   7.032
 6088POPC   C4A76782  42.761  44.509   7.085
 6088POPC   C1B76783  43.423  44.489   6.292
 6088POPC   C2B76784  43.433  44.355   6.764
 6088POPC   C3B76785  43.250  44.364   7.210
 6088POPC   C4B76786  43.332  44.511   7.644
 6089POPC   NC376787  20.054  25.974   5.530
 6089POPC   PO476788  19.381  25.972   5.673
 6089POPC   GL176789  19.704  25.966   5.913
 6089POPC   GL276790  19.882  26.292   5.908
 6089POPC   C1A76791  19.648  26.102   6.325
 6089POPC   D2A76792  19.905  26.294   6.618
 6089POPC   C3A76793  19.774  26.196   7.008
 6089POPC   C4A76794  19.725  25.807   7.168
 6089POPC   C1B76795  20.170  26.104   6.224
 6089POPC   C2B76796  20.255  25.920   6.671
 6089POPC   C3B76797  20.256  25.860   7.142
 6089POPC   C4B76798  20.035  26.009   7.519
 6090POPC   NC376799   2.129  26.459   5.523
 6090POPC   PO476800   1.715  25.926   5.559
 6090POPC   GL176801   1.927  26.043   5.887
 6090POPC   GL276802   2.274  26.111   5.879
 6090POPC   C1A76803   2.038  25.889   6.250
 6090POPC   D2A76804   2.375  25.898   6.491
 6090POPC   C3A76805   2.175  25.728   6.819
 6090POPC   C4A76806   2.243  25.753   7.240
 6090POPC   C1B76807   2.192  26.360   6.234
 6090POPC   C2B76808   2.021  26.230   6.633
 6090POPC   C3B76809   2.257  26.194   6.978
 6090POPC   C4B76810   2.157  26.484   7.248
 6091POPC   NC376811  29.778  30.994   5.361
 6091POPC   PO476812  30.349  30.618   5.430
 6091POPC   GL176813  29.980  30.665   5.730
 6091POPC   GL276814  29.973  31.023   5.828
 6091POPC   C1A76815  29.805  30.624   6.156
 6091POPC   D2A76816  30.025  30.779   6.509
 6091POPC   C3A76817  30.105  30.505   6.855
 6091POPC   C4A76818  29.836  30.558   7.192
 6091POPC   C1B76819  29.717  31.144   6.167
 6091POPC   C2B76820  29.531  31.003   6.543
 6091POPC   C3B76821  29.752  30.968   6.898
 6091POPC   C4B76822  29.865  31.117   7.263
 6092POPC   NC376823  39.403  19.882   5.362
 6092POPC   PO476824  38.771  19.892   5.473
 6092POPC   GL176825  39.097  19.929   5.797
 6092POPC   GL276826  39.248  20.229   5.721
 6092POPC   C1A76827  39.330  19.829   6.211
 6092POPC   D2A76828  39.488  19.496   6.535
 6092POPC   C3A76829  39.342  19.557   6.971
 6092POPC   C4A76830  38.952  19.600   7.220
 6092POPC   C1B76831  39.137  20.332   6.128
 6092POPC   C2B76832  39.269  20.264   6.547
 6092POPC   C3B76833  39.040  20.219   6.931
 6092POPC   C4B76834  39.258  20.071   7.277
 6093POPC   NC376835  25.347  22.882   5.507
 6093POPC   PO476836  24.776  23.169   5.368
 6093POPC   GL176837  25.015  23.184   5.797
 6093POPC   GL276838  25.102  22.882   5.952
 6093POPC   C1A76839  25.295  23.280   6.195
 6093POPC   D2A76840  25.124  23.264   6.553
 6093POPC   C3A76841  25.175  23.323   6.961
 6093POPC   C4A76842  25.127  23.073   7.329
 6093POPC   C1B76843  25.380  22.788   6.315
 6093POPC   C2B76844  25.410  22.886   6.732
 6093POPC   C3B76845  25.129  22.711   6.994
 6093POPC   C4B76846  25.174  22.503   7.358
 6094POPC   NC376847  26.355  37.893   5.185
 6094POPC   PO476848  26.889  37.778   5.493
 6094POPC   GL176849  26.945  37.661   5.881
 6094POPC   GL276850  26.907  38.006   5.966
 6094POPC   C1A76851  26.944  37.492   6.293
 6094POPC   D2A76852  26.884  37.834   6.570
 6094POPC   C3A76853  26.763  37.743   7.006
 6094POPC   C4A76854  26.888  37.521   7.392
 6094POPC   C1B76855  27.227  38.177   6.210
 6094POPC   C2B76856  27.423  38.142   6.599
 6094POPC   C3B76857  27.202  38.037   6.953
 6094POPC   C4B76858  27.045  37.995   7.389
 6095POPC   NC376859  30.289  21.894   5.669
 6095POPC   PO476860  29.733  22.075   5.315
 6095POPC   GL176861  29.836  22.170   5.735
 6095POPC   GL276862  29.523  22.049   5.833
 6095POPC   C1A76863  29.881  22.356   6.168
 6095POPC   D2A76864  30.137  22.256   6.553
 6095POPC   C3A76865  30.168  22.426   6.985
 6095POPC   C4A76866  30.100  22.289   7.391
 6095POPC   C1B76867  29.388  22.173   6.229
 6095POPC   C2B76868  29.618  22.154   6.581
 6095POPC   C3B76869  29.601  21.961   6.943
 6095POPC   C4B76870  29.630  22.095   7.347
 6096POPC   NC376871  44.230  20.294   5.486
 6096POPC   PO476872  43.934  20.880   5.496
 6096POPC   GL176873  43.845  20.679   5.831
 6096POPC   GL276874  43.813  20.324   5.790
 6096POPC   C1A76875  43.748  20.564   6.239
 6096POPC   D2A76876  43.679  20.391   6.620
 6096POPC   C3A76877  43.566  20.679   6.941
 6096POPC   C4A76878  43.624  20.772   7.372
 6096POPC   C1B76879  44.097  20.163   6.130
 6096POPC   C2B76880  44.169  20.186   6.572
 6096POPC   C3B76881  44.068  20.467   6.926
 6096POPC   C4B76882  44.121  20.620   7.319
 6097POPC   NC376883  14.165   9.194   5.408
 6097POPC   PO476884  14.678   8.769   5.471
 6097POPC   GL176885  14.612   8.955   5.844
 6097POPC   GL276886  14.265   8.935   5.883
 6097POPC   C1A76887  14.561   9.098   6.259
 6097POPC   D2A76888  14.359   8.957   6.623
 6097POPC   C3A76889  14.292   9.136   6.997
 6097POPC   C4A76890  14.565   9.228   7.349
 6097POPC   C1B76891  14.002   8.877   6.260
 6097POPC   C2B76892  13.815   8.941   6.694
 6097POPC   C3B76893  13.912   8.779   7.119
 6097POPC   C4B76894  14.126   8.982   7.475
 6098POPC   NC376895  14.517   1.136   5.406
 6098POPC   PO476896  13.824   1.020   5.290
 6098POPC   GL176897  14.015   1.081   5.741
 6098POPC   GL276898  14.305   0.884   5.809
 6098POPC   C1A76899  14.037   1.315   6.129
 6098POPC   D2A76900  14.362   1.473   6.391
 6098POPC   C3A76901  14.280   1.365   6.826
 6098POPC   C4A76902  14.268   1.406   7.273
 6098POPC   C1B76903  14.395   0.899   6.244
 6098POPC   C2B76904  14.554   0.944   6.664
 6098POPC   C3B76905  14.374   0.863   7.077
 6098POPC   C4B76906  14.560   0.958   7.470
 6099POPC   NC376907   1.563  13.675   5.567
 6099POPC   PO476908   2.125  13.422   5.256
 6099POPC   GL176909   2.050  13.422   5.729
 6099POPC   GL276910   2.007  13.786   5.822
 6099POPC   C1A76911   1.887  13.415   6.188
 6099POPC   D2A76912   1.640  13.278   6.608
 6099POPC   C3A76913   1.749  13.457   7.039
 6099POPC   C4A76914   1.968  13.365   7.450
 6099POPC   C1B76915   1.787  13.918   6.215
 6099POPC   C2B76916   1.909  14.097   6.604
 6099POPC   C3B76917   1.974  13.940   7.016
 6099POPC   C4B76918   2.047  13.857   7.445
 6100POPC   NC376919  21.273   9.200   5.326
 6100POPC   PO476920  21.619   8.635   5.384
 6100POPC   GL176921  21.417   8.858   5.727
 6100POPC   GL276922  21.602   9.166   5.762
 6100POPC   C1A76923  21.167   8.801   6.114
 6100POPC   D2A76924  21.022   8.922   6.525
 6100POPC   C3A76925  21.163   8.783   6.882
 6100POPC   C4A76926  21.142   8.969   7.217
 6100POPC   C1B76927  21.670   8.944   6.170
 6100POPC   C2B76928  21.529   8.986   6.563
 6100POPC   C3B76929  21.525   9.165   6.957
 6100POPC   C4B76930  21.736   9.184   7.361
 6101POPC   NC376931   6.250   9.974   5.349
 6101POPC   PO476932   6.805   9.520   5.362
 6101POPC   GL176933   6.589   9.691   5.745
 6101POPC   GL276934   6.673  10.064   5.816
 6101POPC   C1A76935   6.646   9.699   6.210
 6101POPC   D2A76936   6.876   9.495   6.550
 6101POPC   C3A76937   6.707   9.486   6.930
 6101POPC   C4A76938   6.928   9.409   7.325
 6101POPC   C1B76939   6.785  10.209   6.251
 6101POPC   C2B76940   6.771  10.011   6.667
 6101POPC   C3B76941   6.577   9.935   7.108
 6101POPC   C4B76942   6.449  10.166   7.495
 6102POPC   NC376943  17.041  24.943   5.478
 6102POPC   PO476944  16.512  25.128   5.222
 6102POPC   GL176945  16.601  25.270   5.693
 6102POPC   GL276946  16.664  24.979   5.914
 6102POPC   C1A76947  16.835  25.413   6.127
 6102POPC   D2A76948  16.831  25.563   6.587
 6102POPC   C3A76949  16.946  25.284   6.965
 6102POPC   C4A76950  16.855  25.055   7.351
 6102POPC   C1B76951  16.345  25.290   6.169
 6102POPC   C2B76952  16.236  25.485   6.600
 6102POPC   C3B76953  16.461  25.494   7.025
 6102POPC   C4B76954  16.624  25.521   7.487
 6103POPC   NC376955  23.206  28.609   5.623
 6103POPC   PO476956  22.756  28.177   5.439
 6103POPC   GL176957  22.885  28.245   5.856
 6103POPC   GL276958  22.761  28.574   5.904
 6103POPC   C1A76959  23.004  28.011   6.255
 6103POPC   D2A76960  23.130  27.874   6.679
 6103POPC   C3A76961  23.057  28.234   6.937
 6103POPC   C4A76962  22.939  28.277   7.345
 6103POPC   C1B76963  22.982  28.523   6.288
 6103POPC   C2B76964  22.768  28.545   6.644
 6103POPC   C3B76965  22.769  28.680   7.051
 6103POPC   C4B76966  23.178  28.714   7.223
 6104POPC   NC376967  11.820   6.506   5.521
 6104POPC   PO476968  11.194   6.326   5.290
 6104POPC   GL176969  11.287   6.464   5.726
 6104POPC   GL276970  11.393   6.817   5.788
 6104POPC   C1A76971  11.117   6.559   6.148
 6104POPC   D2A76972  11.278   6.675   6.540
 6104POPC   C3A76973  11.091   6.516   6.870
 6104POPC   C4A76974  11.083   6.673   7.257
 6104POPC   C1B76975  11.616   6.609   6.165
 6104POPC   C2B76976  11.786   6.528   6.581
 6104POPC   C3B76977  11.583   6.655   6.965
 6104POPC   C4B76978  11.564   6.658   7.391
 6105POPC   NC376979  20.559   9.645   5.230
 6105POPC   PO476980  20.936  10.108   5.210
 6105POPC   GL176981  20.869   9.917   5.653
 6105POPC   GL276982  20.639   9.631   5.747
 6105POPC   C1A76983  20.767   9.915   6.129
 6105POPC   D2A76984  20.471   9.936   6.464
 6105POPC   C3A76985  20.656   9.793   6.838
 6105POPC   C4A76986  20.466   9.977   7.171
 6105POPC   C1B76987  20.403   9.504   6.165
 6105POPC   C2B76988  20.219   9.498   6.598
 6105POPC   C3B76989  20.348   9.418   7.022
 6105POPC   C4B76990  20.689   9.441   7.311
 6106POPC   NC376991   7.509  44.354   5.572
 6106POPC   PO476992   7.245  44.968   5.467
 6106POPC   GL176993   7.255  44.747   5.871
 6106POPC   GL276994   7.607  44.706   5.958
 6106POPC   C1A76995   7.237  44.850   6.329
 6106POPC   D2A76996   7.312  44.638   6.737
 6106POPC   C3A76997   7.280  44.774   7.187
 6106POPC   C4A76998   7.264  44.534   7.590
 6106POPC   C1B76999   7.506  44.394   6.277
 6106POPC   C2B77000   7.726  44.290   6.656
 6106POPC   C3B77001   7.569  44.320   7.064
 6106POPC   C4B77002   7.733  44.568   7.381
 6107POPC   NC377003  33.064   6.847   5.629
 6107POPC   PO477004  32.993   7.545   5.554
 6107POPC   GL177005  32.854   7.275   5.864
 6107POPC   GL277006  33.196   7.201   6.018
 6107POPC   C1A77007  32.755   7.400   6.273
 6107POPC   D2A77008  32.980   7.720   6.484
 6107POPC   C3A77009  32.933   7.728   6.911
 6107POPC   C4A77010  32.874   7.765   7.336
 6107POPC   C1B77011  33.200   7.235   6.487
 6107POPC   C2B77012  32.824   7.150   6.749
 6107POPC   C3B77013  32.863   7.278   7.166
 6107POPC   C4B77014  33.286   7.453   7.159
 6108POPC   NC377015  21.707  44.596   5.264
 6108POPC   PO477016  21.089  44.506   5.563
 6108POPC   GL177017  21.432  44.515   5.805
 6108POPC   GL277018  21.669  44.256   5.652
 6108POPC   C1A77019  21.352  44.569   6.286
 6108POPC   D2A77020  21.389  44.889   6.641
 6108POPC   C3A77021  21.318  44.762   7.094
 6108POPC   C4A77022  21.366  44.826   7.567
 6108POPC   C1B77023  21.739  44.242   6.101
 6108POPC   C2B77024  21.616  44.164   6.510
 6108POPC   C3B77025  21.673  44.404   6.892
 6108POPC   C4B77026  21.908  44.272   7.226
 6109POPC   NC377027  10.426  42.645   5.387
 6109POPC   PO477028  10.903  42.157   5.521
 6109POPC   GL177029  10.680  42.398   5.803
 6109POPC   GL277030  10.333  42.288   5.812
 6109POPC   C1A77031  10.637  42.380   6.252
 6109POPC   D2A77032  10.763  42.467   6.668
 6109POPC   C3A77033  10.573  42.232   6.991
 6109POPC   C4A77034  10.514  42.408   7.367
 6109POPC   C1B77035  10.160  42.534   6.169
 6109POPC   C2B77036  10.267  42.643   6.596
 6109POPC   C3B77037  10.124  42.527   7.057
 6109POPC   C4B77038  10.103  42.640   7.537
 6110POPC   NC377039  22.425   1.602   5.352
 6110POPC   PO477040  23.067   1.231   5.373
 6110POPC   GL177041  23.057   1.241   5.792
 6110POPC   GL277042  22.739   1.387   5.735
 6110POPC   C1A77043  22.885   1.075   6.163
 6110POPC   D2A77044  22.905   1.063   6.606
 6110POPC   C3A77045  23.141   1.250   6.937
 6110POPC   C4A77046  23.169   1.125   7.382
 6110POPC   C1B77047  22.537   1.458   6.077
 6110POPC   C2B77048  22.463   1.368   6.498
 6110POPC   C3B77049  22.641   1.378   6.909
 6110POPC   C4B77050  22.714   0.973   7.081
 6111POPC   NC377051  41.422  41.896   5.326
 6111POPC   PO477052  41.938  41.555   5.549
 6111POPC   GL177053  41.620  41.504   5.831
 6111POPC   GL277054  41.277  41.533   5.665
 6111POPC   C1A77055  41.654  41.560   6.276
 6111POPC   D2A77056  41.546  41.750   6.675
 6111POPC   C3A77057  41.425  41.395   6.917
 6111POPC   C4A77058  41.538  41.295   7.336
 6111POPC   C1B77059  41.146  41.652   6.088
 6111POPC   C2B77060  40.992  41.810   6.495
 6111POPC   C3B77061  41.095  41.831   6.935
 6111POPC   C4B77062  41.095  41.531   7.287
 6112POPC   NC377063  13.497  14.567   5.485
 6112POPC   PO477064  14.034  14.130   5.544
 6112POPC   GL177065  13.728  14.259   5.874
 6112POPC   GL277066  13.342  14.228   5.822
 6112POPC   C1A77067  13.599  14.348   6.311
 6112POPC   D2A77068  13.595  14.563   6.719
 6112POPC   C3A77069  13.653  14.409   7.076
 6112POPC   C4A77070  14.019  14.246   7.239
 6112POPC   C1B77071  13.117  14.263   6.173
 6112POPC   C2B77072  13.126  14.354   6.576
 6112POPC   C3B77073  13.092  14.498   6.959
 6112POPC   C4B77074  13.176  14.398   7.345
 6113POPC   NC377075  27.824   8.793   5.178
 6113POPC   PO477076  27.214   9.111   5.416
 6113POPC   GL177077  27.550   9.025   5.802
 6113POPC   GL277078  27.780   9.294   5.885
 6113POPC   C1A77079  27.751   8.848   6.224
 6113POPC   D2A77080  27.955   8.795   6.678
 6113POPC   C3A77081  27.748   8.870   7.107
 6113POPC   C4A77082  27.807   8.806   7.564
 6113POPC   C1B77083  27.614   9.318   6.332
 6113POPC   C2B77084  27.687   9.274   6.778
 6113POPC   C3B77085  27.461   9.301   7.144
 6113POPC   C4B77086  27.069   9.306   7.303
 6114POPC   NC377087  36.360  24.437   5.411
 6114POPC   PO477088  35.683  24.322   5.385
 6114POPC   GL177089  36.004  24.256   5.729
 6114POPC   GL277090  36.136  24.547   5.875
 6114POPC   C1A77091  36.060  24.168   6.205
 6114POPC   D2A77092  35.910  24.076   6.652
 6114POPC   C3A77093  36.002  24.419   6.979
 6114POPC   C4A77094  35.933  24.853   7.170
 6114POPC   C1B77095  36.299  24.647   6.298
 6114POPC   C2B77096  36.246  24.792   6.742
 6114POPC   C3B77097  36.458  24.828   7.148
 6114POPC   C4B77098  36.732  24.818   7.555
 6115POPC   NC377099  19.899  22.415   5.316
 6115POPC   PO477100  19.839  23.093   5.359
 6115POPC   GL177101  19.841  22.913   5.759
 6115POPC   GL277102  20.125  22.676   5.732
 6115POPC   C1A77103  19.798  23.080   6.190
 6115POPC   D2A77104  19.666  23.282   6.577
 6115POPC   C3A77105  19.870  23.102   6.925
 6115POPC   C4A77106  19.747  22.897   7.308
 6115POPC   C1B77107  20.047  22.634   6.178
 6115POPC   C2B77108  20.168  22.806   6.579
 6115POPC   C3B77109  20.026  22.629   6.974
 6115POPC   C4B77110  20.091  22.513   7.408
 6116POPC   NC377111  23.965   4.140   5.503
 6116POPC   PO477112  23.409   3.786   5.531
 6116POPC   GL177113  23.590   4.077   5.851
 6116POPC   GL277114  23.624   4.450   5.780
 6116POPC   C1A77115  23.815   4.199   6.219
 6116POPC   D2A77116  23.712   4.056   6.623
 6116POPC   C3A77117  23.911   4.241   6.956
 6116POPC   C4A77118  23.795   4.229   7.390
 6116POPC   C1B77119  23.463   4.604   6.179
 6116POPC   C2B77120  23.564   4.540   6.581
 6116POPC   C3B77121  23.402   4.689   6.941
 6116POPC   C4B77122  23.551   4.685   7.326
 6117POPC   NC377123  32.613  20.460   5.344
 6117POPC   PO477124  33.035  20.966   5.327
 6117POPC   GL177125  32.953  20.877   5.748
 6117POPC   GL277126  32.911  20.514   5.772
 6117POPC   C1A77127  32.798  20.827   6.181
 6117POPC   D2A77128  32.976  20.706   6.571
 6117POPC   C3A77129  32.976  20.576   6.992
 6117POPC   C4A77130  33.304  20.681   7.322
 6117POPC   C1B77131  32.972  20.346   6.192
 6117POPC   C2B77132  32.966  20.100   6.557
 6117POPC   C3B77133  33.061  20.066   6.975
 6117POPC   C4B77134  33.075  20.229   7.352
 6118POPC   NC377135  20.489   3.974   5.531
 6118POPC   PO477136  20.284   3.280   5.440
 6118POPC   GL177137  20.534   3.530   5.796
 6118POPC   GL277138  20.451   3.843   6.029
 6118POPC   C1A77139  20.836   3.488   6.137
 6118POPC   D2A77140  20.744   3.318   6.551
 6118POPC   C3A77141  20.684   3.585   6.887
 6118POPC   C4A77142  20.795   3.352   7.216
 6118POPC   C1B77143  20.336   3.557   6.364
 6118POPC   C2B77144  20.239   3.358   6.791
 6118POPC   C3B77145  20.329   3.502   7.259
 6118POPC   C4B77146  20.260   3.699   7.754
 6119POPC   NC377147  22.492   7.470   5.567
 6119POPC   PO477148  22.335   7.002   5.084
 6119POPC   GL177149  22.241   7.055   5.614
 6119POPC   GL277150  22.044   7.354   5.774
 6119POPC   C1A77151  22.431   7.155   6.110
 6119POPC   D2A77152  22.211   7.241   6.538
 6119POPC   C3A77153  22.287   7.168   7.019
 6119POPC   C4A77154  22.009   7.340   7.355
 6119POPC   C1B77155  22.186   7.612   6.155
 6119POPC   C2B77156  22.119   7.755   6.562
 6119POPC   C3B77157  22.284   7.849   6.933
 6119POPC   C4B77158  22.461   7.606   7.248
 6120POPC   NC377159  17.514   2.879   5.232
 6120POPC   PO477160  17.978   3.094   5.725
 6120POPC   GL177161  17.667   2.758   5.862
 6120POPC   GL277162  17.353   2.774   5.721
 6120POPC   C1A77163  17.472   2.575   6.241
 6120POPC   D2A77164  17.531   2.822   6.614
 6120POPC   C3A77165  17.584   2.713   7.042
 6120POPC   C4A77166  17.788   2.897   7.396
 6120POPC   C1B77167  17.151   2.949   6.111
 6120POPC   C2B77168  17.025   2.744   6.522
 6120POPC   C3B77169  17.125   2.894   6.937
 6120POPC   C4B77170  17.291   2.964   7.372
 6121POPC   NC377171  32.491   9.182   5.440
 6121POPC   PO477172  32.039   8.663   5.401
 6121POPC   GL177173  32.177   8.873   5.777
 6121POPC   GL277174  32.514   8.860   5.830
 6121POPC   C1A77175  32.162   9.040   6.223
 6121POPC   D2A77176  31.906   9.211   6.582
 6121POPC   C3A77177  32.068   9.214   7.001
 6121POPC   C4A77178  32.411   8.961   7.174
 6121POPC   C1B77179  32.649   8.884   6.236
 6121POPC   C2B77180  32.490   8.947   6.657
 6121POPC   C3B77181  32.784   8.702   6.921
 6121POPC   C4B77182  32.916   8.829   7.315
 6122POPC   NC377183  33.269  28.134   5.458
 6122POPC   PO477184  33.145  27.447   5.461
 6122POPC   GL177185  33.030  27.498   5.868
 6122POPC   GL277186  33.059  27.876   5.857
 6122POPC   C1A77187  33.082  27.361   6.263
 6122POPC   D2A77188  33.332  27.630   6.462
 6122POPC   C3A77189  33.243  27.668   6.893
 6122POPC   C4A77190  33.238  27.686   7.344
 6122POPC   C1B77191  32.773  27.829   6.201
 6122POPC   C2B77192  32.790  27.729   6.625
 6122POPC   C3B77193  32.766  27.805   7.064
 6122POPC   C4B77194  32.699  27.487   7.377
 6123POPC   NC377195  11.873   3.898   5.226
 6123POPC   PO477196  12.321   4.300   5.414
 6123POPC   GL177197  12.151   4.479   5.830
 6123POPC   GL277198  11.829   4.615   5.809
 6123POPC   C1A77199  12.038   4.355   6.248
 6123POPC   D2A77200  12.291   4.251   6.590
 6123POPC   C3A77201  12.137   4.131   6.983
 6123POPC   C4A77202  11.994   4.117   7.415
 6123POPC   C1B77203  11.755   4.783   6.263
 6123POPC   C2B77204  11.894   4.620   6.703
 6123POPC   C3B77205  11.994   4.602   7.182
 6123POPC   C4B77206  11.925   4.589   7.661
 6124POPC   NC377207  16.243  19.080   5.619
 6124POPC   PO477208  15.614  19.312   5.633
 6124POPC   GL177209  15.878  19.200   5.974
 6124POPC   GL277210  15.985  18.874   5.984
 6124POPC   C1A77211  16.022  19.085   6.422
 6124POPC   D2A77212  16.141  18.752   6.722
 6124POPC   C3A77213  16.099  18.967   7.122
 6124POPC   C4A77214  16.082  19.086   7.554
 6124POPC   C1B77215  15.745  18.668   6.304
 6124POPC   C2B77216  15.631  18.845   6.715
 6124POPC   C3B77217  15.649  18.690   7.132
 6124POPC   C4B77218  15.783  18.673   7.579
 6125POPC   NC377219   3.782  26.603   5.177
 6125POPC   PO477220   3.270  26.635   5.562
 6125POPC   GL177221   3.635  26.925   5.764
 6125POPC   GL277222   3.836  26.746   6.059
 6125POPC   C1A77223   3.677  27.234   6.121
 6125POPC   D2A77224   3.859  27.159   6.538
 6125POPC   C3A77225   3.609  27.084   6.934
 6125POPC   C4A77226   3.568  26.733   7.196
 6125POPC   C1B77227   3.391  26.772   6.217
 6125POPC   C2B77228   3.080  26.622   6.498
 6125POPC   C3B77229   3.105  26.691   6.943
 6125POPC   C4B77230   3.018  26.570   7.367
 6126POPC   NC377231   6.326  39.274   5.403
 6126POPC   PO477232   6.900  38.961   5.475
 6126POPC   GL177233   6.677  39.124   5.881
 6126POPC   GL277234   6.370  39.317   5.891
 6126POPC   C1A77235   6.558  39.224   6.349
 6126POPC   D2A77236   6.837  39.082   6.678
 6126POPC   C3A77237   6.754  39.108   7.119
 6126POPC   C4A77238   6.334  38.981   7.125
 6126POPC   C1B77239   6.065  39.568   6.106
 6126POPC   C2B77240   6.218  39.664   6.483
 6126POPC   C3B77241   6.247  39.428   6.853
 6126POPC   C4B77242   6.232  39.626   7.220
 6127POPC   NC377243  34.425  38.206   5.445
 6127POPC   PO477244  34.949  38.667   5.394
 6127POPC   GL177245  34.681  38.536   5.758
 6127POPC   GL277246  34.835  38.254   5.868
 6127POPC   C1A77247  34.522  38.513   6.211
 6127POPC   D2A77248  34.275  38.629   6.578
 6127POPC   C3A77249  34.401  38.755   6.997
 6127POPC   C4A77250  34.670  38.471   7.220
 6127POPC   C1B77251  34.792  38.095   6.278
 6127POPC   C2B77252  34.566  38.057   6.702
 6127POPC   C3B77253  34.752  37.922   7.097
 6127POPC   C4B77254  34.979  38.072   7.440
 6128POPC   NC377255  44.856  13.904   5.480
 6128POPC   PO477256  44.526  13.234   5.356
 6128POPC   GL177257  44.636  13.490   5.729
 6128POPC   GL277258  44.486  13.837   5.831
 6128POPC   C1A77259  44.671  13.419   6.171
 6128POPC   D2A77260  44.434  13.273   6.525
 6128POPC   C3A77261  44.533  13.526   6.848
 6128POPC   C4A77262  44.817  13.436   7.184
 6128POPC   C1B77263  44.800  13.920   6.165
 6128POPC   C2B77264  44.920  13.768   6.582
 6128POPC   C3B77265  44.861  13.913   7.009
 6128POPC   C4B77266  44.866  13.938   7.475
 6129POPC   NC377267  28.796   2.993   5.289
 6129POPC   PO477268  28.770   2.327   5.440
 6129POPC   GL177269  28.957   2.701   5.694
 6129POPC   GL277270  29.300   2.660   5.789
 6129POPC   C1A77271  28.984   2.850   6.160
 6129POPC   D2A77272  28.852   2.756   6.613
 6129POPC   C3A77273  29.071   2.861   6.985
 6129POPC   C4A77274  29.426   3.060   7.119
 6129POPC   C1B77275  29.384   2.533   6.228
 6129POPC   C2B77276  29.387   2.628   6.662
 6129POPC   C3B77277  29.603   2.579   7.068
 6129POPC   C4B77278  29.791   2.591   7.500
 6130POPC   NC377279  40.743   5.865   5.335
 6130POPC   PO477280  41.108   5.650   5.826
 6130POPC   GL177281  40.774   5.933   5.850
 6130POPC   GL277282  40.525   5.652   5.818
 6130POPC   C1A77283  40.841   6.190   6.212
 6130POPC   D2A77284  40.625   6.117   6.579
 6130POPC   C3A77285  40.744   5.909   6.935
 6130POPC   C4A77286  40.974   6.192   7.142
 6130POPC   C1B77287  40.632   5.634   6.278
 6130POPC   C2B77288  40.644   5.352   6.645
 6130POPC   C3B77289  40.548   5.446   7.067
 6130POPC   C4B77290  40.240   5.720   7.206
 6131POPC   NC377291  17.065   0.007   5.515
 6131POPC   PO477292  16.553  44.565   5.297
 6131POPC   GL177293  16.843  44.545   5.652
 6131POPC   GL277294  16.664  44.843   5.789
 6131POPC   C1A77295  16.852  44.480   6.116
 6131POPC   D2A77296  16.609  44.583   6.496
 6131POPC   C3A77297  16.701  44.462   6.915
 6131POPC   C4A77298  16.736  44.242   7.315
 6131POPC   C1B77299  16.796   0.009   6.194
 6131POPC   C2B77300  16.931  44.966   6.616
 6131POPC   C3B77301  16.832  44.943   7.019
 6131POPC   C4B77302  17.017  44.671   7.323
 6132POPC   NC377303  30.838  17.856   5.735
 6132POPC   PO477304  30.708  18.466   5.454
 6132POPC   GL177305  30.618  18.332   5.870
 6132POPC   GL277306  30.368  18.586   5.857
 6132POPC   C1A77307  30.790  18.216   6.312
 6132POPC   D2A77308  30.695  18.217   6.767
 6132POPC   C3A77309  30.863  17.958   7.137
 6132POPC   C4A77310  30.923  18.090   7.605
 6132POPC   C1B77311  30.434  18.667   6.276
 6132POPC   C2B77312  30.222  18.549   6.645
 6132POPC   C3B77313  30.461  18.641   6.992
 6132POPC   C4B77314  30.762  18.440   7.237
 6133POPC   NC377315  23.428  22.669   5.506
 6133POPC   PO477316  23.906  23.098   5.251
 6133POPC   GL177317  23.841  22.944   5.679
 6133POPC   GL277318  23.937  23.208   5.892
 6133POPC   C1A77319  23.648  22.837   6.108
 6133POPC   D2A77320  23.761  22.986   6.533
 6133POPC   C3A77321  23.589  22.767   6.925
 6133POPC   C4A77322  23.654  22.773   7.400
 6133POPC   C1B77323  24.154  23.333   6.266
 6133POPC   C2B77324  24.222  23.182   6.708
 6133POPC   C3B77325  23.956  23.096   7.063
 6133POPC   C4B77326  23.940  23.214   7.530
 6134POPC   NC377327  34.231  32.558   5.502
 6134POPC   PO477328  33.666  32.245   5.427
 6134POPC   GL177329  33.484  32.022   5.777
 6134POPC   GL277330  33.794  31.939   5.864
 6134POPC   C1A77331  33.441  32.153   6.239
 6134POPC   D2A77332  33.526  32.471   6.576
 6134POPC   C3A77333  33.495  32.315   7.018
 6134POPC   C4A77334  33.686  32.317   7.443
 6134POPC   C1B77335  33.950  32.017   6.268
 6134POPC   C2B77336  33.782  32.046   6.676
 6134POPC   C3B77337  33.970  32.047   7.085
 6134POPC   C4B77338  34.289  31.862   7.388
 6135POPC   NC377339  11.687  11.836   5.576
 6135POPC   PO477340  12.204  12.227   5.398
 6135POPC   GL177341  12.307  12.176   5.801
 6135POPC   GL277342  11.950  12.185   5.896
 6135POPC   C1A77343  12.360  12.222   6.224
 6135POPC   D2A77344  12.097  12.287   6.569
 6135POPC   C3A77345  12.353  12.260   6.920
 6135POPC   C4A77346  12.358  12.089   7.316
 6135POPC   C1B77347  11.911  11.921   6.269
 6135POPC   C2B77348  11.839  11.834   6.719
 6135POPC   C3B77349  11.895  11.974   7.149
 6135POPC   C4B77350  11.622  12.080   7.496
 6136POPC   NC377351  31.671  19.222   5.087
 6136POPC   PO477352  31.102  19.154   5.455
 6136POPC   GL177353  31.244  19.089   5.903
 6136POPC   GL277354  31.377  18.742   5.983
 6136POPC   C1A77355  31.227  19.307   6.317
 6136POPC   D2A77356  31.130  19.123   6.722
 6136POPC   C3A77357  31.194  19.346   7.103
 6136POPC   C4A77358  31.526  19.532   7.288
 6136POPC   C1B77359  31.647  19.002   6.245
 6136POPC   C2B77360  31.759  19.114   6.694
 6136POPC   C3B77361  31.577  18.998   7.096
 6136POPC   C4B77362  31.681  18.770   7.491
 6137POPC   NC377363  12.809   8.727   5.387
 6137POPC   PO477364  13.350   9.021   5.535
 6137POPC   GL177365  13.092   8.801   5.848
 6137POPC   GL277366  12.688   8.779   5.873
 6137POPC   C1A77367  12.968   8.932   6.263
 6137POPC   D2A77368  12.662   8.944   6.576
 6137POPC   C3A77369  12.880   8.911   6.967
 6137POPC   C4A77370  12.711   9.003   7.338
 6137POPC   C1B77371  12.611   8.548   6.266
 6137POPC   C2B77372  12.468   8.416   6.713
 6137POPC   C3B77373  12.627   8.474   7.184
 6137POPC   C4B77374  12.584   8.607   7.661
 6138POPC   NC377375  33.311  39.992   5.402
 6138POPC   PO477376  32.610  39.783   5.381
 6138POPC   GL177377  32.910  39.809   5.709
 6138POPC   GL277378  32.976  40.165   5.783
 6138POPC   C1A77379  32.958  39.842   6.169
 6138POPC   D2A77380  33.102  40.001   6.568
 6138POPC   C3A77381  33.026  39.878   6.990
 6138POPC   C4A77382  33.413  39.726   7.173
 6138POPC   C1B77383  32.936  40.373   6.210
 6138POPC   C2B77384  32.809  40.393   6.659
 6138POPC   C3B77385  33.035  40.377   7.050
 6138POPC   C4B77386  32.943  40.311   7.511
 6139POPC   NC377387   3.826   7.205   5.540
 6139POPC   PO477388   4.379   7.601   5.402
 6139POPC   GL177389   4.175   7.574   5.793
 6139POPC   GL277390   4.230   7.216   5.859
 6139POPC   C1A77391   4.290   7.598   6.239
 6139POPC   D2A77392   4.237   7.399   6.654
 6139POPC   C3A77393   4.140   7.586   7.043
 6139POPC   C4A77394   4.273   7.704   7.479
 6139POPC   C1B77395   4.256   7.040   6.273
 6139POPC   C2B77396   4.596   7.050   6.584
 6139POPC   C3B77397   4.610   7.210   7.011
 6139POPC   C4B77398   4.298   7.177   7.336
 6140POPC   NC377399  38.929  13.230   5.570
 6140POPC   PO477400  39.353  12.718   5.532
 6140POPC   GL177401  39.427  12.838   5.938
 6140POPC   GL277402  39.115  12.959   5.949
 6140POPC   C1A77403  39.374  12.854   6.379
 6140POPC   D2A77404  39.280  12.626   6.739
 6140POPC   C3A77405  39.189  12.834   7.116
 6140POPC   C4A77406  39.415  12.674   7.473
 6140POPC   C1B77407  38.945  13.147   6.288
 6140POPC   C2B77408  38.892  12.994   6.706
 6140POPC   C3B77409  38.698  12.968   7.128
 6140POPC   C4B77410  38.879  12.716   7.488
 6141POPC   NC377411  28.749  22.333   5.334
 6141POPC   PO477412  28.233  21.921   5.406
 6141POPC   GL177413  28.482  22.032   5.809
 6141POPC   GL277414  28.565  22.412   5.807
 6141POPC   C1A77415  28.387  21.931   6.290
 6141POPC   D2A77416  28.070  21.984   6.668
 6141POPC   C3A77417  28.270  21.913   7.087
 6141POPC   C4A77418  28.717  22.007   7.145
 6141POPC   C1B77419  28.270  22.411   6.138
 6141POPC   C2B77420  28.421  22.360   6.566
 6141POPC   C3B77421  28.249  22.410   6.952
 6141POPC   C4B77422  28.285  22.381   7.373
 6142POPC   NC377423  38.950  44.079   5.659
 6142POPC   PO477424  39.460  43.782   5.431
 6142POPC   GL177425  39.441  44.084   5.832
 6142POPC   GL277426  39.164  44.306   6.041
 6142POPC   C1A77427  39.493  43.970   6.272
 6142POPC   D2A77428  39.310  43.762   6.636
 6142POPC   C3A77429  39.304  44.062   6.954
 6142POPC   C4A77430  39.274  44.150   7.379
 6142POPC   C1B77431  38.916  44.036   6.306
 6142POPC   C2B77432  38.830  43.929   6.720
 6142POPC   C3B77433  38.812  44.154   7.083
 6142POPC   C4B77434  38.695  43.894   7.364
 6143POPC   NC377435   6.679  40.167   5.587
 6143POPC   PO477436   6.222  39.712   5.481
 6143POPC   GL177437   6.471  39.819   5.893
 6143POPC   GL277438   6.802  39.641   5.923
 6143POPC   C1A77439   6.580  40.113   6.251
 6143POPC   D2A77440   6.536  40.022   6.685
 6143POPC   C3A77441   6.817  40.079   7.032
 6143POPC   C4A77442   6.695  40.073   7.474
 6143POPC   C1B77443   6.817  39.683   6.384
 6143POPC   C2B77444   6.748  39.571   6.831
 6143POPC   C3B77445   6.722  39.598   7.304
 6143POPC   C4B77446   6.742  39.640   7.774
 6144POPC   NC377447  13.003   3.490   5.393
 6144POPC   PO477448  12.540   3.853   5.584
 6144POPC   GL177449  12.779   3.557   5.841
 6144POPC   GL277450  13.185   3.528   5.848
 6144POPC   C1A77451  12.626   3.360   6.183
 6144POPC   D2A77452  12.692   3.467   6.558
 6144POPC   C3A77453  12.695   3.194   6.856
 6144POPC   C4A77454  12.695   3.328   7.240
 6144POPC   C1B77455  13.083   3.655   6.234
 6144POPC   C2B77456  13.164   3.722   6.619
 6144POPC   C3B77457  12.962   3.681   6.960
 6144POPC   C4B77458  13.123   3.579   7.325
 6145POPC   NC377459  18.009  15.480   5.290
 6145POPC   PO477460  18.440  15.004   5.546
 6145POPC   GL177461  18.134  15.106   5.831
 6145POPC   GL277462  18.000  15.470   5.824
 6145POPC   C1A77463  18.203  15.112   6.258
 6145POPC   D2A77464  18.064  15.278   6.638
 6145POPC   C3A77465  18.377  15.185   6.903
 6145POPC   C4A77466  18.214  15.070   7.261
 6145POPC   C1B77467  18.135  15.621   6.221
 6145POPC   C2B77468  18.134  15.790   6.645
 6145POPC   C3B77469  18.148  15.618   7.072
 6145POPC   C4B77470  18.571  15.541   7.264
 6146POPC   NC377471  18.447  30.988   5.337
 6146POPC   PO477472  18.808  30.373   5.397
 6146POPC   GL177473  18.439  30.473   5.702
 6146POPC   GL277474  18.391  30.822   5.813
 6146POPC   C1A77475  18.265  30.406   6.149
 6146POPC   D2A77476  18.454  30.406   6.589
 6146POPC   C3A77477  18.221  30.387   6.972
 6146POPC   C4A77478  18.421  30.556   7.331
 6146POPC   C1B77479  18.256  30.955   6.207
 6146POPC   C2B77480  18.402  30.959   6.639
 6146POPC   C3B77481  18.283  30.980   7.070
 6146POPC   C4B77482  18.002  30.819   7.410
 6147POPC   NC377483  30.181  37.405   5.334
 6147POPC   PO477484  29.738  37.867   5.289
 6147POPC   GL177485  29.801  37.756   5.740
 6147POPC   GL277486  30.068  37.972   5.908
 6147POPC   C1A77487  29.717  37.622   6.173
 6147POPC   D2A77488  29.869  37.749   6.570
 6147POPC   C3A77489  29.811  37.545   6.953
 6147POPC   C4A77490  29.957  37.798   7.271
 6147POPC   C1B77491  30.233  37.584   6.040
 6147POPC   C2B77492  30.278  37.385   6.422
 6147POPC   C3B77493  30.322  37.503   6.829
 6147POPC   C4B77494  30.212  37.336   7.224
 6148POPC   NC377495  20.510  20.083   5.473
 6148POPC   PO477496  21.007  19.719   5.705
 6148POPC   GL177497  20.660  19.861   5.907
 6148POPC   GL277498  20.840  20.177   5.878
 6148POPC   C1A77499  20.490  19.777   6.309
 6148POPC   D2A77500  20.584  19.561   6.692
 6148POPC   C3A77501  20.471  19.833   7.012
 6148POPC   C4A77502  20.473  20.001   7.401
 6148POPC   C1B77503  20.972  19.974   6.287
 6148POPC   C2B77504  20.846  20.014   6.714
 6148POPC   C3B77505  20.863  20.155   7.138
 6148POPC   C4B77506  21.008  19.926   7.557
 6149POPC   NC377507  27.047  39.359   5.767
 6149POPC   PO477508  27.633  39.123   5.422
 6149POPC   GL177509  27.507  39.121   5.793
 6149POPC   GL277510  27.576  39.475   5.812
 6149POPC   C1A77511  27.693  39.110   6.193
 6149POPC   D2A77512  28.023  39.105   6.510
 6149POPC   C3A77513  27.853  39.077   6.907
 6149POPC   C4A77514  27.685  38.918   7.302
 6149POPC   C1B77515  27.635  39.673   6.185
 6149POPC   C2B77516  27.679  39.497   6.563
 6149POPC   C3B77517  27.768  39.650   6.942
 6149POPC   C4B77518  27.699  39.414   7.259
 6150POPC   NC377519   5.427  44.877   5.416
 6150POPC   PO477520   4.893  44.503   5.262
 6150POPC   GL177521   5.064  44.686   5.709
 6150POPC   GL277522   5.387  44.497   5.778
 6150POPC   C1A77523   4.925  44.794   6.164
 6150POPC   D2A77524   4.893   0.003   6.594
 6150POPC   C3A77525   4.849  44.688   6.915
 6150POPC   C4A77526   4.812  44.740   7.304
 6150POPC   C1B77527   5.426  44.547   6.204
 6150POPC   C2B77528   5.230  44.630   6.582
 6150POPC   C3B77529   5.338  44.736   7.005
 6150POPC   C4B77530   5.636  44.532   7.223
 6151POPC   NC377531  44.963  14.731   5.446
 6151POPC   PO477532  44.495  14.227   5.462
 6151POPC   GL177533  44.362  14.353   5.840
 6151POPC   GL277534  44.421  14.707   5.817
 6151POPC   C1A77535  44.340  14.177   6.238
 6151POPC   D2A77536  44.630  14.220   6.580
 6151POPC   C3A77537  44.536  14.528   6.887
 6151POPC   C4A77538  44.704  14.357   7.239
 6151POPC   C1B77539  44.571  14.647   6.243
 6151POPC   C2B77540  44.863  14.753   6.566
 6151POPC   C3B77541   0.029  14.719   6.971
 6151POPC   C4B77542  44.787  14.837   7.325
 6152POPC   NC377543   2.271  36.227   5.466
 6152POPC   PO477544   1.711  35.779   5.589
 6152POPC   GL177545   1.924  36.063   5.822
 6152POPC   GL277546   2.251  35.869   5.811
 6152POPC   C1A77547   1.841  36.335   6.185
 6152POPC   D2A77548   2.036  36.498   6.547
 6152POPC   C3A77549   1.982  36.307   6.912
 6152POPC   C4A77550   1.809  36.368   7.296
 6152POPC   C1B77551   2.284  36.082   6.174
 6152POPC   C2B77552   2.103  35.964   6.525
 6152POPC   C3B77553   2.270  35.881   6.914
 6152POPC   C4B77554   2.208  36.029   7.280
 6153POPC   NC377555  17.484  22.837   5.342
 6153POPC   PO477556  17.177  23.416   5.506
 6153POPC   GL177557  17.438  23.080   5.797
 6153POPC   GL277558  17.350  22.676   5.826
 6153POPC   C1A77559  17.533  22.917   6.239
 6153POPC   D2A77560  17.623  23.141   6.633
 6153POPC   C3A77561  17.564  22.955   7.016
 6153POPC   C4A77562  17.295  23.022   7.326
 6153POPC   C1B77563  17.163  22.550   6.237
 6153POPC   C2B77564  17.211  22.779   6.627
 6153POPC   C3B77565  17.136  22.623   7.025
 6153POPC   C4B77566  17.236  22.478   7.409
 6154POPC   NC377567  39.290   0.050   5.197
 6154POPC   PO477568  39.049  44.504   5.531
 6154POPC   GL177569  39.419  44.639   5.741
 6154POPC   GL277570  39.263  44.986   5.731
 6154POPC   C1A77571  39.615  44.492   6.153
 6154POPC   D2A77572  39.390  44.430   6.580
 6154POPC   C3A77573  39.536  44.514   7.040
 6154POPC   C4A77574  39.560  44.570   7.517
 6154POPC   C1B77575  39.065   0.058   6.139
 6154POPC   C2B77576  38.908  44.958   6.558
 6154POPC   C3B77577  39.145  44.804   6.894
 6154POPC   C4B77578  39.077  44.614   7.306
 6155POPC   NC377579  14.541  30.563   5.279
 6155POPC   PO477580  14.798  31.143   5.465
 6155POPC   GL177581  14.708  30.766   5.753
 6155POPC   GL277582  14.389  30.547   5.792
 6155POPC   C1A77583  14.773  30.565   6.183
 6155POPC   D2A77584  14.846  30.777   6.620
 6155POPC   C3A77585  14.678  30.619   7.035
 6155POPC   C4A77586  14.364  30.594   7.353
 6155POPC   C1B77587  14.276  30.675   6.260
 6155POPC   C2B77588  14.290  30.770   6.725
 6155POPC   C3B77589  13.977  30.730   7.073
 6155POPC   C4B77590  13.974  30.825   7.589
 6156POPC   NC377591   9.740  21.766   5.588
 6156POPC   PO477592   9.557  22.290   5.200
 6156POPC   GL177593   9.831  22.321   5.625
 6156POPC   GL277594   9.674  22.137   5.916
 6156POPC   C1A77595  10.043  22.411   6.084
 6156POPC   D2A77596   9.732  22.320   6.434
 6156POPC   C3A77597   9.779  22.412   6.873
 6156POPC   C4A77598   9.822  22.353   7.322
 6156POPC   C1B77599   9.613  21.849   6.257
 6156POPC   C2B77600   9.483  21.881   6.690
 6156POPC   C3B77601   9.640  21.920   7.106
 6156POPC   C4B77602   9.554  21.985   7.547
 6157POPC   NC377603  11.419  18.237   5.118
 6157POPC   PO477604  11.500  18.772   5.457
 6157POPC   GL177605  11.595  18.480   5.836
 6157POPC   GL277606  11.399  18.146   5.832
 6157POPC   C1A77607  11.620  18.449   6.276
 6157POPC   D2A77608  11.307  18.347   6.595
 6157POPC   C3A77609  11.370  18.483   7.027
 6157POPC   C4A77610  11.373  18.509   7.489
 6157POPC   C1B77611  11.145  18.002   6.203
 6157POPC   C2B77612  11.128  17.821   6.607
 6157POPC   C3B77613  11.384  17.913   6.948
 6157POPC   C4B77614  11.245  18.055   7.316
 6158POPC   NC377615  41.227   5.052   5.578
 6158POPC   PO477616  40.560   4.854   5.568
 6158POPC   GL177617  40.484   5.085   5.934
 6158POPC   GL277618  40.815   5.234   5.934
 6158POPC   C1A77619  40.671   4.914   6.326
 6158POPC   D2A77620  40.968   4.878   6.684
 6158POPC   C3A77621  40.690   4.961   7.011
 6158POPC   C4A77622  40.693   5.049   7.427
 6158POPC   C1B77623  41.061   5.243   6.328
 6158POPC   C2B77624  41.133   5.418   6.735
 6158POPC   C3B77625  41.040   5.356   7.202
 6158POPC   C4B77626  41.020   5.341   7.690
 6159POPC   NC377627   6.512  22.431   5.548
 6159POPC   PO477628   6.485  21.811   5.246
 6159POPC   GL177629   6.421  21.977   5.754
 6159POPC   GL277630   6.194  21.801   5.969
 6159POPC   C1A77631   6.529  22.119   6.217
 6159POPC   D2A77632   6.684  22.324   6.608
 6159POPC   C3A77633   6.484  22.433   6.977
 6159POPC   C4A77634   6.723  22.506   7.326
 6159POPC   C1B77635   6.068  21.797   6.368
 6159POPC   C2B77636   6.323  21.915   6.683
 6159POPC   C3B77637   6.249  21.984   7.074
 6159POPC   C4B77638   6.572  22.037   7.323
 6160POPC   NC377639   3.881   9.913   5.375
 6160POPC   PO477640   4.333  10.302   5.461
 6160POPC   GL177641   4.512  10.445   5.857
 6160POPC   GL277642   4.798  10.651   5.858
 6160POPC   C1A77643   4.601  10.267   6.269
 6160POPC   D2A77644   4.249  10.226   6.548
 6160POPC   C3A77645   4.136  10.355   6.946
 6160POPC   C4A77646   3.955  10.665   7.129
 6160POPC   C1B77647   4.656  10.768   6.296
 6160POPC   C2B77648   4.465  10.690   6.723
 6160POPC   C3B77649   4.497  10.689   7.189
 6160POPC   C4B77650   4.676  11.037   7.483
 6161POPC   NC377651  41.445  26.268   5.527
 6161POPC   PO477652  41.464  25.613   5.511
 6161POPC   GL177653  41.492  25.907   5.909
 6161POPC   GL277654  41.724  26.225   5.944
 6161POPC   C1A77655  41.600  25.883   6.365
 6161POPC   D2A77656  41.851  26.011   6.746
 6161POPC   C3A77657  41.590  26.052   7.106
 6161POPC   C4A77658  41.429  25.825   7.457
 6161POPC   C1B77659  41.415  26.427   6.203
 6161POPC   C2B77660  41.333  26.279   6.619
 6161POPC   C3B77661  41.367  26.508   6.986
 6161POPC   C4B77662  41.033  26.588   7.227
 6162POPC   NC377663  38.988  29.132   5.413
 6162POPC   PO477664  38.421  29.240   5.304
 6162POPC   GL177665  38.558  29.066   5.739
 6162POPC   GL277666  38.850  28.803   5.771
 6162POPC   C1A77667  38.351  29.203   6.157
 6162POPC   D2A77668  38.420  29.389   6.575
 6162POPC   C3A77669  38.441  29.216   7.030
 6162POPC   C4A77670  38.144  29.117   7.393
 6162POPC   C1B77671  38.786  28.947   6.198
 6162POPC   C2B77672  38.623  28.892   6.619
 6162POPC   C3B77673  38.767  28.793   7.032
 6162POPC   C4B77674  38.937  29.026   7.364
 6163POPC   NC377675  28.303   7.677   5.146
 6163POPC   PO477676  28.668   7.073   5.338
 6163POPC   GL177677  28.485   7.313   5.686
 6163POPC   GL277678  28.589   7.075   5.889
 6163POPC   C1A77679  28.434   7.537   6.116
 6163POPC   D2A77680  28.171   7.436   6.503
 6163POPC   C3A77681  28.387   7.477   6.870
 6163POPC   C4A77682  28.417   7.618   7.235
 6163POPC   C1B77683  28.448   7.035   6.303
 6163POPC   C2B77684  28.339   6.973   6.709
 6163POPC   C3B77685  28.048   7.119   6.971
 6163POPC   C4B77686  28.270   7.135   7.341
 6164POPC   NC377687  27.607   5.349   5.253
 6164POPC   PO477688  27.849   4.668   5.404
 6164POPC   GL177689  27.581   4.972   5.693
 6164POPC   GL277690  27.273   4.792   5.795
 6164POPC   C1A77691  27.502   5.181   6.142
 6164POPC   D2A77692  27.280   5.319   6.559
 6164POPC   C3A77693  27.504   5.261   6.973
 6164POPC   C4A77694  27.455   5.036   7.371
 6164POPC   C1B77695  27.593   4.662   6.138
 6164POPC   C2B77696  27.785   4.833   6.540
 6164POPC   C3B77697  27.759   4.798   6.992
 6164POPC   C4B77698  27.380   4.602   7.125
 6165POPC   NC377699  22.277  17.943   5.659
 6165POPC   PO477700  21.966  18.548   5.416
 6165POPC   GL177701  22.014  18.373   5.802
 6165POPC   GL277702  22.338  18.406   5.857
 6165POPC   C1A77703  21.892  18.238   6.209
 6165POPC   D2A77704  21.901  18.072   6.625
 6165POPC   C3A77705  21.964  18.298   7.002
 6165POPC   C4A77706  21.700  18.399   7.342
 6165POPC   C1B77707  22.274  18.544   6.249
 6165POPC   C2B77708  22.326  18.348   6.616
 6165POPC   C3B77709  22.474  18.314   7.035
 6165POPC   C4B77710  22.568  17.941   7.280
 6166POPC   NC377711   6.412  36.905   5.176
 6166POPC   PO477712   6.988  36.913   5.588
 6166POPC   GL177713   6.821  36.781   5.939
 6166POPC   GL277714   6.462  36.716   5.903
 6166POPC   C1A77715   6.828  36.872   6.364
 6166POPC   D2A77716   6.642  37.209   6.578
 6166POPC   C3A77717   6.620  37.124   6.975
 6166POPC   C4A77718   6.951  37.183   7.247
 6166POPC   C1B77719   6.330  36.895   6.306
 6166POPC   C2B77720   6.313  36.742   6.709
 6166POPC   C3B77721   6.321  36.694   7.128
 6166POPC   C4B77722   6.751  36.699   7.258
 6167POPC   NC377723  27.994  44.334   5.485
 6167POPC   PO477724  27.372  44.729   5.513
 6167POPC   GL177725  27.680  44.591   5.830
 6167POPC   GL277726  27.868  44.870   6.000
 6167POPC   C1A77727  27.591  44.407   6.233
 6167POPC   D2A77728  27.560  44.209   6.643
 6167POPC   C3A77729  27.765  44.430   6.947
 6167POPC   C4A77730  27.756  44.585   7.344
 6167POPC   C1B77731  27.548  44.985   6.245
 6167POPC   C2B77732  27.421   0.155   6.635
 6167POPC   C3B77733  27.633  44.938   6.984
 6167POPC   C4B77734  27.822   0.095   7.372
 6168POPC   NC377735  20.593  41.418   5.410
 6168POPC   PO477736  21.037  40.927   5.664
 6168POPC   GL177737  20.866  41.344   5.835
 6168POPC   GL277738  20.537  41.596   5.874
 6168POPC   C1A77739  20.873  41.554   6.230
 6168POPC   D2A77740  20.674  41.493   6.623
 6168POPC   C3A77741  20.884  41.728   6.920
 6168POPC   C4A77742  20.707  41.552   7.218
 6168POPC   C1B77743  20.198  41.487   6.196
 6168POPC   C2B77744  20.176  41.236   6.603
 6168POPC   C3B77745  20.341  41.216   7.042
 6168POPC   C4B77746  20.334  41.386   7.490
 6169POPC   NC377747  10.244  36.010   5.413
 6169POPC   PO477748  10.738  36.359   5.144
 6169POPC   GL177749  10.633  36.229   5.725
 6169POPC   GL277750  10.422  36.026   5.875
 6169POPC   C1A77751  10.599  36.345   6.189
 6169POPC   D2A77752  10.404  36.174   6.544
 6169POPC   C3A77753  10.532  36.305   6.931
 6169POPC   C4A77754  10.581  36.032   7.294
 6169POPC   C1B77755  10.218  35.859   6.181
 6169POPC   C2B77756  10.194  35.675   6.562
 6169POPC   C3B77757  10.233  35.869   6.934
 6169POPC   C4B77758  10.133  35.789   7.329
 6170POPC   NC377759  30.075  39.792   5.418
 6170POPC   PO477760  29.529  40.170   5.408
 6170POPC   GL177761  29.781  40.042   5.763
 6170POPC   GL277762  29.614  39.708   5.739
 6170POPC   C1A77763  30.017  40.143   6.178
 6170POPC   D2A77764  29.816  40.219   6.600
 6170POPC   C3A77765  30.036  40.114   6.986
 6170POPC   C4A77766  30.224  40.116   7.385
 6170POPC   C1B77767  29.627  39.814   6.195
 6170POPC   C2B77768  29.658  39.730   6.607
 6170POPC   C3B77769  29.583  39.881   7.053
 6170POPC   C4B77770  29.677  40.093   7.454
 6171POPC   NC377771  20.495  20.898   5.284
 6171POPC   PO477772  20.884  20.374   5.409
 6171POPC   GL177773  20.651  20.647   5.730
 6171POPC   GL277774  20.825  20.672   6.062
 6171POPC   C1A77775  20.340  20.744   6.079
 6171POPC   D2A77776  20.394  20.725   6.560
 6171POPC   C3A77777  20.841  20.842   6.732
 6171POPC   C4A77778  21.073  20.966   7.121
 6171POPC   C1B77779  20.568  20.315   6.266
 6171POPC   C2B77780  20.346  20.184   6.629
 6171POPC   C3B77781  20.336  20.347   7.033
 6171POPC   C4B77782  20.651  20.640   7.168
 6172POPC   NC377783  28.086  30.075   5.334
 6172POPC   PO477784  28.636  30.545   5.529
 6172POPC   GL177785  28.611  30.158   5.862
 6172POPC   GL277786  28.240  30.046   5.926
 6172POPC   C1A77787  28.609  29.835   6.229
 6172POPC   D2A77788  28.357  29.728   6.612
 6172POPC   C3A77789  28.527  29.859   6.988
 6172POPC   C4A77790  28.332  29.800   7.367
 6172POPC   C1B77791  28.285  30.209   6.391
 6172POPC   C2B77792  28.148  30.424   6.780
 6172POPC   C3B77793  28.115  30.187   7.145
 6172POPC   C4B77794  28.170  30.181   7.640
 6173POPC   NC377795  19.180  44.254   5.226
 6173POPC   PO477796  18.750  43.749   5.470
 6173POPC   GL177797  19.123  43.926   5.701
 6173POPC   GL277798  19.332  43.674   5.889
 6173POPC   C1A77799  19.169  44.122   6.129
 6173POPC   D2A77800  18.988  44.073   6.531
 6173POPC   C3A77801  19.217  44.102   6.909
 6173POPC   C4A77802  19.164  44.269   7.313
 6173POPC   C1B77803  19.145  43.625   6.300
 6173POPC   C2B77804  18.901  43.592   6.691
 6173POPC   C3B77805  18.793  43.534   7.103
 6173POPC   C4B77806  19.103  43.743   7.314
 6174POPC   NC377807   3.480  34.930   5.321
 6174POPC   PO477808   3.471  35.626   5.254
 6174POPC   GL177809   3.395  35.301   5.628
 6174POPC   GL277810   3.722  35.168   5.742
 6174POPC   C1A77811   3.314  35.250   6.074
 6174POPC   D2A77812   3.452  35.504   6.413
 6174POPC   C3A77813   3.290  35.351   6.788
 6174POPC   C4A77814   3.449  35.292   7.165
 6174POPC   C1B77815   3.916  35.202   6.168
 6174POPC   C2B77816   4.036  35.054   6.598
 6174POPC   C3B77817   3.936  35.192   7.028
 6174POPC   C4B77818   4.152  35.118   7.403
 6175POPC   NC377819   8.602   8.451   5.472
 6175POPC   PO477820   8.032   8.073   5.347
 6175POPC   GL177821   8.253   8.069   5.787
 6175POPC   GL277822   8.261   8.410   5.834
 6175POPC   C1A77823   8.403   8.200   6.261
 6175POPC   D2A77824   8.278   8.349   6.702
 6175POPC   C3A77825   8.116   8.068   7.064
 6175POPC   C4A77826   8.035   7.822   7.444
 6175POPC   C1B77827   7.853   8.493   6.000
 6175POPC   C2B77828   7.749   8.561   6.430
 6175POPC   C3B77829   7.883   8.670   6.839
 6175POPC   C4B77830   8.168   8.570   7.161
 6176POPC   NC377831  26.801  37.328   5.504
 6176POPC   PO477832  26.692  36.749   5.695
 6176POPC   GL177833  26.935  37.044   5.921
 6176POPC   GL277834  26.636  37.250   5.966
 6176POPC   C1A77835  26.897  36.969   6.364
 6176POPC   D2A77836  26.591  36.729   6.614
 6176POPC   C3A77837  26.703  36.676   7.043
 6176POPC   C4A77838  26.815  36.781   7.502
 6176POPC   C1B77839  26.409  37.178   6.328
 6176POPC   C2B77840  26.436  37.244   6.782
 6176POPC   C3B77841  26.601  37.160   7.210
 6176POPC   C4B77842  26.613  37.236   7.696
 6177POPC   NC377843  15.080   4.953   5.394
 6177POPC   PO477844  15.452   5.451   5.541
 6177POPC   GL177845  15.237   5.154   5.827
 6177POPC   GL277846  14.839   5.152   5.799
 6177POPC   C1A77847  15.388   5.071   6.210
 6177POPC   D2A77848  15.331   5.303   6.558
 6177POPC   C3A77849  15.387   5.048   6.897
 6177POPC   C4A77850  15.587   5.145   7.236
 6177POPC   C1B77851  14.891   5.197   6.238
 6177POPC   C2B77852  14.925   4.997   6.641
 6177POPC   C3B77853  14.953   5.306   6.947
 6177POPC   C4B77854  15.114   5.298   7.373
 6178POPC   NC377855   8.813  21.634   5.618
 6178POPC   PO477856   9.253  21.113   5.456
 6178POPC   GL177857   9.079  21.304   5.857
 6178POPC   GL277858   8.734  21.248   5.935
 6178POPC   C1A77859   8.974  21.537   6.258
 6178POPC   D2A77860   8.695  21.452   6.596
 6178POPC   C3A77861   8.923  21.536   6.953
 6178POPC   C4A77862   8.882  21.421   7.373
 6178POPC   C1B77863   8.598  21.022   6.298
 6178POPC   C2B77864   8.400  21.043   6.713
 6178POPC   C3B77865   8.625  20.958   7.084
 6178POPC   C4B77866   8.573  21.041   7.537
 6179POPC   NC377867  22.347  28.257   5.253
 6179POPC   PO477868  21.987  28.762   5.550
 6179POPC   GL177869  22.191  28.496   5.887
 6179POPC   GL277870  22.363  28.170   5.781
 6179POPC   C1A77871  22.158  28.580   6.338
 6179POPC   D2A77872  22.281  28.563   6.756
 6179POPC   C3A77873  22.052  28.660   7.090
 6179POPC   C4A77874  21.910  28.272   7.197
 6179POPC   C1B77875  22.518  28.206   6.217
 6179POPC   C2B77876  22.637  28.072   6.631
 6179POPC   C3B77877  22.523  28.228   7.051
 6179POPC   C4B77878  22.527  28.020   7.474
 6180POPC   NC377879  31.128  13.173   5.674
 6180POPC   PO477880  30.591  12.825   5.426
 6180POPC   GL177881  30.565  12.760   5.837
 6180POPC   GL277882  30.730  12.444   5.926
 6180POPC   C1A77883  30.796  12.886   6.176
 6180POPC   D2A77884  30.765  12.750   6.577
 6180POPC   C3A77885  30.668  13.094   6.849
 6180POPC   C4A77886  30.626  13.015   7.287
 6180POPC   C1B77887  30.404  12.500   6.240
 6180POPC   C2B77888  30.438  12.327   6.640
 6180POPC   C3B77889  30.622  12.485   6.995
 6180POPC   C4B77890  30.370  12.445   7.325
 6181POPC   NC377891  28.915   1.884   5.328
 6181POPC   PO477892  28.205   1.676   5.493
 6181POPC   GL177893  28.209   1.967   5.786
 6181POPC   GL277894  28.576   1.988   5.769
 6181POPC   C1A77895  28.017   2.050   6.179
 6181POPC   D2A77896  28.148   1.881   6.567
 6181POPC   C3A77897  28.008   2.016   6.961
 6181POPC   C4A77898  28.239   1.938   7.320
 6181POPC   C1B77899  28.517   2.105   6.198
 6181POPC   C2B77900  28.486   2.312   6.601
 6181POPC   C3B77901  28.565   2.069   6.958
 6181POPC   C4B77902  28.759   2.086   7.353
 6182POPC   NC377903   5.434   3.422   5.460
 6182POPC   PO477904   6.077   3.572   5.396
 6182POPC   GL177905   5.860   3.518   5.773
 6182POPC   GL277906   6.032   3.237   5.860
 6182POPC   C1A77907   5.913   3.625   6.227
 6182POPC   D2A77908   5.676   3.515   6.594
 6182POPC   C3A77909   5.698   3.766   6.945
 6182POPC   C4A77910   5.973   3.844   7.267
 6182POPC   C1B77911   6.046   3.151   6.247
 6182POPC   C2B77912   6.169   3.276   6.614
 6182POPC   C3B77913   5.964   3.317   6.965
 6182POPC   C4B77914   6.095   3.369   7.337
 6183POPC   NC377915  22.788   2.515   5.542
 6183POPC   PO477916  23.366   2.959   5.511
 6183POPC   GL177917  23.074   2.901   5.811
 6183POPC   GL277918  23.193   2.579   5.919
 6183POPC   C1A77919  22.843   2.915   6.194
 6183POPC   D2A77920  22.913   2.718   6.576
 6183POPC   C3A77921  22.734   2.890   6.940
 6183POPC   C4A77922  22.691   2.950   7.382
 6183POPC   C1B77923  23.389   2.536   6.347
 6183POPC   C2B77924  23.289   2.471   6.807
 6183POPC   C3B77925  23.220   2.556   7.214
 6183POPC   C4B77926  23.200   2.886   7.499
 6184POPC   NC377927  14.651   4.383   5.355
 6184POPC   PO477928  15.308   4.546   5.393
 6184POPC   GL177929  15.177   4.499   5.794
 6184POPC   GL277930  14.839   4.635   5.795
 6184POPC   C1A77931  15.007   4.193   6.124
 6184POPC   D2A77932  15.038   3.891   6.486
 6184POPC   C3A77933  14.876   4.040   6.895
 6184POPC   C4A77934  15.114   4.129   7.259
 6184POPC   C1B77935  15.006   4.693   6.226
 6184POPC   C2B77936  15.112   4.426   6.593
 6184POPC   C3B77937  15.223   4.570   7.022
 6184POPC   C4B77938  14.916   4.859   7.182
 6185POPC   NC377939  17.114  20.279   5.501
 6185POPC   PO477940  17.558  20.794   5.539
 6185POPC   GL177941  17.738  20.644   5.906
 6185POPC   GL277942  17.739  20.275   5.801
 6185POPC   C1A77943  17.584  20.751   6.325
 6185POPC   D2A77944  17.726  20.728   6.744
 6185POPC   C3A77945  17.485  20.916   7.093
 6185POPC   C4A77946  17.588  20.944   7.550
 6185POPC   C1B77947  17.659  20.255   6.239
 6185POPC   C2B77948  17.333  20.362   6.578
 6185POPC   C3B77949  17.428  20.410   7.002
 6185POPC   C4B77950  17.883  20.338   7.090
 6186POPC   NC377951   8.912  13.622   5.331
 6186POPC   PO477952   8.396  13.429   5.685
 6186POPC   GL177953   8.838  13.474   5.852
 6186POPC   GL277954   9.180  13.610   5.740
 6186POPC   C1A77955   8.779  13.589   6.288
 6186POPC   D2A77956   8.766  13.877   6.610
 6186POPC   C3A77957   8.915  13.761   7.016
 6186POPC   C4A77958   8.997  13.448   7.307
 6186POPC   C1B77959   9.224  13.748   6.123
 6186POPC   C2B77960   9.296  13.713   6.556
 6186POPC   C3B77961   9.370  13.504   6.950
 6186POPC   C4B77962   9.450  13.721   7.306
 6187POPC   NC377963  29.094   3.445   5.543
 6187POPC   PO477964  29.503   3.937   5.535
 6187POPC   GL177965  29.277   3.804   5.917
 6187POPC   GL277966  28.964   3.686   5.959
 6187POPC   C1A77967  29.369   3.523   6.281
 6187POPC   D2A77968  29.274   3.246   6.650
 6187POPC   C3A77969  29.230   3.517   6.980
 6187POPC   C4A77970  28.973   3.843   7.098
 6187POPC   C1B77971  28.856   3.378   6.296
 6187POPC   C2B77972  28.745   3.260   6.717
 6187POPC   C3B77973  28.828   3.284   7.164
 6187POPC   C4B77974  28.821   2.950   7.427
 6188POPC   NC377975  34.203  10.827   5.484
 6188POPC   PO477976  33.714  10.442   5.437
 6188POPC   GL177977  33.815  10.641   5.840
 6188POPC   GL277978  33.478  10.842   5.841
 6188POPC   C1A77979  34.035  10.584   6.266
 6188POPC   D2A77980  33.872  10.421   6.707
 6188POPC   C3A77981  33.937  10.637   7.137
 6188POPC   C4A77982  34.094  10.644   7.607
 6188POPC   C1B77983  33.425  10.683   6.253
 6188POPC   C2B77984  33.271  10.799   6.666
 6188POPC   C3B77985  33.437  10.592   7.019
 6188POPC   C4B77986  33.611  10.216   7.177
 6189POPC   NC377987  14.296   6.439   5.376
 6189POPC   PO477988  14.525   5.805   5.418
 6189POPC   GL177989  14.518   5.829   5.850
 6189POPC   GL277990  14.483   6.158   5.796
 6189POPC   C1A77991  14.656   5.935   6.279
 6189POPC   D2A77992  14.425   5.922   6.675
 6189POPC   C3A77993  14.580   5.952   7.085
 6189POPC   C4A77994  14.896   5.722   7.234
 6189POPC   C1B77995  14.221   6.267   6.119
 6189POPC   C2B77996  14.170   6.356   6.567
 6189POPC   C3B77997  14.154   6.239   7.008
 6189POPC   C4B77998  14.386   6.366   7.396
 6190POPC   NC377999  21.721  31.624   5.461
 6190POPC   PO478000  21.303  31.094   5.597
 6190POPC   GL178001  21.528  31.257   5.909
 6190POPC   GL278002  21.348  31.538   5.844
 6190POPC   C1A78003  21.413  31.277   6.343
 6190POPC   D2A78004  21.511  31.477   6.719
 6190POPC   C3A78005  21.406  31.354   7.122
 6190POPC   C4A78006  21.457  31.270   7.540
 6190POPC   C1B78007  21.053  31.599   6.157
 6190POPC   C2B78008  21.000  31.568   6.587
 6190POPC   C3B78009  21.094  31.847   6.898
 6190POPC   C4B78010  21.097  31.713   7.294
 6191POPC   NC378011  14.931  12.511   5.426
 6191POPC   PO478012  15.203  11.925   5.507
 6191POPC   GL178013  15.257  12.216   5.830
 6191POPC   GL278014  14.961  12.387   5.909
 6191POPC   C1A78015  15.301  12.152   6.275
 6191POPC   D2A78016  15.138  11.928   6.623
 6191POPC   C3A78017  15.286  12.086   6.987
 6191POPC   C4A78018  15.345  12.263   7.346
 6191POPC   C1B78019  14.905  12.491   6.302
 6191POPC   C2B78020  15.122  12.451   6.671
 6191POPC   C3B78021  15.040  12.579   7.068
 6191POPC   C4B78022  15.070  12.663   7.484
 6192POPC   NC378023  18.651  33.584   5.345
 6192POPC   PO478024  18.019  33.843   5.455
 6192POPC   GL178025  18.319  33.901   5.775
 6192POPC   GL278026  18.465  33.586   5.811
 6192POPC   C1A78027  18.238  33.868   6.207
 6192POPC   D2A78028  18.371  33.920   6.619
 6192POPC   C3A78029  18.130  33.886   7.007
 6192POPC   C4A78030  18.147  34.018   7.444
 6192POPC   C1B78031  18.668  33.596   6.195
 6192POPC   C2B78032  18.532  33.432   6.595
 6192POPC   C3B78033  18.551  33.605   7.000
 6192POPC   C4B78034  18.320  33.543   7.384
 6193POPC   NC378035  44.427  19.667   5.491
 6193POPC   PO478036   0.116  19.404   5.423
 6193POPC   GL178037  44.903  19.643   5.741
 6193POPC   GL278038  44.922  20.016   5.763
 6193POPC   C1A78039  44.790  19.706   6.172
 6193POPC   D2A78040  44.614  19.893   6.559
 6193POPC   C3A78041  44.757  19.735   6.944
 6193POPC   C4A78042  44.452  19.510   7.185
 6193POPC   C1B78043  44.639  20.194   6.126
 6193POPC   C2B78044  44.763  20.361   6.551
 6193POPC   C3B78045  44.563  20.289   6.971
 6193POPC   C4B78046  44.575  19.990   7.351
 6194POPC   NC378047   9.499  43.431   5.494
 6194POPC   PO478048  10.042  42.961   5.386
 6194POPC   GL178049   9.845  43.090   5.730
 6194POPC   GL278050   9.899  43.424   5.836
 6194POPC   C1A78051  10.027  43.038   6.138
 6194POPC   D2A78052  10.010  43.225   6.523
 6194POPC   C3A78053  10.027  42.991   6.875
 6194POPC   C4A78054   9.833  43.002   7.270
 6194POPC   C1B78055   9.528  43.198   6.107
 6194POPC   C2B78056   9.331  43.035   6.474
 6194POPC   C3B78057   9.537  43.177   6.846
 6194POPC   C4B78058   9.534  43.425   7.215
 6195POPC   NC378059  20.138  27.916   5.554
 6195POPC   PO478060  19.714  28.523   5.426
 6195POPC   GL178061  19.628  28.351   5.816
 6195POPC   GL278062  19.974  28.352   5.854
 6195POPC   C1A78063  19.672  28.245   6.254
 6195POPC   D2A78064  19.911  28.385   6.596
 6195POPC   C3A78065  19.673  28.183   6.890
 6195POPC   C4A78066  19.465  28.282   7.256
 6195POPC   C1B78067  20.153  28.107   6.188
 6195POPC   C2B78068  20.320  28.049   6.602
 6195POPC   C3B78069  20.226  28.211   7.003
 6195POPC   C4B78070  19.956  28.453   7.220
 6196POPC   NC378071   8.569   6.737   5.551
 6196POPC   PO478072   9.316   6.894   5.647
 6196POPC   GL178073   9.058   6.569   5.827
 6196POPC   GL278074   9.195   6.299   6.048
 6196POPC   C1A78075   8.886   6.693   6.218
 6196POPC   D2A78076   8.854   6.608   6.647
 6196POPC   C3A78077   8.959   6.936   6.922
 6196POPC   C4A78078   9.003   6.935   7.362
 6196POPC   C1B78079   8.781   6.176   6.284
 6196POPC   C2B78080   8.510   6.226   6.696
 6196POPC   C3B78081   8.761   6.362   7.083
 6196POPC   C4B78082   9.191   6.513   7.123
 6197POPC   NC378083   7.630  13.483   5.276
 6197POPC   PO478084   7.234  14.001   5.367
 6197POPC   GL178085   7.342  13.811   5.807
 6197POPC   GL278086   7.417  13.439   5.817
 6197POPC   C1A78087   7.469  13.722   6.268
 6197POPC   D2A78088   7.642  13.596   6.676
 6197POPC   C3A78089   7.393  13.807   6.988
 6197POPC   C4A78090   7.204  13.938   7.369
 6197POPC   C1B78091   7.222  13.292   6.227
 6197POPC   C2B78092   7.144  13.508   6.634
 6197POPC   C3B78093   7.193  13.324   7.021
 6197POPC   C4B78094   7.592  13.381   7.177
 6198POPC   NC378095  33.695  14.152   5.394
 6198POPC   PO478096  33.904  14.796   5.458
 6198POPC   GL178097  34.004  14.619   5.859
 6198POPC   GL278098  33.936  14.251   5.839
 6198POPC   C1A78099  33.900  14.479   6.284
 6198POPC   D2A78100  33.788  14.268   6.627
 6198POPC   C3A78101  34.086  14.374   6.905
 6198POPC   C4A78102  33.955  14.656   7.239
 6198POPC   C1B78103  33.592  14.102   6.137
 6198POPC   C2B78104  33.370  13.999   6.541
 6198POPC   C3B78105  33.528  13.946   6.953
 6198POPC   C4B78106  33.801  14.159   7.274
 6199POPC   NC378107   7.804  29.618   5.732
 6199POPC   PO478108   7.341  30.020   5.468
 6199POPC   GL178109   7.403  29.886   5.875
 6199POPC   GL278110   7.157  29.650   5.869
 6199POPC   C1A78111   7.444  30.116   6.273
 6199POPC   D2A78112   7.183  30.061   6.649
 6199POPC   C3A78113   7.354  30.135   7.038
 6199POPC   C4A78114   7.534  30.176   7.446
 6199POPC   C1B78115   7.308  29.623   6.318
 6199POPC   C2B78116   7.608  29.764   6.650
 6199POPC   C3B78117   7.493  29.646   7.064
 6199POPC   C4B78118   7.066  29.629   6.986
 6200POPC   NC378119  44.445   5.479   5.616
 6200POPC   PO478120  44.413   6.052   5.261
 6200POPC   GL178121  44.408   6.093   5.731
 6200POPC   GL278122  44.708   5.944   5.826
 6200POPC   C1A78123  44.328   5.900   6.169
 6200POPC   D2A78124  44.459   5.784   6.605
 6200POPC   C3A78125  44.484   6.063   6.955
 6200POPC   C4A78126  44.243   5.962   7.284
 6200POPC   C1B78127  44.814   5.737   6.226
 6200POPC   C2B78128  44.937   5.589   6.619
 6200POPC   C3B78129  44.960   5.878   6.942
 6200POPC   C4B78130  44.961   6.004   7.358
 6201POPC   NC378131  12.960   7.165   5.322
 6201POPC   PO478132  12.639   7.598   5.651
 6201POPC   GL178133  12.959   7.317   5.824
 6201POPC   GL278134  12.760   7.028   5.788
 6201POPC   C1A78135  13.123   7.408   6.242
 6201POPC   D2A78136  12.882   7.440   6.633
 6201POPC   C3A78137  13.155   7.601   6.947
 6201POPC   C4A78138  13.267   7.469   7.357
 6201POPC   C1B78139  12.645   7.206   6.209
 6201POPC   C2B78140  12.370   7.131   6.557
 6201POPC   C3B78141  12.502   7.125   6.960
 6201POPC   C4B78142  12.921   7.157   7.124
 6202POPC   NC378143  33.405  37.614   5.542
 6202POPC   PO478144  34.093  37.845   5.393
 6202POPC   GL178145  33.843  37.804   5.750
 6202POPC   GL278146  33.850  37.428   5.758
 6202POPC   C1A78147  33.844  37.844   6.205
 6202POPC   D2A78148  33.550  37.745   6.549
 6202POPC   C3A78149  33.724  37.883   6.945
 6202POPC   C4A78150  33.756  37.712   7.333
 6202POPC   C1B78151  33.613  37.386   6.153
 6202POPC   C2B78152  33.719  37.258   6.579
 6202POPC   C3B78153  33.497  37.409   6.959
 6202POPC   C4B78154  33.216  37.233   7.242
 6203POPC   NC378155  12.399  23.389   5.314
 6203POPC   PO478156  12.507  24.071   5.501
 6203POPC   GL178157  12.249  23.703   5.721
 6203POPC   GL278158  11.877  23.714   5.762
 6203POPC   C1A78159  12.247  23.500   6.168
 6203POPC   D2A78160  12.330  23.650   6.621
 6203POPC   C3A78161  12.135  23.679   7.042
 6203POPC   C4A78162  12.354  23.692   7.453
 6203POPC   C1B78163  11.781  23.695   6.220
 6203POPC   C2B78164  11.889  23.368   6.559
 6203POPC   C3B78165  11.816  23.270   7.002
 6203POPC   C4B78166  11.903  23.434   7.444
 6204POPC   NC378167  18.424   0.743   5.406
 6204POPC   PO478168  18.286   0.118   5.284
 6204POPC   GL178169  18.344   0.333   5.716
 6204POPC   GL278170  18.604   0.552   5.838
 6204POPC   C1A78171  18.215   0.349   6.162
 6204POPC   D2A78172  18.425   0.312   6.577
 6204POPC   C3A78173  18.077   0.306   6.831
 6204POPC   C4A78174  18.016   0.206   7.231
 6204POPC   C1B78175  18.563   0.694   6.279
 6204POPC   C2B78176  18.397   0.833   6.695
 6204POPC   C3B78177  18.254   0.698   7.104
 6204POPC   C4B78178  17.803   0.653   7.250
 6205POPC   NC378179  37.602  41.325   5.524
 6205POPC   PO478180  37.366  41.957   5.583
 6205POPC   GL178181  37.730  41.660   5.862
 6205POPC   GL278182  37.937  41.268   5.877
 6205POPC   C1A78183  37.597  41.423   6.259
 6205POPC   D2A78184  37.480  41.293   6.710
 6205POPC   C3A78185  37.531  41.573   7.082
 6205POPC   C4A78186  37.870  41.705   7.420
 6205POPC   C1B78187  38.107  41.418   6.218
 6205POPC   C2B78188  37.968  41.244   6.583
 6205POPC   C3B78189  37.972  41.392   6.966
 6205POPC   C4B78190  37.842  41.212   7.299
 6206POPC   NC378191  39.041   8.441   5.377
 6206POPC   PO478192  39.164   9.097   5.393
 6206POPC   GL178193  39.397   8.964   5.751
 6206POPC   GL278194  39.225   8.678   5.813
 6206POPC   C1A78195  39.548   8.816   6.173
 6206POPC   D2A78196  39.287   8.691   6.543
 6206POPC   C3A78197  39.387   8.903   6.941
 6206POPC   C4A78198  39.409   9.122   7.366
 6206POPC   C1B78199  39.063   8.976   6.162
 6206POPC   C2B78200  39.058   9.162   6.577
 6206POPC   C3B78201  39.000   9.238   7.015
 6206POPC   C4B78202  38.950   9.367   7.448
 6207POPC   NC378203  21.570  34.228   5.265
 6207POPC   PO478204  21.140  34.678   5.091
 6207POPC   GL178205  21.308  34.662   5.581
 6207POPC   GL278206  21.682  34.556   5.655
 6207POPC   C1A78207  21.414  34.699   6.087
 6207POPC   D2A78208  21.374  34.469   6.513
 6207POPC   C3A78209  21.387  34.681   6.928
 6207POPC   C4A78210  21.437  34.886   7.329
 6207POPC   C1B78211  21.881  34.310   6.003
 6207POPC   C2B78212  21.918  34.342   6.472
 6207POPC   C3B78213  21.719  34.289   6.882
 6207POPC   C4B78214  21.709  34.456   7.289
 6208POPC   NC378215  41.359  39.721   5.212
 6208POPC   PO478216  41.461  39.065   5.405
 6208POPC   GL178217  41.585  39.018   5.825
 6208POPC   GL278218  41.934  38.907   5.842
 6208POPC   C1A78219  41.490  39.267   6.199
 6208POPC   D2A78220  41.612  39.579   6.513
 6208POPC   C3A78221  41.566  39.395   6.911
 6208POPC   C4A78222  41.484  39.537   7.329
 6208POPC   C1B78223  41.749  38.783   6.254
 6208POPC   C2B78224  41.799  38.718   6.713
 6208POPC   C3B78225  41.727  38.923   7.073
 6208POPC   C4B78226  41.529  38.936   7.453
 6209POPC   NC378227   8.792  42.724   5.508
 6209POPC   PO478228   8.845  42.057   5.487
 6209POPC   GL178229   9.029  42.328   5.838
 6209POPC   GL278230   9.210  42.082   6.058
 6209POPC   C1A78231   9.187  42.550   6.247
 6209POPC   D2A78232   9.333  42.331   6.633
 6209POPC   C3A78233   9.115  42.512   7.016
 6209POPC   C4A78234   8.649  42.475   7.063
 6209POPC   C1B78235   8.795  42.180   6.286
 6209POPC   C2B78236   8.641  42.045   6.702
 6209POPC   C3B78237   8.955  42.031   6.974
 6209POPC   C4B78238   9.036  42.136   7.394
 6210POPC   NC378239  29.721  42.069   5.462
 6210POPC   PO478240  29.980  42.726   5.449
 6210POPC   GL178241  29.778  42.506   5.802
 6210POPC   GL278242  29.928  42.198   5.904
 6210POPC   C1A78243  29.863  42.614   6.249
 6210POPC   D2A78244  29.980  42.573   6.682
 6210POPC   C3A78245  29.780  42.491   7.073
 6210POPC   C4A78246  30.038  42.415   7.424
 6210POPC   C1B78247  29.994  42.007   6.298
 6210POPC   C2B78248  30.195  42.084   6.678
 6210POPC   C3B78249  30.026  42.061   7.054
 6210POPC   C4B78250  29.587  42.022   7.171
 6211POPC   NC378251  39.338   7.765   5.334
 6211POPC   PO478252  39.514   8.426   5.348
 6211POPC   GL178253  39.333   8.184   5.716
 6211POPC   GL278254  39.463   7.893   5.884
 6211POPC   C1A78255  39.225   8.307   6.161
 6211POPC   D2A78256  39.389   8.142   6.554
 6211POPC   C3A78257  39.410   8.377   6.949
 6211POPC   C4A78258  39.129   8.367   7.300
 6211POPC   C1B78259  39.111   7.812   6.211
 6211POPC   C2B78260  38.969   7.868   6.680
 6211POPC   C3B78261  38.969   7.872   7.169
 6211POPC   C4B78262  39.052   7.739   7.622
 6212POPC   NC378263  24.299  29.708   5.329
 6212POPC   PO478264  24.872  30.016   5.438
 6212POPC   GL178265  24.818  29.881   5.837
 6212POPC   GL278266  24.464  29.880   5.827
 6212POPC   C1A78267  24.682  29.976   6.266
 6212POPC   D2A78268  24.540  29.825   6.648
 6212POPC   C3A78269  24.746  29.888   7.027
 6212POPC   C4A78270  24.679  30.040   7.418
 6212POPC   C1B78271  24.283  29.625   6.164
 6212POPC   C2B78272  24.134  29.532   6.619
 6212POPC   C3B78273  24.235  29.687   7.078
 6212POPC   C4B78274  24.243  29.797   7.558
 6213POPC   NC378275   6.473  28.948   5.537
 6213POPC   PO478276   6.990  29.346   5.333
 6213POPC   GL178277   6.824  29.284   5.773
 6213POPC   GL278278   6.640  29.036   5.996
 6213POPC   C1A78279   6.763  29.496   6.194
 6213POPC   D2A78280   6.498  29.361   6.558
 6213POPC   C3A78281   6.667  29.282   6.995
 6213POPC   C4A78282   6.783  29.064   7.404
 6213POPC   C1B78283   6.346  28.752   6.191
 6213POPC   C2B78284   6.198  28.749   6.602
 6213POPC   C3B78285   6.201  29.045   6.898
 6213POPC   C4B78286   6.471  28.764   7.125
 6214POPC   NC378287  11.071  37.969   5.435
 6214POPC   PO478288  11.427  37.427   5.389
 6214POPC   GL178289  11.242  37.551   5.818
 6214POPC   GL278290  11.331  37.902   5.868
 6214POPC   C1A78291  11.441  37.639   6.265
 6214POPC   D2A78292  11.476  37.912   6.616
 6214POPC   C3A78293  11.587  37.588   6.880
 6214POPC   C4A78294  11.304  37.464   7.198
 6214POPC   C1B78295  11.137  38.101   6.260
 6214POPC   C2B78296  11.020  38.226   6.694
 6214POPC   C3B78297  11.151  38.034   7.087
 6214POPC   C4B78298  11.515  37.943   7.225
 6215POPC   NC378299  26.002  25.838   5.314
 6215POPC   PO478300  26.097  25.115   5.380
 6215POPC   GL178301  26.189  25.261   5.770
 6215POPC   GL278302  25.914  25.516   5.770
 6215POPC   C1A78303  26.026  25.222   6.204
 6215POPC   D2A78304  26.017  25.386   6.616
 6215POPC   C3A78305  25.927  25.136   6.965
 6215POPC   C4A78306  26.162  24.977   7.266
 6215POPC   C1B78307  25.934  25.739   6.185
 6215POPC   C2B78308  25.753  25.833   6.605
 6215POPC   C3B78309  25.970  25.754   6.996
 6215POPC   C4B78310  26.032  25.501   7.347
 6216POPC   NC378311  43.383  15.391   5.527
 6216POPC   PO478312  42.860  14.957   5.545
 6216POPC   GL178313  43.012  15.247   5.856
 6216POPC   GL278314  42.770  15.531   5.886
 6216POPC   C1A78315  43.251  15.234   6.227
 6216POPC   D2A78316  43.069  15.165   6.637
 6216POPC   C3A78317  43.236  15.293   7.033
 6216POPC   C4A78318  43.199  14.980   7.332
 6216POPC   C1B78319  42.762  15.417   6.317
 6216POPC   C2B78320  42.699  15.497   6.774
 6216POPC   C3B78321  42.823  15.537   7.197
 6216POPC   C4B78322  43.009  15.402   7.531
 6217POPC   NC378323   6.953   9.049   5.345
 6217POPC   PO478324   7.590   8.791   5.202
 6217POPC   GL178325   7.445   8.711   5.651
 6217POPC   GL278326   7.097   8.626   5.659
 6217POPC   C1A78327   7.280   8.970   6.028
 6217POPC   D2A78328   7.319   9.218   6.415
 6217POPC   C3A78329   7.456   8.984   6.790
 6217POPC   C4A78330   7.289   9.002   7.199
 6217POPC   C1B78331   7.077   8.515   6.122
 6217POPC   C2B78332   7.258   8.575   6.546
 6217POPC   C3B78333   7.085   8.550   6.970
 6217POPC   C4B78334   7.093   8.600   7.445
 6218POPC   NC378335   3.032  28.143   5.719
 6218POPC   PO478336   2.796  28.636   5.320
 6218POPC   GL178337   2.932  28.666   5.754
 6218POPC   GL278338   2.647  28.463   5.831
 6218POPC   C1A78339   2.991  28.588   6.227
 6218POPC   D2A78340   2.750  28.642   6.629
 6218POPC   C3A78341   2.922  28.450   7.004
 6218POPC   C4A78342   3.283  28.517   7.246
 6218POPC   C1B78343   2.557  28.339   6.269
 6218POPC   C2B78344   2.337  28.213   6.603
 6218POPC   C3B78345   2.498  28.146   6.996
 6218POPC   C4B78346   2.445  28.071   7.399
 6219POPC   NC378347  29.813  28.639   5.453
 6219POPC   PO478348  30.306  28.345   5.620
 6219POPC   GL178349  30.058  28.645   5.922
 6219POPC   GL278350  29.690  28.596   5.942
 6219POPC   C1A78351  29.923  28.737   6.385
 6219POPC   D2A78352  29.751  28.509   6.751
 6219POPC   C3A78353  29.782  28.581   7.195
 6219POPC   C4A78354  29.961  28.286   7.541
 6219POPC   C1B78355  29.733  28.257   6.278
 6219POPC   C2B78356  29.750  27.989   6.675
 6219POPC   C3B78357  29.738  28.067   7.115
 6219POPC   C4B78358  29.458  28.266   7.445
 6220POPC   NC378359  18.309  23.783   4.984
 6220POPC   PO478360  18.381  23.429   5.523
 6220POPC   GL178361  18.336  23.671   5.890
 6220POPC   GL278362  18.382  24.058   5.864
 6220POPC   C1A78363  18.423  23.551   6.280
 6220POPC   D2A78364  18.185  23.450   6.608
 6220POPC   C3A78365  18.466  23.403   6.893
 6220POPC   C4A78366  18.464  23.499   7.299
 6220POPC   C1B78367  18.206  24.018   6.247
 6220POPC   C2B78368  18.358  23.928   6.623
 6220POPC   C3B78369  18.197  23.900   6.970
 6220POPC   C4B78370  18.288  24.028   7.341
 6221POPC   NC378371  28.764  16.993   5.548
 6221POPC   PO478372  28.160  16.800   5.467
 6221POPC   GL178373  28.269  16.655   5.850
 6221POPC   GL278374  28.581  16.641   5.866
 6221POPC   C1A78375  28.354  16.456   6.261
 6221POPC   D2A78376  28.398  16.645   6.618
 6221POPC   C3A78377  28.402  16.506   7.004
 6221POPC   C4A78378  28.248  16.581   7.366
 6221POPC   C1B78379  28.549  16.948   6.198
 6221POPC   C2B78380  28.407  17.140   6.584
 6221POPC   C3B78381  28.515  17.009   6.976
 6221POPC   C4B78382  28.661  16.869   7.360
 6222POPC   NC378383  36.820  24.894   5.482
 6222POPC   PO478384  37.150  25.487   5.311
 6222POPC   GL178385  37.001  25.321   5.716
 6222POPC   GL278386  37.295  25.259   5.891
 6222POPC   C1A78387  36.863  25.117   6.129
 6222POPC   D2A78388  36.933  25.288   6.538
 6222POPC   C3A78389  37.029  25.098   6.915
 6222POPC   C4A78390  36.765  25.216   7.240
 6222POPC   C1B78391  37.159  25.613   6.152
 6222POPC   C2B78392  37.110  25.765   6.584
 6222POPC   C3B78393  36.948  25.618   6.961
 6222POPC   C4B78394  37.202  25.466   7.284
 6223POPC   NC378395   5.311  21.459   5.327
 6223POPC   PO478396   4.728  21.749   5.442
 6223POPC   GL178397   4.962  21.433   5.705
 6223POPC   GL278398   5.327  21.427   5.817
 6223POPC   C1A78399   4.987  21.350   6.166
 6223POPC   D2A78400   5.283  21.297   6.501
 6223POPC   C3A78401   5.132  21.341   6.918
 6223POPC   C4A78402   5.043  21.426   7.322
 6223POPC   C1B78403   5.433  21.058   6.054
 6223POPC   C2B78404   5.530  20.846   6.448
 6223POPC   C3B78405   5.400  20.901   6.871
 6223POPC   C4B78406   5.502  21.112   7.261
 6224POPC   NC378407  34.120  25.857   5.479
 6224POPC   PO478408  34.410  26.449   5.282
 6224POPC   GL178409  34.453  26.164   5.700
 6224POPC   GL278410  34.806  26.026   5.708
 6224POPC   C1A78411  34.294  25.981   6.137
 6224POPC   D2A78412  34.184  25.878   6.604
 6224POPC   C3A78413  34.379  26.131   6.943
 6224POPC   C4A78414  34.680  26.377   7.189
 6224POPC   C1B78415  34.767  25.786   6.087
 6224POPC   C2B78416  34.707  25.829   6.514
 6224POPC   C3B78417  34.649  25.647   6.900
 6224POPC   C4B78418  34.627  25.817   7.287
 6225POPC   NC378419  40.703  31.586   5.176
 6225POPC   PO478420  40.992  31.101   5.618
 6225POPC   GL178421  40.729  31.368   5.883
 6225POPC   GL278422  40.373  31.293   5.851
 6225POPC   C1A78423  40.833  31.567   6.297
 6225POPC   D2A78424  41.155  31.485   6.646
 6225POPC   C3A78425  41.013  31.510   7.077
 6225POPC   C4A78426  40.636  31.759   7.191
 6225POPC   C1B78427  40.431  31.254   6.300
 6225POPC   C2B78428  40.605  31.355   6.701
 6225POPC   C3B78429  40.618  31.171   7.069
 6225POPC   C4B78430  40.346  31.262   7.356
 6226POPC   NC378431  42.889  29.785   5.553
 6226POPC   PO478432  43.403  30.096   5.495
 6226POPC   GL178433  43.154  30.070   5.890
 6226POPC   GL278434  42.975  29.804   6.054
 6226POPC   C1A78435  43.323  30.135   6.323
 6226POPC   D2A78436  43.467  29.930   6.692
 6226POPC   C3A78437  43.108  29.851   6.910
 6226POPC   C4A78438  43.128  29.984   7.305
 6226POPC   C1B78439  43.291  29.621   6.309
 6226POPC   C2B78440  43.364  29.436   6.710
 6226POPC   C3B78441  43.427  29.509   7.128
 6226POPC   C4B78442  43.169  29.521   7.480
 6227POPC   NC378443  41.547  14.099   5.553
 6227POPC   PO478444  41.642  13.486   5.306
 6227POPC   GL178445  41.597  13.605   5.754
 6227POPC   GL278446  41.248  13.760   5.797
 6227POPC   C1A78447  41.788  13.470   6.176
 6227POPC   D2A78448  41.552  13.419   6.586
 6227POPC   C3A78449  41.669  13.623   6.989
 6227POPC   C4A78450  41.877  13.475   7.327
 6227POPC   C1B78451  41.352  13.742   6.228
 6227POPC   C2B78452  41.487  13.930   6.604
 6227POPC   C3B78453  41.228  13.898   6.978
 6227POPC   C4B78454  41.468  13.985   7.322
 6228POPC   NC378455  29.646  19.221   5.366
 6228POPC   PO478456  30.165  18.807   5.424
 6228POPC   GL178457  29.939  18.877   5.826
 6228POPC   GL278458  29.670  19.128   5.873
 6228POPC   C1A78459  30.008  18.946   6.262
 6228POPC   D2A78460  30.110  19.043   6.682
 6228POPC   C3A78461  29.981  18.827   7.070
 6228POPC   C4A78462  29.962  18.962   7.521
 6228POPC   C1B78463  29.508  18.829   6.178
 6228POPC   C2B78464  29.650  18.804   6.622
 6228POPC   C3B78465  29.684  19.173   6.923
 6228POPC   C4B78466  29.520  19.091   7.322
 6229POPC   NC378467  40.747  34.470   5.323
 6229POPC   PO478468  41.104  34.996   5.504
 6229POPC   GL178469  40.726  34.727   5.756
 6229POPC   GL278470  40.552  34.352   5.771
 6229POPC   C1A78471  40.703  34.714   6.197
 6229POPC   D2A78472  40.913  34.855   6.574
 6229POPC   C3A78473  40.830  34.786   7.007
 6229POPC   C4A78474  40.996  34.846   7.465
 6229POPC   C1B78475  40.660  34.200   6.169
 6229POPC   C2B78476  40.777  34.352   6.582
 6229POPC   C3B78477  40.582  34.345   6.994
 6229POPC   C4B78478  40.834  34.394   7.352
 6230POPC   NC378479  33.369  12.703   5.393
 6230POPC   PO478480  34.065  12.835   5.593
 6230POPC   GL178481  33.927  12.821   5.982
 6230POPC   GL278482  33.602  12.767   5.872
 6230POPC   C1A78483  33.862  12.769   6.411
 6230POPC   D2A78484  33.899  12.996   6.790
 6230POPC   C3A78485  33.926  12.785   7.171
 6230POPC   C4A78486  33.941  12.974   7.584
 6230POPC   C1B78487  33.370  12.773   6.278
 6230POPC   C2B78488  33.424  12.812   6.731
 6230POPC   C3B78489  33.475  13.026   7.136
 6230POPC   C4B78490  33.442  12.994   7.583
 6231POPC   NC378491  20.166  24.987   5.642
 6231POPC   PO478492  19.856  25.576   5.419
 6231POPC   GL178493  19.819  25.428   5.818
 6231POPC   GL278494  19.611  25.145   5.718
 6231POPC   C1A78495  19.932  25.628   6.228
 6231POPC   D2A78496  19.784  25.734   6.643
 6231POPC   C3A78497  19.996  25.487   6.907
 6231POPC   C4A78498  19.874  25.333   7.304
 6231POPC   C1B78499  19.691  24.967   6.118
 6231POPC   C2B78500  19.778  25.204   6.497
 6231POPC   C3B78501  19.789  25.019   6.886
 6231POPC   C4B78502  19.753  24.845   7.252
 6232POPC   NC378503  23.657  14.167   5.514
 6232POPC   PO478504  23.552  14.812   5.442
 6232POPC   GL178505  23.523  14.604   5.906
 6232POPC   GL278506  23.276  14.327   5.872
 6232POPC   C1A78507  23.627  14.710   6.401
 6232POPC   D2A78508  23.911  14.933   6.763
 6232POPC   C3A78509  23.839  14.790   7.192
 6232POPC   C4A78510  23.938  14.403   7.415
 6232POPC   C1B78511  23.437  14.175   6.295
 6232POPC   C2B78512  23.630  14.269   6.721
 6232POPC   C3B78513  23.483  14.229   7.158
 6232POPC   C4B78514  23.472  14.302   7.612
 6233POPC   NC378515   6.905  18.363   5.481
 6233POPC   PO478516   6.296  18.594   5.530
 6233POPC   GL178517   6.529  18.302   5.832
 6233POPC   GL278518   6.888  18.438   5.976
 6233POPC   C1A78519   6.637  18.083   6.212
 6233POPC   D2A78520   6.768  18.321   6.558
 6233POPC   C3A78521   6.630  18.126   6.924
 6233POPC   C4A78522   6.375  18.176   7.303
 6233POPC   C1B78523   7.215  18.454   6.266
 6233POPC   C2B78524   7.253  18.395   6.685
 6233POPC   C3B78525   6.975  18.601   6.978
 6233POPC   C4B78526   6.828  18.392   7.334
 6234POPC   NC378527  13.603  11.687   5.166
 6234POPC   PO478528  13.948  12.033   5.567
 6234POPC   GL178529  13.848  12.039   5.967
 6234POPC   GL278530  13.506  12.003   6.037
 6234POPC   C1A78531  13.844  12.040   6.395
 6234POPC   D2A78532  14.018  12.274   6.653
 6234POPC   C3A78533  13.799  12.104   6.986
 6234POPC   C4A78534  13.801  12.270   7.365
 6234POPC   C1B78535  13.268  11.736   6.293
 6234POPC   C2B78536  13.329  11.466   6.635
 6234POPC   C3B78537  13.480  11.617   7.014
 6234POPC   C4B78538  13.263  11.803   7.328
 6235POPC   NC378539  33.324  42.498   5.542
 6235POPC   PO478540  33.932  42.087   5.445
 6235POPC   GL178541  33.776  42.239   5.849
 6235POPC   GL278542  33.839  41.900   5.916
 6235POPC   C1A78543  33.628  42.487   6.237
 6235POPC   D2A78544  33.717  42.779   6.605
 6235POPC   C3A78545  33.669  42.598   7.031
 6235POPC   C4A78546  33.626  42.187   7.167
 6235POPC   C1B78547  33.776  42.007   6.350
 6235POPC   C2B78548  33.864  42.261   6.675
 6235POPC   C3B78549  34.179  42.516   6.748
 6235POPC   C4B78550  34.173  42.596   7.119
 6236POPC   NC378551  30.869   1.903   5.434
 6236POPC   PO478552  30.317   1.628   5.708
 6236POPC   GL178553  30.670   1.770   5.903
 6236POPC   GL278554  30.687   2.128   5.859
 6236POPC   C1A78555  30.677   1.867   6.316
 6236POPC   D2A78556  30.510   2.136   6.653
 6236POPC   C3A78557  30.586   1.907   7.032
 6236POPC   C4A78558  30.762   1.801   7.471
 6236POPC   C1B78559  30.720   2.380   6.221
 6236POPC   C2B78560  30.881   2.482   6.596
 6236POPC   C3B78561  30.883   2.331   6.992
 6236POPC   C4B78562  30.640   2.281   7.373
 6237W        W78563  39.597  33.084  10.711
 6238W        W78564  30.511  33.459  11.059
 6239W        W78565  31.229   7.115   0.571
 6240W        W78566  24.981   9.640  11.037
 6241W        W78567  30.017  27.634   3.013
 6242W        W78568  44.796  27.059   1.506
 6243W        W78569  22.399  28.591   3.881
 6244W        W78570  44.027  37.553   4.240
 6245W        W78571  31.994  18.034   4.561
 6246W        W78572   2.759  15.244   4.237
 6247W        W78573   6.071  21.945  12.856
 6248W        W78574  17.809  10.018  12.060
 6249W        W78575  29.800  38.528  11.188
 6250W        W78576   0.771  10.719  10.523
 6251W        W78577   2.447   6.861  12.993
 6252W        W78578  10.752  31.625   4.235
 6253W        W78579  26.066  26.776  11.954
 6254W        W78580   8.909  18.754  11.306
 6255W        W78581   1.641   3.673  13.074
 6256W        W78582   4.454  22.539  11.058
 6257W        W78583  25.637  15.206   2.259
 6258W        W78584  19.197  33.187   3.433
 6259W        W78585  42.446   4.459  10.753
 6260W        W78586  31.203  43.548  14.896
 6261W        W78587  21.695  38.072  14.828
 6262W        W78588  33.978  12.269  13.068
 6263W        W78589  28.318  36.338   4.241
 6264W        W78590  20.287  38.584   3.572
 6265W        W78591  20.176   4.314  11.436
 6266W        W78592  42.701  29.097   0.909
 6267W        W78593  16.745  12.588   2.310
 6268W        W78594   1.967   7.772  12.529
 6269W        W78595   9.075  39.522   2.254
 6270W        W78596  32.658  10.252  12.030
 6271W        W78597  33.396  22.626   3.657
 6272W        W78598  42.980   1.465   2.836
 6273W        W78599  26.972   8.838   1.862
 6274W        W78600  17.863   3.381   3.205
 6275W        W78601  15.824  36.888   3.569
 6276W        W78602  29.010   2.677   0.264
 6277W        W78603   1.165  43.852   2.297
 6278W        W78604   2.666   2.214  13.368
 6279W        W78605  29.432  32.683   1.144
 6280W        W78606  24.422   0.477  11.285
 6281W        W78607   9.177  32.151  12.376
 6282W        W78608  28.614  21.612  11.151
 6283W        W78609   7.250  43.860   3.950
 6284W        W78610  18.324  37.882  13.964
 6285W        W78611  15.748   3.953   1.255
 6286W        W78612  37.919  27.207  11.563
 6287W        W78613  10.888   2.589   0.790
 6288W        W78614  33.525   8.380   2.240
 6289W        W78615  36.002  37.005  11.631
 6290W        W78616  43.629   7.854   4.277
 6291W        W78617  41.884  36.640   0.951
 6292W        W78618  27.919  23.269  13.019
 6293W        W78619  36.793  28.686   0.450
 6294W        W78620   9.792   7.225   4.318
 6295W        W78621  43.538  41.085   4.586
 6296W        W78622  23.015   4.169   2.734
 6297W        W78623  33.984  42.827  10.936
 6298W        W78624  28.403   5.233  13.880
 6299W        W78625  22.516  16.838  11.494
 6300W        W78626  31.372   9.701  13.183
 6301W        W78627  40.112  34.632   2.169
 6302W        W78628  20.951  38.489  14.505
 6303W        W78629  27.787  10.206   0.927
 6304W        W78630  28.964  15.014  13.455
 6305W        W78631  41.997  10.594  11.279
 6306W        W78632  43.443  29.120   4.697
 6307W        W78633  16.833  17.110  10.617
 6308W        W78634   1.733  17.261  13.530
 6309W        W78635   8.074  15.311   0.278
 6310W        W78636  14.736  42.433  12.616
 6311W        W78637  31.044  26.683  10.393
 6312W        W78638   8.792  23.054  13.705
 6313W        W78639  41.210   3.782  12.740
 6314W        W78640  13.221  23.471  13.081
 6315W        W78641   4.928  12.754  14.394
 6316W        W78642  15.048  22.205   3.468
 6317W        W78643  36.950  38.289  14.778
 6318W        W78644  31.477   4.766   4.636
 6319W        W78645  14.119  10.371   3.239
 6320W        W78646  27.714  27.187   3.120
 6321W        W78647  39.893  43.224  12.336
 6322W        W78648  32.892  13.065  14.373
 6323W        W78649  22.851  44.840   3.209
 6324W        W78650  26.059   3.491  10.863
 6325W        W78651   5.973  42.464  14.564
 6326W        W78652  16.118   8.336  12.886
 6327W        W78653   5.969  31.050   1.464
 6328W        W78654  41.325  15.798  14.519
 6329W        W78655  31.111  33.916   0.854
 6330W        W78656  38.450   9.055  13.511
 6331W        W78657   8.239  18.999   2.685
 6332W        W78658  23.959  19.006  12.621
 6333W        W78659   9.721  15.156   0.321
 6334W        W78660  37.371  12.656   2.845
 6335W        W78661   1.400   7.693   3.749
 6336W        W78662  31.469  36.324   0.033
 6337W        W78663  20.465  17.432   3.285
 6338W        W78664  17.779  34.342  12.534
 6339W        W78665  10.108  14.176   2.273
 6340W        W78666  14.260  29.575   5.098
 6341W        W78667   3.762   3.437  10.315
 6342W        W78668  12.139  24.587  14.921
 6343W        W78669  10.288  33.843   0.942
 6344W        W78670  17.502  43.560   2.781
 6345W        W78671  38.291  12.672   2.691
 6346W        W78672  41.001  12.656   0.946
 6347W        W78673  16.975   3.135  14.293
 6348W        W78674  25.601   9.581   4.949
 6349W        W78675  15.084  33.154  10.924
 6350W        W78676  28.561  39.511   0.366
 6351W        W78677  19.302  27.220  12.219
 6352W        W78678  27.713  13.751  12.839
 6353W        W78679  33.919  10.686   3.964
 6354W        W78680  29.195  28.200   3.235
 6355W        W78681  17.234   5.013  11.607
 6356W        W78682  42.837  31.248   3.694
 6357W        W78683  43.852  39.752  14.828
 6358W        W78684  42.249  11.449   2.018
 6359W        W78685  43.912  16.638   0.175
 6360W        W78686  32.831   1.754  14.851
 6361W        W78687  34.379  27.174  14.348
 6362W        W78688  43.568  44.913  12.841
 6363W        W78689  23.767  35.334  14.830
 6364W        W78690  10.832  30.887  12.603
 6365W        W78691  14.099  37.373   4.426
 6366W        W78692  10.719  38.330  13.077
 6367W        W78693  19.607  14.336  10.767
 6368W        W78694  23.166   2.498  12.021
 6369W        W78695  16.836  40.135   0.914
 6370W        W78696  28.083  42.953   0.995
 6371W        W78697   7.190   7.637   1.842
 6372W        W78698  13.719  17.948  11.869
 6373W        W78699  34.517  12.262  11.474
 6374W        W78700  25.260  38.336  12.159
 6375W        W78701  12.617   4.698  13.944
 6376W        W78702   6.305   3.246  14.770
 6377W        W78703  35.431  13.576   1.951
 6378W        W78704  17.794   8.458   0.483
 6379W        W78705  38.602  24.681   0.231
 6380W        W78706  31.148   2.367   0.847
 6381W        W78707   0.968  44.635   3.337
 6382W        W78708  10.335  28.443   1.139
 6383W        W78709  29.538   5.049   3.732
 6384W        W78710   1.901  17.662  10.605
 6385W        W78711  16.156  41.746  12.546
 6386W        W78712  41.366  24.600  11.205
 6387W        W78713  35.669   6.450   1.634
 6388W        W78714   2.996  25.056  10.962
 6389W        W78715  43.451  16.013  11.089
 6390W        W78716  44.151  42.851   0.958
 6391W        W78717  10.646  19.918   0.409
 6392W        W78718  26.292  34.463  12.957
 6393W        W78719   6.317  39.928   4.523
 6394W        W78720  31.471  23.579  11.680
 6395W        W78721  20.275  26.054  11.980
 6396W        W78722   7.945  22.923  11.347
 6397W        W78723   6.398   0.708   4.649
 6398W        W78724  21.245  10.396  11.050
 6399W        W78725   8.963  14.152  13.304
 6400W        W78726  15.665   7.836   3.343
 6401W        W78727  17.182  16.713  14.962
 6402W        W78728  17.016  19.095  11.552
 6403W        W78729  42.493  36.557  11.709
 6404W        W78730  26.621  15.625   2.660
 6405W        W78731  17.116  15.074   1.148
 6406W        W78732  29.827  41.440  12.061
 6407W        W78733  25.773  13.743  14.511
 6408W        W78734  29.782  18.196  14.822
 6409W        W78735   6.690  26.101  11.608
 6410W        W78736  34.492  28.899   4.883
 6411W        W78737  38.300   3.756  13.594
 6412W        W78738  38.425  11.452   4.203
 6413W        W78739  33.983  20.549   0.880
 6414W        W78740  26.492  17.815   3.976
 6415W        W78741   6.824  28.048  12.078
 6416W        W78742  22.065  26.994  10.544
 6417W        W78743  18.736  40.952   0.807
 6418W        W78744  36.020  27.981   0.295
 6419W        W78745   9.117  38.257   3.821
 6420W        W78746  18.078  34.509   3.663
 6421W        W78747  34.370  40.281  12.321
 6422W        W78748   7.711  11.450  11.151
 6423W        W78749  39.511   3.339  12.070
 6424W        W78750  35.448  12.781   1.443
 6425W        W78751  10.851  19.336   1.233
 6426W        W78752  35.523   4.913   0.235
 6427W        W78753  11.648  25.686  11.015
 6428W        W78754  26.502  38.050   0.204
 6429W        W78755  20.496  42.250  11.118
 6430W        W78756  38.997  43.490   2.853
 6431W        W78757  38.301   9.636   4.152
 6432W        W78758  30.142  29.545   3.679
 6433W        W78759   8.712  19.735  10.859
 6434W        W78760  19.525  14.620   1.493
 6435W        W78761   6.331   3.519   3.571
 6436W        W78762   7.385   4.925   1.884
 6437W        W78763   0.116  12.930   0.819
 6438W        W78764  36.823  15.647   0.667
 6439W        W78765  27.750  30.565   5.120
 6440W        W78766  44.499  10.783   2.225
 6441W        W78767  34.405  43.441  10.956
 6442W        W78768  12.350  43.542   2.668
 6443W        W78769  40.505  26.385  10.728
 6444W        W78770  30.131  20.377   5.114
 6445W        W78771  19.525  12.843   2.109
 6446W        W78772  20.203  13.855  11.413
 6447W        W78773  18.555  39.083   2.737
 6448W        W78774   1.866  29.830  11.497
 6449W        W78775  32.345  44.229   2.847
 6450W        W78776  44.975  30.899  11.241
 6451W        W78777  43.791  25.764  11.261
 6452W        W78778  40.604  29.167  10.891
 6453W        W78779  37.606  19.190  13.325
 6454W        W78780   4.886  16.625  13.591
 6455W        W78781   0.154  27.077   2.538
 6456W        W78782   9.469  23.683   4.665
 6457W        W78783  24.998  14.454   0.369
 6458W        W78784   0.380  11.164   1.427
 6459W        W78785  43.274  33.315   3.154
 6460W        W78786   0.705   5.696  11.249
 6461W        W78787  30.561  13.890   3.191
 6462W        W78788  14.575  25.417   4.608
 6463W        W78789   1.465   9.568  13.466
 6464W        W78790   2.525  32.501   4.828
 6465W        W78791   5.835  12.840   0.234
 6466W        W78792  35.135  21.795  12.379
 6467W        W78793  26.503  29.013   0.702
 6468W        W78794  37.396  40.848   4.102
 6469W        W78795  26.460  19.634   0.898
 6470W        W78796  10.442  32.074   0.565
 6471W        W78797  29.166   0.728  14.406
 6472W        W78798  12.711  14.699  12.321
 6473W        W78799  33.494  35.021   4.080
 6474W        W78800  17.944  20.598   2.854
 6475W        W78801  29.854  27.520  13.438
 6476W        W78802  11.230  15.968   3.892
 6477W        W78803  37.953  13.670   2.867
 6478W        W78804  16.574  30.157   0.209
 6479W        W78805   1.999  31.599  13.526
 6480W        W78806   8.074   2.950   3.725
 6481W        W78807   1.070   5.392  11.010
 6482W        W78808  34.559  42.804  12.937
 6483W        W78809  39.483   1.482   1.412
 6484W        W78810  11.084   9.047   3.179
 6485W        W78811  10.340  19.776   4.663
 6486W        W78812  24.957  14.795  14.535
 6487W        W78813   5.275  17.377   2.756
 6488W        W78814  12.359   5.922   0.053
 6489W        W78815  16.069  27.024  13.860
 6490W        W78816  29.243  24.250   4.024
 6491W        W78817   2.540  42.088   1.387
 6492W        W78818  15.011   9.603  14.461
 6493W        W78819   8.888  36.952  10.704
 6494W        W78820  40.000  34.462  14.017
 6495W        W78821  31.439  27.615   0.386
 6496W        W78822   3.261  35.470  13.773
 6497W        W78823   7.862  21.930  14.138
 6498W        W78824  15.314  27.054   3.604
 6499W        W78825  25.509   2.016  11.969
 6500W        W78826  30.168   7.404  11.147
 6501W        W78827  30.928  14.497   2.705
 6502W        W78828  42.207  44.229  12.442
 6503W        W78829  33.021  36.576   4.475
 6504W        W78830  29.227   9.241  12.248
 6505W        W78831  38.512  13.360  12.321
 6506W        W78832   7.300  33.708   1.252
 6507W        W78833  22.720  28.903  13.502
 6508W        W78834  44.215  11.917   0.951
 6509W        W78835  28.014  37.287   0.893
 6510W        W78836  25.098  19.836  13.278
 6511W        W78837  27.242  21.218   1.740
 6512W        W78838  36.406  27.214  11.869
 6513W        W78839  41.809  29.024   2.039
 6514W        W78840  23.815  41.284  13.967
 6515W        W78841  26.887   8.738   1.329
 6516W        W78842  35.311  11.568   3.777
 6517W        W78843  11.969  34.703  12.401
 6518W        W78844  38.970   7.433  13.604
 6519W        W78845   6.186   5.313   0.546
 6520W        W78846  40.012  26.162  12.077
 6521W        W78847  26.153  24.982   2.746
 6522W        W78848  38.103  12.838   2.190
 6523W        W78849  25.967  40.535  12.176
 6524W        W78850   2.647  42.855  14.887
 6525W        W78851  13.105  29.038   1.475
 6526W        W78852   5.439   5.949   3.343
 6527W        W78853  26.911  14.677  10.551
 6528W        W78854   1.938   2.835  11.633
 6529W        W78855  23.081  41.721  13.372
 6530W        W78856  24.756  16.513   1.369
 6531W        W78857  31.579  43.748   3.345
 6532W        W78858  24.576   0.203  10.743
 6533W        W78859  43.413  11.702  12.415
 6534W        W78860  13.909  25.041   3.255
 6535W        W78861  36.016  24.527  11.188
 6536W        W78862  17.502  39.550   4.318
 6537W        W78863   1.537  23.049  14.244
 6538W        W78864   3.955   8.555   2.959
 6539W        W78865  17.052  44.456  11.119
 6540W        W78866   2.318   5.239  11.567
 6541W        W78867  28.545  27.460  13.782
 6542W        W78868  23.633  39.658   5.441
 6543W        W78869  31.912  24.028  11.175
 6544W        W78870  28.432  20.178  11.955
 6545W        W78871  22.216   3.743  10.638
 6546W        W78872  30.690  29.481  10.844
 6547W        W78873  43.458   8.103   4.701
 6548W        W78874   6.585  30.668   3.783
 6549W        W78875  19.254   6.760  11.103
 6550W        W78876  12.081  17.195  10.695
 6551W        W78877  26.457   2.263   0.146
 6552W        W78878  31.645  33.345   3.590
 6553W        W78879  35.003  21.553  14.130
 6554W        W78880  37.392  17.070   2.100
 6555W        W78881  21.907   5.512  10.852
 6556W        W78882  13.202   4.309  12.624
 6557W        W78883  28.712  25.212   2.907
 6558W        W78884  39.836  15.451   1.757
 6559W        W78885  27.071  37.508   2.356
 6560W        W78886   1.193  39.968   0.540
 6561W        W78887  34.034  34.934   4.942
 6562W        W78888   5.428   6.323   2.096
 6563W        W78889   1.447  27.440   3.535
 6564W        W78890  38.542  42.497  12.150
 6565W        W78891   5.967  38.801  12.929
 6566W        W78892  41.698  24.143   0.816
 6567W        W78893  12.809  10.742   4.070
 6568W        W78894  28.003   5.031   2.298
 6569W        W78895  40.804  32.887  12.474
 6570W        W78896  13.023  33.919   1.740
 6571W        W78897  25.205  36.982   1.700
 6572W        W78898  39.715  44.023   3.219
 6573W        W78899  44.008  41.972   3.194
 6574W        W78900  42.290  16.004  10.389
 6575W        W78901  19.248  28.778   0.360
 6576W        W78902  42.817  13.373   4.685
 6577W        W78903   0.283   9.646   1.863
 6578W        W78904  15.688  38.275  10.788
 6579W        W78905  42.589  23.881   2.301
 6580W        W78906   2.865   2.451  13.917
 6581W        W78907  28.306  38.945  10.441
 6582W        W78908  22.271  39.478  13.035
 6583W        W78909   9.221   2.181   3.726
 6584W        W78910  39.079  41.384   2.697
 6585W        W78911   4.298  24.564   2.968
 6586W        W78912  11.752  13.113   1.826
 6587W        W78913   5.340  20.931   3.964
 6588W        W78914  18.231  31.970   2.758
 6589W        W78915  33.865   5.572  11.992
 6590W        W78916  16.767   8.215   3.814
 6591W        W78917  21.541  16.632  13.750
 6592W        W78918  22.739  25.451  13.544
 6593W        W78919  12.650  11.514   2.224
 6594W        W78920  27.524  10.823  11.131
 6595W        W78921  21.776  23.693   1.888
 6596W        W78922   6.815  34.585  12.843
 6597W        W78923  12.876  38.359   4.877
 6598W        W78924  38.390  12.777  12.377
 6599W        W78925  28.820  21.139   2.140
 6600W        W78926  18.994  24.484   3.898
 6601W        W78927  25.977  11.900   1.749
 6602W        W78928  28.390  43.997   1.930
 6603W        W78929  35.557  33.888   4.197
 6604W        W78930  42.780  41.483   5.041
 6605W        W78931  14.064  20.618   0.773
 6606W        W78932   1.718   3.413   3.318
 6607W        W78933  26.272  37.636   0.410
 6608W        W78934  31.778   6.957   0.668
 6609W        W78935  11.072  26.468   2.063
 6610W        W78936  22.476  30.003  14.695
 6611W        W78937  37.536  33.008   0.589
 6612W        W78938  40.074  29.156  12.047
 6613W        W78939  29.610  30.498  13.826
 6614W        W78940  28.267  35.097   1.902
 6615W        W78941  12.650  16.753   4.538
 6616W        W78942  11.967  10.610  11.599
 6617W        W78943  43.981  18.133   4.641
 6618W        W78944  14.992   1.493   1.941
 6619W        W78945  39.508  13.700   0.164
 6620W        W78946  43.261   3.394   4.528
 6621W        W78947   0.740  37.324   3.504
 6622W        W78948  44.896  16.277  12.976
 6623W        W78949  42.504  33.919   3.147
 6624W        W78950  40.264  14.568   0.314
 6625W        W78951  38.101  41.620  12.195
 6626W        W78952   4.403  40.810   4.354
 6627W        W78953   3.735   8.171   0.230
 6628W        W78954   0.799   8.717   1.602
 6629W        W78955  43.860  25.891  13.952
 6630W        W78956  18.729  39.366  11.704
 6631W        W78957  36.394  16.211  10.972
 6632W        W78958  37.321  15.083  11.933
 6633W        W78959  13.748  20.292   1.038
 6634W        W78960  34.596  44.955  11.266
 6635W        W78961  25.634  23.404  11.929
 6636W        W78962  37.025  16.608  10.560
 6637W        W78963  21.247   8.977   1.433
 6638W        W78964  14.184  29.933   3.952
 6639W        W78965  38.100  11.069   2.236
 6640W        W78966  24.009   0.306   1.803
 6641W        W78967  28.086  16.925   0.996
 6642W        W78968  18.612  38.030   1.153
 6643W        W78969  35.702  33.408  10.632
 6644W        W78970   4.472   1.391  10.919
 6645W        W78971  34.715  22.150   2.865
 6646W        W78972  37.967  38.367  12.209
 6647W        W78973   0.862  28.643   1.690
 6648W        W78974   0.898  19.045  13.542
 6649W        W78975  22.257  29.130   1.107
 6650W        W78976  40.778  14.098  13.819
 6651W        W78977  37.437  12.468  11.022
 6652W        W78978   5.753  15.291   0.376
 6653W        W78979  21.228  40.563  10.779
 6654W        W78980  21.326  13.258  12.625
 6655W        W78981   7.344  15.358   3.538
 6656W        W78982  29.767   2.434  13.988
 6657W        W78983  28.282  33.516   3.815
 6658W        W78984   7.940  38.927   5.339
 6659W        W78985  41.574  29.709   1.923
 6660W        W78986   7.334  38.892  14.872
 6661W        W78987   6.993  12.233  12.990
 6662W        W78988  24.091   9.634   3.777
 6663W        W78989   9.184   2.541  13.085
 6664W        W78990  44.306   4.995   5.389
 6665W        W78991  37.476  25.405  11.887
 6666W        W78992  36.178  33.858  12.270
 6667W        W78993   1.969  35.417   3.880
 6668W        W78994   8.658  10.800   1.978
 6669W        W78995   8.798  22.239   3.199
 6670W        W78996  16.955  10.332  14.795
 6671W        W78997  31.478  41.244   3.226
 6672W        W78998  38.878  11.523   4.514
 6673W        W78999  11.398  23.450   4.105
 6674W        W79000  28.965  27.133  10.602
 6675W        W79001  34.489  18.248   0.458
 6676W        W79002  35.306  18.619  14.993
 6677W        W79003  40.848  27.056  12.077
 6678W        W79004   6.496  15.786   5.021
 6679W        W79005   1.519   1.598   9.688
 6680W        W79006  14.359  11.423  14.474
 6681W        W79007  16.447  27.533   0.990
 6682W        W79008  35.823  14.953   0.996
 6683W        W79009  33.338  16.107   3.732
 6684W        W79010  11.863  24.154  10.413
 6685W        W79011  12.428   8.156   0.296
 6686W        W79012  13.749  35.419   1.292
 6687W        W79013   9.170   7.765   4.538
 6688W        W79014  35.853  14.073  11.452
 6689W        W79015  33.872  36.496  14.810
 6690W        W79016  15.826  32.846  14.908
 6691W        W79017  19.302  20.339  13.534
 6692W        W79018  40.291  23.911  11.162
 6693W        W79019  26.986  10.585  12.363
 6694W        W79020  43.455  26.638   4.704
 6695W        W79021  16.312  22.914  11.841
 6696W        W79022  15.639  42.825   1.950
 6697W        W79023  39.079  30.486  14.524
 6698W        W79024  15.322  10.088  11.530
 6699W        W79025  34.013  21.090   1.834
 6700W        W79026  20.965  35.855  13.064
 6701W        W79027  16.845  35.427   0.822
 6702W        W79028  18.722   3.587   2.215
 6703W        W79029   9.144  12.701  13.787
 6704W        W79030  10.336   3.750  12.275
 6705W        W79031  30.730  37.989  12.323
 6706W        W79032  11.693   3.367  14.290
 6707W        W79033   0.939  23.469   0.323
 6708W        W79034  14.078  10.795  13.970
 6709W        W79035  31.655  32.563   4.062
 6710W        W79036  42.763  43.944   3.334
 6711W        W79037  22.214  21.436  13.771
 6712W        W79038  34.380   0.923   2.375
 6713W        W79039  18.265  43.447   3.067
 6714W        W79040   7.319  36.443   0.134
 6715W        W79041  27.202  22.723   2.319
 6716W        W79042   4.197   3.568  10.017
 6717W        W79043   7.874   1.251   3.497
 6718W        W79044   5.021  22.553   0.428
 6719W        W79045  32.960  28.145  14.852
 6720W        W79046   7.329  35.334  12.868
 6721W        W79047   1.759  11.155   0.452
 6722W        W79048  40.794  10.442  13.516
 6723W        W79049  41.676  12.067  12.510
 6724W        W79050  14.009  27.167  12.971
 6725W        W79051  24.573  31.183  13.773
 6726W        W79052  34.495   3.662  12.097
 6727W        W79053   6.727   8.795   0.329
 6728W        W79054  22.603  33.093  12.240
 6729W        W79055  38.253  39.434   3.179
 6730W        W79056  42.673   5.876  11.529
 6731W        W79057  24.609  25.684  10.439
 6732W        W79058  43.424   4.862   2.199
 6733W        W79059   9.221  23.253  14.520
 6734W        W79060  11.537  27.812   4.116
 6735W        W79061  16.097  42.562  11.103
 6736W        W79062  34.345  31.988  14.913
 6737W        W79063  23.602   5.222   1.947
 6738W        W79064  44.783  36.937   3.134
 6739W        W79065  27.009  34.699  11.023
 6740W        W79066  44.792  10.834  13.114
 6741W        W79067  10.870  21.814   1.260
 6742W        W79068  22.091  35.980  14.009
 6743W        W79069  43.879   0.300  11.036
 6744W        W79070  17.140  41.294  13.288
 6745W        W79071  27.078  33.929  13.785
 6746W        W79072  23.065  43.943   3.189
 6747W        W79073  16.699   3.737   3.160
 6748W        W79074  10.713   9.056  13.038
 6749W        W79075  10.191  31.716   2.058
 6750W        W79076  25.738   2.808  13.426
 6751W        W79077  43.893  41.024   0.873
 6752W        W79078  28.475   7.756  11.355
 6753W        W79079  10.868  25.230  14.782
 6754W        W79080  40.879  29.040  13.485
 6755W        W79081  22.121  21.465  10.993
 6756W        W79082  37.956   6.142  14.739
 6757W        W79083  16.780  12.351   0.964
 6758W        W79084  36.053  12.364  10.302
 6759W        W79085  31.401   8.748   0.519
 6760W        W79086   1.304   5.820   4.119
 6761W        W79087   7.813  44.658   2.734
 6762W        W79088  17.073  29.802  14.357
 6763W        W79089  43.022  21.986   3.782
 6764W        W79090   0.812   3.894   4.554
 6765W        W79091  42.360  43.455   2.036
 6766W        W79092  15.389  33.567   1.774
 6767W        W79093  34.138  38.660  13.831
 6768W        W79094   4.973  39.585  12.074
 6769W        W79095  27.545  18.154   1.370
 6770W        W79096  11.574  44.780   2.499
 6771W        W79097   6.858  34.583   2.103
 6772W        W79098   2.868  31.311  14.521
 6773W        W79099  33.463   0.284   2.477
 6774W        W79100  21.318  19.333   3.664
 6775W        W79101  35.279  10.112   0.468
 6776W        W79102  27.954  33.726   0.329
 6777W        W79103  33.905  17.103  12.203
 6778W        W79104  42.465  33.458   3.449
 6779W        W79105  16.860  41.095   5.076
 6780W        W79106  40.932  16.147  12.938
 6781W        W79107  14.438  15.135  14.921
 6782W        W79108  44.317  18.693  11.772
 6783W        W79109  30.749  13.212  10.698
 6784W        W79110  10.070  13.663   4.893
 6785W        W79111  27.074  42.735  14.538
 6786W        W79112  28.440   1.867   0.943
 6787W        W79113  27.462  20.282   0.430
 6788W        W79114  16.644  10.399   1.188
 6789W        W79115   4.378  27.110  11.093
 6790W        W79116  33.094  20.754  11.077
 6791W        W79117  21.226   0.436   3.917
 6792W        W79118  24.637   9.876  14.554
 6793W        W79119  31.644  28.073   1.461
 6794W        W79120  25.011  37.572  11.463
 6795W        W79121  12.383  19.180  10.748
 6796W        W79122   4.954   1.771  13.461
 6797W        W79123  42.924  20.119  14.886
 6798W        W79124  43.337  42.790  11.563
 6799W        W79125  11.908  21.516   2.192
 6800W        W79126   8.039  13.564  10.779
 6801W        W79127   1.627  38.398   4.310
 6802W        W79128  28.295  29.181  11.396
 6803W        W79129  11.328   4.569  12.836
 6804W        W79130  24.813  33.020   2.828
 6805W        W79131  35.424  39.765  10.655
 6806W        W79132  23.497  33.043  13.896
 6807W        W79133  15.125  26.762  12.515
 6808W        W79134  14.190   4.512   3.117
 6809W        W79135   4.999  30.701  14.377
 6810W        W79136   6.214   5.386  14.532
 6811W        W79137  34.038   9.536   0.653
 6812W        W79138   6.409   6.014   4.817
 6813W        W79139   5.167  19.595  11.915
 6814W        W79140  39.455   3.667   1.906
 6815W        W79141   0.812  24.716   4.013
 6816W        W79142  32.898   7.411  14.852
 6817W        W79143  12.543  44.349   4.367
 6818W        W79144  29.195  15.628  12.196
 6819W        W79145  22.583   7.200   2.934
 6820W        W79146  31.633  19.060  14.537
 6821W        W79147  42.400  35.987  11.378
 6822W        W79148  19.848  21.243   1.352
 6823W        W79149  25.613   2.940  14.367
 6824W        W79150  27.144  14.878   3.197
 6825W        W79151   4.164  22.390  13.827
 6826W        W79152   4.191  13.325   2.685
 6827W        W79153  25.039   4.301   1.427
 6828W        W79154  11.392  26.106  11.695
 6829W        W79155  12.895  14.633   0.241
 6830W        W79156   4.265  42.410  14.354
 6831W        W79157  29.477  10.678  14.492
 6832W        W79158   7.648  25.121  13.628
 6833W        W79159  22.183  14.124  13.419
 6834W        W79160  39.980  31.367  11.412
 6835W        W79161   2.824  30.093  11.681
 6836W        W79162  18.038  43.481   0.747
 6837W        W79163  42.232  39.964  12.569
 6838W        W79164  25.506  42.611   3.660
 6839W        W79165  25.428  25.545   2.943
 6840W        W79166  24.672  23.642  14.740
 6841W        W79167   1.302  28.522   3.936
 6842W        W79168  44.387  36.429   3.156
 6843W        W79169  36.035   0.227   4.066
 6844W        W79170  22.519  16.635  14.032
 6845W        W79171  18.195  36.064   1.831
 6846W        W79172  10.282  16.998  10.649
 6847W        W79173  39.563  42.101  10.682
 6848W        W79174  41.329  18.327   3.678
 6849W        W79175  39.972  40.266  10.623
 6850W        W79176  28.901  25.615   4.284
 6851W        W79177  10.870   5.041  11.479
 6852W        W79178  32.094  28.574   3.961
 6853W        W79179  25.353  18.719  12.849
 6854W        W79180  18.726   6.714  12.273
 6855W        W79181   3.980   5.684   3.340
 6856W        W79182  36.903   6.566   4.173
 6857W        W79183  40.997   1.682   0.331
 6858W        W79184  18.721   6.540  14.284
 6859W        W79185  29.102  37.576  13.480
 6860W        W79186  22.158  23.201  14.423
 6861W        W79187  16.676  12.565   2.837
 6862W        W79188  42.876  22.569  11.569
 6863W        W79189  34.711  38.469   1.111
 6864W        W79190  35.385  39.442  12.825
 6865W        W79191  16.085  35.072  14.361
 6866W        W79192  26.540  27.179  11.070
 6867W        W79193  43.494  15.801  12.945
 6868W        W79194  40.939  11.907   2.430
 6869W        W79195   7.238  34.197   0.397
 6870W        W79196  21.558  34.230   3.825
 6871W        W79197  39.624   3.700  12.421
 6872W        W79198   7.235  26.968   4.918
 6873W        W79199  19.128  10.179  10.647
 6874W        W79200  12.514  39.954   1.186
 6875W        W79201  44.998  19.305   3.282
 6876W        W79202   7.648  15.854   2.289
 6877W        W79203  18.818  15.353   3.066
 6878W        W79204  22.924   5.826  14.913
 6879W        W79205  25.883   0.527  11.176
 6880W        W79206  21.166  40.035   2.434
 6881W        W79207  34.666   7.300  13.150
 6882W        W79208  26.107  17.763   4.338
 6883W        W79209  23.885  32.440   1.437
 6884W        W79210   8.145  27.068  11.085
 6885W        W79211  38.701   5.127  10.073
 6886W        W79212  22.548  42.223   2.606
 6887W        W79213   1.827  18.129   0.911
 6888W        W79214  23.525   5.655   1.676
 6889W        W79215   3.838   2.232   2.690
 6890W        W79216  41.179  18.975   1.771
 6891W        W79217   7.722  31.594   3.311
 6892W        W79218   4.704  12.719  11.935
 6893W        W79219  12.168  43.846  14.726
 6894W        W79220  13.927  26.633   5.173
 6895W        W79221   1.776   5.706   4.932
 6896W        W79222   4.750   1.400  13.023
 6897W        W79223  14.103  19.033   2.106
 6898W        W79224  30.163  26.474   3.380
 6899W        W79225   2.945  14.709  13.898
 6900W        W79226   5.351   4.075   1.582
 6901W        W79227  35.910  41.595   0.265
 6902W        W79228  16.085  12.106   4.587
 6903W        W79229  43.997  15.124  10.291
 6904W        W79230   1.835   1.670  13.833
 6905W        W79231   3.953   8.674  11.995
 6906W        W79232   8.703  36.060   3.745
 6907W        W79233  33.104  21.607   3.747
 6908W        W79234  24.301   4.950  11.479
 6909W        W79235  32.270  22.230  10.244
 6910W        W79236  28.514  34.890   3.738
 6911W        W79237  44.797  30.777  13.392
 6912W        W79238  42.496  13.777  10.830
 6913W        W79239  29.500  10.220  11.694
 6914W        W79240  25.018  13.336  14.019
 6915W        W79241  37.116  10.321   4.119
 6916W        W79242  41.498  27.104  12.395
 6917W        W79243  23.483  33.437   3.664
 6918W        W79244   1.828  44.798   1.764
 6919W        W79245   6.928   0.017  14.493
 6920W        W79246  22.309  43.149  10.050
 6921W        W79247  13.698  24.143   3.736
 6922W        W79248  17.229  24.428   2.602
 6923W        W79249  34.861  11.163  12.870
 6924W        W79250   3.538  30.563   1.256
 6925W        W79251  44.282  27.166   2.777
 6926W        W79252  23.072  21.587   1.913
 6927W        W79253  30.239  24.443  12.950
 6928W        W79254  43.792  18.629  13.405
 6929W        W79255  16.669  21.332   2.285
 6930W        W79256  36.232  34.508  13.265
 6931W        W79257   9.715  42.472   0.771
 6932W        W79258   2.685  28.563   1.186
 6933W        W79259  11.662  44.472  13.979
 6934W        W79260   8.755  31.525  13.876
 6935W        W79261  37.335  35.387   4.040
 6936W        W79262  13.726   6.761   2.703
 6937W        W79263  36.093  11.155   3.639
 6938W        W79264  13.033  39.825   3.356
 6939W        W79265  23.313  28.057  12.014
 6940W        W79266  36.925  33.848   2.779
 6941W        W79267  40.645  41.643  12.069
 6942W        W79268  27.644  28.972  12.354
 6943W        W79269  36.841  34.083   4.449
 6944W        W79270   2.206  16.228  13.478
 6945W        W79271  33.329  36.595  12.868
 6946W        W79272  23.806  32.666   3.259
 6947W        W79273   6.052  21.242  11.265
 6948W        W79274   5.479  42.074  12.941
 6949W        W79275  16.397  26.812   3.706
 6950W        W79276  38.444  10.698  14.567
 6951W        W79277  14.683  12.354  13.447
 6952W        W79278   9.329   3.118  11.916
 6953W        W79279  27.273  34.310   0.720
 6954W        W79280   2.968  37.022  12.342
 6955W        W79281  25.763  32.346   3.687
 6956W        W79282   1.324  18.061  12.049
 6957W        W79283  14.656  26.601  13.998
 6958W        W79284  23.576  20.370   0.819
 6959W        W79285  21.952  41.279  12.023
 6960W        W79286  29.652  11.774  11.493
 6961W        W79287  29.031  32.369  14.904
 6962W        W79288   0.980  39.957  13.341
 6963W        W79289  40.806  33.901   3.592
 6964W        W79290  11.032  22.333   4.673
 6965W        W79291  42.520  40.998  13.296
 6966W        W79292  19.841  16.243  11.217
 6967W        W79293   1.065  39.455  11.935
 6968W        W79294  16.560  14.979   4.433
 6969W        W79295  33.496  33.683  13.363
 6970W        W79296  16.330  29.764  13.954
 6971W        W79297   2.441  16.120   4.365
 6972W        W79298  40.066  26.917   4.910
 6973W        W79299  13.497  25.452  10.677
 6974W        W79300   8.806   2.697  10.639
 6975W        W79301   1.414   8.502  13.127
 6976W        W79302  12.672  44.640  12.402
 6977W        W79303   1.957  19.571   0.908
 6978W        W79304   0.368   2.857  10.980
 6979W        W79305  33.353  24.292  14.840
 6980W        W79306  20.436  40.334   2.443
 6981W        W79307  20.985   9.917   4.305
 6982W        W79308  24.219   8.810  10.210
 6983W        W79309  35.956  22.146  14.933
 6984W        W79310   0.192  38.633  12.590
 6985W        W79311  36.471   8.087  12.441
 6986W        W79312  40.377  33.817   2.630
 6987W        W79313  23.671  36.133   0.480
 6988W        W79314  17.365  36.004   0.252
 6989W        W79315   9.894  20.388   0.395
 6990W        W79316   3.345  21.539   3.726
 6991W        W79317  34.977  28.153   1.158
 6992W        W79318  28.935  33.324  14.724
 6993W        W79319  44.211  14.745   0.607
 6994W        W79320  17.316  12.070   3.321
 6995W        W79321  41.296   1.816   3.265
 6996W        W79322   8.470  17.618   1.260
 6997W        W79323   1.390  15.757   2.091
 6998W        W79324  34.020  23.100  12.175
 6999W        W79325  25.637   2.701   0.669
 7000W        W79326  44.414  12.552  13.073
 7001W        W79327  30.448   0.644   1.905
 7002W        W79328  18.065  12.043   1.207
 7003W        W79329  15.310  11.159   4.712
 7004W        W79330  44.828  33.290   4.592
 7005W        W79331  19.572  32.652   0.014
 7006W        W79332  26.104  30.630   1.325
 7007W        W79333  29.602  33.013  13.859
 7008W        W79334  33.853  12.846   3.390
 7009W        W79335  35.494  42.980  11.091
 7010W        W79336  31.290  38.360  13.296
 7011W        W79337   1.266  37.443   3.440
 7012W        W79338   8.416  27.218  12.969
 7013W        W79339  32.242  38.750   1.710
 7014W        W79340  22.066   4.981  11.122
 7015W        W79341   7.287  21.209  14.409
 7016W        W79342  40.035  17.655   1.958
 7017W        W79343  28.142  18.670  11.074
 7018W        W79344   3.751  35.438   2.217
 7019W        W79345  41.190  23.577  10.804
 7020W        W79346  26.978  18.379  11.573
 7021W        W79347  18.770  37.950  14.240
 7022W        W79348  25.467  30.836  13.403
 7023W        W79349  29.399  28.984   0.946
 7024W        W79350  36.374   9.742   3.866
 7025W        W79351  10.169   2.467  13.046
 7026W        W79352  39.321   6.663   4.580
 7027W        W79353  43.048  12.280   3.551
 7028W        W79354  32.994  16.795   4.169
 7029W        W79355  21.219  32.612   4.656
 7030W        W79356  25.508  27.928  12.680
 7031W        W79357  44.521  33.117   0.221
 7032W        W79358  40.220  26.489   4.160
 7033W        W79359  14.324  12.839   0.543
 7034W        W79360   4.327  20.772  10.822
 7035W        W79361  32.192  33.014  10.228
 7036W        W79362  19.703  43.290  13.504
 7037W        W79363  21.297  32.376   0.566
 7038W        W79364   3.867  35.897   4.070
 7039W        W79365  26.968   5.399   0.853
 7040W        W79366  34.414   6.224   1.389
 7041W        W79367   0.891  44.022  10.724
 7042W        W79368  12.697   9.048  13.462
 7043W        W79369  34.569  36.406  10.487
 7044W        W79370  13.838   9.066   3.296
 7045W        W79371  36.322   9.322   2.679
 7046W        W79372  22.394   0.996  10.072
 7047W        W79373   1.487  30.673  12.538
 7048W        W79374   8.882  35.604   0.212
 7049W        W79375  29.861   5.839   1.864
 7050W        W79376   6.719  15.676   2.601
 7051W        W79377   5.690  20.616  12.133
 7052W        W79378  18.345  41.033   4.690
 7053W        W79379  20.116  43.707   2.617
 7054W        W79380  18.608  35.378  12.024
 7055W        W79381   7.876  31.660  12.810
 7056W        W79382  35.672  41.403   1.560
 7057W        W79383  26.722  19.847   3.085
 7058W        W79384  29.834  28.089  11.655
 7059W        W79385  32.545   4.236   4.184
 7060W        W79386  21.985   7.322   1.795
 7061W        W79387  42.597  38.566  10.744
 7062W        W79388  33.787  28.434  13.402
 7063W        W79389  37.598  21.716   0.774
 7064W        W79390  21.899  20.599   1.470
 7065W        W79391   3.353  33.908  10.689
 7066W        W79392  26.974  16.204   1.356
 7067W        W79393  17.514  34.031   3.166
 7068W        W79394   8.152   2.464  14.706
 7069W        W79395  35.356   9.438  14.869
 7070W        W79396  13.569  16.562   4.176
 7071W        W79397  21.559  44.209   3.858
 7072W        W79398  14.803   3.269  14.985
 7073W        W79399  22.742  14.978   0.908
 7074W        W79400  12.737  39.600   1.910
 7075W        W79401  17.173  18.540  14.391
 7076W        W79402   7.916   0.318   3.289
 7077W        W79403   0.314  43.290   2.122
 7078W        W79404  37.314  31.907   9.979
 7079W        W79405  42.143   7.135   9.859
 7080W        W79406  18.499   0.978  10.633
 7081W        W79407  27.717  23.469  14.923
 7082W        W79408  16.116  23.943   0.750
 7083W        W79409  20.506  27.694  11.902
 7084W        W79410   3.532  25.021   1.654
 7085W        W79411  11.827  41.034   3.367
 7086W        W79412  19.725   5.741   0.541
 7087W        W79413   3.476  23.007  12.914
 7088W        W79414  23.943  11.855  13.500
 7089W        W79415   3.348  33.589   0.728
 7090W        W79416   5.482   7.161   1.822
 7091W        W79417  10.550   6.498   2.849
 7092W        W79418  18.241  11.768  10.594
 7093W        W79419  18.195  29.878   3.273
 7094W        W79420  16.343  10.289   2.747
 7095W        W79421  17.643   7.591   3.335
 7096W        W79422  27.358   6.723   2.192
 7097W        W79423   7.263  31.672  10.767
 7098W        W79424  43.660  25.747   0.458
 7099W        W79425  43.780  13.683   2.754
 7100W        W79426  16.045  31.096   2.087
 7101W        W79427  26.448   2.713  14.368
 7102W        W79428  39.937  13.845   1.831
 7103W        W79429  20.120  44.298   1.036
 7104W        W79430  29.972   4.385   2.733
 7105W        W79431  23.539   8.504  11.676
 7106W        W79432  26.732  25.557   3.882
 7107W        W79433  17.182  13.842  11.411
 7108W        W79434   3.512   4.040  14.423
 7109W        W79435  35.494  12.561   2.762
 7110W        W79436   7.940  21.966  12.350
 7111W        W79437  28.645  13.484  10.745
 7112W        W79438  20.023  33.181  14.355
 7113W        W79439  37.621  44.527  12.962
 7114W        W79440  44.438  29.708  14.014
 7115W        W79441  42.124  14.693  14.422
 7116W        W79442  16.892  34.855  14.973
 7117W        W79443  17.140   1.099   0.814
 7118W        W79444   8.860   1.686   1.499
 7119W        W79445  24.508  16.139  13.041
 7120W        W79446   5.955   8.373  12.559
 7121W        W79447  42.925  14.233  10.742
 7122W        W79448  32.282  38.370  13.455
 7123W        W79449  34.164   3.003   3.863
 7124W        W79450  19.713  27.712  11.477
 7125W        W79451  35.400   8.910   9.847
 7126W        W79452  35.099  30.471   1.994
 7127W        W79453   5.887   1.300  14.861
 7128W        W79454  12.780  42.865  11.898
 7129W        W79455  44.027  25.016   1.609
 7130W        W79456   2.899  27.653  12.070
 7131W        W79457  36.329  15.807   0.745
 7132W        W79458   4.403  42.322  10.994
 7133W        W79459  25.756  20.374  12.406
 7134W        W79460   7.186  25.104  10.655
 7135W        W79461  20.155  40.043  10.934
 7136W        W79462  11.386  12.620   1.242
 7137W        W79463  27.109  35.732  12.128
 7138W        W79464   1.108  15.853  14.329
 7139W        W79465  13.845   7.096   2.318
 7140W        W79466  15.385   3.762   0.324
 7141W        W79467  21.017   0.364   1.717
 7142W        W79468   8.260  12.288  13.518
 7143W        W79469  41.831  42.971  12.210
 7144W        W79470  18.884  26.003  13.859
 7145W        W79471  21.825  35.639  12.903
 7146W        W79472  43.083  32.059   4.586
 7147W        W79473  11.330  26.083  11.188
 7148W        W79474   8.172  28.885  14.095
 7149W        W79475  44.307  16.525   0.768
 7150W        W79476   3.798  14.727   1.191
 7151W        W79477   7.380  23.237  11.945
 7152W        W79478  34.392  27.089   1.940
 7153W        W79479  16.040   8.818   1.774
 7154W        W79480  10.281   1.880   5.226
 7155W        W79481  16.204  18.024   1.597
 7156W        W79482   0.263  41.688  13.031
 7157W        W79483   7.727   8.663  10.792
 7158W        W79484  15.934  26.117  13.819
 7159W        W79485  26.775  36.444  12.142
 7160W        W79486   1.210  24.252   2.273
 7161W        W79487  25.339  43.443   1.689
 7162W        W79488  30.148  36.664  12.567
 7163W        W79489  30.444  30.339  11.142
 7164W        W79490  23.972  31.644   3.205
 7165W        W79491   7.330  25.839  13.156
 7166W        W79492  36.162   4.488  12.445
 7167W        W79493  11.351  22.278   0.711
 7168W        W79494  18.783  30.393   1.749
 7169W        W79495   6.398  31.136   1.163
 7170W        W79496  43.064  42.506   0.856
 7171W        W79497  41.606  17.095  14.772
 7172W        W79498   7.108  39.425   3.564
 7173W        W79499  14.521  26.008   1.187
 7174W        W79500  42.155  13.280   0.148
 7175W        W79501   5.181  13.102  13.397
 7176W        W79502  44.358  14.732  10.327
 7177W        W79503   4.200  36.072   3.163
 7178W        W79504   8.262  30.557   4.453
 7179W        W79505  11.637   5.334  13.391
 7180W        W79506  26.381  24.611  12.256
 7181W        W79507   6.425  32.681  14.031
 7182W        W79508  37.348  13.638   5.168
 7183W        W79509  20.092  22.964   1.699
 7184W        W79510   9.445  39.045   1.601
 7185W        W79511   1.698  10.117   0.249
 7186W        W79512  14.765  21.737   3.340
 7187W        W79513  14.765  11.325   4.595
 7188W        W79514   7.138  41.425  13.120
 7189W        W79515   1.525   2.161  11.527
 7190W        W79516  31.244   2.566  12.821
 7191W        W79517  16.244  18.263   0.347
 7192W        W79518  13.155  32.569   4.580
 7193W        W79519   0.347  21.592   2.844
 7194W        W79520  18.072  35.884   1.335
 7195W        W79521   2.864  12.674  12.020
 7196W        W79522  13.153  15.121   2.248
 7197W        W79523  14.337  21.082  12.443
 7198W        W79524   0.945  36.872   4.862
 7199W        W79525  43.013  19.925   4.125
 7200W        W79526  40.609  22.113  12.495
 7201W        W79527  43.063  25.636  13.318
 7202W        W79528  22.146  41.921   1.311
 7203W        W79529  15.615   1.839  13.588
 7204W        W79530  27.109  14.860   2.651
 7205W        W79531  27.948  26.168   4.148
 7206W        W79532   9.358  34.964   2.268
 7207W        W79533  25.535  10.074  12.859
 7208W        W79534  13.809   2.326  12.045
 7209W        W79535  22.025  15.512  11.508
 7210W        W79536  10.684  12.833  11.667
 7211W        W79537  35.342  21.274  10.824
 7212W        W79538  41.911  21.206  14.856
 7213W        W79539  17.114  18.139   3.634
 7214W        W79540  19.824  32.525  12.375
 7215W        W79541   2.117  38.575   2.664
 7216W        W79542  16.606  42.218   3.267
 7217W        W79543  35.092  19.073   1.713
 7218W        W79544  36.993  29.851   3.284
 7219W        W79545  29.284  32.115   2.849
 7220W        W79546  33.004  34.387  10.714
 7221W        W79547  24.324  13.037   4.293
 7222W        W79548  28.190  36.948  11.532
 7223W        W79549  12.668   2.244   1.383
 7224W        W79550  38.984   8.285  14.988
 7225W        W79551  20.980  27.041   0.491
 7226W        W79552  17.455  38.187  14.045
 7227W        W79553   7.762  14.043   1.630
 7228W        W79554  21.980  10.100   2.849
 7229W        W79555  24.234  21.486  14.311
 7230W        W79556  31.451  22.457   5.024
 7231W        W79557  28.939  36.918  14.044
 7232W        W79558  30.910  14.554  14.676
 7233W        W79559  23.141  22.409   0.755
 7234W        W79560  21.500  16.116   3.632
 7235W        W79561  37.045  38.300  10.734
 7236W        W79562   7.910  39.394  12.808
 7237W        W79563  35.566  44.999   2.337
 7238W        W79564  12.921  29.039   3.622
 7239W        W79565  22.060  16.789   5.720
 7240W        W79566  16.229  44.044  14.229
 7241W        W79567  31.789  19.644   1.505
 7242W        W79568  17.297   7.645   1.451
 7243W        W79569   1.416  25.044   0.361
 7244W        W79570  32.556  35.034   1.119
 7245W        W79571   5.167  28.198   2.174
 7246W        W79572   3.271  18.512  12.521
 7247W        W79573  44.344  23.020   2.240
 7248W        W79574  15.577   1.854   0.264
 7249W        W79575  15.183  39.392  14.356
 7250W        W79576  35.412  32.076  12.824
 7251W        W79577  23.536  40.485  13.757
 7252W        W79578  28.548  14.794   0.691
 7253W        W79579  37.386  41.490   3.285
 7254W        W79580   3.419   3.357  11.969
 7255W        W79581  12.321  20.218  11.631
 7256W        W79582  35.851   6.314   2.086
 7257W        W79583   4.398  39.524  14.026
 7258W        W79584  42.086  30.707  12.583
 7259W        W79585  18.292  13.401  11.569
 7260W        W79586  20.766   9.752  13.099
 7261W        W79587  27.600  13.753   4.572
 7262W        W79588   4.189  36.888   1.420
 7263W        W79589  22.826  13.483   3.219
 7264W        W79590   1.904  12.111   2.329
 7265W        W79591  36.535  10.267   1.685
 7266W        W79592  29.733   0.779   5.048
 7267W        W79593   3.403   7.882  12.489
 7268W        W79594  11.806  41.305  14.671
 7269W        W79595  38.374  10.652   2.915
 7270W        W79596  16.511   6.896   1.292
 7271W        W79597  33.115  35.719  12.453
 7272W        W79598  44.699  43.880   1.333
 7273W        W79599  28.996  30.092   1.934
 7274W        W79600  18.263  34.024   4.587
 7275W        W79601  37.116  25.724   0.849
 7276W        W79602  27.329  42.997  12.103
 7277W        W79603  44.084   0.265  13.013
 7278W        W79604  12.620  33.900  12.179
 7279W        W79605   6.482  23.645   1.844
 7280W        W79606   6.825  31.010   4.082
 7281W        W79607  13.746   8.272   0.751
 7282W        W79608  28.481   0.172  14.911
 7283W        W79609   5.866  10.089  11.868
 7284W        W79610   6.424  37.407  14.491
 7285W        W79611  26.609   9.995   3.433
 7286W        W79612  15.746  29.559  13.431
 7287W        W79613   7.773   6.362  13.065
 7288W        W79614  33.303   9.328  10.743
 7289W        W79615   4.480  17.849  14.268
 7290W        W79616  27.193  14.326  14.333
 7291W        W79617  10.160   0.383  12.918
 7292W        W79618  26.510  26.881   5.414
 7293W        W79619  43.010  25.433  14.357
 7294W        W79620  24.710  27.152   4.119
 7295W        W79621  11.938   1.641  11.108
 7296W        W79622  35.588  36.338  12.070
 7297W        W79623   6.291  32.622   4.367
 7298W        W79624   6.926  13.274  12.936
 7299W        W79625   7.666   6.080   0.811
 7300W        W79626  15.607   3.144  13.345
 7301W        W79627   8.766  36.000   4.608
 7302W        W79628  13.679  34.384  12.414
 7303W        W79629  32.355   8.194  11.922
 7304W        W79630  10.370   9.568  11.605
 7305W        W79631   3.415  42.765  14.539
 7306W        W79632  32.171  26.655   2.663
 7307W        W79633  38.312   9.875   3.289
 7308W        W79634  34.040  19.301  10.713
 7309W        W79635  35.041  34.835  13.828
 7310W        W79636  43.107  38.478   0.070
 7311W        W79637  13.622  37.457   3.577
 7312W        W79638  19.584  20.015   0.607
 7313W        W79639  39.747  30.873   3.668
 7314W        W79640  44.967  31.690   0.402
 7315W        W79641  21.228  12.646   4.107
 7316W        W79642  11.421  26.459   3.740
 7317W        W79643  23.124  26.727   4.665
 7318W        W79644  30.310  24.269  11.447
 7319W        W79645  34.498  32.983  14.670
 7320W        W79646  12.706  23.052  13.354
 7321W        W79647  30.116   9.281   3.310
 7322W        W79648  40.184  28.580   0.290
 7323W        W79649  27.533  33.978   3.768
 7324W        W79650  40.562   4.932   0.358
 7325W        W79651  28.051  14.357   1.681
 7326W        W79652   0.522   2.281  14.004
 7327W        W79653  39.313  20.594   1.631
 7328W        W79654  18.321   4.093   0.304
 7329W        W79655   8.829  34.099   0.256
 7330W        W79656   4.046  22.284   9.854
 7331W        W79657  22.815  12.223  10.456
 7332W        W79658  29.113  31.946  12.513
 7333W        W79659   4.145  28.891   2.735
 7334W        W79660  15.068   1.281  11.298
 7335W        W79661  33.542  20.928   1.997
 7336W        W79662  16.612   1.691  12.357
 7337W        W79663  10.932  14.346  10.733
 7338W        W79664   9.024  17.195  13.083
 7339W        W79665   0.822  43.979  14.353
 7340W        W79666  35.016  37.154  10.985
 7341W        W79667   6.521  24.888  11.958
 7342W        W79668  29.515  20.544  10.763
 7343W        W79669  43.211  22.244   2.262
 7344W        W79670  19.238  11.828   3.689
 7345W        W79671  10.314  43.791   3.633
 7346W        W79672  25.433  42.978   1.858
 7347W        W79673  40.948  20.744   0.774
 7348W        W79674  22.969  42.858  14.312
 7349W        W79675  17.992  35.525  13.900
 7350W        W79676   2.650  39.498  13.053
 7351W        W79677   3.780   0.247  10.005
 7352W        W79678  27.243  35.550   1.911
 7353W        W79679  12.759   3.734   2.273
 7354W        W79680  42.702   3.285  12.324
 7355W        W79681   2.170  11.169   1.744
 7356W        W79682  20.107  25.902  14.458
 7357W        W79683  22.424  20.603   1.309
 7358W        W79684  26.118  35.434  12.653
 7359W        W79685  21.905  20.260  12.401
 7360W        W79686  27.869  35.281   1.256
 7361W        W79687  41.073  42.606  13.378
 7362W        W79688   0.298  22.678   9.757
 7363W        W79689  14.240  18.423  13.551
 7364W        W79690  15.785  38.923   3.209
 7365W        W79691  35.895  11.824   0.696
 7366W        W79692  15.840  43.068   2.382
 7367W        W79693  22.843  36.947  11.234
 7368W        W79694   2.787  16.240   3.522
 7369W        W79695  20.823  43.227  11.984
 7370W        W79696  13.882  38.935  11.555
 7371W        W79697  31.957   1.113  14.363
 7372W        W79698   7.451  24.638   1.344
 7373W        W79699  17.534  10.796  10.701
 7374W        W79700  44.197  24.709  13.074
 7375W        W79701  16.062  16.294   4.724
 7376W        W79702   5.319   8.136   3.337
 7377W        W79703  34.542   4.108  14.095
 7378W        W79704  28.731  24.151  14.293
 7379W        W79705  36.012  33.737   0.937
 7380W        W79706  31.067   1.727   2.311
 7381W        W79707  25.682  11.605  10.224
 7382W        W79708   3.394  36.318   0.685
 7383W        W79709  12.294  32.896   2.354
 7384W        W79710  21.634  34.392   2.915
 7385W        W79711  39.441  11.641  11.911
 7386W        W79712  35.144   6.256   1.818
 7387W        W79713   1.906   9.113   0.768
 7388W        W79714  14.889  34.535   9.804
 7389W        W79715   8.487  28.475  12.827
 7390W        W79716  28.919   0.822   0.301
 7391W        W79717   8.729  20.696  10.763
 7392W        W79718   2.499  22.170  11.618
 7393W        W79719  39.024  40.874   2.797
 7394W        W79720  21.856  41.395   0.008
 7395W        W79721  34.473  15.103  11.246
 7396W        W79722   2.759  33.939  14.404
 7397W        W79723   3.316  13.803  14.481
 7398W        W79724  35.434  28.362   1.014
 7399W        W79725  29.780  17.084  13.978
 7400W        W79726  15.842  36.466  11.466
 7401W        W79727  31.173  18.261  12.960
 7402W        W79728  16.762  29.139  11.261
 7403W        W79729   0.125   8.734  12.487
 7404W        W79730  25.669   2.178   0.718
 7405W        W79731   6.074  15.218  13.397
 7406W        W79732  11.189  23.650  10.577
 7407W        W79733   3.369  41.276  10.924
 7408W        W79734  17.245  43.567   4.784
 7409W        W79735  43.358  42.385   4.739
 7410W        W79736   7.191  18.622  13.340
 7411W        W79737  20.627  39.345  13.519
 7412W        W79738   3.310  34.421   4.038
 7413W        W79739  15.589  36.115   4.716
 7414W        W79740  32.265   0.195  10.205
 7415W        W79741  18.039  28.093   3.771
 7416W        W79742  24.327  29.174   4.458
 7417W        W79743   6.220  14.812   3.073
 7418W        W79744   6.160   2.578   4.492
 7419W        W79745   1.676   3.940  11.893
 7420W        W79746  37.726  35.643  14.205
 7421W        W79747   3.043  18.536  13.447
 7422W        W79748  21.243  24.438   4.126
 7423W        W79749   0.905  19.645  14.854
 7424W        W79750  44.909  44.028  10.507
 7425W        W79751  23.623  38.708  14.348
 7426W        W79752  29.015   5.304   3.862
 7427W        W79753  20.481  16.588  13.062
 7428W        W79754  15.850  17.546   3.384
 7429W        W79755   9.977  31.851   4.856
 7430W        W79756   4.000  42.959   1.418
 7431W        W79757  23.356  34.470  11.642
 7432W        W79758  34.842  34.851   2.839
 7433W        W79759  41.566   3.655   0.804
 7434W        W79760  16.650  37.370   3.837
 7435W        W79761  40.214  32.919   3.122
 7436W        W79762   3.791  13.787   3.236
 7437W        W79763  38.553  27.900  13.375
 7438W        W79764  43.548  34.280  11.744
 7439W        W79765  42.831  42.972  11.890
 7440W        W79766   1.290  25.068   4.702
 7441W        W79767  28.544  37.917  14.619
 7442W        W79768   7.423  30.034   0.923
 7443W        W79769  33.433  17.144   3.149
 7444W        W79770   2.775   5.463  11.433
 7445W        W79771  35.150  17.324   0.934
 7446W        W79772  34.855  42.824   2.857
 7447W        W79773  30.136   5.703  14.624
 7448W        W79774  13.237  43.376  14.027
 7449W        W79775  25.967  18.611  11.393
 7450W        W79776  35.089  41.383   4.499
 7451W        W79777  14.084  14.733   2.683
 7452W        W79778   2.672  43.869   1.376
 7453W        W79779  38.809  16.644  14.308
 7454W        W79780  12.765  29.161  11.942
 7455W        W79781  29.151   5.527   0.955
 7456W        W79782   9.176   0.977   1.446
 7457W        W79783  32.037  31.979  11.509
 7458W        W79784  33.578  19.491  10.803
 7459W        W79785  34.706  27.914   2.503
 7460W        W79786  40.391  30.641   2.371
 7461W        W79787  36.922   0.703  10.447
 7462W        W79788  32.339   0.764   4.959
 7463W        W79789  21.152   7.328  13.810
 7464W        W79790  10.248  35.073   1.781
 7465W        W79791  40.623  11.804  13.403
 7466W        W79792  18.186   1.343  12.349
 7467W        W79793  38.916  41.698   3.200
 7468W        W79794  30.043  37.858  11.657
 7469W        W79795  40.913  12.380   2.626
 7470W        W79796   5.567  18.947   2.363
 7471W        W79797   8.153  10.836   1.403
 7472W        W79798   6.180  28.821   2.748
 7473W        W79799  34.791   8.170   2.753
 7474W        W79800  11.598  40.661   4.253
 7475W        W79801  10.758  12.867   3.162
 7476W        W79802   5.790  31.057   4.303
 7477W        W79803   9.212  28.804  14.473
 7478W        W79804   5.375  39.789  12.337
 7479W        W79805  40.321   5.692  11.625
 7480W        W79806  44.339  21.993  11.518
 7481W        W79807  35.072   0.656  13.974
 7482W        W79808  22.537  43.772   3.246
 7483W        W79809  33.822  42.377  11.706
 7484W        W79810  12.017   1.191   5.050
 7485W        W79811  32.363  12.195  13.739
 7486W        W79812  20.358  21.793  10.211
 7487W        W79813  34.546  32.431  10.925
 7488W        W79814  12.332  38.423  10.629
 7489W        W79815   7.835  35.121  12.862
 7490W        W79816  18.814  23.734   2.320
 7491W        W79817  31.955  19.709   2.367
 7492W        W79818  18.379   5.481  11.988
 7493W        W79819   8.330  12.281  12.509
 7494W        W79820  25.500   4.282  12.752
 7495W        W79821  32.963  18.166   2.249
 7496W        W79822  42.499  20.698   3.909
 7497W        W79823  28.666  30.538  10.598
 7498W        W79824   6.190  25.082  11.554
 7499W        W79825  17.069   9.582  11.210
 7500W        W79826   0.292  10.446   0.837
 7501W        W79827   9.883  16.842  12.690
 7502W        W79828  42.802   0.859  12.347
 7503W        W79829  29.136  40.651  11.980
 7504W        W79830   7.773  35.329   1.336
 7505W        W79831  35.950  19.034  13.043
 7506W        W79832  30.652  35.306  13.458
 7507W        W79833  30.692  34.274  13.524
 7508W        W79834  16.228   4.318   2.592
 7509W        W79835  22.092  14.049   3.298
 7510W        W79836   2.254  29.667   0.229
 7511W        W79837  39.272  39.408   0.113
 7512W        W79838  21.666   3.524  12.115
 7513W        W79839  38.092   5.843   2.727
 7514W        W79840  10.379  27.163   5.052
 7515W        W79841  28.063  23.482  11.823
 7516W        W79842   9.097  42.078  12.950
 7517W        W79843  41.410  34.567  13.216
 7518W        W79844  29.639  26.659  14.545
 7519W        W79845  11.170  21.092  14.907
 7520W        W79846  19.074  35.690  13.505
 7521W        W79847  37.032  37.038   4.368
 7522W        W79848  27.836   5.315  10.633
 7523W        W79849  41.852  37.343  13.380
 7524W        W79850  21.397  28.031  11.150
 7525W        W79851  25.965  12.556   3.888
 7526W        W79852  33.060   5.193  14.005
 7527W        W79853  20.824  36.143  13.471
 7528W        W79854  44.433  18.602   4.160
 7529W        W79855  22.195   4.681   0.967
 7530W        W79856  31.144  38.960   0.787
 7531W        W79857  21.635  40.327  12.050
 7532W        W79858   1.394  43.652   1.864
 7533W        W79859  32.675   2.790   0.017
 7534W        W79860  15.572  32.989  11.497
 7535W        W79861   2.571  33.562  13.556
 7536W        W79862  41.886  33.094   4.516
 7537W        W79863  27.457   9.489  13.924
 7538W        W79864  17.757  16.418  12.977
 7539W        W79865  20.532  20.048  10.893
 7540W        W79866  26.004  15.237  10.093
 7541W        W79867  35.958  25.439  13.478
 7542W        W79868   4.341  38.132  10.386
 7543W        W79869   6.280   7.341   1.494
 7544W        W79870  43.206   7.437   3.221
 7545W        W79871  36.153   5.977  12.182
 7546W        W79872  41.219  24.004  12.008
 7547W        W79873   9.248  37.410  10.517
 7548W        W79874   4.697  21.832  10.986
 7549W        W79875  16.374   6.022  11.395
 7550W        W79876  18.016  30.909   4.327
 7551W        W79877  31.972   8.479  10.982
 7552W        W79878   3.467  38.461  14.000
 7553W        W79879   6.291  32.045   5.085
 7554W        W79880  38.052  43.853   1.810
 7555W        W79881  13.667  16.731  13.995
 7556W        W79882   3.950  24.137  10.220
 7557W        W79883  30.914  43.976  14.897
 7558W        W79884   9.633  31.659   1.290
 7559W        W79885   4.559  10.733   4.150
 7560W        W79886  33.381  10.843   2.148
 7561W        W79887  32.879   6.960  11.281
 7562W        W79888  39.003  10.829   1.740
 7563W        W79889  43.948  35.242  12.084
 7564W        W79890  21.739  26.475  12.580
 7565W        W79891  20.265  26.652  13.116
 7566W        W79892  44.578   8.795  11.160
 7567W        W79893  23.789  25.581   1.435
 7568W        W79894  37.505  28.450   1.388
 7569W        W79895  42.038  30.270   2.395
 7570W        W79896  40.922  22.159   1.745
 7571W        W79897  36.393  16.527   4.390
 7572W        W79898   0.852  19.676  13.948
 7573W        W79899  21.246  34.719  12.328
 7574W        W79900  42.260  33.927  13.738
 7575W        W79901  26.477  28.034  13.988
 7576W        W79902   1.341  22.608  13.041
 7577W        W79903   6.242  43.309   0.945
 7578W        W79904  30.476  24.530   4.228
 7579W        W79905  29.726  26.552   0.870
 7580W        W79906  35.445  44.185  12.939
 7581W        W79907  41.637   6.080  11.648
 7582W        W79908  36.503  18.965   1.709
 7583W        W79909  17.077  29.889  11.855
 7584W        W79910  23.699  13.042   0.284
 7585W        W79911   2.764  28.462  10.594
 7586W        W79912  26.699  26.117  10.137
 7587W        W79913  11.346   0.972   1.308
 7588W        W79914  44.388  17.558  11.123
 7589W        W79915  12.644  23.332  10.940
 7590W        W79916  23.696  29.377   2.663
 7591W        W79917   1.789  41.072   3.532
 7592W        W79918  38.154   9.757  13.048
 7593W        W79919  38.086  36.872  13.388
 7594W        W79920  42.456   5.902   1.313
 7595W        W79921  10.600  17.279   3.366
 7596W        W79922   7.891  18.280  10.702
 7597W        W79923  22.411  11.655   3.177
 7598W        W79924  41.876  36.293  12.529
 7599W        W79925  17.144  31.926   3.753
 7600W        W79926  15.641   5.765   2.749
 7601W        W79927  30.178  34.064   2.553
 7602W        W79928  39.401  33.394   3.371
 7603W        W79929   9.576  38.841  11.692
 7604W        W79930  33.354  16.704  13.200
 7605W        W79931  25.019  26.897  11.584
 7606W        W79932  11.367  33.253  10.674
 7607W        W79933  15.851  31.331  14.868
 7608W        W79934  41.551   5.184  11.463
 7609W        W79935  24.652  28.531   2.360
 7610W        W79936  23.540   4.662   3.414
 7611W        W79937  33.952  37.324   1.423
 7612W        W79938  29.486  11.933  14.857
 7613W        W79939  15.043   6.246   4.026
 7614W        W79940  32.037  22.093  14.935
 7615W        W79941  15.698  22.740   2.425
 7616W        W79942  17.223  32.874  12.973
 7617W        W79943  11.639   6.194  10.937
 7618W        W79944   7.853  26.254  14.371
 7619W        W79945  21.107  28.025   3.585
 7620W        W79946  17.809  32.469  11.681
 7621W        W79947  34.211  26.023  11.461
 7622W        W79948  39.734   2.345   0.983
 7623W        W79949   9.641   9.187  12.005
 7624W        W79950   8.653  12.434   4.420
 7625W        W79951  11.662   2.714   3.385
 7626W        W79952  34.331  16.198   0.836
 7627W        W79953  38.546  41.594  12.441
 7628W        W79954  31.580  38.497   2.359
 7629W        W79955   4.201  44.171   0.126
 7630W        W79956  10.804  32.676   4.175
 7631W        W79957   4.169  40.861  12.164
 7632W        W79958   7.575  35.451  14.976
 7633W        W79959   4.499  33.998  12.508
 7634W        W79960  41.348  37.541   3.793
 7635W        W79961  29.888  33.511  12.389
 7636W        W79962  18.137   1.866   1.344
 7637W        W79963  24.974  36.022   1.766
 7638W        W79964  38.983   5.355  14.064
 7639W        W79965  22.168  19.222  12.954
 7640W        W79966  31.944  39.093  14.071
 7641W        W79967  32.338   2.687   4.835
 7642W        W79968  34.054   2.817   1.327
 7643W        W79969  18.381  41.428  14.118
 7644W        W79970  37.404  28.414  13.811
 7645W        W79971  40.908  23.150  10.763
 7646W        W79972  33.477  42.437   1.281
 7647W        W79973  26.667  25.037  13.345
 7648W        W79974  18.004  37.009  12.523
 7649W        W79975  26.529  43.393  14.308
 7650W        W79976   7.057  11.711  11.569
 7651W        W79977  20.303  27.625  14.987
 7652W        W79978  24.461  31.849   1.815
 7653W        W79979  42.686  40.841  12.417
 7654W        W79980   3.027  11.806  11.898
 7655W        W79981  28.241  20.789  11.622
 7656W        W79982   6.399   5.217  13.508
 7657W        W79983   2.915  32.521  12.224
 7658W        W79984   9.744   5.151  12.601
 7659W        W79985  43.219  33.357   0.251
 7660W        W79986  34.842  42.338  13.931
 7661W        W79987   6.613  39.406   3.741
 7662W        W79988  28.694  25.171   4.164
 7663W        W79989   0.840  34.145   0.976
 7664W        W79990   9.681   1.953   3.781
 7665W        W79991  15.183  10.203  14.394
 7666W        W79992  29.101   2.619  11.587
 7667W        W79993  40.716  23.875  12.065
 7668W        W79994  36.335   6.717  10.641
 7669W        W79995   2.913   7.717   0.220
 7670W        W79996  37.315  42.882  14.984
 7671W        W79997  29.488   6.152  11.486
 7672W        W79998  10.926   2.573   1.759
 7673W        W79999  31.552   7.171   4.837
 7674W        W80000  44.999  43.824  11.503
 7675W        W80001  35.692  22.966   1.104
 7676W        W80002   3.036  36.106   0.381
 7677W        W80003  37.352   2.518  14.372
 7678W        W80004  23.516   5.383   0.715
 7679W        W80005  13.254  16.179   4.088
 7680W        W80006  31.642  14.561  13.388
 7681W        W80007  44.533   1.959   4.659
 7682W        W80008   6.070  18.182   1.194
 7683W        W80009  10.093   3.401  12.939
 7684W        W80010   4.349  27.078  13.723
 7685W        W80011  24.770   5.855   0.171
 7686W        W80012  10.763  31.145   3.307
 7687W        W80013   3.736  12.104   5.350
 7688W        W80014   3.780  39.518   1.956
 7689W        W80015  42.332  18.046  10.745
 7690W        W80016  31.179  12.766   4.632
 7691W        W80017  16.125   5.100   3.135
 7692W        W80018  16.665  19.948  14.002
 7693W        W80019  35.607   9.061  11.222
 7694W        W80020  14.884  20.206  12.607
 7695W        W80021  36.799  38.801   3.875
 7696W        W80022  28.930  10.799   1.851
 7697W        W80023  10.179  22.968  14.607
 7698W        W80024  15.531  22.221   3.305
 7699W        W80025  33.338  23.511  12.595
 7700W        W80026  30.278   2.559  13.780
 7701W        W80027  44.058  38.459  10.721
 7702W        W80028  27.904  29.582  12.245
 7703W        W80029  12.498  24.451   2.823
 7704W        W80030  10.621   5.394  14.896
 7705W        W80031  22.114  29.903   0.285
 7706W        W80032  34.775   0.697  13.511
 7707W        W80033  25.653  12.881  14.798
 7708W        W80034   3.434  36.358  14.294
 7709W        W80035  17.496  37.059   0.864
 7710W        W80036  26.958  23.787   4.110
 7711W        W80037  17.718  40.456  11.587
 7712W        W80038  42.872  38.266   0.927
 7713W        W80039  25.051   5.840   2.439
 7714W        W80040  13.122  26.085   9.982
 7715W        W80041  21.017  37.145  14.005
 7716W        W80042  43.097  35.490   1.952
 7717W        W80043   3.768   7.443   2.905
 7718W        W80044  29.150  19.249  12.458
 7719W        W80045   3.988  17.771   0.705
 7720W        W80046   1.221   9.117  14.540
 7721W        W80047  15.808  39.645   4.375
 7722W        W80048  26.715  26.568   9.857
 7723W        W80049   0.613   0.458   1.262
 7724W        W80050  43.793   0.575   4.532
 7725W        W80051   4.693  26.130  14.378
 7726W        W80052  36.034   7.755  11.591
 7727W        W80053   4.461  19.247  10.673
 7728W        W80054  28.612  33.866   3.611
 7729W        W80055  13.150  23.121   3.008
 7730W        W80056  23.097   6.767  11.055
 7731W        W80057  34.583  17.810   3.658
 7732W        W80058  44.494  34.458  12.595
 7733W        W80059   4.830  39.223   1.273
 7734W        W80060  13.452  23.482   0.332
 7735W        W80061  42.935   5.350  10.692
 7736W        W80062  36.610  10.683   5.085
 7737W        W80063   7.213   7.732   4.453
 7738W        W80064  41.018  35.494  13.618
 7739W        W80065  20.644  10.091   3.935
 7740W        W80066  18.466  42.886   4.199
 7741W        W80067  35.082  11.755  11.074
 7742W        W80068  37.812  30.505   4.075
 7743W        W80069  31.408  15.202   1.894
 7744W        W80070  41.121   5.348   0.895
 7745W        W80071  33.177  15.817  12.426
 7746W        W80072  41.768  41.377   1.248
 7747W        W80073   3.767  37.608  10.781
 7748W        W80074  39.153  17.659  13.531
 7749W        W80075  17.049  35.664   2.151
 7750W        W80076   5.838  41.965   3.162
 7751W        W80077  35.593   5.015   4.050
 7752W        W80078  40.494  15.374  14.951
 7753W        W80079   9.876  35.341  14.285
 7754W        W80080  17.271  20.760   4.487
 7755W        W80081  34.557   7.698   2.884
 7756W        W80082  22.915  25.970   0.749
 7757W        W80083  35.859   6.830   0.857
 7758W        W80084  37.513  14.589   1.446
 7759W        W80085  41.908  22.113   0.826
 7760W        W80086  40.966   5.762   4.763
 7761W        W80087  39.205   1.528   4.387
 7762W        W80088  14.794  43.280  12.057
 7763W        W80089  38.399  12.720  10.884
 7764W        W80090  34.409  32.522  12.433
 7765W        W80091  28.154   1.406   1.451
 7766W        W80092  12.193   6.386  12.910
 7767W        W80093  34.020  23.349   4.066
 7768W        W80094  13.399  43.612   1.605
 7769W        W80095  27.671  27.208  13.305
 7770W        W80096  38.460  19.261  10.915
 7771W        W80097  15.832   2.921  12.942
 7772W        W80098  20.751  25.414   2.794
 7773W        W80099  41.240  32.798  14.272
 7774W        W80100   6.804  12.161  11.639
 7775W        W80101  17.236  41.584   4.404
 7776W        W80102  43.715  11.912  11.163
 7777W        W80103   3.483   6.746   0.961
 7778W        W80104  41.257  27.563   2.108
 7779W        W80105  42.310  43.754   3.203
 7780W        W80106  29.481   3.328   0.412
 7781W        W80107  11.654   8.615  13.102
 7782W        W80108   2.797   6.686   2.220
 7783W        W80109  30.024  14.176   3.169
 7784W        W80110  27.966  13.896   2.326
 7785W        W80111   7.121  35.605   0.177
 7786W        W80112   1.424   4.673   1.421
 7787W        W80113  38.448  26.046   1.974
 7788W        W80114   7.653  40.335  13.952
 7789W        W80115  36.662  17.688   2.689
 7790W        W80116  33.066  19.470  11.599
 7791W        W80117  16.114  43.037   4.549
 7792W        W80118  38.771   0.465   4.012
 7793W        W80119  25.230  39.914   2.187
 7794W        W80120  22.124  14.599   2.517
 7795W        W80121   0.503  34.555   1.195
 7796W        W80122  30.693  30.901   0.093
 7797W        W80123  30.600   1.266  13.266
 7798W        W80124   3.163   5.303   1.313
 7799W        W80125   3.682  41.547  10.647
 7800W        W80126  18.229   3.989  12.213
 7801W        W80127  42.014  15.002   3.115
 7802W        W80128  13.412  23.259  13.503
 7803W        W80129   5.701   1.781   2.278
 7804W        W80130  42.404  15.296   0.111
 7805W        W80131  24.635  30.448   3.424
 7806W        W80132  44.224  11.601  13.448
 7807W        W80133   5.244  34.057  14.565
 7808W        W80134  32.709   3.209  14.689
 7809W        W80135  34.571  21.375  13.072
 7810W        W80136  16.346  26.935  14.894
 7811W        W80137  31.650  43.642  12.900
 7812W        W80138  38.936  26.276  13.323
 7813W        W80139   4.281   7.328   2.599
 7814W        W80140  18.074  30.834  12.880
 7815W        W80141  16.746  28.388  14.061
 7816W        W80142   6.764  31.869  12.410
 7817W        W80143  43.583  33.400  13.008
 7818W        W80144  29.549   8.519   4.197
 7819W        W80145  44.356   1.775  14.645
 7820W        W80146  19.294  44.255   0.783
 7821W        W80147  13.497  29.014  13.449
 7822W        W80148  40.382  12.763  13.381
 7823W        W80149  19.769  36.724   2.177
 7824W        W80150   8.372   6.961  14.411
 7825W        W80151  11.163   1.227  14.807
 7826W        W80152  39.578  42.486   4.100
 7827W        W80153  19.392   8.816   3.232
 7828W        W80154  34.080  40.928  14.893
 7829W        W80155   9.645   5.712  14.363
 7830W        W80156   0.261  44.232   0.909
 7831W        W80157  13.723  23.592   3.559
 7832W        W80158  35.946  15.817  14.100
 7833W        W80159  29.454  19.036   0.754
 7834W        W80160  10.695  39.897  14.531
 7835W        W80161  28.267  21.677  14.699
 7836W        W80162  31.928  25.645  14.933
 7837W        W80163   4.005   3.274   4.732
 7838W        W80164  24.049  24.667   2.905
 7839W        W80165  35.073  30.713  10.134
 7840W        W80166  20.518  19.765  14.857
 7841W        W80167  19.752  19.246   1.297
 7842W        W80168   5.999  35.662  11.537
 7843W        W80169  27.622  34.141  11.515
 7844W        W80170  13.094  41.973   1.195
 7845W        W80171   1.051  44.830  14.201
 7846W        W80172  41.035  16.639   1.981
 7847W        W80173  43.754  40.834   3.596
 7848W        W80174  36.617  31.464  12.913
 7849W        W80175   4.147   5.801   1.167
 7850W        W80176  43.277   9.723   1.941
 7851W        W80177  35.089  13.682  14.542
 7852W        W80178  27.973  26.115  14.703
 7853W        W80179  39.928  28.988   2.806
 7854W        W80180  27.565  18.871   0.342
 7855W        W80181  40.448  21.550  13.050
 7856W        W80182  36.871   0.152   1.752
 7857W        W80183  21.448  28.895   4.074
 7858W        W80184  42.688   7.159  12.571
 7859W        W80185  24.776  32.679   4.537
 7860W        W80186  39.486  34.675   1.827
 7861W        W80187  16.087   9.770   3.635
 7862W        W80188   1.419   9.047  13.317
 7863W        W80189  44.407  14.364  13.926
 7864W        W80190  24.526   4.440   2.626
 7865W        W80191  34.117  10.738   4.431
 7866W        W80192  11.453  27.733  13.236
 7867W        W80193  33.480   4.662  12.035
 7868W        W80194  24.938  32.161   0.230
 7869W        W80195  27.460  15.669   4.049
 7870W        W80196  17.784  16.334   3.123
 7871W        W80197  24.104   4.352   4.009
 7872W        W80198  16.872  44.913  11.242
 7873W        W80199  13.137  27.175  10.254
 7874W        W80200  11.644  31.943   5.006
 7875W        W80201  34.820  16.932   0.649
 7876W        W80202   3.879  18.672   4.577
 7877W        W80203  19.271  39.741  10.853
 7878W        W80204   6.587   9.709   4.047
 7879W        W80205  17.598  21.022   1.616
 7880W        W80206  20.197  41.462  13.717
 7881W        W80207  35.475   8.675  13.013
 7882W        W80208  12.555   3.395   4.014
 7883W        W80209  42.600  12.214  14.309
 7884W        W80210   8.682  39.390  13.797
 7885W        W80211   1.535  41.644  12.559
 7886W        W80212  17.439  36.064   5.034
 7887W        W80213  20.055   3.643  11.391
 7888W        W80214   2.238   0.514  11.965
 7889W        W80215  19.597   6.655  13.786
 7890W        W80216  38.505  17.347  10.701
 7891W        W80217  43.922  33.222   4.126
 7892W        W80218  44.038  17.320  12.782
 7893W        W80219   7.961  40.378  11.199
 7894W        W80220  31.930  16.003  13.753
 7895W        W80221   8.695  20.203  13.401
 7896W        W80222  15.655   8.429  14.102
 7897W        W80223  32.576  17.271   3.661
 7898W        W80224  15.183  28.613  10.734
 7899W        W80225  36.926  44.487  13.709
 7900W        W80226  44.602  39.912   2.119
 7901W        W80227  28.638  17.752  13.613
 7902W        W80228   8.323  32.854   4.228
 7903W        W80229   6.636  10.946  11.633
 7904W        W80230  17.665  34.828   3.745
 7905W        W80231  31.418  13.689   1.232
 7906W        W80232   2.731  15.603   0.657
 7907W        W80233  31.584   6.724  12.502
 7908W        W80234  21.783  41.947  11.550
 7909W        W80235  35.982  42.791  11.136
 7910W        W80236  29.932  42.462   0.568
 7911W        W80237  23.413   6.239   3.064
 7912W        W80238  13.225  36.162   0.421
 7913W        W80239   8.879  30.420   9.754
 7914W        W80240  27.475  19.920  12.048
 7915W        W80241  17.764   3.801  11.909
 7916W        W80242   8.107   8.641   5.201
 7917W        W80243  33.117  36.799   3.243
 7918W        W80244   1.914  22.282  12.669
 7919W        W80245  13.951   6.720  14.833
 7920W        W80246  37.032  33.413  12.937
 7921W        W80247  13.807  43.454   0.228
 7922W        W80248  13.746   0.426   4.725
 7923W        W80249  28.685  13.195  14.300
 7924W        W80250  12.620  22.811  10.630
 7925W        W80251   6.139  38.129   3.119
 7926W        W80252  34.976  42.332  14.573
 7927W        W80253  36.342  25.735   4.235
 7928W        W80254  19.989  41.393   0.222
 7929W        W80255  13.682  21.966   4.532
 7930W        W80256  42.222  35.047  11.638
 7931W        W80257  44.402  44.572  13.633
 7932W        W80258  13.187  37.008  13.386
 7933W        W80259  16.068  35.834  12.434
 7934W        W80260  15.173  44.800  11.784
 7935W        W80261   0.360  37.858  11.709
 7936W        W80262  17.119   3.627  11.237
 7937W        W80263   1.734  31.125  13.787
 7938W        W80264  34.825   8.329  10.708
 7939W        W80265  23.597  40.806   0.251
 7940W        W80266  11.682  28.602   2.879
 7941W        W80267   7.184  29.582  12.533
 7942W        W80268   8.670  30.494   5.079
 7943W        W80269  26.211  29.219  13.430
 7944W        W80270  23.666   1.405  14.268
 7945W        W80271   7.730  35.392   4.132
 7946W        W80272   0.212   9.199   0.243
 7947W        W80273  12.932  12.069  12.965
 7948W        W80274   2.949  31.059  14.989
 7949W        W80275  40.763   6.178   4.061
 7950W        W80276  34.220  23.630   1.789
 7951W        W80277   6.723  28.594   4.663
 7952W        W80278  38.424  20.076   4.754
 7953W        W80279  21.319   5.375   1.304
 7954W        W80280   1.808  39.153  12.652
 7955W        W80281  44.555  31.515   3.962
 7956W        W80282  22.191  11.164   0.296
 7957W        W80283  27.672  13.456  13.745
 7958W        W80284  25.782  16.236  10.136
 7959W        W80285  31.607  20.145  13.015
 7960W        W80286   8.987  35.823  10.698
 7961W        W80287  37.523  15.271  10.937
 7962W        W80288  12.855  42.481   0.893
 7963W        W80289  28.174   1.868  12.452
 7964W        W80290  15.246   7.037   4.473
 7965W        W80291  33.530  22.551  14.538
 7966W        W80292  29.842  23.700  10.684
 7967W        W80293  25.274  23.226  13.994
 7968W        W80294   9.141  34.091  11.226
 7969W        W80295  36.055  12.341   3.428
 7970W        W80296  24.519  37.564  13.024
 7971W        W80297  26.733   5.855  14.052
 7972W        W80298  13.851  35.102  13.483
 7973W        W80299   9.749   0.699   0.279
 7974W        W80300  17.483  11.801  11.038
 7975W        W80301   2.679  21.687   2.987
 7976W        W80302  12.923   8.076   0.984
 7977W        W80303  39.563  15.363  14.923
 7978W        W80304   5.331   5.666   0.410
 7979W        W80305  40.527  23.620  13.340
 7980W        W80306  32.839  34.677   0.782
 7981W        W80307  10.188  44.754   0.553
 7982W        W80308  24.523   6.115  12.561
 7983W        W80309  33.860  17.799   3.279
 7984W        W80310  25.713  21.477  14.926
 7985W        W80311  14.176  21.738  13.675
 7986W        W80312   9.403  28.571  10.774
 7987W        W80313  17.742  30.121   4.933
 7988W        W80314  18.151  37.639   1.869
 7989W        W80315   0.678   5.930  10.315
 7990W        W80316  32.430  17.075  10.296
 7991W        W80317  38.066  24.951   1.342
 7992W        W80318  40.488  26.778   2.733
 7993W        W80319  43.331  10.199  13.452
 7994W        W80320  33.596  25.596  12.997
 7995W        W80321   5.159  26.170   4.728
 7996W        W80322   2.315  23.037   2.341
 7997W        W80323  44.943  11.209   4.903
 7998W        W80324  35.551  11.628  14.437
 7999W        W80325  37.121  31.980  13.630
 8000W        W80326  36.065  22.235  12.542
 8001W        W80327   8.301  30.179   3.630
 8002W        W80328  13.160  36.370   4.615
 8003W        W80329   3.931  28.072   4.732
 8004W        W80330  12.800  26.696  14.923
 8005W        W80331   5.860  31.879  12.364
 8006W        W80332  26.926   2.346   2.982
 8007W        W80333  30.203   0.943  13.372
 8008W        W80334   1.227  39.058  10.717
 8009W        W80335  41.551  22.721   0.835
 8010W        W80336   4.397  22.648  11.906
 8011W        W80337  35.706  21.941   2.635
 8012W        W80338  40.794   4.803   3.886
 8013W        W80339  22.098   5.760   1.720
 8014W        W80340  44.483   1.393  14.333
 8015W        W80341   4.891  32.907  14.810
 8016W        W80342  16.828   7.508   2.450
 8017W        W80343  43.759  37.412  13.838
 8018W        W80344  20.031   0.939  13.917
 8019W        W80345  21.074   3.352  12.889
 8020W        W80346  34.944  23.047  10.126
 8021W        W80347   1.970   5.626  12.760
 8022W        W80348  24.357   4.426  11.642
 8023W        W80349   0.866  38.487   2.143
 8024W        W80350  22.713  36.938   3.616
 8025W        W80351  31.902   0.975   2.616
 8026W        W80352  16.310  26.047  12.830
 8027W        W80353   6.880   8.144   1.787
 8028W        W80354  31.199  14.160  10.404
 8029W        W80355  21.178   1.074  12.109
 8030W        W80356  36.902  25.688   1.912
 8031W        W80357  12.012  31.380  13.990
 8032W        W80358   8.641  25.785  14.873
 8033W        W80359   7.902   1.901  12.487
 8034W        W80360  44.883  16.354   0.279
 8035W        W80361  43.921   3.204   0.485
 8036W        W80362   7.826  14.763  10.748
 8037W        W80363   2.298   9.278  11.721
 8038W        W80364  24.320  43.313  12.122
 8039W        W80365  20.189  34.569  11.952
 8040W        W80366  44.925   4.853  14.054
 8041W        W80367   6.400   3.494  10.946
 8042W        W80368  18.212  21.115  13.375
 8043W        W80369   2.495   1.256   1.717
 8044W        W80370   3.490  43.093   0.439
 8045W        W80371  28.675  28.937   4.241
 8046W        W80372   2.479  26.755  11.953
 8047W        W80373   1.950  11.349  14.426
 8048W        W80374  40.877  38.089   2.501
 8049W        W80375  10.713   9.395   3.882
 8050W        W80376  27.195  38.805   4.180
 8051W        W80377  35.547  31.067  11.670
 8052W        W80378  13.804  24.225  13.402
 8053W        W80379  31.160  20.550   3.199
 8054W        W80380   2.762   7.785  13.195
 8055W        W80381  22.272  13.294   0.288
 8056W        W80382  33.615   6.234  13.349
 8057W        W80383  21.208  36.587  13.577
 8058W        W80384  35.402  17.980   4.567
 8059W        W80385  18.069  14.637   0.271
 8060W        W80386  10.699  44.519   4.102
 8061W        W80387  10.623  18.827  13.400
 8062W        W80388  10.886  40.351   3.395
 8063W        W80389   0.209   9.948   5.632
 8064W        W80390  38.274  41.247   4.705
 8065W        W80391  40.084  26.063   3.597
 8066W        W80392   5.762  21.631  14.065
 8067W        W80393  27.262  17.075   4.645
 8068W        W80394   9.152  26.830  10.083
 8069W        W80395  42.509  32.362  13.661
 8070W        W80396  26.473  28.942  11.601
 8071W        W80397  35.972  19.572  12.094
 8072W        W80398  26.784  42.371   3.568
 8073W        W80399  22.731  13.754   1.692
 8074W        W80400  13.513  38.620   4.145
 8075W        W80401   8.897  16.997  11.108
 8076W        W80402  35.096  23.140   2.598
 8077W        W80403  26.151  18.006   1.399
 8078W        W80404   1.410   2.783   1.610
 8079W        W80405  39.417  15.263  11.121
 8080W        W80406   8.471  37.483  13.551
 8081W        W80407  28.019  44.801  14.331
 8082W        W80408  19.991   4.910  10.187
 8083W        W80409  39.444  38.972  11.189
 8084W        W80410   6.023  22.548   2.614
 8085W        W80411  16.780  32.182   4.295
 8086W        W80412  25.134   3.824  13.904
 8087W        W80413  21.152  12.006  13.664
 8088W        W80414   4.963  37.077  10.057
 8089W        W80415  36.395  37.341  11.506
 8090W        W80416  36.163  23.759  11.596
 8091W        W80417  28.176  25.887  11.768
 8092W        W80418  15.393  20.097   2.582
 8093W        W80419  24.585   5.167   4.426
 8094W        W80420   4.991  32.363  13.437
 8095W        W80421   8.242  36.046   1.391
 8096W        W80422  19.271   9.958   4.702
 8097W        W80423  28.171  35.301   5.272
 8098W        W80424   5.300   6.337   1.023
 8099W        W80425  36.283   4.340   0.449
 8100W        W80426  23.469  14.201   4.213
 8101W        W80427  12.179  13.131  12.244
 8102W        W80428   8.122  16.173   2.300
 8103W        W80429  27.439  10.828  13.461
 8104W        W80430  42.380  12.650   1.286
 8105W        W80431  23.267  23.514  12.582
 8106W        W80432  32.038  35.044  13.430
 8107W        W80433  11.145  41.280  14.045
 8108W        W80434   8.979  39.282   5.076
 8109W        W80435  24.498  40.335   4.674
 8110W        W80436  30.817  27.469   3.211
 8111W        W80437  25.991   5.332  12.090
 8112W        W80438   6.308  33.148  12.517
 8113W        W80439  22.803   3.392  14.257
 8114W        W80440  31.651  44.466   2.084
 8115W        W80441  27.136   1.297  13.497
 8116W        W80442   9.718   1.029   3.164
 8117W        W80443  13.819  26.696  13.034
 8118W        W80444  31.389  13.675   4.494
 8119W        W80445  38.890   6.913  12.100
 8120W        W80446  17.140  29.825   1.796
 8121W        W80447  29.255  22.683  12.903
 8122W        W80448  12.702  39.073   1.657
 8123W        W80449   9.253   0.207   1.835
 8124W        W80450  25.964   3.829   3.926
 8125W        W80451  40.373   9.333  12.138
 8126W        W80452  27.159  36.796  11.998
 8127W        W80453   5.764  27.691   1.452
 8128W        W80454  17.044   3.302   2.817
 8129W        W80455   5.436   3.803   2.378
 8130W        W80456  15.652  28.229   0.494
 8131W        W80457   5.964  42.994  10.983
 8132W        W80458  24.466  39.004   4.649
 8133W        W80459  28.675  33.115   2.858
 8134W        W80460  33.173   0.021   1.808
 8135W        W80461  26.955  36.358  12.875
 8136W        W80462  29.726  11.266  11.520
 8137W        W80463  13.537  34.672  13.523
 8138W        W80464   4.053   5.333   4.592
 8139W        W80465  44.376  28.888   3.193
 8140W        W80466  44.152  23.637   3.165
 8141W        W80467  12.860  43.946  12.994
 8142W        W80468  20.571   0.671  13.085
 8143W        W80469  21.769  23.130   4.354
 8144W        W80470  18.091  40.490  13.548
 8145W        W80471  37.471  12.306  12.336
 8146W        W80472  24.146  35.716  10.161
 8147W        W80473  35.593   2.963   4.115
 8148W        W80474  25.077  16.184  14.911
 8149W        W80475  34.003  25.444  14.926
 8150W        W80476  39.471  35.263   3.169
 8151W        W80477  18.209  32.515  11.350
 8152W        W80478   1.200  24.721  11.057
 8153W        W80479   7.212   0.431  14.205
 8154W        W80480  42.918  16.291   2.625
 8155W        W80481  28.529  30.602   1.698
 8156W        W80482  11.934  10.224  12.611
 8157W        W80483   2.768  38.860  10.562
 8158W        W80484  39.893  37.777   1.392
 8159W        W80485  22.747  42.085  11.689
 8160W        W80486  28.114  39.530   4.720
 8161W        W80487  31.300  10.399  13.384
 8162W        W80488  20.066   2.348   1.828
 8163W        W80489  13.846  20.147  13.544
 8164W        W80490   0.624  23.549   4.947
 8165W        W80491  18.183   1.429  12.845
 8166W        W80492  12.292  41.350  12.491
 8167W        W80493  15.274  36.079   1.541
 8168W        W80494   3.304   7.872   2.788
 8169W        W80495   5.102  22.189   0.985
 8170W        W80496  17.752  25.848   1.589
 8171W        W80497  42.918  38.923  14.343
 8172W        W80498  34.098  29.378  14.233
 8173W        W80499  19.223   3.055  14.088
 8174W        W80500   8.625  14.449   0.803
 8175W        W80501  42.769   8.444  14.109
 8176W        W80502  23.805  40.412  12.399
 8177W        W80503  34.374  36.046   4.707
 8178W        W80504  15.984  10.374  13.346
 8179W        W80505   7.892  21.482  11.073
 8180W        W80506  12.128  24.676   3.117
 8181W        W80507  12.414  35.979   4.788
 8182W        W80508  31.321   5.505   4.094
 8183W        W80509   2.232  17.312  14.577
 8184W        W80510   8.850  25.002  11.022
 8185W        W80511  12.843  12.272  14.808
 8186W        W80512  39.565  42.569   2.707
 8187W        W80513  21.523  16.642   3.555
 8188W        W80514  30.646  44.883  14.790
 8189W        W80515  20.645  25.761  14.044
 8190W        W80516   5.914  36.139   3.775
 8191W        W80517   1.817  11.786   1.886
 8192W        W80518  20.236   4.513   4.135
 8193W        W80519  13.609  24.953  10.621
 8194W        W80520  35.309  23.480   4.321
 8195W        W80521  17.735  14.264   3.046
 8196W        W80522  36.548   0.825   0.416
 8197W        W80523  30.779  18.432  12.635
 8198W        W80524   3.480  37.358   2.706
 8199W        W80525  43.194   4.315  12.519
 8200W        W80526  41.296  40.862   2.717
 8201W        W80527  11.407  15.310  13.971
 8202W        W80528   5.306  32.080  12.484
 8203W        W80529  14.106  12.668  13.071
 8204W        W80530  23.287  11.166  13.302
 8205W        W80531  24.315   9.263  11.628
 8206W        W80532   0.855  12.668  13.840
 8207W        W80533  38.229  44.728   3.246
 8208W        W80534  21.279  12.878   3.655
 8209W        W80535  12.149   3.532   3.256
 8210W        W80536  17.719  38.735  12.078
 8211W        W80537   4.410  43.481  11.975
 8212W        W80538  25.297  15.930  13.026
 8213W        W80539   1.716  29.056   2.854
 8214W        W80540   1.972  14.521   4.079
 8215W        W80541  19.408  28.038  11.768
 8216W        W80542  13.793  14.799  12.560
 8217W        W80543  15.354  12.182   4.602
 8218W        W80544  31.219   1.803  12.344
 8219W        W80545   7.858  11.721  13.824
 8220W        W80546   3.096   5.167   4.526
 8221W        W80547   0.026  37.750  13.735
 8222W        W80548   9.836   8.315   3.206
 8223W        W80549  13.827  16.812   0.459
 8224W        W80550  10.793   4.006  13.420
 8225W        W80551  32.412  38.797  10.390
 8226W        W80552  18.275  42.660  14.846
 8227W        W80553  41.587   1.427  13.802
 8228W        W80554  27.439  26.506   0.705
 8229W        W80555  29.290  36.826   2.270
 8230W        W80556   1.330  34.387   4.400
 8231W        W80557  30.916  37.240   3.703
 8232W        W80558  42.843  24.326  13.004
 8233W        W80559  12.236   8.786   3.348
 8234W        W80560  10.325  42.593  13.452
 8235W        W80561  19.430   5.617   2.413
 8236W        W80562  41.228  43.544  12.453
 8237W        W80563  13.870   9.589   2.250
 8238W        W80564  32.411  31.603   2.295
 8239W        W80565  32.940  33.011  12.590
 8240W        W80566  11.154  16.802   3.128
 8241W        W80567  10.392  27.112   4.536
 8242W        W80568   7.005   4.974   0.390
 8243W        W80569   1.453   5.196   2.107
 8244W        W80570  25.534  10.292  14.363
 8245W        W80571  16.146  24.710  10.683
 8246W        W80572  20.378  27.325  13.360
 8247W        W80573  41.580  34.428  12.264
 8248W        W80574  36.306  34.036  10.500
 8249W        W80575  34.348   2.427   1.100
 8250W        W80576  29.932   6.906   4.364
 8251W        W80577   1.837  30.619  11.886
 8252W        W80578  37.875  29.131   0.313
 8253W        W80579  28.426  39.944   4.259
 8254W        W80580  37.487  41.080  10.769
 8255W        W80581  19.482  30.875   4.164
 8256W        W80582  29.339  20.512  11.989
 8257W        W80583  43.085  12.155   1.439
 8258W        W80584  15.244  26.604  13.410
 8259W        W80585  31.149  19.443  12.377
 8260W        W80586  38.915  36.299  13.669
 8261W        W80587  30.553   7.670   3.408
 8262W        W80588  26.493   4.356   2.960
 8263W        W80589   3.789  36.359   3.331
 8264W        W80590  44.939   5.087  12.273
 8265W        W80591  39.345   3.425   4.810
 8266W        W80592  15.619  26.690   4.218
 8267W        W80593  29.928   3.794   4.876
 8268W        W80594   5.222  36.126  11.135
 8269W        W80595  32.662   5.399   0.745
 8270W        W80596  17.377  28.865  12.657
 8271W        W80597   8.661  17.579  10.495
 8272W        W80598   8.862   3.218  12.108
 8273W        W80599  15.951  20.557  12.722
 8274W        W80600  20.673  24.456   2.276
 8275W        W80601  18.746  24.979   0.484
 8276W        W80602  35.096  18.274   2.180
 8277W        W80603  11.167  16.266  14.049
 8278W        W80604  20.574  44.566  11.498
 8279W        W80605  25.552  44.206   4.981
 8280W        W80606  13.417  17.001  11.532
 8281W        W80607  17.226   8.384   3.640
 8282W        W80608  41.959  17.587   4.646
 8283W        W80609  36.327  25.185  14.410
 8284W        W80610  10.250  37.424  11.605
 8285W        W80611  33.960  17.553  13.967
 8286W        W80612  41.784  40.952   2.513
 8287W        W80613  19.672  28.870   0.059
 8288W        W80614   1.489  30.372  13.030
 8289W        W80615  35.350  42.825  11.568
 8290W        W80616  23.673  42.359  12.445
 8291W        W80617  39.413  15.344  12.540
 8292W        W80618  29.558  39.421   4.153
 8293W        W80619  43.690  11.525  13.431
 8294W        W80620  33.464  29.420  11.043
 8295W        W80621  33.315  19.659  11.202
 8296W        W80622  28.543  39.140  12.795
 8297W        W80623   3.993  14.248   2.858
 8298W        W80624   6.034  24.581  10.792
 8299W        W80625  32.707   0.349   1.710
 8300W        W80626  28.156  21.224  14.922
 8301W        W80627  42.323  42.672  11.051
 8302W        W80628  38.541  36.461   4.201
 8303W        W80629  32.028  36.993   2.408
 8304W        W80630   0.208  35.024  11.571
 8305W        W80631  41.009  43.411   1.902
 8306W        W80632  22.353   1.265  13.284
 8307W        W80633   1.956  26.594  10.758
 8308W        W80634   8.127  24.458  12.045
 8309W        W80635   1.215  16.466   4.575
 8310W        W80636   4.778  41.834   3.665
 8311W        W80637   8.515  39.508  11.140
 8312W        W80638   0.546  29.702  13.231
 8313W        W80639  25.265  28.977   4.772
 8314W        W80640   1.884   6.276   0.516
 8315W        W80641  27.242   7.911  14.996
 8316W        W80642  35.226  13.425   0.618
 8317W        W80643  35.798  18.521  14.842
 8318W        W80644  43.814   9.112   2.220
 8319W        W80645  18.299  42.097   3.795
 8320W        W80646  31.420  30.993  11.510
 8321W        W80647  11.857  40.056  13.622
 8322W        W80648  19.187   6.258  11.071
 8323W        W80649  15.134  43.266  14.628
 8324W        W80650  25.294  17.752   3.290
 8325W        W80651  29.061  40.398   0.135
 8326W        W80652   1.203  13.656   1.356
 8327W        W80653  34.176   5.909  12.202
 8328W        W80654  26.961   6.064  13.433
 8329W        W80655   2.520  43.776   1.875
 8330W        W80656   2.843  20.545   5.684
 8331W        W80657   0.887  32.987   4.786
 8332W        W80658  41.401  16.213  11.523
 8333W        W80659  39.417   2.971   4.089
 8334W        W80660  34.081  12.386  12.542
 8335W        W80661  21.421   8.231   4.552
 8336W        W80662  26.904  17.634   2.572
 8337W        W80663  27.706  14.853   0.028
 8338W        W80664  18.564  18.692  14.951
 8339W        W80665   3.262  44.477   4.906
 8340W        W80666  27.491   0.725  12.937
 8341W        W80667  32.093   3.938   3.360
 8342W        W80668  25.087  42.806   1.355
 8343W        W80669  39.125  32.219  12.009
 8344W        W80670  19.232  30.586   1.269
 8345W        W80671  39.479  16.156  11.168
 8346W        W80672  41.941   7.196  13.990
 8347W        W80673  18.567  40.573   2.703
 8348W        W80674  18.691  28.069  12.482
 8349W        W80675  11.311  36.264  11.097
 8350W        W80676  24.544  17.735  13.939
 8351W        W80677  18.876   7.875  11.973
 8352W        W80678  34.929  22.259  14.964
 8353W        W80679  35.979  25.543   0.259
 8354W        W80680   7.820  26.029  13.047
 8355W        W80681  18.060  13.873  11.616
 8356W        W80682  40.257  40.410   4.532
 8357W        W80683  13.462  13.223  11.592
 8358W        W80684   6.869  13.616   1.445
 8359W        W80685   4.339  21.954  10.226
 8360W        W80686  33.361  23.148  10.982
 8361W        W80687  28.469  20.543  10.748
 8362W        W80688   4.967  21.514   0.882
 8363W        W80689   3.437  33.187  14.823
 8364W        W80690  35.785  43.055   2.468
 8365W        W80691  25.611  17.086   0.760
 8366W        W80692  43.861  20.193  12.348
 8367W        W80693  11.912  43.276   0.289
 8368W        W80694  25.042   6.697  13.321
 8369W        W80695  21.000  17.856   2.557
 8370W        W80696  17.297   9.115  11.169
 8371W        W80697  21.085  35.611  11.067
 8372W        W80698   8.474  35.685   4.222
 8373W        W80699   7.948   9.332   0.052
 8374W        W80700   6.910  17.332  12.825
 8375W        W80701  17.549  20.118   0.853
 8376W        W80702  11.572  42.381  12.917
 8377W        W80703  18.518  15.021   0.706
 8378W        W80704  31.997  17.473   5.028
 8379W        W80705   3.779  38.498  11.884
 8380W        W80706  34.194   5.133  10.779
 8381W        W80707  31.466   7.100   3.850
 8382W        W80708  15.649  29.974   3.383
 8383W        W80709  23.516  43.212  13.557
 8384W        W80710  14.934  11.673  11.936
 8385W        W80711  15.319  41.561   4.506
 8386W        W80712  33.184   1.854  13.520
 8387W        W80713  31.859  15.574   3.631
 8388W        W80714  27.194  10.762   4.363
 8389W        W80715  36.964   9.851  13.522
 8390W        W80716  10.575  31.510   1.586
 8391W        W80717   9.796  22.793   2.737
 8392W        W80718  41.300   8.871   4.993
 8393W        W80719  27.375   0.494   2.956
 8394W        W80720  15.335  18.789   3.181
 8395W        W80721  44.224  16.699  13.791
 8396W        W80722   7.326  42.525   2.124
 8397W        W80723  22.956  30.388  14.898
 8398W        W80724  44.497  42.095  13.364
 8399W        W80725  10.685   2.819  12.076
 8400W        W80726  12.187  28.441   0.314
 8401W        W80727   3.700  44.315   4.114
 8402W        W80728  36.575   9.294   0.211
 8403W        W80729   9.264  12.745  10.913
 8404W        W80730  36.420   4.447  14.519
 8405W        W80731  29.944  25.701  14.478
 8406W        W80732  26.079   0.181  11.522
 8407W        W80733  15.121  17.682   1.233
 8408W        W80734   0.514   9.385  13.406
 8409W        W80735  19.868   5.870   2.366
 8410W        W80736  30.134  20.790   1.328
 8411W        W80737  39.064  11.974  12.072
 8412W        W80738  20.972  32.105  10.749
 8413W        W80739  41.466  41.804  11.724
 8414W        W80740  36.879   9.733  12.622
 8415W        W80741   9.894  22.114  10.400
 8416W        W80742  24.314  38.347   4.554
 8417W        W80743  23.623  35.990   0.972
 8418W        W80744  12.900  26.483   1.291
 8419W        W80745  44.364  31.703   4.885
 8420W        W80746  34.995  14.407  14.682
 8421W        W80747  39.998  25.085   0.910
 8422W        W80748  36.643   8.440   2.301
 8423W        W80749  32.488  36.274  13.446
 8424W        W80750  14.786  41.878   3.846
 8425W        W80751  34.490  38.763   3.606
 8426W        W80752  41.309  42.698  12.808
 8427W        W80753  23.046  37.276  12.730
 8428W        W80754  27.781   8.578  12.818
 8429W        W80755  12.534  31.349  14.518
 8430W        W80756  32.655   0.446   1.203
 8431W        W80757  33.377  13.540   4.210
 8432W        W80758   4.544   1.457  10.411
 8433W        W80759  16.318  15.039   0.910
 8434W        W80760   1.753  10.635  12.432
 8435W        W80761  27.652   6.816  13.835
 8436W        W80762  16.932  30.240   0.575
 8437W        W80763  42.232  43.256  12.488
 8438W        W80764  20.841  44.433  11.077
 8439W        W80765   9.963  21.380   0.999
 8440W        W80766  38.017  39.836   3.625
 8441W        W80767   2.630  18.885   4.183
 8442W        W80768   1.965  38.512   4.733
 8443W        W80769   4.517  30.535   0.299
 8444W        W80770  22.613  37.082  10.807
 8445W        W80771  40.047  29.602   3.635
 8446W        W80772   8.381  12.743  10.422
 8447W        W80773  35.429  14.332  14.410
 8448W        W80774  10.041  29.122  14.912
 8449W        W80775  20.738  25.943  14.947
 8450W        W80776  31.549  35.137   3.155
 8451W        W80777  33.668  32.024  14.210
 8452W        W80778  17.788  14.595   0.705
 8453W        W80779  34.048  38.950  13.377
 8454W        W80780   1.917   4.765   4.550
 8455W        W80781  12.672   5.672  10.577
 8456W        W80782  44.405  19.449   4.620
 8457W        W80783  29.023  34.301  13.773
 8458W        W80784  26.420   0.408   3.916
 8459W        W80785  42.834  15.399   3.276
 8460W        W80786  30.598  33.048  14.117
 8461W        W80787  16.058  18.226   3.677
 8462W        W80788   7.743  41.967  12.121
 8463W        W80789   7.926  12.054   5.067
 8464W        W80790   4.870  37.080  10.580
 8465W        W80791  12.697  10.923   1.055
 8466W        W80792  39.581  12.041  11.595
 8467W        W80793  38.792   2.801   4.768
 8468W        W80794   1.746  16.879   0.391
 8469W        W80795  35.427  23.398  13.785
 8470W        W80796  39.663  42.544  10.915
 8471W        W80797  43.819  11.717   3.830
 8472W        W80798   4.252  14.785   0.288
 8473W        W80799  17.612  32.027  11.918
 8474W        W80800  42.300  42.705   2.213
 8475W        W80801  37.415  19.680   9.990
 8476W        W80802  27.140  15.874  12.498
 8477W        W80803   9.268  31.238  13.092
 8478W        W80804  11.001  34.514   5.076
 8479W        W80805  19.885  13.295   4.256
 8480W        W80806  12.880  18.016  11.587
 8481W        W80807  30.449  13.806   1.769
 8482W        W80808  44.356  28.932  11.961
 8483W        W80809   9.410  25.965  12.248
 8484W        W80810  17.216  25.448   0.986
 8485W        W80811   5.698  30.154   1.448
 8486W        W80812  39.808  17.034  13.041
 8487W        W80813   5.222  15.179   3.224
 8488W        W80814  24.282  13.129   0.882
 8489W        W80815  24.193  24.125   1.166
 8490W        W80816   5.698  34.975   0.829
 8491W        W80817  44.800  37.373   1.462
 8492W        W80818  12.117  16.184   4.050
 8493W        W80819  20.625  20.171   3.191
 8494W        W80820   2.858  18.803  12.580
 8495W        W80821  33.000  35.655   4.147
 8496W        W80822  27.537  27.199  14.199
 8497W        W80823  10.805  28.078  14.708
 8498W        W80824   4.303  11.830   0.230
 8499W        W80825  34.893  41.944  11.407
 8500W        W80826  17.270  43.905  14.270
 8501W        W80827  44.454  38.506  11.045
 8502W        W80828  25.459  30.123  13.930
 8503W        W80829   8.743  44.740  11.479
 8504W        W80830  41.810  27.441   0.439
 8505W        W80831  26.430  27.074  10.548
 8506W        W80832   3.807  22.026   5.590
 8507W        W80833  21.760   5.320   4.169
 8508W        W80834  34.527  24.229  11.895
 8509W        W80835  22.228  32.558  14.111
 8510W        W80836  25.717  28.178   0.813
 8511W        W80837  30.852   4.250   1.463
 8512W        W80838  44.223  22.559  12.625
 8513W        W80839  42.072  32.464   2.355
 8514W        W80840  28.553  31.616  11.490
 8515W        W80841  44.097  11.287  14.274
 8516W        W80842  31.960  21.940  12.357
 8517W        W80843  18.271  31.930  11.247
 8518W        W80844  14.797  15.047  11.637
 8519W        W80845  24.257  13.438   3.377
 8520W        W80846  18.940  27.012   4.001
 8521W        W80847   3.371  12.780  10.642
 8522W        W80848   3.719   1.576   5.050
 8523W        W80849  43.319  33.066   0.671
 8524W        W80850   4.283  28.596  10.755
 8525W        W80851  23.679  15.739  11.142
 8526W        W80852   3.197  39.348   2.203
 8527W        W80853  20.947  28.607  12.356
 8528W        W80854  33.843  14.255  13.965
 8529W        W80855  13.707  11.521  12.953
 8530W        W80856  36.699   9.340   3.034
 8531W        W80857  25.546  14.296  10.885
 8532W        W80858   1.779  32.046   4.590
 8533W        W80859   1.678  37.803  12.938
 8534W        W80860  39.015  16.140   0.311
 8535W        W80861  14.627  38.369  10.757
 8536W        W80862  31.594  28.660   3.802
 8537W        W80863  18.837  25.606  13.381
 8538W        W80864  22.241  26.688   4.342
 8539W        W80865  25.481  31.967   4.679
 8540W        W80866   6.830  18.157   4.464
 8541W        W80867  14.779  14.670   3.520
 8542W        W80868  43.392  27.916  11.847
 8543W        W80869  35.160  35.840  13.819
 8544W        W80870   0.562  31.102  11.564
 8545W        W80871   8.838   8.374   2.747
 8546W        W80872  31.345  30.640  11.154
 8547W        W80873  36.046   1.745  13.432
 8548W        W80874   9.104  33.912  11.729
 8549W        W80875   8.998  25.411   1.352
 8550W        W80876  24.523  40.309  10.717
 8551W        W80877  42.339   0.686  12.459
 8552W        W80878  14.646   1.039  11.484
 8553W        W80879   5.092   2.420   1.288
 8554W        W80880  26.964  40.420   0.280
 8555W        W80881  17.633  44.411   1.854
 8556W        W80882  17.771  15.015   1.446
 8557W        W80883  20.796   8.732   1.268
 8558W        W80884  28.457  37.080  14.208
 8559W        W80885  24.540   3.922   4.410
 8560W        W80886  31.010  37.298   2.395
 8561W        W80887  17.375  19.184   4.148
 8562W        W80888  36.131  26.635  10.531
 8563W        W80889  31.568  43.377   0.219
 8564W        W80890   1.728   3.732   2.877
 8565W        W80891   1.802  36.699   0.121
 8566W        W80892  44.494  16.047   0.988
 8567W        W80893  35.650  27.559  10.470
 8568W        W80894  33.301  24.212   4.142
 8569W        W80895   1.397   1.063  10.672
 8570W        W80896  30.816  44.723   2.076
 8571W        W80897  26.090  12.731  14.551
 8572W        W80898  27.925   2.390  13.566
 8573W        W80899   4.914   1.084  10.461
 8574W        W80900  13.745  20.218   0.530
 8575W        W80901  20.663   9.301  13.554
 8576W        W80902  40.292   9.673  11.573
 8577W        W80903  17.612  25.125   0.813
 8578W        W80904   6.554  20.669  12.009
 8579W        W80905  41.784   9.859  14.880
 8580W        W80906  40.807  10.190  13.970
 8581W        W80907   0.629  44.281   3.127
 8582W        W80908   9.909  28.476  13.979
 8583W        W80909  16.295  17.629  12.187
 8584W        W80910  11.421  32.126   4.602
 8585W        W80911  41.647  22.087   2.664
 8586W        W80912  20.961   8.135  11.812
 8587W        W80913   4.539  10.161  13.499
 8588W        W80914   3.737  32.506  11.629
 8589W        W80915  12.729   0.832   3.941
 8590W        W80916  44.078  17.841   9.955
 8591W        W80917   8.887  15.445  11.881
 8592W        W80918  25.015   9.417  13.196
 8593W        W80919  40.315  17.297   3.249
 8594W        W80920  22.760  43.264   3.972
 8595W        W80921  13.710  35.328   3.158
 8596W        W80922  44.493  35.150  12.828
 8597W        W80923  38.447   8.284  13.465
 8598W        W80924  30.435   7.081  13.953
 8599W        W80925   3.984  18.071  10.745
 8600W        W80926  38.984  32.980  13.653
 8601W        W80927  10.387   1.895   1.895
 8602W        W80928  36.495  20.523   0.367
 8603W        W80929   1.308  42.412  10.557
 8604W        W80930  39.680  17.467  11.843
 8605W        W80931  43.931  32.234  13.222
 8606W        W80932  26.919  27.028   1.312
 8607W        W80933  16.774  15.585  14.425
 8608W        W80934   6.391  14.564   0.395
 8609W        W80935   9.262  12.054   0.857
 8610W        W80936  38.958  28.779   1.293
 8611W        W80937  23.734   9.245   4.335
 8612W        W80938  30.962  31.971  10.596
 8613W        W80939  14.412   1.859  11.239
 8614W        W80940  21.909  43.973   2.535
 8615W        W80941  27.462  18.185  14.507
 8616W        W80942  34.584  23.898   3.174
 8617W        W80943   8.575  37.913   0.593
 8618W        W80944  13.208  14.774   0.922
 8619W        W80945   0.807  23.138   5.185
 8620W        W80946   6.231  18.835  13.902
 8621W        W80947  18.895  28.008  11.692
 8622W        W80948   0.826   9.750   1.913
 8623W        W80949   7.995  31.563  11.541
 8624W        W80950  41.845  40.014  13.979
 8625W        W80951  32.597  38.511  10.786
 8626W        W80952   9.671   6.417   0.333
 8627W        W80953  19.699  32.164  11.956
 8628W        W80954  37.795  42.256  11.522
 8629W        W80955  19.887  26.233  12.340
 8630W        W80956  34.505  11.757   0.449
 8631W        W80957  14.477  16.506   3.416
 8632W        W80958  35.769  14.155   1.330
 8633W        W80959  17.347  34.446   1.183
 8634W        W80960  35.904  42.818   3.680
 8635W        W80961  24.063  42.796   4.517
 8636W        W80962   4.483  21.618   1.077
 8637W        W80963  38.975   9.117   2.207
 8638W        W80964  10.674  14.539  13.033
 8639W        W80965  38.864  12.952  12.312
 8640W        W80966  33.375  20.338  12.936
 8641W        W80967  17.022   7.508  12.453
 8642W        W80968  14.179   8.767  10.755
 8643W        W80969   7.910   2.891   1.247
 8644W        W80970  25.482  17.757   4.582
 8645W        W80971   3.833  21.668  11.439
 8646W        W80972  20.529  19.543  12.630
 8647W        W80973  36.976  41.395  14.427
 8648W        W80974  12.124  19.816   3.686
 8649W        W80975   4.406  11.241   9.855
 8650W        W80976   6.333  22.740   0.171
 8651W        W80977  38.481   4.375  12.426
 8652W        W80978  25.553  18.859   1.293
 8653W        W80979  22.596  26.986  12.299
 8654W        W80980   5.557  35.355  11.450
 8655W        W80981   3.980  32.622   3.559
 8656W        W80982  35.093  12.123   3.014
 8657W        W80983  10.621  30.479   4.554
 8658W        W80984  27.899  28.051  10.271
 8659W        W80985   7.283  13.722   1.747
 8660W        W80986  31.021  17.859  10.603
 8661W        W80987  33.912  24.728   0.456
 8662W        W80988  15.575   3.749   2.138
 8663W        W80989   3.839  19.092  14.806
 8664W        W80990  13.670   8.892  13.459
 8665W        W80991  11.901  34.637   2.872
 8666W        W80992   1.715  23.249   5.511
 8667W        W80993  35.468  38.522  12.657
 8668W        W80994  10.321  17.016   3.727
 8669W        W80995  13.848  29.880   0.908
 8670W        W80996  40.043  44.599  12.876
 8671W        W80997  37.060  24.098  10.643
 8672W        W80998  21.738  26.281  11.567
 8673W        W80999  12.820   3.896   0.848
 8674W        W81000   8.912  10.171  11.541
 8675W        W81001   7.621  38.960   0.764
 8676W        W81002   9.914  34.102   3.203
 8677W        W81003  26.032  22.383   3.306
 8678W        W81004   1.660   7.451  14.088
 8679W        W81005  18.613  36.421  13.407
 8680W        W81006  22.608  18.772   0.245
 8681W        W81007  11.344  28.410   1.365
 8682W        W81008  10.607  14.649   0.878
 8683W        W81009  19.773   7.587  13.956
 8684W        W81010  32.559   8.817  11.114
 8685W        W81011  15.579   7.301   1.836
 8686W        W81012   0.712  15.203   3.263
 8687W        W81013  23.951  21.050   4.970
 8688W        W81014  14.657  12.155  10.736
 8689W        W81015  34.966  21.700   2.786
 8690W        W81016  16.361  20.657  13.727
 8691W        W81017  31.875  25.628   1.369
 8692W        W81018   5.236  43.756  11.066
 8693W        W81019  17.838  32.555  12.607
 8694W        W81020  37.442  27.390   0.531
 8695W        W81021  26.142  20.947  14.861
 8696W        W81022  19.855  41.015  14.396
 8697W        W81023  10.262  43.780   4.481
 8698W        W81024  25.633  18.844  12.376
 8699W        W81025   0.610  31.357  12.911
 8700W        W81026  41.937  35.918  13.959
 8701W        W81027   4.232  26.636  11.541
 8702W        W81028  41.909  33.578  14.398
 8703W        W81029  16.658   3.442  11.045
 8704W        W81030  10.804  29.045   2.952
 8705W        W81031  34.692  29.022   3.497
 8706W        W81032  15.853  37.662   4.163
 8707W        W81033  21.225  15.314   1.620
 8708W        W81034   6.439  32.277  11.698
 8709W        W81035  41.636  19.619   0.531
 8710W        W81036   5.991  34.963   1.852
 8711W        W81037  21.563  33.225  13.083
 8712W        W81038  31.704  43.983  14.414
 8713W        W81039  33.826  11.077   0.904
 8714W        W81040  21.114  36.371  13.092
 8715W        W81041  26.746  38.739   3.256
 8716W        W81042  30.496  22.786  12.127
 8717W        W81043  12.187  43.420  12.528
 8718W        W81044  37.659   1.651   0.348
 8719W        W81045  36.092  27.255  14.038
 8720W        W81046   1.897  34.946   1.008
 8721W        W81047   0.586  33.521  11.374
 8722W        W81048  44.389   3.713   4.921
 8723W        W81049  20.785  17.556   1.543
 8724W        W81050   6.677   3.509   4.300
 8725W        W81051  12.759  43.866   4.206
 8726W        W81052  17.608   0.778   1.298
 8727W        W81053  12.286   3.885   0.820
 8728W        W81054  24.023   7.929  14.448
 8729W        W81055   0.847  44.864   1.898
 8730W        W81056   1.442   2.485  13.997
 8731W        W81057   1.044  30.935  11.702
 8732W        W81058  35.324  26.611  13.115
 8733W        W81059  12.294  34.556  11.989
 8734W        W81060  19.544   6.737  14.276
 8735W        W81061   6.325  11.419  13.022
 8736W        W81062  15.351  27.005  13.045
 8737W        W81063  33.217  19.364   0.889
 8738W        W81064  12.977  40.248   3.729
 8739W        W81065  22.429  12.254   3.714
 8740W        W81066   8.923  19.031  10.845
 8741W        W81067  24.491  22.682   4.347
 8742W        W81068  27.542  12.527   3.833
 8743W        W81069  40.488  20.114   4.230
 8744W        W81070  40.142  34.217  14.439
 8745W        W81071  27.578  31.384  12.852
 8746W        W81072  38.069  28.429  11.194
 8747W        W81073  32.633   9.416  11.575
 8748W        W81074   0.950   2.931   1.838
 8749W        W81075  22.799  13.906   4.504
 8750W        W81076  36.812  13.497   5.072
 8751W        W81077  26.611  42.361   0.405
 8752W        W81078  19.175   2.178  14.435
 8753W        W81079  20.696  16.227   1.702
 8754W        W81080   4.864  28.665   0.980
 8755W        W81081  38.421  32.561   1.345
 8756W        W81082  19.789  20.508  12.059
 8757W        W81083  40.521  18.698   0.941
 8758W        W81084  18.037  41.517  12.187
 8759W        W81085   1.783  17.526  14.404
 8760W        W81086   5.893  10.948   4.110
 8761W        W81087  41.010  34.165   0.392
 8762W        W81088  22.679  21.941   1.559
 8763W        W81089  36.833   2.029  14.950
 8764W        W81090  37.469  14.342  11.152
 8765W        W81091  20.114  19.568   4.082
 8766W        W81092  38.343  25.540  13.522
 8767W        W81093  25.279  29.884  13.161
 8768W        W81094  37.074  21.756   2.855
 8769W        W81095   2.360  30.875  12.049
 8770W        W81096  31.410  37.036  14.028
 8771W        W81097  40.753   0.403  11.511
 8772W        W81098  15.216   4.010   3.057
 8773W        W81099  21.278  32.417  11.000
 8774W        W81100  11.610  39.800  10.334
 8775W        W81101  25.313   7.100  12.963
 8776W        W81102   0.607   3.773  14.162
 8777W        W81103  22.700  32.487   0.678
 8778W        W81104  12.504   3.325   2.041
 8779W        W81105  20.408   1.764   4.667
 8780W        W81106  10.162  12.158  11.110
 8781W        W81107  14.978  31.553   1.453
 8782W        W81108  30.898  18.372  10.662
 8783W        W81109   9.433  28.045   0.718
 8784W        W81110  31.860   8.930   3.262
 8785W        W81111  23.281   2.762  13.325
 8786W        W81112  44.777  15.649   9.905
 8787W        W81113   8.156  43.234   3.190
 8788W        W81114  30.877  18.879  10.809
 8789W        W81115  39.682   7.289   3.848
 8790W        W81116  40.688  15.128   2.613
 8791W        W81117  30.593   0.710  14.524
 8792W        W81118   4.422  38.635   2.473
 8793W        W81119  18.849  22.491   1.838
 8794W        W81120  26.400  41.396   2.698
 8795W        W81121  24.502  33.154  11.463
 8796W        W81122  31.387   9.652   3.190
 8797W        W81123  35.167  27.551  10.689
 8798W        W81124  19.073  23.138  13.445
 8799W        W81125  13.609  19.372  13.025
 8800W        W81126  35.356   8.989   3.305
 8801W        W81127  32.501  25.214   0.323
 8802W        W81128  43.697  31.416   0.770
 8803W        W81129  32.957  20.708   0.489
 8804W        W81130  32.000  44.040   3.178
 8805W        W81131  31.475  12.814   2.198
 8806W        W81132  13.555  44.558  10.786
 8807W        W81133  39.960  44.278  14.304
 8808W        W81134  10.296  28.469  13.402
 8809W        W81135  15.684  31.188   2.676
 8810W        W81136  44.798   1.895  11.960
 8811W        W81137  26.099   9.405   4.906
 8812W        W81138  34.756  34.402  14.064
 8813W        W81139  14.303  35.474  14.293
 8814W        W81140  11.836  20.420  10.889
 8815W        W81141  43.450   8.434   1.985
 8816W        W81142  24.567   9.279   2.739
 8817W        W81143   1.976  39.809   4.119
 8818W        W81144  27.487  33.124  11.828
 8819W        W81145  25.537   5.837   3.720
 8820W        W81146  43.390  40.722  14.274
 8821W        W81147   0.865   1.807  14.883
 8822W        W81148   7.014  30.883   4.530
 8823W        W81149  34.136   8.165  12.221
 8824W        W81150   7.835  19.103   2.372
 8825W        W81151  38.931  34.290   2.277
 8826W        W81152   4.458  12.672   2.486
 8827W        W81153   5.221  23.024  14.361
 8828W        W81154  24.109   5.309   2.121
 8829W        W81155  13.063  35.661   1.175
 8830W        W81156   0.377   4.918  12.497
 8831W        W81157  39.585  20.520   4.123
 8832W        W81158  36.468  28.141  11.885
 8833W        W81159  44.960  15.327   0.234
 8834W        W81160  39.338  28.759  10.427
 8835W        W81161  44.474  21.094  13.324
 8836W        W81162  18.679  41.761  11.172
 8837W        W81163  43.569  35.606  11.960
 8838W        W81164  37.620  24.204   4.875
 8839W        W81165  10.008  44.770   1.976
 8840W        W81166  11.530   7.292  13.400
 8841W        W81167  35.206   7.782  10.457
 8842W        W81168  43.898  38.388  13.020
 8843W        W81169   9.682   2.517   3.915
 8844W        W81170   6.738  12.124  10.732
 8845W        W81171  37.417  27.965  10.678
 8846W        W81172  14.278  26.930  14.983
 8847W        W81173  17.666   1.131   0.043
 8848W        W81174  41.621  26.308   1.686
 8849W        W81175  31.299  10.781   1.009
 8850W        W81176  35.815  36.565   4.486
 8851W        W81177   2.890  16.191  10.734
 8852W        W81178  15.517  30.955  13.623
 8853W        W81179  14.341  26.747   9.403
 8854W        W81180  23.094  13.116  13.752
 8855W        W81181  21.217  35.042   4.573
 8856W        W81182  37.683  29.342  10.969
 8857W        W81183  12.380  30.066   2.254
 8858W        W81184   3.009  26.938  12.018
 8859W        W81185  40.507  43.024  10.079
 8860W        W81186   7.919  13.040  10.760
 8861W        W81187  22.096  26.897  13.799
 8862W        W81188   8.177  22.556   1.408
 8863W        W81189  37.902   1.916  13.812
 8864W        W81190  23.091  18.525   0.999
 8865W        W81191  37.882  43.454  12.089
 8866W        W81192  27.056  41.457   4.309
 8867W        W81193  12.581   1.541   1.923
 8868W        W81194  41.536  33.423   2.832
 8869W        W81195  33.643   5.992  14.054
 8870W        W81196  44.221   0.967  14.468
 8871W        W81197  28.051  42.367   4.482
 8872W        W81198  15.700  23.078   4.708
 8873W        W81199  43.983  44.759   2.699
 8874W        W81200   6.233   9.021   2.255
 8875W        W81201  31.666  11.565  13.287
 8876W        W81202  14.358  22.901  14.378
 8877W        W81203  32.939  42.267  13.932
 8878W        W81204  21.457  38.403  14.441
 8879W        W81205  30.750  34.032   4.915
 8880W        W81206  39.789   8.114  13.147
 8881W        W81207  43.997  37.864  11.796
 8882W        W81208  40.757  18.740   1.902
 8883W        W81209  18.390  44.219   1.620
 8884W        W81210  28.641  10.598  13.952
 8885W        W81211  26.469  40.418   4.649
 8886W        W81212  12.131  24.704   2.228
 8887W        W81213  42.860  36.983   3.613
 8888W        W81214   3.081  28.222   5.153
 8889W        W81215  20.559   6.919  13.353
 8890W        W81216  23.536  29.539   0.715
 8891W        W81217  20.654  21.681  14.738
 8892W        W81218  23.341  41.517  13.774
 8893W        W81219  15.413  42.785   3.286
 8894W        W81220  42.100  29.643  10.664
 8895W        W81221   1.921   1.334  11.077
 8896W        W81222  27.705   4.839   2.696
 8897W        W81223  10.657  20.039  10.751
 8898W        W81224   9.792  30.530  11.508
 8899W        W81225  16.391  37.462   1.657
 8900W        W81226  30.015  20.051  12.931
 8901W        W81227  12.648  13.128  11.274
 8902W        W81228  29.173  23.334  14.252
 8903W        W81229  42.584  42.287   2.306
 8904W        W81230  12.595  36.711  12.346
 8905W        W81231  22.223   9.243  11.643
 8906W        W81232   3.458  28.384  12.154
 8907W        W81233  24.575  26.078   3.739
 8908W        W81234  15.587  41.067  12.799
 8909W        W81235  26.517  22.210   3.364
 8910W        W81236  23.522  32.717   2.299
 8911W        W81237   7.611  12.894   4.583
 8912W        W81238  29.471  12.140  13.446
 8913W        W81239  28.264  16.461   3.257
 8914W        W81240   8.064   4.349   3.598
 8915W        W81241  11.024  41.164   3.121
 8916W        W81242   6.906  23.122   4.591
 8917W        W81243   6.719  36.461   0.342
 8918W        W81244  27.443  18.201   2.828
 8919W        W81245  20.228  14.563   4.202
 8920W        W81246  30.415  17.158  13.102
 8921W        W81247   3.266  39.779  13.376
 8922W        W81248   9.845   0.416  11.174
 8923W        W81249  35.401  10.518   1.383
 8924W        W81250  30.670   7.596   3.902
 8925W        W81251  31.225   4.803   2.415
 8926W        W81252  38.407  22.462   4.555
 8927W        W81253   4.290  19.169  13.843
 8928W        W81254   7.335  24.130  10.681
 8929W        W81255   7.237  28.012   1.268
 8930W        W81256  39.083   3.838  13.792
 8931W        W81257   2.242  24.337  11.214
 8932W        W81258  11.473   3.801   4.106
 8933W        W81259   4.921  37.031   3.776
 8934W        W81260  31.453  26.134   0.510
 8935W        W81261   2.235  34.995   1.401
 8936W        W81262  38.111   2.777   3.351
 8937W        W81263  36.014  25.600  14.341
 8938W        W81264  27.085  28.283   9.914
 8939W        W81265  17.326  24.951   0.298
 8940W        W81266  34.162  22.341   4.191
 8941W        W81267  17.484   3.876   1.862
 8942W        W81268  23.964  15.565   5.022
 8943W        W81269   4.963  41.320   1.243
 8944W        W81270   3.278   0.895   1.975
 8945W        W81271  42.982  32.194   3.063
 8946W        W81272  44.249  38.852   4.137
 8947W        W81273  16.063  28.683   2.373
 8948W        W81274   8.433  44.548  12.651
 8949W        W81275   2.381  37.785  14.256
 8950W        W81276  26.523  30.500   2.331
 8951W        W81277  36.587   4.576   1.923
 8952W        W81278  38.058  30.973   4.176
 8953W        W81279  13.789  12.276   2.399
 8954W        W81280  25.969   6.751   4.192
 8955W        W81281   1.777  43.279  13.440
 8956W        W81282  13.551  26.136  14.905
 8957W        W81283  10.686  33.046  14.918
 8958W        W81284  34.463  25.539   2.006
 8959W        W81285  35.588  12.881   4.142
 8960W        W81286  15.042  34.354  11.491
 8961W        W81287  31.622  22.488   4.026
 8962W        W81288  44.064  11.211  11.857
 8963W        W81289  38.055  34.945   2.225
 8964W        W81290  32.495  28.732  12.942
 8965W        W81291  43.678   3.695  11.863
 8966W        W81292  34.957  15.121  13.112
 8967W        W81293  24.575  36.794   2.361
 8968W        W81294  39.100  12.685   2.343
 8969W        W81295  13.662  21.132   3.295
 8970W        W81296  12.660  28.760  13.335
 8971W        W81297  15.507   6.765  10.539
 8972W        W81298  24.571  31.349  11.217
 8973W        W81299  44.880   9.272   4.382
 8974W        W81300   5.096  33.608  12.444
 8975W        W81301  41.037   1.908   0.810
 8976W        W81302  35.995  23.723   2.264
 8977W        W81303  43.876  39.981  10.542
 8978W        W81304   3.811   9.273  14.030
 8979W        W81305  27.911  25.501  12.976
 8980W        W81306   7.244   1.220   0.761
 8981W        W81307  24.555  12.911   1.796
 8982W        W81308  36.442   0.786  11.144
 8983W        W81309  24.809  18.168   2.141
 8984W        W81310  20.808  42.341  12.481
 8985W        W81311  11.671  40.933   4.684
 8986W        W81312  37.787  42.992   0.270
 8987W        W81313  27.952  23.911   1.448
 8988W        W81314  16.722  33.310   3.372
 8989W        W81315  10.214  18.535  10.842
 8990W        W81316   8.800  12.375  12.187
 8991W        W81317   5.849   5.752   0.515
 8992W        W81318  22.619  43.761   1.781
 8993W        W81319  39.627   2.808   0.788
 8994W        W81320  24.737  27.481  14.035
 8995W        W81321  35.450  28.619   4.662
 8996W        W81322  13.763  25.162   2.774
 8997W        W81323  37.548  27.524  10.932
 8998W        W81324  14.178  19.366  13.750
 8999W        W81325  36.076  22.757   0.217
 9000W        W81326  13.141   9.629  12.432
 9001W        W81327  15.247  26.074   2.636
 9002W        W81328  26.987   3.175   2.094
 9003W        W81329  41.121  31.645  14.324
 9004W        W81330  34.043  29.200  13.731
 9005W        W81331  25.731  33.042  11.350
 9006W        W81332  19.233  15.054   0.004
 9007W        W81333   9.401  10.765  10.983
 9008W        W81334   5.961  25.451  13.037
 9009W        W81335  33.035  23.643  11.602
 9010W        W81336   3.698  28.439   3.839
 9011W        W81337   2.385  14.920   2.686
 9012W        W81338   7.815  13.680   3.371
 9013W        W81339  18.522  22.594  14.934
 9014W        W81340  21.773  25.899  13.337
 9015W        W81341  35.294  44.674  14.874
 9016W        W81342  37.840   4.763  12.931
 9017W        W81343  37.384  27.993  14.986
 9018W        W81344  32.614   1.689   4.807
 9019W        W81345  31.605   3.365   2.048
 9020W        W81346  35.920  23.945   5.095
 9021W        W81347  21.215  38.869  14.288
 9022W        W81348   4.100  22.494  10.663
 9023W        W81349  29.921  26.151  12.839
 9024W        W81350   8.641  19.335   2.634
 9025W        W81351  19.631  18.030   3.266
 9026W        W81352  42.291  39.430   3.780
 9027W        W81353   0.803  36.451   4.547
 9028W        W81354  32.364  31.623   4.697
 9029W        W81355  18.704   4.244   1.556
 9030W        W81356  36.488  19.945   2.828
 9031W        W81357  18.686  44.768   0.239
 9032W        W81358  26.461  33.910   0.240
 9033W        W81359  38.432  31.500   1.327
 9034W        W81360  20.946  43.047  13.440
 9035W        W81361   1.354   5.439  11.948
 9036W        W81362  14.226   2.433   3.684
 9037W        W81363  22.606   9.995  14.956
 9038W        W81364  24.662   5.410   3.425
 9039W        W81365  22.294  24.132  12.962
 9040W        W81366  26.593  27.032  10.056
 9041W        W81367   8.393  25.253  10.943
 9042W        W81368  28.656  23.200  14.287
 9043W        W81369  31.402  22.047   4.238
 9044W        W81370   3.454  21.739  14.930
 9045W        W81371   5.818  16.097  12.785
 9046W        W81372  26.613  40.582   1.054
 9047W        W81373  20.578  42.925   3.116
 9048W        W81374  37.930  16.852   4.251
 9049W        W81375   0.473  31.860   2.624
 9050W        W81376  27.167  43.637  12.384
 9051W        W81377  29.397   2.200   4.577
 9052W        W81378   1.135   1.741   1.309
 9053W        W81379   6.873  19.169  14.673
 9054W        W81380  13.592  11.377   3.725
 9055W        W81381   7.545  29.576   1.217
 9056W        W81382  34.084  41.960  12.530
 9057W        W81383   5.393  41.565  10.963
 9058W        W81384  22.507  38.883   4.019
 9059W        W81385  20.217  26.070  14.943
 9060W        W81386  24.801  29.111  11.995
 9061W        W81387   7.231  24.732   0.426
 9062W        W81388  40.045  44.640   0.275
 9063W        W81389   0.393  41.409   0.369
 9064W        W81390   4.212   5.505  12.573
 9065W        W81391  12.795  17.322   1.834
 9066W        W81392  38.871  40.021  14.355
 9067W        W81393  20.657   3.503   1.411
 9068W        W81394  40.388   5.160  10.766
 9069W        W81395   0.405  31.421   0.617
 9070W        W81396  39.821   8.190   0.921
 9071W        W81397  23.315  20.451   0.261
 9072W        W81398  22.593  35.662  11.632
 9073W        W81399  37.044  12.254  11.370
 9074W        W81400  42.112  23.054   0.445
 9075W        W81401  32.576  39.933  13.912
 9076W        W81402  43.727  43.718   3.341
 9077W        W81403  30.963  36.664  13.141
 9078W        W81404  31.951  18.324  13.380
 9079W        W81405  37.535  10.827  14.270
 9080W        W81406  15.229  21.577   4.149
 9081W        W81407  35.784  33.011  14.264
 9082W        W81408   1.775  43.987  12.154
 9083W        W81409  13.621  30.404  10.476
 9084W        W81410  15.179   1.934  10.741
 9085W        W81411  13.259  43.566   0.340
 9086W        W81412  25.999  11.216   2.787
 9087W        W81413  22.364  15.217  12.086
 9088W        W81414   5.070  10.314   4.991
 9089W        W81415  32.131   0.929  10.648
 9090W        W81416  26.488  34.035   3.690
 9091W        W81417  20.841  32.644   0.492
 9092W        W81418  13.773   4.203   0.710
 9093W        W81419   1.940  34.332   4.560
 9094W        W81420  21.447  15.219   0.565
 9095W        W81421  11.729  13.242   3.639
 9096W        W81422  37.755  38.018   2.387
 9097W        W81423  29.467   0.201   1.161
 9098W        W81424  15.075   1.718  14.332
 9099W        W81425  19.660  16.972  13.579
 9100W        W81426  22.898  15.994   2.324
 9101W        W81427  26.394   5.872  12.085
 9102W        W81428   3.379  17.368   3.654
 9103W        W81429  26.964   4.864  14.366
 9104W        W81430  15.259  32.332  11.468
 9105W        W81431  31.060   2.925   4.919
 9106W        W81432   8.900  29.366  12.386
 9107W        W81433   4.595  13.637   0.881
 9108W        W81434  31.160  15.518   0.392
 9109W        W81435  31.076  44.893   4.174
 9110W        W81436  34.488  28.414   0.242
 9111W        W81437   4.820  11.302   4.135
 9112W        W81438  36.841  21.984   3.251
 9113W        W81439  20.243  30.052  12.577
 9114W        W81440   3.114   9.178  14.256
 9115W        W81441   6.646   1.970  14.184
 9116W        W81442  27.426   5.608  12.827
 9117W        W81443  34.041  33.637   5.459
 9118W        W81444  18.152  33.296  13.861
 9119W        W81445  31.926  23.278  12.086
 9120W        W81446  23.023   3.703  13.400
 9121W        W81447   1.710   1.915   4.333
 9122W        W81448  25.965  34.443   4.110
 9123W        W81449  42.815  44.366  10.565
 9124W        W81450  15.291  29.674   1.768
 9125W        W81451  20.078  37.382  14.267
 9126W        W81452  22.876  31.352  12.033
 9127W        W81453  36.544  16.048   0.333
 9128W        W81454  44.627  28.912   1.435
 9129W        W81455  25.899  11.174   4.444
 9130W        W81456  20.041  43.503  14.905
 9131W        W81457   6.328   7.965  12.452
 9132W        W81458   2.251   1.518  14.466
 9133W        W81459  19.753   7.078   4.267
 9134W        W81460  31.040  17.540   1.917
 9135W        W81461  35.975  12.617  14.797
 9136W        W81462  15.203  24.203   3.598
 9137W        W81463   0.337  17.872   0.877
 9138W        W81464  22.164   3.973   2.753
 9139W        W81465  44.994  18.673   4.932
 9140W        W81466  17.980  35.031  13.009
 9141W        W81467   3.936  27.071  12.435
 9142W        W81468  24.550  17.475  14.392
 9143W        W81469  19.579  19.683  14.014
 9144W        W81470   4.377  29.595   3.545
 9145W        W81471   7.918  24.974  12.668
 9146W        W81472  42.899  21.197  11.950
 9147W        W81473  24.140  13.315   0.385
 9148W        W81474  40.393  43.278   4.675
 9149W        W81475  30.186  12.674   1.897
 9150W        W81476  35.954  38.072   4.643
 9151W        W81477  35.096  35.936   2.336
 9152W        W81478  36.623   3.196  13.882
 9153W        W81479  11.915  29.609  12.621
 9154W        W81480   7.730  43.608   3.952
 9155W        W81481  36.162  13.857  11.078
 9156W        W81482  35.141   8.259  11.706
 9157W        W81483  37.844   5.900  11.695
 9158W        W81484  22.579  20.694   0.817
 9159W        W81485  43.056   0.686  11.475
 9160W        W81486  15.582   6.700   2.687
 9161W        W81487  32.561  30.123  13.361
 9162W        W81488   2.986  23.805   1.339
 9163W        W81489  31.127  18.667  12.072
 9164W        W81490  44.109  19.319   5.000
 9165W        W81491  16.294   5.140   1.383
 9166W        W81492  32.385   9.023  12.487
 9167W        W81493  17.698  37.914   3.343
 9168W        W81494  19.999   7.828  14.770
 9169W        W81495  42.859  11.401   3.978
 9170W        W81496   4.921   8.048   3.676
 9171W        W81497  36.443  23.199  14.413
 9172W        W81498   8.838  30.479  14.766
 9173W        W81499  38.840  24.873   5.182
 9174W        W81500  36.331  28.988  13.479
 9175W        W81501  30.379  23.268  14.333
 9176W        W81502  28.912  23.049  12.947
 9177W        W81503  17.695  17.727   1.219
 9178W        W81504  13.531  20.173   4.218
 9179W        W81505   5.723  42.928  12.051
 9180W        W81506  20.721  22.795   1.364
 9181W        W81507   5.319   4.648  10.997
 9182W        W81508  27.058  24.255  11.997
 9183W        W81509  10.052  11.561  10.394
 9184W        W81510  29.731  27.183  11.533
 9185W        W81511  39.342   2.809  12.000
 9186W        W81512  36.573   6.192  11.464
 9187W        W81513   1.796  44.784   1.234
 9188W        W81514  23.388   7.065   4.177
 9189W        W81515  29.578  13.418   2.263
 9190W        W81516  30.015  25.970   1.532
 9191W        W81517  38.066  25.656  11.486
 9192W        W81518  11.781  19.370   4.866
 9193W        W81519  19.667  41.876  11.584
 9194W        W81520  31.969  30.450   4.769
 9195W        W81521  43.114  27.985  12.703
 9196W        W81522   2.476  44.518   2.392
 9197W        W81523  14.703  44.995   4.166
 9198W        W81524  39.558  40.792   3.785
 9199W        W81525  19.771  17.488  11.823
 9200W        W81526  42.955  18.642  12.980
 9201W        W81527   2.400  23.224  13.735
 9202W        W81528  42.477   0.753  10.688
 9203W        W81529  20.840  39.136   4.735
 9204W        W81530  31.997   1.879   4.577
 9205W        W81531   9.197  33.914   0.565
 9206W        W81532  41.790  10.268   1.409
 9207W        W81533  34.793  28.078   4.321
 9208W        W81534   2.309  20.510  12.956
 9209W        W81535   2.605   1.727  12.472
 9210W        W81536  33.390  25.761  13.449
 9211W        W81537  40.240  17.115  13.826
 9212W        W81538  38.323  21.093  14.413
 9213W        W81539  10.991  34.602  10.223
 9214W        W81540  24.220  26.674   2.502
 9215W        W81541   6.339  26.034  13.841
 9216W        W81542  43.454  31.220   0.247
 9217W        W81543  14.874  20.310  14.503
 9218W        W81544  37.767  27.341  14.896
 9219W        W81545  16.109  27.629   3.266
 9220W        W81546  21.796  38.619  11.078
 9221W        W81547  32.495  21.219  14.305
 9222W        W81548  25.053   9.393   2.935
 9223W        W81549  25.933  38.353  12.919
 9224W        W81550  29.459   8.775  14.433
 9225W        W81551  40.275  17.632   4.152
 9226W        W81552  21.469  43.747  11.575
 9227W        W81553  16.721  31.864  12.438
 9228W        W81554  11.707  28.638  11.008
 9229W        W81555   8.898   6.296   3.147
 9230W        W81556   3.373  10.914   1.803
 9231W        W81557  27.736  19.527   1.454
 9232W        W81558  31.028  19.818   4.417
 9233W        W81559  23.955  34.024  14.248
 9234W        W81560  26.656  33.746  11.633
 9235W        W81561   5.448  20.725   4.726
 9236W        W81562  22.247   3.835   2.252
 9237W        W81563  26.911   7.201  11.525
 9238W        W81564  33.250  17.498  14.285
 9239W        W81565   7.868  27.538  12.555
 9240W        W81566   2.691  38.960  11.051
 9241W        W81567  21.119  13.715  12.557
 9242W        W81568   4.194  32.968   0.225
 9243W        W81569   2.483  22.053  13.998
 9244W        W81570  15.808  38.472  10.291
 9245W        W81571  26.101  29.415   2.863
 9246W        W81572  19.520  15.625   2.815
 9247W        W81573  36.140  18.816   3.684
 9248W        W81574  36.520  29.588  14.122
 9249W        W81575  27.100   3.071  13.955
 9250W        W81576  14.288  30.395   3.765
 9251W        W81577  36.432  16.775  11.220
 9252W        W81578  34.181  31.439   0.557
 9253W        W81579   5.562  23.169   1.771
 9254W        W81580  35.840  19.956  11.700
 9255W        W81581   8.890  27.497   3.417
 9256W        W81582   8.245  32.172   1.780
 9257W        W81583  38.912  28.705  14.377
 9258W        W81584  34.509  12.639   3.287
 9259W        W81585   4.605  17.002  14.354
 9260W        W81586  15.402  17.185   4.521
 9261W        W81587  20.033  27.591  12.077
 9262W        W81588  21.332  44.310   2.419
 9263W        W81589  12.401  35.193   0.002
 9264W        W81590   5.642  35.577  11.921
 9265W        W81591  35.934  40.320  11.197
 9266W        W81592  24.550  13.591  14.114
 9267W        W81593   5.437  32.367   4.286
 9268W        W81594   5.367  22.433   1.368
 9269W        W81595  15.693   0.057   0.962
 9270W        W81596  39.403  15.663  10.771
 9271W        W81597   6.460  25.274   0.253
 9272W        W81598  26.117   6.858   2.678
 9273W        W81599  40.807  15.128   0.784
 9274W        W81600   8.445  32.380  11.873
 9275W        W81601  31.892  27.705  12.453
 9276W        W81602   1.737   5.422   3.963
 9277W        W81603  25.086  30.879  10.694
 9278W        W81604   7.656  32.467   3.155
 9279W        W81605  18.636  43.623  12.416
 9280W        W81606  16.366  39.405  11.634
 9281W        W81607   1.950  22.943  14.531
 9282W        W81608  43.492  40.781  13.356
 9283W        W81609  10.286   0.714  11.074
 9284W        W81610  19.760  43.605  14.397
 9285W        W81611  41.058   8.182   0.497
 9286W        W81612  41.087  37.455  11.919
 9287W        W81613  12.460   4.726   9.956
 9288W        W81614  14.698  31.943  10.900
 9289W        W81615  27.960  10.367  10.771
 9290W        W81616   3.468   2.686   4.825
 9291W        W81617   7.327  32.163  10.735
 9292W        W81618  16.035  26.189  10.619
 9293W        W81619  25.643  41.988   3.051
 9294W        W81620  28.646   5.847  11.637
 9295W        W81621  41.812  21.385  11.056
 9296W        W81622  14.290   2.800   0.717
 9297W        W81623  21.492  33.363   0.926
 9298W        W81624  22.992  11.281   2.851
 9299W        W81625  24.595  12.946  12.286
 9300W        W81626  27.059   5.222   4.432
 9301W        W81627  20.591  10.820  12.134
 9302W        W81628  26.158  30.151  14.871
 9303W        W81629  28.295   3.015   2.309
 9304W        W81630  29.916   2.706  12.080
 9305W        W81631  35.339  35.371  13.943
 9306W        W81632  40.392  22.512   3.746
 9307W        W81633  33.561   7.494   1.735
 9308W        W81634  18.150  26.076  10.986
 9309W        W81635  34.515  26.859   2.389
 9310W        W81636  16.642  39.141   4.056
 9311W        W81637  39.790  22.076   3.015
 9312W        W81638   2.424  16.565   3.727
 9313W        W81639  24.931  19.275   0.965
 9314W        W81640  41.955   9.222   0.338
 9315W        W81641  22.005  14.969   3.869
 9316W        W81642  42.493  18.104   4.202
 9317W        W81643  19.043  31.756  12.906
 9318W        W81644  21.104  37.019   5.329
 9319W        W81645  34.517   8.645  14.432
 9320W        W81646  13.872   5.405  11.146
 9321W        W81647  15.492   4.507  12.142
 9322W        W81648  10.100   7.490  12.438
 9323W        W81649  40.136   2.277  11.134
 9324W        W81650  39.520  44.122   4.670
 9325W        W81651  33.608  28.961  14.981
 9326W        W81652  18.261  25.592  11.122
 9327W        W81653  32.939   3.223   3.663
 9328W        W81654  33.240  32.113  14.772
 9329W        W81655  29.024   4.465   3.768
 9330W        W81656  16.534  12.251   3.756
 9331W        W81657  18.612  40.531   1.689
 9332W        W81658  30.562   6.295   4.888
 9333W        W81659  40.474  17.223  14.283
 9334W        W81660  14.349   0.476  13.532
 9335W        W81661  32.629  31.352  11.190
 9336W        W81662  26.035  10.441  13.006
 9337W        W81663  44.236  14.730  11.956
 9338W        W81664  25.216  13.685   2.832
 9339W        W81665   5.792   8.210   0.384
 9340W        W81666   9.844  26.621  12.345
 9341W        W81667  19.752  30.960  13.544
 9342W        W81668   3.885   1.392  12.795
 9343W        W81669  41.324  41.572  12.586
 9344W        W81670  23.297  19.093   0.340
 9345W        W81671   0.290  22.529  10.615
 9346W        W81672   3.256   3.588  14.439
 9347W        W81673  23.268  34.004  13.235
 9348W        W81674  16.182  28.701   1.210
 9349W        W81675  35.964  20.937  11.764
 9350W        W81676  19.983  27.204   3.285
 9351W        W81677  41.528  38.846   0.914
 9352W        W81678   5.453  33.130   2.963
 9353W        W81679  41.555  24.700   2.571
 9354W        W81680  28.442  24.997  12.870
 9355W        W81681  34.832   1.320   4.394
 9356W        W81682  13.516  40.312   1.324
 9357W        W81683  25.229   8.042   4.929
 9358W        W81684  40.963  33.073  12.975
 9359W        W81685  28.953   2.257   3.566
 9360W        W81686  40.742  22.605  12.367
 9361W        W81687  26.774   8.519   4.216
 9362W        W81688  19.158  34.136   0.794
 9363W        W81689  28.279  28.438  10.250
 9364W        W81690  18.993  26.147  10.780
 9365W        W81691   7.820  31.436  13.700
 9366W        W81692  38.597  31.563  12.461
 9367W        W81693  40.981  29.306  13.010
 9368W        W81694  38.226  31.125   4.638
 9369W        W81695   7.668   8.312  10.423
 9370W        W81696  43.979   1.458  14.476
 9371W        W81697   0.043  42.839   3.297
 9372W        W81698  38.139   7.837   0.379
 9373W        W81699  43.987   9.652  11.120
 9374W        W81700  10.598  44.305  13.172
 9375W        W81701  29.955  32.803   3.550
 9376W        W81702   0.711  32.194   0.566
 9377W        W81703  28.620  14.189  12.097
 9378W        W81704   7.486  25.056  14.298
 9379W        W81705   4.844  37.155   2.231
 9380W        W81706  19.761  14.206   3.696
 9381W        W81707   0.097   2.001   2.831
 9382W        W81708  36.490  31.568   0.898
 9383W        W81709  11.938  27.755  11.099
 9384W        W81710  36.892  26.512  12.080
 9385W        W81711  23.920  41.372  11.620
 9386W        W81712  21.089  27.564  12.392
 9387W        W81713  23.043   0.436   4.166
 9388W        W81714  17.680   2.519  14.570
 9389W        W81715  32.390  22.779  13.823
 9390W        W81716  25.137  15.250  14.769
 9391W        W81717  22.444  12.346   2.703
 9392W        W81718   4.013   5.807  11.919
 9393W        W81719  16.738  23.432  14.460
 9394W        W81720  33.054  10.567  11.903
 9395W        W81721   0.534  13.236   2.790
 9396W        W81722  38.800  20.372  11.342
 9397W        W81723   5.758  33.983   4.435
 9398W        W81724  33.533   5.891   2.729
 9399W        W81725  32.676  29.712  14.833
 9400W        W81726  30.828  22.503   2.665
 9401W        W81727  16.563  30.046   0.941
 9402W        W81728  16.687  40.357   4.686
 9403W        W81729  43.797   8.481  10.912
 9404W        W81730  23.112   1.333   0.303
 9405W        W81731  18.212   3.920  14.526
 9406W        W81732  23.073  13.694  13.013
 9407W        W81733   9.086   2.521   4.099
 9408W        W81734  30.450  20.002  14.366
 9409W        W81735  44.259  37.440   4.693
 9410W        W81736  40.864  13.832   0.341
 9411W        W81737  35.538  20.784   0.011
 9412W        W81738   2.277  28.651   1.574
 9413W        W81739  39.897  31.489  13.756
 9414W        W81740  37.325  34.956  14.895
 9415W        W81741  15.650  36.882  11.098
 9416W        W81742  35.010  19.241   3.855
 9417W        W81743  19.908  22.948  13.890
 9418W        W81744  24.814  35.096   0.835
 9419W        W81745  28.383   5.719   0.722
 9420W        W81746  20.756  33.685   1.348
 9421W        W81747  14.750  19.422   0.825
 9422W        W81748  30.568  34.272  12.383
 9423W        W81749  30.944  36.311   2.902
 9424W        W81750  43.903  35.677   3.787
 9425W        W81751  37.823  20.489   4.566
 9426W        W81752  32.615  20.061  12.170
 9427W        W81753  10.239  32.573   2.274
 9428W        W81754  26.594  18.189   5.174
 9429W        W81755  34.444  32.494   3.711
 9430W        W81756  25.662  42.572  12.563
 9431W        W81757  17.693   6.308   4.687
 9432W        W81758  16.502  38.308  14.856
 9433W        W81759  25.983   9.756  14.117
 9434W        W81760   2.072   3.901   2.453
 9435W        W81761  27.951  15.408   1.159
 9436W        W81762  13.694   8.926  12.921
 9437W        W81763  42.160  29.171   0.954
 9438W        W81764  22.326  16.743  10.241
 9439W        W81765  10.306   6.457   4.686
 9440W        W81766  28.033  30.201  14.394
 9441W        W81767  33.064  11.114   0.234
 9442W        W81768  12.847  22.475   3.546
 9443W        W81769   5.016  26.411   3.536
 9444W        W81770  42.531   3.280   1.304
 9445W        W81771  33.412  30.337   1.239
 9446W        W81772  20.409  33.162  11.937
 9447W        W81773  39.916  16.783   0.411
 9448W        W81774  33.482  18.664   3.779
 9449W        W81775  22.230   1.490  14.945
 9450W        W81776  21.041  34.652  14.350
 9451W        W81777  33.345  28.175  13.403
 9452W        W81778  10.527   5.769   2.385
 9453W        W81779  15.116  33.493  10.526
 9454W        W81780  38.932  29.151   0.879
 9455W        W81781  18.645   2.864   2.930
 9456W        W81782  39.280  10.030   0.334
 9457W        W81783  41.135  25.008   4.293
 9458W        W81784   3.985   8.809   2.514
 9459W        W81785  44.888  17.827  12.942
 9460W        W81786   5.825  36.916   0.769
 9461W        W81787   2.161  14.667   1.421
 9462W        W81788   2.762  30.513  14.636
 9463W        W81789   6.913  32.158  14.577
 9464W        W81790  37.420   6.342   3.362
 9465W        W81791  13.116  26.693  14.477
 9466W        W81792   7.136  10.243   3.347
 9467W        W81793  43.949  33.841   3.327
 9468W        W81794  13.434  40.449   4.126
 9469W        W81795  42.458  35.037   4.161
 9470W        W81796   0.819  42.115  13.418
 9471W        W81797  35.309  12.729   3.733
 9472W        W81798  19.852  28.169  13.517
 9473W        W81799  31.104  25.613   0.209
 9474W        W81800   8.942  33.434   3.016
 9475W        W81801  16.701  17.753   3.290
 9476W        W81802  44.055  35.428  11.114
 9477W        W81803  15.615   9.785   3.367
 9478W        W81804  24.438  26.169   1.204
 9479W        W81805  33.438  41.293   4.086
 9480W        W81806  32.191   8.260  14.486
 9481W        W81807  40.294   6.551  12.276
 9482W        W81808  11.248  19.299  10.900
 9483W        W81809  31.470  34.692  11.908
 9484W        W81810   1.503  20.724   0.367
 9485W        W81811  20.170  43.284  13.316
 9486W        W81812  25.716  10.425   3.762
 9487W        W81813   2.995  12.649  10.294
 9488W        W81814  29.330  35.540   0.085
 9489W        W81815  28.915   5.758   0.545
 9490W        W81816  24.104  14.601  12.088
 9491W        W81817  15.703  34.139  14.497
 9492W        W81818   3.238  18.670  14.413
 9493W        W81819  28.901  32.437  13.535
 9494W        W81820  37.077   9.560   5.455
 9495W        W81821  37.981  11.135   4.098
 9496W        W81822  11.271  12.346   2.019
 9497W        W81823  24.669  16.211  14.527
 9498W        W81824  41.534  31.544   0.488
 9499W        W81825  24.678  42.763   3.431
 9500W        W81826  14.683  31.114   4.139
 9501W        W81827  15.251   8.303  13.388
 9502W        W81828  35.907  36.186   9.912
 9503W        W81829  15.720   2.194   4.578
 9504W        W81830  33.506   6.328   3.692
 9505W        W81831  25.223  39.831   3.227
 9506W        W81832  31.695   3.424  14.548
 9507W        W81833   1.920  23.239  10.557
 9508W        W81834  31.125  40.810   1.842
 9509W        W81835  31.472  17.114   4.247
 9510W        W81836  12.752  24.021   2.673
 9511W        W81837  16.885   3.673  14.301
 9512W        W81838  35.016   7.204   0.032
 9513W        W81839  38.870  31.208   1.345
 9514W        W81840  18.197  40.250   4.851
 9515W        W81841  14.789  27.495  11.082
 9516W        W81842   1.981  24.813   2.744
 9517W        W81843   4.961  15.453  12.782
 9518W        W81844   9.845  33.422   3.826
 9519W        W81845  13.161   7.854   2.763
 9520W        W81846  22.718  37.880  14.581
 9521W        W81847  31.427   4.383  12.905
 9522W        W81848  15.152  30.912   4.903
 9523W        W81849  41.799   7.898  14.925
 9524W        W81850   0.364  23.975   2.177
 9525W        W81851   1.254   3.278   0.330
 9526W        W81852  18.556  15.765   2.883
 9527W        W81853  21.918  40.460  13.276
 9528W        W81854  38.999  26.131   1.167
 9529W        W81855  26.207   4.796   1.719
 9530W        W81856   6.869  22.276  14.368
 9531W        W81857   8.640   0.305   2.854
 9532W        W81858  30.375  16.590   2.172
 9533W        W81859   9.258  11.685   3.290
 9534W        W81860   4.780   6.879  12.133
 9535W        W81861  15.108  15.672   0.420
 9536W        W81862  12.936  44.901   0.712
 9537W        W81863   3.265  44.237  12.429
 9538W        W81864  21.209  29.037   2.636
 9539W        W81865  22.656  27.541   3.182
 9540W        W81866  10.346  24.010  10.614
 9541W        W81867  29.763  29.445   2.747
 9542W        W81868   5.761  22.027   3.404
 9543W        W81869  20.004   3.253  11.731
 9544W        W81870  40.295  36.836  11.053
 9545W        W81871   5.738  32.988   0.215
 9546W        W81872  26.450  36.515  14.988
 9547W        W81873   6.731  12.458  14.895
 9548W        W81874  32.074  17.707  13.477
 9549W        W81875   9.286  14.866   0.303
 9550W        W81876  23.581  39.501   9.920
 9551W        W81877  31.041  37.036  12.789
 9552W        W81878  33.986  13.797  11.091
 9553W        W81879   6.415  12.139   3.476
 9554W        W81880   1.906   5.706   0.910
 9555W        W81881  39.463  44.718  11.555
 9556W        W81882  43.180  12.648   4.554
 9557W        W81883  24.625  21.956   0.297
 9558W        W81884  20.473  32.278   4.078
 9559W        W81885  11.398   5.640  12.988
 9560W        W81886  25.005  37.112  11.074
 9561W        W81887   0.498  15.047   4.054
 9562W        W81888  18.318   4.416  12.491
 9563W        W81889  23.653   9.165   1.403
 9564W        W81890  16.440  38.796   1.720
 9565W        W81891  12.210  14.823  10.537
 9566W        W81892  19.188  42.844   4.528
 9567W        W81893  40.491  38.078  13.050
 9568W        W81894  32.551  20.325  14.010
 9569W        W81895  30.969   0.368   4.358
 9570W        W81896  15.682  29.056  13.253
 9571W        W81897  22.486  27.721   4.403
 9572W        W81898  39.304   5.340  10.823
 9573W        W81899  35.741   2.535  10.640
 9574W        W81900  44.760  21.642  11.382
 9575W        W81901  37.384  24.440   3.604
 9576W        W81902  25.408  29.092  13.854
 9577W        W81903  16.298  14.697   2.762
 9578W        W81904   7.223  15.366   1.386
 9579W        W81905  25.525   0.952   0.424
 9580W        W81906  42.383  42.306  14.861
 9581W        W81907  41.488   8.081  14.192
 9582W        W81908   2.367   4.141  12.513
 9583W        W81909  23.888  37.159   1.225
 9584W        W81910  21.213  35.618  12.691
 9585W        W81911   1.768  17.012  13.056
 9586W        W81912  24.232  30.054   4.079
 9587W        W81913  19.495  30.943  13.086
 9588W        W81914  15.548  44.069   3.090
 9589W        W81915  29.972  26.436  12.437
 9590W        W81916   2.373   5.504   1.003
 9591W        W81917  42.377  15.507  12.639
 9592W        W81918   5.413  11.727   3.665
 9593W        W81919  23.097  35.704  12.430
 9594W        W81920  41.869  24.763   1.723
 9595W        W81921   6.433  24.644   1.225
 9596W        W81922  31.650  35.572   3.959
 9597W        W81923  16.679   9.891  14.858
 9598W        W81924  35.446   0.741   2.873
 9599W        W81925  41.761  23.176  11.064
 9600W        W81926  33.928  21.500   2.250
 9601W        W81927  36.031  30.454  11.608
 9602W        W81928  13.132  36.378   2.222
 9603W        W81929  43.950  36.069  13.433
 9604W        W81930  14.584  20.681  13.606
 9605W        W81931  34.277  37.332  13.767
 9606W        W81932  15.831  14.717   4.073
 9607W        W81933  41.694  16.176  14.329
 9608W        W81934  19.226  16.895  12.475
 9609W        W81935  11.196  37.105   2.352
 9610W        W81936  21.857   1.154   3.213
 9611W        W81937  33.005  35.799  14.715
 9612W        W81938  18.180  27.387  13.800
 9613W        W81939  26.137   3.609  14.439
 9614W        W81940  19.809  31.672   0.456
 9615W        W81941  35.459  26.713   4.485
 9616W        W81942  15.177  21.836  13.737
 9617W        W81943  15.653  28.883   2.121
 9618W        W81944  43.901  22.729   0.729
 9619W        W81945  14.821  31.387   0.328
 9620W        W81946   8.259  13.920   4.609
 9621W        W81947  31.137  44.997   1.723
 9622W        W81948  29.916   6.856   1.379
 9623W        W81949  43.648  34.635   3.999
 9624W        W81950   7.870  25.477  12.573
 9625W        W81951   3.278  23.073   0.261
 9626W        W81952  30.592  22.269  14.493
 9627W        W81953  35.479   6.953   1.678
 9628W        W81954  21.661  23.853   1.423
 9629W        W81955  10.154  33.133   4.122
 9630W        W81956   3.896  25.090   5.198
 9631W        W81957  36.963  40.615  13.463
 9632W        W81958  16.138  31.932   4.616
 9633W        W81959  22.097  26.157   0.272
 9634W        W81960  31.713  32.406  13.483
 9635W        W81961  36.358  35.885  10.647
 9636W        W81962  11.227  20.223  13.409
 9637W        W81963  23.215  42.514   4.885
 9638W        W81964  16.663  41.883  12.597
 9639W        W81965  43.275  16.331   3.809
 9640W        W81966  41.643   9.059  11.974
 9641W        W81967  41.394  12.785  14.844
 9642W        W81968  31.678  28.973   0.215
 9643W        W81969  14.286  25.722   1.910
 9644W        W81970  35.339   7.678   2.197
 9645W        W81971  21.123  18.302  11.678
 9646W        W81972  28.858  14.092  13.366
 9647W        W81973  34.614   2.389   2.487
 9648W        W81974  41.362  20.773   2.485
 9649W        W81975   5.788  32.126   1.848
 9650W        W81976  22.605  44.025   4.194
 9651W        W81977  31.183  16.530  11.780
 9652W        W81978  20.083  31.090   2.135
 9653W        W81979  34.069  22.670  10.439
 9654W        W81980  41.417  30.143  13.022
 9655W        W81981  24.449   5.004   1.848
 9656W        W81982   2.713  17.261   2.400
 9657W        W81983  27.410  18.236   3.798
 9658W        W81984  39.244  29.241   2.205
 9659W        W81985  31.433  35.563  12.983
 9660W        W81986  23.697  15.621  13.762
 9661W        W81987  34.957  23.632   1.379
 9662W        W81988  27.037  33.012  11.323
 9663W        W81989  44.053  28.162  14.979
 9664W        W81990   4.445  12.177   2.224
 9665W        W81991   9.591  31.244  10.922
 9666W        W81992  10.625  22.088   0.460
 9667W        W81993  38.606  15.027  13.542
 9668W        W81994   4.859   7.353  10.139
 9669W        W81995  37.377  28.343   1.903
 9670W        W81996  33.968  16.202  11.749
 9671W        W81997  22.525  25.037   0.918
 9672W        W81998  24.489  37.804  14.371
 9673W        W81999  38.786  40.539  11.101
 9674W        W82000  33.564   9.409  14.004
 9675W        W82001  25.682  24.190   0.267
 9676W        W82002   1.829  14.779   1.823
 9677W        W82003  21.222  18.294  14.501
 9678W        W82004   3.889  29.001  14.294
 9679W        W82005  30.922  28.150  14.893
 9680W        W82006  27.552  32.185  11.011
 9681W        W82007   1.064   8.736  14.198
 9682W        W82008  38.871   2.296  14.394
 9683W        W82009  10.961   5.708  12.013
 9684W        W82010  26.072  20.041  11.635
 9685W        W82011   3.282  27.409   0.963
 9686W        W82012  16.083   1.819   2.768
 9687W        W82013  20.701   9.883   4.781
 9688W        W82014  34.402  17.600  10.684
 9689W        W82015  19.554   2.590  12.293
 9690W        W82016   9.292  13.510   3.689
 9691W        W82017  11.233  22.620   2.350
 9692W        W82018  26.407   5.607  10.385
 9693W        W82019  25.163  40.325   3.319
 9694W        W82020   2.863  38.551   3.886
 9695W        W82021  35.621  20.568  14.560
 9696W        W82022  44.751   2.444   4.624
 9697W        W82023  39.742   5.212   3.195
 9698W        W82024  43.947   2.107  12.268
 9699W        W82025  19.032  17.202  11.138
 9700W        W82026  28.635  37.154   2.769
 9701W        W82027  41.512  20.070   0.774
 9702W        W82028  26.045   9.129   1.981
 9703W        W82029   3.456  42.268   1.439
 9704W        W82030  36.791  32.238   1.390
 9705W        W82031   2.339  13.968  12.359
 9706W        W82032   5.428  11.783   1.225
 9707W        W82033  42.359  41.279  11.530
 9708W        W82034  12.201  15.824   3.135
 9709W        W82035  34.959  42.876   5.270
 9710W        W82036  11.198   6.372  10.707
 9711W        W82037  14.534  10.673  14.871
 9712W        W82038  41.341  44.784   3.323
 9713W        W82039  33.579  44.834  14.981
 9714W        W82040   8.720  24.985   3.060
 9715W        W82041  16.013  39.965  11.873
 9716W        W82042  17.586  28.903   1.665
 9717W        W82043  36.385  39.470  14.747
 9718W        W82044  44.515  32.710   1.921
 9719W        W82045  21.265  19.774   4.733
 9720W        W82046   6.820  17.125   3.837
 9721W        W82047  43.566  36.009  14.411
 9722W        W82048  13.280  28.479   2.387
 9723W        W82049  18.715  19.609  12.088
 9724W        W82050  15.984   6.722   4.899
 9725W        W82051  20.664  25.671  11.111
 9726W        W82052  35.060  20.555  11.971
 9727W        W82053  10.923   4.529  13.365
 9728W        W82054  23.676  22.796   2.276
 9729W        W82055   4.784   2.851   3.061
 9730W        W82056  32.881  37.129  11.689
 9731W        W82057  35.351   2.997   0.870
 9732W        W82058  35.470  15.525  12.856
 9733W        W82059  28.140  31.920  13.817
 9734W        W82060   6.662  44.219   1.875
 9735W        W82061   4.150  24.585   4.671
 9736W        W82062  24.293   1.057   3.447
 9737W        W82063  41.413  38.636  14.440
 9738W        W82064   0.274  16.804   4.649
 9739W        W82065  35.320  36.445   0.856
 9740W        W82066  31.576  11.174  11.465
 9741W        W82067  28.208  21.476   3.223
 9742W        W82068   6.809  38.485  10.716
 9743W        W82069  17.303  15.286  10.164
 9744W        W82070  32.433  30.486  12.398
 9745W        W82071  27.846   3.934   4.581
 9746W        W82072   5.243  44.315  11.167
 9747W        W82073   6.744  42.881  13.052
 9748W        W82074  16.247  18.721   3.821
 9749W        W82075  34.594   2.068  11.696
 9750W        W82076  24.407  29.464   4.898
 9751W        W82077  33.129  11.673  13.499
 9752W        W82078  27.068  41.000   3.307
 9753W        W82079   3.798   4.593   4.312
 9754W        W82080  15.763  44.522  10.686
 9755W        W82081   5.438  42.288   3.223
 9756W        W82082  17.334  28.027  14.389
 9757W        W82083  25.738  34.569  14.764
 9758W        W82084  44.661  21.121  11.474
 9759W        W82085  18.563  23.959   1.913
 9760W        W82086   4.197   1.277   0.188
 9761W        W82087  36.419   6.672   0.504
 9762W        W82088  42.778  44.782  12.425
 9763W        W82089   7.245   6.676  14.030
 9764W        W82090  32.522  17.347  14.782
 9765W        W82091  40.382  15.733  11.371
 9766W        W82092  27.661  24.293   2.403
 9767W        W82093  27.707   4.353  13.876
 9768W        W82094  35.385  10.627  12.451
 9769W        W82095  29.666  11.641  10.985
 9770W        W82096  39.266  18.657  10.634
 9771W        W82097  13.057  23.236  14.844
 9772W        W82098  36.815   1.328  12.853
 9773W        W82099  21.795   4.330  13.800
 9774W        W82100  35.896  12.357  11.214
 9775W        W82101  25.649  40.083  12.353
 9776W        W82102  24.060  17.074  14.897
 9777W        W82103  23.270   3.976   2.333
 9778W        W82104   8.346  38.058   4.325
 9779W        W82105  39.165  26.129   2.400
 9780W        W82106  40.023  24.620  12.219
 9781W        W82107  36.566   7.954   2.501
 9782W        W82108   4.932  44.837  11.105
 9783W        W82109  27.167  25.672   0.014
 9784W        W82110  15.063  27.868   3.260
 9785W        W82111  18.546  33.398   2.202
 9786W        W82112  34.994   9.397   4.113
 9787W        W82113  38.175  32.989   4.213
 9788W        W82114  29.377   3.046  12.105
 9789W        W82115  13.729  21.503   4.283
 9790W        W82116   9.729  35.247   4.343
 9791W        W82117   2.721  21.463  13.375
 9792W        W82118  20.557  19.863   2.132
 9793W        W82119  38.984  28.286   1.494
 9794W        W82120  30.897  43.569  12.417
 9795W        W82121   1.324  11.721   3.058
 9796W        W82122   3.465  18.066  10.724
 9797W        W82123  10.314  36.950   1.762
 9798W        W82124  22.050  23.918   3.712
 9799W        W82125   5.960  12.390   2.360
 9800W        W82126  25.594  16.656   1.694
 9801W        W82127  43.146  24.813   1.340
 9802W        W82128  10.805  16.131  13.014
 9803W        W82129   8.423   8.648  12.052
 9804W        W82130  12.069  17.298  14.442
 9805W        W82131  35.183  17.330   5.129
 9806W        W82132  10.136  43.607  11.200
 9807W        W82133  25.875  22.712   4.195
 9808W        W82134  23.992  10.603   0.769
 9809W        W82135   3.975  22.811   9.845
 9810W        W82136  44.764  25.928  12.503
 9811W        W82137  37.712  10.663   5.115
 9812W        W82138  18.216  33.424   0.876
 9813W        W82139  15.609   5.235   3.597
 9814W        W82140  41.317  40.129   0.437
 9815W        W82141  26.616  13.005   4.608
 9816W        W82142  39.475  15.253   3.270
 9817W        W82143  20.078  39.408  12.966
 9818W        W82144  21.617  12.812   1.424
 9819W        W82145  44.116  20.272  11.892
 9820W        W82146  29.854  37.534   2.501
 9821W        W82147  35.827   1.897   3.902
 9822W        W82148   8.119  37.764  11.553
 9823W        W82149  34.182  41.420   4.922
 9824W        W82150  30.053  13.651  10.975
 9825W        W82151  11.213   1.528   4.710
 9826W        W82152  11.675  41.900   1.447
 9827W        W82153   6.767  42.880  12.180
 9828W        W82154  25.053  26.360  11.627
 9829W        W82155  38.917  20.296  14.293
 9830W        W82156  18.743  23.107  13.837
 9831W        W82157  12.546  29.131   2.711
 9832W        W82158  43.387  35.433  13.888
 9833W        W82159  40.863  41.019  12.485
 9834W        W82160  12.200  37.539  10.510
 9835W        W82161  12.986   6.196  13.349
 9836W        W82162  43.559  15.452  11.954
 9837W        W82163  18.374  31.506   1.940
 9838W        W82164  18.609  30.836   3.342
 9839W        W82165  11.295   2.068   0.492
 9840W        W82166  34.629  10.237  11.109
 9841W        W82167  17.271   5.702  12.954
 9842W        W82168  44.340  13.483   0.495
 9843W        W82169  43.998   3.513  12.562
 9844W        W82170  34.655  26.833   3.803
 9845W        W82171  37.122  34.573   1.743
 9846W        W82172   1.522   5.335  13.319
 9847W        W82173  14.067  20.171   1.439
 9848W        W82174  28.290   8.166  14.753
 9849W        W82175  17.398  42.724  14.827
 9850W        W82176   6.833   2.449   0.437
 9851W        W82177   8.322  14.148  12.315
 9852W        W82178  34.375  22.274   4.844
 9853W        W82179   9.657   5.355   2.572
 9854W        W82180   9.285  13.263   4.574
 9855W        W82181  31.707  23.172  11.472
 9856W        W82182   3.706  11.576   3.258
 9857W        W82183   9.803  15.846   1.019
 9858W        W82184  22.094   5.397  14.372
 9859W        W82185  15.107  25.959  12.083
 9860W        W82186  11.652  17.205   1.722
 9861W        W82187  43.721  26.206  10.974
 9862W        W82188  43.059  32.695   3.239
 9863W        W82189  40.527  18.295  12.524
 9864W        W82190  43.068  11.192  14.354
 9865W        W82191  28.024  41.312  10.677
 9866W        W82192  42.094  30.821  13.436
 9867W        W82193   6.045  16.850  14.973
 9868W        W82194  32.735  44.062  11.252
 9869W        W82195  14.149  21.956   0.474
 9870W        W82196  37.085  13.628   1.371
 9871W        W82197  18.666  10.424   0.529
 9872W        W82198  20.418  41.905   1.853
 9873W        W82199  34.560  13.851  14.177
 9874W        W82200  20.648  37.462   0.718
 9875W        W82201  36.552  30.138  12.515
 9876W        W82202  29.963  28.876   2.173
 9877W        W82203   6.436  28.456  13.939
 9878W        W82204  37.048  38.545   1.753
 9879W        W82205   5.465  30.931   1.332
 9880W        W82206  10.043  21.681  10.073
 9881W        W82207  27.212  16.913  10.208
 9882W        W82208  26.216  21.633   2.283
 9883W        W82209  18.280  16.454   2.379
 9884W        W82210  10.084  31.612  12.166
 9885W        W82211  34.632  42.354  11.233
 9886W        W82212  26.496   3.570  10.541
 9887W        W82213   4.148  19.691  12.642
 9888W        W82214  32.186  26.092   1.332
 9889W        W82215  26.078  29.260   3.393
 9890W        W82216  34.889  18.081   4.427
 9891W        W82217  15.224  28.407   3.658
 9892W        W82218  44.181  35.326   4.097
 9893W        W82219  43.804   0.543   2.100
 9894W        W82220   8.445  40.295  10.769
 9895W        W82221  15.644  24.941   1.955
 9896W        W82222  29.815  25.147  13.515
 9897W        W82223  31.625  39.946   4.904
 9898W        W82224  34.579   9.939   4.256
 9899W        W82225  20.515   7.649  12.520
 9900W        W82226  35.363  39.280  11.335
 9901W        W82227  42.322   8.212  11.522
 9902W        W82228   9.422  36.062   4.055
 9903W        W82229   2.174   1.936   4.090
 9904W        W82230  28.508  41.887   0.726
 9905W        W82231  38.256  44.656   2.353
 9906W        W82232  10.149  32.687  13.173
 9907W        W82233  37.531  24.535   1.857
 9908W        W82234  17.066  23.164  11.165
 9909W        W82235  41.048  36.092   2.696
 9910W        W82236   4.497  24.049  13.784
 9911W        W82237  33.415  27.119   3.787
 9912W        W82238  34.644  20.588  10.574
 9913W        W82239  42.992  39.991   1.241
 9914W        W82240  37.383   8.904   0.488
 9915W        W82241  12.217  26.539   5.054
 9916W        W82242  26.694  15.107   0.518
 9917W        W82243  39.836   8.246   3.381
 9918W        W82244  37.095  44.882   3.693
 9919W        W82245   1.446  36.075   4.268
 9920W        W82246  41.938  22.445  11.491
 9921W        W82247  44.992  25.126   2.577
 9922W        W82248  40.329  13.626  11.234
 9923W        W82249  38.372  32.824   1.850
 9924W        W82250  17.587  36.930  13.571
 9925W        W82251  20.700  21.042  13.447
 9926W        W82252  25.764   0.362   3.301
 9927W        W82253  42.180  18.742  14.526
 9928W        W82254  41.038  18.906   4.105
 9929W        W82255   7.121  29.339   3.831
 9930W        W82256  38.407  27.716   4.104
 9931W        W82257   5.675  10.219   4.438
 9932W        W82258  34.164  40.916  11.234
 9933W        W82259  30.714  35.267  11.134
 9934W        W82260  21.283  35.518   2.206
 9935W        W82261  16.502  32.640   0.023
 9936W        W82262   1.827  19.134   4.345
 9937W        W82263  22.239  28.164  13.363
 9938W        W82264  22.682  33.080  11.664
 9939W        W82265  34.004  34.430   2.821
 9940W        W82266  35.081  38.084   1.365
 9941W        W82267  16.203  15.362   2.238
 9942W        W82268  14.588  36.515  10.617
 9943W        W82269  18.089  44.303  12.054
 9944W        W82270  14.631  40.789  11.715
 9945W        W82271   1.726  30.470  13.764
 9946W        W82272  17.713  33.125  14.954
 9947W        W82273  12.771   3.839   2.781
 9948W        W82274  27.456  15.671   0.940
 9949W        W82275  40.741   2.790   3.873
 9950W        W82276  12.670   8.827   2.155
 9951W        W82277  39.278  23.068  14.495
 9952W        W82278  32.086  42.293  14.771
 9953W        W82279  18.777   7.134  12.549
 9954W        W82280  27.857   3.383   0.907
 9955W        W82281  39.126  30.550  10.777
 9956W        W82282  18.522  15.811  14.969
 9957W        W82283  20.288   8.109   1.415
 9958W        W82284  40.037  24.101   2.309
 9959W        W82285  39.473  40.918   0.887
 9960W        W82286  14.119   3.890   0.971
 9961W        W82287  10.201  38.283   1.460
 9962W        W82288  39.470  21.802   2.729
 9963W        W82289  19.205  34.590   2.678
 9964W        W82290   8.620  21.604   1.321
 9965W        W82291  34.901   6.408   1.386
 9966W        W82292  14.121  37.067  12.999
 9967W        W82293  25.504  24.777   3.348
 9968W        W82294   1.273  33.959  11.683
 9969W        W82295  37.094  34.439  13.007
 9970W        W82296  41.233  19.411  11.565
 9971W        W82297  36.453  29.256   4.216
 9972W        W82298  21.249   9.999  11.957
 9973W        W82299  37.458  40.205   4.912
 9974W        W82300  14.692   6.177  12.096
 9975W        W82301  40.567  20.786   2.058
 9976W        W82302  29.161  21.806   4.838
 9977W        W82303  35.234  15.247   1.344
 9978W        W82304  21.463  35.611  11.979
 9979W        W82305  17.020  39.517   3.372
 9980W        W82306  12.164  44.078  11.864
 9981W        W82307  41.022  43.412   1.386
 9982W        W82308   0.452  35.221  13.069
 9983W        W82309   7.237  27.118   4.294
 9984W        W82310   2.042   6.528  13.096
 9985W        W82311  14.859  33.664  14.887
 9986W        W82312   9.751  43.957  11.198
 9987W        W82313  28.993  27.691  10.519
 9988W        W82314   1.834  36.828   3.890
 9989W        W82315  29.889   3.715   3.256
 9990W        W82316   0.427  14.412   2.273
 9991W        W82317  31.115   4.136  11.209
 9992W        W82318  36.816  35.837  10.900
 9993W        W82319  13.220   4.148  13.448
 9994W        W82320  10.356  15.096   0.740
 9995W        W82321   9.234  16.246  13.006
 9996W        W82322  17.270  44.565   0.994
 9997W        W82323  17.837  35.367  14.847
 9998W        W82324  11.938  32.097   4.586
 9999W        W82325  23.013  30.986  14.707
10000W        W82326  10.750  43.854  13.925
10001W        W82327   9.783  29.991  11.143
10002W        W82328  40.007   9.705   3.457
10003W        W82329  30.672  35.313   0.150
10004W        W82330  36.031  31.059  12.896
10005W        W82331  13.265  14.781  12.508
10006W        W82332  12.649  26.591   3.250
10007W        W82333   3.179  30.089  13.542
10008W        W82334  22.092  30.401   2.886
10009W        W82335   1.336  24.000   3.515
10010W        W82336  21.793  37.138  14.929
10011W        W82337  41.776  14.134   3.268
10012W        W82338  13.222  17.527   2.206
10013W        W82339  38.350  22.300   2.790
10014W        W82340  33.997   5.272   2.299
10015W        W82341  25.614  13.932   3.115
10016W        W82342  42.844  23.842  11.590
10017W        W82343  11.154  36.479  11.562
10018W        W82344   7.871  15.061   4.668
10019W        W82345   9.837  13.915  12.254
10020W        W82346  39.853  23.615   2.601
10021W        W82347  28.355   2.428  10.790
10022W        W82348   3.334  31.612   4.264
10023W        W82349   8.667   3.220   4.649
10024W        W82350   4.435  11.640  12.475
10025W        W82351  43.301  29.115  10.479
10026W        W82352  36.359   4.589  14.010
10027W        W82353   6.635  40.487  11.904
10028W        W82354  18.466  23.023  12.344
10029W        W82355  44.355  22.499   5.020
10030W        W82356  22.504  22.587   3.644
10031W        W82357  13.324  32.341   3.539
10032W        W82358  38.274  19.585  14.992
10033W        W82359  12.747  32.989   3.636
10034W        W82360   4.192  17.334   3.534
10035W        W82361  42.932   4.467  12.038
10036W        W82362  35.963  29.762  14.861
10037W        W82363   5.463  38.868   1.922
10038W        W82364  37.375  33.281  10.569
10039W        W82365  27.913  13.856   4.145
10040W        W82366   4.214  35.005   3.199
10041W        W82367  13.555   4.705  12.612
10042W        W82368  37.426  34.953   0.445
10043W        W82369  36.989  14.836   4.174
10044W        W82370   3.293  13.199   2.903
10045W        W82371  37.892  19.650  11.590
10046W        W82372  33.732  32.525  11.395
10047W        W82373  35.611  14.532  12.372
10048W        W82374  21.183  27.218   0.055
10049W        W82375  39.743   9.305  11.364
10050W        W82376  26.504   0.756   1.085
10051W        W82377   4.891  40.530  10.896
10052W        W82378  21.714  42.479  12.520
10053W        W82379   2.782   7.210   0.405
10054W        W82380   9.736  40.024   1.820
10055W        W82381  22.815  31.993   4.868
10056W        W82382  32.242  43.956   2.229
10057W        W82383  25.691  19.361   1.217
10058W        W82384   6.795   8.273   0.390
10059W        W82385  16.169   1.192  13.852
10060W        W82386  24.186  40.433  14.356
10061W        W82387   0.532   6.946   4.178
10062W        W82388  17.117  20.620  14.231
10063W        W82389   3.795  27.227   0.438
10064W        W82390   9.427  15.671   4.033
10065W        W82391  38.941  33.949  13.038
10066W        W82392  42.969  12.966   4.206
10067W        W82393  10.210  18.165   4.050
10068W        W82394  30.541  37.557  11.614
10069W        W82395  18.748  39.477   4.717
10070W        W82396   9.924   9.441  12.349
10071W        W82397  17.975  36.199   5.133
10072W        W82398  43.329  13.099  11.719
10073W        W82399  32.889  23.752   1.795
10074W        W82400  44.764  26.594   3.729
10075W        W82401  17.280  29.339   3.161
10076W        W82402  18.632  38.867  11.902
10077W        W82403  38.153  32.333   4.107
10078W        W82404  24.298  30.572  14.501
10079W        W82405   6.009  12.249   3.803
10080W        W82406  12.709  19.533   2.603
10081W        W82407   6.387  19.315   2.580
10082W        W82408  18.560  44.857  13.462
10083W        W82409  20.141   7.631   1.608
10084W        W82410  41.977   1.526   2.761
10085W        W82411  38.785   3.407   0.940
10086W        W82412  11.183   4.875   0.849
10087W        W82413  43.814  23.262  14.812
10088W        W82414  18.605  14.373   3.689
10089W        W82415  25.931  44.389   1.276
10090W        W82416  25.176  41.768   1.491
10091W        W82417  39.468   0.917   0.932
10092W        W82418  44.382  27.490   2.378
10093W        W82419  27.972   7.692   2.685
10094W        W82420   9.715  12.275   2.687
10095W        W82421  28.682  23.720  13.445
10096W        W82422  42.555  44.379  13.505
10097W        W82423  27.868  37.603  11.128
10098W        W82424  37.747   8.189   1.671
10099W        W82425   3.945   6.119   4.322
10100W        W82426  42.918  24.586   4.864
10101W        W82427  25.248  42.377  11.500
10102W        W82428   2.044   3.243  12.464
10103W        W82429  35.631  21.976  12.443
10104W        W82430  37.591  21.300   3.198
10105W        W82431  12.317  24.667  11.104
10106W        W82432  37.432  30.948   1.680
10107W        W82433   6.384  42.362  13.322
10108W        W82434  43.412  19.734   3.771
10109W        W82435  32.332   0.870   1.699
10110W        W82436  20.044  34.617  14.287
10111W        W82437  40.843  39.899  13.360
10112W        W82438  12.104  11.884  14.915
10113W        W82439  19.001  13.805   1.217
10114W        W82440  21.770  33.261  10.198
10115W        W82441  23.101  11.811   4.045
10116W        W82442  39.554   0.488  14.438
10117W        W82443   1.161   9.392   4.600
10118W        W82444  34.601   3.181  11.194
10119W        W82445  10.849  31.613  13.768
10120W        W82446  34.455  30.068  13.495
10121W        W82447   0.254  32.563  10.789
10122W        W82448  31.114  36.336   5.010
10123W        W82449  41.328  16.819  10.963
10124W        W82450   8.668  28.048   2.777
10125W        W82451   1.993  37.401  12.963
10126W        W82452  14.917  17.613   3.840
10127W        W82453  28.563   2.960   1.784
10128W        W82454  43.530  32.162   4.866
10129W        W82455  21.258  23.054   3.574
10130W        W82456  37.653  25.242   4.070
10131W        W82457  28.137  34.584  13.844
10132W        W82458  25.441  24.370  12.791
10133W        W82459  32.514   2.310  10.738
10134W        W82460  20.826   6.339   0.497
10135W        W82461  12.087  32.349   0.823
10136W        W82462  30.516  32.705  13.274
10137W        W82463  41.042  37.620   4.763
10138W        W82464  18.151  34.115   1.692
10139W        W82465  39.567  25.183   0.319
10140W        W82466  44.655  22.008  14.835
10141W        W82467  33.559  10.922  11.044
10142W        W82468  19.566  36.865   4.075
10143W        W82469  37.472  38.585   1.457
10144W        W82470  21.591  36.044   1.299
10145W        W82471  24.684  21.628  14.869
10146W        W82472  31.126  37.275   1.862
10147W        W82473  26.761  18.667   5.030
10148W        W82474   5.616   4.518   3.915
10149W        W82475  13.204  41.476  14.360
10150W        W82476   7.724  20.999  10.994
10151W        W82477   0.103  25.689   1.357
10152W        W82478   4.893  40.958  12.571
10153W        W82479  15.257  32.924   1.349
10154W        W82480  30.368   4.746   0.688
10155W        W82481  25.619  43.393   4.202
10156W        W82482   6.962  35.862  12.111
10157W        W82483  37.504  40.317  11.772
10158W        W82484  14.322   2.828   3.321
10159W        W82485  31.690   6.205   3.449
10160W        W82486  20.558  14.125   3.313
10161W        W82487  38.302  42.451   0.813
10162W        W82488   5.742  12.716  13.869
10163W        W82489   0.370  43.855  11.075
10164W        W82490   1.521  38.783   4.689
10165W        W82491  30.744  41.603   4.142
10166W        W82492  29.087  36.859  10.432
10167W        W82493  34.793  12.789  12.545
10168W        W82494   9.683  12.064   3.211
10169W        W82495   1.677   7.360   2.316
10170W        W82496  36.347  37.410  12.844
10171W        W82497  13.576  15.256  11.996
10172W        W82498  14.953   2.729   2.317
10173W        W82499  14.291  39.837  11.844
10174W        W82500  23.176   4.901   3.664
10175W        W82501   4.701  24.163  10.723
10176W        W82502   3.028  23.229  13.026
10177W        W82503  14.660   9.205  14.587
10178W        W82504  29.395  20.674   0.937
10179W        W82505  35.332  42.768  10.661
10180W        W82506  29.147   0.620   3.808
10181W        W82507  25.480  24.807   1.523
10182W        W82508  43.422   4.306   1.303
10183W        W82509  34.970  31.496   0.964
10184W        W82510  18.283  29.129  11.618
10185W        W82511  14.740  33.426  13.896
10186W        W82512  24.688  36.996  13.287
10187W        W82513  40.271  13.809   2.828
10188W        W82514  39.165   9.843  13.099
10189W        W82515  21.434  43.543   3.246
10190W        W82516  21.451  37.707   9.842
10191W        W82517  20.645  41.957  11.550
10192W        W82518  15.730  25.508   4.729
10193W        W82519  22.965  31.854  12.036
10194W        W82520  26.121  33.203  11.980
10195W        W82521  22.155  23.511   4.856
10196W        W82522  43.789   0.884  10.473
10197W        W82523  32.827  29.856  11.627
10198W        W82524  32.375  25.177  14.359
10199W        W82525  23.147  11.943  12.880
10200W        W82526  36.905  39.543  13.348
10201W        W82527   6.271  17.118  10.763
10202W        W82528  27.578  14.560  14.075
10203W        W82529  30.381  13.333  12.513
10204W        W82530  22.469  13.522   0.765
10205W        W82531  36.279  11.284   2.167
10206W        W82532  28.092  38.001  11.482
10207W        W82533  28.988  13.069  12.481
10208W        W82534  24.896  40.302   3.754
10209W        W82535  26.671  19.551  12.016
10210W        W82536  28.994  19.071   1.392
10211W        W82537  41.634  30.483   3.213
10212W        W82538   4.553  34.669   1.756
10213W        W82539  22.566  28.994   0.256
10214W        W82540  24.029  25.129   2.703
10215W        W82541  35.564   0.967   1.002
10216W        W82542  22.044   2.655   4.548
10217W        W82543  43.986  10.221  14.912
10218W        W82544  44.831  10.151   3.203
10219W        W82545  31.807  16.792   2.653
10220W        W82546  11.073  20.780  11.124
10221W        W82547  26.717  32.850   3.147
10222W        W82548  33.032  12.156   0.936
10223W        W82549  23.575  20.489   2.289
10224W        W82550  15.137  23.449  14.843
10225W        W82551   1.237  14.419  12.582
10226W        W82552  31.651   1.685   3.215
10227W        W82553   4.117  30.537  14.742
10228W        W82554  11.811  22.620  13.096
10229W        W82555   7.009  29.078   4.388
10230W        W82556  43.367  11.336   0.846
10231W        W82557  25.482  16.632  12.175
10232W        W82558   3.194  32.860   1.303
10233W        W82559   7.177  44.360  12.868
10234W        W82560  20.030  10.112   4.306
10235W        W82561  24.233  23.233  13.031
10236W        W82562  31.484  37.870   3.099
10237W        W82563  11.700  18.296  14.654
10238W        W82564  40.261  30.006   3.845
10239W        W82565  12.140  23.522   0.283
10240W        W82566  34.379  43.294  12.119
10241W        W82567  39.880  12.004  14.522
10242W        W82568  40.002  41.539   2.719
10243W        W82569  21.342  43.443   4.166
10244W        W82570  40.790   1.108  11.117
10245W        W82571  31.770  37.337  14.964
10246W        W82572   6.035   4.217  10.623
10247W        W82573  33.288  34.153   3.578
10248W        W82574   9.826  44.021  13.607
10249W        W82575  23.547  19.591  12.888
10250W        W82576  31.610   0.683  11.941
10251W        W82577  33.151  18.256  10.964
10252W        W82578  18.313  28.990   3.111
10253W        W82579  12.392  14.497  13.010
10254W        W82580   7.956  27.812  13.391
10255W        W82581  42.869   4.241  11.563
10256W        W82582  19.276  35.481   3.758
10257W        W82583  33.115   4.153   4.817
10258W        W82584  27.792  32.017   1.019
10259W        W82585  25.704  11.044   1.472
10260W        W82586  14.757  18.029   1.858
10261W        W82587   9.164   8.270   3.873
10262W        W82588  38.958  44.450   3.521
10263W        W82589  37.746  38.567   0.671
10264W        W82590  15.880   6.400  14.912
10265W        W82591   3.162  25.983  12.143
10266W        W82592  41.239  40.765   1.882
10267W        W82593  43.209  41.837   5.005
10268W        W82594  25.901  43.335   3.264
10269W        W82595  22.756  23.937   4.114
10270W        W82596  30.977  41.062   3.118
10271W        W82597  29.735  11.943   1.851
10272W        W82598   8.008  38.965  14.256
10273W        W82599   8.127   6.256  13.904
10274W        W82600  21.648  15.039  12.541
10275W        W82601  16.684  20.964  11.196
10276W        W82602  22.056  38.504  11.508
10277W        W82603  22.076   4.601   4.757
10278W        W82604  28.513  27.742  13.325
10279W        W82605  28.451  24.935   0.634
10280W        W82606  36.618  39.842  14.106
10281W        W82607  22.504  21.728   4.111
10282W        W82608  35.961  11.876  10.493
10283W        W82609  32.555   3.917   1.062
10284W        W82610   7.364  12.105   2.698
10285W        W82611  27.951  31.176   3.363
10286W        W82612   8.649  16.141  11.214
10287W        W82613  12.308   6.908  14.805
10288W        W82614  28.595  26.626   4.493
10289W        W82615   2.947  42.064  14.947
10290W        W82616  36.585   0.655  12.891
10291W        W82617  35.469  37.911   4.423
10292W        W82618  20.866  41.565  10.649
10293W        W82619   3.310  34.898   0.578
10294W        W82620   5.756  27.951   0.475
10295W        W82621  28.971  23.265   1.026
10296W        W82622  11.436  15.135  14.862
10297W        W82623  19.968   9.508   3.547
10298W        W82624  34.922  38.605   3.310
10299W        W82625  40.291   7.715  14.338
10300W        W82626  19.150  12.468  13.906
10301W        W82627  24.969   3.407   1.450
10302W        W82628  30.216  27.971   0.780
10303W        W82629   2.846   2.995   2.086
10304W        W82630  14.399  13.122   0.963
10305W        W82631   8.399  21.791   0.860
10306W        W82632   9.351   7.468   0.280
10307W        W82633  37.549  42.867  13.580
10308W        W82634  42.126  15.054   1.914
10309W        W82635  24.521  11.391   1.832
10310W        W82636  42.028  10.997   3.121
10311W        W82637  33.811  35.619  11.204
10312W        W82638  44.297  29.957  14.484
10313W        W82639  38.974   4.940   0.807
10314W        W82640  30.055  10.657  10.923
10315W        W82641  29.449   4.474  13.363
10316W        W82642  30.489  26.523  12.442
10317W        W82643  37.357   1.238   0.211
10318W        W82644  27.426  41.393   0.128
10319W        W82645  10.777  43.402   2.462
10320W        W82646   8.337  39.312   2.675
10321W        W82647  17.785  38.925   3.189
10322W        W82648  32.514   2.568   0.884
10323W        W82649  19.297  43.382   0.540
10324W        W82650  23.114  16.384   4.700
10325W        W82651  11.315   6.601  14.899
10326W        W82652  13.543  11.899   3.691
10327W        W82653  37.801  44.317  12.492
10328W        W82654  27.177  25.551  11.611
10329W        W82655   6.134  11.848  11.113
10330W        W82656   6.318  27.509  12.092
10331W        W82657  31.753  28.211   0.973
10332W        W82658  30.017  38.407  10.713
10333W        W82659  29.991  32.732  12.771
10334W        W82660  18.776   2.936  10.617
10335W        W82661   6.700   6.806   0.298
10336W        W82662  30.087  33.593   3.260
10337W        W82663  26.212  32.874   3.240
10338W        W82664   6.358   1.989   2.881
10339W        W82665  17.040  23.283  12.920
10340W        W82666   2.969  10.747  10.931
10341W        W82667  36.606   4.064   1.931
10342W        W82668  36.875  16.697   4.250
10343W        W82669  42.054  18.590   2.223
10344W        W82670  19.470  23.714  12.960
10345W        W82671   0.745  30.978  10.686
10346W        W82672   3.355  37.879  11.420
10347W        W82673  23.540  10.703   3.259
10348W        W82674  13.131  18.291   1.744
10349W        W82675   9.168   7.806  11.447
10350W        W82676  13.824  36.149  11.001
10351W        W82677  29.962  26.182   3.007
10352W        W82678  29.876  29.988   3.926
10353W        W82679  35.190   0.470  11.117
10354W        W82680  31.291  37.970  13.976
10355W        W82681  18.047  18.704   0.960
10356W        W82682   3.641  30.075   1.350
10357W        W82683  15.740   8.069   4.235
10358W        W82684  42.550  22.613  10.320
10359W        W82685  16.210  22.607   2.342
10360W        W82686  27.515  11.264  10.789
10361W        W82687  25.308  30.567  14.234
10362W        W82688  32.002  20.535   1.145
10363W        W82689   2.515  21.992  10.128
10364W        W82690  40.993  19.265  13.904
10365W        W82691  12.961  32.980   0.493
10366W        W82692   5.837  43.835   0.386
10367W        W82693  40.815  41.327   4.725
10368W        W82694   0.995  24.103   0.407
10369W        W82695   7.782   4.464   2.692
10370W        W82696  42.898  39.634   2.415
10371W        W82697  14.208  18.972   4.099
10372W        W82698   7.174   9.732  11.476
10373W        W82699   1.217  26.542   4.105
10374W        W82700  31.626  19.576  12.430
10375W        W82701  21.228  17.131   0.739
10376W        W82702  27.121  27.063  13.915
10377W        W82703  39.278   0.505   1.627
10378W        W82704  17.732  12.673   0.099
10379W        W82705  26.514  42.236   1.343
10380W        W82706  28.268  43.926   0.312
10381W        W82707  43.295  10.652  14.403
10382W        W82708  40.109   5.276   0.938
10383W        W82709  37.699  24.681   2.345
10384W        W82710  24.482  33.490  12.704
10385W        W82711  30.649  26.078  14.017
10386W        W82712   4.351  38.832  12.495
10387W        W82713  13.794  41.943   1.948
10388W        W82714  19.796  41.838  12.460
10389W        W82715  17.790  15.604   2.067
10390W        W82716  36.145  18.629   2.457
10391W        W82717  41.900  38.154   4.525
10392W        W82718  12.115   1.851  12.852
10393W        W82719  22.576  24.710   2.825
10394W        W82720  11.306  14.929   0.351
10395W        W82721   5.985  25.575  11.666
10396W        W82722  43.421  41.774  11.697
10397W        W82723   6.037  11.830   4.540
10398W        W82724   9.588   0.005   2.908
10399W        W82725   1.747  27.391   0.401
10400W        W82726  43.524  41.310  13.434
10401W        W82727  22.494   8.345  11.669
10402W        W82728  12.676  15.129  14.392
10403W        W82729  33.241  43.959  14.735
10404W        W82730  24.069  41.492   1.276
10405W        W82731  37.866  30.497   4.960
10406W        W82732  25.861  42.889   2.586
10407W        W82733  44.476  22.776   4.104
10408W        W82734   7.833  29.174   1.379
10409W        W82735  42.223  28.053  13.607
10410W        W82736   6.420   4.778   3.702
10411W        W82737   1.896  32.646   4.201
10412W        W82738  23.979  26.475   0.063
10413W        W82739  41.071  40.081   3.930
10414W        W82740  16.418  32.909   0.504
10415W        W82741  24.914  43.803  12.647
10416W        W82742   0.704  35.999   3.760
10417W        W82743  32.546  27.134  14.423
10418W        W82744  29.615  28.229  14.477
10419W        W82745   3.464  33.904  12.958
10420W        W82746  11.010  21.343  11.707
10421W        W82747  29.842  16.636   4.890
10422W        W82748  40.286  16.777   4.711
10423W        W82749  34.394  42.284   2.709
10424W        W82750  26.105  36.346   3.858
10425W        W82751   3.402  22.536  11.524
10426W        W82752  31.545  22.973  13.602
10427W        W82753  22.491   4.420  13.006
10428W        W82754   7.178  30.391   4.499
10429W        W82755  10.106  13.651  13.764
10430W        W82756   2.927  13.938  13.562
10431W        W82757   7.713  35.340   1.841
10432W        W82758  22.216  43.628   4.128
10433W        W82759  18.624   1.997  10.719
10434W        W82760  32.594  19.535  10.780
10435W        W82761   7.369   0.784   0.466
10436W        W82762  33.892  38.752  14.289
10437W        W82763  35.657   1.748   1.433
10438W        W82764  26.412   8.123  14.992
10439W        W82765  24.754   8.725  12.498
10440W        W82766  35.943  16.545   2.402
10441W        W82767  16.180  12.712  14.359
10442W        W82768   2.841  33.191  13.061
10443W        W82769  39.831  35.263   1.376
10444W        W82770  25.856  30.446  11.186
10445W        W82771   3.253  27.939   0.988
10446W        W82772  44.712  40.394   2.326
10447W        W82773   4.193  18.475  11.051
10448W        W82774  23.168  14.250  12.606
10449W        W82775  11.825  18.018  12.469
10450W        W82776  26.857  10.067  13.079
10451W        W82777  43.005  41.400  10.498
10452W        W82778  17.284  13.540  14.781
10453W        W82779   8.329  14.847   1.723
10454W        W82780  42.593  14.373   3.110
10455W        W82781  32.374  31.839  13.872
10456W        W82782   9.911  10.863  11.022
10457W        W82783  32.693  26.032   1.195
10458W        W82784  41.802   7.134   1.323
10459W        W82785  32.078  38.489  11.608
10460W        W82786  23.430  23.201  11.511
10461W        W82787  16.252  39.496   1.384
10462W        W82788  41.429  23.771  14.924
10463W        W82789  14.110  13.925   4.187
10464W        W82790  18.641  22.353  10.692
10465W        W82791  29.390  23.739   4.168
10466W        W82792  26.469  35.531   2.782
10467W        W82793   0.342  31.070  12.518
10468W        W82794  16.549  38.081  11.660
10469W        W82795  42.932  27.574  13.653
10470W        W82796  10.384  21.667   3.783
10471W        W82797  39.816  29.712  11.739
10472W        W82798  23.120  40.898  12.474
10473W        W82799  12.275  36.425   1.688
10474W        W82800  13.838  44.093  10.735
10475W        W82801  36.338  25.098  12.379
10476W        W82802  16.839   9.433   3.019
10477W        W82803   2.418  21.133   9.888
10478W        W82804  16.032  31.105  13.551
10479W        W82805  38.806   5.349  10.703
10480W        W82806  37.926  37.305  13.117
10481W        W82807  42.408  33.222  12.417
10482W        W82808  39.554  17.665  14.558
10483W        W82809   9.351  32.091  13.862
10484W        W82810  22.022  32.868  13.043
10485W        W82811  19.359  18.135  12.955
10486W        W82812  33.863  40.864   0.349
10487W        W82813  39.406  37.138  11.369
10488W        W82814   4.363  36.235   4.662
10489W        W82815  26.544  18.288   1.184
10490W        W82816  12.311  34.862  14.100
10491W        W82817  41.424  26.925   3.648
10492W        W82818   7.734   8.769  14.416
10493W        W82819  36.336   3.562  14.279
10494W        W82820   5.366   2.759   2.379
10495W        W82821  39.188  12.428   0.387
10496W        W82822  39.953  42.433  13.884
10497W        W82823  38.494  44.077  10.135
10498W        W82824  35.468  38.845  14.450
10499W        W82825  29.776  39.476  12.185
10500W        W82826  36.045  32.538  14.338
10501W        W82827   7.299  42.724   4.866
10502W        W82828  27.884  22.818   2.835
10503W        W82829   3.706  33.541   2.637
10504W        W82830  17.011   4.969   0.459
10505W        W82831  21.967  32.659   4.155
10506W        W82832  31.535  44.439  10.554
10507W        W82833  36.088  40.519  13.035
10508W        W82834  32.598  28.463   2.654
10509W        W82835   0.257  18.148   2.376
10510W        W82836  41.020  10.784  12.562
10511W        W82837  10.053  15.133  13.356
10512W        W82838  17.168  17.212   3.485
10513W        W82839  15.679  32.503  13.524
10514W        W82840  29.355  27.719   3.633
10515W        W82841   8.653  16.389   3.647
10516W        W82842  13.178  18.795   1.725
10517W        W82843  29.957  22.819  13.717
10518W        W82844  31.139   9.436   1.007
10519W        W82845  20.588  13.731   3.909
10520W        W82846   5.862  38.592  14.273
10521W        W82847  31.601  15.252  14.072
10522W        W82848  14.802  29.566  12.428
10523W        W82849  33.538   9.945  11.261
10524W        W82850  36.920  19.282  14.360
10525W        W82851  30.235   8.624   2.361
10526W        W82852  18.049  13.692  14.413
10527W        W82853  29.625   7.198   4.961
10528W        W82854  42.962  38.637   2.255
10529W        W82855  22.648  36.795   2.738
10530W        W82856   6.962   8.180   4.349
10531W        W82857  10.868  40.826  14.057
10532W        W82858  29.903  38.583  12.925
10533W        W82859  37.008  25.963   0.386
10534W        W82860  29.075  32.970   3.818
10535W        W82861  44.383  36.598   1.294
10536W        W82862  34.472   0.933   4.461
10537W        W82863  27.025  16.090  10.403
10538W        W82864  18.340  35.551   2.905
10539W        W82865  17.515  40.635   0.264
10540W        W82866  12.759  30.633   1.811
10541W        W82867   2.405  38.507  10.679
10542W        W82868  27.944   4.384   3.739
10543W        W82869  35.658   6.321  14.873
10544W        W82870  41.877  41.586   4.476
10545W        W82871   6.741  30.565  12.092
10546W        W82872  24.961   2.446  11.217
10547W        W82873  41.543  41.158  11.866
10548W        W82874  15.224  41.120   1.881
10549W        W82875  28.570  24.057   2.165
10550W        W82876  41.986  13.422  10.670
10551W        W82877  18.695  33.450   4.105
10552W        W82878  10.803  37.602   1.319
10553W        W82879  44.827  35.992   0.239
10554W        W82880  33.932  24.098  12.729
10555W        W82881  36.344  42.497  13.006
10556W        W82882  21.151  27.640  14.295
10557W        W82883  33.141  38.134   0.851
10558W        W82884  13.577  32.013  13.325
10559W        W82885   3.517  37.380  11.179
10560W        W82886  31.667  33.915  12.903
10561W        W82887  39.814  33.154  13.294
10562W        W82888  37.469  21.205  12.107
10563W        W82889  15.753  39.693   2.702
10564W        W82890  38.427  30.919  12.833
10565W        W82891  10.090   6.966   3.234
10566W        W82892  22.491   9.251  11.190
10567W        W82893  20.973  35.523   2.684
10568W        W82894   1.912   3.982  13.705
10569W        W82895  24.174  18.107  13.906
10570W        W82896  15.342  34.663   0.390
10571W        W82897  15.159   9.384   0.777
10572W        W82898   0.755  22.029  10.104
10573W        W82899  36.934  15.020   3.705
10574W        W82900   7.351  20.629  10.551
10575W        W82901  23.212  36.879   3.703
10576W        W82902  30.984  23.035  13.847
10577W        W82903   6.260  29.074  12.635
10578W        W82904  37.109  26.184  14.146
10579W        W82905   8.448  23.581   3.388
10580W        W82906   4.469  17.518  11.977
10581W        W82907  18.195  15.676  14.609
10582W        W82908  15.828  43.951  11.026
10583W        W82909  41.439  13.064  13.410
10584W        W82910  43.387  41.074  13.869
10585W        W82911  19.722   4.683   2.774
10586W        W82912  18.567  40.362   2.202
10587W        W82913  25.613  10.161  10.878
10588W        W82914  18.405   4.927  12.559
10589W        W82915  37.361  27.433   1.550
10590W        W82916   9.418  37.315   0.389
10591W        W82917  27.341  38.994   0.413
10592W        W82918  40.369   6.392  12.792
10593W        W82919  23.722  25.179  13.479
10594W        W82920  33.714  17.504   5.096
10595W        W82921  14.094   6.857   1.202
10596W        W82922  27.402  26.047   5.028
10597W        W82923  20.107   7.796   4.183
10598W        W82924  18.789  43.972  13.963
10599W        W82925  39.388  26.544   4.534
10600W        W82926  14.671  28.470   2.302
10601W        W82927  21.490   7.130   0.368
10602W        W82928  31.036  35.402   0.481
10603W        W82929  23.332  24.481  13.026
10604W        W82930  34.427  35.044  12.841
10605W        W82931  39.337  24.218  13.106
10606W        W82932  35.615  20.813  10.742
10607W        W82933  36.862   8.285  11.188
10608W        W82934  35.890  17.696   0.460
10609W        W82935  42.101  12.171  10.521
10610W        W82936  39.289  19.455  13.453
10611W        W82937  40.630   9.436  10.844
10612W        W82938  25.477   2.648   1.874
10613W        W82939  41.877   1.820  13.615
10614W        W82940  38.471   5.918  11.994
10615W        W82941  36.426   0.393   0.678
10616W        W82942  25.514  38.759  12.435
10617W        W82943   2.578  15.742  14.497
10618W        W82944  30.050   5.166  14.601
10619W        W82945  10.614  13.366  12.147
10620W        W82946   8.888   4.011  10.873
10621W        W82947  24.565  39.425  14.231
10622W        W82948  27.749  13.414   0.041
10623W        W82949  33.398  30.351  13.591
10624W        W82950  20.545  14.597  11.859
10625W        W82951  21.748  40.524   1.314
10626W        W82952  28.926   9.430   0.295
10627W        W82953  12.475  10.207   4.686
10628W        W82954  26.409  12.705  10.604
10629W        W82955  36.288  12.133  12.633
10630W        W82956  37.028  22.827   1.412
10631W        W82957  10.254  13.220   1.729
10632W        W82958  22.075  30.196  13.387
10633W        W82959  44.814   6.364   1.763
10634W        W82960   5.263  34.509   2.353
10635W        W82961   5.407  15.738  12.198
10636W        W82962  23.959   3.377  10.663
10637W        W82963  34.489   5.149   2.337
10638W        W82964   1.918   1.245   3.649
10639W        W82965  30.139  24.469   3.579
10640W        W82966  42.761  38.857  11.656
10641W        W82967  33.045  39.694  13.927
10642W        W82968  16.071  40.894  11.128
10643W        W82969  40.109   5.396   2.280
10644W        W82970  20.923   8.720   0.462
10645W        W82971  42.044  11.747  12.732
10646W        W82972  32.798   0.312   3.123
10647W        W82973   7.252  25.668   4.548
10648W        W82974  28.080  27.663   2.403
10649W        W82975  30.397  38.835   3.871
10650W        W82976  18.662  22.256   1.408
10651W        W82977  42.013  40.536  13.117
10652W        W82978  42.559  34.463   2.443
10653W        W82979  21.761  43.561   0.906
10654W        W82980  23.997   9.834  14.294
10655W        W82981  32.134  36.985  12.163
10656W        W82982  28.403  33.476   0.329
10657W        W82983  34.881  10.154  14.104
10658W        W82984   8.124   9.756  14.801
10659W        W82985  10.540  36.397   4.663
10660W        W82986  18.938   3.497   4.184
10661W        W82987  21.111  40.711   0.859
10662W        W82988   1.854  15.878   1.890
10663W        W82989  11.730   7.167   4.747
10664W        W82990  27.689  39.171   1.356
10665W        W82991  21.934  22.198   3.389
10666W        W82992  28.551   5.244   4.631
10667W        W82993   6.282  41.099   2.888
10668W        W82994  44.306  16.634   1.703
10669W        W82995  30.581  33.566  14.027
10670W        W82996  24.729  12.628  13.158
10671W        W82997  25.554   5.896   4.616
10672W        W82998  44.261  26.157  12.027
10673W        W82999  16.366   0.405   1.140
10674W        W83000  15.386  30.477  13.403
10675W        W83001   9.746  12.873  13.959
10676W        W83002  30.328   5.996  12.755
10677W        W83003  35.004   4.978   2.514
10678W        W83004  39.862  24.160  13.908
10679W        W83005  30.603  42.307  13.485
10680W        W83006  19.266  22.287  11.342
10681W        W83007  39.579  34.878   1.024
10682W        W83008  20.287  24.442  14.591
10683W        W83009  34.111   9.087  11.475
10684W        W83010  38.540  25.273  12.068
10685W        W83011  18.752  33.959  13.327
10686W        W83012  44.043   3.385   3.189
10687W        W83013  18.067  28.092  12.903
10688W        W83014   0.709   9.975   5.519
10689W        W83015  37.044   0.665   4.055
10690W        W83016  34.452  13.346  10.619
10691W        W83017  36.435  18.773  11.958
10692W        W83018  32.637   1.347  14.629
10693W        W83019  38.607  23.215   1.390
10694W        W83020  20.350  42.512   0.743
10695W        W83021  34.327  10.328  10.714
10696W        W83022  19.583  36.501  13.152
10697W        W83023  20.097   3.469  12.688
10698W        W83024  40.368  30.098  14.003
10699W        W83025  23.648   1.903   0.812
10700W        W83026  35.072   1.011  14.800
10701W        W83027   3.377  10.446   0.995
10702W        W83028  19.678   3.196  13.858
10703W        W83029  12.093  34.204  12.323
10704W        W83030  27.665   8.169   0.961
10705W        W83031  37.088  16.091  10.625
10706W        W83032   9.877   4.877  10.552
10707W        W83033   6.778  22.660  12.938
10708W        W83034  18.756   2.939  11.480
10709W        W83035   6.339  15.869   0.176
10710W        W83036  26.518  35.920  13.584
10711W        W83037  42.040   1.041   0.904
10712W        W83038   8.300   5.536  13.131
10713W        W83039  39.482  21.516  14.552
10714W        W83040  36.418  21.173  11.656
10715W        W83041   2.432  25.516  10.632
10716W        W83042  26.002  29.858  10.537
10717W        W83043  31.035  11.684   2.375
10718W        W83044  22.098  26.356  11.938
10719W        W83045  18.306  34.280  12.422
10720W        W83046  27.649  27.424   5.143
10721W        W83047  24.624  29.645   1.001
10722W        W83048  18.124   7.747   4.679
10723W        W83049  11.584  42.924  14.001
10724W        W83050  38.472  27.090  11.960
10725W        W83051  16.400  40.871  10.724
10726W        W83052  13.463  25.953   2.903
10727W        W83053  36.878   3.015   0.009
10728W        W83054  32.068  26.926  10.451
10729W        W83055  35.427  42.521  13.440
10730W        W83056   5.179  21.073  12.909
10731W        W83057  14.840  44.357  10.132
10732W        W83058   7.152  31.901   2.275
10733W        W83059  34.394  17.602  13.450
10734W        W83060   7.275  23.487  13.786
10735W        W83061  19.605  24.556  11.591
10736W        W83062  17.826  43.466   1.876
10737W        W83063  22.503  40.502  13.582
10738W        W83064  39.574   4.327   4.181
10739W        W83065  23.078  35.762   0.203
10740W        W83066   0.069  16.857  12.110
10741W        W83067   9.734  14.068   3.134
10742W        W83068  13.326  23.552  14.012
10743W        W83069  10.321  19.625  11.436
10744W        W83070   7.013  22.023   4.413
10745W        W83071  14.744   7.482   0.084
10746W        W83072   3.212  14.105  14.916
10747W        W83073  13.379  13.074   4.385
10748W        W83074  18.699  19.668  12.600
10749W        W83075  29.103  33.852  11.591
10750W        W83076  35.561  11.146   3.659
10751W        W83077   2.802   9.204  11.868
10752W        W83078  12.868  22.162   0.286
10753W        W83079  10.919  11.845  12.538
10754W        W83080  14.214  30.112  12.905
10755W        W83081  32.727  34.444  12.391
10756W        W83082  23.079  25.679  14.803
10757W        W83083   6.853  11.352  14.804
10758W        W83084  19.089  28.148  12.152
10759W        W83085   7.968  13.789  12.464
10760W        W83086  27.600  15.376  13.343
10761W        W83087  44.199   9.573   1.744
10762W        W83088  42.967  38.181  10.838
10763W        W83089   4.132  42.665  13.861
10764W        W83090  36.627  13.223   2.753
10765W        W83091  24.962  32.986  11.608
10766W        W83092  29.102   6.908   2.798
10767W        W83093  26.000   8.757   3.114
10768W        W83094   0.940   3.661   4.986
10769W        W83095  22.465  12.191   1.841
10770W        W83096  33.832  31.089   1.262
10771W        W83097   4.697  16.714   4.549
10772W        W83098  38.300  41.993  14.254
10773W        W83099  34.809  21.639   0.323
10774W        W83100  32.552  18.479   2.338
10775W        W83101  12.404  42.927  10.726
10776W        W83102   1.949  42.186  14.801
10777W        W83103  41.487  43.315   2.190
10778W        W83104   2.931  43.921  13.480
10779W        W83105   4.907   8.889  12.011
10780W        W83106  26.246  36.631  14.189
10781W        W83107  30.863  33.981  13.924
10782W        W83108  22.798  10.658  12.027
10783W        W83109  27.029   3.129  11.116
10784W        W83110   3.810   9.489   4.575
10785W        W83111  19.516  20.475  11.266
10786W        W83112  40.731   0.722  10.286
10787W        W83113  29.690  40.645   1.445
10788W        W83114   6.917  21.366  11.525
10789W        W83115  34.158   3.773   0.205
10790W        W83116  12.726   6.027   2.337
10791W        W83117  12.289  42.464   0.221
10792W        W83118   2.550  33.363  10.142
10793W        W83119  40.042  37.504   1.975
10794W        W83120  32.370  23.259  12.362
10795W        W83121  44.767  42.381   0.359
10796W        W83122  29.998  30.489   3.158
10797W        W83123  42.639  36.702  12.631
10798W        W83124  11.878  44.243   0.411
10799W        W83125  15.650   7.665  10.741
10800W        W83126  26.036  13.861   3.642
10801W        W83127  40.066   2.371   3.272
10802W        W83128   3.094  15.794   3.309
10803W        W83129  10.320   8.333   1.431
10804W        W83130  41.119  19.264  10.719
10805W        W83131  28.644   7.840  14.915
10806W        W83132  42.098  26.707   5.075
10807W        W83133   3.931   1.104  13.984
10808W        W83134   3.370  14.118  11.162
10809W        W83135   5.432  35.229   1.525
10810W        W83136  14.192  28.476  11.988
10811W        W83137  11.940   3.984   4.114
10812W        W83138  26.963  33.974   2.867
10813W        W83139  19.573  25.471   1.812
10814W        W83140  17.107  44.451   1.902
10815W        W83141   5.119  30.932   1.717
10816W        W83142  34.952   0.892   4.681
10817W        W83143  28.022  23.600   3.252
10818W        W83144  27.363  19.292  12.517
10819W        W83145  21.382  27.388   9.982
10820W        W83146  42.840  40.538   4.480
10821W        W83147  28.140   9.689  13.919
10822W        W83148   8.294  44.374  12.174
10823W        W83149  23.226  16.839   0.518
10824W        W83150  12.378  25.360  11.446
10825W        W83151  34.089  31.570  12.889
10826W        W83152  23.607  26.211  13.424
10827W        W83153  14.232   1.645   4.458
10828W        W83154  32.096  22.130  12.952
10829W        W83155  12.836  32.190  10.119
10830W        W83156  28.171  34.675  12.930
10831W        W83157  14.160  14.265   1.849
10832W        W83158  11.187   3.998   4.769
10833W        W83159   1.666  18.264   0.420
10834W        W83160  36.727  43.556   3.120
10835W        W83161  41.363  37.953   2.659
10836W        W83162  15.357  19.535  10.315
10837W        W83163   8.246  43.281  12.967
10838W        W83164   2.780  33.878  12.432
10839W        W83165  34.613  24.308  14.323
10840W        W83166  11.733  44.817  12.392
10841W        W83167  38.085   3.663   4.489
10842W        W83168  22.525  19.164  14.434
10843W        W83169   9.191  13.594  11.932
10844W        W83170   6.311  25.206  12.383
10845W        W83171  13.548  17.874  12.720
10846W        W83172   6.886  25.257   1.676
10847W        W83173  21.203  35.589   4.572
10848W        W83174  37.295   0.979  13.326
10849W        W83175  30.630   4.620  13.893
10850W        W83176   2.697   5.076   0.842
10851W        W83177  20.033   7.296   0.832
10852W        W83178   2.232  36.279   2.353
10853W        W83179  10.913  24.052   1.333
10854W        W83180  20.644  15.253  14.962
10855W        W83181  21.802   3.027   4.244
10856W        W83182  20.090  21.789   3.880
10857W        W83183  40.281   0.900   0.519
10858W        W83184  14.670  34.570  13.883
10859W        W83185  25.570  25.472   0.987
10860W        W83186  11.819  19.046   1.833
10861W        W83187  23.153   1.645   3.408
10862W        W83188  21.702  36.504   2.444
10863W        W83189   4.003   6.287  14.375
10864W        W83190  39.383  17.082  10.923
10865W        W83191   6.419   7.466  10.483
10866W        W83192  32.533  27.223  12.238
10867W        W83193  18.304  17.467   0.443
10868W        W83194  32.620  37.867   2.323
10869W        W83195  34.344  10.296  11.547
10870W        W83196  30.980  16.605  11.310
10871W        W83197  11.309  17.039   4.732
10872W        W83198  30.452  14.305   1.909
10873W        W83199   5.414  44.759  10.917
10874W        W83200  18.139  40.520  12.393
10875W        W83201  37.009  41.855   3.378
10876W        W83202  19.260  40.981  13.759
10877W        W83203  36.924  16.836  14.111
10878W        W83204   6.699  41.797   1.332
10879W        W83205  24.011  40.298  11.911
10880W        W83206  27.205  42.797  12.598
10881W        W83207  41.774  39.934   3.236
10882W        W83208   3.672   2.016  10.284
10883W        W83209   7.345   7.878   3.101
10884W        W83210  24.951  10.679  13.467
10885W        W83211  36.238  18.948  11.521
10886W        W83212   4.149  44.479  13.346
10887W        W83213  40.967  37.008  11.626
10888W        W83214  39.608  15.715   4.827
10889W        W83215  29.682  21.093   0.971
10890W        W83216  25.705  17.637   9.737
10891W        W83217  29.066  14.226   2.600
10892W        W83218  40.824  40.394   0.389
10893W        W83219   0.832  20.089   4.889
10894W        W83220  36.476  19.179   1.229
10895W        W83221  30.567  38.987   1.885
10896W        W83222  44.983   8.185   0.685
10897W        W83223  18.155  21.509  14.798
10898W        W83224  21.493  27.643  13.873
10899W        W83225  42.465  22.799  10.803
10900W        W83226  41.943  25.609   2.213
10901W        W83227   4.919  13.926  12.488
10902W        W83228  17.846  39.482  12.396
10903W        W83229  22.497   3.663  13.393
10904W        W83230  43.899  21.617  13.590
10905W        W83231  36.846  37.073   2.825
10906W        W83232  36.399  41.930   3.600
10907W        W83233   6.975  42.789   3.194
10908W        W83234  24.535  17.881   5.475
10909W        W83235   2.932   7.953  11.709
10910W        W83236  14.319  39.700   3.670
10911W        W83237   3.942  16.827  11.749
10912W        W83238   7.191  22.451  13.925
10913W        W83239  30.135  20.154  11.965
10914W        W83240  35.605  35.401   0.270
10915W        W83241  44.733   3.691  14.176
10916W        W83242   6.714   7.772   4.135
10917W        W83243  37.008  41.790   1.918
10918W        W83244  18.708   2.324  14.143
10919W        W83245  30.478  18.543  13.035
10920W        W83246  35.534   7.935   2.632
10921W        W83247  24.188  11.570   3.989
10922W        W83248   1.298  36.267  14.530
10923W        W83249   4.459  17.467   2.248
10924W        W83250  12.407  33.344  10.565
10925W        W83251   7.842   7.089   3.184
10926W        W83252  16.171  11.364  10.706
10927W        W83253  35.038  33.937   2.412
10928W        W83254  26.256  40.292  14.081
10929W        W83255  15.723  34.421   1.845
10930W        W83256   1.679  24.005  12.716
10931W        W83257  44.933  23.468   1.170
10932W        W83258  19.328  23.502   0.166
10933W        W83259   2.040  29.207  10.721
10934W        W83260  43.065  44.256   3.633
10935W        W83261   7.905   4.987  12.286
10936W        W83262   2.715   3.842   3.108
10937W        W83263  13.249  29.425   4.658
10938W        W83264  18.133   7.656   1.060
10939W        W83265  18.753  10.990  13.966
10940W        W83266   2.821  30.785  12.276
10941W        W83267  13.086  11.332   3.167
10942W        W83268  15.281  26.998  14.406
10943W        W83269  13.172  25.700  14.467
10944W        W83270  13.259  43.809   2.629
10945W        W83271  39.806   1.921  14.017
10946W        W83272  29.714   0.356   3.113
10947W        W83273   7.669  32.217  11.099
10948W        W83274  20.548  16.157  12.783
10949W        W83275  39.125  16.657   1.236
10950W        W83276  23.585  23.648  13.036
10951W        W83277  37.842  42.962  14.410
10952W        W83278  28.232  12.618   9.928
10953W        W83279   3.992  41.230   3.427
10954W        W83280  21.636  41.592  13.585
10955W        W83281  27.208  31.583   4.007
10956W        W83282   5.870  33.365  12.386
10957W        W83283  29.683   9.242  14.477
10958W        W83284  11.758   6.828  11.649
10959W        W83285  14.145  14.131  11.951
10960W        W83286  16.737  25.983   3.894
10961W        W83287   0.701  41.264  11.152
10962W        W83288   2.673  34.736  13.395
10963W        W83289  31.228  34.218   4.866
10964W        W83290   2.263  33.941  13.428
10965W        W83291  31.163  42.775  13.081
10966W        W83292  41.366  11.720   3.663
10967W        W83293   6.654  43.693   1.825
10968W        W83294  44.501   1.994  13.733
10969W        W83295  27.447  28.411   5.043
10970W        W83296   0.467  31.310  14.610
10971W        W83297   4.421  24.503   4.224
10972W        W83298  44.580   7.424   4.118
10973W        W83299   1.986  18.225   2.874
10974W        W83300  17.341  29.900   3.072
10975W        W83301   1.964  12.632  10.459
10976W        W83302  10.882   8.264  11.635
10977W        W83303  40.392  40.809  12.420
10978W        W83304  33.260  34.494   1.649
10979W        W83305  28.683  43.734   0.033
10980W        W83306  15.367  20.539   2.330
10981W        W83307  14.797  17.660  11.727
10982W        W83308  41.381   6.719  13.332
10983W        W83309  27.706  32.081   0.022
10984W        W83310  24.056  11.505  11.643
10985W        W83311   6.181  42.970   2.339
10986W        W83312  41.727  24.115  12.016
10987W        W83313   0.322  27.492   4.270
10988W        W83314  37.473  10.112   3.803
10989W        W83315  18.434  20.268  12.014
10990W        W83316  12.870   1.892  11.222
10991W        W83317  24.176  18.171   9.947
10992W        W83318  27.689  27.467  13.784
10993W        W83319  42.970  10.391   1.839
10994W        W83320  20.631  31.871   2.128
10995W        W83321  43.719  42.388   0.282
10996W        W83322  19.088  18.939  14.013
10997W        W83323   1.700  42.718   1.534
10998W        W83324   0.426  31.869   0.256
10999W        W83325  38.790  23.560   5.165
11000W        W83326  34.369  34.480   1.139
11001W        W83327  37.985   1.412   4.612
11002W        W83328  22.580  35.041  12.589
11003W        W83329  27.174  26.946  13.380
11004W        W83330  44.799  14.777  13.988
11005W        W83331  34.016  15.296   2.209
11006W        W83332   6.012  33.630  14.948
11007W        W83333  14.078   6.717  11.579
11008W        W83334  44.921  42.935   0.495
11009W        W83335   5.074  13.445  12.488
11010W        W83336  35.004  39.336  14.140
11011W        W83337  38.873  40.938  14.329
11012W        W83338  14.116  30.840   2.707
11013W        W83339   0.175  11.786  13.050
11014W        W83340   6.131  20.298  14.427
11015W        W83341  32.444  21.219   1.162
11016W        W83342  29.962  18.598   0.310
11017W        W83343  18.738  11.427   1.786
11018W        W83344  27.524  13.040   3.751
11019W        W83345  27.734  25.998  10.902
11020W        W83346  37.851  38.801  10.469
11021W        W83347   3.021  43.871  12.132
11022W        W83348  40.318  42.207   0.941
11023W        W83349   4.692   6.518   3.678
11024W        W83350  16.860  44.367  13.479
11025W        W83351   6.985  12.378   0.813
11026W        W83352  12.845  44.007   1.908
11027W        W83353  13.407   6.875  11.993
11028W        W83354   5.722   3.929   1.937
11029W        W83355  36.507  25.687  12.018
11030W        W83356   6.244  14.636   3.563
11031W        W83357  12.596   3.426   3.512
11032W        W83358   9.631  14.244   1.420
11033W        W83359  31.547  17.785  13.606
11034W        W83360  41.475  16.302  13.861
11035W        W83361  19.705   1.350   0.337
11036W        W83362  13.153   0.476  14.537
11037W        W83363  34.545  19.112   4.148
11038W        W83364  20.907  34.607   4.480
11039W        W83365  14.085  35.499  12.454
11040W        W83366  21.693  20.298  14.518
11041W        W83367  35.456   6.316   4.523
11042W        W83368   2.972   6.934  12.454
11043W        W83369  11.549  41.088  12.598
11044W        W83370  16.209  30.154   4.673
11045W        W83371  13.793  35.586   4.698
11046W        W83372   0.496   8.126   2.276
11047W        W83373  29.170  22.560   0.369
11048W        W83374  29.402  31.152   2.874
11049W        W83375  12.179  36.680   0.393
11050W        W83376  34.265  29.840  14.408
11051W        W83377  13.923  22.940  10.501
11052W        W83378  15.384  36.702   1.025
11053W        W83379  35.112  15.447   2.877
11054W        W83380   9.866  34.393   1.852
11055W        W83381  26.039  11.352   0.905
11056W        W83382  24.194  29.912   2.750
11057W        W83383  16.135  41.979   4.577
11058W        W83384  32.498  21.631   0.358
11059W        W83385   3.871  31.953   0.196
11060W        W83386   8.644   2.470   3.149
11061W        W83387  22.765  27.092   2.383
11062W        W83388  16.327  30.413  12.023
11063W        W83389  12.067  23.443   1.761
11064W        W83390  39.312  17.166   3.087
11065W        W83391  30.981   6.540   4.133
11066W        W83392  18.553  12.094   4.217
11067W        W83393  23.271  36.906  14.411
11068W        W83394  14.189  37.852   3.120
11069W        W83395  18.730  20.595  14.229
11070W        W83396  22.226  14.854   0.292
11071W        W83397  31.342  26.180   3.275
11072W        W83398  19.045  25.861   3.494
11073W        W83399  41.866  39.334  11.711
11074W        W83400   1.027   0.030  12.054
11075W        W83401  38.916   4.673   2.128
11076W        W83402  14.774  28.746   3.684
11077W        W83403  19.286  36.640   1.001
11078W        W83404  36.061  40.417   1.729
11079W        W83405  18.865  33.569  13.830
11080W        W83406   7.198  41.202   1.451
11081W        W83407  27.150  19.782  12.458
11082W        W83408  42.853  12.830  13.535
11083W        W83409  32.016   6.405   0.008
11084W        W83410   3.997  11.237   2.327
11085W        W83411  21.236  27.149   2.290
11086W        W83412  39.920  30.114   0.178
11087W        W83413   6.284  40.309   9.992
11088W        W83414  30.093  27.654   4.080
11089W        W83415  42.320  14.255  10.849
11090W        W83416  23.232  13.213  11.749
11091W        W83417  23.927   1.490  14.990
11092W        W83418  12.399  12.849   2.448
11093W        W83419  42.422  21.750  13.568
11094W        W83420  33.918  26.312  12.403
11095W        W83421  19.556  29.658  12.399
11096W        W83422  41.494  18.511  14.853
11097W        W83423   2.204  31.921   0.335
11098W        W83424  19.462  36.028  11.464
11099W        W83425  33.034   4.835  13.572
11100W        W83426  31.976  15.817   0.755
11101W        W83427  39.440  14.299   5.084
11102W        W83428   8.915  44.898   2.070
11103W        W83429  31.865  25.244  14.544
11104W        W83430   1.513   2.845   4.665
11105W        W83431  36.180   1.166   1.694
11106W        W83432  16.418  10.235  10.974
11107W        W83433   3.340   3.604  11.242
11108W        W83434  36.199   3.729  11.979
11109W        W83435  32.574   6.448   0.222
11110W        W83436  41.557   7.802  13.216
11111W        W83437  34.853  38.008   0.877
11112W        W83438  34.344   3.366   0.703
11113W        W83439  26.343  28.174   1.376
11114W        W83440  33.436  44.811   3.853
11115W        W83441  12.077   7.901  14.978
11116W        W83442  43.933  27.120   1.810
11117W        W83443   1.930  25.077   0.121
11118W        W83444  37.147  21.077   1.692
11119W        W83445  34.803  29.160   2.376
11120W        W83446  43.024  40.001  11.378
11121W        W83447  28.790  11.588   1.790
11122W        W83448  28.408   8.336   0.610
11123W        W83449  18.626  19.462   3.084
11124W        W83450   8.330  32.501   0.363
11125W        W83451  27.175  16.356   2.891
11126W        W83452  16.718  12.446   4.225
11127W        W83453  31.630  28.170  12.078
11128W        W83454  14.556  26.336  14.443
11129W        W83455  14.338  29.577   3.163
11130W        W83456   7.274  21.127  10.775
11131W        W83457  32.490   4.776  12.880
11132W        W83458  30.914  28.498  12.514
11133W        W83459  23.030  29.963  10.971
11134W        W83460  34.852  16.485  13.691
11135W        W83461  29.460  26.310  12.662
11136W        W83462  26.316  15.376   3.018
11137W        W83463  34.225  37.286   1.912
11138W        W83464  22.568  40.303  10.211
11139W        W83465  22.180  29.999   2.577
11140W        W83466  25.177  11.787   4.663
11141W        W83467  41.172  36.478   5.050
11142W        W83468  33.690   3.641  11.118
11143W        W83469   3.979  36.996   2.203
11144W        W83470   4.182  34.850   0.031
11145W        W83471  16.761  12.708   3.789
11146W        W83472   7.561  42.339  11.551
11147W        W83473  32.097  19.674   0.029
11148W        W83474   0.995  32.190   3.690
11149W        W83475  38.940  14.345  10.696
11150W        W83476  30.167  17.085  10.699
11151W        W83477  36.616  32.928   0.743
11152W        W83478  15.249  22.697   2.693
11153W        W83479  28.727  20.192  11.039
11154W        W83480  40.074  34.742   2.674
11155W        W83481  21.956  16.302   1.558
11156W        W83482  21.270  40.972   1.843
11157W        W83483   2.928  35.448  11.478
11158W        W83484  40.108  20.538  14.025
11159W        W83485  23.293   4.969   2.328
11160W        W83486   7.139   8.725   4.982
11161W        W83487   8.164  44.321   0.291
11162W        W83488  21.173  18.190   0.475
11163W        W83489   8.951  40.335   1.765
11164W        W83490  31.652  38.084  12.393
11165W        W83491  21.771   4.357   4.316
11166W        W83492  33.953   3.028   0.853
11167W        W83493  32.017  21.558   2.863
11168W        W83494  32.971  29.363   0.076
11169W        W83495   2.810  19.584   2.344
11170W        W83496  15.660   9.617  11.657
11171W        W83497  27.043  44.123   1.209
11172W        W83498  17.072  17.647  10.505
11173W        W83499  41.247   2.030   3.748
11174W        W83500  24.245  20.070   2.411
11175W        W83501  14.914  23.781  12.861
11176W        W83502  36.484  24.882   1.859
11177W        W83503  37.157   6.417  11.541
11178W        W83504  37.499   1.764   1.188
11179W        W83505  18.101  37.162  10.685
11180W        W83506  29.529  21.648  10.571
11181W        W83507  18.727  26.033  12.838
11182W        W83508  31.568  20.685   4.579
11183W        W83509  15.611   2.359   0.438
11184W        W83510  38.572   4.298   1.190
11185W        W83511  26.368  31.907   3.268
11186W        W83512  27.496  39.145   3.093
11187W        W83513  29.112  20.223   4.705
11188W        W83514  14.676  16.121   2.311
11189W        W83515  41.007  36.052  11.658
11190W        W83516  18.561   9.874   3.332
11191W        W83517  10.801  31.593  11.150
11192W        W83518  23.599   3.312   3.610
11193W        W83519  42.260  33.662   2.297
11194W        W83520  32.658  13.673   3.773
11195W        W83521  26.500  17.972   0.351
11196W        W83522  34.754   6.752  10.745
11197W        W83523  20.569   7.442   1.870
11198W        W83524   3.227  26.441  12.394
11199W        W83525  13.230  14.878   3.801
11200W        W83526   5.651  40.346   1.802
11201W        W83527  30.863  22.561  11.125
11202W        W83528  32.084  44.840  13.955
11203W        W83529  12.234  10.196   0.439
11204W        W83530   2.858  15.780   1.635
11205W        W83531   7.501  12.737  13.575
11206W        W83532  44.797  10.161  14.490
11207W        W83533   7.418  25.950   3.261
11208W        W83534   8.340  23.828  10.706
11209W        W83535   3.432  44.753  12.023
11210W        W83536  14.714  24.275  12.005
11211W        W83537  17.981   9.533  11.909
11212W        W83538  31.934  40.925   3.147
11213W        W83539  13.091  20.533  11.556
11214W        W83540   1.659   0.795  14.042
11215W        W83541  31.612   7.429  13.419
11216W        W83542  40.461  21.119  12.666
11217W        W83543  31.608  27.522   2.783
11218W        W83544  29.588  35.779  11.651
11219W        W83545  20.527  17.102   1.209
11220W        W83546  42.413  19.871   4.923
11221W        W83547  20.377  12.126  11.595
11222W        W83548  21.990  24.014   4.556
11223W        W83549  16.385  38.360   2.252
11224W        W83550  32.491  42.945  11.108
11225W        W83551  21.335  42.274   4.709
11226W        W83552  29.136  30.688   2.820
11227W        W83553  17.253   7.772   2.336
11228W        W83554  13.217  44.690   3.265
11229W        W83555  39.524  12.178  12.072
11230W        W83556  36.468  22.997   2.497
11231W        W83557   0.032  42.850   2.346
11232W        W83558  27.912  12.789   4.079
11233W        W83559  29.485  29.878   4.678
11234W        W83560  25.594   1.284  13.543
11235W        W83561   2.982  44.512   0.130
11236W        W83562  25.351  18.329   1.442
11237W        W83563   9.632  43.350  13.436
11238W        W83564   8.353  31.504  12.936
11239W        W83565  24.614  34.436  12.039
11240W        W83566  28.022  28.194  12.564
11241W        W83567  12.345  14.103   2.817
11242W        W83568  28.212  13.191   3.258
11243W        W83569  14.399  36.452   2.664
11244W        W83570  41.445   9.306  10.699
11245W        W83571  27.557  27.960  12.415
11246W        W83572  21.569   2.855   0.545
11247W        W83573  17.280  40.828  10.480
11248W        W83574  35.530  34.428  12.124
11249W        W83575  43.041  25.069  13.992
11250W        W83576  38.842   2.274   3.572
11251W        W83577  36.349   3.633   3.606
11252W        W83578   2.400  29.796  13.121
11253W        W83579   1.154   9.741   0.814
11254W        W83580  41.053  41.074  11.651
11255W        W83581  36.454   2.503  11.512
11256W        W83582  24.199  33.514  14.813
11257W        W83583  33.189  30.656   3.780
11258W        W83584  30.667  18.079  11.014
11259W        W83585  17.132  30.613  12.139
11260W        W83586  21.468  22.129   3.161
11261W        W83587  24.408  34.805   1.291
11262W        W83588  33.568  37.002   1.492
11263W        W83589  38.353  19.149  13.840
11264W        W83590  10.062  30.097  13.912
11265W        W83591   8.602  40.295  11.663
11266W        W83592  31.628   5.740   3.206
11267W        W83593  12.425  14.341  10.565
11268W        W83594   5.225  35.616   2.951
11269W        W83595  12.794  42.045  11.258
11270W        W83596   9.365  19.634  11.132
11271W        W83597  19.135  11.299   3.261
11272W        W83598  41.979   4.834   0.417
11273W        W83599  14.708  33.110   4.441
11274W        W83600   6.562   1.431   1.337
11275W        W83601  13.650   0.472  14.331
11276W        W83602  30.522  17.684   3.679
11277W        W83603  22.099  41.106   2.015
11278W        W83604  28.143  27.178   2.215
11279W        W83605  16.606  10.904   0.998
11280W        W83606  25.289   2.842  12.506
11281W        W83607   1.929   9.166  11.136
11282W        W83608   9.591  17.691   1.052
11283W        W83609   7.828  16.729   0.343
11284W        W83610  34.533  40.333  11.649
11285W        W83611  12.860  14.292  11.998
11286W        W83612   3.819  10.432  12.507
11287W        W83613  11.424   5.221  14.602
11288W        W83614  21.148  13.357   2.709
11289W        W83615   8.724  21.788  14.323
11290W        W83616  29.092  27.458  14.960
11291W        W83617  25.485  37.536   1.400
11292W        W83618  27.650  42.272   0.950
11293W        W83619   2.279  20.487   3.795
11294W        W83620  19.917  39.714  14.870
11295W        W83621   2.172  44.012   2.302
11296W        W83622  42.285   1.703  11.620
11297W        W83623  21.621  24.954  13.558
11298W        W83624   4.933  11.518   2.130
11299W        W83625  19.313  10.649  11.549
11300W        W83626  28.981  14.702   3.320
11301W        W83627  28.652  42.517  12.960
11302W        W83628   3.951  44.712   2.792
11303W        W83629   2.475   4.691   2.320
11304W        W83630  18.227  44.510  14.591
11305W        W83631   3.435  17.250  10.997
11306W        W83632  11.399  26.727  12.112
11307W        W83633  14.142  27.797   3.714
11308W        W83634  43.688  25.597  13.105
11309W        W83635  22.981  20.076   0.386
11310W        W83636  30.059   8.859  12.522
11311W        W83637  15.850   8.833  10.241
11312W        W83638  18.486  29.600  11.419
11313W        W83639  41.953  15.189   4.796
11314W        W83640  31.545  23.964   4.541
11315W        W83641  17.125  39.510  12.908
11316W        W83642  38.709   1.140  11.233
11317W        W83643  12.774  15.811   1.824
11318W        W83644  14.864  33.557   0.841
11319W        W83645  38.344  27.005  10.579
11320W        W83646  29.698   4.309   4.537
11321W        W83647  33.864  17.622   0.845
11322W        W83648  43.819  21.196  14.839
11323W        W83649   4.804  40.055   0.817
11324W        W83650  34.975  15.228  14.150
11325W        W83651  25.999   8.686  12.237
11326W        W83652   0.486  31.125   4.296
11327W        W83653   9.135  27.694   0.957
11328W        W83654  28.998  44.096  14.842
11329W        W83655  10.881  13.127  10.820
11330W        W83656  11.346  22.456  12.386
11331W        W83657   6.467  29.171  13.538
11332W        W83658  41.551  24.516  13.383
11333W        W83659  15.858   3.193   1.457
11334W        W83660  15.768  31.205  11.179
11335W        W83661  24.510   9.962   3.648
11336W        W83662  32.592  32.262   1.783
11337W        W83663   4.134  39.915   1.709
11338W        W83664  11.275  28.928  11.036
11339W        W83665  25.164   4.161   3.442
11340W        W83666   4.359  26.155  11.674
11341W        W83667  21.557  12.581   0.468
11342W        W83668   1.459  16.206  10.993
11343W        W83669  37.774  13.295   5.057
11344W        W83670  25.473  18.734  11.481
11345W        W83671   0.788  20.847   3.713
11346W        W83672  13.697  35.934   3.888
11347W        W83673  19.402  36.594   4.976
11348W        W83674  28.657  22.782  11.582
11349W        W83675  12.278  41.045   1.750
11350W        W83676  41.019  33.862   4.613
11351W        W83677  40.112  41.354   2.223
11352W        W83678  30.056  44.040   3.404
11353W        W83679  22.707  27.722  12.028
11354W        W83680  18.116  16.278  11.445
11355W        W83681  12.813  41.360  12.533
11356W        W83682  40.010  18.477   0.911
11357W        W83683  39.410  36.049  14.863
11358W        W83684  27.153   5.712  13.748
11359W        W83685  19.754  41.717   3.299
11360W        W83686  32.426  10.813   3.822
11361W        W83687  35.135  28.978   3.223
11362W        W83688  20.596   4.010  12.377
11363W        W83689   2.277  19.970   3.755
11364W        W83690   7.745  21.498  12.273
11365W        W83691  24.311  35.695   1.273
11366W        W83692   5.722  12.281  11.658
11367W        W83693  21.717  32.992  12.642
11368W        W83694  11.660   3.132   1.862
11369W        W83695  13.169  34.906   0.727
11370W        W83696  40.936  25.579  10.585
11371W        W83697  26.388  36.687  11.383
11372W        W83698  39.020   3.783   4.576
11373W        W83699  22.732  28.651   4.265
11374W        W83700  11.206   6.032   4.583
11375W        W83701  31.028  29.008  10.697
11376W        W83702  44.231  18.264   2.427
11377W        W83703  27.154  12.765  13.987
11378W        W83704  18.997  26.339   0.362
11379W        W83705  10.001  25.525   4.330
11380W        W83706  27.226  20.270   2.300
11381W        W83707  14.259  16.982   2.245
11382W        W83708  18.221   7.348   0.026
11383W        W83709   9.604   7.320  11.572
11384W        W83710  31.046  24.274   4.679
11385W        W83711  29.350   2.695   4.128
11386W        W83712  27.020  39.120   1.796
11387W        W83713  27.115  33.856  10.712
11388W        W83714   0.821  17.309  10.846
11389W        W83715  30.964  12.203   0.750
11390W        W83716  11.917  17.236  12.858
11391W        W83717  38.234  37.102  11.920
11392W        W83718  34.085   0.556  14.705
11393W        W83719  22.688   1.290  10.943
11394W        W83720  21.287  26.070  11.473
11395W        W83721  24.584   0.825   2.617
11396W        W83722  31.027  37.445   1.366
11397W        W83723  11.309  27.523  10.259
11398W        W83724   8.514  34.206   1.816
11399W        W83725  38.309  37.013   3.703
11400W        W83726  13.127  41.614   4.886
11401W        W83727  35.550  27.005  12.884
11402W        W83728  17.835  19.196  14.001
11403W        W83729   8.022  43.668   3.457
11404W        W83730  44.869  39.860  12.603
11405W        W83731   6.938  10.228   0.830
11406W        W83732  25.353  29.315   5.173
11407W        W83733  12.080  37.101   4.356
11408W        W83734   8.612  36.920   0.682
11409W        W83735   2.922  27.553  14.968
11410W        W83736  34.118  30.006  14.868
11411W        W83737   3.397  13.584  11.237
11412W        W83738  39.738  32.061  13.787
11413W        W83739  32.603  29.884   0.326
11414W        W83740  40.995  15.538   2.604
11415W        W83741  13.182  42.025   0.247
11416W        W83742  11.488  34.692  13.794
11417W        W83743   2.800   1.546  10.317
11418W        W83744  24.040  22.522   4.639
11419W        W83745  32.409  15.500   2.909
11420W        W83746  34.520  40.964   2.226
11421W        W83747  33.402  19.521   3.281
11422W        W83748  36.373  34.292   3.312
11423W        W83749   2.655  38.582   1.929
11424W        W83750   9.275  39.462  14.340
11425W        W83751  39.022   7.873  12.176
11426W        W83752  34.467  18.744   0.295
11427W        W83753  15.700  17.615  14.332
11428W        W83754  23.149  20.627   2.045
11429W        W83755  36.877  13.925   0.932
11430W        W83756   2.349   5.115   5.291
11431W        W83757  37.967   3.639  13.959
11432W        W83758  10.601  13.496   3.813
11433W        W83759   8.615  44.945  11.030
11434W        W83760   0.740   7.643  12.975
11435W        W83761   7.810  11.425  14.236
11436W        W83762  26.032  16.876  13.409
11437W        W83763   0.945  40.385  14.537
11438W        W83764  10.358  22.281   0.886
11439W        W83765  40.938  43.975  12.451
11440W        W83766  17.330  28.407  12.419
11441W        W83767  12.380   5.950   1.938
11442W        W83768   4.486   6.174   1.263
11443W        W83769  13.472  10.535  11.513
11444W        W83770  23.731  19.677   4.730
11445W        W83771  37.482   2.416   4.625
11446W        W83772  23.972  23.977   3.690
11447W        W83773  11.249   1.644   2.818
11448W        W83774  28.724   7.764   0.862
11449W        W83775   3.499   2.500  12.532
11450W        W83776  35.925   0.060   3.168
11451W        W83777  20.515  26.127   0.395
11452W        W83778  27.682   5.278  11.922
11453W        W83779   3.949  38.974  13.446
11454W        W83780  19.930  33.301   4.617
11455W        W83781  39.599   7.418   1.849
11456W        W83782   1.937  29.780   0.949
11457W        W83783  23.519   6.210   2.554
11458W        W83784  20.335  29.339   0.408
11459W        W83785  44.886   2.840  11.133
11460W        W83786  36.428  34.195   4.118
11461W        W83787   0.400  14.128  14.601
11462W        W83788  30.951  39.712  10.907
11463W        W83789   0.713   4.019  11.620
11464W        W83790  15.619   1.754  10.138
11465W        W83791   6.117   8.311  12.074
11466W        W83792  40.086  21.010  13.793
11467W        W83793  31.671  42.827   2.372
11468W        W83794  18.049  15.709   2.797
11469W        W83795  21.183  36.862   4.796
11470W        W83796  30.619  22.741  10.711
11471W        W83797  17.739   9.406  11.132
11472W        W83798   6.261  32.817   1.934
11473W        W83799  11.839  33.010   1.537
11474W        W83800  13.670  10.632   0.084
11475W        W83801   1.386  44.152  10.821
11476W        W83802  38.496   4.778   2.902
11477W        W83803   8.230  42.010   0.479
11478W        W83804  15.056   3.431  11.734
11479W        W83805  32.359  33.196  12.807
11480W        W83806  32.004   7.440   9.918
11481W        W83807  31.745  23.384  10.510
11482W        W83808  22.721  12.774   2.615
11483W        W83809  19.322  10.315  14.953
11484W        W83810   4.227  19.196   3.369
11485W        W83811  28.527  31.603   0.002
11486W        W83812  41.426  20.584  11.108
11487W        W83813  24.033  12.364  13.385
11488W        W83814  15.223  19.525  13.531
11489W        W83815  35.078  33.131   9.569
11490W        W83816  38.423  36.318  14.907
11491W        W83817  31.663  22.778   2.193
11492W        W83818  44.025  31.483  10.575
11493W        W83819  11.620  16.020  13.952
11494W        W83820   3.889  32.905   0.650
11495W        W83821   8.037   8.747   4.623
11496W        W83822  15.121  17.272  11.653
11497W        W83823  17.753  19.584  12.972
11498W        W83824  36.883  28.097   0.144
11499W        W83825  38.374  26.430  14.382
11500W        W83826  17.829  19.872   1.865
11501W        W83827   1.245  39.317   3.263
11502W        W83828  11.330  17.592  11.275
11503W        W83829  36.839  33.853   3.684
11504W        W83830   8.947  26.090  12.401
11505W        W83831  22.601   2.837   3.252
11506W        W83832  11.775  14.817   3.243
11507W        W83833  23.082   7.608  12.494
11508W        W83834  25.887  16.723  13.910
11509W        W83835  19.731  40.982  13.451
11510W        W83836   2.910  29.621   4.107
11511W        W83837  18.712  33.555   0.155
11512W        W83838  29.133  14.316   4.620
11513W        W83839  39.851  44.468   1.838
11514W        W83840   2.392  22.571  10.281
11515W        W83841  24.250  41.467   0.386
11516W        W83842  40.992   0.866   4.776
11517W        W83843   5.814  13.405   2.408
11518W        W83844   2.830  23.987  13.873
11519W        W83845  36.346  10.454  12.277
11520W        W83846  22.493  17.350  13.395
11521W        W83847  38.656  23.014  14.446
11522W        W83848   5.352  41.458   2.351
11523W        W83849  23.027  20.722  12.494
11524W        W83850   0.168  41.522   2.259
11525W        W83851  36.589  14.626  14.263
11526W        W83852  39.065   6.752   2.889
11527W        W83853  40.177  37.358   1.460
11528W        W83854  39.255  40.872   3.340
11529W        W83855   9.408  38.597   4.100
11530W        W83856  35.030  43.259   1.347
11531W        W83857  31.045  18.699  14.902
11532W        W83858  40.114  19.850  12.939
11533W        W83859  40.953  20.716  14.817
11534W        W83860  26.736   9.173  12.616
11535W        W83861  21.039  43.564  13.405
11536W        W83862  15.303   6.528  13.316
11537W        W83863  41.857   4.707   3.710
11538W        W83864  39.918   0.489  11.203
11539W        W83865  13.304  40.605   0.906
11540W        W83866   4.626  32.103   0.901
11541W        W83867  25.958   3.221   2.336
11542W        W83868  39.884  10.828  13.898
11543W        W83869   0.748  26.750  14.104
11544W        W83870   0.083  35.292   0.903
11545W        W83871  38.473  23.069   2.316
11546W        W83872  37.057   8.677   1.369
11547W        W83873  13.330  26.049   2.396
11548W        W83874  19.506  27.100   0.690
11549W        W83875   6.855   3.009  10.454
11550W        W83876  12.410  32.534   3.164
11551W        W83877   6.184  30.186   3.348
11552W        W83878   8.837   5.414   0.941
11553W        W83879  30.885  16.149  11.951
11554W        W83880  27.647   1.427   0.754
11555W        W83881  11.909   5.479  12.974
11556W        W83882  39.402  21.112  10.674
11557W        W83883  13.109   3.804  10.687
11558W        W83884  28.099  28.467  11.116
11559W        W83885  43.569   3.438   1.212
11560W        W83886  10.116  15.961   0.485
11561W        W83887  44.906  16.163   1.289
11562W        W83888  18.514  37.083   0.974
11563W        W83889  11.625  44.212   1.785
11564W        W83890  17.310  42.102  10.185
11565W        W83891  21.714  44.780  11.587
11566W        W83892  43.542  43.961  12.585
11567W        W83893  44.188   8.152   1.283
11568W        W83894   7.640  12.631  11.581
11569W        W83895  14.816  30.903  10.814
11570W        W83896  13.913   6.293   2.806
11571W        W83897   8.708  10.581   4.200
11572W        W83898  39.326  25.370  10.694
11573W        W83899  27.603   9.591  13.022
11574W        W83900  43.379   9.927  10.709
11575W        W83901  38.875   6.644   0.831
11576W        W83902  34.377  33.608  11.498
11577W        W83903   9.728  32.452   4.222
11578W        W83904   9.533   0.345  11.570
11579W        W83905  32.342  17.672   1.828
11580W        W83906  43.281   8.321   4.275
11581W        W83907  31.547  30.973  12.017
11582W        W83908  43.868  25.965   0.893
11583W        W83909   9.134  27.728  11.876
11584W        W83910   5.587  16.251  14.274
11585W        W83911  38.372  43.822   2.793
11586W        W83912  36.522  22.167   1.171
11587W        W83913  31.048   6.390   5.118
11588W        W83914  29.376   4.004   2.559
11589W        W83915  41.079   6.154  12.466
11590W        W83916  22.261  23.457  14.014
11591W        W83917  17.215   9.901   4.637
11592W        W83918  23.562  24.117   2.413
11593W        W83919  20.743   4.998   3.692
11594W        W83920  15.228   3.364   2.263
11595W        W83921  30.019  20.670  10.708
11596W        W83922   7.880  43.319  11.514
11597W        W83923   6.661  24.062  14.294
11598W        W83924  33.631  23.488   1.417
11599W        W83925   8.342  11.844  13.741
11600W        W83926  41.010  21.584  14.214
11601W        W83927  34.089   3.174   3.358
11602W        W83928   3.845   7.073  12.553
11603W        W83929  28.668  26.037   5.736
11604W        W83930  18.188  43.445  14.316
11605W        W83931   1.600   9.646   4.549
11606W        W83932  22.012  33.476  11.478
11607W        W83933   2.016  37.973   1.479
11608W        W83934   4.716  39.977   2.579
11609W        W83935  33.029  24.746   2.316
11610W        W83936  38.343  16.054  14.814
11611W        W83937  18.942  12.649   4.855
11612W        W83938  39.711  41.368  10.741
11613W        W83939  12.131   2.716   3.629
11614W        W83940  28.022  23.012  12.575
11615W        W83941   1.687  38.101  11.915
11616W        W83942   5.484  31.990   3.322
11617W        W83943  14.841  28.472   0.902
11618W        W83944   2.370  21.554   2.116
11619W        W83945   7.438  40.349   1.430
11620W        W83946   7.798  18.686   3.664
11621W        W83947  28.986  40.371   4.370
11622W        W83948  37.226   7.353   3.166
11623W        W83949  21.763   0.091  14.864
11624W        W83950  17.285   6.425   1.928
11625W        W83951  43.809   8.983   4.850
11626W        W83952  10.194  30.379   1.342
11627W        W83953   5.321  36.378   0.175
11628W        W83954  38.335  27.030  12.440
11629W        W83955  24.736   1.769  12.501
11630W        W83956  27.042  35.607   1.436
11631W        W83957  22.403  10.558   2.021
11632W        W83958  40.059  32.003   1.640
11633W        W83959  40.294  17.836  12.544
11634W        W83960   4.175  30.224   2.197
11635W        W83961  19.612   7.782   3.331
11636W        W83962  38.032   7.716   3.056
11637W        W83963  17.211   2.866   1.246
11638W        W83964   1.210  26.331   2.198
11639W        W83965  10.721  33.677   4.252
11640W        W83966  10.405  36.116  11.206
11641W        W83967  34.007  12.947   0.385
11642W        W83968  27.731  34.442   3.639
11643W        W83969  13.091  23.597   1.759
11644W        W83970  22.221  44.190   3.236
11645W        W83971  24.164   7.410   2.740
11646W        W83972  35.957   8.665   1.340
11647W        W83973   6.849   9.606   2.759
11648W        W83974   3.356  38.381  11.655
11649W        W83975  31.465  13.638  11.905
11650W        W83976  32.266   5.522  12.440
11651W        W83977  26.165  43.478  14.956
11652W        W83978  13.827  23.208  11.960
11653W        W83979  11.796  23.317   0.929
11654W        W83980  22.016  27.103   1.686
11655W        W83981  31.013  37.822   2.888
11656W        W83982  42.757  33.582   0.368
11657W        W83983   0.746   1.682   4.082
11658W        W83984  13.362  36.582   0.154
11659W        W83985  11.742  29.176  11.059
11660W        W83986   0.376   5.833   0.307
11661W        W83987  31.602  36.484   3.779
11662W        W83988  19.693  37.894   3.215
11663W        W83989  38.974  30.541   1.908
11664W        W83990  15.713  29.254  12.407
11665W        W83991  16.694   2.140  12.586
11666W        W83992  20.783  38.644  12.943
11667W        W83993  32.144  13.381  12.917
11668W        W83994  43.067  24.782  14.992
11669W        W83995  40.139  28.147   3.592
11670W        W83996  20.685  14.157  11.549
11671W        W83997   3.467  44.322   2.790
11672W        W83998   4.661  13.011  14.798
11673W        W83999  24.651  41.583  14.483
11674W        W84000  16.248  34.029  13.935
11675W        W84001   8.109  21.514   1.224
11676W        W84002  41.030   9.577  10.545
11677W        W84003   8.922  33.856   4.911
11678W        W84004  42.642  29.927   2.713
11679W        W84005  27.032  39.803   0.900
11680W        W84006  30.994  38.229   5.098
11681W        W84007  11.296  41.461   3.767
11682W        W84008  34.070  12.092  13.565
11683W        W84009  41.309  15.852  13.999
11684W        W84010  18.438  34.709   0.428
11685W        W84011  22.802  39.774  10.576
11686W        W84012  39.091  31.327  11.507
11687W        W84013   8.793  26.243   2.463
11688W        W84014  43.086   0.511  12.059
11689W        W84015  44.756   8.416  11.846
11690W        W84016  42.548  17.615  10.570
11691W        W84017  14.931   3.380   2.721
11692W        W84018   9.684  42.188   1.376
11693W        W84019  35.568  39.478   1.926
11694W        W84020  38.635  17.791  13.454
11695W        W84021  19.734  26.182  14.243
11696W        W84022  27.746  19.788  14.290
11697W        W84023  44.367  20.528   4.557
11698W        W84024  38.900  41.104   4.406
11699W        W84025  17.751  27.991  14.712
11700W        W84026  31.609  11.294  10.652
11701W        W84027  34.427  33.133   4.334
11702W        W84028  10.701  43.551  13.441
11703W        W84029   8.827   4.917  14.756
11704W        W84030  44.270  16.255  10.531
11705W        W84031   4.792   6.982  13.510
11706W        W84032  34.312  34.948   3.685
11707W        W84033   9.149  16.201   2.215
11708W        W84034   2.766   2.412  11.950
11709W        W84035  29.051  33.530  10.630
11710W        W84036  15.850  14.142  14.399
11711W        W84037  32.102  31.121  12.091
11712W        W84038  34.422  36.468  11.061
11713W        W84039   5.943  23.752   0.951
11714W        W84040  39.369  43.245   1.073
11715W        W84041  35.476  43.025  12.018
11716W        W84042  26.220  24.572  11.169
11717W        W84043  20.287  39.945  13.847
11718W        W84044  24.346  10.888   2.801
11719W        W84045  11.213  20.521   4.204
11720W        W84046   5.650  25.590  13.438
11721W        W84047  30.467  34.445   4.744
11722W        W84048   3.049  14.198   5.118
11723W        W84049   3.828  16.433   0.312
11724W        W84050  30.173   2.008  13.436
11725W        W84051  33.631  10.273   1.002
11726W        W84052  21.772  36.471   3.445
11727W        W84053   6.074  18.064  14.462
11728W        W84054  10.256  41.907  13.046
11729W        W84055   6.900  23.050  12.083
11730W        W84056   0.400  28.000  12.724
11731W        W84057  27.581   2.973   3.684
11732W        W84058  31.096   1.329  13.543
11733W        W84059  26.455   0.886   0.206
11734W        W84060  39.889  17.974   4.594
11735W        W84061   5.325  10.276   1.620
11736W        W84062   9.360  19.118   1.679
11737W        W84063  42.939  42.904  12.838
11738W        W84064   8.515   7.852   2.210
11739W        W84065  27.185  20.708  14.417
11740W        W84066  16.514  21.589  13.016
11741W        W84067   7.156  10.231  10.552
11742W        W84068   5.036  38.325  12.996
11743W        W84069  44.740  34.011  12.458
11744W        W84070  43.896  35.359  13.345
11745W        W84071  16.783  39.046   3.195
11746W        W84072   3.731  12.819  12.339
11747W        W84073  43.773  30.564  10.716
11748W        W84074  11.278  17.228  12.099
11749W        W84075  19.420  33.889  13.088
11750W        W84076   8.817  41.921   4.463
11751W        W84077  28.569   6.557  12.597
11752W        W84078  23.491  12.795  12.028
11753W        W84079  19.583  21.890   0.145
11754W        W84080  19.854  28.382   0.036
11755W        W84081  10.774  19.867   4.940
11756W        W84082  16.068  17.382  14.648
11757W        W84083  31.189   1.266  11.153
11758W        W84084  11.268  36.076   4.263
11759W        W84085  37.562  36.949  10.745
11760W        W84086   7.316  42.339  14.743
11761W        W84087  16.836  18.737  12.880
11762W        W84088  18.524  43.942  11.960
11763W        W84089  28.643  14.599  13.391
11764W        W84090  26.968  22.502  14.506
11765W        W84091  13.589  38.417  14.275
11766W        W84092  22.993   2.229  11.561
11767W        W84093  14.256   9.587   3.665
11768W        W84094  39.344  18.627   4.493
11769W        W84095  43.969  33.139   1.137
11770W        W84096  19.466  29.467   2.360
11771W        W84097  34.211  12.859   3.771
11772W        W84098  32.559  21.204   2.193
11773W        W84099  21.786  43.263   3.938
11774W        W84100  14.579   9.762  12.958
11775W        W84101  26.275  16.346  10.003
11776W        W84102  38.891  16.522  10.680
11777W        W84103   5.545  11.652   4.543
11778W        W84104  29.088  25.933   3.482
11779W        W84105  30.720  39.478   0.339
11780W        W84106  31.133  29.575  13.726
11781W        W84107  39.360   7.179   2.872
11782W        W84108  27.461  37.480  13.497
11783W        W84109   3.793  24.916  10.613
11784W        W84110  32.465  22.472  14.246
11785W        W84111   7.799   5.627  11.052
11786W        W84112  15.352   1.990   0.782
11787W        W84113   0.956  25.151  10.923
11788W        W84114  27.117  33.439  11.033
11789W        W84115  30.560  26.220   2.791
11790W        W84116   7.649   3.197  12.008
11791W        W84117  12.321  27.903  14.444
11792W        W84118  28.251  36.336  12.410
11793W        W84119  15.010  24.361  11.559
11794W        W84120  20.703  34.478   3.251
11795W        W84121  11.334  21.657   3.448
11796W        W84122  37.382  41.569  10.911
11797W        W84123  14.582  43.173  14.343
11798W        W84124   0.439   4.350   2.877
11799W        W84125  25.690  17.197   2.769
11800W        W84126  16.550  21.713  11.556
11801W        W84127   2.990  35.569  12.866
11802W        W84128  11.164  43.893   4.525
11803W        W84129  34.852  20.810  12.383
11804W        W84130   6.239  11.171  10.733
11805W        W84131  27.206  30.064  13.385
11806W        W84132  38.697  41.915   4.027
11807W        W84133  29.102  25.286  13.996
11808W        W84134   3.580  41.558  13.043
11809W        W84135  38.119  32.152   1.258
11810W        W84136  31.005  44.025   4.532
11811W        W84137  31.938  12.626  10.593
11812W        W84138  42.472  10.826  11.162
11813W        W84139  10.296   3.792  13.285
11814W        W84140  44.412  17.622   0.488
11815W        W84141   4.736  37.808   5.082
11816W        W84142  13.575  30.307  10.987
11817W        W84143  34.238  13.585   4.956
11818W        W84144  28.356  38.431   2.344
11819W        W84145   3.380   0.143   3.251
11820W        W84146  19.723   2.671  10.745
11821W        W84147  31.694  40.771   4.469
11822W        W84148  40.173  42.456  11.036
11823W        W84149  24.980   0.774   1.277
11824W        W84150  23.454  42.073  12.061
11825W        W84151  40.895  38.846  14.407
11826W        W84152  10.329   2.188  10.829
11827W        W84153  24.257  43.959  13.439
11828W        W84154  44.724   4.740  13.604
11829W        W84155  36.119  27.030  13.571
11830W        W84156   0.833  33.191  11.041
11831W        W84157   8.817  17.747   3.387
11832W        W84158  41.560   7.643  11.712
11833W        W84159  11.687   9.228  10.904
11834W        W84160  39.685  37.359   1.611
11835W        W84161   8.928  44.429  14.825
11836W        W84162  22.581  26.592   2.279
11837W        W84163  43.072  10.995  12.541
11838W        W84164  34.994  30.625   2.467
11839W        W84165  17.493  32.317   3.698
11840W        W84166   5.770  29.628   2.647
11841W        W84167  13.616  22.028   1.313
11842W        W84168  43.622  16.341   2.024
11843W        W84169  29.424  21.009  13.555
11844W        W84170  17.118  28.508  14.447
11845W        W84171  27.061   9.380  10.522
11846W        W84172  25.693  31.400   0.496
11847W        W84173  42.020   6.113  11.166
11848W        W84174   2.662   9.502  11.452
11849W        W84175  14.357  30.676  11.615
11850W        W84176  44.007  27.710  10.665
11851W        W84177  16.295  31.141   1.279
11852W        W84178  19.139  42.307   2.259
11853W        W84179  18.363  20.130   3.626
11854W        W84180  41.076  30.061   2.177
11855W        W84181  19.546  31.527  14.089
11856W        W84182  13.778  29.894  14.102
11857W        W84183  41.376  35.028  10.427
11858W        W84184  13.112   4.782   1.783
11859W        W84185  35.941  41.026  12.986
11860W        W84186  34.973  33.732   0.155
11861W        W84187  40.973  21.451   1.199
11862W        W84188  12.395  30.329   3.511
11863W        W84189  20.151  15.035   1.275
11864W        W84190  20.574  25.541   4.209
11865W        W84191   4.448  24.185   4.915
11866W        W84192   1.842   5.415  14.329
11867W        W84193  43.036  11.927   3.165
11868W        W84194   2.490  43.855  14.422
11869W        W84195   1.444  12.255  11.075
11870W        W84196   8.743  25.768   2.100
11871W        W84197  38.382   3.312  14.350
11872W        W84198  28.961   8.230  14.771
11873W        W84199   4.835   9.830   0.432
11874W        W84200  23.107   5.846  11.991
11875W        W84201  20.608  19.048  14.489
11876W        W84202  31.551   8.272  10.745
11877W        W84203  12.105  38.529  12.850
11878W        W84204  39.245   1.228  11.154
11879W        W84205  12.922  30.496  14.379
11880W        W84206   0.648   2.925   0.878
11881W        W84207  43.516  39.128   3.620
11882W        W84208  25.094  35.437   2.476
11883W        W84209  34.128   9.514  14.285
11884W        W84210  31.240  24.179  14.465
11885W        W84211   7.632   6.814   2.805
11886W        W84212   6.322  38.704  10.773
11887W        W84213  31.914   3.952   1.758
11888W        W84214  42.815  32.493   4.170
11889W        W84215  19.229   3.235  12.261
11890W        W84216  14.206  32.293   3.623
11891W        W84217  23.472   2.971  12.907
11892W        W84218  25.956   2.215  10.937
11893W        W84219  19.964  19.289  12.618
11894W        W84220  11.791  40.406  12.473
11895W        W84221  41.412  25.212   3.640
11896W        W84222  15.918  25.245  11.491
11897W        W84223  12.340  44.123   2.193
11898W        W84224  29.097   5.211   1.817
11899W        W84225  35.734  37.913   3.113
11900W        W84226  11.214  36.769  11.087
11901W        W84227  12.169   6.339   4.573
11902W        W84228  18.309  35.589  11.572
11903W        W84229  36.495   5.330   1.372
11904W        W84230  30.572  25.423   4.135
11905W        W84231  23.295  15.643   0.953
11906W        W84232  30.519  14.133  12.100
11907W        W84233  40.779  41.903  11.159
11908W        W84234   2.276  28.273  10.704
11909W        W84235  33.031  35.942  14.235
11910W        W84236  18.028  24.529   4.209
11911W        W84237  39.650  42.727   2.203
11912W        W84238  30.966  33.898   3.830
11913W        W84239  22.739   8.101   3.332
11914W        W84240  39.789   2.687   0.272
11915W        W84241   2.333   6.143  14.516
11916W        W84242  24.377  23.917   2.554
11917W        W84243  39.594  14.730   3.304
11918W        W84244  15.289  42.484   2.865
11919W        W84245  43.843  16.323  13.929
11920W        W84246  11.018  24.734  10.641
11921W        W84247  31.919   1.667   1.690
11922W        W84248   1.027  32.461  13.722
11923W        W84249  42.121   7.782  11.716
11924W        W84250  19.511  43.765  13.504
11925W        W84251  41.385  14.240  12.283
11926W        W84252   1.869  25.361  13.892
11927W        W84253  34.508   9.434   0.455
11928W        W84254  14.065  16.743   1.299
11929W        W84255  39.473   3.969  13.449
11930W        W84256  22.015  18.619  12.067
11931W        W84257  33.308  32.046  13.799
11932W        W84258  19.965   2.927   3.874
11933W        W84259   5.218  37.869   4.854
11934W        W84260   0.441  30.235   1.399
11935W        W84261  27.125  32.766  14.965
11936W        W84262   1.403  43.878   2.756
11937W        W84263  12.761   6.407  14.281
11938W        W84264   3.562  12.855   2.298
11939W        W84265  16.995  32.899  11.164
11940W        W84266  34.609  41.017  14.888
11941W        W84267  36.363  34.742  11.576
11942W        W84268  43.912  42.439  14.807
11943W        W84269  10.177   9.449   5.067
11944W        W84270  22.987  16.127   5.123
11945W        W84271  30.121  14.777  11.048
11946W        W84272  33.381  36.976  11.693
11947W        W84273  32.150  14.825   1.351
11948W        W84274   0.369  44.936   1.166
11949W        W84275  35.237  27.512   0.367
11950W        W84276  12.705  11.522   4.761
11951W        W84277  12.065  30.675   1.676
11952W        W84278   6.739  36.523  10.503
11953W        W84279  43.492   5.338   3.109
11954W        W84280  31.596   3.249  11.472
11955W        W84281  28.908  11.868   3.645
11956W        W84282   0.173  28.390   4.881
11957W        W84283   3.717  29.615  13.015
11958W        W84284  23.708   9.735   4.133
11959W        W84285  13.959  12.877   1.497
11960W        W84286  11.649  24.313  12.781
11961W        W84287   5.706   8.923  11.225
11962W        W84288  19.010  41.066   1.233
11963W        W84289  19.335  34.857  12.341
11964W        W84290  28.944  35.726   0.419
11965W        W84291  16.532  32.862  12.475
11966W        W84292  27.013  40.152  12.945
11967W        W84293  39.436  44.171   1.431
11968W        W84294   4.912  34.457   4.293
11969W        W84295  21.811   6.668  11.714
11970W        W84296  10.582  35.463   1.948
11971W        W84297  12.838   1.558  13.364
11972W        W84298   8.276  42.911  11.182
11973W        W84299  15.478  35.835  14.888
11974W        W84300  38.799  36.935   1.241
11975W        W84301   1.282   6.568  11.588
11976W        W84302  21.029  18.051  12.117
11977W        W84303   3.956  40.311   1.404
11978W        W84304  25.620   2.946   1.134
11979W        W84305  25.127  26.745   2.987
11980W        W84306  41.351  22.959  13.017
11981W        W84307  29.860  35.869   3.988
11982W        W84308  20.215  16.700  12.062
11983W        W84309  14.680  41.896   4.808
11984W        W84310  16.831  37.600   4.269
11985W        W84311   0.398   0.203   2.899
11986W        W84312  42.876  16.819   2.708
11987W        W84313  20.243  34.040  11.940
11988W        W84314  32.837  21.164  11.278
11989W        W84315   0.502  28.495  11.205
11990W        W84316  28.709  13.867  12.909
11991W        W84317  10.189  33.542   2.286
11992W        W84318  21.714  37.279   1.771
11993W        W84319  23.305  14.684  12.911
11994W        W84320  32.660   8.198   0.432
11995W        W84321  28.676  36.835   2.344
11996W        W84322  11.752  19.538  13.052
11997W        W84323  31.629  26.261  13.498
11998W        W84324  23.379  16.700  11.984
11999W        W84325  35.809  16.745   3.796
12000W        W84326   5.850  20.806   4.149
12001W        W84327  20.090  34.473   3.814
12002W        W84328  16.645   3.704  13.475
12003W        W84329  34.633  20.685  13.599
12004W        W84330  15.345   6.302   3.611
12005W        W84331  15.126  33.379  14.521
12006W        W84332  15.563  30.025  13.644
12007W        W84333   4.930  42.283   3.378
12008W        W84334   7.339  35.448  13.371
12009W        W84335  42.075   2.304   3.341
12010W        W84336  27.492  40.703  12.268
12011W        W84337   4.764  33.128  10.052
12012W        W84338  21.139  23.155  13.378
12013W        W84339  23.572  15.118   4.674
12014W        W84340  11.287   2.918  13.802
12015W        W84341  43.053   4.001  13.823
12016W        W84342   0.231  12.807  12.806
12017W        W84343   7.938  31.348   1.031
12018W        W84344  19.737  12.387  12.545
12019W        W84345  13.441  40.402  12.079
12020W        W84346  13.087   5.478  12.686
12021W        W84347  17.061  21.200   4.739
12022W        W84348  25.414  36.541  13.044
12023W        W84349  32.572  16.728   3.685
12024W        W84350  37.598  24.997  10.939
12025W        W84351  43.863   8.905  10.625
12026W        W84352  35.517  13.880   2.383
12027W        W84353  42.761  33.118  14.025
12028W        W84354  39.562  28.064   2.149
12029W        W84355  41.517  28.598  11.143
12030W        W84356  12.111  27.713   3.793
12031W        W84357  43.953  11.756  14.952
12032W        W84358  27.019  19.434   4.671
12033W        W84359  44.468  18.080   4.936
12034W        W84360  11.763  17.278   4.603
12035W        W84361  24.542  10.840  14.580
12036W        W84362  11.671  35.676  14.606
12037W        W84363  40.402   4.207   0.734
12038W        W84364  16.461  42.917   0.983
12039W        W84365  42.800  33.879   1.673
12040W        W84366  27.599   3.003  14.206
12041W        W84367  44.024  17.816  11.381
12042W        W84368  28.147   6.120  12.836
12043W        W84369  41.855   2.979   4.550
12044W        W84370   5.505  42.382   0.771
12045W        W84371  43.904  27.143  10.622
12046W        W84372  43.463   9.637   1.333
12047W        W84373  10.124  13.693   3.802
12048W        W84374  42.119  29.203   4.978
12049W        W84375  20.455   6.525   4.450
12050W        W84376  39.321  11.310   4.337
12051W        W84377  19.221  23.059  12.934
12052W        W84378  17.300   2.218  14.303
12053W        W84379  15.160  11.685   4.571
12054W        W84380  36.064  31.465   4.386
12055W        W84381  17.782  18.049  11.990
12056W        W84382  32.818   3.477  11.159
12057W        W84383  33.034  13.290   3.711
12058W        W84384   9.405   9.306   1.274
12059W        W84385   8.352   2.289  11.290
12060W        W84386  43.825   5.189   0.402
12061W        W84387  28.377  30.284   1.310
12062W        W84388  25.484  43.141   3.607
12063W        W84389  26.336  17.216   1.880
12064W        W84390  29.857  43.419   4.259
12065W        W84391  10.626  28.680   4.714
12066W        W84392  33.533  33.696  10.987
12067W        W84393  41.359  39.873  14.050
12068W        W84394  19.655  41.591   4.652
12069W        W84395  15.718   4.604   4.612
12070W        W84396  27.593  27.881  11.550
12071W        W84397   4.594   1.612   2.327
12072W        W84398  37.403  37.547   1.305
12073W        W84399  19.094  24.502  13.096
12074W        W84400  17.368  34.334  14.338
12075W        W84401  15.313   7.904  12.566
12076W        W84402   9.323  34.859  14.294
12077W        W84403  44.541  10.397  14.080
12078W        W84404  15.971  35.965  14.806
12079W        W84405  16.381  39.387  11.117
12080W        W84406  31.472   0.361   2.086
12081W        W84407  25.485  15.570  11.684
12082W        W84408   1.988  16.980   2.412
12083W        W84409  42.792  37.055   0.371
12084W        W84410  35.484   9.473   4.218
12085W        W84411  13.308  35.300  12.931
12086W        W84412  10.051   5.975   2.361
12087W        W84413  44.432  10.600  11.121
12088W        W84414  25.101   5.870  11.435
12089W        W84415  37.564  44.377   2.891
12090W        W84416  11.875  14.349  12.429
12091W        W84417  36.084  44.837  11.998
12092W        W84418  40.788  38.788  10.929
12093W        W84419  17.351   1.686  12.970
12094W        W84420  13.272   8.977   4.678
12095W        W84421  28.153  16.784  10.714
12096W        W84422  37.458  11.587   0.793
12097W        W84423  38.922  32.589   1.214
12098W        W84424  26.027  43.692   4.204
12099W        W84425  31.873  34.432  12.104
12100W        W84426  17.159   3.354   1.413
12101W        W84427  34.527  25.922   1.208
12102W        W84428   8.111  17.203  12.651
12103W        W84429  28.410  39.839   3.191
12104W        W84430   4.461  26.688   4.627
12105W        W84431  13.055  14.151   3.620
12106W        W84432  34.762  26.958  12.380
12107W        W84433  27.658   3.090   2.817
12108W        W84434  26.331  18.686  10.492
12109W        W84435  30.582  21.609   3.720
12110W        W84436  14.916  12.872   2.229
12111W        W84437  36.967   5.927  11.661
12112W        W84438  41.224  11.098   4.576
12113W        W84439  36.510   4.212  14.957
12114W        W84440  14.359  10.372  14.096
12115W        W84441  22.678  22.853   4.852
12116W        W84442  37.116  33.061   1.446
12117W        W84443  12.717  34.387   3.186
12118W        W84444  10.692  37.862  13.979
12119W        W84445  21.761   8.857   1.352
12120W        W84446   8.146  42.272  12.850
12121W        W84447  40.993  10.698  13.936
12122W        W84448  15.135  40.860   0.982
12123W        W84449   2.988  21.150  13.061
12124W        W84450  12.277  13.599  12.548
12125W        W84451  28.509  44.941  13.348
12126W        W84452  39.310  43.659   1.486
12127W        W84453  30.024  40.901  12.580
12128W        W84454  30.790  37.930  14.068
12129W        W84455  33.547  14.986   3.117
12130W        W84456   9.779  18.175   1.267
12131W        W84457   1.955  36.542   1.648
12132W        W84458   0.355  34.663  13.807
12133W        W84459  43.364  19.569   2.832
12134W        W84460  41.529   4.317   3.838
12135W        W84461  27.421  38.734  11.521
12136W        W84462  27.987  15.860   3.793
12137W        W84463   8.777  11.653   0.404
12138W        W84464  15.747  13.560   4.617
12139W        W84465  28.655  32.043   0.917
12140W        W84466  23.699  39.852  14.902
12141W        W84467  24.330  40.955   1.972
12142W        W84468   2.912  38.172  11.531
12143W        W84469  31.181  23.238  10.618
12144W        W84470  42.324  28.636  12.357
12145W        W84471  23.705  25.634   0.467
12146W        W84472  36.629  32.437   4.115
12147W        W84473  30.516  21.520   2.769
12148W        W84474  29.315  14.284   2.157
12149W        W84475   0.974  28.692  12.559
12150W        W84476  19.532  37.523   1.866
12151W        W84477  35.356  33.922   2.846
12152W        W84478   6.753  14.212   0.212
12153W        W84479  20.785  36.058  14.350
12154W        W84480  34.178  11.265  13.408
12155W        W84481  36.050   3.765  10.620
12156W        W84482  18.123  38.124  13.538
12157W        W84483  36.001  13.136  11.551
12158W        W84484  20.891  18.111   2.996
12159W        W84485  12.502  21.785   1.487
12160W        W84486   8.410   0.198   3.375
12161W        W84487  27.616   1.071  12.577
12162W        W84488  29.207  20.634  13.292
12163W        W84489  16.577  42.344   4.214
12164W        W84490  18.192  19.995  13.831
12165W        W84491  35.286  30.408  10.994
12166W        W84492  18.739   5.274   1.152
12167W        W84493  33.204   8.633  12.367
12168W        W84494  39.214  16.349  14.875
12169W        W84495  23.192  28.553   1.329
12170W        W84496  23.001   0.861   3.069
12171W        W84497   5.901  38.676  10.164
12172W        W84498  23.787   7.155  12.088
12173W        W84499  44.019  21.664   0.475
12174W        W84500   1.912   5.180   0.207
12175W        W84501   6.782   3.993   2.437
12176W        W84502   1.082  28.970   0.882
12177W        W84503  21.354  40.914  12.568
12178W        W84504  17.166   7.773   3.309
12179W        W84505  38.431  44.912  11.135
12180W        W84506   9.650  37.301   4.359
12181W        W84507  29.566  27.993  11.224
12182W        W84508  13.061  19.798   1.687
12183W        W84509   2.194  34.796  11.687
12184W        W84510   9.338  43.874  13.416
12185W        W84511   3.759  43.415   3.684
12186W        W84512  13.718  40.991   0.009
12187W        W84513  24.383  20.235   0.422
12188W        W84514  17.358   5.938   2.189
12189W        W84515  10.074  23.234   0.031
12190W        W84516  44.261  35.493   2.765
12191W        W84517  30.094   7.424   3.637
12192W        W84518  44.249  14.768  11.382
12193W        W84519  18.152  25.234  14.977
12194W        W84520  34.655  13.067  11.000
12195W        W84521  31.143  15.181   3.254
12196W        W84522  24.244  39.543   4.661
12197W        W84523  35.392  35.981  10.224
12198W        W84524   6.221  31.667  10.977
12199W        W84525  19.005  36.193   3.281
12200W        W84526  40.827  27.843   4.125
12201W        W84527  36.968  19.502   3.703
12202W        W84528   0.286  39.514  13.049
12203W        W84529  24.431  17.519  11.058
12204W        W84530  33.869  38.208   1.908
12205W        W84531  28.655  41.988  12.072
12206W        W84532  31.095  22.813  12.434
12207W        W84533  42.834  28.504   3.520
12208W        W84534  28.526  29.125  11.867
12209W        W84535   7.722  36.767   0.171
12210W        W84536   9.865   1.230   2.272
12211W        W84537  15.538  22.078  11.025
12212W        W84538  25.592  17.104   1.422
12213W        W84539  15.629  25.593   0.298
12214W        W84540  27.025   5.244   3.135
12215W        W84541   8.134  42.545   4.672
12216W        W84542  31.092   4.390   1.948
12217W        W84543  14.082  31.609  13.001
12218W        W84544   0.011  33.112   1.158
12219W        W84545  23.726   2.496  12.904
12220W        W84546  33.583   2.727  13.478
12221W        W84547  44.762   1.017  14.501
12222W        W84548   0.088  37.807   2.196
12223W        W84549  41.969   4.362  10.890
12224W        W84550  28.936  43.472  12.567
12225W        W84551  42.020  16.592  12.054
12226W        W84552   4.796  35.308  11.056
12227W        W84553  16.325  16.343   1.288
12228W        W84554  24.051  14.346   0.510
12229W        W84555  42.929  24.875  11.721
12230W        W84556   2.898  17.272   2.890
12231W        W84557  12.901  12.642  11.033
12232W        W84558   2.658  35.517  10.390
12233W        W84559  11.755  25.292  11.912
12234W        W84560  23.418  43.700   1.712
12235W        W84561  12.931  29.632   3.220
12236W        W84562  22.042  32.017  10.497
12237W        W84563  28.095   7.206   2.640
12238W        W84564  14.826  29.077  13.719
12239W        W84565   3.848  15.069  14.869
12240W        W84566   0.675  20.109  14.964
12241W        W84567  38.390   6.205  12.445
12242W        W84568  10.384  35.916   1.713
12243W        W84569  37.378  16.261   0.711
12244W        W84570  15.381   7.218  11.574
12245W        W84571   5.539  24.957   1.877
12246W        W84572  26.988  31.563   3.546
12247W        W84573  33.607  18.386  11.770
12248W        W84574  28.805  29.990   1.447
12249W        W84575  34.761  27.539   0.524
12250W        W84576  18.374   1.005  11.981
12251W        W84577  24.012  35.809   2.716
12252W        W84578  18.954  37.417  10.690
12253W        W84579  10.423  29.191  11.289
12254W        W84580  34.073   2.113  11.120
12255W        W84581   3.478  32.117   2.789
12256W        W84582  25.200   3.825  10.717
12257W        W84583  38.801  11.311  12.798
12258W        W84584  19.632  10.895  10.986
12259W        W84585  18.127  26.080  14.380
12260W        W84586  12.246  26.904  13.242
12261W        W84587  33.492  37.818   1.954
12262W        W84588  21.099   1.890  10.924
12263W        W84589   9.217  24.244   3.448
12264W        W84590  23.955  32.933   1.299
12265W        W84591   8.209  18.701   1.496
12266W        W84592  34.008  22.164  10.639
12267W        W84593  37.199   6.759  14.001
12268W        W84594   1.421   3.835   3.676
12269W        W84595   0.656  38.341  14.348
12270W        W84596  23.733  32.576  14.615
12271W        W84597  13.825  26.173  11.044
12272W        W84598  33.940  32.125   3.174
12273W        W84599  20.307  27.849  14.507
12274W        W84600  23.199  41.297  14.191
12275W        W84601  41.873   3.433  12.303
12276W        W84602  31.670  16.231  10.632
12277W        W84603  28.050  28.705  12.499
12278W        W84604  15.331   4.986  12.064
12279W        W84605  19.287  12.125  12.498
12280W        W84606  27.960  29.054  13.935
12281W        W84607  19.766  25.150   3.163
12282W        W84608   2.309  32.726   0.706
12283W        W84609  11.273   2.267  11.088
12284W        W84610  22.500   4.457  11.664
12285W        W84611  17.152  13.733   2.919
12286W        W84612  14.574  10.614   2.121
12287W        W84613   9.130  30.750  12.101
12288W        W84614  25.729   5.220   5.059
12289W        W84615  12.659  39.072   2.160
12290W        W84616  29.855   8.360   1.455
12291W        W84617   1.875   8.684   0.461
12292W        W84618  15.539  14.093   0.275
12293W        W84619   3.319  16.143  10.328
12294W        W84620  18.632  39.764   0.330
12295W        W84621  18.637  40.503  11.688
12296W        W84622  32.319  27.029   4.877
12297W        W84623  16.966   7.739  14.978
12298W        W84624   0.963  25.889  13.075
12299W        W84625  35.273   6.814  10.721
12300W        W84626   9.343  27.456   2.213
12301W        W84627  18.132   5.752  12.624
12302W        W84628  15.547  22.823   1.929
12303W        W84629  22.973   3.026   0.393
12304W        W84630   8.882   2.237  13.429
12305W        W84631  31.299  12.277  10.928
12306W        W84632  25.570  36.481   2.224
12307W        W84633  37.619  10.840  10.629
12308W        W84634   4.143  17.641  13.367
12309W        W84635  21.939  37.774   0.906
12310W        W84636  25.283   3.829  12.909
12311W        W84637   0.111   7.185  13.471
12312W        W84638   7.498  12.241  12.900
12313W        W84639  21.734  33.406  14.501
12314W        W84640  44.103  24.433   3.390
12315W        W84641  33.811   5.055  11.932
12316W        W84642  29.393  29.003   4.844
12317W        W84643  19.281  31.536   1.782
12318W        W84644  37.253   8.299   1.717
12319W        W84645   2.680  30.885  14.280
12320W        W84646  44.403  38.858   2.670
12321W        W84647  27.666  32.016   0.527
12322W        W84648  12.808  22.020   2.725
12323W        W84649  13.134   9.676   4.043
12324W        W84650  11.073   9.703  10.573
12325W        W84651  41.396  35.725  11.572
12326W        W84652  19.882   9.016   1.411
12327W        W84653   9.214   9.880   3.831
12328W        W84654   1.731   2.391  13.257
12329W        W84655  17.824  25.154  14.000
12330W        W84656   1.024  25.977   0.128
12331W        W84657  35.463  35.995  10.775
12332W        W84658  40.037  13.895   0.817
12333W        W84659  32.560  31.543   3.225
12334W        W84660  35.373  34.826   2.840
12335W        W84661  19.511  38.980  11.397
12336W        W84662  29.930   9.196  13.881
12337W        W84663   8.027  33.269  10.330
12338W        W84664  23.270  35.352   3.879
12339W        W84665  38.413  32.592  12.589
12340W        W84666  19.592   5.670   1.053
12341W        W84667  38.355  37.510   1.173
12342W        W84668  26.509   4.378   3.477
12343W        W84669   1.216  20.153  14.852
12344W        W84670   4.277  17.140  13.572
12345W        W84671  22.586  29.129  12.028
12346W        W84672  29.673  30.384  12.041
12347W        W84673   3.481  30.522   1.760
12348W        W84674  34.475  23.178   4.314
12349W        W84675  41.301  30.096   1.707
12350W        W84676  17.805   9.205   3.480
12351W        W84677  18.334  23.485  14.791
12352W        W84678  21.211  40.892   0.377
12353W        W84679  40.806  35.376  11.472
12354W        W84680   4.511  30.598  13.443
12355W        W84681  31.982  12.456   1.602
12356W        W84682  19.086  37.977   4.114
12357W        W84683  30.910  40.723  14.943
12358W        W84684  43.441  10.353   1.010
12359W        W84685  40.480  15.090  10.996
12360W        W84686   6.380  14.208   1.884
12361W        W84687  32.342  26.949  14.871
12362W        W84688  23.521  19.531   2.144
12363W        W84689   7.998   6.838  12.106
12364W        W84690  12.271  31.522   4.362
12365W        W84691  44.032   8.012  10.815
12366W        W84692  11.349  25.459   0.382
12367W        W84693  22.071  20.507  11.945
12368W        W84694  19.638  18.593  10.740
12369W        W84695  36.775  12.035   0.302
12370W        W84696  40.253   9.268  12.620
12371W        W84697  23.031   5.198   0.878
12372W        W84698  26.121   3.553  11.889
12373W        W84699  27.662  35.653   1.571
12374W        W84700  26.975  31.349   0.913
12375W        W84701  19.727   6.557  13.313
12376W        W84702   8.803  19.803   3.674
12377W        W84703   6.620  25.582   3.249
12378W        W84704  37.847  30.780   0.410
12379W        W84705   1.844  17.854   4.562
12380W        W84706   5.777  30.934  13.125
12381W        W84707  27.577   7.486   0.074
12382W        W84708  41.210  36.515  13.603
12383W        W84709   2.750   5.927  10.595
12384W        W84710  23.693  33.705   2.392
12385W        W84711  29.222   3.399  11.195
12386W        W84712  38.725  42.750  14.181
12387W        W84713  35.436   2.933  13.644
12388W        W84714  28.177  14.828  12.502
12389W        W84715  37.671  43.094   3.214
12390W        W84716  38.901  16.635   0.213
12391W        W84717  33.777   6.623  12.997
12392W        W84718  11.348  21.077  12.489
12393W        W84719  23.616  13.034   1.258
12394W        W84720  28.145  43.344   4.719
12395W        W84721  33.381  40.899  10.782
12396W        W84722  32.827  17.738   2.508
12397W        W84723   6.390   7.489   9.890
12398W        W84724  27.641  35.969  12.125
12399W        W84725  39.845   2.900   4.410
12400W        W84726  22.947  34.881   1.984
12401W        W84727  38.605  26.588  13.566
12402W        W84728  37.345  18.786  13.136
12403W        W84729  31.276  18.519  12.532
12404W        W84730  35.124  36.505  14.411
12405W        W84731  24.514  38.891  12.614
12406W        W84732  19.188  25.723   4.087
12407W        W84733  12.157   2.117  13.298
12408W        W84734   5.661  11.686   1.683
12409W        W84735  42.385   9.799   4.597
12410W        W84736  42.876  29.878  14.407
12411W        W84737   6.905  11.134  14.181
12412W        W84738   2.683  32.058  11.595
12413W        W84739  26.608  10.633   4.909
12414W        W84740  34.930  26.443  13.379
12415W        W84741  42.813   4.416   0.746
12416W        W84742   5.734  12.300  12.566
12417W        W84743  17.186  13.862  11.951
12418W        W84744  16.229  32.548   3.094
12419W        W84745  16.205  10.676  14.330
12420W        W84746   4.865  31.624  14.335
12421W        W84747  21.150   1.889  10.422
12422W        W84748  38.342   4.879   2.375
12423W        W84749  19.848  37.418  11.068
12424W        W84750   3.276   1.139   3.271
12425W        W84751  34.542  19.877  11.166
12426W        W84752  15.551  11.381  11.421
12427W        W84753  14.092  10.978  14.858
12428W        W84754  32.218   0.882  13.982
12429W        W84755  34.308  29.688  13.864
12430W        W84756  23.660  31.245  11.633
12431W        W84757  33.607  38.301  10.706
12432W        W84758  35.233  35.989   4.544
12433W        W84759  20.104  43.048  10.048
12434W        W84760  35.136   8.183   0.449
12435W        W84761  22.291  41.354  14.684
12436W        W84762  18.992  16.952   3.734
12437W        W84763  10.305  16.076   4.402
12438W        W84764  42.980   7.150  13.948
12439W        W84765   6.426  21.014  10.381
12440W        W84766  44.420  21.179  11.015
12441W        W84767  36.364  17.743   1.436
12442W        W84768   0.154  38.294   0.481
12443W        W84769  25.996  31.573  14.586
12444W        W84770   1.911  36.980   2.451
12445W        W84771  11.330  40.973   2.717
12446W        W84772   3.949  17.178  11.103
12447W        W84773  28.112  41.080  11.489
12448W        W84774  28.640  18.692   2.355
12449W        W84775  17.817  32.898   1.915
12450W        W84776   3.780  39.387   3.776
12451W        W84777  35.359  15.811  11.595
12452W        W84778  10.054  16.017   1.468
12453W        W84779  25.515  10.179   2.514
12454W        W84780   5.153  33.079   3.700
12455W        W84781  33.482   6.932  11.883
12456W        W84782  27.226  19.551   1.354
12457W        W84783  13.825  11.675   1.002
12458W        W84784  19.379  23.996  14.344
12459W        W84785  41.700  42.821  14.424
12460W        W84786   0.817   3.273   3.295
12461W        W84787  28.952  34.223   2.780
12462W        W84788   9.294   9.168   4.771
12463W        W84789  22.980  26.173  14.943
12464W        W84790  29.500   5.891  11.966
12465W        W84791  22.709   9.981  10.926
12466W        W84792  15.018   6.760  10.701
12467W        W84793  44.788  31.284  13.394
12468W        W84794  20.342  11.890  12.053
12469W        W84795  43.888  34.617   5.079
12470W        W84796  17.436  38.942  10.634
12471W        W84797   2.468  22.244  10.685
12472W        W84798  36.459  20.825   2.206
12473W        W84799   2.544   3.542  14.900
12474W        W84800   2.793  17.020  12.070
12475W        W84801  24.595  39.937   2.866
12476W        W84802  10.468  33.299   2.667
12477W        W84803  38.053  27.640  14.547
12478W        W84804  14.892   3.093   4.076
12479W        W84805   2.733  37.963  12.827
12480W        W84806  24.484  36.590  14.062
12481W        W84807   4.891  42.605  14.497
12482W        W84808   8.908   2.834  13.435
12483W        W84809   5.352  36.463   2.122
12484W        W84810  23.787   9.308  12.458
12485W        W84811  26.716   4.900   0.930
12486W        W84812  36.497  35.988   1.346
12487W        W84813  29.762  31.985  11.847
12488W        W84814  11.124  43.244  14.863
12489W        W84815  32.919  29.563   0.999
12490W        W84816  27.013  29.459   0.849
12491W        W84817   8.385  14.797   3.088
12492W        W84818  13.753  13.494   0.480
12493W        W84819  33.283   8.520   3.412
12494W        W84820  29.331  32.335   2.176
12495W        W84821  25.234   2.769   2.379
12496W        W84822  23.600  44.705  11.549
12497W        W84823  28.218  44.315   0.819
12498W        W84824  15.075  39.324   3.113
12499W        W84825   7.389  19.976   3.802
12500W        W84826  20.061  33.814   4.601
12501W        W84827  34.580  21.924  13.967
12502W        W84828  26.692   1.026   1.467
12503W        W84829  24.736  15.392   5.356
12504W        W84830  15.652  16.829  12.183
12505W        W84831  39.781  44.695  12.452
12506W        W84832  33.064  14.602   1.412
12507W        W84833  22.092   8.365  12.874
12508W        W84834   0.028  36.766  13.406
12509W        W84835  31.201   6.717  10.709
12510W        W84836  35.139  41.330   5.016
12511W        W84837  43.179   0.599  12.579
12512W        W84838  33.503   8.673  14.525
12513W        W84839  34.030  29.740   3.787
12514W        W84840  19.290  25.252   1.347
12515W        W84841  40.047  19.340  10.755
12516W        W84842  14.935  17.757   0.222
12517W        W84843  33.230  38.990  13.016
12518W        W84844  42.774   8.294   4.317
12519W        W84845  22.054  20.503   2.681
12520W        W84846  36.517  31.613  11.123
12521W        W84847  34.098  35.422   2.842
12522W        W84848  37.146   4.654   3.261
12523W        W84849  29.660  29.420  13.830
12524W        W84850   1.289  37.448  12.485
12525W        W84851  10.970  42.036   1.913
12526W        W84852  10.566  34.497   9.689
12527W        W84853  19.096  24.205   1.535
12528W        W84854  16.450  27.101   0.443
12529W        W84855  16.620  35.861  10.773
12530W        W84856   7.023  25.974  12.421
12531W        W84857  38.894   6.165  12.333
12532W        W84858  30.894   8.820   0.476
12533W        W84859   5.369  40.288  13.588
12534W        W84860  34.412  43.310  14.710
12535W        W84861  18.488  21.110   3.612
12536W        W84862  13.056  41.407  13.875
12537W        W84863  12.952  14.298  10.616
12538W        W84864  26.278  38.639   4.236
12539W        W84865   8.652   4.403  14.873
12540W        W84866  34.867  33.807  14.618
12541W        W84867  14.412  13.872   3.289
12542W        W84868  20.326  29.181   1.295
12543W        W84869  35.948  33.009   2.683
12544W        W84870  16.597   2.675  12.526
12545W        W84871  41.410   8.464   4.691
12546W        W84872  36.077  13.775  14.447
12547W        W84873  17.475  38.811  13.132
12548W        W84874  29.365   2.529  12.025
12549W        W84875   7.833  43.041   2.689
12550W        W84876   8.881  30.822   4.277
12551W        W84877   7.248  24.899  13.358
12552W        W84878   5.700  13.884   2.293
12553W        W84879  36.775  44.192   1.782
12554W        W84880  28.099  10.378  11.720
12555W        W84881  26.959  11.773   0.553
12556W        W84882  35.588  12.278   3.183
12557W        W84883  27.438  37.461   1.733
12558W        W84884  19.185   2.509   4.820
12559W        W84885  43.522  12.216  13.351
12560W        W84886  12.155  36.611  12.619
12561W        W84887   9.397   6.437   4.744
12562W        W84888  28.653  35.347   4.149
12563W        W84889  13.614  36.448   3.742
12564W        W84890  28.949   1.522  13.107
12565W        W84891  23.902  40.013   5.195
12566W        W84892  25.543  40.424   2.449
12567W        W84893  39.317   1.000   1.431
12568W        W84894  21.182  34.603   3.100
12569W        W84895   1.199  40.549   1.240
12570W        W84896  44.899  19.272  13.233
12571W        W84897  43.560  29.546  10.632
12572W        W84898   3.356   7.373   4.757
12573W        W84899  18.976  26.431   5.211
12574W        W84900   8.869  12.069  11.506
12575W        W84901  23.932  21.175   2.777
12576W        W84902  26.277  19.922  12.086
12577W        W84903  42.812  23.148   0.582
12578W        W84904  37.634   7.441  12.266
12579W        W84905  39.968  19.822  12.124
12580W        W84906   0.906  23.832  14.949
12581W        W84907  41.117  12.388   4.163
12582W        W84908   9.589  36.429  10.730
12583W        W84909  30.106   0.834  10.457
12584W        W84910  24.272  38.398   3.691
12585W        W84911   6.211  40.827   0.823
12586W        W84912  32.076  28.293   2.452
12587W        W84913  42.973   3.488  13.744
12588W        W84914   8.814  32.968   4.331
12589W        W84915  39.144   3.577  12.472
12590W        W84916  35.409  17.740  10.620
12591W        W84917  32.885  20.137   1.826
12592W        W84918  40.409  35.026  10.853
12593W        W84919  27.503  39.245  11.537
12594W        W84920   2.731  25.122  10.433
12595W        W84921  18.560  26.968   1.681
12596W        W84922  36.314  14.951  11.038
12597W        W84923  11.378   0.765   4.059
12598W        W84924  44.178  12.769  14.433
12599W        W84925  40.254  34.136   2.217
12600W        W84926  16.858  16.890   3.173
12601W        W84927  36.594  43.779   3.771
12602W        W84928  20.532  17.275   1.887
12603W        W84929  31.031  13.203   0.251
12604W        W84930   7.896  44.199  14.806
12605W        W84931  10.721  24.525   1.390
12606W        W84932   1.842  12.854  13.812
12607W        W84933   6.102   6.935  13.196
12608W        W84934  23.717   1.186  13.326
12609W        W84935  34.146  36.686  10.659
12610W        W84936  27.936  40.515   0.921
12611W        W84937  29.224  11.195   3.728
12612W        W84938  35.010  22.216   2.375
12613W        W84939  29.049   1.455   0.932
12614W        W84940   0.267  36.548  10.734
12615W        W84941  12.286  19.884   0.309
12616W        W84942  23.348  39.248   0.442
12617W        W84943   5.790  19.167  13.968
12618W        W84944   8.555  44.217   0.778
12619W        W84945  18.775   2.781   4.616
12620W        W84946   3.034  39.286  10.666
12621W        W84947  34.805  30.476  14.243
12622W        W84948  13.811  40.763   2.763
12623W        W84949   5.773  14.263   4.679
12624W        W84950   6.890  19.048   3.574
12625W        W84951  17.112   9.397   0.405
12626W        W84952  36.871   0.338  14.914
12627W        W84953   1.258  28.219   2.411
12628W        W84954  13.724  12.595  11.583
12629W        W84955  19.575   0.418  11.005
12630W        W84956  17.130   2.419  12.460
12631W        W84957   6.900   5.630  14.516
12632W        W84958  37.142  25.164  11.075
12633W        W84959  38.100  22.698   2.166
12634W        W84960   6.517  18.497  11.860
12635W        W84961   1.779  25.894   3.677
12636W        W84962  18.554  36.083  12.442
12637W        W84963  42.337  20.957   1.693
12638W        W84964   3.261   1.748  10.986
12639W        W84965  25.059   7.209  13.394
12640W        W84966  43.332   4.898  11.806
12641W        W84967  28.202   0.253   2.254
12642W        W84968  40.813   7.283   0.576
12643W        W84969  25.153   4.212   2.927
12644W        W84970   5.233  33.741  13.087
12645W        W84971  33.178  20.730  10.563
12646W        W84972  16.023  30.858   1.622
12647W        W84973  16.746  21.121  10.724
12648W        W84974  12.746  27.084  14.551
12649W        W84975  17.968  20.479  12.095
12650W        W84976  42.808  27.610  12.529
12651W        W84977  33.435  23.628  11.215
12652W        W84978  37.841  13.243   9.850
12653W        W84979  10.568  25.977   3.775
12654W        W84980  29.021  26.244   1.301
12655W        W84981  25.597   5.161   2.301
12656W        W84982   6.188  10.418  12.624
12657W        W84983  40.750  30.385  12.614
12658W        W84984  28.973  12.217   4.583
12659W        W84985  12.066  31.959   1.353
12660W        W84986  44.312  27.373   0.071
12661W        W84987  31.684  24.672   1.939
12662W        W84988  12.860  24.676   1.789
12663W        W84989  38.572  10.193  10.253
12664W        W84990  25.131   3.562   3.783
12665W        W84991   6.935   1.839  11.792
12666W        W84992  30.546  22.812   0.426
12667W        W84993   6.800   5.897  12.143
12668W        W84994  35.822  35.925  12.368
12669W        W84995   1.026   3.777   2.188
12670W        W84996  37.984  13.277   3.183
12671W        W84997  10.152  26.399  11.594
12672W        W84998  23.581  18.742  11.960
12673W        W84999  29.380  40.532   2.682
12674W        W85000  29.524  10.623  11.007
12675W        W85001  43.413  35.450  13.021
12676W        W85002  23.047  40.483  12.155
12677W        W85003   9.169  36.593  10.441
12678W        W85004   5.181   3.823   1.132
12679W        W85005  30.654   3.962   1.066
12680W        W85006  38.716   5.825  13.827
12681W        W85007  43.272  42.862  14.301
12682W        W85008  38.821  16.334   3.734
12683W        W85009  44.085  44.526  10.777
12684W        W85010  38.451  29.811   1.878
12685W        W85011   4.423  12.663  14.453
12686W        W85012  43.803  13.310  13.369
12687W        W85013  32.426  15.204   0.272
12688W        W85014  15.213  20.723  10.605
12689W        W85015   9.014  29.540   2.587
12690W        W85016   5.068  37.793  12.800
12691W        W85017  33.258  29.197  13.299
12692W        W85018  26.174   9.233  11.419
12693W        W85019  17.149  14.791  11.456
12694W        W85020  27.224  29.022  13.395
12695W        W85021  22.725  41.566  14.889
12696W        W85022  41.449  31.893  10.529
12697W        W85023  27.282   9.175   2.689
12698W        W85024  34.481  24.963  10.754
12699W        W85025  29.534  33.408  13.042
12700W        W85026  10.884  37.419  14.180
12701W        W85027  14.416  37.860   3.617
12702W        W85028   0.392  30.076  10.317
12703W        W85029  43.812  21.077  11.920
12704W        W85030   8.312  42.911   2.823
12705W        W85031   9.950  18.916  13.927
12706W        W85032  41.891   1.726   4.315
12707W        W85033  43.767  39.947   4.669
12708W        W85034  20.173  32.861  10.787
12709W        W85035  22.538   5.620  10.750
12710W        W85036  11.845   3.419   4.619
12711W        W85037  42.860  37.813  11.687
12712W        W85038  25.657  41.012   3.098
12713W        W85039  36.810  18.815  14.171
12714W        W85040   2.168  29.166   3.252
12715W        W85041  13.167   8.155  14.071
12716W        W85042  41.364  38.831   4.612
12717W        W85043  44.334   3.914   1.262
12718W        W85044   6.408  25.557  10.602
12719W        W85045  27.660  15.811  14.904
12720W        W85046   5.769  15.613  12.575
12721W        W85047  23.190  37.849  14.338
12722W        W85048   5.036  38.915  14.177
12723W        W85049   4.272  14.521   3.212
12724W        W85050  12.317  11.928  11.394
12725W        W85051  20.466  42.893  13.522
12726W        W85052  34.371  13.165   4.350
12727W        W85053   9.438  34.538  11.947
12728W        W85054  15.595  37.811   1.420
12729W        W85055  38.009   2.324   4.647
12730W        W85056  12.948  16.654   0.413
12731W        W85057   8.856  28.835  13.459
12732W        W85058  32.042  31.600   1.151
12733W        W85059  23.017   7.290   0.199
12734W        W85060  18.181   0.849   0.780
12735W        W85061  12.645   7.407  10.972
12736W        W85062  24.712  24.004   0.396
12737W        W85063   5.559  19.861  14.742
12738W        W85064  41.374  13.634   2.476
12739W        W85065  31.992  37.001   3.897
12740W        W85066  44.292  28.758  11.079
12741W        W85067   0.909  13.334   3.126
12742W        W85068  14.651   5.286   0.686
12743W        W85069  20.711  11.699  12.353
12744W        W85070  32.443  15.198  11.128
12745W        W85071  17.602   2.193  14.997
12746W        W85072   3.754   9.282   0.037
12747W        W85073  32.652  42.791   0.747
12748W        W85074  29.943  43.227  11.132
12749W        W85075  34.344   9.247  10.522
12750W        W85076   7.849   8.925   0.804
12751W        W85077  31.837  30.707  11.347
12752W        W85078  35.026  42.365   3.973
12753W        W85079  31.847   1.840  14.797
12754W        W85080   6.413   0.258   4.376
12755W        W85081  42.868  42.716   2.515
12756W        W85082  42.835  30.655  10.444
12757W        W85083   9.038  39.196  11.070
12758W        W85084  22.236  25.100   5.033
12759W        W85085  44.072  42.934  11.207
12760W        W85086  25.091  13.359   4.690
12761W        W85087   4.916  30.260  12.381
12762W        W85088  24.437  26.179  12.369
12763W        W85089  13.112   7.153   4.119
12764W        W85090  21.434  20.546  11.666
12765W        W85091  17.816  35.727   0.914
12766W        W85092   1.986  43.091  12.653
12767W        W85093  27.104   3.497   4.165
12768W        W85094  40.913   8.981  13.450
12769W        W85095  15.818  26.904  14.936
12770W        W85096  24.700  30.400  12.795
12771W        W85097  34.784   7.235   2.721
12772W        W85098  41.850  17.787   2.733
12773W        W85099  29.952  17.241   4.178
12774W        W85100  19.819  25.257  13.110
12775W        W85101  32.447  22.973  13.307
12776W        W85102  25.543   2.683  13.894
12777W        W85103  29.572   2.892  14.215
12778W        W85104  38.108  33.577   2.393
12779W        W85105  33.451  29.901  13.349
12780W        W85106   5.334  39.825  13.340
12781W        W85107   6.212   9.598   3.093
12782W        W85108  22.881  41.889   0.285
12783W        W85109  21.755  36.997  11.015
12784W        W85110  33.517  14.148  12.062
12785W        W85111  38.779  36.474  14.522
12786W        W85112   4.029   9.938  11.162
12787W        W85113  10.821  12.384   1.765
12788W        W85114  19.466   6.378  11.547
12789W        W85115   8.192   6.347  11.958
12790W        W85116  17.205  25.959   0.942
12791W        W85117  24.700   6.340  14.892
12792W        W85118  11.849   0.266  13.326
12793W        W85119  37.004  22.063   0.923
12794W        W85120  39.845  14.575  12.955
12795W        W85121   7.073  22.044  10.971
12796W        W85122   9.637  28.588   5.077
12797W        W85123  27.553   4.985   1.335
12798W        W85124  19.148  28.086   3.846
12799W        W85125  27.005  40.308  10.227
12800W        W85126   1.279  12.128   2.756
12801W        W85127  14.691  38.774   3.715
12802W        W85128  21.563   3.597   1.308
12803W        W85129  42.907  39.402   0.446
12804W        W85130   0.378  24.480  12.412
12805W        W85131  44.820  39.078  10.746
12806W        W85132  34.604  39.216  10.379
12807W        W85133   7.549  19.934  14.791
12808W        W85134   5.478  33.367   4.369
12809W        W85135  17.089  36.139   3.627
12810W        W85136   6.329  20.750  12.744
12811W        W85137  20.289  27.551  12.898
12812W        W85138   6.488  26.947   3.163
12813W        W85139   9.012  22.043   2.596
12814W        W85140  33.065   8.266   5.202
12815W        W85141  26.923  21.332  10.627
12816W        W85142  18.702  20.826  10.618
12817W        W85143  16.214   5.441   0.055
12818W        W85144  33.843  32.859   1.892
12819W        W85145  10.928  42.300  11.138
12820W        W85146  23.881  29.933  10.656
12821W        W85147  38.749  12.112  13.465
12822W        W85148  22.981   6.223   1.797
12823W        W85149  14.187  19.106   0.679
12824W        W85150   6.128  40.390   3.263
12825W        W85151  39.375  23.196   3.796
12826W        W85152  23.041   0.176  14.404
12827W        W85153   3.032  15.755   0.276
12828W        W85154   7.014  34.641   5.075
12829W        W85155  19.764   8.936  10.357
12830W        W85156  42.793  18.039   0.741
12831W        W85157  24.735  31.602   2.870
12832W        W85158   2.358  37.362  13.885
12833W        W85159  14.613  18.944   0.977
12834W        W85160  21.477  39.332  11.980
12835W        W85161  18.695  18.018   2.929
12836W        W85162  21.698   7.536  14.697
12837W        W85163   4.964  16.694  13.081
12838W        W85164   6.406   1.179   4.380
12839W        W85165  22.425   6.889   4.243
12840W        W85166  41.099  40.554  11.598
12841W        W85167  44.716  33.051   0.711
12842W        W85168  14.352  12.646   4.581
12843W        W85169  27.499   1.716  13.918
12844W        W85170  25.416  27.797   1.023
12845W        W85171   8.992  10.181   2.690
12846W        W85172  23.122  19.472  11.117
12847W        W85173   6.436  26.614   5.156
12848W        W85174   0.102  33.383  11.319
12849W        W85175  16.127  33.293  13.108
12850W        W85176  26.567  27.833   5.040
12851W        W85177  39.147   2.551   3.247
12852W        W85178  10.158   5.988   4.524
12853W        W85179  22.907  32.976  10.731
12854W        W85180   8.359  29.299  14.336
12855W        W85181   1.850  43.949  11.167
12856W        W85182  33.881  18.159  12.180
12857W        W85183  44.313  22.075  12.435
12858W        W85184  31.643   5.336   3.630
12859W        W85185  41.070  42.869   0.606
12860W        W85186  38.234   1.293   0.906
12861W        W85187  15.898  34.645  14.626
12862W        W85188  32.975  44.421   1.188
12863W        W85189  33.603   0.954   0.429
12864W        W85190  11.876  41.238  10.625
12865W        W85191  12.292  36.029  10.722
12866W        W85192  10.094  25.080   0.332
12867W        W85193  20.617  10.258  11.500
12868W        W85194  33.345  11.766   1.250
12869W        W85195  17.650  42.968   1.938
12870W        W85196  29.186  25.770   2.994
12871W        W85197   5.136  42.058  14.457
12872W        W85198  26.577   4.272  11.139
12873W        W85199  23.163  17.837  12.609
12874W        W85200  36.750  27.202   3.429
12875W        W85201   0.836  18.844  11.827
12876W        W85202   5.803  41.834   1.203
12877W        W85203   7.393  19.980  11.625
12878W        W85204  22.252  38.683  11.968
12879W        W85205  36.024  17.090  11.122
12880W        W85206   1.753  34.313   3.146
12881W        W85207  32.084  41.285   3.848
12882W        W85208  38.338  17.183   4.182
12883W        W85209   4.817  33.295   1.700
12884W        W85210  17.794  28.294   4.165
12885W        W85211  22.634   8.972  13.986
12886W        W85212  42.931  15.331   1.271
12887W        W85213  42.946   7.984   0.766
12888W        W85214  29.969  23.534  14.478
12889W        W85215  13.334   9.786  10.727
12890W        W85216  36.036   4.882  11.572
12891W        W85217  28.655  17.753  12.033
12892W        W85218  10.663  27.011   1.629
12893W        W85219   9.172  42.221  14.778
12894W        W85220   2.385  27.026  12.402
12895W        W85221  35.357  44.712  12.624
12896W        W85222  18.251  26.733   2.751
12897W        W85223  28.534  26.723   0.874
12898W        W85224  15.303  29.146   0.234
12899W        W85225  31.526  30.836   0.177
12900W        W85226  24.163  38.159  10.091
12901W        W85227  11.602  38.967  13.510
12902W        W85228   5.806  32.593   2.152
12903W        W85229  28.091   0.453  11.221
12904W        W85230   2.996   8.731  11.913
12905W        W85231   5.943  43.874  13.934
12906W        W85232  11.149   6.146  11.193
12907W        W85233  25.474  28.041   1.488
12908W        W85234  24.280   8.738   0.924
12909W        W85235  14.613  34.344   3.307
12910W        W85236  43.796  29.915   0.852
12911W        W85237   0.120   5.516   1.493
12912W        W85238  10.671  31.717   0.269
12913W        W85239  26.980  26.207   1.872
12914W        W85240   0.964   6.716   0.726
12915W        W85241  23.463  30.466  14.969
12916W        W85242  41.065  14.146   1.245
12917W        W85243  35.808   4.952  14.788
12918W        W85244  19.982   9.731  11.461
12919W        W85245  35.911  20.489  13.255
12920W        W85246   6.285   6.249   2.450
12921W        W85247   7.767   7.192  14.301
12922W        W85248   9.109  38.911  11.498
12923W        W85249  23.197  38.369   0.797
12924W        W85250   3.804  23.632  10.250
12925W        W85251   6.677  25.131   2.605
12926W        W85252  43.482   9.289  14.863
12927W        W85253  10.898  15.590   1.377
12928W        W85254  26.508  35.828  14.474
12929W        W85255   1.339  19.620  13.382
12930W        W85256  28.420   9.810  14.344
12931W        W85257  44.046  35.616   3.290
12932W        W85258  37.797  27.069  12.521
12933W        W85259  31.000   5.377  14.919
12934W        W85260  11.697  38.715  14.261
12935W        W85261  23.746  23.922   2.863
12936W        W85262  26.081  26.361   1.820
12937W        W85263  28.100  31.888  14.764
12938W        W85264  29.690  18.800   2.330
12939W        W85265   2.784  26.922  14.230
12940W        W85266  43.794  21.643   1.836
12941W        W85267  42.427   4.503   0.428
12942W        W85268  24.655   0.145   2.145
12943W        W85269  20.814  25.921   3.290
12944W        W85270  12.269  11.694   1.503
12945W        W85271  36.421  33.425   0.842
12946W        W85272  29.021  43.319   1.750
12947W        W85273   8.328  42.715  13.394
12948W        W85274  38.409   6.425   3.335
12949W        W85275  26.069   1.170  13.320
12950W        W85276   5.204  14.631   3.309
12951W        W85277  36.450  36.700  10.374
12952W        W85278   7.390  12.265   4.055
12953W        W85279  17.860   0.254   3.004
12954W        W85280  38.811  27.811   1.449
12955W        W85281  24.447  17.284  11.521
12956W        W85282  40.519  42.696   0.950
12957W        W85283  16.256  39.821  10.363
12958W        W85284  42.555  20.941  14.274
12959W        W85285  13.378   6.199  12.092
12960W        W85286   8.199  20.656  10.912
12961W        W85287  24.821   6.354   4.662
12962W        W85288   5.784  37.021   4.882
12963W        W85289   1.825  31.129  12.768
12964W        W85290  21.021  34.154  11.003
12965W        W85291  19.635  31.232  14.523
12966W        W85292  32.158  35.473  13.689
12967W        W85293  11.715   4.699  13.134
12968W        W85294   3.292  23.633   2.753
12969W        W85295  19.004  37.569  13.260
12970W        W85296  13.599  14.137  14.707
12971W        W85297  28.406  41.435   2.054
12972W        W85298  24.734  30.890   1.411
12973W        W85299  21.612  36.529   1.424
12974W        W85300  10.383  38.830  11.150
12975W        W85301  29.803  11.090   0.333
12976W        W85302  28.636   5.649   3.849
12977W        W85303   4.955  29.546  12.119
12978W        W85304  32.822   6.907  12.855
12979W        W85305   0.883  43.853   2.779
12980W        W85306  18.211  36.887  14.000
12981W        W85307   8.112   3.921  13.535
12982W        W85308  10.622   7.570  12.465
12983W        W85309  41.969  11.101  14.413
12984W        W85310  30.965  37.307   0.360
12985W        W85311   7.772   5.820   3.251
12986W        W85312   3.092   8.460  13.033
12987W        W85313  25.430  29.054   4.245
12988W        W85314   0.938   4.344  10.668
12989W        W85315   3.280  10.012  10.277
12990W        W85316  29.496  17.275  14.378
12991W        W85317  28.258  31.786   1.084
12992W        W85318  17.595  43.531  10.617
12993W        W85319   3.390  15.158   1.662
12994W        W85320   2.709  28.067  13.504
12995W        W85321  22.378  40.720   2.249
12996W        W85322  26.674  10.656  11.502
12997W        W85323  35.510   0.291  10.771
12998W        W85324  22.401   3.286  12.489
12999W        W85325  44.468  24.024  11.155
13000W        W85326  32.401  19.731   0.894
13001W        W85327  42.617  36.812  11.257
13002W        W85328   5.783  37.774   3.233
13003W        W85329   8.114  12.434  11.648
13004W        W85330   2.040  22.380   4.610
13005W        W85331  21.137  30.213  14.252
13006W        W85332  22.049  23.659  12.825
13007W        W85333  40.314   4.610   4.560
13008W        W85334  12.669  29.211   1.254
13009W        W85335  25.385  13.162   1.727
13010W        W85336  20.125  19.104   0.871
13011W        W85337  20.652   2.238   3.178
13012W        W85338   9.107  35.993  12.503
13013W        W85339  22.268   1.036  10.751
13014W        W85340  40.817  15.172   4.945
13015W        W85341  44.026  18.756   2.328
13016W        W85342  38.843  38.091  14.773
13017W        W85343   6.647  35.103   3.849
13018W        W85344   0.290  42.434   1.299
13019W        W85345  18.736   2.244   3.729
13020W        W85346  22.944  16.182   1.400
13021W        W85347  31.085  23.918  14.935
13022W        W85348  28.856  36.933   3.201
13023W        W85349   1.472  40.588   2.662
13024W        W85350   4.040  43.030  12.380
13025W        W85351   6.763  17.702  11.454
13026W        W85352  38.589  27.576   3.193
13027W        W85353  41.390  24.496  12.106
13028W        W85354   4.911  13.010   3.844
13029W        W85355  27.006  20.212  14.515
13030W        W85356  22.804  15.451  11.986
13031W        W85357  44.044  32.108  12.408
13032W        W85358  29.236  17.469   3.715
13033W        W85359   0.028  41.896   4.183
13034W        W85360  10.212  22.700   4.584
13035W        W85361  36.163  31.121  14.818
13036W        W85362  26.618  38.449  13.453
13037W        W85363  35.389  26.570  11.683
13038W        W85364  37.941  31.027  12.958
13039W        W85365  22.081  42.963  14.168
13040W        W85366  12.930   4.730   0.472
13041W        W85367  14.542  29.109  11.151
13042W        W85368  19.153   6.767  12.579
13043W        W85369   5.439   7.949   0.024
13044W        W85370  44.024  42.873   3.167
13045W        W85371  37.397  12.586   0.840
13046W        W85372  43.683  44.376  10.449
13047W        W85373  18.347  40.123   3.622
13048W        W85374   2.464  11.468   4.521
13049W        W85375   7.038  43.433   3.697
13050W        W85376  22.406  26.218   2.862
13051W        W85377  32.553  39.273  12.110
13052W        W85378  41.826  25.070   1.287
13053W        W85379  42.481  14.726  11.050
13054W        W85380   2.334   7.799   1.911
13055W        W85381  17.192  41.345   3.415
13056W        W85382  36.906  43.266  14.264
13057W        W85383  43.511  37.005   4.955
13058W        W85384  11.407  13.467  12.443
13059W        W85385  24.536   4.443  14.244
13060W        W85386  14.219  10.882   4.119
13061W        W85387   5.911   0.055  13.434
13062W        W85388   8.598   9.436   3.428
13063W        W85389  22.493  35.076  13.403
13064W        W85390   3.250  40.118  12.054
13065W        W85391  28.764  21.967   2.628
13066W        W85392  22.075  31.275  10.474
13067W        W85393  16.889   0.945   1.878
13068W        W85394  29.600  40.830  12.876
13069W        W85395  23.686  27.690  12.040
13070W        W85396  14.671  30.661   1.479
13071W        W85397  42.903  15.596   4.900
13072W        W85398   8.869  15.263  12.745
13073W        W85399  28.033  30.379  13.433
13074W        W85400  35.982   5.612  10.784
13075W        W85401   7.762  35.432   2.800
13076W        W85402  28.110  39.355  14.244
13077W        W85403   0.752  24.302   0.003
13078W        W85404  15.033  31.112   0.741
13079W        W85405  43.096   5.851  13.684
13080W        W85406   6.083  33.090   3.625
13081W        W85407  37.940   2.945  13.780
13082W        W85408  34.940  33.319   5.726
13083W        W85409   6.668  39.820  11.150
13084W        W85410  17.656  41.481   3.224
13085W        W85411  37.946  21.476  10.675
13086W        W85412  34.407  17.359   1.486
13087W        W85413   4.352  43.841  10.723
13088W        W85414  36.620  13.921   0.344
13089W        W85415  14.600   0.414  14.325
13090W        W85416  43.261  12.215   4.843
13091W        W85417  12.735  13.143   1.800
13092W        W85418  42.650  29.778   4.474
13093W        W85419  11.203  15.557   3.288
13094W        W85420  20.295  38.489  12.940
13095W        W85421  34.827  28.422  14.430
13096W        W85422   7.381  29.024  14.595
13097W        W85423  13.337  19.444   4.995
13098W        W85424  12.188   6.726  13.481
13099W        W85425   3.369  28.849   4.572
13100W        W85426  39.711   6.265  14.983
13101W        W85427   0.914  16.127  10.762
13102W        W85428   3.583   4.782  12.368
13103W        W85429   3.810  23.626   2.739
13104W        W85430  22.122  15.473   3.735
13105W        W85431  15.843  33.130  14.422
13106W        W85432  29.391  23.873   0.528
13107W        W85433  11.230   8.679   4.887
13108W        W85434   7.146  25.740   2.772
13109W        W85435   1.847  14.213   1.419
13110W        W85436  20.904  20.811   1.963
13111W        W85437   6.922  18.528   3.630
13112W        W85438  44.807   7.225  12.965
13113W        W85439  42.109  26.822   4.158
13114W        W85440  41.574  44.872  10.361
13115W        W85441  22.110   5.368   4.637
13116W        W85442  25.583   5.360  12.424
13117W        W85443  43.320  42.482  13.922
13118W        W85444   6.243  20.337   0.769
13119W        W85445  22.557  20.976  12.484
13120W        W85446  14.582   9.903  11.013
13121W        W85447  16.852  15.748   4.469
13122W        W85448  43.628  12.723  10.962
13123W        W85449  22.847   2.197   0.112
13124W        W85450  27.670  15.258  14.718
13125W        W85451  42.452  23.626  10.300
13126W        W85452  10.400  44.157  11.934
13127W        W85453  29.334  15.338   1.344
13128W        W85454  25.501   8.760   4.403
13129W        W85455  14.167  22.142   4.651
13130W        W85456  31.001  11.811  14.050
13131W        W85457  25.088  44.075  13.955
13132W        W85458  26.424   7.821   1.371
13133W        W85459  25.572  28.694   0.716
13134W        W85460  17.132  32.652  10.515
13135W        W85461  22.147   5.954  10.580
13136W        W85462   2.541  13.927   2.783
13137W        W85463  39.924  27.268  11.940
13138W        W85464  27.424   4.301   3.797
13139W        W85465  11.240  31.070   2.662
13140W        W85466  41.425  15.416  14.937
13141W        W85467   4.956  13.572  13.386
13142W        W85468   4.161  23.140  11.850
13143W        W85469  14.157  16.776  10.727
13144W        W85470  22.231  33.810   1.415
13145W        W85471  40.603  40.764  11.611
13146W        W85472  28.097  16.718   2.407
13147W        W85473  13.390  43.082  10.676
13148W        W85474   9.232  21.743   4.672
13149W        W85475  40.753  32.785   0.475
13150W        W85476  10.361  19.371  10.472
13151W        W85477  34.158  44.247  14.519
13152W        W85478  25.701  26.374   0.629
13153W        W85479  26.600  15.812   1.355
13154W        W85480  19.714  31.324   2.412
13155W        W85481  37.344  10.793  12.001
13156W        W85482  39.316  34.746   3.156
13157W        W85483  37.295  29.498   0.817
13158W        W85484   7.152  30.865  11.062
13159W        W85485   2.509   8.325  12.461
13160W        W85486   7.666  39.392  12.360
13161W        W85487   7.392  21.289   3.400
13162W        W85488  32.976  22.125  11.520
13163W        W85489  11.815  26.580   0.495
13164W        W85490  16.545  17.333  12.589
13165W        W85491  29.964  18.222  11.586
13166W        W85492   7.790  12.041  13.348
13167W        W85493  18.947  28.540   3.787
13168W        W85494  12.395   0.581  12.506
13169W        W85495   7.454  20.555   4.638
13170W        W85496  20.056  44.025  14.334
13171W        W85497  16.218  28.917  12.529
13172W        W85498  20.259  33.065  13.791
13173W        W85499  37.528  32.754   2.137
13174W        W85500  38.512  12.391   9.821
13175W        W85501  37.945   2.286   2.704
13176W        W85502  26.029  12.875   3.471
13177W        W85503  10.373  38.193  14.251
13178W        W85504  38.459  34.084   1.361
13179W        W85505  24.506   0.335   2.802
13180W        W85506  18.554  31.369  12.395
13181W        W85507  25.045  10.177  14.479
13182W        W85508   0.363   5.816  12.341
13183W        W85509  26.022  33.864   2.446
13184W        W85510  44.041  13.209  14.721
13185W        W85511   6.879  10.181  11.444
13186W        W85512  25.519  23.238   2.431
13187W        W85513   8.844   7.719  14.765
13188W        W85514   6.645  16.569   2.682
13189W        W85515   3.471  17.678  11.926
13190W        W85516  10.857  24.193   3.178
13191W        W85517  24.769  25.631  11.391
13192W        W85518  29.535  17.247  13.544
13193W        W85519  43.979  31.587  12.376
13194W        W85520  39.554  37.234   3.856
13195W        W85521  35.678   9.837  10.722
13196W        W85522  28.095  22.648  12.097
13197W        W85523  27.496  31.115  13.947
13198W        W85524  23.211  14.591  12.001
13199W        W85525  39.953   6.733  14.934
13200W        W85526  25.944  39.419  12.861
13201W        W85527   5.003   4.428  10.606
13202W        W85528  33.071  33.993  14.533
13203W        W85529  32.912  21.285  11.792
13204W        W85530  39.080   7.982   0.420
13205W        W85531  33.961   8.056  13.045
13206W        W85532  14.270  31.683  10.693
13207W        W85533  31.203  12.950  13.290
13208W        W85534  13.559  19.487   1.395
13209W        W85535  26.051  18.976   1.359
13210W        W85536   2.332  23.308  10.905
13211W        W85537  11.191  15.289  14.442
13212W        W85538   0.466  42.913   0.487
13213W        W85539  44.302  23.856  10.677
13214W        W85540  33.124  13.575  11.573
13215W        W85541  34.147  26.958  10.116
13216W        W85542  12.799   6.761  14.821
13217W        W85543  44.875  38.824  11.181
13218W        W85544  18.594  17.515   4.211
13219W        W85545   2.105  41.951   0.239
13220W        W85546  43.907  32.703   4.142
13221W        W85547  13.051  27.071   1.805
13222W        W85548   5.484  33.051  10.976
13223W        W85549  11.680  23.537  10.629
13224W        W85550  29.106  26.619  12.317
13225W        W85551   3.474  44.305  14.412
13226W        W85552   1.195  31.647  14.713
13227W        W85553  29.871  20.553   1.718
13228W        W85554  26.927  12.062  12.831
13229W        W85555  16.301  31.579  12.423
13230W        W85556  27.400  33.063   0.967
13231W        W85557  12.649  37.830  10.451
13232W        W85558  25.448  13.218   0.313
13233W        W85559   4.456   9.854  11.600
13234W        W85560  11.335  32.710   3.713
13235W        W85561  20.112  29.063   3.672
13236W        W85562  35.117  38.784  14.870
13237W        W85563  34.374   1.776   3.763
13238W        W85564  17.093  41.631  10.271
13239W        W85565   6.186  41.393  14.851
13240W        W85566  42.841  23.675  14.245
13241W        W85567  35.077  37.626   4.171
13242W        W85568  35.259  37.645  12.689
13243W        W85569  26.555  32.022   2.803
13244W        W85570  35.113  14.211  13.359
13245W        W85571  28.956  16.383   1.379
13246W        W85572  34.457  41.547   0.771
13247W        W85573  44.841  28.205   0.840
13248W        W85574   5.812   8.161   1.691
13249W        W85575  35.276  30.554  14.050
13250W        W85576   8.325  41.977   1.845
13251W        W85577  22.208   4.588  13.993
13252W        W85578  22.162  15.305  12.590
13253W        W85579  35.484   9.718   4.684
13254W        W85580  42.538  28.940   2.782
13255W        W85581  18.095  31.529  12.562
13256W        W85582  41.236  16.988   3.610
13257W        W85583  43.382  34.082  10.970
13258W        W85584  38.386   2.904  12.347
13259W        W85585  14.033  28.948  11.152
13260W        W85586  41.460  22.286   4.122
13261W        W85587  14.169  37.400   1.813
13262W        W85588  43.385  26.668  13.906
13263W        W85589  28.550  22.474   4.151
13264W        W85590  14.190  39.422   2.617
13265W        W85591  18.082   1.261  10.391
13266W        W85592  33.436   3.122  10.281
13267W        W85593  20.076  42.911   0.949
13268W        W85594  39.858  29.740   3.187
13269W        W85595   0.085  28.865  14.798
13270W        W85596  29.876  14.106  13.617
13271W        W85597  33.599  24.065  11.926
13272W        W85598  30.157   2.797   2.774
13273W        W85599  20.761   0.069  11.546
13274W        W85600  30.961  39.521   1.300
13275W        W85601   2.670  22.624   0.912
13276W        W85602   2.963  37.656  14.420
13277W        W85603  10.872   3.049  13.485
13278W        W85604  17.824  41.869   2.893
13279W        W85605  43.876  24.619  10.816
13280W        W85606  12.608  21.139  10.660
13281W        W85607  27.111  26.999   0.834
13282W        W85608   2.507  15.128  13.012
13283W        W85609  41.248  14.114  13.587
13284W        W85610   4.964  23.725  14.414
13285W        W85611  24.716  26.605   4.926
13286W        W85612  36.481  41.298  12.074
13287W        W85613  38.819  29.574   5.038
13288W        W85614  27.145   7.338   2.201
13289W        W85615  24.593  35.511  11.924
13290W        W85616  12.839  31.522   1.323
13291W        W85617   5.411  25.568   0.642
13292W        W85618   8.271  14.394   0.384
13293W        W85619  35.122  29.250  14.286
13294W        W85620  39.636  25.691   0.259
13295W        W85621   7.412  26.180   2.793
13296W        W85622  26.147  23.499   4.436
13297W        W85623  37.854  19.194   4.801
13298W        W85624  17.661   8.336   0.958
13299W        W85625   4.337  20.460   2.660
13300W        W85626   8.463  40.537  11.221
13301W        W85627  14.644  43.387   1.339
13302W        W85628  10.220  41.574  13.572
13303W        W85629   7.254  38.439  11.036
13304W        W85630  23.186  41.904   0.785
13305W        W85631  14.488   0.845  10.412
13306W        W85632  30.660  44.290   4.218
13307W        W85633   2.754   8.212  13.990
13308W        W85634  32.616   6.747   3.263
13309W        W85635  15.277  41.054   2.862
13310W        W85636  27.738  26.485   4.932
13311W        W85637  30.006  20.994   3.274
13312W        W85638   7.381  34.319  11.095
13313W        W85639  38.462   0.684   0.386
13314W        W85640  14.280  23.171  11.662
13315W        W85641  36.541  38.417   1.789
13316W        W85642  27.253  16.330   0.894
13317W        W85643  12.323  10.801   3.916
13318W        W85644  13.625  34.068  11.930
13319W        W85645  27.947  41.595   3.279
13320W        W85646  16.337   7.358  13.903
13321W        W85647  39.694  18.981  11.962
13322W        W85648  13.666   7.132   1.306
13323W        W85649  42.068  37.066  14.809
13324W        W85650  11.346   3.755  11.308
13325W        W85651  28.107  26.407   0.924
13326W        W85652  16.224  10.668  12.912
13327W        W85653  38.239  21.606   2.240
13328W        W85654  38.614   9.863  13.962
13329W        W85655  19.044  33.403   2.107
13330W        W85656  26.605   5.622   4.659
13331W        W85657  13.273  20.781   3.054
13332W        W85658  40.820  28.924   1.135
13333W        W85659  36.127  18.133   2.324
13334W        W85660  26.190  44.405  13.745
13335W        W85661  12.633   1.901  12.997
13336W        W85662  22.690  25.545   0.945
13337W        W85663   2.816  28.051   1.300
13338W        W85664  17.686  32.416   2.177
13339W        W85665  22.485  29.653  12.756
13340W        W85666  44.738  39.968  12.102
13341W        W85667  17.645   3.395  14.295
13342W        W85668  30.023  11.072   4.769
13343W        W85669  23.516  22.944   1.437
13344W        W85670  40.818  34.941  11.157
13345W        W85671   8.556  39.570   2.277
13346W        W85672  22.389  16.369   3.690
13347W        W85673  11.757  13.632   0.929
13348W        W85674  34.894  18.579   1.800
13349W        W85675  23.220  31.205  10.583
13350W        W85676  25.970  19.563  12.769
13351W        W85677  20.957  41.672  13.027
13352W        W85678  25.905  23.245  12.342
13353W        W85679  14.899   4.285   4.613
13354W        W85680  41.099  38.857   1.769
13355W        W85681  32.988   0.014   0.404
13356W        W85682  17.514   3.961  12.383
13357W        W85683  18.665   0.364  13.844
13358W        W85684  19.165  31.464  11.109
13359W        W85685  33.058  33.837  11.093
13360W        W85686   4.445   5.003   4.628
13361W        W85687  38.593   2.173   3.151
13362W        W85688  43.193  38.206   2.798
13363W        W85689  23.962   6.575   0.873
13364W        W85690  28.167   9.320  14.320
13365W        W85691  17.586   3.308  10.524
13366W        W85692  33.609   3.672  11.975
13367W        W85693  44.475  34.232  10.293
13368W        W85694  42.465  17.682   2.424
13369W        W85695  15.096  35.960   4.719
13370W        W85696  15.204   2.480  14.788
13371W        W85697   2.351  10.175   4.101
13372W        W85698  29.941  15.405  13.458
13373W        W85699   2.703   5.457  14.680
13374W        W85700  23.532  15.676   2.800
13375W        W85701  25.199  12.104   2.277
13376W        W85702   3.779  43.060  13.894
13377W        W85703  20.049  33.874   0.343
13378W        W85704  25.146  20.545   0.515
13379W        W85705  13.411  18.720  11.557
13380W        W85706  18.813  29.138  11.495
13381W        W85707  39.151  13.031   2.747
13382W        W85708   2.740   3.886   1.248
13383W        W85709  23.009   2.000  12.037
13384W        W85710  27.214  36.229  11.987
13385W        W85711  15.389  29.203   1.438
13386W        W85712  21.328   5.791  13.848
13387W        W85713   3.803  32.116   3.661
13388W        W85714   8.897   1.312   1.848
13389W        W85715  35.658  21.697  14.934
13390W        W85716   7.044  26.615   4.092
13391W        W85717   4.210   6.722  11.358
13392W        W85718  19.721  27.699   2.366
13393W        W85719   5.368  37.937   3.530
13394W        W85720  38.793   0.201  11.339
13395W        W85721  14.375   4.872  10.655
13396W        W85722   7.144   2.799   1.818
13397W        W85723  24.424  14.233  14.254
13398W        W85724  22.737  36.375  12.076
13399W        W85725  17.134   4.785   1.835
13400W        W85726  29.582   8.855  13.048
13401W        W85727   7.296  32.569   1.833
13402W        W85728  41.871  31.076  11.591
13403W        W85729   8.900  35.098   0.313
13404W        W85730  15.821  10.715  12.566
13405W        W85731  32.006  44.310   5.225
13406W        W85732   5.305  26.157   1.259
13407W        W85733  30.831  21.260  10.300
13408W        W85734   4.822  27.126   2.800
13409W        W85735   5.493   4.426  12.875
13410W        W85736   9.276  39.056   2.111
13411W        W85737  26.223  21.456  14.807
13412W        W85738   0.236   6.315  12.457
13413W        W85739  22.917  39.312  12.018
13414W        W85740   1.804   2.529   0.277
13415W        W85741  33.379  24.201   1.921
13416W        W85742  12.639  13.148   1.265
13417W        W85743  42.784  14.861   2.180
13418W        W85744   8.247  34.790  12.861
13419W        W85745   9.752  18.782  10.735
13420W        W85746  14.021  32.690  14.404
13421W        W85747   2.422  14.280   4.105
13422W        W85748  10.346   3.405   3.362
13423W        W85749  17.205  27.653  11.695
13424W        W85750   1.409  37.949   2.446
13425W        W85751  40.532  43.629   3.219
13426W        W85752  18.265   0.243  12.414
13427W        W85753   3.102  29.310  11.762
13428W        W85754   7.326  33.186   4.052
13429W        W85755  43.053   3.503   0.397
13430W        W85756  27.420  12.202  14.887
13431W        W85757  22.524  36.623   0.385
13432W        W85758  28.085  38.309   2.780
13433W        W85759   2.984  19.641  11.171
13434W        W85760  21.809  23.569  14.221
13435W        W85761  44.496   0.492   1.772
13436W        W85762   5.286  30.012   0.231
13437W        W85763  29.214   9.008   0.336
13438W        W85764  41.382   8.641   1.244
13439W        W85765   1.399  17.133  12.666
13440W        W85766  32.104  44.983  14.478
13441W        W85767  34.704  10.667  14.998
13442W        W85768  17.644  39.711  13.709
13443W        W85769   9.547  23.974   4.208
13444W        W85770  12.610  35.226  13.423
13445W        W85771  16.669  26.359  11.769
13446W        W85772  28.164  39.890  10.641
13447W        W85773   5.361   0.658  11.079
13448W        W85774  27.113   1.799  12.566
13449W        W85775  11.575  35.840  13.340
13450W        W85776  18.791   3.997   4.953
13451W        W85777   1.304  29.470   1.851
13452W        W85778   7.708  11.747  12.882
13453W        W85779  19.334  23.782   2.297
13454W        W85780  38.795  35.903  14.021
13455W        W85781  31.094  36.150  13.588
13456W        W85782  40.512  36.519   1.097
13457W        W85783  25.948  15.723  11.852
13458W        W85784  44.231  16.587   2.768
13459W        W85785   8.989  28.680   1.669
13460W        W85786  33.984  43.457  14.978
13461W        W85787  26.885  35.473  11.170
13462W        W85788   0.777  29.178   3.356
13463W        W85789  38.418  41.415   3.280
13464W        W85790  20.535  17.711   2.793
13465W        W85791  42.290  15.762   4.145
13466W        W85792  18.749  43.230   0.430
13467W        W85793   3.787  39.556  14.957
13468W        W85794  19.024  22.239   2.261
13469W        W85795   5.450  31.451   3.287
13470W        W85796  22.798  30.961  12.384
13471W        W85797  27.104  23.074  10.790
13472W        W85798  36.597  35.818  13.974
13473W        W85799  34.155  39.926  13.398
13474W        W85800  14.548  15.500  11.652
13475W        W85801  31.805   0.232   1.141
13476W        W85802  23.345  44.949   4.625
13477W        W85803  34.872  36.577  13.948
13478W        W85804   6.135  14.806   1.210
13479W        W85805   2.371  36.070   3.209
13480W        W85806  25.512  26.153  11.567
13481W        W85807  11.710  36.238  10.762
13482W        W85808  34.607   8.344   3.198
13483W        W85809  42.087  44.309   2.781
13484W        W85810   0.440  36.323  11.689
13485W        W85811  25.192  17.836   0.880
13486W        W85812  43.396  13.956  10.240
13487W        W85813  35.048  38.638  12.915
13488W        W85814  30.115  44.187   1.868
13489W        W85815  28.662   6.175  14.397
13490W        W85816  35.489  32.325   1.747
13491W        W85817  19.067  22.995   1.172
13492W        W85818  27.472   2.877   1.839
13493W        W85819  20.952  34.880   0.774
13494W        W85820  33.119  28.475   4.332
13495W        W85821   6.807  21.407   2.681
13496W        W85822  19.820   9.217  14.862
13497W        W85823   7.810  28.029   3.609
13498W        W85824  24.106  39.261   2.265
13499W        W85825  14.347   7.789   2.305
13500W        W85826  24.551   6.827   4.756
13501W        W85827  12.610   1.346  12.930
13502W        W85828   3.409  21.734  14.054
13503W        W85829  25.950  34.840  13.841
13504W        W85830   9.353  29.831   2.254
13505W        W85831  25.804   6.597  11.162
13506W        W85832   0.749  14.364  10.674
13507W        W85833  38.835  23.662   3.663
13508W        W85834  17.558  15.960   4.038
13509W        W85835   3.855  42.816  11.951
13510W        W85836  12.626  38.460   2.932
13511W        W85837  15.315  34.275   0.720
13512W        W85838  19.363  16.152  13.550
13513W        W85839  14.837   7.628   2.386
13514W        W85840  16.169   2.378  10.523
13515W        W85841   1.390  23.767   0.051
13516W        W85842  35.870  41.136  11.509
13517W        W85843  39.926  23.286  11.877
13518W        W85844  25.744  17.299   4.549
13519W        W85845  24.463  22.433   0.275
13520W        W85846  32.706  44.671   0.076
13521W        W85847   9.209   7.335  10.732
13522W        W85848  44.051  14.762  13.480
13523W        W85849  44.838  13.125   3.243
13524W        W85850  30.576  24.684  11.636
13525W        W85851   1.331  19.310  12.765
13526W        W85852   2.911  33.879   2.876
13527W        W85853  24.481  32.019   2.668
13528W        W85854  13.817   8.973   0.253
13529W        W85855  15.652  36.445  10.836
13530W        W85856  32.698  27.527  12.607
13531W        W85857  25.708  16.866   2.273
13532W        W85858   2.377  28.623   3.885
13533W        W85859   8.240   7.693   1.790
13534W        W85860  33.372   0.305  10.720
13535W        W85861  13.237  10.627   2.902
13536W        W85862  13.199  22.744  14.762
13537W        W85863  32.221  35.374  14.180
13538W        W85864  23.035  36.177  11.655
13539W        W85865  24.040  34.871   4.229
13540W        W85866  11.689  19.335   3.108
13541W        W85867  32.564  15.733   5.090
13542W        W85868  38.950  22.998  11.911
13543W        W85869  33.006  22.177   4.577
13544W        W85870  23.177  12.575   2.424
13545W        W85871   9.384  20.670   0.417
13546W        W85872  22.508  22.479  13.407
13547W        W85873  18.740   7.289  14.806
13548W        W85874  12.157  42.531   1.214
13549W        W85875  38.572  10.375  13.787
13550W        W85876  27.950   0.767   2.323
13551W        W85877  27.487  28.700   0.766
13552W        W85878  36.409  15.309  11.371
13553W        W85879   6.948  24.399   0.029
13554W        W85880  28.846  25.147  12.115
13555W        W85881  17.346   4.446  12.509
13556W        W85882  35.659  27.419  14.550
13557W        W85883  17.666  31.153  12.847
13558W        W85884  44.399  23.318   1.833
13559W        W85885  26.954  11.764   3.869
13560W        W85886   6.883   5.271  11.414
13561W        W85887   0.858  20.230  10.963
13562W        W85888  23.516   3.668   4.136
13563W        W85889  43.421  34.062  10.457
13564W        W85890   0.882  28.646   2.213
13565W        W85891   4.656   9.007   0.463
13566W        W85892  41.376  16.864  10.453
13567W        W85893  12.914  21.080  14.949
13568W        W85894  29.978  24.558   4.076
13569W        W85895  27.987  26.347  13.247
13570W        W85896   2.379  35.726   0.913
13571W        W85897   9.765  37.505   1.513
13572W        W85898  37.826  30.748   1.398
13573W        W85899  16.574  18.662   0.944
13574W        W85900   3.325   3.337   2.673
13575W        W85901  43.833  25.499   1.779
13576W        W85902  10.359  22.668   1.846
13577W        W85903  34.353  35.581   3.260
13578W        W85904  12.219   0.654   2.703
13579W        W85905  12.776  35.443  14.465
13580W        W85906  22.208  37.802  10.970
13581W        W85907  25.798  20.763  13.304
13582W        W85908   5.216   9.431   2.670
13583W        W85909   4.790  23.186   3.120
13584W        W85910   4.936   7.249  14.348
13585W        W85911  36.118  13.798   0.334
13586W        W85912  15.621  30.509  12.419
13587W        W85913  29.537   2.061   0.786
13588W        W85914  42.266  43.484   4.062
13589W        W85915  27.412  20.613  13.895
13590W        W85916  28.088  40.020  14.903
13591W        W85917  32.036  39.161  12.196
13592W        W85918   2.805  10.785  13.964
13593W        W85919   1.716  39.884  10.702
13594W        W85920  37.439  36.588  11.228
13595W        W85921  10.463  19.998   3.213
13596W        W85922  33.975  29.144  11.667
13597W        W85923  33.531  41.074  14.983
13598W        W85924  16.641  29.061  13.433
13599W        W85925  22.651  18.109   4.925
13600W        W85926  33.918   9.188  12.468
13601W        W85927  10.737   9.455  14.550
13602W        W85928  38.028  23.200  12.410
13603W        W85929  33.127  33.728   3.809
13604W        W85930   4.844  17.067   2.904
13605W        W85931  37.878  28.102   1.210
13606W        W85932  11.305  24.165  13.811
13607W        W85933  21.279  13.065  13.669
13608W        W85934  41.092   5.977  11.178
13609W        W85935   1.791  27.466   2.702
13610W        W85936  33.435  34.659  13.577
13611W        W85937  13.851  16.286  12.542
13612W        W85938  39.908  44.088  12.924
13613W        W85939  40.020  43.494   0.498
13614W        W85940  24.498  31.083  13.276
13615W        W85941   0.626  41.608  10.334
13616W        W85942  40.465  25.256  14.227
13617W        W85943  33.967  42.438  12.640
13618W        W85944  32.037  12.135   0.777
13619W        W85945  29.445  41.543   0.951
13620W        W85946  33.779  32.121   2.674
13621W        W85947  12.171  12.532   4.225
13622W        W85948   7.683  27.062   4.584
13623W        W85949   6.797  30.951   1.462
13624W        W85950  12.302   9.411  14.993
13625W        W85951  43.773  19.783  14.698
13626W        W85952  17.765  38.730   2.377
13627W        W85953   5.507  17.168   4.563
13628W        W85954  25.508   3.521   4.626
13629W        W85955  39.538  20.570   2.614
13630W        W85956  32.170   0.237   1.781
13631W        W85957   2.434  23.949  12.938
13632W        W85958  12.883  13.999   1.412
13633W        W85959  10.482   6.428  13.030
13634W        W85960  18.084   5.672  10.724
13635W        W85961  17.129   5.232  12.864
13636W        W85962  37.692  20.758   1.886
13637W        W85963  21.699  31.615   0.317
13638W        W85964  37.541  20.239  11.923
13639W        W85965  19.677  37.983   0.289
13640W        W85966   2.332   9.704  10.068
13641W        W85967  35.610   5.954  12.937
13642W        W85968  41.844  22.155  14.310
13643W        W85969   6.263  12.223  14.825
13644W        W85970   5.300  40.475   4.354
13645W        W85971   8.233  18.306  11.982
13646W        W85972  24.962  37.948   2.062
13647W        W85973  36.491  11.299   2.757
13648W        W85974   3.511  25.419   3.369
13649W        W85975   0.016  44.339   1.374
13650W        W85976  32.424  22.927   0.961
13651W        W85977  11.740  35.027   9.876
13652W        W85978  26.055   5.092  11.233
13653W        W85979  32.922   7.282  13.592
13654W        W85980  28.981  10.368  13.354
13655W        W85981  12.377  26.627   9.741
13656W        W85982   5.894   5.447  11.097
13657W        W85983  30.030  30.671   2.164
13658W        W85984  30.612  35.776  12.492
13659W        W85985  28.151   1.331   3.777
13660W        W85986  25.500  26.112   2.328
13661W        W85987  32.370   8.822   0.333
13662W        W85988  23.997  25.910  11.516
13663W        W85989   1.270   7.864  11.491
13664W        W85990   9.512  35.690   3.590
13665W        W85991   7.717  36.080   1.366
13666W        W85992  10.815  23.637   3.888
13667W        W85993  26.018  44.879  14.430
13668W        W85994  43.797  22.129  14.317
13669W        W85995  28.169  22.066  11.322
13670W        W85996  30.437  38.269   1.726
13671W        W85997  14.423   9.483  10.243
13672W        W85998  11.760   8.769   2.154
13673W        W85999   0.058  27.964   1.921
13674W        W86000  17.303   4.003  14.271
13675W        W86001  12.439  10.217  12.568
13676W        W86002  11.818  15.186  12.816
13677W        W86003  42.694  33.015   4.400
13678W        W86004  21.645  15.214  14.515
13679W        W86005   6.346  38.475   4.297
13680W        W86006  35.062   6.339  14.051
13681W        W86007  36.394   5.415  11.008
13682W        W86008  28.544  27.530  10.261
13683W        W86009   8.796  31.888  11.163
13684W        W86010  31.006  11.823   1.430
13685W        W86011  39.961  24.434   0.298
13686W        W86012  23.940   6.409   2.783
13687W        W86013  24.662   4.862  13.308
13688W        W86014  28.588  32.044  12.759
13689W        W86015  35.515  26.513   2.313
13690W        W86016  21.884  36.304  11.607
13691W        W86017  22.136  12.178  14.504
13692W        W86018  43.484  18.876   3.108
13693W        W86019   5.676  26.457   3.593
13694W        W86020   3.481  26.104  12.682
13695W        W86021  11.099  15.768  11.575
13696W        W86022  31.704  25.673  11.089
13697W        W86023  18.183  31.323  12.057
13698W        W86024  12.347  21.246   2.670
13699W        W86025  27.075   4.120   2.371
13700W        W86026  34.989  38.847   0.816
13701W        W86027  39.986  20.093   1.446
13702W        W86028   0.412  11.893   3.571
13703W        W86029   2.347  14.923   1.836
13704W        W86030  16.353  29.942  11.280
13705W        W86031  24.679  33.567  10.682
13706W        W86032  10.831  41.239  10.935
13707W        W86033  27.739  36.331  12.551
13708W        W86034  41.748   9.262   0.824
13709W        W86035  27.669  16.798  11.424
13710W        W86036  24.688  29.961   0.062
13711W        W86037  28.606   9.914   4.290
13712W        W86038  32.905  14.049   1.485
13713W        W86039  22.656  21.088   0.472
13714W        W86040  14.825  18.648   1.375
13715W        W86041  35.945  34.637  11.897
13716W        W86042  27.492  21.729  14.045
13717W        W86043  17.821  29.167  14.368
13718W        W86044  43.442  25.930   2.792
13719W        W86045  42.039  25.567  10.754
13720W        W86046  19.688   7.839   1.445
13721W        W86047  28.564  32.889  10.965
13722W        W86048  33.044  13.308  14.803
13723W        W86049  40.864   9.882   3.657
13724W        W86050  29.603  11.612  13.403
13725W        W86051  24.622  22.180  12.486
13726W        W86052  11.306  26.777  13.385
13727W        W86053  24.789  43.721   2.334
13728W        W86054  10.112  32.944   2.601
13729W        W86055  11.845  15.687  11.944
13730W        W86056  18.627  16.561   3.831
13731W        W86057  14.269  23.536   3.176
13732W        W86058   8.924   2.814  14.412
13733W        W86059  37.386  11.578   2.629
13734W        W86060  15.577   1.485   4.087
13735W        W86061  44.399   1.755   2.003
13736W        W86062   3.733  38.888  13.911
13737W        W86063  30.210  40.803   3.745
13738W        W86064   0.986  16.737  13.450
13739W        W86065  38.095  15.373   1.754
13740W        W86066  11.793  32.379  12.457
13741W        W86067  18.879  25.322   4.976
13742W        W86068  17.534  41.422   4.842
13743W        W86069  15.587  24.715   4.306
13744W        W86070  33.546  19.666  12.186
13745W        W86071  43.537  30.489  11.568
13746W        W86072  35.827  40.286  12.501
13747W        W86073  28.625  22.081  14.444
13748W        W86074   6.451  20.156   3.000
13749W        W86075   6.131  37.186  13.799
13750W        W86076  18.672  14.348  14.876
13751W        W86077  11.413  39.428  12.144
13752W        W86078  12.278  12.160   3.775
13753W        W86079  41.311  32.977  12.508
13754W        W86080  20.759  43.838   3.372
13755W        W86081  12.685  33.390   3.313
13756W        W86082  29.057  25.566  11.917
13757W        W86083  44.823  14.394   1.826
13758W        W86084  22.178  10.707   0.042
13759W        W86085  26.730   8.710   2.365
13760W        W86086  37.476   7.707   1.461
13761W        W86087  21.954  29.929   1.173
13762W        W86088  24.096  35.000  10.881
13763W        W86089  12.790  17.287   0.908
13764W        W86090  27.521  21.581   1.482
13765W        W86091   1.282  18.164  13.530
13766W        W86092  37.939  13.936   5.059
13767W        W86093  31.037  43.745  13.991
13768W        W86094  34.003  19.768  12.915
13769W        W86095  35.164  31.966   9.949
13770W        W86096  23.610  44.556   1.061
13771W        W86097   0.647  34.310  14.639
13772W        W86098  25.900   0.880  14.066
13773W        W86099  24.747   3.754  13.003
13774W        W86100  27.660  28.739  13.365
13775W        W86101  42.315   6.151   0.858
13776W        W86102  14.709  43.443   3.361
13777W        W86103  24.186  22.243   1.521
13778W        W86104   1.645  13.860  12.122
13779W        W86105  42.315  37.655  12.479
13780W        W86106  37.859  14.899   1.768
13781W        W86107  34.829  17.258   2.781
13782W        W86108  43.307  37.690  14.422
13783W        W86109  20.220  10.071   4.850
13784W        W86110   1.325  40.027  14.594
13785W        W86111  44.786  38.248   4.649
13786W        W86112   6.627  16.140   2.359
13787W        W86113  26.259  16.352  13.129
13788W        W86114   1.844   0.786   0.976
13789W        W86115  11.578  13.733  13.927
13790W        W86116   8.494  17.535  12.900
13791W        W86117  35.320  14.668  11.106
13792W        W86118   3.781   4.694   3.242
13793W        W86119   7.637  22.622   1.197
13794W        W86120   5.665   2.370  11.544
13795W        W86121  21.960  41.634   3.113
13796W        W86122  42.285  34.750   3.735
13797W        W86123  14.880  10.322  13.978
13798W        W86124   9.358  37.376  12.504
13799W        W86125  10.204   2.626   3.927
13800W        W86126  18.222  40.781   0.965
13801W        W86127  32.242  19.283   3.239
13802W        W86128   7.390  29.096   1.100
13803W        W86129  28.141  20.591  11.159
13804W        W86130  42.685  13.571  12.876
13805W        W86131   1.828   2.850   4.224
13806W        W86132  28.691   5.307  11.955
13807W        W86133  44.388  30.546  13.632
13808W        W86134  37.712   7.356  12.828
13809W        W86135  13.560  21.249   0.754
13810W        W86136  13.103  13.162  14.253
13811W        W86137  22.725   6.124  12.172
13812W        W86138  35.479  12.827  10.742
13813W        W86139   1.926  27.716  10.667
13814W        W86140   8.299  25.959   4.720
13815W        W86141   6.189  26.671  14.009
13816W        W86142   4.360  11.578  10.766
13817W        W86143   1.481   9.692   4.028
13818W        W86144   7.099  24.508   2.294
13819W        W86145  36.880   7.702  14.869
13820W        W86146   2.859  24.716  10.141
13821W        W86147  38.979  38.924  12.775
13822W        W86148   6.908  31.797   4.140
13823W        W86149  43.214  24.179   3.141
13824W        W86150  16.039  37.466  10.585
13825W        W86151   9.426  14.819   2.122
13826W        W86152   2.267  43.238   5.032
13827W        W86153  11.867  23.639   1.342
13828W        W86154   9.975   8.467  11.136
13829W        W86155  18.108  42.537   4.036
13830W        W86156  37.963  15.589  10.811
13831W        W86157   9.350  43.094   3.658
13832W        W86158  22.181  19.190   1.817
13833W        W86159  10.285  36.943  12.487
13834W        W86160  11.284  36.932  14.696
13835W        W86161  22.771  27.230  11.893
13836W        W86162  24.504  26.746   3.791
13837W        W86163   8.877   2.966   4.264
13838W        W86164  37.123  34.404  11.599
13839W        W86165  24.646   9.279   0.388
13840W        W86166   3.419  16.862  14.077
13841W        W86167  42.892   6.832   4.695
13842W        W86168  40.836  13.471   1.802
13843W        W86169  14.736   1.641  14.886
13844W        W86170  29.101  25.069  11.660
13845W        W86171  39.271   8.789  14.466
13846W        W86172  37.678   9.586  11.079
13847W        W86173  39.677   3.915   3.726
13848W        W86174  16.389  21.092  13.430
13849W        W86175  23.733  26.749   3.218
13850W        W86176  43.413   7.932  12.551
13851W        W86177   2.411   5.839  14.930
13852W        W86178  10.340  31.186   2.443
13853W        W86179  17.263  16.963  14.420
13854W        W86180  32.491  14.718  13.071
13855W        W86181  27.301  32.060  10.544
13856W        W86182  43.603  20.796   0.862
13857W        W86183   7.865  30.356   2.789
13858W        W86184  10.206  19.663   2.242
13859W        W86185   3.263  17.282   1.178
13860W        W86186  29.781  12.679   0.375
13861W        W86187  33.524  43.039  10.986
13862W        W86188  10.433  15.907  11.894
13863W        W86189  23.577   7.889   4.095
13864W        W86190   7.226   0.375  14.716
13865W        W86191   1.856  41.951   2.774
13866W        W86192  19.697  36.974   4.608
13867W        W86193   7.881  44.256   1.302
13868W        W86194  25.625  29.503   3.052
13869W        W86195   6.032  28.684   1.352
13870W        W86196  41.354  35.893   1.852
13871W        W86197  36.323  13.157  10.599
13872W        W86198   2.709   0.134  14.341
13873W        W86199   1.339  13.647  10.410
13874W        W86200  22.394  41.456   3.362
13875W        W86201  13.963  25.763  12.928
13876W        W86202  36.860  25.604   3.325
13877W        W86203  23.092  31.535  12.452
13878W        W86204  36.935  28.261   1.397
13879W        W86205   2.503  42.628  11.952
13880W        W86206   7.215  17.453  11.487
13881W        W86207  30.963  29.779   3.361
13882W        W86208  10.327   8.133   1.906
13883W        W86209  32.661   5.390  10.691
13884W        W86210  18.155  22.896  11.707
13885W        W86211   7.039  37.905   3.213
13886W        W86212   3.819  38.548   3.574
13887W        W86213   1.808  22.966  10.982
13888W        W86214  34.010  16.287  14.754
13889W        W86215  34.274  18.181   2.767
13890W        W86216  39.453  29.017   1.021
13891W        W86217  19.691  19.448  11.099
13892W        W86218  41.940  41.957   4.120
13893W        W86219  17.246  19.204   0.952
13894W        W86220  39.470   6.180   2.862
13895W        W86221  30.504  13.798   1.240
13896W        W86222  41.598  27.493   3.076
13897W        W86223  28.424  32.153   3.202
13898W        W86224  37.850   5.374   2.778
13899W        W86225  14.521  41.430   4.076
13900W        W86226  30.411  39.562  12.441
13901W        W86227  25.459  31.652  11.703
13902W        W86228  31.413  13.154  12.052
13903W        W86229  20.516  24.635   1.432
13904W        W86230  32.523  38.867   2.132
13905W        W86231  19.123  30.886   0.343
13906W        W86232  44.769  19.383  12.720
13907W        W86233  18.705   8.713  14.438
13908W        W86234  13.630  36.995  14.836
13909W        W86235  29.697  22.627   3.301
13910W        W86236  13.257  33.601   4.149
13911W        W86237  12.716  10.181   2.714
13912W        W86238  27.687  14.941   3.314
13913W        W86239  19.249  30.801   3.537
13914W        W86240  44.255  16.229  13.604
13915W        W86241  40.344  20.981   4.104
13916W        W86242   3.961  12.125  13.934
13917W        W86243  44.263  33.202  11.102
13918W        W86244  18.565  24.259  13.015
13919W        W86245  42.316  32.413  14.125
13920W        W86246  28.450  19.189  13.569
13921W        W86247  10.259  28.103   2.058
13922W        W86248  32.296  25.068   0.767
13923W        W86249  20.336  22.564  14.759
13924W        W86250  22.754  13.827  10.141
13925W        W86251   2.453  13.567   1.923
13926W        W86252  30.385  17.791  14.798
13927W        W86253  12.253  14.840   0.593
13928W        W86254  14.620  35.702  10.726
13929W        W86255  38.107  37.781  13.885
13930W        W86256  20.182  34.086  14.339
13931W        W86257   4.535  14.323   0.427
13932W        W86258   0.906  36.313   0.546
13933W        W86259  22.081  20.153   0.218
13934W        W86260  43.526  24.993   1.754
13935W        W86261  41.824  44.297   0.324
13936W        W86262  31.415   4.214   3.140
13937W        W86263  32.141   7.392  12.508
13938W        W86264   0.306  21.548  12.576
13939W        W86265   4.282  15.034   4.131
13940W        W86266   2.260  39.803  12.439
13941W        W86267  22.031  42.012  11.075
13942W        W86268   6.413  27.058  11.716
13943W        W86269  43.033  29.763  12.143
13944W        W86270  19.738   8.607   0.040
13945W        W86271  35.938  44.870  14.307
13946W        W86272  35.546  29.652   2.317
13947W        W86273  31.713  32.023  13.094
13948W        W86274   3.839  35.593  14.925
13949W        W86275  22.599  22.935   3.263
13950W        W86276  11.288  20.643  12.122
13951W        W86277  43.083   5.213  12.485
13952W        W86278  37.639   2.698   0.504
13953W        W86279  32.598  40.087   2.374
13954W        W86280   4.864  27.245   3.858
13955W        W86281  31.634  36.052   0.429
13956W        W86282  22.263  10.219  10.890
13957W        W86283  18.523  11.578   4.178
13958W        W86284  27.059   4.328  13.639
13959W        W86285  13.592  32.129   2.272
13960W        W86286   9.646  10.218   3.448
13961W        W86287  25.064  36.438   3.425
13962W        W86288   4.381  44.905  10.755
13963W        W86289  13.265  20.592   4.483
13964W        W86290  17.842  39.368  14.039
13965W        W86291  32.458  15.598   0.758
13966W        W86292  41.226  12.263  10.880
13967W        W86293  11.748  29.713   3.128
13968W        W86294   5.589   5.422   0.811
13969W        W86295   9.799  25.004  12.561
13970W        W86296  34.608  12.313  12.448
13971W        W86297  23.987  22.724  14.406
13972W        W86298  20.617  12.398   2.204
13973W        W86299  13.889  10.386  11.206
13974W        W86300  30.211  10.499   1.697
13975W        W86301  16.033  17.260  12.605
13976W        W86302  15.023  40.132   1.857
13977W        W86303  32.029  36.528   4.126
13978W        W86304   2.977  27.008   2.094
13979W        W86305  33.507   4.409   1.760
13980W        W86306  37.611  34.694   1.789
13981W        W86307   9.981  20.013  12.130
13982W        W86308  23.670  10.075  13.948
13983W        W86309  18.374  44.270   3.203
13984W        W86310  32.893  23.755  12.942
13985W        W86311  43.576   1.384   1.055
13986W        W86312  17.314  28.955  12.166
13987W        W86313  38.151  36.512   3.707
13988W        W86314  34.615   3.852   0.546
13989W        W86315  11.336  25.758   4.684
13990W        W86316  18.187  22.288  10.950
13991W        W86317   3.434  32.084   4.607
13992W        W86318  12.294  14.029   4.098
13993W        W86319  11.228  39.955   4.700
13994W        W86320  19.267  43.829  13.049
13995W        W86321  31.297  11.302  12.392
13996W        W86322  30.982  26.550  14.757
13997W        W86323  41.462  37.899   3.183
13998W        W86324  13.617   9.188  10.615
13999W        W86325  23.605  20.181   2.708
14000W        W86326   0.276  33.550   1.248
14001W        W86327   3.106   0.924  14.621
14002W        W86328   0.351  23.209   0.975
14003W        W86329  20.227  26.002  11.457
14004W        W86330  25.952  17.203  10.723
14005W        W86331  11.097  38.651   4.521
14006W        W86332   8.972  39.135   0.245
14007W        W86333  21.497  25.057   2.318
14008W        W86334  29.380  34.979  13.991
14009W        W86335  30.100   9.245   0.752
14010W        W86336  26.970  13.045   4.174
14011W        W86337  16.710  17.246   0.952
14012W        W86338   1.542  21.183  10.648
14013W        W86339  30.654  11.632  11.634
14014W        W86340  32.127  22.428   4.046
14015W        W86341   3.909   4.293   4.695
14016W        W86342   0.452   7.334   3.809
14017W        W86343  36.398   7.923  11.958
14018W        W86344   1.789  27.943  13.844
14019W        W86345  39.848  40.405  12.179
14020W        W86346  35.938  27.721  14.858
14021W        W86347   3.133  39.882   1.479
14022W        W86348   0.224  15.238   4.464
14023W        W86349  37.003   5.005  13.887
14024W        W86350  25.557   2.221   2.167
14025W        W86351  17.132   6.372   2.409
14026W        W86352  26.467  24.526   1.461
14027W        W86353   3.884  30.871   3.746
14028W        W86354   0.426  15.080  13.088
14029W        W86355  27.152  26.122   4.586
14030W        W86356   7.428   6.843  13.554
14031W        W86357  36.083   3.266  13.934
14032W        W86358   3.238  20.984  14.503
14033W        W86359  35.178  11.389   1.288
14034W        W86360  25.984  14.641  11.518
14035W        W86361  34.144  23.961  13.588
14036W        W86362  31.631  39.947  13.996
14037W        W86363   6.281  26.115   4.637
14038W        W86364  23.957  17.795   3.873
14039W        W86365  30.506  20.977  13.170
14040W        W86366  22.782  35.284   1.314
14041W        W86367  30.933  14.812  11.563
14042W        W86368  43.895  10.410   1.916
14043W        W86369   9.747  25.000  13.996
14044W        W86370  29.961  13.709  10.464
14045W        W86371  19.994  10.575   0.304
14046W        W86372  33.939  16.151   4.926
14047W        W86373  24.514  15.072   4.226
14048W        W86374  34.327   0.002  14.149
14049W        W86375  12.788   4.949  11.108
14050W        W86376  25.450  33.139  13.977
14051W        W86377  12.601  28.675   0.494
14052W        W86378  33.929  15.767   0.871
14053W        W86379  17.634  36.432   0.370
14054W        W86380   0.213  39.954  13.577
14055W        W86381  24.457  42.060  13.380
14056W        W86382  18.667  41.093  12.550
14057W        W86383  42.146   9.492   1.264
14058W        W86384  16.051  14.757  13.322
14059W        W86385   4.037   5.970   0.269
14060W        W86386  27.072   5.272  11.124
14061W        W86387  28.997  18.862   3.590
14062W        W86388   5.849  32.636  12.975
14063W        W86389  26.104  20.538  10.194
14064W        W86390  39.585  27.858  11.098
14065W        W86391  40.499   7.485  10.934
14066W        W86392  43.409  17.263  14.539
14067W        W86393  15.601  21.806   0.861
14068W        W86394   8.327  32.526  14.811
14069W        W86395  42.972  34.024  13.667
14070W        W86396  22.427  37.531   3.262
14071W        W86397  19.438  39.187  13.851
14072W        W86398  43.485  18.254   3.753
14073W        W86399  18.787  20.246  14.994
14074W        W86400  17.878  41.408  14.334
14075W        W86401  31.620  37.313   4.214
14076W        W86402   5.636  14.345  10.626
14077W        W86403  27.380  33.632  13.191
14078W        W86404  28.633  13.275   1.809
14079W        W86405  27.724   1.762  14.739
14080W        W86406  17.608  11.072   2.424
14081W        W86407  20.743  26.143  11.500
14082W        W86408  41.555  40.862   1.121
14083W        W86409  30.814  26.257   5.069
14084W        W86410  24.177  42.395   4.148
14085W        W86411  30.506  40.998  14.025
14086W        W86412  42.361  38.155  14.339
14087W        W86413  28.700   9.173   0.776
14088W        W86414   0.417  37.892  14.534
14089W        W86415  10.041  40.330  13.824
14090W        W86416  29.758   3.375  14.744
14091W        W86417  42.392  35.459  14.822
14092W        W86418  34.256  10.525   3.574
14093W        W86419  13.590   5.150  14.770
14094W        W86420  11.665  16.688   1.837
14095W        W86421  32.131  42.878  10.746
14096W        W86422  31.539  36.068   2.577
14097W        W86423   2.543  40.627  12.995
14098W        W86424   9.795  38.745   4.568
14099W        W86425  42.470  25.112  11.617
14100W        W86426   2.210   1.294   2.619
14101W        W86427  12.337  13.695  14.242
14102W        W86428  21.011  37.507  14.507
14103W        W86429  41.946  42.985  11.716
14104W        W86430  16.050  32.879   0.944
14105W        W86431  15.150   9.777  12.915
14106W        W86432  30.563  11.400   1.635
14107W        W86433  38.438  26.035   4.316
14108W        W86434   9.803  10.173   4.504
14109W        W86435  11.265  35.963  10.658
14110W        W86436  16.534   1.934  14.274
14111W        W86437  32.658  20.954   4.040
14112W        W86438   1.387  27.388   3.021
14113W        W86439  33.897  44.388   4.887
14114W        W86440   8.167  12.817  14.747
14115W        W86441  17.977  27.128  10.746
14116W        W86442  18.660   7.276   0.861
14117W        W86443  24.606   1.209  13.330
14118W        W86444  41.002  43.987   0.690
14119W        W86445  14.308  36.384  11.121
14120W        W86446  12.602  26.478   2.278
14121W        W86447  20.079  11.904  13.713
14122W        W86448  40.386  36.302  10.080
14123W        W86449   5.321   0.562   3.660
14124W        W86450   8.723  10.329   3.762
14125W        W86451  27.996  20.672  14.751
14126W        W86452   3.785  20.171   3.667
14127W        W86453  18.417  28.499  14.753
14128W        W86454  37.487  34.897   4.109
14129W        W86455  25.614  37.805   0.704
14130W        W86456  37.162  17.532   2.741
14131W        W86457   7.838  14.846  14.019
14132W        W86458   6.430  14.049   3.571
14133W        W86459  36.560   8.327   0.395
14134W        W86460  10.729  21.501  12.112
14135W        W86461  32.366  26.059   3.233
14136W        W86462  38.523  15.655   1.919
14137W        W86463  17.347  16.335   1.431
14138W        W86464   5.133  10.154   0.724
14139W        W86465  11.289  21.527   1.382
14140W        W86466  44.536  16.983   5.007
14141W        W86467  24.009  17.257  12.453
14142W        W86468  11.421   2.447  11.938
14143W        W86469  32.625  21.269   9.930
14144W        W86470  35.929  38.022   1.656
14145W        W86471  38.416  10.154   2.814
14146W        W86472  39.098  40.808  13.824
14147W        W86473  43.000  36.965  10.605
14148W        W86474  23.408  22.993  14.853
14149W        W86475   7.645   7.316  13.411
14150W        W86476  28.976  29.043  14.047
14151W        W86477  33.805  35.571  12.032
14152W        W86478  31.894  34.405   2.767
14153W        W86479   5.921  17.773   3.207
14154W        W86480  14.127  10.687   2.799
14155W        W86481  18.595   1.255  11.132
14156W        W86482  17.479  30.233  12.371
14157W        W86483  11.725  37.594   2.709
14158W        W86484  42.071  17.894   3.844
14159W        W86485  23.132   8.955   3.694
14160W        W86486   3.622  44.678   3.259
14161W        W86487  31.444  24.219   4.105
14162W        W86488  41.058   9.370   0.158
14163W        W86489  21.246  43.518   0.821
14164W        W86490  10.274  22.131   4.007
14165W        W86491  41.843  10.852  12.825
14166W        W86492  14.913  21.770  11.967
14167W        W86493  18.535   9.560   2.634
14168W        W86494   2.011  36.351  12.432
14169W        W86495  40.976  34.851   2.196
14170W        W86496  25.552   6.827  11.587
14171W        W86497   4.762  27.367  11.319
14172W        W86498  25.533  25.760   4.359
14173W        W86499  38.025  32.560  14.957
14174W        W86500  29.457  40.352   4.118
14175W        W86501  31.882  17.625  13.992
14176W        W86502  37.431  33.554   2.415
14177W        W86503   2.984  40.454   4.390
14178W        W86504  23.564  12.131  14.126
14179W        W86505  17.177   0.556   4.427
14180W        W86506  17.140  39.040  12.560
14181W        W86507   5.917  15.234  13.905
14182W        W86508  34.568   1.243  12.188
14183W        W86509  19.464  22.208  13.350
14184W        W86510  42.988  30.399  13.479
14185W        W86511  11.484   7.436   2.363
14186W        W86512  30.881   4.513   0.219
14187W        W86513   2.666  29.542  14.415
14188W        W86514  15.828  11.277  10.315
14189W        W86515   7.667  31.073  14.023
14190W        W86516  12.867  19.315   0.003
14191W        W86517   1.725  18.039   3.288
14192W        W86518  40.594   4.144   2.812
14193W        W86519   2.640  36.895  11.113
14194W        W86520  42.815  17.250   3.631
14195W        W86521  35.079  21.973  14.474
14196W        W86522  31.596  21.998   3.764
14197W        W86523  16.257  26.580  12.156
14198W        W86524   5.720   5.307   0.313
14199W        W86525   3.001  10.294   0.175
14200W        W86526   9.135   2.222  14.804
14201W        W86527  39.771  23.437  11.148
14202W        W86528  21.566  43.956   1.579
14203W        W86529  39.817  16.117  13.076
14204W        W86530  23.450  37.127  10.699
14205W        W86531  29.136  29.963   2.970
14206W        W86532   7.943  17.201  13.879
14207W        W86533   2.949  42.718  11.182
14208W        W86534  28.939  18.588   0.050
14209W        W86535   1.158  13.422  14.889
14210W        W86536  17.352  26.196  13.960
14211W        W86537  33.626   5.301  12.352
14212W        W86538  25.289  42.799  11.208
14213W        W86539  39.021   4.930   1.678
14214W        W86540  19.745  41.267  10.908
14215W        W86541   4.691  40.815   3.699
14216W        W86542   1.515  24.786  14.877
14217W        W86543  20.079   1.466   1.260
14218W        W86544   0.296  34.645  14.379
14219W        W86545  27.172   9.421   4.454
14220W        W86546  44.282  42.343  10.583
14221W        W86547  40.288  36.533  13.343
14222W        W86548  13.756  42.864   2.368
14223W        W86549  23.109  12.131   4.687
14224W        W86550  21.577  20.219  14.025
14225W        W86551  27.733  44.768  12.944
14226W        W86552  27.278  17.329   2.849
14227W        W86553  15.382  16.677  13.121
14228W        W86554  10.169   2.487   1.238
14229W        W86555  28.545  14.678  14.640
14230W        W86556  37.997  13.090   4.587
14231W        W86557  37.287  27.194  12.569
14232W        W86558  24.588   3.767  12.164
14233W        W86559   2.790   5.303   2.285
14234W        W86560  10.400   0.811   4.315
14235W        W86561   2.750   6.352   3.023
14236W        W86562  33.455   8.721   0.927
14237W        W86563  35.402  26.040  12.530
14238W        W86564  20.707  36.979   4.977
14239W        W86565   4.971  36.992  11.569
14240W        W86566   6.844   4.701   4.642
14241W        W86567   2.687  41.903  11.407
14242W        W86568   2.687  17.341  13.494
14243W        W86569  20.650   5.389   1.122
14244W        W86570   2.268   1.369  12.618
14245W        W86571   9.627  40.339  14.860
14246W        W86572  23.976  31.955  11.372
14247W        W86573   9.169   5.505   2.283
14248W        W86574  14.754  18.535  11.297
14249W        W86575  36.311  36.860   3.761
14250W        W86576  18.305  21.099  11.604
14251W        W86577  36.471  32.675  13.514
14252W        W86578   7.222  11.516   1.990
14253W        W86579  37.354  28.955   0.456
14254W        W86580  33.502  40.405   4.167
14255W        W86581  31.704  31.519  10.836
14256W        W86582  44.358  29.935  12.002
14257W        W86583  33.908  23.577   2.286
14258W        W86584  15.503  11.655   4.107
14259W        W86585   1.812  20.176   4.603
14260W        W86586   7.187  21.921  13.942
14261W        W86587   9.159  36.847   0.421
14262W        W86588   0.680  27.025  12.395
14263W        W86589  20.899  30.956  11.117
14264W        W86590  40.983  18.770  14.891
14265W        W86591  14.597  34.515  14.757
14266W        W86592  39.024  39.071   0.818
14267W        W86593   6.955  23.666  14.401
14268W        W86594  37.519  36.937   4.568
14269W        W86595  24.446  14.160   2.693
14270W        W86596  16.767  24.616   3.246
14271W        W86597   6.390  10.132  11.647
14272W        W86598  28.730  12.685   2.764
14273W        W86599  16.735  33.013  10.739
14274W        W86600  26.550   4.421   4.036
14275W        W86601   7.685  42.301   2.404
14276W        W86602  32.983  40.062  10.660
14277W        W86603  41.273  38.361  12.579
14278W        W86604  22.163  25.530   3.746
14279W        W86605   0.366  26.543  14.398
14280W        W86606  22.727  36.534  13.676
14281W        W86607  13.785  33.386   1.478
14282W        W86608   0.768   6.190   3.925
14283W        W86609  16.826  32.570  11.529
14284W        W86610  24.032  43.305   2.226
14285W        W86611   6.170  37.075  12.560
14286W        W86612  32.072  33.576   0.880
14287W        W86613  25.712  18.972   3.966
14288W        W86614   1.574   1.355   1.252
14289W        W86615  39.442   3.092  10.740
14290W        W86616   2.205   9.211   5.043
14291W        W86617  26.155  44.953  13.884
14292W        W86618  34.365   5.189   3.675
14293W        W86619   7.679   9.128  12.202
14294W        W86620  35.087  34.392   2.876
14295W        W86621  21.640  22.688   3.581
14296W        W86622  44.797  26.699  13.555
14297W        W86623  33.309  12.347  12.482
14298W        W86624   5.671  10.588  12.498
14299W        W86625  36.923  27.704  13.761
14300W        W86626   7.411   9.906   4.366
14301W        W86627  16.986  37.759   0.252
14302W        W86628  13.415   8.196   0.052
14303W        W86629  43.844  15.272   4.652
14304W        W86630  44.530  42.435   2.643
14305W        W86631  44.245  16.056  12.041
14306W        W86632   2.416  32.367   1.641
14307W        W86633  30.421  28.507  11.104
14308W        W86634  31.143  38.806  11.035
14309W        W86635   7.579  40.377   0.319
14310W        W86636  18.285  28.458   4.267
14311W        W86637  16.040  25.631  12.965
14312W        W86638   5.171   0.976   4.694
14313W        W86639  34.562   6.276  10.677
14314W        W86640  25.475   2.415  11.114
14315W        W86641  15.941  12.149  13.541
14316W        W86642  28.116   9.593  12.989
14317W        W86643   1.707  36.807   3.051
14318W        W86644  40.972  17.667   0.889
14319W        W86645  25.257   0.753  12.481
14320W        W86646  35.475  11.500   5.000
14321W        W86647  17.640  19.204   2.463
14322W        W86648  24.415  38.939  14.026
14323W        W86649  32.498   7.046  13.415
14324W        W86650   6.359   4.503  14.926
14325W        W86651  40.793  25.518  11.579
14326W        W86652  37.734  21.088   3.769
14327W        W86653  16.822  27.569   1.864
14328W        W86654  44.759  40.581   0.357
14329W        W86655  40.868  32.647  13.308
14330W        W86656  35.627   1.872  14.419
14331W        W86657   0.408  16.465  13.061
14332W        W86658  22.490  17.240  12.873
14333W        W86659  12.590   9.354  14.554
14334W        W86660  42.231  33.446   3.918
14335W        W86661  42.102  35.943  14.816
14336W        W86662  41.948  17.996  11.088
14337W        W86663  35.533  13.037   0.457
14338W        W86664  42.491  31.594   4.579
14339W        W86665   8.393  10.248  11.468
14340W        W86666  10.398   0.852  14.520
14341W        W86667  31.990   3.917  13.445
14342W        W86668  28.170  28.589   4.664
14343W        W86669  20.998  35.837   3.943
14344W        W86670  18.146  14.423   3.416
14345W        W86671  20.287  15.840  14.535
14346W        W86672  12.329  19.478  11.154
14347W        W86673   0.893  33.462  14.128
14348W        W86674  10.538  30.930   0.039
14349W        W86675  19.514   6.405   1.730
14350W        W86676   3.685  28.642   1.369
14351W        W86677  14.534  35.864  13.413
14352W        W86678  39.553  44.666  13.040
14353W        W86679  25.415  34.913  12.041
14354W        W86680  38.082  20.246   3.903
14355W        W86681   7.380  11.612   0.669
14356W        W86682  11.884  39.402  13.512
14357W        W86683  34.495  44.364  13.525
14358W        W86684   9.061  23.920   4.973
14359W        W86685   3.643  28.130   0.269
14360W        W86686  11.114  29.421   2.252
14361W        W86687  36.381  29.913   2.003
14362W        W86688  36.057   4.526  13.374
14363W        W86689  21.162  16.025   4.095
14364W        W86690  33.343  21.731  12.905
14365W        W86691   3.924  43.329  11.960
14366W        W86692   9.105  35.747  13.471
14367W        W86693   3.246  27.002   4.106
14368W        W86694  14.749  30.126   3.668
14369W        W86695   0.856  31.584  14.324
14370W        W86696  35.853  27.966  11.144
14371W        W86697   5.786  43.720  14.879
14372W        W86698  13.797   6.949   0.349
14373W        W86699   6.244  18.536  10.996
14374W        W86700  26.959  24.513   2.927
14375W        W86701  25.516   5.991   2.673
14376W        W86702  19.752  17.009  10.674
14377W        W86703  21.044  16.286  12.678
14378W        W86704  42.587  14.579  10.557
14379W        W86705   7.592   8.154  13.728
14380W        W86706  33.061   9.707  11.465
14381W        W86707  30.911  21.566   1.872
14382W        W86708  32.304  17.146   1.941
14383W        W86709  38.163  17.034  13.017
14384W        W86710  44.131  27.159   4.162
14385W        W86711  12.082  31.049  14.403
14386W        W86712  41.498  20.066   0.235
14387W        W86713   7.193  31.484  13.525
14388W        W86714  18.291   0.310  14.192
14389W        W86715   2.076  22.330   1.666
14390W        W86716  12.319  21.238   3.643
14391W        W86717  33.858  40.255   4.500
14392W        W86718  22.254  37.026  13.078
14393W        W86719   0.569  11.106  13.699
14394W        W86720  20.612  41.099  10.574
14395W        W86721  18.444  16.144   4.066
14396W        W86722  26.369  42.650  14.812
14397W        W86723  40.520  28.255  12.563
14398W        W86724  41.962  18.651  10.465
14399W        W86725  23.707  16.494   1.293
14400W        W86726  28.168  32.693  14.311
14401W        W86727  22.719  21.720   3.605
14402W        W86728  36.313  39.021  14.996
14403W        W86729  18.449  29.685  13.305
14404W        W86730   6.442  19.468   0.988
14405W        W86731   2.548  36.474  14.729
14406W        W86732  26.947  20.552  14.930
14407W        W86733  32.447  17.995   2.215
14408W        W86734   4.828   8.801   0.896
14409W        W86735  37.035  38.838   1.304
14410W        W86736   3.430  41.965  12.041
14411W        W86737  17.691  13.284   0.306
14412W        W86738  17.180  24.002   3.846
14413W        W86739   4.305  15.324   4.569
14414W        W86740  37.792  18.671   3.229
14415W        W86741   4.730  31.943   3.790
14416W        W86742  40.316  31.540   3.447
14417W        W86743  43.010  22.524  13.926
14418W        W86744  39.637  13.916   3.771
14419W        W86745  20.795  17.806   3.425
14420W        W86746   7.773  38.047   0.242
14421W        W86747  13.306  22.460   1.249
14422W        W86748  24.257  17.402   5.580
14423W        W86749  30.704  36.086  10.660
14424W        W86750  15.747  22.997  11.640
14425W        W86751   5.440   0.629   4.158
14426W        W86752  15.213  40.459   3.280
14427W        W86753  25.704  16.678  13.046
14428W        W86754  29.505   2.798   0.421
14429W        W86755   2.372  15.288  14.692
14430W        W86756   4.860  18.663  14.779
14431W        W86757  19.797  31.947   2.198
14432W        W86758  15.220  43.276   4.112
14433W        W86759  42.466  21.197   2.713
14434W        W86760  44.984   4.230  12.014
14435W        W86761   5.080   5.407  12.126
14436W        W86762  19.255  12.207   2.903
14437W        W86763  43.069  12.808  12.172
14438W        W86764  12.848  17.090  11.741
14439W        W86765  12.158  22.437   1.931
14440W        W86766  15.331  18.560   1.387
14441W        W86767  16.046  29.190   4.585
14442W        W86768  10.927  10.410  11.647
14443W        W86769  15.351  40.620  11.576
14444W        W86770  35.957  33.337   4.914
14445W        W86771  26.033   0.323   1.826
14446W        W86772  22.445  11.332   3.806
14447W        W86773  30.952  24.517   2.227
14448W        W86774  44.074  31.880   0.440
14449W        W86775  42.925  15.959   3.983
14450W        W86776   6.854  35.156  14.409
14451W        W86777  32.237  39.271  14.506
14452W        W86778  18.294  44.977   2.860
14453W        W86779  41.505   9.710  11.179
14454W        W86780  35.398  11.429   4.242
14455W        W86781  42.067  16.835  14.812
14456W        W86782  24.297  36.559  14.962
14457W        W86783   4.731  24.804   2.253
14458W        W86784   6.428  42.457  14.298
14459W        W86785  33.516  17.249  10.884
14460W        W86786   5.491  35.358   3.328
14461W        W86787  40.804  33.057   1.298
14462W        W86788  31.653  27.205  11.934
14463W        W86789  21.252  34.642   2.608
14464W        W86790  10.024  25.671  14.358
14465W        W86791  24.351  39.944   5.483
14466W        W86792  30.551  22.781  14.409
14467W        W86793  44.964  33.906   0.072
14468W        W86794  18.114   3.438   2.746
14469W        W86795  43.976  13.064   0.675
14470W        W86796  32.460  12.548   5.215
14471W        W86797  12.309   5.987  11.628
14472W        W86798  38.396  29.565   2.319
14473W        W86799  19.772   4.717   4.345
14474W        W86800  37.290  12.073   4.132
14475W        W86801  15.676  31.166  13.167
14476W        W86802  25.269  39.817   0.396
14477W        W86803  17.019  43.356   2.773
14478W        W86804  15.404  35.897   9.798
14479W        W86805  43.051  42.433  11.179
14480W        W86806  23.132   0.991   0.814
14481W        W86807  10.598  41.390   1.309
14482W        W86808  43.734  35.017   0.793
14483W        W86809   2.773  37.497   2.396
14484W        W86810  20.214  22.526   2.268
14485W        W86811  33.940   4.482  11.900
14486W        W86812  15.503  24.240  14.875
14487W        W86813  38.278   1.321  14.281
14488W        W86814  10.631  42.254  13.180
14489W        W86815  27.468  17.710   3.898
14490W        W86816   9.238  16.317  12.029
14491W        W86817   9.482   8.644  13.994
14492W        W86818   9.606  23.491  13.840
14493W        W86819  20.247  32.823   1.329
14494W        W86820  14.882   6.234   1.801
14495W        W86821  41.102  12.006  13.387
14496W        W86822  41.417  35.496   0.247
14497W        W86823   9.934  16.339   4.072
14498W        W86824  36.364  37.505   4.528
14499W        W86825  32.909  28.024   4.468
14500W        W86826  14.145  18.576   1.829
14501W        W86827  27.010  20.612   1.961
14502W        W86828  19.057   6.325   4.088
14503W        W86829  19.058  31.202   3.761
14504W        W86830  22.690   7.085  14.733
14505W        W86831  43.168  19.819  13.482
14506W        W86832  17.985  37.507   4.726
14507W        W86833  31.033   4.907  10.711
14508W        W86834   1.358   3.309   1.716
14509W        W86835  44.056  15.058   5.086
14510W        W86836  32.201   6.401   4.558
14511W        W86837  39.889  31.669   3.177
14512W        W86838   5.952   4.366  12.659
14513W        W86839  35.795  15.115  13.101
14514W        W86840  34.444  13.170   2.414
14515W        W86841  13.554  23.072  13.959
14516W        W86842  25.909  28.646  11.075
14517W        W86843  26.684  32.426   3.815
14518W        W86844  31.167  31.432   1.158
14519W        W86845  25.988   0.215   2.824
14520W        W86846  42.311  31.413  10.807
14521W        W86847   6.229  31.680   0.411
14522W        W86848   4.198  17.216  13.083
14523W        W86849   7.970  18.710  10.989
14524W        W86850  16.301   2.135  11.991
14525W        W86851  36.934  21.006  13.413
14526W        W86852  43.457   4.423  11.934
14527W        W86853  23.178   6.897   4.628
14528W        W86854  14.847  42.279   0.886
14529W        W86855  23.410   8.639  12.894
14530W        W86856  11.515  11.161   1.542
14531W        W86857  36.837  26.527  13.518
14532W        W86858  26.410  32.512   1.767
14533W        W86859   5.966  40.991   4.010
14534W        W86860   5.416  26.330   2.790
14535W        W86861  39.306  11.357  13.558
14536W        W86862   3.307   5.659  11.427
14537W        W86863  43.773  27.360   0.699
14538W        W86864  36.091  19.245  14.911
14539W        W86865  13.759   8.139  11.299
14540W        W86866   6.386   0.903   0.254
14541W        W86867  39.275  43.861  10.730
14542W        W86868  31.059  40.891  10.364
14543W        W86869  16.419   4.889   3.958
14544W        W86870  40.052  28.380  14.821
14545W        W86871   5.181  23.160  11.942
14546W        W86872  31.134   1.214   2.274
14547W        W86873  18.410   6.380   2.768
14548W        W86874  14.326  24.744   1.935
14549W        W86875   8.390   4.722  10.604
14550W        W86876  11.186   7.887  14.621
14551W        W86877   9.792   7.696   0.834
14552W        W86878   0.513  30.132  14.450
14553W        W86879  26.505   3.904   3.220
14554W        W86880  11.549  26.906   9.739
14555W        W86881  23.057  14.843  11.548
14556W        W86882   3.337  35.951   4.029
14557W        W86883  14.360   4.645   2.300
14558W        W86884  23.103   1.925   0.468
14559W        W86885  43.816  23.227   0.732
14560W        W86886   1.864  39.989  13.847
14561W        W86887   4.022  31.575  10.658
14562W        W86888   3.495  33.062  10.805
14563W        W86889  12.197   8.425   1.857
14564W        W86890  10.272  40.454   4.946
14565W        W86891   4.534  38.378   4.954
14566W        W86892  37.072  13.685   0.473
14567W        W86893  43.523  28.934   3.814
14568W        W86894  30.667  32.123  13.913
14569W        W86895  13.047  34.370  10.165
14570W        W86896  11.805  17.232  11.988
14571W        W86897  32.917   0.935   2.972
14572W        W86898  11.271   0.676  12.672
14573W        W86899  29.125  11.045  14.623
14574W        W86900  18.803   0.754   1.602
14575W        W86901  16.571   7.307   3.817
14576W        W86902  20.784   1.880  12.725
14577W        W86903  24.285  26.935   3.342
14578W        W86904  26.489  24.555   0.498
14579W        W86905  36.891  41.031  11.457
14580W        W86906  23.793  11.179  13.104
14581W        W86907  30.182  19.034  11.598
14582W        W86908   3.883   8.661   5.046
14583W        W86909  26.219  44.384   1.722
14584W        W86910  33.566  15.304   4.980
14585W        W86911  41.973  42.275   2.923
14586W        W86912   1.427  27.298   0.838
14587W        W86913  37.473  27.024  13.490
14588W        W86914  10.380  35.415  10.678
14589W        W86915  13.370  40.509  11.581
14590W        W86916  38.482  42.620  12.648
14591W        W86917  42.832  18.557   3.855
14592W        W86918  44.608  38.599   2.219
14593W        W86919  43.080  29.247  12.201
14594W        W86920  25.848  41.329  14.047
14595W        W86921  43.045  14.376  11.652
14596W        W86922  27.377  26.451  12.509
14597W        W86923  16.194   4.169   1.148
14598W        W86924  26.507  38.834   0.836
14599W        W86925  28.167  25.740  13.994
14600W        W86926  29.051  21.546  11.467
14601W        W86927  29.659  39.093   3.579
14602W        W86928  44.764  40.470  12.012
14603W        W86929   9.389  23.785  14.536
14604W        W86930   3.547  37.994  13.346
14605W        W86931  31.737  20.230  11.244
14606W        W86932  16.549  38.698  14.002
14607W        W86933  41.110  20.283   0.554
14608W        W86934  29.522  15.335  11.557
14609W        W86935  38.828  43.241  14.337
14610W        W86936  18.148  38.596  10.733
14611W        W86937  40.678  12.345  14.278
14612W        W86938  40.872   6.823  14.771
14613W        W86939  30.270  33.968  11.165
14614W        W86940  39.577  12.103   4.071
14615W        W86941  12.487  39.467   0.928
14616W        W86942   4.209   3.252  14.380
14617W        W86943  39.449  40.993  10.405
14618W        W86944  20.064  12.641  10.737
14619W        W86945   5.451  17.108  11.098
14620W        W86946   3.228  33.665  12.550
14621W        W86947  16.728  25.695  14.345
14622W        W86948  28.117  32.156  11.710
14623W        W86949  39.724  29.555  14.089
14624W        W86950  41.766   1.855  14.602
14625W        W86951  18.983  15.816   1.407
14626W        W86952  13.732  27.264   1.299
14627W        W86953   7.936  25.190   3.702
14628W        W86954   4.699   3.727   3.066
14629W        W86955   2.984  25.716   2.446
14630W        W86956  24.519  14.401  13.479
14631W        W86957  37.938   6.766   3.281
14632W        W86958  32.180  29.755  14.940
14633W        W86959  30.141  24.897  14.795
14634W        W86960  29.573  27.646   5.396
14635W        W86961   2.755  24.989  13.838
14636W        W86962  12.515   3.655   1.238
14637W        W86963   8.597  10.934   9.909
14638W        W86964   2.134   1.976   2.277
14639W        W86965  30.883  20.516   1.769
14640W        W86966   4.336  19.256   1.189
14641W        W86967  22.149  35.092   0.949
14642W        W86968   2.364  17.191  11.179
14643W        W86969  40.982  29.820  12.919
14644W        W86970  30.922   6.869  14.681
14645W        W86971   0.986   3.895  13.804
14646W        W86972   2.342   4.825   4.854
14647W        W86973   8.966  14.412  12.017
14648W        W86974  28.706  28.721   2.064
14649W        W86975  23.101  35.572  11.494
14650W        W86976  12.037  37.512   0.765
14651W        W86977  36.830  43.790  14.256
14652W        W86978   3.098  24.155   4.795
14653W        W86979  36.492  42.744  11.061
14654W        W86980  15.492  26.933   0.335
14655W        W86981  33.863  12.797  12.926
14656W        W86982   4.325   7.214  13.328
14657W        W86983  36.588  14.823   2.494
14658W        W86984  28.508  17.166  14.307
14659W        W86985  43.304  35.558  14.376
14660W        W86986  21.270   7.363   2.566
14661W        W86987   6.654  44.273  12.859
14662W        W86988  24.092  26.403  11.541
14663W        W86989  34.797  34.109  11.040
14664W        W86990   7.463  42.040   2.828
14665W        W86991  25.423  39.458   2.938
14666W        W86992  19.936  35.514   2.798
14667W        W86993  26.108  33.010  13.007
14668W        W86994   0.241  20.379  14.820
14669W        W86995   3.383  18.059   0.501
14670W        W86996  40.985   0.983  13.729
14671W        W86997  36.313  15.153  12.968
14672W        W86998  40.039  25.175  13.935
14673W        W86999   1.485  18.022  11.054
14674W        W87000  38.556  15.804  12.382
14675W        W87001  18.547  25.582  12.898
14676W        W87002  20.127  17.223  12.096
14677W        W87003  17.691  35.468   1.372
14678W        W87004  10.272  30.350   4.097
14679W        W87005   6.479  31.830  14.530
14680W        W87006  37.107  44.349   5.064
14681W        W87007   0.169  33.091  14.465
14682W        W87008   3.244   7.571  11.159
14683W        W87009   8.440  38.034   1.134
14684W        W87010  40.228  31.980  10.171
14685W        W87011   9.837  17.223  11.119
14686W        W87012  37.123  35.560   5.065
14687W        W87013  39.225  17.631  11.689
14688W        W87014  33.592  18.105  10.785
14689W        W87015  19.800   6.494  10.581
14690W        W87016  12.377  17.169  11.517
14691W        W87017  41.462  29.839  11.631
14692W        W87018  32.949  35.869  12.935
14693W        W87019  43.355  18.328  13.430
14694W        W87020   2.398   1.943   3.598
14695W        W87021  25.468  13.748   0.388
14696W        W87022  30.691  34.906   4.941
14697W        W87023  29.920  44.924  10.349
14698W        W87024  17.197  43.203  14.907
14699W        W87025  29.038   3.726   2.840
14700W        W87026  18.018  15.212  14.757
14701W        W87027  38.030  33.060   0.730
14702W        W87028  39.276  22.039   3.187
14703W        W87029  19.114  43.000   1.391
14704W        W87030  22.455  23.098  11.623
14705W        W87031   8.307  26.000   1.908
14706W        W87032  36.330   7.286   1.332
14707W        W87033  15.251  34.643  11.119
14708W        W87034  36.564  14.358   0.035
14709W        W87035  18.724  14.436   4.565
14710W        W87036  33.560   6.133  12.409
14711W        W87037   7.229  28.208  12.348
14712W        W87038  22.102  40.981  10.539
14713W        W87039  20.051  25.447  12.306
14714W        W87040  33.571  13.670   0.159
14715W        W87041  43.242  14.792   2.661
14716W        W87042  39.877  25.466   2.392
14717W        W87043  36.946  37.927  13.995
14718W        W87044  35.959  26.987  14.454
14719W        W87045   6.203   7.942   4.266
14720W        W87046  34.121  43.523  11.713
14721W        W87047  21.727  32.161   0.235
14722W        W87048   8.811  25.221   0.545
14723W        W87049  37.936  33.751  13.005
14724W        W87050  14.168  38.423  13.695
14725W        W87051   4.294  41.941   4.567
14726W        W87052  43.838  24.109  10.748
14727W        W87053  15.021  43.712   0.554
14728W        W87054   3.287  34.056  11.634
14729W        W87055  22.143  43.368   2.231
14730W        W87056  34.172  20.605   1.715
14731W        W87057  39.371   4.011  10.500
14732W        W87058   7.119  19.144  13.296
14733W        W87059   8.777  20.057  14.306
14734W        W87060  15.310  36.283   2.728
14735W        W87061   9.453  28.485   3.279
14736W        W87062  39.329  32.847  11.105
14737W        W87063  23.468  28.558  12.011
14738W        W87064  10.293  12.720   3.349
14739W        W87065  26.648  24.807  11.348
14740W        W87066  13.832  18.161  13.740
14741W        W87067  44.572  13.093  11.046
14742W        W87068  42.432   4.457  11.661
14743W        W87069  34.865  44.018  12.175
14744W        W87070  18.520  11.879  11.157
14745W        W87071  13.109   4.763   2.747
14746W        W87072  27.644   4.584  14.918
14747W        W87073   7.225   7.214   4.498
14748W        W87074  39.932  36.610  14.344
14749W        W87075  44.308  24.089   2.986
14750W        W87076  25.566  29.739  12.237
14751W        W87077  44.409  23.623   1.394
14752W        W87078  35.622  27.702   3.548
14753W        W87079  24.360  20.345  12.456
14754W        W87080  22.046  28.390  10.767
14755W        W87081  11.895   0.923   4.614
14756W        W87082   9.375  44.631   2.156
14757W        W87083  40.351  38.376   1.873
14758W        W87084   9.580  28.691   4.585
14759W        W87085   7.873   5.788   0.428
14760W        W87086  22.216  39.540   0.869
14761W        W87087  34.012  17.644  12.006
14762W        W87088  28.678  12.367  10.651
14763W        W87089   7.758  33.995  13.891
14764W        W87090  15.706  24.659   3.380
14765W        W87091  17.098  20.328  11.688
14766W        W87092   4.855  33.165   3.274
14767W        W87093  32.624  41.427   0.505
14768W        W87094   9.673  43.026  10.777
14769W        W87095   4.470   5.499   3.645
14770W        W87096  29.630   8.056  11.583
14771W        W87097  20.013  43.006  11.989
14772W        W87098  24.719  17.432   0.407
14773W        W87099   5.380  13.234   3.946
14774W        W87100  41.397  44.578   0.275
14775W        W87101  37.051  22.448  12.013
14776W        W87102  10.358   8.700   4.366
14777W        W87103  16.301  35.827   3.537
14778W        W87104   1.601  35.944   4.761
14779W        W87105  32.038  18.578   4.560
14780W        W87106   2.948   1.572   1.178
14781W        W87107  40.003  28.021   1.849
14782W        W87108  26.037  36.164  14.305
14783W        W87109  41.556  14.066   1.196
14784W        W87110  43.499  40.253   2.689
14785W        W87111  44.322   3.211   0.854
14786W        W87112  43.243  22.571  11.156
14787W        W87113  27.549  10.693   3.982
14788W        W87114  27.106  14.315   3.158
14789W        W87115  20.386  31.840   0.464
14790W        W87116  38.400  38.767   4.325
14791W        W87117   1.942  15.951   2.398
14792W        W87118   0.770   6.460  11.565
14793W        W87119   3.297  12.345   5.473
14794W        W87120   6.778  37.388  14.922
14795W        W87121  41.494   7.412  11.251
14796W        W87122  43.378  40.447   2.161
14797W        W87123  38.984  18.717  14.426
14798W        W87124  22.479  37.361   2.367
14799W        W87125   5.297   2.902   1.258
14800W        W87126  24.291  24.003  13.396
14801W        W87127   2.733  21.702   1.457
14802W        W87128  28.601   7.153   2.744
14803W        W87129  33.366   1.218   2.849
14804W        W87130  36.545  21.648   3.595
14805W        W87131  43.551  40.342  11.521
14806W        W87132  31.639  44.670  12.135
14807W        W87133  31.647  39.581  13.046
14808W        W87134  35.958   7.668   3.174
14809W        W87135  11.668  29.046   0.961
14810W        W87136   9.201  42.843   3.180
14811W        W87137  18.024  24.414   2.303
14812W        W87138  23.102  34.158  11.253
14813W        W87139   2.419   2.110  10.627
14814W        W87140  10.529   4.725  12.164
14815W        W87141  22.688   7.634   3.586
14816W        W87142  15.300  28.982  11.435
14817W        W87143  42.919  30.856  14.420
14818W        W87144  22.581  30.321   5.002
14819W        W87145  20.527  28.010   3.767
14820W        W87146  13.083  35.884  12.416
14821W        W87147  24.548  26.509  14.850
14822W        W87148  33.502  15.758  12.019
14823W        W87149  33.557  43.530  11.151
14824W        W87150   0.693   5.709  14.357
14825W        W87151  13.290  17.102  12.041
14826W        W87152  11.759  32.517  11.942
14827W        W87153  40.758  27.942  13.235
14828W        W87154  11.884  25.187  13.476
14829W        W87155  13.329   6.161   1.953
14830W        W87156   0.181  17.296  14.896
14831W        W87157  23.766   2.241   1.182
14832W        W87158  27.233  43.034   0.560
14833W        W87159   0.088  38.349   2.128
14834W        W87160  20.527  18.385   4.235
14835W        W87161  31.412  34.575  12.949
14836W        W87162  30.133  19.680   0.278
14837W        W87163  11.099  20.170   3.831
14838W        W87164  34.681  13.180  13.392
14839W        W87165  13.738  39.579  14.974
14840W        W87166  21.934  15.485   5.057
14841W        W87167  27.578  31.921   4.146
14842W        W87168   9.297  41.312   3.279
14843W        W87169  42.443  38.919   0.453
14844W        W87170   4.346  32.935  12.597
14845W        W87171  16.737   1.501   0.525
14846W        W87172  43.433  16.321  13.028
14847W        W87173  20.181  33.478  10.149
14848W        W87174  10.405  35.029   3.137
14849W        W87175   4.419  36.337  11.967
14850W        W87176  38.831  33.482   0.440
14851W        W87177   1.352  31.061   1.275
14852W        W87178   6.318   4.194  14.466
14853W        W87179  35.778  31.371   1.418
14854W        W87180   9.657  32.469  14.025
14855W        W87181  27.310  38.434  11.929
14856W        W87182  22.702   1.448   4.309
14857W        W87183  25.793   2.868   0.172
14858W        W87184  35.860  37.957  11.610
14859W        W87185  32.973  28.842   4.664
14860W        W87186  34.001  19.078   1.336
14861W        W87187  27.015  15.061   1.321
14862W        W87188   4.415   3.717  11.757
14863W        W87189  17.816  28.135   3.275
14864W        W87190  25.543  41.264   2.153
14865W        W87191  31.114   8.497   0.161
14866W        W87192   5.993  18.056   0.328
14867W        W87193  42.865   5.362   1.813
14868W        W87194   8.931  35.813  12.026
14869W        W87195  33.610  25.767  14.859
14870W        W87196  30.324  30.402  14.315
14871W        W87197   2.753   8.730  13.348
14872W        W87198  44.829  33.944  13.567
14873W        W87199  34.056   0.497  11.880
14874W        W87200  42.935  20.236  14.307
14875W        W87201  25.647  13.323   0.775
14876W        W87202   2.459  26.329   0.005
14877W        W87203  35.643  20.624  13.663
14878W        W87204  20.439  23.529  12.925
14879W        W87205  22.756  37.853  11.168
14880W        W87206  44.994  26.972   0.182
14881W        W87207   0.168  33.969   2.119
14882W        W87208  13.537   6.437  14.720
14883W        W87209  28.634   4.681  13.989
14884W        W87210  41.013  12.699   1.461
14885W        W87211  42.266  20.535  14.395
14886W        W87212   0.461  43.383  11.235
14887W        W87213  40.257  38.878  10.237
14888W        W87214  28.510  44.412   0.393
14889W        W87215  30.640   3.400  12.040
14890W        W87216  28.963  13.418   3.642
14891W        W87217  15.841  37.902   1.902
14892W        W87218  37.540   6.739  10.719
14893W        W87219  25.773  33.574   3.597
14894W        W87220   4.926   0.225   1.379
14895W        W87221  43.879   6.381   2.748
14896W        W87222  24.203  22.056  14.990
14897W        W87223  12.739  32.627   2.214
14898W        W87224   5.586  24.214  11.682
14899W        W87225  21.188  13.018  14.903
14900W        W87226  38.344   1.462   1.858
14901W        W87227  20.241  29.984   1.762
14902W        W87228  22.053   7.825  14.458
14903W        W87229  31.507  40.568  13.311
14904W        W87230  44.872  31.880  12.791
14905W        W87231  43.542  43.406   4.537
14906W        W87232   1.828  29.152  13.572
14907W        W87233   8.771  25.795  11.520
14908W        W87234  43.974   3.356  14.976
14909W        W87235   4.814  10.837  10.688
14910W        W87236  24.116  28.241  11.131
14911W        W87237   1.875   8.287   4.337
14912W        W87238   0.419  10.450  12.124
14913W        W87239  40.285   8.290  11.132
14914W        W87240   6.292   5.386   0.044
14915W        W87241  32.342  13.241   2.236
14916W        W87242  33.380   4.308   1.273
14917W        W87243   0.903  30.104  12.562
14918W        W87244  39.062  10.796   4.192
14919W        W87245  28.984   7.425   3.685
14920W        W87246  17.066  19.559  13.750
14921W        W87247  17.097  10.145   1.273
14922W        W87248  34.032  22.027  15.000
14923W        W87249  12.325  37.495   4.065
14924W        W87250  43.679  37.581   0.630
14925W        W87251  12.360  16.905  11.072
14926W        W87252  30.949  35.349   2.866
14927W        W87253   0.557  42.825   3.333
14928W        W87254  29.054  28.451   5.527
14929W        W87255  24.125  27.238  11.219
14930W        W87256   7.629  39.642  11.559
14931W        W87257  36.964  20.191  12.460
14932W        W87258  20.277  39.386  11.704
14933W        W87259  17.357  19.878   3.612
14934W        W87260  37.144  23.226   1.881
14935W        W87261  44.511  30.926  12.900
14936W        W87262   6.424  15.311   4.673
14937W        W87263  24.292  18.170  14.865
14938W        W87264  25.678  42.942  13.413
14939W        W87265  43.372  28.920  10.963
14940W        W87266  39.316  12.124  14.972
14941W        W87267  42.441  40.978  14.290
14942W        W87268  37.321  24.491  10.428
14943W        W87269  32.683   0.755  13.059
14944W        W87270   2.534  21.503   5.467
14945W        W87271  30.379  30.875  13.383
14946W        W87272  39.741   5.793  13.806
14947W        W87273  37.031  10.095   5.406
14948W        W87274  10.880  20.091   0.841
14949W        W87275  34.639   0.346   4.662
14950W        W87276  36.398  23.668   0.868
14951W        W87277   0.374   4.071   1.197
14952W        W87278  24.085  20.562   2.414
14953W        W87279   3.881  43.779   2.861
14954W        W87280  44.515  42.899   2.390
14955W        W87281   6.412  39.502   1.386
14956W        W87282  17.192   7.628   0.851
14957W        W87283   6.979  43.675   1.029
14958W        W87284  10.816  19.289  13.479
14959W        W87285  17.825  24.402  14.953
14960W        W87286  34.379   2.239  14.579
14961W        W87287  32.148  40.718  13.849
14962W        W87288  12.524  33.834  13.067
14963W        W87289   5.875  33.987   0.327
14964W        W87290   0.667   3.393   4.610
14965W        W87291  10.939  40.833   1.447
14966W        W87292  17.326  22.755  10.665
14967W        W87293  30.091   4.378   3.680
14968W        W87294  44.366  11.915  13.846
14969W        W87295  38.810   0.780   1.641
14970W        W87296  11.756  14.285  11.589
14971W        W87297   1.759  24.468   1.849
14972W        W87298  20.754   0.213   2.147
14973W        W87299   3.018   7.662  12.772
14974W        W87300   1.446  31.883   3.641
14975W        W87301   3.759  14.738  13.499
14976W        W87302  35.893  39.031   3.719
14977W        W87303   6.394   5.880   1.249
14978W        W87304  19.502  38.339   3.386
14979W        W87305  21.771  15.785  14.321
14980W        W87306   7.943  32.205  14.951
14981W        W87307  31.469  24.250  14.932
14982W        W87308  27.244   8.781   2.333
14983W        W87309  36.828  11.106  12.798
14984W        W87310  21.420  31.279   2.293
14985W        W87311   7.384  31.553   2.600
14986W        W87312  18.725  36.782  12.957
14987W        W87313  43.459  36.428   2.068
14988W        W87314  17.055  31.964   2.865
14989W        W87315  30.197   7.438   0.477
14990W        W87316  21.930  10.562   0.485
14991W        W87317   3.206  20.987  10.757
14992W        W87318  16.532  11.336  14.766
14993W        W87319   7.309  12.851   1.318
14994W        W87320  11.874  44.362   1.339
14995W        W87321  13.874  33.626  13.338
14996W        W87322  39.308   3.850  12.036
14997W        W87323  16.299  34.552   2.770
14998W        W87324  24.915  24.471  12.809
14999W        W87325  17.799  21.184  11.541
15000W        W87326  32.845  11.151   3.742
15001W        W87327  13.777  34.091  14.107
15002W        W87328  33.343  12.701   3.718
15003W        W87329  33.986  12.573  10.729
15004W        W87330  33.066  21.067  12.216
15005W        W87331  32.175  14.121  11.441
15006W        W87332  41.788   5.475   4.442
15007W        W87333   9.442  12.195   3.680
15008W        W87334  39.720   4.813  11.552
15009W        W87335  27.166  18.772   0.665
15010W        W87336  36.514  19.543   4.063
15011W        W87337  36.165   8.145   3.208
15012W        W87338  12.731  10.845   1.590
15013W        W87339  15.086  15.849  10.969
15014W        W87340  20.160  17.520   2.155
15015W        W87341  19.155  29.672  14.000
15016W        W87342  33.375  26.015  10.714
15017W        W87343  35.748  39.066  11.070
15018W        W87344  25.969  32.497  13.722
15019W        W87345  25.961  25.509  14.565
15020W        W87346   8.339  21.929  11.582
15021W        W87347   4.749  13.124   0.739
15022W        W87348  22.702  26.680   5.031
15023W        W87349  41.345  30.400  11.635
15024W        W87350  26.327   8.216   0.920
15025W        W87351  17.371   0.625  13.330
15026W        W87352  20.462  43.010  12.267
15027W        W87353  11.857  39.047  11.166
15028W        W87354  36.011  32.132   1.707
15029W        W87355   6.223   7.429  13.301
15030W        W87356  30.815  24.928   1.875
15031W        W87357   6.509  18.937   0.369
15032W        W87358  28.470  10.509   0.209
15033W        W87359  36.319  11.865  11.283
15034W        W87360  30.217   2.393   2.422
15035W        W87361  38.420   2.774  10.840
15036W        W87362  44.072   8.513   0.421
15037W        W87363  23.884  17.319  10.008
15038W        W87364   1.129  35.086  13.588
15039W        W87365  32.843  19.518  14.230
15040W        W87366  39.344  39.065  12.184
15041W        W87367   5.992  41.362   1.648
15042W        W87368  33.089  34.140   3.101
15043W        W87369   0.184   4.889  13.434
15044W        W87370  24.789  21.134   0.874
15045W        W87371  21.947   7.397  11.581
15046W        W87372  34.537  10.191   1.778
15047W        W87373  35.560  31.212  11.174
15048W        W87374  31.593  42.372  14.290
15049W        W87375  15.708  15.704  14.781
15050W        W87376  15.115   1.659   0.449
15051W        W87377   7.923  44.318   4.472
15052W        W87378   2.890  43.199  11.019
15053W        W87379  39.058  13.053   1.746
15054W        W87380  13.316   0.885  12.077
15055W        W87381   5.226  18.003  12.071
15056W        W87382   1.859  28.631  10.782
15057W        W87383   9.903  28.453  13.089
15058W        W87384  38.572  29.951   4.191
15059W        W87385  40.977  21.684   2.658
15060W        W87386  42.791  44.402   4.505
15061W        W87387  27.545  19.522  11.154
15062W        W87388   2.906  30.113   2.577
15063W        W87389  25.888   4.355  10.782
15064W        W87390  27.509  31.131   1.453
15065W        W87391  14.685  34.436   3.802
15066W        W87392   3.747   4.240  10.659
15067W        W87393  24.936  17.025   0.138
15068W        W87394  18.873  10.766  12.494
15069W        W87395  25.168  27.480  10.666
15070W        W87396  13.020  26.060  11.197
15071W        W87397  24.008  16.605   3.520
15072W        W87398  39.278   6.956   3.329
15073W        W87399  32.092  26.157   4.490
15074W        W87400  43.005   7.481   0.867
15075W        W87401  44.309  43.928   4.180
15076W        W87402  34.001  31.557   0.040
15077W        W87403  40.776  22.381  12.922
15078W        W87404   6.748  23.082   2.354
15079W        W87405  27.736  14.320   4.303
15080W        W87406  33.529  17.576  14.762
15081W        W87407  30.468  32.478  11.899
15082W        W87408  39.408  38.161   3.149
15083W        W87409  13.700   4.893   5.045
15084W        W87410  11.201  39.317   0.828
15085W        W87411  32.235   8.269  12.434
15086W        W87412  35.492  20.933   2.631
15087W        W87413  28.600   0.080   1.169
15088W        W87414  19.751  11.734  13.348
15089W        W87415  40.190  27.627  13.831
15090W        W87416  19.174  17.122  12.932
15091W        W87417   9.998  22.762   3.226
15092W        W87418  25.622  33.422  11.943
15093W        W87419  42.740  29.432  12.526
15094W        W87420  30.182  30.065   1.542
15095W        W87421  35.283   0.470  14.410
15096W        W87422  30.203  28.624  10.630
15097W        W87423  39.852  35.081   4.550
15098W        W87424  20.768  25.227  14.433
15099W        W87425  26.635  41.053   3.620
15100W        W87426   3.648   7.796   4.141
15101W        W87427  16.635   4.633   2.589
15102W        W87428  13.837   4.914  10.594
15103W        W87429  22.568  32.176   2.801
15104W        W87430  33.335  34.126   2.647
15105W        W87431  38.313  33.861  11.198
15106W        W87432  42.296  35.840  10.904
15107W        W87433  34.384  34.850  13.320
15108W        W87434   2.818  19.982  13.660
15109W        W87435  37.993  29.306  10.554
15110W        W87436   3.406  15.729   2.894
15111W        W87437  35.376  32.981  12.902
15112W        W87438  31.413  25.235  11.022
15113W        W87439  41.408  25.988   4.139
15114W        W87440   2.799  25.602   1.958
15115W        W87441   0.802  32.123  13.047
15116W        W87442  40.471  28.500   3.788
15117W        W87443  31.171  24.487  10.912
15118W        W87444  37.568   3.293  13.905
15119W        W87445  30.010  13.789  11.472
15120W        W87446  26.383  13.486  13.442
15121W        W87447  39.519  18.993   0.910
15122W        W87448   1.587  25.183   4.150
15123W        W87449  14.038  44.494  10.984
15124W        W87450  39.116  20.480   2.323
15125W        W87451  33.952  23.617  11.347
15126W        W87452  41.731  29.908  14.358
15127W        W87453  25.807  13.840   1.860
15128W        W87454  18.181   0.438  11.429
15129W        W87455   3.322   4.587   3.729
15130W        W87456   5.352  39.688  12.842
15131W        W87457   4.155  29.145   4.130
15132W        W87458  14.171  21.509  11.346
15133W        W87459  38.940  15.209   3.254
15134W        W87460   4.810  17.261   1.383
15135W        W87461  40.551  25.651  12.438
15136W        W87462   0.300  36.326   2.750
15137W        W87463   4.806   9.716  13.377
15138W        W87464  30.336  11.761  13.786
15139W        W87465  24.669  30.162   4.340
15140W        W87466  32.401   3.420   0.623
15141W        W87467  23.334  16.686  11.306
15142W        W87468  31.339   0.015  14.869
15143W        W87469  17.525  31.090   4.051
15144W        W87470   9.914  42.021   4.192
15145W        W87471   7.347  32.003  14.286
15146W        W87472   1.990  39.389  14.526
15147W        W87473  32.132  29.560  12.448
15148W        W87474  33.046  30.654  12.034
15149W        W87475  36.902   8.177   1.320
15150W        W87476  14.370  22.299   1.428
15151W        W87477   8.423  16.998  12.297
15152W        W87478  30.602  42.448   4.812
15153W        W87479  39.058  37.607  13.020
15154W        W87480  21.654   7.513   0.739
15155W        W87481  23.894  16.615  13.500
15156W        W87482   4.188  44.111  11.151
15157W        W87483  40.428  20.797   3.083
15158W        W87484  37.464  19.997  10.430
15159W        W87485  13.046  12.780   3.610
15160W        W87486  15.589  27.475  13.349
15161W        W87487  32.813  23.439  14.375
15162W        W87488   6.600   1.408   0.455
15163W        W87489  38.471  31.555   4.760
15164W        W87490   8.326  28.573  10.542
15165W        W87491   5.087  27.925  12.524
15166W        W87492  14.265  22.484  13.031
15167W        W87493  44.514   2.363   2.193
15168W        W87494   2.235   0.595   1.235
15169W        W87495  17.515  26.173  12.076
15170W        W87496  40.185  20.690   0.390
15171W        W87497   4.934  34.966   4.163
15172W        W87498  10.769   0.761   1.279
15173W        W87499  14.797  18.085  10.959
15174W        W87500  37.556  23.308   0.833
15175W        W87501  15.440  38.595  11.155
15176W        W87502  40.502  35.429   3.244
15177W        W87503   2.848  23.147   0.932
15178W        W87504  14.124  26.994   4.111
15179W        W87505  12.152  10.571  10.701
15180W        W87506   2.880   5.543   0.974
15181W        W87507  23.721  14.535   3.798
15182W        W87508  35.061   9.781   3.072
15183W        W87509  15.846  20.569  11.956
15184W        W87510  17.631   9.880  14.869
15185W        W87511  21.637  10.672  14.303
15186W        W87512  38.451   7.287   2.306
15187W        W87513   9.613  24.141   2.711
15188W        W87514  37.540  18.702   3.684
15189W        W87515  30.590  40.491   3.968
15190W        W87516  30.682  15.159  14.508
15191W        W87517  40.892  27.221  10.595
15192W        W87518  29.431  16.827  13.277
15193W        W87519   1.602   1.562  10.747
15194W        W87520  30.594  43.051   0.285
15195W        W87521  22.089  36.386   2.143
15196W        W87522  41.756  30.553  12.999
15197W        W87523  17.154  18.522  12.534
15198W        W87524  24.755  33.458  11.762
15199W        W87525   0.981   1.476   3.369
15200W        W87526  37.493  41.698   2.159
15201W        W87527  28.471  16.308   2.233
15202W        W87528  36.839  27.754  14.719
15203W        W87529  21.989  17.107  11.481
15204W        W87530  21.782  21.757   4.336
15205W        W87531  33.443   4.998   0.816
15206W        W87532  16.633  29.659   1.822
15207W        W87533  18.103  12.821   2.343
15208W        W87534  22.290  35.827  12.011
15209W        W87535  44.359  37.952  11.422
15210W        W87536  29.835  30.037  10.704
15211W        W87537  38.564  30.056   2.322
15212W        W87538  39.927  24.264  12.634
15213W        W87539  35.178  31.535   0.485
15214W        W87540   1.133   9.072   3.621
15215W        W87541  10.021  17.611  13.574
15216W        W87542   6.436  26.194   0.243
15217W        W87543  13.999  24.569  11.530
15218W        W87544  31.923  19.013   1.862
15219W        W87545   9.800  40.221  14.293
15220W        W87546  25.434  42.121   1.763
15221W        W87547   6.658   4.610  14.440
15222W        W87548  20.516  19.875   4.146
15223W        W87549  35.385  25.579   2.229
15224W        W87550   6.147  25.076  10.698
15225W        W87551  35.009  16.133   3.282
15226W        W87552   5.291  19.448  13.266
15227W        W87553   7.311  39.489   1.045
15228W        W87554   5.661   7.655   1.741
15229W        W87555  34.031  37.762   2.108
15230W        W87556   6.127  31.546   1.343
15231W        W87557  24.729  40.247   1.389
15232W        W87558  15.152  43.213  12.953
15233W        W87559   1.002   8.272   4.167
15234W        W87560  16.964  26.645   2.643
15235W        W87561  27.854  37.072   4.320
15236W        W87562   1.833  28.916  14.046
15237W        W87563  41.961   5.306  10.497
15238W        W87564  23.020  25.504  12.149
15239W        W87565  17.349  35.463   1.778
15240W        W87566   4.245  12.813  12.147
15241W        W87567  29.745  19.604   4.986
15242W        W87568   9.307   9.704   2.397
15243W        W87569  22.285  25.634  14.492
15244W        W87570  17.765  29.652   4.576
15245W        W87571  34.636   8.190  11.526
15246W        W87572  23.565  31.598   3.893
15247W        W87573  44.047   8.776   4.439
15248W        W87574  36.533  21.580   1.825
15249W        W87575  25.696  44.357   1.766
15250W        W87576  39.577   1.433   0.153
15251W        W87577  40.403  38.528  10.618
15252W        W87578  27.111   1.369   3.945
15253W        W87579  42.890  27.778   0.404
15254W        W87580   9.157  19.294   4.049
15255W        W87581  13.013  35.204  11.584
15256W        W87582  17.213  42.866   1.169
15257W        W87583   9.221  30.424   0.965
15258W        W87584  37.135  14.068   4.513
15259W        W87585   2.095  19.126   1.197
15260W        W87586   2.999  18.534   4.125
15261W        W87587  18.420  27.465  11.179
15262W        W87588  32.552  40.728  11.489
15263W        W87589  17.065   6.746  11.516
15264W        W87590  21.571  38.501   2.143
15265W        W87591  38.011  37.911  10.655
15266W        W87592  23.699   5.735   3.261
15267W        W87593  17.900  39.972   1.907
15268W        W87594  32.599  29.140  14.766
15269W        W87595  34.849   9.974  13.313
15270W        W87596  29.103  20.532   4.297
15271W        W87597   3.962  10.904   2.874
15272W        W87598  22.309   5.479   2.713
15273W        W87599  12.587  42.246   1.308
15274W        W87600  43.107  36.223   2.406
15275W        W87601  22.691   1.200   1.126
15276W        W87602  24.621  22.199   0.768
15277W        W87603  28.719  20.337  13.812
15278W        W87604  16.518  43.872  14.813
15279W        W87605  23.309   9.235  13.286
15280W        W87606  40.863  18.246   1.921
15281W        W87607  19.548   4.893   0.488
15282W        W87608  26.949  28.141   3.231
15283W        W87609   5.877  25.606   4.881
15284W        W87610  41.269  23.834  13.977
15285W        W87611  25.913  27.964   1.726
15286W        W87612   8.737  24.948   1.483
15287W        W87613  24.236  30.666   0.324
15288W        W87614  31.750  43.504   2.910
15289W        W87615  14.221  27.024  10.124
15290W        W87616  40.862  13.794  13.403
15291W        W87617  27.209  15.663  10.652
15292W        W87618  32.605  19.105  14.473
15293W        W87619  39.924  40.492   4.089
15294W        W87620  34.179  38.907  10.229
15295W        W87621   2.382   6.901  14.877
15296W        W87622   9.916  16.736  10.916
15297W        W87623   2.374  32.516  12.018
15298W        W87624   7.910  12.424   0.790
15299W        W87625   4.313  40.526   3.924
15300W        W87626  20.681   5.135  14.344
15301W        W87627   9.724  16.172  11.910
15302W        W87628  29.595   3.288  12.883
15303W        W87629  32.590  24.525   3.770
15304W        W87630   6.219  13.707   2.585
15305W        W87631  13.311  26.056  13.055
15306W        W87632  35.608  42.040  13.327
15307W        W87633   6.611  19.972  11.111
15308W        W87634  23.979  33.422  12.801
15309W        W87635  43.040  31.533  10.560
15310W        W87636   9.336  18.737  11.025
15311W        W87637  40.317   2.729   4.611
15312W        W87638  24.516  20.717  13.794
15313W        W87639  11.583  15.846  13.419
15314W        W87640  32.871  10.148   4.546
15315W        W87641  19.894  34.809  12.939
15316W        W87642  23.030  35.272  14.301
15317W        W87643  41.392  43.268   3.234
15318W        W87644   8.116   6.450   1.183
15319W        W87645  35.793   9.820   2.067
15320W        W87646  21.504  43.135   1.082
15321W        W87647  36.770  15.748   2.083
15322W        W87648  15.676  37.093  14.603
15323W        W87649  44.442  19.323   1.044
15324W        W87650  22.704  40.900  12.816
15325W        W87651  16.445  23.734   1.855
15326W        W87652  28.679  35.087  13.470
15327W        W87653  11.545  30.176   1.390
15328W        W87654  21.661  32.008  11.015
15329W        W87655   8.472   0.727   2.142
15330W        W87656  39.132  37.968   2.734
15331W        W87657  31.539  35.159   4.296
15332W        W87658   2.512  24.216   1.836
15333W        W87659  41.838  21.217  12.348
15334W        W87660  21.493  10.293   4.531
15335W        W87661   9.650  27.609   0.905
15336W        W87662  28.242  15.514  10.013
15337W        W87663  31.369  10.197  10.688
15338W        W87664   9.154  23.572  10.689
15339W        W87665  36.993  28.103  14.169
15340W        W87666  22.709  29.038   4.626
15341W        W87667  40.453  29.077   3.143
15342W        W87668  44.467  23.118   0.539
15343W        W87669   4.712   6.334  10.641
15344W        W87670  41.753   1.878   3.841
15345W        W87671  24.757  34.520   2.244
15346W        W87672  23.701  41.785  14.004
15347W        W87673  18.109  32.394   0.839
15348W        W87674  15.747  35.645   1.902
15349W        W87675  14.107  24.750  10.683
15350W        W87676  40.024  13.918   4.789
15351W        W87677  17.082   2.125   3.680
15352W        W87678  30.521  24.796  13.686
15353W        W87679  11.192  23.922   4.156
15354W        W87680   4.049  25.165  11.040
15355W        W87681   5.251  19.093   4.345
15356W        W87682   1.323   7.699  10.477
15357W        W87683   4.480  39.677  11.973
15358W        W87684  25.127  22.130   4.351
15359W        W87685  23.506   4.914  10.105
15360W        W87686  29.793  10.466  10.488
15361W        W87687  18.351  32.173  14.653
15362W        W87688   3.057  23.699  11.993
15363W        W87689  24.571  39.352  13.734
15364W        W87690  30.890  19.569   1.258
15365W        W87691  31.377  24.482  14.063
15366W        W87692   7.829  18.639   2.594
15367W        W87693  10.503  24.490  12.204
15368W        W87694  14.855  34.084   0.946
15369W        W87695  22.026  25.970   2.596
15370W        W87696  42.268  27.513  11.986
15371W        W87697  24.447  14.762   4.628
15372W        W87698  28.634  13.215   1.245
15373W        W87699   2.946  41.325  11.861
15374W        W87700  27.101  10.956   2.237
15375W        W87701   8.968  13.092  12.597
15376W        W87702  18.538  44.070  11.455
15377W        W87703  39.454  35.041  11.951
15378W        W87704   3.042   3.167   0.678
15379W        W87705  17.401  13.207  12.445
15380W        W87706  27.154  38.338  10.619
15381W        W87707  29.966  15.556  14.866
15382W        W87708  44.448  43.563   3.580
15383W        W87709   8.657  24.507  14.314
15384W        W87710   2.494   7.255  11.497
15385W        W87711  25.029  42.999  10.833
15386W        W87712   1.379  24.550  13.786
15387W        W87713  22.037   9.749  12.578
15388W        W87714  27.212  36.084  10.970
15389W        W87715  33.318   8.676  11.516
15390W        W87716  29.149   8.354  14.307
15391W        W87717  36.641   7.871  14.402
15392W        W87718  31.614  24.177   3.172
15393W        W87719  38.100  12.902  13.772
15394W        W87720  27.178  24.763  11.980
15395W        W87721  20.306  43.889  13.864
15396W        W87722  17.720  41.587   0.331
15397W        W87723   9.340   3.757  14.461
15398W        W87724  38.172  14.716   2.156
15399W        W87725  15.062   4.435   3.295
15400W        W87726  30.042   8.908  11.613
15401W        W87727  40.102  26.126  14.706
15402W        W87728   9.496   8.621  11.168
15403W        W87729  44.536  11.770  14.959
15404W        W87730  15.145  42.358  11.794
15405W        W87731  26.953  30.808  11.653
15406W        W87732  44.439  36.973  13.812
15407W        W87733  14.553   4.850   4.014
15408W        W87734  28.964  31.913  13.478
15409W        W87735  25.947  30.814   1.779
15410W        W87736  23.028  32.902  12.049
15411W        W87737  23.257  35.139   3.342
15412W        W87738   9.200  43.567  12.543
15413W        W87739  17.638  40.415  14.291
15414W        W87740  19.056   7.633   0.773
15415W        W87741  34.603  24.028   3.742
15416W        W87742  42.751  13.802  14.805
15417W        W87743  16.176  21.042   3.445
15418W        W87744  24.908  44.342  12.558
15419W        W87745   3.567   1.258  10.529
15420W        W87746  24.512   4.138  11.226
15421W        W87747  15.900  13.830  10.211
15422W        W87748  41.296   6.337   0.803
15423W        W87749  20.541  27.911  13.168
15424W        W87750   7.192  24.972  13.887
15425W        W87751  18.950  19.142  11.594
15426W        W87752  32.507   6.453  10.447
15427W        W87753  12.739  33.148   0.074
15428W        W87754   3.397  37.691  14.067
15429W        W87755  42.966  11.767   2.386
15430W        W87756  14.211  27.333  11.554
15431W        W87757  34.613  36.407  14.457
15432W        W87758  19.736   7.375   2.812
15433W        W87759  20.406  28.127   3.258
15434W        W87760  37.908   9.122  14.307
15435W        W87761  28.444  19.628   1.971
15436W        W87762   1.948  44.271  13.558
15437W        W87763  15.372  15.229  13.885
15438W        W87764  42.318   0.489  12.945
15439W        W87765  42.414  43.900   2.291
15440W        W87766  26.144  24.478   4.140
15441W        W87767  36.992   8.851   3.664
15442W        W87768  24.110  32.847  11.584
15443W        W87769  20.402  20.555   3.693
15444W        W87770  11.721  26.388   4.167
15445W        W87771  25.599  39.559  10.167
15446W        W87772  34.566  11.140   3.323
15447W        W87773  34.872   1.355   4.912
15448W        W87774  36.271  29.442   0.990
15449W        W87775  21.489  38.283   1.657
15450W        W87776  16.908  14.904  10.931
15451W        W87777  33.323   0.815  14.626
15452W        W87778  43.334   9.067  14.405
15453W        W87779   2.046  12.595  11.338
15454W        W87780  23.635  32.592  14.113
15455W        W87781   6.692   7.629  14.532
15456W        W87782  15.212  29.640   2.263
15457W        W87783  26.014  23.420   2.341
15458W        W87784  33.993   6.461   3.569
15459W        W87785   3.478  19.485  13.470
15460W        W87786  35.443  24.080  14.471
15461W        W87787  23.733  22.583  14.833
15462W        W87788  12.222  30.003   1.372
15463W        W87789  24.775  27.587  11.600
15464W        W87790  35.918   4.013   3.518
15465W        W87791  39.378   6.260  12.562
15466W        W87792   4.607   2.310   1.144
15467W        W87793  15.092   7.415  12.506
15468W        W87794  42.462  34.794  12.894
15469W        W87795  43.751  21.229  13.939
15470W        W87796  40.500  28.269  11.191
15471W        W87797  31.029  43.549   4.777
15472W        W87798  16.781   1.992   0.731
15473W        W87799  24.134   2.434   4.664
15474W        W87800  19.837   8.266  14.533
15475W        W87801  28.986  41.027   2.099
15476W        W87802   8.193   9.128  12.047
15477W        W87803  25.198  16.836   2.318
15478W        W87804   3.482  18.947  11.575
15479W        W87805  20.934  35.531   0.902
15480W        W87806  32.640  33.997   4.542
15481W        W87807  25.029  43.907   0.427
15482W        W87808  40.911   8.760  14.914
15483W        W87809   3.390   8.295  13.431
15484W        W87810  29.563   0.862  13.552
15485W        W87811  12.384   5.917   3.252
15486W        W87812   1.185  37.460  13.352
15487W        W87813   9.707   1.892  11.622
15488W        W87814   3.684  28.420   0.890
15489W        W87815   4.368  17.844  14.869
15490W        W87816  33.840  24.938  11.663
15491W        W87817  35.265  16.245  11.925
15492W        W87818  21.258  17.614  10.340
15493W        W87819  16.173  43.563   4.260
15494W        W87820   2.265  25.406   3.221
15495W        W87821  10.853   7.414  12.013
15496W        W87822  18.289  27.469   4.056
15497W        W87823   2.303  26.642   0.833
15498W        W87824  36.385  42.267  14.987
15499W        W87825   0.826  12.574  14.738
15500W        W87826   8.783  37.137   0.241
15501W        W87827  42.446  21.780  11.435
15502W        W87828  12.582   7.824  13.922
15503W        W87829  34.579  18.618   2.803
15504W        W87830  25.195  32.906   1.900
15505W        W87831  24.634   4.271  12.068
15506W        W87832  20.295   4.651   1.763
15507W        W87833  38.988  16.769   0.723
15508W        W87834  35.978  37.312  10.352
15509W        W87835   9.253  23.751   2.690
15510W        W87836  28.590  41.392   4.974
15511W        W87837  36.967  40.101  13.414
15512W        W87838   6.231  24.251  13.300
15513W        W87839   7.376  13.192   4.941
15514W        W87840   8.116  33.125   1.015
15515W        W87841  20.180  28.650  12.888
15516W        W87842  28.884  41.301  12.403
15517W        W87843  26.182  26.508  10.609
15518W        W87844  34.448  37.391   3.766
15519W        W87845  18.622   3.861   3.471
15520W        W87846  41.620  35.580  12.005
15521W        W87847  35.581  28.696  14.913
15522W        W87848  27.368   2.282   0.285
15523W        W87849  11.454   5.278   1.038
15524W        W87850  10.188   7.833  10.611
15525W        W87851  11.007  10.393   1.029
15526W        W87852  37.144  11.953  10.362
15527W        W87853   9.101  37.428  11.002
15528W        W87854   3.246  35.079   1.491
15529W        W87855  24.222  11.486  13.283
15530W        W87856  42.085  32.995   0.846
15531W        W87857  10.794  37.135  12.439
15532W        W87858  19.617  10.823   2.102
15533W        W87859   7.843  37.197  12.068
15534W        W87860  11.227  44.412  11.608
15535W        W87861  15.329  42.486   3.716
15536W        W87862  26.868  10.290   4.575
15537W        W87863  32.471  36.589  14.817
15538W        W87864  19.029   0.710  13.734
15539W        W87865  21.209  16.887  14.093
15540W        W87866  23.721  24.123  10.517
15541W        W87867  37.845   9.295  14.785
15542W        W87868  24.522  42.100  12.672
15543W        W87869  14.619  23.111   4.585
15544W        W87870  38.869  26.754   0.048
15545W        W87871   3.383  43.796  14.359
15546W        W87872  10.101  18.150   5.098
15547W        W87873  27.954  44.450  10.904
15548W        W87874  10.852  15.517   2.874
15549W        W87875  36.604  20.291  12.098
15550W        W87876  10.301  36.989   3.600
15551W        W87877  36.775  24.152  14.721
15552W        W87878   2.727  38.120  14.509
15553W        W87879  33.095   6.082  11.505
15554W        W87880   3.394  12.631  11.946
15555W        W87881  27.589   2.461   0.907
15556W        W87882  36.850  23.013   3.245
15557W        W87883  20.282  41.474   1.240
15558W        W87884   6.956  15.755   3.531
15559W        W87885  42.319  13.220  12.007
15560W        W87886   5.291  15.058   0.421
15561W        W87887  44.299  27.923  12.085
15562W        W87888  21.509   4.639   2.229
15563W        W87889  26.413  27.176  12.985
15564W        W87890  44.494   7.718  13.153
15565W        W87891   5.168  16.903  14.980
15566W        W87892  12.717  37.162  11.577
15567W        W87893  33.426  25.695   4.282
15568W        W87894  26.452  11.843   3.729
15569W        W87895  16.543   5.822  14.877
15570W        W87896  21.876  37.499   3.622
15571W        W87897  21.726   9.464  14.776
15572W        W87898  16.154  28.423   5.102
15573W        W87899   5.370   4.614  13.323
15574W        W87900  35.414  20.082  12.507
15575W        W87901  29.432  27.763   1.926
15576W        W87902  14.289  40.608  12.068
15577W        W87903  20.635   7.734   1.457
15578W        W87904  24.638  21.726  12.962
15579W        W87905  36.361  19.078  11.036
15580W        W87906  27.488  34.449   3.187
15581W        W87907  36.785   6.829  13.661
15582W        W87908  36.408   8.229   4.806
15583W        W87909  38.807   6.725  14.805
15584W        W87910   1.223  14.919   3.668
15585W        W87911  35.154  44.249   0.244
15586W        W87912  36.098  20.223  11.216
15587W        W87913  17.726   1.287   2.422
15588W        W87914   0.775  25.000   1.264
15589W        W87915  29.655  14.894  12.508
15590W        W87916   5.826  39.677   4.639
15591W        W87917  43.469  26.718   3.279
15592W        W87918  32.813  12.341   2.696
15593W        W87919  38.365  20.344  11.674
15594W        W87920  27.471  39.336   0.055
15595W        W87921  19.180   4.833  13.753
15596W        W87922   7.695  19.119   3.398
15597W        W87923  12.796  40.079   2.120
15598W        W87924   3.345   3.900  12.599
15599W        W87925  36.818   9.249  14.747
15600W        W87926   9.112   6.524   1.371
15601W        W87927  32.722  15.404   1.169
15602W        W87928  20.137  20.575   0.408
15603W        W87929   5.736  25.083   4.175
15604W        W87930  19.186   4.330  13.550
15605W        W87931  15.489  30.311   4.187
15606W        W87932  31.887  29.634   3.140
15607W        W87933  23.065  20.275   4.839
15608W        W87934  33.054  35.215  11.751
15609W        W87935  22.608  28.130   0.354
15610W        W87936  13.251  21.201   4.005
15611W        W87937  12.121  16.153   0.675
15612W        W87938  23.763   3.229  11.188
15613W        W87939  23.550   9.392   2.448
15614W        W87940  42.739  33.408   2.418
15615W        W87941   1.372  35.251   1.632
15616W        W87942  31.163  33.007  14.797
15617W        W87943  21.504  17.038  14.516
15618W        W87944  25.404  25.268   4.262
15619W        W87945  20.017  39.395   2.305
15620W        W87946  29.206  22.619  10.605
15621W        W87947  41.752  19.204  12.439
15622W        W87948  15.365  13.858   0.697
15623W        W87949   3.045   9.813   0.431
15624W        W87950  29.233  27.195  12.393
15625W        W87951  18.907  20.072  14.332
15626W        W87952   4.162  38.584   1.853
15627W        W87953   9.633  44.920   3.442
15628W        W87954  14.140   8.724   3.766
15629W        W87955  16.586   4.447   3.777
15630W        W87956   1.439  43.170   1.700
15631W        W87957  16.612  39.576  13.795
15632W        W87958   0.310   0.864  13.881
15633W        W87959  34.141  20.360   4.135
15634W        W87960  35.272   5.230   2.896
15635W        W87961   3.231   3.972   5.111
15636W        W87962   1.692  14.236  12.457
15637W        W87963   9.264  18.311  12.531
15638W        W87964   5.291  33.632   0.919
15639W        W87965   7.142  18.674  10.579
15640W        W87966  34.958  21.279   3.891
15641W        W87967  29.595  36.099  14.997
15642W        W87968  23.517  21.893   1.869
15643W        W87969  44.068  13.300   4.022
15644W        W87970  31.643   6.708   2.161
15645W        W87971  32.173  28.003  11.190
15646W        W87972   1.352  23.150  10.493
15647W        W87973  37.537  23.709  12.871
15648W        W87974  17.654  29.654  14.521
15649W        W87975  22.633  12.057  14.411
15650W        W87976  33.992  27.613   0.253
15651W        W87977  25.034  43.520  13.487
15652W        W87978  34.433   9.120  12.462
15653W        W87979  16.313  42.766  10.670
15654W        W87980  14.175  29.351  11.574
15655W        W87981   6.828  14.149  14.241
15656W        W87982  26.682  15.673  10.517
15657W        W87983  31.005  43.099  12.680
15658W        W87984   3.118  19.194  12.106
15659W        W87985  43.046  40.874   4.152
15660W        W87986   7.794  33.972   0.452
15661W        W87987   8.465  44.931  12.293
15662W        W87988  29.400  14.277  13.764
15663W        W87989   4.493  41.353   3.366
15664W        W87990   3.819   3.022   1.647
15665W        W87991  38.912  41.275  13.943
15666W        W87992  19.725  20.112   3.028
15667W        W87993  21.033  21.060   5.356
15668W        W87994  20.040  35.291  13.004
15669W        W87995  20.599  38.407   4.538
15670W        W87996  29.000  28.514   3.617
15671W        W87997  29.116  30.528  11.538
15672W        W87998  17.684  11.696   3.238
15673W        W87999  39.278  21.644  10.477
15674W        W88000  15.490  11.743   5.085
15675W        W88001  44.609  40.286   4.526
15676W        W88002  34.549  24.561   4.611
15677W        W88003  36.907  34.978   0.377
15678W        W88004  10.983   6.625   1.496
15679W        W88005   2.424  18.482   2.772
15680W        W88006  32.807  38.382  13.433
15681W        W88007  18.550  15.349  13.857
15682W        W88008  17.345  26.893   3.245
15683W        W88009  29.679  29.542  10.599
15684W        W88010  29.994   2.475  11.609
15685W        W88011   8.966   7.888  13.807
15686W        W88012   5.591   7.328   3.696
15687W        W88013   2.569   6.611   4.016
15688W        W88014  24.357  14.130   1.251
15689W        W88015  18.212  32.423   2.247
15690W        W88016  35.574  14.105   3.705
15691W        W88017  10.534   1.770  14.064
15692W        W88018  20.833   5.410  13.086
15693W        W88019  41.034  43.574  13.680
15694W        W88020  14.080  24.523   2.327
15695W        W88021  10.291   0.002   2.339
15696W        W88022   3.184  42.290  13.783
15697W        W88023  41.994  42.097   4.621
15698W        W88024  17.288  11.653  11.496
15699W        W88025   2.000  25.545   4.127
15700W        W88026   8.697   0.773   3.689
15701W        W88027  42.088   3.245   2.427
15702W        W88028  10.881  20.279   2.320
15703W        W88029  23.321  28.659  11.158
15704W        W88030  21.348  14.572   4.220
15705W        W88031  36.399  34.961   0.317
15706W        W88032  28.142   2.415  12.528
15707W        W88033  38.558  25.674  12.399
15708W        W88034  39.643  17.250   2.680
15709W        W88035   2.400  11.043  12.955
15710W        W88036  12.160  35.531  11.432
15711W        W88037   1.926  14.874   0.522
15712W        W88038  19.591  13.301   2.342
15713W        W88039  15.760  11.490   1.284
15714W        W88040  26.119  36.124  13.343
15715W        W88041  33.766  20.695   2.668
15716W        W88042  35.495   8.372  14.904
15717W        W88043  26.027  43.352  13.451
15718W        W88044  12.683  34.970   1.062
15719W        W88045  39.965  11.367  12.085
15720W        W88046   8.671  12.899   4.657
15721W        W88047  15.843  21.547  10.374
15722W        W88048  17.347   9.279   3.724
15723W        W88049  32.992   3.512  14.993
15724W        W88050   9.452  40.328   3.874
15725W        W88051  20.162  29.340   4.521
15726W        W88052   2.939  29.025   4.825
15727W        W88053  35.185  43.245   2.328
15728W        W88054  31.491  16.051   2.177
15729W        W88055   0.179  35.559   4.272
15730W        W88056  16.622  32.026   3.800
15731W        W88057  27.989  35.568   3.395
15732W        W88058  36.891  43.866   4.905
15733W        W88059  38.064  43.372   2.883
15734W        W88060  30.890  11.113   0.379
15735W        W88061   8.594   3.399   4.156
15736W        W88062  30.480  30.898  12.419
15737W        W88063   0.341  38.722  13.433
15738W        W88064  29.323   4.910   2.654
15739W        W88065   7.661   9.532  14.067
15740W        W88066  38.533   6.831   4.611
15741W        W88067  39.859  40.770   4.534
15742W        W88068  30.102  15.885  11.633
15743W        W88069  20.582  38.945   9.859
15744W        W88070  35.015  28.316   4.712
15745W        W88071  12.295  12.174   1.220
15746W        W88072   0.020  33.945   1.585
15747W        W88073  14.666  38.479  13.009
15748W        W88074   4.890  12.315   0.435
15749W        W88075  37.765  34.462   4.091
15750W        W88076   3.699  14.062   3.761
15751W        W88077  26.125  12.609  13.530
15752W        W88078  32.515  11.083  14.954
15753W        W88079  31.095  21.797   3.843
15754W        W88080   1.282  26.579   2.630
15755W        W88081   5.975  26.194  14.260
15756W        W88082  26.849  16.948  11.100
15757W        W88083   9.799  44.827  10.470
15758W        W88084  22.521   7.492   1.958
15759W        W88085  24.092  23.954  12.541
15760W        W88086  34.404  17.301  12.030
15761W        W88087  44.647  24.429  11.991
15762W        W88088  30.455  29.623   3.288
15763W        W88089  34.112   9.299  14.760
15764W        W88090  35.960   0.970   3.467
15765W        W88091  39.326  41.402   1.815
15766W        W88092  17.340  16.687  11.568
15767W        W88093  39.413  22.779   4.712
15768W        W88094  30.484   5.693   1.700
15769W        W88095   8.402  44.877   2.228
15770W        W88096   8.158  18.420  13.610
15771W        W88097  36.986  40.427  12.995
15772W        W88098  39.533  11.867   3.451
15773W        W88099  38.301  30.362   4.039
15774W        W88100  15.678  20.446  10.664
15775W        W88101  37.807  43.843   2.797
15776W        W88102  38.308  31.906  13.960
15777W        W88103  39.563  21.508  13.001
15778W        W88104  23.514  11.323   2.821
15779W        W88105  26.689   7.773   0.911
15780W        W88106  14.607  22.235   0.452
15781W        W88107  37.506  41.543  14.417
15782W        W88108   3.955   7.890  11.595
15783W        W88109   6.249  39.444   0.886
15784W        W88110   4.855  19.522  10.413
15785W        W88111  21.776  22.180   1.829
15786W        W88112  30.448  14.274   2.829
15787W        W88113   4.752  37.453   4.088
15788W        W88114  36.001  17.449  11.513
15789W        W88115  17.268  17.731   2.237
15790W        W88116  43.503  42.717   3.256
15791W        W88117   5.421   9.884   2.539
15792W        W88118   1.407  22.857   3.184
15793W        W88119  41.888  43.811  14.422
15794W        W88120  42.470  24.165  10.689
15795W        W88121  42.517  36.918   2.178
15796W        W88122  22.958  31.035   2.606
15797W        W88123  43.390  14.150   4.229
15798W        W88124   8.815  40.011   0.181
15799W        W88125  20.118   3.515  13.772
15800W        W88126  21.320   5.866  12.464
15801W        W88127  20.515   5.975  12.073
15802W        W88128  31.339  33.337   2.633
15803W        W88129  24.416  27.048  10.809
15804W        W88130   1.332  34.361   1.649
15805W        W88131  42.414  16.270   3.312
15806W        W88132  43.789   3.447  14.431
15807W        W88133  30.550  17.066  11.938
15808W        W88134  15.122  13.041  12.086
15809W        W88135  19.707  38.091  14.366
15810W        W88136  25.678  43.960   2.728
15811W        W88137  37.265  23.218  13.901
15812W        W88138   2.519   0.220  14.836
15813W        W88139  37.490  25.210  13.015
15814W        W88140  13.675   2.776   2.798
15815W        W88141   8.331  14.609  13.935
15816W        W88142  39.498  41.637   2.864
15817W        W88143  15.227  39.064   0.948
15818W        W88144  38.320  40.032  13.457
15819W        W88145  26.940  28.968  13.835
15820W        W88146  20.546   9.452   1.800
15821W        W88147  22.943  28.183  11.148
15822W        W88148  29.562   8.787  10.868
15823W        W88149  22.591   5.255  12.560
15824W        W88150  12.911  18.007  10.589
15825W        W88151  20.190   7.354   4.460
15826W        W88152  10.651   3.525  13.557
15827W        W88153   0.182  34.829  13.322
15828W        W88154  37.926  17.682   3.260
15829W        W88155  10.362   7.881   1.181
15830W        W88156  11.271  15.829   2.837
15831W        W88157  34.758   4.598  13.363
15832W        W88158  25.414  34.338  14.387
15833W        W88159  30.452  32.536  12.778
15834W        W88160  15.724  40.518   2.212
15835W        W88161  28.726  44.201   0.964
15836W        W88162   1.506  26.591   4.532
15837W        W88163  18.505   7.739  11.633
15838W        W88164   2.966  29.076  12.588
15839W        W88165  36.429  37.560  10.007
15840W        W88166   9.217  22.972   1.110
15841W        W88167  44.735   0.017   4.495
15842W        W88168  14.684  10.031  14.383
15843W        W88169  39.846   0.195  14.035
15844W        W88170   7.459   6.820   3.386
15845W        W88171  25.515  18.362  12.431
15846W        W88172  18.626  13.386   4.494
15847W        W88173  28.230   3.890  12.804
15848W        W88174  15.361  40.575  12.070
15849W        W88175  22.608  20.434  12.506
15850W        W88176  17.924  28.436  14.956
15851W        W88177  10.273  28.195  12.876
15852W        W88178  19.299   1.408   3.265
15853W        W88179  39.901  25.118   1.430
15854W        W88180   9.744   0.756   2.131
15855W        W88181  20.233  22.227  14.403
15856W        W88182  32.088   2.999  12.872
15857W        W88183  44.808  26.148  12.027
15858W        W88184  15.190  44.416   4.983
15859W        W88185  33.558   8.538  11.100
15860W        W88186  12.136  20.491  12.049
15861W        W88187  22.104  34.337  14.206
15862W        W88188  33.410  22.599   2.724
15863W        W88189   5.506  13.566   0.259
15864W        W88190  26.496   9.321   3.777
15865W        W88191  38.070  31.047  11.241
15866W        W88192  42.339  19.399   2.231
15867W        W88193  28.130  35.982   0.071
15868W        W88194  32.846  12.249  11.692
15869W        W88195   3.912  14.741   0.708
15870W        W88196  24.491   0.806  13.033
15871W        W88197  39.078  15.621   0.251
15872W        W88198  41.899  38.933  10.286
15873W        W88199  14.788  25.421  14.144
15874W        W88200   2.820  23.694   0.833
15875W        W88201  37.001   8.851  12.599
15876W        W88202  13.883  42.038  14.887
15877W        W88203  37.957  40.657  11.931
15878W        W88204  34.578   5.938  13.117
15879W        W88205  13.325  23.233  12.148
15880W        W88206  32.190  41.948   0.896
15881W        W88207  36.496  27.095  14.320
15882W        W88208  26.017   2.962  12.076
15883W        W88209   2.270  20.123   0.950
15884W        W88210  20.178  21.250   4.091
15885W        W88211  44.013  36.087   4.520
15886W        W88212  25.721  19.509   3.174
15887W        W88213   3.461  42.523  11.164
15888W        W88214  30.021  39.791   2.738
15889W        W88215  25.548   0.953  10.498
15890W        W88216  28.180   0.510   4.064
15891W        W88217  27.239   0.807  13.380
15892W        W88218  31.423   6.682   4.751
15893W        W88219  36.373  40.544   0.285
15894W        W88220   9.174  30.596  13.923
15895W        W88221  12.631  23.135   4.872
15896W        W88222  27.357  29.257   4.544
15897W        W88223  43.307  22.954  13.872
15898W        W88224  11.908   4.820   0.389
15899W        W88225  34.657  43.430  12.972
15900W        W88226   2.472  24.747   4.034
15901W        W88227   4.357   7.101   1.705
15902W        W88228  25.624  29.908   4.750
15903W        W88229  36.251  15.329  14.809
15904W        W88230  44.435  13.714   4.894
15905W        W88231   8.807  23.956   1.655
15906W        W88232  25.070  17.746   5.540
15907W        W88233  16.645  22.953  10.653
15908W        W88234  17.803  42.758  11.906
15909W        W88235  37.374   6.297   1.495
15910W        W88236  43.051  15.500  11.965
15911W        W88237  37.283   7.324  13.918
15912W        W88238   3.278   7.869   1.789
15913W        W88239  22.504  30.006   9.999
15914W        W88240  20.004  21.126   3.607
15915W        W88241  21.257  27.187   1.414
15916W        W88242  37.044  31.329   3.620
15917W        W88243  24.797   7.885   4.650
15918W        W88244  31.192  11.762   3.687
15919W        W88245  34.893  44.599  11.493
15920W        W88246  18.896  15.221   0.375
15921W        W88247   8.053  29.439   2.210
15922W        W88248  31.541   8.232  13.923
15923W        W88249   3.753  23.246  14.461
15924W        W88250  16.684  22.422  14.603
15925W        W88251  36.548  23.167   0.857
15926W        W88252   9.874   4.760   3.263
15927W        W88253  12.538   2.568   3.330
15928W        W88254   2.876  33.549   0.516
15929W        W88255   5.259   3.899   3.794
15930W        W88256  25.187  20.174   0.861
15931W        W88257  19.764   0.473   3.381
15932W        W88258  28.240  23.702   3.715
15933W        W88259  41.801  23.682  14.008
15934W        W88260  42.289  34.937  14.774
15935W        W88261  36.118  25.079   4.200
15936W        W88262  13.412  18.409  10.271
15937W        W88263  29.422  34.430  10.995
15938W        W88264  26.114  27.578   9.704
15939W        W88265   9.806  10.512  12.985
15940W        W88266  31.395  43.687   0.882
15941W        W88267  27.692  23.663   4.591
15942W        W88268  26.637  10.767   2.256
15943W        W88269   9.854  26.670  13.426
15944W        W88270  40.363  15.167   4.639
15945W        W88271  23.347  25.536  11.120
15946W        W88272  32.746  44.004   0.782
15947W        W88273  42.667  15.844  14.440
15948W        W88274  18.837  27.552  14.458
15949W        W88275  41.926  43.326   1.339
15950W        W88276  17.097  41.645  14.990
15951W        W88277  43.924  14.230   4.258
15952W        W88278  38.116   6.845   1.233
15953W        W88279  34.525  39.396  11.859
15954W        W88280  39.248   3.895   3.156
15955W        W88281  37.569  44.431  10.646
15956W        W88282   0.933  39.267   0.847
15957W        W88283   3.916  32.921  13.416
15958W        W88284  10.493  42.925   0.417
15959W        W88285  14.434   2.449   4.145
15960W        W88286  17.698  24.092  10.979
15961W        W88287  10.197  34.791   2.702
15962W        W88288  42.107  42.251   3.416
15963W        W88289  37.886  24.452   3.668
15964W        W88290  18.709  39.157   1.303
15965W        W88291  29.419  25.104   3.609
15966W        W88292  36.327   9.857   0.925
15967W        W88293  16.805   9.158  11.077
15968W        W88294   1.089   2.958  14.006
15969W        W88295  44.826  21.256  10.413
15970W        W88296  16.827   5.141   2.568
15971W        W88297   1.245  11.322   3.376
15972W        W88298   3.091  26.997  13.114
15973W        W88299  34.323  39.552   0.885
15974W        W88300  41.579  26.658  12.101
15975W        W88301  25.083  22.141   1.661
15976W        W88302   4.880  23.328  11.013
15977W        W88303  39.981  35.510  14.555
15978W        W88304  32.455   1.254   4.166
15979W        W88305  21.693  37.014   1.325
15980W        W88306   3.183  33.417  13.764
15981W        W88307  16.582  32.605   2.719
15982W        W88308  38.557  33.389  11.232
15983W        W88309  29.453   3.234  13.780
15984W        W88310  27.826   4.743  12.661
15985W        W88311  11.603  15.788  10.655
15986W        W88312   9.318   8.904   3.632
15987W        W88313  20.558  37.931   0.494
15988W        W88314  41.752  31.888   0.164
15989W        W88315  38.027  27.764   0.047
15990W        W88316  19.503   8.434  13.050
15991W        W88317  44.980  30.843  14.905
15992W        W88318  12.267  32.493  14.703
15993W        W88319  43.498  11.587   0.229
15994W        W88320  39.287  36.871   0.416
15995W        W88321  21.050  33.299  10.677
15996W        W88322  22.132  42.565  13.838
15997W        W88323  15.775   9.351  14.009
15998W        W88324   6.095  14.309   3.188
15999W        W88325   4.204  22.686   4.111
16000W        W88326  10.507  28.501   1.821
16001W        W88327  16.999  33.533   0.296
16002W        W88328  44.284  32.619  13.027
16003W        W88329   5.263  40.024  11.909
16004W        W88330  30.045  28.144   3.882
16005W        W88331   4.804  20.627   0.015
16006W        W88332  40.915   9.019  10.734
16007W        W88333  26.100   3.051   0.935
16008W        W88334  37.444  11.734   4.541
16009W        W88335  24.514  32.442  13.426
16010W        W88336  21.129   3.009  10.672
16011W        W88337  15.792  35.439  10.631
16012W        W88338  20.305   3.903   0.809
16013W        W88339  18.803  31.474   1.506
16014W        W88340  34.793  22.915   1.824
16015W        W88341  10.164  41.593  12.654
16016W        W88342  38.763  31.846  14.991
16017W        W88343   6.435   0.294   2.349
16018W        W88344  25.608  39.960   2.892
16019W        W88345   1.919  40.538  13.615
16020W        W88346  26.932  33.053   2.259
16021W        W88347  26.676  12.620  11.956
16022W        W88348  13.315  15.579  11.095
16023W        W88349  12.334  35.488   4.645
16024W        W88350  24.224  14.266   4.707
16025W        W88351  37.593  44.256   4.739
16026W        W88352   9.199  44.831  13.608
16027W        W88353  13.703  28.093  13.876
16028W        W88354  32.585  10.896   0.467
16029W        W88355   4.165  34.111  11.174
16030W        W88356  41.901   7.143  11.039
16031W        W88357  22.117   1.011  13.837
16032W        W88358  24.141  37.478  13.931
16033W        W88359  13.914  35.016  10.583
16034W        W88360   5.744  43.750   2.820
16035W        W88361   7.783  44.684  13.011
16036W        W88362  12.841  24.350  10.770
16037W        W88363  37.266  40.441   0.191
16038W        W88364  14.392  30.685   2.302
16039W        W88365   3.077   1.311  10.689
16040W        W88366  38.113  35.049   0.890
16041W        W88367  41.018   1.050   1.007
16042W        W88368  41.915  22.952  11.478
16043W        W88369  23.982  20.665  14.788
16044W        W88370  10.101  14.536  12.362
16045W        W88371  21.766  31.927  13.397
16046W        W88372  16.201   9.758  11.137
16047W        W88373  28.483   2.059  14.297
16048W        W88374  17.095  28.084  12.079
16049W        W88375  36.049  26.736  13.994
16050W        W88376  11.763  26.604  14.474
16051W        W88377   4.289  29.170  14.942
16052W        W88378  12.131  40.555   1.711
16053W        W88379  20.384  36.477   4.378
16054W        W88380  33.866  27.117   1.365
16055W        W88381  27.620  14.283   4.872
16056W        W88382  26.610   7.973   4.102
16057W        W88383  22.493  35.927   4.051
16058W        W88384   2.622  15.888   3.163
16059W        W88385  17.522  42.352   1.173
16060W        W88386  39.374  10.982  13.965
16061W        W88387  26.796  31.576   2.686
16062W        W88388   9.850  14.259   4.469
16063W        W88389   4.767  31.588  11.761
16064W        W88390   0.261  22.270   1.170
16065W        W88391  21.450  36.868  12.345
16066W        W88392   4.917   4.845  13.387
16067W        W88393   4.257  44.173  13.991
16068W        W88394  35.855  25.415  14.783
16069W        W88395  19.281   6.120   2.515
16070W        W88396   0.205  36.868   2.004
16071W        W88397  30.248   4.113   3.255
16072W        W88398  13.338  23.241   2.534
16073W        W88399   0.324  29.867  14.032
16074W        W88400  37.189   5.249   2.390
16075W        W88401  33.216   8.223  14.466
16076W        W88402  17.142   5.848   4.819
16077W        W88403  23.116  10.458  13.137
16078W        W88404  37.009  24.811   4.254
16079W        W88405  11.080  30.969  11.408
16080W        W88406  33.265  31.993  11.191
16081W        W88407   5.635   6.631   3.302
16082W        W88408  36.832   6.031  13.008
16083W        W88409  44.334  29.483   0.333
16084W        W88410  33.167   7.279  14.457
16085W        W88411  36.026  23.187  10.659
16086W        W88412  11.115   2.364   1.295
16087W        W88413  14.329  28.541   0.891
16088W        W88414  31.136  39.449  13.762
16089W        W88415  29.647  38.141   4.633
16090W        W88416  35.055   4.435  12.934
16091W        W88417  12.226   4.432  10.580
16092W        W88418  17.784  34.585  14.970
16093W        W88419  42.630  31.457   2.651
16094W        W88420  14.184   8.788   4.318
16095W        W88421  28.084   3.707   1.848
16096W        W88422   6.752  13.065   2.239
16097W        W88423  13.327  12.767   3.167
16098W        W88424  37.617  41.055  12.067
16099W        W88425  18.917   2.762   0.296
16100W        W88426  26.043  27.179   0.812
16101W        W88427   8.688  37.241   2.160
16102W        W88428  44.884   8.769  13.423
16103W        W88429  14.134  37.438   3.423
16104W        W88430  27.409  44.970  11.570
16105W        W88431   9.686   3.340   0.248
16106W        W88432  38.863  36.081  11.680
16107W        W88433  26.386  20.540   4.165
16108W        W88434  19.114  25.924  11.282
16109W        W88435  37.056  15.911  13.252
16110W        W88436  36.563  21.774  10.841
16111W        W88437  39.936  38.326   2.287
16112W        W88438  14.308  15.462  13.131
16113W        W88439  20.016  36.823   1.713
16114W        W88440  44.958   5.430  10.942
16115W        W88441  28.870  34.412  12.471
16116W        W88442  42.162  14.095  12.637
16117W        W88443  32.146  28.524   2.897
16118W        W88444  43.399  43.530   2.885
16119W        W88445  22.559  13.678   2.748
16120W        W88446  23.552  19.778  11.128
16121W        W88447   3.759  28.393  12.592
16122W        W88448  20.985   2.329  14.544
16123W        W88449  33.415  12.631   3.184
16124W        W88450   1.475   9.980   5.072
16125W        W88451  34.966   3.472  11.963
16126W        W88452  38.812  24.946  13.969
16127W        W88453   7.138  27.180  10.555
16128W        W88454  14.558  39.087   2.356
16129W        W88455  19.628   8.532   2.143
16130W        W88456  28.629   8.866   3.756
16131W        W88457  42.235   9.673   1.758
16132W        W88458  20.382  44.740   1.292
16133W        W88459   2.539  15.002   4.687
16134W        W88460   7.240   1.429  13.420
16135W        W88461   2.880  42.037  13.069
16136W        W88462  34.946  19.047   4.886
16137W        W88463  23.181  41.610  11.309
16138W        W88464   4.496  22.703  14.149
16139W        W88465  16.167  34.890   0.948
16140W        W88466   5.554   8.415   1.274
16141W        W88467  13.766  25.844   4.774
16142W        W88468  19.237  12.712   3.097
16143W        W88469  20.214   9.562   3.101
16144W        W88470   8.901  29.007   2.829
16145W        W88471  25.735   3.582   2.986
16146W        W88472  37.461  44.892   2.755
16147W        W88473  20.090  11.276  14.234
16148W        W88474  19.093  17.667   2.871
16149W        W88475  28.517  21.766  12.147
16150W        W88476  21.123   0.481   4.934
16151W        W88477   8.955  27.688   2.489
16152W        W88478   0.255  41.992   2.830
16153W        W88479   2.678  44.520  11.075
16154W        W88480  14.127  31.128   2.191
16155W        W88481  20.729  34.065  11.746
16156W        W88482  35.742   9.781   1.575
16157W        W88483   1.803   1.791  14.342
16158W        W88484  18.974  38.093  11.653
16159W        W88485  20.265  26.568  12.175
16160W        W88486  23.426  31.431  12.068
16161W        W88487   8.468  12.119  11.870
16162W        W88488  19.277  23.162  11.071
16163W        W88489  13.767   0.286   2.732
16164W        W88490   2.276   0.763   1.731
16165W        W88491  16.137   4.594  14.721
16166W        W88492  43.323  37.055   2.832
16167W        W88493   3.462  17.757  14.392
16168W        W88494  44.991  41.560   2.750
16169W        W88495  13.251  42.856   2.251
16170W        W88496  15.078  16.791   1.507
16171W        W88497  38.870  18.479   2.205
16172W        W88498  16.101  38.920   4.513
16173W        W88499   3.479  26.177   2.396
16174W        W88500  24.202  22.057   4.811
16175W        W88501  43.596  37.974  13.003
16176W        W88502  17.779   8.715  10.840
16177W        W88503  39.990  41.816   0.797
16178W        W88504  31.901  29.505   5.096
16179W        W88505  29.079  40.902   0.173
16180W        W88506  42.153  31.944   3.613
16181W        W88507   5.438  24.988   2.748
16182W        W88508  10.288  44.548   0.076
16183W        W88509  17.998  21.024  12.042
16184W        W88510  26.881   4.296  12.158
16185W        W88511  41.592  22.575  12.168
16186W        W88512   1.718  24.097  10.730
16187W        W88513  26.380  33.446  12.894
16188W        W88514  37.173  32.948  11.291
16189W        W88515  12.179   4.034  12.034
16190W        W88516   3.706  14.319  13.825
16191W        W88517  30.010  16.296  12.936
16192W        W88518  27.379  38.358  12.825
16193W        W88519  32.145  28.105   1.309
16194W        W88520  12.803  34.525  10.985
16195W        W88521  33.917  20.110  14.116
16196W        W88522  25.535  23.446  11.139
16197W        W88523   6.170  34.220  12.941
16198W        W88524  41.997  13.028   5.310
16199W        W88525  40.313  29.585  10.927
16200W        W88526  37.363  28.518  14.338
16201W        W88527   9.820  16.496   1.731
16202W        W88528  28.767  37.078   1.472
16203W        W88529   0.310  13.934   4.225
16204W        W88530  38.002  42.730  11.517
16205W        W88531  24.749   1.898   0.784
16206W        W88532   2.115   3.863  13.243
16207W        W88533  25.259  40.411  13.439
16208W        W88534  13.207  18.704  14.792
16209W        W88535   6.392   2.500   3.593
16210W        W88536  31.067   7.549  14.105
16211W        W88537  17.233  13.302  11.414
16212W        W88538  23.824  10.876   2.853
16213W        W88539  14.891  13.080  11.603
16214W        W88540  39.851  18.609  13.400
16215W        W88541  33.606  26.135   1.173
16216W        W88542  38.517  14.707   4.364
16217W        W88543   4.481   0.026  12.062
16218W        W88544  19.657  34.509  11.944
16219W        W88545  20.206  35.908   2.152
16220W        W88546  37.917  30.217  13.915
16221W        W88547  30.176  36.025   0.450
16222W        W88548   0.090   0.943   0.515
16223W        W88549   3.607  34.971  12.428
16224W        W88550   1.706  19.642   4.487
16225W        W88551  14.611   4.165   2.259
16226W        W88552  41.284  15.216  14.459
16227W        W88553  12.299  10.584   2.772
16228W        W88554  21.192  20.834   2.836
16229W        W88555   0.002  36.405   1.831
16230W        W88556   8.823  38.275  13.410
16231W        W88557  15.143  23.890  13.360
16232W        W88558  24.445  35.993  10.582
16233W        W88559   7.953   5.005   1.229
16234W        W88560   8.872  29.952   4.314
16235W        W88561  19.607  31.427   0.883
16236W        W88562  19.516  32.551  10.838
16237W        W88563  36.872  33.104  11.879
16238W        W88564  43.308   7.208  14.355
16239W        W88565  17.561  35.959   2.904
16240W        W88566  43.091  38.725   2.768
16241W        W88567  29.172   1.545  11.188
16242W        W88568  16.341  27.898  13.614
16243W        W88569  32.897   3.921  12.464
16244W        W88570   5.673  28.241   4.179
16245W        W88571  43.034   5.241  14.898
16246W        W88572  26.872   3.126   3.251
16247W        W88573  17.065  10.243   2.162
16248W        W88574  28.865   9.319   3.871
16249W        W88575  13.676  28.452   3.242
16250W        W88576  41.279  19.931  14.786
16251W        W88577   3.272   8.018   0.460
16252W        W88578  33.685  41.045  11.200
16253W        W88579  36.862   7.876   4.239
16254W        W88580  23.764  29.712  14.363
16255W        W88581  35.476  35.179   0.746
16256W        W88582  10.962  24.324  13.473
16257W        W88583  11.718   6.232  10.440
16258W        W88584  18.715  42.782   1.065
16259W        W88585  12.303  43.969   1.145
16260W        W88586  25.206  15.550  14.371
16261W        W88587  37.090  20.460  12.018
16262W        W88588   0.696  42.572  10.709
16263W        W88589  31.493   3.033   2.424
16264W        W88590  37.347   5.435   2.869
16265W        W88591  14.248   2.632  11.987
16266W        W88592  33.441  31.979   5.057
16267W        W88593  25.308   2.666  11.583
16268W        W88594   6.388  20.742   4.678
16269W        W88595  21.692  26.938   1.277
16270W        W88596  38.057  21.160   3.362
16271W        W88597  34.530  20.931  14.958
16272W        W88598  44.500  22.715  12.213
16273W        W88599  10.138  41.011   1.833
16274W        W88600  21.556  43.026   1.601
16275W        W88601  39.757  10.856   3.654
16276W        W88602  28.306   8.442  12.960
16277W        W88603  35.379   4.834   4.506
16278W        W88604  13.878   8.210   3.108
16279W        W88605   9.662   3.828  12.047
16280W        W88606  25.772  19.909   2.362
16281W        W88607  18.079  25.588  13.834
16282W        W88608  22.706  30.621  14.478
16283W        W88609  27.964  33.468   5.153
16284W        W88610  12.458  44.789   4.659
16285W        W88611  21.434  28.436  10.840
16286W        W88612  14.903  21.092  13.474
16287W        W88613   3.248  23.982   2.363
16288W        W88614  30.705  41.905  12.125
16289W        W88615  15.756  40.732   4.578
16290W        W88616   5.907  22.335  13.315
16291W        W88617  11.846  40.483   0.454
16292W        W88618  16.653  22.739   2.763
16293W        W88619  31.199  22.507   4.354
16294W        W88620  30.023  38.819  14.301
16295W        W88621  37.683   2.904  14.338
16296W        W88622   7.718  27.888   4.131
16297W        W88623  42.621  34.693  12.358
16298W        W88624  26.196  31.458  12.080
16299W        W88625  13.082  19.731  14.767
16300W        W88626  31.192  16.249  12.367
16301W        W88627  27.659  42.059   2.792
16302W        W88628  40.826  25.564  13.354
16303W        W88629  27.826   9.359  14.774
16304W        W88630  32.769  23.655  10.727
16305W        W88631  38.021  41.450   1.988
16306W        W88632   7.419  23.081   1.355
16307W        W88633  27.083  12.892   2.387
16308W        W88634  18.657  41.823   0.681
16309W        W88635  42.206   2.980  14.939
16310W        W88636   8.218  15.122  13.009
16311W        W88637  16.809  40.551  13.666
16312W        W88638  44.299  30.522  13.118
16313W        W88639   4.778  33.123   0.270
16314W        W88640  29.095  22.721  11.979
16315W        W88641  32.555   9.941  13.513
16316W        W88642  39.596   1.906   1.895
16317W        W88643   9.805  41.694   1.308
16318W        W88644   6.677  44.268  14.068
16319W        W88645   7.863   4.767   3.144
16320W        W88646   1.942  15.156   2.731
16321W        W88647  15.713   9.350   3.661
16322W        W88648   9.196  19.623   5.206
16323W        W88649   4.499  32.017  10.628
16324W        W88650  30.385  36.961   3.054
16325W        W88651  23.577  14.342   0.780
16326W        W88652   6.266   3.788   1.222
16327W        W88653  23.568  19.601   1.370
16328W        W88654  32.100   0.442  11.954
16329W        W88655  15.387   4.448   0.732
16330W        W88656  19.032  34.936  11.476
16331W        W88657  38.493  12.340   0.306
16332W        W88658  25.052  23.346   2.271
16333W        W88659   9.033  43.850  10.650
16334W        W88660  16.595   2.531  10.769
16335W        W88661  36.644  14.120  12.224
16336W        W88662  42.244  10.648  14.352
16337W        W88663  39.356  14.422  10.418
16338W        W88664  37.862  15.905  11.642
16339W        W88665  15.077  26.098  13.449
16340W        W88666  10.888  43.068  13.539
16341W        W88667  36.042  40.905   2.942
16342W        W88668  42.456  18.671  13.083
16343W        W88669  15.571  34.364  11.424
16344W        W88670  19.597  36.457  14.814
16345W        W88671  31.174  16.558  14.043
16346W        W88672  10.280  16.476   1.450
16347W        W88673  20.814  15.826   3.096
16348W        W88674   9.118  11.595  13.386
16349W        W88675  43.918  23.247   2.065
16350W        W88676  19.106   9.650   4.310
16351W        W88677  36.141   9.171   1.367
16352W        W88678  40.809  19.718   0.004
16353W        W88679  27.906   9.231  13.869
16354W        W88680  35.495  25.005  12.321
16355W        W88681  16.430   6.383   1.835
16356W        W88682  24.404  34.079   4.527
16357W        W88683  30.050  25.165   4.714
16358W        W88684  39.016  17.476  11.054
16359W        W88685  23.716  44.009   3.214
16360W        W88686  32.169   3.192   1.415
16361W        W88687  29.245   7.672  12.510
16362W        W88688  17.893  17.258   1.364
16363W        W88689   0.296  33.510   4.288
16364W        W88690   2.392  38.875   4.050
16365W        W88691  19.076  39.261   2.801
16366W        W88692  42.801  16.348   3.654
16367W        W88693  13.285  23.661   4.830
16368W        W88694   9.110  32.902  14.976
16369W        W88695  43.403  24.980  11.969
16370W        W88696  40.022   8.919  13.579
16371W        W88697  29.618  39.162   5.069
16372W        W88698  41.525   4.301  11.161
16373W        W88699  15.066  22.689   0.772
16374W        W88700  11.684  13.661  12.965
16375W        W88701  12.261   3.027   3.216
16376W        W88702   9.263  14.572  13.424
16377W        W88703  38.811  42.830   1.665
16378W        W88704  14.697  33.020  11.492
16379W        W88705  15.038  18.433  12.146
16380W        W88706  44.457   3.805  12.407
16381W        W88707  15.742  22.217  12.092
16382W        W88708   9.095   7.374  11.711
16383W        W88709  37.735  25.561   0.248
16384W        W88710  41.889  27.115   3.801
16385W        W88711  44.712  14.569   4.470
16386W        W88712  17.791  12.782   4.799
16387W        W88713  39.376  22.202  13.873
16388W        W88714  11.731   5.312  11.937
16389W        W88715  12.878  15.827   4.154
16390W        W88716  39.356  21.012   3.191
16391W        W88717  13.258  26.415   2.841
16392W        W88718  30.049  13.877  11.981
16393W        W88719  26.134  26.711   0.562
16394W        W88720  16.121  27.431  11.012
16395W        W88721  36.990  28.715  11.122
16396W        W88722  37.836  14.480   4.072
16397W        W88723   1.428  41.430   2.817
16398W        W88724  41.680  22.626  12.673
16399W        W88725  13.540   6.593   5.181
16400W        W88726  18.094  22.053  13.854
16401W        W88727  43.456   4.232   2.995
16402W        W88728   2.554  20.301   2.879
16403W        W88729   0.570  33.356   0.805
16404W        W88730   6.215  20.166   0.252
16405W        W88731  29.913  14.819   2.386
16406W        W88732  11.874  32.957   4.712
16407W        W88733  35.428  12.003  13.383
16408W        W88734  39.332   4.117   0.914
16409W        W88735   7.963  10.223   2.775
16410W        W88736  32.699  30.001   2.705
16411W        W88737   5.427  34.634  11.849
16412W        W88738   6.353  20.632  13.396
16413W        W88739  25.953  43.365  10.519
16414W        W88740  28.434  41.813   3.232
16415W        W88741  41.888  26.502  11.610
16416W        W88742   6.950  22.276   1.856
16417W        W88743  33.112  31.576  10.915
16418W        W88744  39.563  21.005  12.187
16419W        W88745  10.726  40.396   1.331
16420W        W88746  40.990  13.817   2.157
16421W        W88747  15.995   9.331  11.403
16422W        W88748   7.829  39.272   3.804
16423W        W88749  37.426  16.133   1.706
16424W        W88750  32.137  22.232   4.855
16425W        W88751  26.570   0.984   2.697
16426W        W88752  35.844  20.104   3.564
16427W        W88753  31.150  34.675  10.606
16428W        W88754  35.975  12.069   0.246
16429W        W88755  20.697  29.459  13.126
16430W        W88756  30.803  10.910   0.877
16431W        W88757  29.692  35.678  14.705
16432W        W88758   5.601   6.285   4.607
16433W        W88759   7.114  14.500   3.274
16434W        W88760  31.430  41.838  10.676
16435W        W88761   1.463  11.605  11.975
16436W        W88762  41.823   8.339  14.482
16437W        W88763   2.371  25.529   4.531
16438W        W88764  10.621   3.289  10.480
16439W        W88765  13.244  27.966   2.718
16440W        W88766  29.010  42.715   3.753
16441W        W88767  28.270  21.265  12.698
16442W        W88768  28.027  19.038   4.514
16443W        W88769  11.681  13.793  10.679
16444W        W88770  32.807  35.446   0.251
16445W        W88771  21.283  11.242   0.724
16446W        W88772  19.771  34.491  10.513
16447W        W88773   0.402  41.726  11.218
16448W        W88774  16.681  26.504  14.883
16449W        W88775  15.668  22.406   2.844
16450W        W88776  40.999  15.287   4.464
16451W        W88777  43.656  36.242  10.854
16452W        W88778  24.601  38.658   0.408
16453W        W88779   7.335  23.970   0.982
16454W        W88780  38.265  39.216   3.988
16455W        W88781  20.938  11.906  13.190
16456W        W88782  28.109  13.978  10.984
16457W        W88783  31.098   7.456   0.963
16458W        W88784  19.162  43.239   3.738
16459W        W88785  34.961  33.809  12.614
16460W        W88786  35.618   4.966   3.229
16461W        W88787   5.310  34.623   4.643
16462W        W88788  24.328  21.514   2.015
16463W        W88789  32.485  29.989  13.941
16464W        W88790  23.911  28.252   2.278
16465W        W88791  17.634   3.472  12.351
16466W        W88792  27.716  30.644   2.233
16467W        W88793  21.256  23.468   3.876
16468W        W88794  39.821  31.384   3.619
16469W        W88795   4.828  44.151  12.586
16470W        W88796  26.453  34.559  13.451
16471W        W88797  26.527  14.889   3.327
16472W        W88798  35.392  39.038   3.647
16473W        W88799  11.276  10.612  14.064
16474W        W88800  37.473  22.763   3.534
16475W        W88801   9.019  11.886   3.686
16476W        W88802  13.234  20.682  14.845
16477W        W88803   5.398  26.543  13.526
16478W        W88804  10.781  18.725  11.989
16479W        W88805  33.855   4.425   3.570
16480W        W88806  13.266  22.504   0.310
16481W        W88807  11.758  31.629  11.595
16482W        W88808   1.749  41.803  10.404
16483W        W88809  35.974  37.520  14.795
16484W        W88810  18.699  40.570   1.168
16485W        W88811  41.225  30.950   0.800
16486W        W88812  10.890  42.495   3.255
16487W        W88813  37.408  36.404   2.360
16488W        W88814  15.884   3.096   2.373
16489W        W88815  37.014  32.969   2.925
16490W        W88816  44.834   3.219  13.985
16491W        W88817  23.715   4.882  11.859
16492W        W88818  19.118   3.351   0.833
16493W        W88819  41.738  28.716   0.763
16494W        W88820  36.481   0.604   4.731
16495W        W88821   7.167  31.568   1.714
16496W        W88822   8.996  26.483   0.952
16497W        W88823  34.892  16.267   1.964
16498W        W88824  42.084   4.529  13.304
16499W        W88825  21.767  23.681  12.396
16500W        W88826  12.370   2.760  14.284
16501W        W88827  21.155  15.685  11.521
16502W        W88828  20.074  18.287  13.464
16503W        W88829  36.432  17.565  13.310
16504W        W88830  34.979   7.223  10.782
16505W        W88831  41.424  24.153   0.290
16506W        W88832  22.580   4.153  10.724
16507W        W88833  35.161  43.334  14.287
16508W        W88834   4.898  10.723   0.275
16509W        W88835  24.721  40.841  12.830
16510W        W88836  32.593   2.768  12.990
16511W        W88837   4.072  31.402   2.620
16512W        W88838  29.774   4.291   3.268
16513W        W88839  38.452  17.755   2.035
16514W        W88840  22.598  12.929  13.540
16515W        W88841  35.336  44.988   4.233
16516W        W88842  17.048  11.272  10.630
16517W        W88843  39.410  36.444   0.749
16518W        W88844  41.822  36.810   0.429
16519W        W88845  24.241   6.384  13.533
16520W        W88846  41.175   0.926   0.511
16521W        W88847  16.594  29.655  12.945
16522W        W88848  10.812  32.930   2.871
16523W        W88849  21.063  25.469   1.595
16524W        W88850  39.324  19.316  11.080
16525W        W88851  15.803  34.521   4.342
16526W        W88852  29.127  25.090   0.365
16527W        W88853  20.874   3.528  13.923
16528W        W88854   6.451  34.881   4.276
16529W        W88855  21.663  41.388   0.934
16530W        W88856  11.079  30.896   3.675
16531W        W88857  41.866   1.556  10.697
16532W        W88858  11.488  37.451   3.164
16533W        W88859  31.139  31.556   3.709
16534W        W88860  12.536  27.942   4.239
16535W        W88861   4.447  28.038   4.652
16536W        W88862  30.596  28.663   1.439
16537W        W88863  32.554   1.640   2.319
16538W        W88864  18.231  21.630  10.746
16539W        W88865  36.639  43.943  12.512
16540W        W88866  44.441  28.662  13.941
16541W        W88867   0.264  12.839   3.521
16542W        W88868   5.796  34.104   0.852
16543W        W88869  42.759   6.133  14.841
16544W        W88870  17.735  25.280   0.317
16545W        W88871  39.724  26.706   1.152
16546W        W88872  39.588  44.650  14.020
16547W        W88873  22.789   6.036   4.231
16548W        W88874  31.193  28.927  12.511
16549W        W88875  11.792   8.396  14.087
16550W        W88876  28.749   9.456  12.358
16551W        W88877   6.207  13.401  12.010
16552W        W88878  12.132  35.991  14.593
16553W        W88879  42.986  28.487   1.602
16554W        W88880  19.730   2.146  12.072
16555W        W88881  44.072  17.587   3.768
16556W        W88882  38.975  23.024  14.053
16557W        W88883  33.975  17.166  11.708
16558W        W88884  21.102  39.129  10.635
16559W        W88885   7.568  44.512  13.852
16560W        W88886  43.127  32.987  14.351
16561W        W88887  14.714  19.053   3.206
16562W        W88888   6.392   9.680   3.565
16563W        W88889   2.653  23.501  14.997
16564W        W88890  14.701  21.760  10.714
16565W        W88891   5.221  42.259  12.496
16566W        W88892  12.717  30.952  14.243
16567W        W88893  18.982  22.948   2.773
16568W        W88894   0.969  20.436   1.708
16569W        W88895  29.587  11.439  10.515
16570W        W88896  27.682  42.273  14.624
16571W        W88897  44.032   1.896   4.288
16572W        W88898  16.808  26.875   1.405
16573W        W88899  30.529  23.775  12.086
16574W        W88900   5.470  19.793   0.881
16575W        W88901  22.122  34.837   0.498
16576W        W88902  33.035   6.186   0.318
16577W        W88903  23.094  42.344   1.037
16578W        W88904  39.110  34.412   4.502
16579W        W88905  25.408  28.693  14.378
16580W        W88906  21.553   3.224   3.721
16581W        W88907  25.223  31.848  13.509
16582W        W88908  10.265  36.836  13.901
16583W        W88909  37.897  36.921   0.034
16584W        W88910   0.882  13.635  11.138
16585W        W88911  10.159  23.576   2.120
16586W        W88912  25.995  16.271   0.954
16587W        W88913   4.903  29.879   1.807
16588W        W88914  42.687  16.809   4.526
16589W        W88915  21.042  20.358   2.970
16590W        W88916  23.583  15.903  10.248
16591W        W88917  41.915  35.827  11.628
16592W        W88918  41.317   3.883   4.055
16593W        W88919  28.216  36.645  11.952
16594W        W88920  15.332  26.664  14.816
16595W        W88921  32.857   1.412   0.288
16596W        W88922  43.970  39.010   1.772
16597W        W88923  40.426  32.706  11.077
16598W        W88924  15.482  27.136  12.525
16599W        W88925   2.569   5.834  13.237
16600W        W88926  26.999  16.095  12.010
16601W        W88927  26.106  18.579  12.345
16602W        W88928   7.325  22.793   3.630
16603W        W88929  43.886  23.566   4.034
16604W        W88930  27.608  39.043  13.340
16605W        W88931  40.898  26.484   0.485
16606W        W88932  28.320  26.160  13.726
16607W        W88933  27.065  13.799  12.386
16608W        W88934   2.451  30.055   3.375
16609W        W88935   7.031   0.835   4.902
16610W        W88936  27.236  44.818  13.095
16611W        W88937  31.333   5.328   2.638
16612W        W88938  14.569  19.577   4.750
16613W        W88939  36.264  21.801   4.537
16614W        W88940  27.684   9.948  13.932
16615W        W88941  16.001  15.055   1.891
16616W        W88942   7.427  26.422  11.822
16617W        W88943  23.601  23.617   3.747
16618W        W88944  15.848  28.486   1.859
16619W        W88945  17.087   4.413   3.625
16620W        W88946  39.817  43.915   2.723
16621W        W88947   9.325   3.920  11.127
16622W        W88948  33.419   3.080   0.815
16623W        W88949  13.312   5.034  13.793
16624W        W88950  17.166  14.841   3.133
16625W        W88951   2.910  13.556   4.498
16626W        W88952  42.804   0.533  11.054
16627W        W88953   9.410   8.323  12.532
16628W        W88954  26.677  18.197   4.295
16629W        W88955  10.885  34.012   2.958
16630W        W88956  16.999  22.175   4.046
16631W        W88957  28.995  10.405  10.891
16632W        W88958  19.774  32.899  13.553
16633W        W88959  23.506  42.782   2.849
16634W        W88960  16.314  39.531  12.520
16635W        W88961  38.924   6.938   3.883
16636W        W88962  34.933  31.472  12.075
16637W        W88963  15.457  10.705  12.181
16638W        W88964   5.451  43.390   3.570
16639W        W88965  20.034  22.022  12.035
16640W        W88966  27.265  31.932  12.328
16641W        W88967  43.137  39.034  11.977
16642W        W88968   0.964  40.442   5.124
16643W        W88969   8.652  17.347  11.507
16644W        W88970   5.157  15.060  12.057
16645W        W88971   0.494  28.995  11.433
16646W        W88972  41.489  29.159   0.306
16647W        W88973   3.148  40.757  12.563
16648W        W88974   4.785  20.806  13.636
16649W        W88975  44.871  33.929   3.793
16650W        W88976  32.639  17.313   2.756
16651W        W88977  10.173  26.228   1.864
16652W        W88978   9.716   9.790   1.215
16653W        W88979  37.079  19.059  11.477
16654W        W88980  44.432  29.207  13.880
16655W        W88981  24.742  21.127  10.389
16656W        W88982   6.727  31.409   4.436
16657W        W88983  20.021  26.503  11.329
16658W        W88984  35.434   3.188   3.679
16659W        W88985  15.740  22.505  10.730
16660W        W88986  17.248   8.080   2.732
16661W        W88987  25.609  30.726   2.515
16662W        W88988   8.327   9.912  14.241
16663W        W88989  11.884  12.706   0.370
16664W        W88990   2.864  19.101   4.701
16665W        W88991  13.869   0.133  11.585
16666W        W88992  44.416  23.306  13.019
16667W        W88993  12.321  15.572  12.196
16668W        W88994  11.615  33.587  11.009
16669W        W88995  31.589  13.212  13.559
16670W        W88996  33.760  43.339   1.306
16671W        W88997  11.229  35.941  14.397
16672W        W88998   2.376   9.368   0.828
16673W        W88999  38.923  36.416   4.574
16674W        W89000  30.797  10.572  14.794
16675W        W89001  17.728  27.145   0.629
16676W        W89002  29.834   8.189  12.021
16677W        W89003  29.390   5.766   4.930
16678W        W89004  14.724  18.066   3.198
16679W        W89005   1.872  42.956   3.631
16680W        W89006  43.752  28.134   3.256
16681W        W89007  36.963  30.030  10.699
16682W        W89008  18.989   2.203   1.399
16683W        W89009   9.183  16.735  12.858
16684W        W89010  35.762  37.904   3.623
16685W        W89011  39.524  38.134  11.583
16686W        W89012  33.895   0.626  10.905
16687W        W89013  40.007  25.427   0.510
16688W        W89014  15.221   5.227  12.959
16689W        W89015  32.954  13.253   4.217
16690W        W89016  19.579  40.804  10.805
16691W        W89017  14.511  12.656   3.735
16692W        W89018  11.686  44.245  11.753
16693W        W89019   8.981  20.098   0.756
16694W        W89020  25.182   9.410  10.603
16695W        W89021  26.514   1.841   4.474
16696W        W89022  24.953  38.426  10.466
16697W        W89023  29.075  14.699  14.836
16698W        W89024  37.742  13.871   0.018
16699W        W89025  29.690  35.848   3.439
16700W        W89026  24.559  17.148  10.702
16701W        W89027  12.930  33.490  11.965
16702W        W89028   9.057   8.361  12.098
16703W        W89029   5.456  27.418  14.488
16704W        W89030  36.113  10.203  13.491
16705W        W89031   4.420  20.161   2.246
16706W        W89032  17.893  27.063   2.413
16707W        W89033  37.733  24.475  14.459
16708W        W89034  42.916  22.098  10.585
16709W        W89035  34.706   8.973   4.099
16710W        W89036  13.689  36.959   3.681
16711W        W89037  25.391  15.770  13.943
16712W        W89038  31.400   8.928   1.882
16713W        W89039  23.124  11.636   4.529
16714W        W89040  37.335  37.951   3.887
16715W        W89041  14.269  43.914  11.766
16716W        W89042  39.412  27.403  11.963
16717W        W89043  26.973  35.412   2.835
16718W        W89044  25.408   3.277   3.451
16719W        W89045  38.117   2.500  12.161
16720W        W89046  17.269  40.419  12.343
16721W        W89047  15.234  34.383   5.141
16722W        W89048  15.961   1.323  11.987
16723W        W89049  11.729  33.981  11.521
16724W        W89050   5.438  14.141   3.851
16725W        W89051  41.558  26.091  11.630
16726W        W89052  14.151   3.908   0.460
16727W        W89053  11.906   8.847   4.534
16728W        W89054  36.049  23.205   2.240
16729W        W89055  13.315  19.041   1.254
16730W        W89056  18.202   9.740   0.849
16731W        W89057   4.914  27.640   3.271
16732W        W89058  30.612   6.452  14.381
16733W        W89059  28.596  34.545   2.157
16734W        W89060  27.006   3.135   0.755
16735W        W89061  24.191   7.202  14.946
16736W        W89062   0.327  18.303  14.941
16737W        W89063  19.679  34.003  10.743
16738W        W89064   4.156   6.135   3.122
16739W        W89065  28.708  32.182  12.288
16740W        W89066  14.972  20.206  10.996
16741W        W89067   7.393  11.837  13.636
16742W        W89068   8.220   7.675   0.977
16743W        W89069   3.659   3.488   1.402
16744W        W89070   4.472  36.453   0.533
16745W        W89071   9.936  12.726   1.450
16746W        W89072  37.256  40.165   2.232
16747W        W89073  32.176  24.163   0.799
16748W        W89074  31.933  17.755  11.372
16749W        W89075  15.441  34.875   5.144
16750W        W89076  13.855  19.622  13.450
16751W        W89077  24.467  42.268  13.862
16752W        W89078  12.251  28.898   2.305
16753W        W89079  19.828  26.727   4.208
16754W        W89080  19.523  31.244   0.390
16755W        W89081  44.916   3.570  11.525
16756W        W89082  12.812   0.766   1.157
16757W        W89083   1.926  35.162  11.929
16758W        W89084   4.655  38.629   1.995
16759W        W89085  44.262  41.825   2.771
16760W        W89086  23.767   6.309   4.637
16761W        W89087  29.174  16.447  14.522
16762W        W89088  42.025  18.138  14.291
16763W        W89089  42.833  35.661  12.565
16764W        W89090   9.415  40.420  11.185
16765W        W89091  43.082  40.880  12.076
16766W        W89092   5.950  38.018   0.994
16767W        W89093  36.292   7.430  11.895
16768W        W89094  20.170  32.404  13.063
16769W        W89095  22.423  28.285  11.218
16770W        W89096  35.098  40.369   3.189
16771W        W89097  11.889  26.647   2.796
16772W        W89098  35.275  26.533  14.463
16773W        W89099  21.897  39.268   0.537
16774W        W89100  37.276   8.113   0.710
16775W        W89101  27.207  28.576  14.132
16776W        W89102  20.475   2.260  12.525
16777W        W89103   8.895  41.063  10.661
16778W        W89104   1.895  44.017   2.742
16779W        W89105  44.424  23.520   2.289
16780W        W89106  39.916  32.998  10.289
16781W        W89107  24.536   7.814   0.665
16782W        W89108  38.403  35.621   0.486
16783W        W89109  42.681   1.148   4.972
16784W        W89110  11.027  42.148  12.543
16785W        W89111  22.277   2.776   2.434
16786W        W89112   1.377  21.775   4.162
16787W        W89113  40.438  14.359   0.813
16788W        W89114  44.671  10.040   2.301
16789W        W89115  41.455   5.902   4.513
16790W        W89116  17.299  43.070  11.246
16791W        W89117  44.957  14.782  14.499
16792W        W89118  23.151  43.333  14.557
16793W        W89119  25.113  26.165   4.256
16794W        W89120  43.411  32.519   0.470
16795W        W89121  14.128   8.641   3.244
16796W        W89122  16.919   9.699  14.104
16797W        W89123  28.113  38.350   4.024
16798W        W89124   6.933   9.085   0.779
16799W        W89125  20.402  17.199   2.809
16800W        W89126   0.458  26.506   4.667
16801W        W89127  43.241  15.268  14.095
16802W        W89128  32.488  40.832  12.404
16803W        W89129  33.844  23.545  12.696
16804W        W89130  19.085  42.307   3.859
16805W        W89131  22.754  14.102   0.242
16806W        W89132   3.831  35.455   4.342
16807W        W89133  38.064   7.927   4.084
16808W        W89134  15.188  21.045   0.739
16809W        W89135  37.980  27.441   4.012
16810W        W89136  11.269   8.209  10.446
16811W        W89137  20.802  29.892   0.432
16812W        W89138   3.046  11.777  13.733
16813W        W89139   6.447   5.400   1.882
16814W        W89140  10.460  32.835  10.331
16815W        W89141  27.151  35.705  14.933
16816W        W89142  10.455  23.686   4.286
16817W        W89143   7.560  20.546  14.109
16818W        W89144  41.035  30.567  13.982
16819W        W89145  18.989  14.662   2.828
16820W        W89146  30.374  44.444  14.755
16821W        W89147  23.036   7.783  14.282
16822W        W89148  16.598  16.540  11.891
16823W        W89149   8.155  42.956   4.365
16824W        W89150   7.752  43.981   2.165
16825W        W89151  29.399   2.669   2.238
16826W        W89152  40.059  32.038  12.476
16827W        W89153  30.435  35.575  13.847
16828W        W89154  21.129  25.922  13.829
16829W        W89155  44.404  22.635   0.761
16830W        W89156  11.399  20.098   2.274
16831W        W89157  18.691  22.844  10.634
16832W        W89158  28.501   2.517   3.632
16833W        W89159  37.101  21.095  12.543
16834W        W89160   0.810  30.046  12.057
16835W        W89161   0.311   5.241   4.089
16836W        W89162  36.542   7.274  13.215
16837W        W89163   8.230  29.837  11.148
16838W        W89164  20.165  24.981  11.222
16839W        W89165  20.986  36.541   1.760
16840W        W89166   7.656   3.167  12.539
16841W        W89167   8.850  15.081  12.275
16842W        W89168  24.147  22.014   0.513
16843W        W89169  27.518  40.047  13.411
16844W        W89170   1.890  20.251   1.706
16845W        W89171  15.098  19.033   0.752
16846W        W89172  36.922   8.127  12.177
16847W        W89173  20.681   1.399  10.548
16848W        W89174  29.906  36.458  13.435
16849W        W89175  34.279  15.994  14.414
16850W        W89176   9.941  10.604   3.674
16851W        W89177  15.488  15.657  11.228
16852W        W89178  44.453  29.380   1.325
16853W        W89179  14.434   5.128  12.044
16854W        W89180  23.487   6.549   1.285
16855W        W89181  14.122   2.352   4.531
16856W        W89182  13.768  35.773  11.623
16857W        W89183   9.475  18.091  14.726
16858W        W89184  35.909   7.851   0.896
16859W        W89185  40.324  31.059  11.148
16860W        W89186  11.361  31.161   1.004
16861W        W89187  38.891  39.448  13.983
16862W        W89188  37.025  38.801   4.368
16863W        W89189  22.180   0.642   2.202
16864W        W89190  44.072  33.007   3.130
16865W        W89191   3.448  27.525   0.125
16866W        W89192  10.628  29.063  12.586
16867W        W89193   9.539  14.364   3.504
16868W        W89194   2.412   4.355   4.619
16869W        W89195  22.965  15.546  10.837
16870W        W89196   1.763  11.229   2.609
16871W        W89197  23.395  21.105   2.717
16872W        W89198   8.263   4.947   2.365
16873W        W89199  36.995  44.300  11.842
16874W        W89200  12.815  35.522   3.204
16875W        W89201   9.087  24.286   4.236
16876W        W89202   4.717  39.298   4.078
16877W        W89203   8.355  35.589   2.102
16878W        W89204  20.291  41.416   4.980
16879W        W89205  39.913  39.339  14.308
16880W        W89206  22.013  23.223  12.556
16881W        W89207  34.209  20.218   0.563
16882W        W89208   7.071  10.662  11.519
16883W        W89209   1.306   7.701   1.830
16884W        W89210  33.861  10.110   2.389
16885W        W89211   9.277   3.976  11.622
16886W        W89212   4.856   9.753  14.368
16887W        W89213   9.298  30.440   1.466
16888W        W89214  24.458   2.290   0.561
16889W        W89215  23.043  30.408  10.730
16890W        W89216  40.256  33.449  14.932
16891W        W89217  13.050  40.950  14.719
16892W        W89218   7.433  12.237  14.271
16893W        W89219  25.232  38.711  13.388
16894W        W89220  29.513  25.500  13.775
16895W        W89221  26.677  23.206   1.872
16896W        W89222   1.234  12.702  12.991
16897W        W89223  21.259  12.522  13.683
16898W        W89224  30.241  34.389   1.684
16899W        W89225  22.473  30.840  11.176
16900W        W89226  27.244   3.267   1.198
16901W        W89227   2.401   7.165   1.212
16902W        W89228   5.020  26.369  12.147
16903W        W89229  35.821  17.436  10.788
16904W        W89230   3.008  11.277  10.703
16905W        W89231  21.801  38.572  14.944
16906W        W89232  36.060  28.901   4.355
16907W        W89233  33.377  41.324  14.356
16908W        W89234  28.399  43.897  13.148
16909W        W89235  37.729   1.257   0.752
16910W        W89236  12.906  41.181  10.833
16911W        W89237  11.249  16.242  11.461
16912W        W89238  22.560   3.377   3.334
16913W        W89239  30.971  21.832  14.506
16914W        W89240  13.083  25.654   3.090
16915W        W89241  31.920  31.097  13.402
16916W        W89242  39.566  39.520  14.696
16917W        W89243   9.255  37.697  12.926
16918W        W89244  43.562  15.274   1.882
16919W        W89245  17.919  33.456  13.439
16920W        W89246  20.119  11.066  11.238
16921W        W89247  15.650  42.313  12.509
16922W        W89248  35.945  27.200  14.924
16923W        W89249  42.595  33.464  12.858
16924W        W89250  12.753  29.665   4.638
16925W        W89251   2.770   0.818   1.846
16926W        W89252  21.352  15.201   3.148
16927W        W89253  32.434  28.243  14.947
16928W        W89254   3.721  21.226   2.238
16929W        W89255  44.367  29.681   4.433
16930W        W89256  35.111  24.667  12.099
16931W        W89257   6.734  19.523   3.724
16932W        W89258  26.011   0.028   4.786
16933W        W89259  34.228  10.017  14.353
16934W        W89260   8.483  33.389  11.135
16935W        W89261  38.563  20.741  11.044
16936W        W89262   4.784  22.103   2.360
16937W        W89263   1.980  43.513  13.980
16938W        W89264  36.473  26.519   2.401
16939W        W89265   2.700  19.821   2.794
16940W        W89266  26.615   2.277  13.088
16941W        W89267  22.365  44.683   3.343
16942W        W89268   1.815  36.475   4.299
16943W        W89269  34.448  38.374   0.301
16944W        W89270   1.410  11.770  11.481
16945W        W89271  29.946  31.769   0.008
16946W        W89272  26.511  15.319  10.170
16947W        W89273  15.637  15.139  11.170
16948W        W89274  10.374   6.261   3.717
16949W        W89275  13.211  18.814  14.266
16950W        W89276  27.224  17.042   1.906
16951W        W89277   2.141  29.712   1.796
16952W        W89278  29.527  42.662  11.567
16953W        W89279  18.885  42.071  14.717
16954W        W89280  19.303  18.955   1.217
16955W        W89281  28.886  29.041   4.694
16956W        W89282  20.639   5.152  12.051
16957W        W89283   0.344   9.741   2.785
16958W        W89284  17.754  10.845  12.533
16959W        W89285  42.758  40.600   4.993
16960W        W89286  36.508  18.559   2.075
16961W        W89287  28.113  18.142  11.132
16962W        W89288  14.333   2.453  12.447
16963W        W89289   9.273   4.907  12.572
16964W        W89290   6.202  23.002  12.137
16965W        W89291  29.640  33.016   2.933
16966W        W89292  31.082  29.626   2.319
16967W        W89293  16.569  44.572   0.446
16968W        W89294  26.505  11.168   4.701
16969W        W89295  13.364  36.442   9.705
16970W        W89296  35.002  28.296  12.912
16971W        W89297  18.214  39.584  10.661
16972W        W89298  29.026   3.892  14.637
16973W        W89299  39.773   8.306   1.860
16974W        W89300  21.785   0.882   0.887
16975W        W89301   5.716  12.803  13.002
16976W        W89302  10.884  21.986   3.210
16977W        W89303  29.648  39.851  11.516
16978W        W89304   7.453  10.302   2.687
16979W        W89305  33.787   6.102  10.254
16980W        W89306  22.501  41.025   3.726
16981W        W89307  13.666   0.535   2.213
16982W        W89308  15.671  38.465  13.793
16983W        W89309  36.904  20.704   1.413
16984W        W89310  27.825   0.675  11.971
16985W        W89311  38.954  37.729  10.150
16986W        W89312  41.864  16.230   3.713
16987W        W89313  38.590  25.219   3.780
16988W        W89314   3.235  38.297  12.147
16989W        W89315  36.185   3.136  12.500
16990W        W89316   4.109  33.505   4.103
16991W        W89317  16.351  39.581  13.341
16992W        W89318  12.115  21.274  10.712
16993W        W89319   8.083  38.098   0.680
16994W        W89320  15.180  26.247   3.718
16995W        W89321  20.116   8.542  12.296
16996W        W89322  11.193  32.387  10.725
16997W        W89323  34.274  37.469   3.298
16998W        W89324  39.243  33.859   2.366
16999W        W89325  35.378  19.077  14.342
17000W        W89326  36.771  38.554   2.668
17001W        W89327  24.240   7.253  14.015
17002W        W89328   5.276  43.327  13.537
17003W        W89329  27.073  39.414   3.289
17004W        W89330  30.214   0.407  13.019
17005W        W89331  31.899  35.596  10.919
17006W        W89332   3.286   9.495  10.269
17007W        W89333   0.808  24.173   1.929
17008W        W89334   1.442  40.433  13.778
17009W        W89335  29.131   3.904  12.115
17010W        W89336  36.522  28.029   2.844
17011W        W89337  14.722  13.067   3.506
17012W        W89338  19.907  11.344   3.771
17013W        W89339   5.949   8.396  13.470
17014W        W89340  10.316  36.543   4.217
17015W        W89341  22.479  10.520   1.504
17016W        W89342  29.418  24.376   1.947
17017W        W89343  24.621  12.320  10.584
17018W        W89344  41.066  42.532  14.242
17019W        W89345  16.052  14.251  13.395
17020W        W89346   0.299  26.686  11.527
17021W        W89347  35.978  36.930  14.355
17022W        W89348  10.623   5.992   2.837
17023W        W89349  29.147  23.558   4.619
17024W        W89350  11.855  25.763   1.704
17025W        W89351   3.106  15.746   9.972
17026W        W89352   2.881  19.693  13.069
17027W        W89353  17.182   3.193  12.944
17028W        W89354  17.077  15.613   0.419
17029W        W89355  12.188  13.110   0.418
17030W        W89356   7.376  24.939  11.133
17031W        W89357   5.203  38.926  11.210
17032W        W89358  41.885  20.262   2.297
17033W        W89359  27.997  33.854   1.137
17034W        W89360   6.927  23.916   0.284
17035W        W89361  36.606  18.588   3.613
17036W        W89362  38.792  33.957   3.646
17037W        W89363  23.790  11.927  11.540
17038W        W89364   1.705  40.528  10.979
17039W        W89365  31.604  23.839   0.226
17040W        W89366  39.909  18.215  11.458
17041W        W89367  42.786  15.144  11.096
17042W        W89368  37.773  42.323  13.477
17043W        W89369  42.112  31.505   2.725
17044W        W89370   4.422  21.315   1.799
17045W        W89371  37.295  28.197   4.199
17046W        W89372  34.025  39.034   1.262
17047W        W89373  40.420  18.746  14.326
17048W        W89374  19.712  26.553  10.600
17049W        W89375  16.568  30.053  14.328
17050W        W89376  30.338  32.479   2.274
17051W        W89377  29.594  16.055   0.762
17052W        W89378  39.543  33.611  14.169
17053W        W89379   9.667   5.672  13.479
17054W        W89380  23.533  11.965   4.448
17055W        W89381  40.735   6.319  10.976
17056W        W89382  20.455  43.766  10.577
17057W        W89383  41.660  32.000   4.547
17058W        W89384   4.586  13.927   9.948
17059W        W89385   6.347  41.804   0.760
17060W        W89386   0.921   7.726  12.091
17061W        W89387  42.810  27.467  14.983
17062W        W89388  44.242  33.532   1.377
17063W        W89389  20.060  29.442   4.014
17064W        W89390  36.377  39.316   2.506
17065W        W89391  21.474  35.445   1.725
17066W        W89392  39.528  44.900   0.877
17067W        W89393  14.340  28.395   1.864
17068W        W89394  14.279  14.210   2.828
17069W        W89395   1.001   9.840  13.384
17070W        W89396  37.432  25.840   5.012
17071W        W89397  29.178   6.648  11.226
17072W        W89398   1.877  10.117   3.181
17073W        W89399  12.824   3.868   3.706
17074W        W89400   1.991   4.748   5.212
17075W        W89401   7.815  11.213   1.664
17076W        W89402  18.626  26.648   0.889
17077W        W89403  37.034  11.644   3.880
17078W        W89404  26.236  15.277   5.546
17079W        W89405  11.602  23.993   4.805
17080W        W89406  15.014  37.310   3.890
17081W        W89407  35.456   4.286  11.199
17082W        W89408  16.798  18.511  11.143
17083W        W89409  12.640   6.322   4.130
17084W        W89410  13.102  34.136   1.261
17085W        W89411  32.297  43.712  14.862
17086W        W89412  16.714  21.645   1.659
17087W        W89413  19.120  40.671  12.800
17088W        W89414  13.504   4.252  11.902
17089W        W89415  38.817  25.241  14.827
17090W        W89416  29.089  37.320   2.943
17091W        W89417  26.715  21.856   4.805
17092W        W89418  27.945  35.128  12.961
17093W        W89419  37.389  30.335  11.981
17094W        W89420  21.590  38.487   5.399
17095W        W89421   2.479  43.255  11.751
17096W        W89422  44.455  31.924  11.629
17097W        W89423  15.337  37.312  11.546
17098W        W89424  36.994  13.308  12.568
17099W        W89425   5.154   1.959   3.179
17100W        W89426   3.768  36.622  11.544
17101W        W89427  36.858  34.922  12.482
17102W        W89428  19.064  11.691   2.825
17103W        W89429  11.726   2.961   3.832
17104W        W89430  17.431  26.597  13.617
17105W        W89431  38.990  36.564  10.436
17106W        W89432  11.593  34.331  12.340
17107W        W89433  41.382  35.040   4.717
17108W        W89434  43.506  25.378  11.057
17109W        W89435  28.546   8.306   2.545
17110W        W89436  28.113  12.966  12.291
17111W        W89437  38.361   4.098  13.974
17112W        W89438  31.153   8.788  10.074
17113W        W89439  21.011  21.127   3.263
17114W        W89440  36.581  36.933  13.523
17115W        W89441   6.654  25.641   1.928
17116W        W89442  39.114  21.758  13.782
17117W        W89443  37.288  24.180  14.853
17118W        W89444  25.185  31.621  14.336
17119W        W89445  14.670  13.291  12.014
17120W        W89446   8.436  12.939   4.178
17121W        W89447  26.686  14.575   3.758
17122W        W89448  22.635  34.103   1.995
17123W        W89449  26.493  10.282  12.423
17124W        W89450  21.128  25.538   3.154
17125W        W89451  17.523  10.410  11.098
17126W        W89452  15.128   9.018  12.625
17127W        W89453  15.564  27.488   0.250
17128W        W89454   8.714  35.128   3.605
17129W        W89455  30.205  29.149   3.268
17130W        W89456   3.909  35.385  13.047
17131W        W89457  12.821  34.078   2.211
17132W        W89458  41.378   1.774   4.190
17133W        W89459   8.318  10.585   4.562
17134W        W89460  19.963  27.176   4.037
17135W        W89461  38.672  27.537   2.269
17136W        W89462   8.455   9.329   2.947
17137W        W89463  17.304  24.703   1.277
17138W        W89464  32.567   6.146  13.369
17139W        W89465  42.290  12.710   3.734
17140W        W89466   3.332  36.037   3.117
17141W        W89467   3.730  26.772   4.211
17142W        W89468  41.610   9.549  12.099
17143W        W89469  29.693  28.487   1.857
17144W        W89470   8.345  17.069   3.685
17145W        W89471  17.790  26.033  11.337
17146W        W89472  14.275  27.583  11.101
17147W        W89473  22.247  23.237  13.044
17148W        W89474   1.495  16.784  13.463
17149W        W89475  27.689   2.583   4.121
17150W        W89476  30.583  41.256   0.729
17151W        W89477  19.679  38.422   1.918
17152W        W89478  38.507  26.679  11.154
17153W        W89479  32.088  44.725   1.674
17154W        W89480  18.359  29.483   4.228
17155W        W89481  11.807  44.731  13.480
17156W        W89482  18.265  28.564  12.946
17157W        W89483  17.038  27.497  11.222
17158W        W89484  43.525  40.838   1.253
17159W        W89485  13.106  32.869  12.541
17160W        W89486  11.240  27.728   0.411
17161W        W89487  37.998  22.551   0.736
17162W        W89488  28.952  10.785   0.822
17163W        W89489   2.316  26.671  14.091
17164W        W89490  40.443  36.914  11.556
17165W        W89491  16.979  37.004  11.316
17166W        W89492   4.853  33.143  14.362
17167W        W89493  22.137  30.071  12.031
17168W        W89494   1.205  38.098   2.910
17169W        W89495   5.862  27.409  12.298
17170W        W89496  43.036  43.758   3.736
17171W        W89497  30.372  32.099  14.953
17172W        W89498  36.551  35.771  11.559
17173W        W89499   1.233  13.563   2.122
17174W        W89500  27.219  24.182  13.079
17175W        W89501  39.037  35.317   2.291
17176W        W89502  36.303  28.554   0.773
17177W        W89503  27.642  30.898   1.003
17178W        W89504  26.185  41.889  11.006
17179W        W89505  39.815  26.569  14.807
17180W        W89506   0.794  25.140  14.232
17181W        W89507  44.906   7.895   2.824
17182W        W89508  42.022  43.764   3.656
17183W        W89509   9.313  33.247  11.091
17184W        W89510  30.721   2.907   2.807
17185W        W89511  34.508  35.873  10.547
17186W        W89512   0.259  23.049  13.297
17187W        W89513  17.131  32.104   4.721
17188W        W89514  20.868  43.875   2.157
17189W        W89515  33.647   7.722   2.992
17190W        W89516  29.683   0.280   2.589
17191W        W89517  30.111  34.578  10.677
17192W        W89518  23.332  17.368  10.083
17193W        W89519   9.907   1.679   4.847
17194W        W89520  32.462  20.025  13.588
17195W        W89521  10.824  40.549   0.274
17196W        W89522  18.719  34.397   0.785
17197W        W89523  22.186  22.973   4.075
17198W        W89524  15.163   8.401  12.461
17199W        W89525   4.212   8.439  12.470
17200W        W89526  40.741  29.685   2.302
17201W        W89527  30.748  29.174   1.186
17202W        W89528  32.110  14.305  12.341
17203W        W89529  17.338   7.067  11.145
17204W        W89530  41.570   7.346   0.895
17205W        W89531  39.058  10.414  10.713
17206W        W89532  41.554  10.134   0.970
17207W        W89533  41.018  22.116   4.350
17208W        W89534  11.777  42.227   0.275
17209W        W89535  13.041  11.239   1.817
17210W        W89536  34.107   5.743  10.662
17211W        W89537  38.844  23.561  10.692
17212W        W89538   6.207  39.854   2.634
17213W        W89539  13.884   6.133  14.921
17214W        W89540   0.835  22.379   1.834
17215W        W89541  30.678  16.279  12.411
17216W        W89542  32.573   2.486  12.555
17217W        W89543   4.958  34.344   3.476
17218W        W89544   3.746   3.724  10.741
17219W        W89545  16.269   3.084   3.312
17220W        W89546   1.927  11.103   3.640
17221W        W89547  36.663  32.259  13.781
17222W        W89548  43.971  17.165  13.304
17223W        W89549  25.097  30.423   0.852
17224W        W89550   1.714  36.100   0.443
17225W        W89551   5.420   7.064  14.369
17226W        W89552   8.227  19.932   2.818
17227W        W89553  23.403  32.329   3.258
17228W        W89554   7.402  37.857   2.838
17229W        W89555  31.844   6.407   4.189
17230W        W89556   4.022  18.086  12.687
17231W        W89557  38.098  15.738   3.531
17232W        W89558  13.203  27.104   1.279
17233W        W89559   4.412  34.676   2.820
17234W        W89560   7.163  27.162   0.846
17235W        W89561  10.711  24.538  14.426
17236W        W89562  21.201  31.979  11.266
17237W        W89563  23.961  37.958   3.717
17238W        W89564   5.098  25.205   1.732
17239W        W89565  38.814  40.999   2.319
17240W        W89566  27.117  30.226   3.455
17241W        W89567  35.310  36.139  11.668
17242W        W89568  21.281   6.491   5.027
17243W        W89569  13.027  17.760  12.568
17244W        W89570  20.790  14.130   0.447
17245W        W89571  25.897  20.492  14.873
17246W        W89572  20.548  25.532  12.122
17247W        W89573  21.658  17.302  10.885
17248W        W89574  33.511  38.854  13.443
17249W        W89575   4.516   4.277  13.186
17250W        W89576  38.027  42.448  11.967
17251W        W89577  42.803   5.944   0.946
17252W        W89578  28.680  22.988   4.105
17253W        W89579  32.617  10.443   1.239
17254W        W89580  38.872  20.218   4.174
17255W        W89581  39.835  31.597  12.280
17256W        W89582  41.699  30.232   2.789
17257W        W89583   5.179  12.283  11.655
17258W        W89584  42.827  20.499  13.831
17259W        W89585   2.751   9.882  14.993
17260W        W89586  16.198   4.757  12.958
17261W        W89587   6.165  35.433   2.654
17262W        W89588  10.883   9.698   2.188
17263W        W89589  31.333  21.071  10.410
17264W        W89590  33.423  24.076  12.914
17265W        W89591  24.566  21.603  10.614
17266W        W89592  25.068  10.236   2.284
17267W        W89593  11.533  43.271  11.871
17268W        W89594   1.340  38.378   1.919
17269W        W89595  19.607  39.872   2.844
17270W        W89596  38.481   7.405  11.650
17271W        W89597  15.564   9.171  11.939
17272W        W89598   8.229   0.842  11.443
17273W        W89599  44.706  44.909  10.672
17274W        W89600  26.591  23.724  11.999
17275W        W89601  21.021   8.652   3.942
17276W        W89602  26.949   6.728  14.053
17277W        W89603  13.335  33.358   3.281
17278W        W89604  28.516   7.676  11.852
17279W        W89605  18.995  22.040   4.285
17280W        W89606   5.432  25.305  13.055
17281W        W89607   7.713  30.422  10.595
17282W        W89608  19.007  20.199   2.229
17283W        W89609  25.690  36.050  11.217
17284W        W89610  37.908  32.118   0.245
17285W        W89611  19.005  38.434   4.676
17286W        W89612  37.037  41.809   2.854
17287W        W89613   2.909  29.572  13.758
17288W        W89614  14.236  32.391   2.700
17289W        W89615  30.735  43.987   0.375
17290W        W89616  44.118  41.683   0.458
17291W        W89617  35.374  12.665  12.054
17292W        W89618  34.137  28.713  13.133
17293W        W89619  22.732  41.067   1.190
17294W        W89620  30.212  11.161  12.437
17295W        W89621  41.192   0.774  14.973
17296W        W89622   2.232  13.739  12.976
17297W        W89623  21.290   4.956  13.960
17298W        W89624  32.051  42.912  13.003
17299W        W89625  39.974  28.413  13.436
17300W        W89626  36.532  29.495  14.655
17301W        W89627  28.387   3.325   4.104
17302W        W89628  43.218  19.103   1.813
17303W        W89629   6.877  14.283   3.728
17304W        W89630  22.229  23.738  13.284
17305W        W89631  22.769  43.926  11.265
17306W        W89632  33.065  10.137  12.312
17307W        W89633  42.836   7.429  14.487
17308W        W89634  26.106  13.787  14.075
17309W        W89635  37.995  19.655   2.337
17310W        W89636  32.478  44.830  11.639
17311W        W89637  29.652   5.650  11.459
17312W        W89638  41.255  17.325   1.161
17313W        W89639   0.213  28.633  11.645
17314W        W89640   5.833   8.055   3.566
17315W        W89641  32.676  34.245   1.001
17316W        W89642  32.614  42.060  11.044
17317W        W89643  27.517  13.661   2.218
17318W        W89644  37.906  27.118  14.425
17319W        W89645  36.777  25.266  12.565
17320W        W89646  31.355  40.136  13.588
17321W        W89647   5.906  36.330  13.401
17322W        W89648  19.069  41.506   0.097
17323W        W89649  18.338  10.805  12.549
17324W        W89650  15.491  20.162   1.979
17325W        W89651  24.476  22.568   3.835
17326W        W89652  11.505  12.529   2.518
17327W        W89653  39.139   9.657  14.010
17328W        W89654   6.839   8.726   4.212
17329W        W89655   7.362   1.717  13.004
17330W        W89656  25.222  31.826   4.257
17331W        W89657  38.597  25.669  12.905
17332W        W89658  29.069   0.665  13.379
17333W        W89659   5.811   1.802  14.780
17334W        W89660  26.997  19.972   4.655
17335W        W89661  39.846  32.001   0.464
17336W        W89662  19.266  22.104   5.015
17337W        W89663  17.241  16.365   2.327
17338W        W89664   5.694   6.974  13.924
17339W        W89665  18.618   1.437   2.368
17340W        W89666  25.002   8.831  14.781
17341W        W89667  12.875  38.033  13.017
17342W        W89668  22.447  39.707  11.922
17343W        W89669  31.066  30.667  12.258
17344W        W89670  43.189  41.466   4.635
17345W        W89671  18.089  15.571  10.966
17346W        W89672  18.987   4.409   4.652
17347W        W89673  37.495  43.562   4.025
17348W        W89674  38.340  40.344  13.895
17349W        W89675  19.777   6.669   1.335
17350W        W89676  19.824   1.695  14.930
17351W        W89677  32.262  40.748  12.886
17352W        W89678  20.235  13.693   4.345
17353W        W89679  38.955  35.127   3.204
17354W        W89680   0.536  39.559  12.613
17355W        W89681  18.248   6.946   3.813
17356W        W89682  22.221  23.168  11.156
17357W        W89683   5.688  15.567   2.696
17358W        W89684  34.646   1.748  10.381
17359W        W89685  38.794  11.773   2.805
17360W        W89686  17.137  25.635  11.996
17361W        W89687   5.879   2.068   2.703
17362W        W89688  31.200  37.475  12.989
17363W        W89689  39.372   9.938   2.180
17364W        W89690   6.948   7.207   1.651
17365W        W89691  15.675  36.408   3.093
17366W        W89692   2.733  22.887  14.014
17367W        W89693  14.861  16.131   0.962
17368W        W89694  15.404  26.096  11.137
17369W        W89695  38.067  16.615   3.324
17370W        W89696  35.066  38.429  14.049
17371W        W89697   0.656  15.263   4.734
17372W        W89698   6.741  11.108  10.882
17373W        W89699  14.558  39.961   1.004
17374W        W89700  16.683   8.241  11.505
17375W        W89701  41.094   7.483   3.703
17376W        W89702  21.294  17.802  13.417
17377W        W89703  40.815  42.450  12.904
17378W        W89704  29.496  22.650  14.494
17379W        W89705   9.413  36.438  12.625
17380W        W89706  41.743  13.711   1.504
17381W        W89707  42.886   5.158  14.398
17382W        W89708   8.394  43.269   3.649
17383W        W89709  17.631  24.066   2.271
17384W        W89710  38.894   7.917   1.750
17385W        W89711  12.791  24.621  12.387
17386W        W89712  33.642  32.548  13.999
17387W        W89713   8.979  40.492  11.987
17388W        W89714   8.184  33.550   1.318
17389W        W89715  18.129   2.365  13.373
17390W        W89716  24.249  38.008  12.082
17391W        W89717  12.960  10.155  10.882
17392W        W89718  12.346   5.225   4.299
17393W        W89719   9.829  15.859   2.776
17394W        W89720   4.932  40.773   4.598
17395W        W89721  37.332  38.578   3.201
17396W        W89722  43.815  24.034   3.218
17397W        W89723  42.236  26.463   2.666
17398W        W89724  35.165   6.784  14.723
17399W        W89725  16.339  17.295  10.757
17400W        W89726   9.373  24.746   1.806
17401W        W89727  38.077  34.563   3.619
17402W        W89728  38.170  35.482  11.670
17403W        W89729  13.561   6.379   4.141
17404W        W89730   1.893  34.160  11.019
17405W        W89731  27.857  10.556   2.840
17406W        W89732   3.312  38.332  11.160
17407W        W89733  23.676  32.123   0.616
17408W        W89734  32.193  25.643  14.473
17409W        W89735  44.479  28.522  10.661
17410W        W89736  38.672  28.167   9.884
17411W        W89737  12.046  17.559   1.758
17412W        W89738   1.427  27.833  10.502
17413W        W89739   9.939  36.040   2.638
17414W        W89740  16.250  13.722   4.605
17415W        W89741  21.621  17.402  13.557
17416W        W89742  31.124  18.784   0.770
17417W        W89743  36.862  24.574   0.728
17418W        W89744  32.808  25.195  13.382
17419W        W89745   4.342  31.331  14.950
17420W        W89746   5.717   0.787  12.186
17421W        W89747  28.441  35.461  12.291
17422W        W89748   8.821  32.201  11.559
17423W        W89749  44.536  24.621  14.577
17424W        W89750  38.978  21.661   2.742
17425W        W89751  37.767  36.596   2.861
17426W        W89752   1.732  28.534  14.391
17427W        W89753  40.948   8.585   4.172
17428W        W89754  38.899  21.341   4.137
17429W        W89755  21.362   3.842  10.362
17430W        W89756  12.903  16.680  14.243
17431W        W89757  20.967  44.918   2.545
17432W        W89758   9.817  25.668  13.503
17433W        W89759  34.640  43.984  11.650
17434W        W89760  36.366  41.415   3.344
17435W        W89761   4.937  42.338   2.404
17436W        W89762  20.276  17.497   1.404
17437W        W89763   2.795  21.170   1.426
17438W        W89764  13.893  27.220   3.692
17439W        W89765  37.545  17.545   5.047
17440W        W89766  27.441   3.895   4.139
17441W        W89767  12.320  27.755   3.305
17442W        W89768  10.088  13.860  12.884
17443W        W89769  11.185  11.154   0.359
17444W        W89770   3.622  12.318  12.498
17445W        W89771  11.633  22.281   4.873
17446W        W89772   7.251   3.976   4.149
17447W        W89773   4.383  16.065   3.236
17448W        W89774  28.870  40.605   1.811
17449W        W89775  24.002   2.350  12.477
17450W        W89776   6.768  18.392  13.532
17451W        W89777  38.663  35.625  11.545
17452W        W89778  17.319  43.408   1.852
17453W        W89779   5.657  38.031   1.418
17454W        W89780  43.917  29.423  13.120
17455W        W89781  20.290  12.271   4.648
17456W        W89782  28.493  43.275  14.926
17457W        W89783  42.878  35.019   1.904
17458W        W89784  43.988  43.558   1.674
17459W        W89785   8.986   6.308  14.480
17460W        W89786  36.504  26.988  12.775
17461W        W89787  32.592  14.175   2.922
17462W        W89788  25.106   2.450  13.657
17463W        W89789  35.564  43.794  10.736
17464W        W89790  30.081   6.923   0.454
17465W        W89791   5.782  26.535   3.081
17466W        W89792   6.318   8.813   0.817
17467W        W89793  20.837  10.805  11.639
17468W        W89794  20.907   2.785   2.691
17469W        W89795   5.617  36.519  14.725
17470W        W89796  15.338   3.882  11.856
17471W        W89797   2.048  11.111  10.784
17472W        W89798   9.443  41.839   1.692
17473W        W89799  39.406   7.825  12.969
17474W        W89800  28.990  31.994   4.752
17475W        W89801  24.122   5.793   0.956
17476W        W89802  32.361  18.665  10.919
17477W        W89803  19.043  36.171  13.625
17478W        W89804  40.261  16.376   3.669
17479W        W89805  41.864  15.702  10.479
17480W        W89806  15.206  27.790   2.777
17481W        W89807  28.596  17.641  14.102
17482W        W89808  12.074  38.353   1.766
17483W        W89809  38.313  37.292  14.593
17484W        W89810  11.228  41.963  13.011
17485W        W89811  16.026  29.022  12.000
17486W        W89812  34.476  44.738  14.565
17487W        W89813  25.000  40.031   0.774
17488W        W89814  44.751   9.895  12.561
17489W        W89815  44.470  13.842  12.597
17490W        W89816  36.811  30.673   1.331
17491W        W89817  26.887  15.296  12.572
17492W        W89818  37.425   7.738  12.627
17493W        W89819  37.610  16.217   4.072
17494W        W89820   3.888   9.408   5.676
17495W        W89821  28.561  13.871  14.007
17496W        W89822  17.210  38.754  11.147
17497W        W89823  37.062   1.169  10.736
17498W        W89824  27.396  40.417   0.826
17499W        W89825  44.811  14.958   3.548
17500W        W89826  18.753   8.146  14.776
17501W        W89827  24.018  41.339  10.301
17502W        W89828  12.663  27.662   9.844
17503W        W89829  13.336  39.905  11.994
17504W        W89830  19.138  18.693  10.487
17505W        W89831   6.883  31.552  13.120
17506W        W89832   2.154  38.020   3.520
17507W        W89833  22.289  23.708  12.388
17508W        W89834   0.306  44.738   3.146
17509W        W89835   5.852  22.339   4.293
17510W        W89836  18.549   5.153   1.615
17511W        W89837  11.915  33.148  13.128
17512W        W89838  24.712  12.704   4.524
17513W        W89839   7.445  15.154   2.545
17514W        W89840  39.767  13.814   2.894
17515W        W89841  26.782  22.465  12.431
17516W        W89842  24.080  41.517  11.157
17517W        W89843  31.877  15.696  14.161
17518W        W89844  22.710   9.818   0.840
17519W        W89845   2.792  27.581   1.872
17520W        W89846  43.536  30.795   4.973
17521W        W89847  11.745   5.796   0.741
17522W        W89848  13.751  19.151   3.894
17523W        W89849  13.622   7.347   3.413
17524W        W89850  11.361  30.580  14.970
17525W        W89851   0.491  20.621  13.864
17526W        W89852   1.474  15.020  13.224
17527W        W89853  13.019  20.247   4.167
17528W        W89854   4.685  44.884   2.372
17529W        W89855  42.904  30.482   1.870
17530W        W89856  18.170  25.634   1.819
17531W        W89857  13.247  26.545  11.333
17532W        W89858  33.587  35.016  13.946
17533W        W89859  30.404   6.305   0.763
17534W        W89860  28.736  24.558   4.881
17535W        W89861  23.190  27.935   2.747
17536W        W89862  16.734  40.873   4.632
17537W        W89863  16.188  28.927  13.183
17538W        W89864  36.362  35.668   4.124
17539W        W89865  24.986  34.929  12.810
17540W        W89866  29.151   9.036   4.503
17541W        W89867  36.047  12.161   3.898
17542W        W89868  43.382  34.591  14.301
17543W        W89869   5.727  16.202  14.770
17544W        W89870  24.543   1.514  11.263
17545W        W89871  28.956   6.255  11.472
17546W        W89872  44.418  19.133   2.367
17547W        W89873   4.837  41.324   2.407
17548W        W89874  27.263  42.864  13.465
17549W        W89875  37.753  44.955   3.186
17550W        W89876  10.451  42.428   0.319
17551W        W89877  31.400   8.887  14.586
17552W        W89878  38.077  24.998  10.740
17553W        W89879  42.973   8.294   3.840
17554W        W89880  37.811  43.105   3.763
17555W        W89881  30.076   7.863   4.759
17556W        W89882  29.875  44.375   4.654
17557W        W89883  40.369  17.112   0.546
17558W        W89884  24.511  38.837  11.192
17559W        W89885   0.219  43.871   1.361
17560W        W89886   2.545  33.265   4.240
17561W        W89887  23.206  17.718  10.628
17562W        W89888  41.879  12.353   2.905
17563W        W89889  39.580  41.484  11.946
17564W        W89890  14.295   7.656   0.339
17565W        W89891  37.401   7.825  14.036
17566W        W89892  14.051   5.206   0.005
17567W        W89893  16.639  35.888   2.399
17568W        W89894  35.035   5.694  10.289
17569W        W89895  39.256   3.214   1.734
17570W        W89896  19.149  27.448   3.098
17571W        W89897  25.724  20.730   1.427
17572W        W89898  40.982  31.534   4.202
17573W        W89899  32.813   3.860  10.798
17574W        W89900  16.589  36.423   0.439
17575W        W89901  20.648  29.221  11.235
17576W        W89902   0.336  31.892   0.784
17577W        W89903   5.822  14.894   2.226
17578W        W89904   4.196  42.792  14.988
17579W        W89905  13.108  21.467  12.741
17580W        W89906   0.929  36.094   4.206
17581W        W89907  21.200  18.536  10.702
17582W        W89908  36.025   9.375  13.111
17583W        W89909  23.978  19.215   4.531
17584W        W89910  12.587  37.632  11.384
17585W        W89911  39.060  21.477  12.959
17586W        W89912  39.406  19.478  14.388
17587W        W89913  31.892  39.935  11.650
17588W        W89914  44.201  15.811  14.735
17589W        W89915  34.387  29.402   0.482
17590W        W89916   0.996   2.802   3.426
17591W        W89917  14.975  24.250  14.571
17592W        W89918   2.052  18.664   0.434
17593W        W89919  19.322  20.470   3.704
17594W        W89920  15.303  32.456   1.055
17595W        W89921  39.155  22.965   2.842
17596W        W89922  44.784  25.382  14.791
17597W        W89923  33.089  42.022   3.716
17598W        W89924  42.054  10.870  10.846
17599W        W89925   0.447  34.502  12.473
17600W        W89926  30.982  19.330   4.274
17601W        W89927  37.916   7.883  13.945
17602W        W89928  20.955   2.363  12.668
17603W        W89929  32.199   0.940   0.403
17604W        W89930  28.705  43.665   3.755
17605W        W89931  26.867   5.779  11.132
17606W        W89932   2.664  16.651   4.203
17607W        W89933  11.201  23.947   1.803
17608W        W89934  10.307  12.745   3.856
17609W        W89935  15.731  22.735  13.021
17610W        W89936   0.366  11.607  14.511
17611W        W89937  36.560   3.835  10.869
17612W        W89938  22.496  25.474   3.294
17613W        W89939   9.518  25.996  13.795
17614W        W89940  39.275  28.872   4.142
17615W        W89941  15.300  27.882   3.707
17616W        W89942  11.275   2.692  13.328
17617W        W89943   1.044  24.844  12.812
17618W        W89944   6.330  22.221   0.336
17619W        W89945  41.859  31.115  13.854
17620W        W89946  39.915  38.448  12.349
17621W        W89947  32.889  12.391   1.847
17622W        W89948  32.629   6.867   1.843
17623W        W89949  30.886  11.008  10.979
17624W        W89950  20.318   7.344  14.883
17625W        W89951  41.916  34.573  14.950
17626W        W89952  44.301   3.122   3.740
17627W        W89953  26.439   0.539   3.019
17628W        W89954  29.493  14.804   2.075
17629W        W89955  13.586  40.741   0.474
17630W        W89956  24.530  37.608   3.719
17631W        W89957  33.821  44.061  13.404
17632W        W89958  14.102  18.895  12.015
17633W        W89959  41.492  42.185  14.848
17634W        W89960  28.457  24.479  12.926
17635W        W89961  27.129  39.927   3.295
17636W        W89962  39.937  27.500   1.896
17637W        W89963  31.387  27.664   2.328
17638W        W89964   4.129  23.636  11.594
17639W        W89965  40.157  36.806  14.798
17640W        W89966  44.907  18.231   4.641
17641W        W89967  42.476   4.172  11.203
17642W        W89968   5.951  29.635   3.124
17643W        W89969  32.177  33.816  10.927
17644W        W89970  28.505   5.825   1.437
17645W        W89971  42.290  31.095  11.904
17646W        W89972  18.741  27.405   2.792
17647W        W89973   9.210   9.089  13.972
17648W        W89974  26.117  21.463   2.771
17649W        W89975  19.262  31.931  13.356
17650W        W89976   8.797  22.016  11.192
17651W        W89977  15.771  43.855  13.912
17652W        W89978  11.070  33.646   3.779
17653W        W89979   0.650  26.002   4.629
17654W        W89980  33.617  27.731   2.754
17655W        W89981  37.140  27.294  11.138
17656W        W89982  38.884   1.282  10.776
17657W        W89983  44.892  30.016  11.639
17658W        W89984  36.784  25.616   2.432
17659W        W89985   4.943  23.371   2.656
17660W        W89986   2.271  44.851   2.896
17661W        W89987  25.292  13.573  11.201
17662W        W89988  27.567  13.575  12.366
17663W        W89989  17.594  28.028   1.180
17664W        W89990   7.884  36.339   4.636
17665W        W89991  19.762  15.763  12.049
17666W        W89992  32.491  41.459   3.583
17667W        W89993  14.518  18.609  12.137
17668W        W89994   2.744   5.731   1.461
17669W        W89995  32.198  14.175   2.211
17670W        W89996  18.282  16.048   0.386
17671W        W89997  21.234  37.518  11.074
17672W        W89998  32.229  22.583  10.634
17673W        W89999   3.516  23.545   4.139
17674W        W90000  15.412  19.813  11.958
17675W        W90001  16.559  35.675   0.424
17676W        W90002  19.111  14.657   1.895
17677W        W90003  29.148  39.766  13.915
17678W        W90004   2.318  42.333   0.953
17679W        W90005   7.430  44.997   2.798
17680W        W90006  28.038   6.126   3.125
17681W        W90007   8.851  34.929  10.755
17682W        W90008  10.312   0.980   1.354
17683W        W90009  33.592  36.378  14.346
17684W        W90010  36.946  44.328  12.346
17685W        W90011  39.834  43.522  11.076
17686W        W90012  30.380   3.364   0.322
17687W        W90013  26.490  21.154  10.386
17688W        W90014  38.537  37.915  11.823
17689W        W90015   1.390  18.218  11.530
17690W        W90016  32.338  38.107  13.885
17691W        W90017   0.420  33.174  11.701
17692W        W90018  29.939  30.985   4.303
17693W        W90019  44.499  28.123  13.888
17694W        W90020  20.695  44.000   4.904
17695W        W90021  32.579  14.551  10.205
17696W        W90022   4.045  30.547   1.301
17697W        W90023  28.667  25.917  12.900
17698W        W90024  20.630   8.497  11.966
17699W        W90025   9.243  10.590  14.816
17700W        W90026  22.689  21.193   0.998
17701W        W90027  23.676  31.050  11.170
17702W        W90028  30.600  36.328  14.270
17703W        W90029  44.314   3.408  10.171
17704W        W90030  20.847  33.829  12.689
17705W        W90031  41.098  18.108  13.514
17706W        W90032  11.880  31.662   3.036
17707W        W90033  36.112  21.713  12.408
17708W        W90034  17.330  11.758   2.218
17709W        W90035   1.048   9.146  12.154
17710W        W90036  25.279  36.874  11.448
17711W        W90037  44.370  17.059   1.378
17712W        W90038  42.076  21.301   2.383
17713W        W90039  16.180  40.530   2.884
17714W        W90040  17.186  26.938  13.309
17715W        W90041  40.949   2.810   3.413
17716W        W90042  19.701   5.747   2.849
17717W        W90043  17.099  44.580  11.597
17718W        W90044   0.143   1.731   2.313
17719W        W90045  10.652  31.160  13.015
17720W        W90046  37.525   3.758   1.516
17721W        W90047  43.482  28.126   0.798
17722W        W90048  28.191  37.023   3.862
17723W        W90049  37.226  34.328   4.184
17724W        W90050  13.803  17.389  14.747
17725W        W90051  15.115   6.764  11.548
17726W        W90052  42.104   1.277   4.146
17727W        W90053  28.040  12.490   2.141
17728W        W90054  35.695  11.676   4.568
17729W        W90055  28.643  10.626   3.225
17730W        W90056  19.075  21.585   1.646
17731W        W90057  14.013  30.339  13.922
17732W        W90058  42.224  11.209  12.807
17733W        W90059  34.574   1.549   2.238
17734W        W90060  21.293  20.995  12.309
17735W        W90061  20.785  12.296  11.102
17736W        W90062  12.328  37.316   1.201
17737W        W90063  43.494  24.049   2.293
17738W        W90064  19.738  29.371  10.675
17739W        W90065  24.709   1.997  11.212
17740W        W90066  22.992   7.952  10.522
17741W        W90067  30.703  39.353   3.668
17742W        W90068  22.818  18.930  13.373
17743W        W90069  33.203  19.076   3.875
17744W        W90070  14.687   5.637   3.237
17745W        W90071   1.366  27.745   2.650
17746W        W90072  34.141   8.315   1.395
17747W        W90073   9.593  35.061   4.794
17748W        W90074  36.391  20.775   3.462
17749W        W90075  18.629  44.096  10.512
17750W        W90076  23.197  25.536   0.650
17751W        W90077  18.722   2.002   4.191
17752W        W90078  28.451  17.702   0.086
17753W        W90079  39.326  23.671  10.959
17754W        W90080  11.594  42.852   2.834
17755W        W90081  40.585  20.624  13.879
17756W        W90082   5.225   4.413   3.596
17757W        W90083  44.656   1.904   2.425
17758W        W90084  16.808   7.716   1.631
17759W        W90085  23.229  21.549  14.295
17760W        W90086  25.110   1.722  10.685
17761W        W90087  30.547  27.727   0.397
17762W        W90088  15.737  14.564   0.270
17763W        W90089  36.638   0.954   2.727
17764W        W90090  39.503  17.701  14.062
17765W        W90091  26.691  34.388   0.779
17766W        W90092   0.279  41.530   3.181
17767W        W90093  35.068   9.666   3.583
17768W        W90094   7.830  30.591  14.218
17769W        W90095   5.798  39.355   3.342
17770W        W90096   2.519  18.941  11.582
17771W        W90097  12.045  23.848  10.764
17772W        W90098  31.448  30.598   4.440
17773W        W90099  17.663  22.645  11.667
17774W        W90100  39.972  10.591  11.588
17775W        W90101   2.048   8.914   0.019
17776W        W90102   2.425  32.458   1.144
17777W        W90103  12.299  33.480  11.600
17778W        W90104   6.010  15.061  11.561
17779W        W90105  28.387  36.329  14.491
17780W        W90106  38.602  26.185  11.945
17781W        W90107  27.905  15.543   2.303
17782W        W90108  27.130  16.642   2.228
17783W        W90109  18.500  41.700   3.533
17784W        W90110  16.818  22.711   4.652
17785W        W90111  16.049  23.587  13.907
17786W        W90112  32.743  10.986   4.216
17787W        W90113  39.843   5.714  11.421
17788W        W90114   3.666  37.016   1.309
17789W        W90115  19.095   4.732  11.900
17790W        W90116   6.947   4.446   3.257
17791W        W90117  27.129  33.907  12.802
17792W        W90118  22.557  36.362   4.824
17793W        W90119   8.651  25.989  11.985
17794W        W90120  42.765   9.678  12.609
17795W        W90121  25.720  36.865  14.978
17796W        W90122  20.685   7.114  13.888
17797W        W90123  30.192  37.446   2.911
17798W        W90124  10.140  13.192   1.225
17799W        W90125  41.438  23.202   3.176
17800W        W90126  27.076   7.830  12.782
17801W        W90127  24.631  29.655   3.422
17802W        W90128  15.244  14.172  10.797
17803W        W90129  15.508  35.624  11.042
17804W        W90130  11.331   3.477  10.447
17805W        W90131  22.264  38.414  12.880
17806W        W90132  38.994   1.795   0.709
17807W        W90133   8.488   7.237  13.840
17808W        W90134  23.841  26.191  11.954
17809W        W90135  19.822  21.269  13.301
17810W        W90136   1.760  31.990  10.610
17811W        W90137  30.621  38.697   1.449
17812W        W90138  26.538   1.879   0.459
17813W        W90139   9.105  11.062  10.666
17814W        W90140  12.458   5.461  13.091
17815W        W90141  37.518   8.633  10.900
17816W        W90142   8.107  33.498  13.420
17817W        W90143  23.621  41.151  14.835
17818W        W90144  34.121  16.164  12.676
17819W        W90145  30.152   9.566   3.745
17820W        W90146  14.709  35.917   3.190
17821W        W90147  31.024  27.017  10.802
17822W        W90148  19.786   2.179  11.520
17823W        W90149   9.614  21.707  14.238
17824W        W90150  14.317  33.361   2.870
17825W        W90151  10.367  29.484  12.440
17826W        W90152  33.339  40.299  11.884
17827W        W90153   7.852  11.801   4.636
17828W        W90154  38.561  21.614   0.451
17829W        W90155  18.777   0.530   3.396
17830W        W90156   5.458  12.337  13.014
17831W        W90157  15.724  35.822   4.300
17832W        W90158  11.012  42.999   0.332
17833W        W90159   7.622   5.157   3.379
17834W        W90160  22.699   2.316  11.103
17835W        W90161  26.011  14.104  11.591
17836W        W90162  30.947   1.957  10.647
17837W        W90163  32.177  44.517   3.357
17838W        W90164   4.263   3.856  10.689
17839W        W90165  19.279  38.891   2.331
17840W        W90166   0.582  39.542  12.098
17841W        W90167  33.869   9.242   4.363
17842W        W90168  32.144  43.761   1.309
17843W        W90169  40.164  37.734  11.182
17844W        W90170  20.918  14.850   4.589
17845W        W90171  14.018  13.108  14.692
17846W        W90172  21.950  37.970  12.925
17847W        W90173  42.258  15.975   1.883
17848W        W90174  34.238  27.291   3.251
17849W        W90175   0.828  14.122  12.437
17850W        W90176  25.578   6.711   0.948
17851W        W90177  27.129  21.259   4.269
17852W        W90178  23.236   2.258   1.323
17853W        W90179  17.154   3.988   1.027
17854W        W90180   5.944  34.570   1.083
17855W        W90181  24.508   2.863   3.777
17856W        W90182  29.996  29.546  13.352
17857W        W90183  38.789  12.853  10.062
17858W        W90184  30.734  29.058  14.396
17859W        W90185  12.206  41.587   2.703
17860W        W90186  40.157  22.254   2.202
17861W        W90187   1.489  29.288  14.811
17862W        W90188  24.418  25.226   2.380
17863W        W90189  22.603  18.001  12.279
17864W        W90190  18.220  31.369   0.893
17865W        W90191   2.493  40.471   1.794
17866W        W90192  34.026  41.740   0.988
17867W        W90193  10.221   4.461  13.900
17868W        W90194  29.370  40.193  14.134
17869W        W90195  43.486   8.307   2.847
17870W        W90196  18.853  13.389  14.016
17871W        W90197  21.276  11.569  13.352
17872W        W90198   9.709  32.424  11.733
17873W        W90199   2.468  30.143   1.782
17874W        W90200  44.309  11.134  13.271
17875W        W90201  21.245  31.823   3.708
17876W        W90202  28.403  25.600   5.465
17877W        W90203  43.722   8.653   2.459
17878W        W90204  14.067  17.832   2.214
17879W        W90205  38.541  12.230   2.862
17880W        W90206  22.046  24.195  13.401
17881W        W90207  43.499  25.244   4.500
17882W        W90208  31.380  15.372   4.332
17883W        W90209  37.813  13.822   9.697
17884W        W90210  38.275   0.121   1.515
17885W        W90211  13.174   2.028   3.923
17886W        W90212  34.414   4.427   0.527
17887W        W90213   3.924  34.756  11.972
17888W        W90214  36.080   7.331  13.436
17889W        W90215  23.938  14.306   1.455
17890W        W90216  14.272   3.303   2.107
17891W        W90217  19.404  28.454   1.983
17892W        W90218  37.385  13.727  13.543
17893W        W90219  27.148  37.875   3.575
17894W        W90220  35.323   8.421   1.802
17895W        W90221  24.936  19.717   2.360
17896W        W90222  35.821   1.468  13.036
17897W        W90223   5.749  10.962  14.252
17898W        W90224  37.360  18.415  13.537
17899W        W90225   8.706   4.875   1.827
17900W        W90226  19.098  39.282   3.373
17901W        W90227  12.026  41.468  13.839
17902W        W90228  10.354   5.929  13.794
17903W        W90229  36.170  21.203   1.338
17904W        W90230  11.199  33.453   1.569
17905W        W90231  10.668  26.264   4.202
17906W        W90232   0.395  32.069   3.523
17907W        W90233  25.141   0.289  14.487
17908W        W90234  35.429  36.999   0.219
17909W        W90235  35.119   3.250   5.493
17910W        W90236  24.075  42.038  11.065
17911W        W90237  25.070  28.651  12.718
17912W        W90238   4.065  21.900  11.822
17913W        W90239  43.277  40.419  12.032
17914W        W90240  15.788  16.233  14.851
17915W        W90241  40.243  30.429   0.815
17916W        W90242  37.507  32.108   3.706
17917W        W90243  30.660  33.193  11.532
17918W        W90244  23.392  38.389   2.416
17919W        W90245  21.550  35.055   2.182
17920W        W90246  11.710  19.505  10.742
17921W        W90247  13.764  16.239  13.909
17922W        W90248  29.007  36.575   0.774
17923W        W90249  33.609   3.312   2.577
17924W        W90250  21.369  36.740   3.692
17925W        W90251  14.627  13.320   2.201
17926W        W90252  27.337   5.770  11.969
17927W        W90253  29.189  31.475  14.275
17928W        W90254  44.866  39.093   2.728
17929W        W90255  23.797   4.671   4.275
17930W        W90256  25.510   0.814   1.299
17931W        W90257  22.506  42.188  13.009
17932W        W90258  11.303  32.022   2.808
17933W        W90259  20.170  13.198  13.394
17934W        W90260  23.088  29.537   3.873
17935W        W90261   3.266  27.770  13.787
17936W        W90262   0.434  35.277  11.146
17937W        W90263   8.872  43.234   2.224
17938W        W90264  19.908  20.240  12.625
17939W        W90265  36.466  16.741  13.282
17940W        W90266  24.753  43.631  13.958
17941W        W90267   1.463  44.272   4.601
17942W        W90268  17.995   9.274  14.406
17943W        W90269  37.477  44.956  14.303
17944W        W90270  33.857  42.130  13.035
17945W        W90271   0.956  13.336   1.722
17946W        W90272  30.785  29.712   2.874
17947W        W90273  40.844  27.138   4.891
17948W        W90274  40.554  24.756  12.186
17949W        W90275   8.732   2.391   1.212
17950W        W90276   1.196  22.611   0.710
17951W        W90277  28.246   9.640   4.595
17952W        W90278  13.651   6.610   1.375
17953W        W90279  23.112  39.903  11.479
17954W        W90280   4.168  16.199  10.708
17955W        W90281  42.747   3.287  12.839
17956W        W90282   4.597   6.391   3.202
17957W        W90283   9.972   3.948   4.153
17958W        W90284  35.962  30.895  13.413
17959W        W90285  44.327  28.193   0.877
17960W        W90286  42.815  22.094   0.676
17961W        W90287  26.380  32.535   2.869
17962W        W90288  36.623  34.606  12.876
17963W        W90289  19.832  13.396   0.891
17964W        W90290  15.325  32.624   2.028
17965W        W90291  12.815  44.793   4.207
17966W        W90292  33.385  13.358  13.122
17967W        W90293  24.762   8.442   0.933
17968W        W90294  41.303   6.806   3.257
17969W        W90295  44.773  27.517  13.958
17970W        W90296  33.526  20.327  11.689
17971W        W90297  20.040  32.529   0.949
17972W        W90298  16.809  24.647  12.595
17973W        W90299  12.202  34.244   3.021
17974W        W90300  33.117  33.551   0.315
17975W        W90301  28.444  33.610  12.580
17976W        W90302  33.487  33.030   2.244
17977W        W90303  31.163   9.208   3.092
17978W        W90304  21.135  12.720  11.618
17979W        W90305  16.149  38.114  13.350
17980W        W90306  41.082  17.661  10.638
17981W        W90307  32.230  22.452   0.936
17982W        W90308  17.879   0.786   1.763
17983W        W90309  10.369  30.459  10.675
17984W        W90310  44.216  33.186  14.148
17985W        W90311  30.618   5.849  12.359
17986W        W90312  24.471   1.325  12.449
17987W        W90313   8.729  42.690   0.854
17988W        W90314  28.367  12.824   0.566
17989W        W90315  18.160   8.866   3.296
17990W        W90316  22.957  22.811   3.615
17991W        W90317  12.730   7.410   4.340
17992W        W90318  16.878  17.008   2.659
17993W        W90319  22.065  24.045  14.195
17994W        W90320  13.926  21.163   5.085
17995W        W90321   7.342  37.095   0.094
17996W        W90322  29.722   2.529   0.023
17997W        W90323   2.966  16.802  14.391
17998W        W90324  41.450  27.490  13.781
17999W        W90325   9.171  43.366   1.598
18000W        W90326  17.569   1.680   1.418
18001W        W90327  27.648  14.620   3.761
18002W        W90328  39.380  25.696   1.297
18003W        W90329  19.214  40.206  11.095
18004W        W90330   5.196  25.967   3.736
18005W        W90331  14.185  12.215  12.151
18006W        W90332  23.645  30.982  14.901
18007W        W90333   5.170  34.072   0.091
18008W        W90334  36.144  38.861  12.465
18009W        W90335  26.719  18.971   4.614
18010W        W90336  27.708   4.326   4.227
18011W        W90337  31.775  17.754  10.399
18012W        W90338  12.907   9.640   0.453
18013W        W90339  36.551  28.782   4.115
18014W        W90340  27.506  22.054   3.534
18015W        W90341  23.469   7.952  12.403
18016W        W90342  24.651  35.582  14.034
18017W        W90343   0.039  27.010   3.890
18018W        W90344  32.786  35.338  14.731
18019W        W90345  31.474   7.926   0.995
18020W        W90346  24.598   6.645  13.784
18021W        W90347   8.663  12.796   2.141
18022W        W90348   3.452  25.509  14.373
18023W        W90349   8.952  13.597  12.409
18024W        W90350  26.498  12.102   2.836
18025W        W90351   6.244  43.876   3.570
18026W        W90352  40.496  41.427  14.952
18027W        W90353  35.570  38.414   4.522
18028W        W90354  37.146  10.774  13.031
18029W        W90355   8.147  28.743   3.192
18030W        W90356  22.601  15.236   1.931
18031W        W90357  29.434  18.619  14.836
18032W        W90358   7.821  22.395   0.222
18033W        W90359  15.579  21.548   0.421
18034W        W90360  34.219  19.851   2.904
18035W        W90361  14.235  38.935   3.842
18036W        W90362   7.825  21.502   2.973
18037W        W90363  22.831   3.947   3.655
18038W        W90364  31.946  24.568  11.512
18039W        W90365   2.038  13.694  13.521
18040W        W90366   9.337   5.728  13.902
18041W        W90367  40.108  25.785   0.083
18042W        W90368  24.005  17.059   3.190
18043W        W90369   1.751  11.281   2.057
18044W        W90370  19.680  31.609  11.903
18045W        W90371  37.908  19.924  14.984
18046W        W90372  28.521  22.258  11.964
18047W        W90373  22.772  32.517  14.260
18048W        W90374   5.854  39.821  14.967
18049W        W90375  16.407  29.167   1.200
18050W        W90376  39.774  38.636  12.833
18051W        W90377  41.516   0.971   0.921
18052W        W90378  29.690  13.250   4.094
18053W        W90379  26.880  31.947   3.198
18054W        W90380  13.141  21.630  11.737
18055W        W90381  44.937  33.930   1.067
18056W        W90382   2.353  18.871  12.494
18057W        W90383  38.802  12.304   3.343
18058W        W90384  13.260  19.368  10.696
18059W        W90385  14.368  28.538  11.105
18060W        W90386  43.632  11.334   4.493
18061W        W90387  17.615  11.556  13.850
18062W        W90388  32.662  12.765  11.110
18063W        W90389  38.001  26.889  12.064
18064W        W90390  41.890   9.926  12.956
18065W        W90391  17.974   8.381   3.182
18066W        W90392   8.424  28.050  10.573
18067W        W90393  36.403  10.049  13.955
18068W        W90394   4.700  12.106  12.547
18069W        W90395  10.013  13.627   3.172
18070W        W90396  24.761   3.635   2.320
18071W        W90397  18.185  34.035   1.185
18072W        W90398   5.619   7.160  10.839
18073W        W90399  34.048   8.795   2.767
18074W        W90400  15.540  33.918   2.722
18075W        W90401  40.397  40.497  14.985
18076W        W90402  26.801  16.550  10.463
18077W        W90403   1.752  34.667  11.094
18078W        W90404  27.272   3.950   2.818
18079W        W90405  14.131  24.424  14.238
18080W        W90406  38.677  36.122   2.328
18081W        W90407  33.206   7.899  14.893
18082W        W90408  37.565  43.906  10.990
18083W        W90409  22.261   5.153   2.308
18084W        W90410   5.143  32.153  10.621
18085W        W90411  20.551  11.869   2.284
18086W        W90412  41.262  17.321   1.685
18087W        W90413  16.047  24.776  14.265
18088W        W90414  13.687  44.756   2.750
18089W        W90415  17.750  11.438   0.848
18090W        W90416  36.592  24.072   3.915
18091W        W90417  37.746  41.839  12.482
18092W        W90418   4.391  23.760   3.292
18093W        W90419  32.177   9.624   5.013
18094W        W90420  41.843  33.354  14.874
18095W        W90421   0.960   9.758   5.132
18096W        W90422  42.160  26.072  10.767
18097W        W90423   7.381  23.993   0.017
18098W        W90424   1.367  18.795  12.798
18099W        W90425  31.214  13.706  14.815
18100W        W90426  23.990  43.001  13.713
18101W        W90427   6.462   7.670  12.867
18102W        W90428   5.637  43.304   4.599
18103W        W90429   1.200  19.181  11.070
18104W        W90430   7.429  32.030   3.312
18105W        W90431   0.735  17.381  12.363
18106W        W90432  21.835   7.291   4.630
18107W        W90433  30.454   2.748   3.237
18108W        W90434   9.586  43.883  12.075
18109W        W90435  44.370  27.085  12.984
18110W        W90436   1.777   7.584  10.730
18111W        W90437   2.733  39.619  12.528
18112W        W90438   8.242   8.289   4.845
18113W        W90439  29.392  25.718   4.253
18114W        W90440  35.400  34.763  10.653
18115W        W90441  39.070   6.054   4.554
18116W        W90442  14.400  40.282   0.564
18117W        W90443  12.282  38.817  10.987
18118W        W90444  22.510   0.670   0.190
18119W        W90445   1.813  39.163   1.674
18120W        W90446  27.116  11.327  10.454
18121W        W90447  15.211  17.803   1.769
18122W        W90448  41.979  13.829  11.043
18123W        W90449   2.905  21.755  13.010
18124W        W90450   8.965  23.733  11.324
18125W        W90451  23.326  11.681  12.478
18126W        W90452  37.942  19.153   4.284
18127W        W90453  40.343  37.470   0.981
18128W        W90454  16.469   0.966   4.064
18129W        W90455  34.156  36.194  10.712
18130W        W90456  32.374  38.458   1.260
18131W        W90457  43.381  22.567  13.513
18132W        W90458  43.063  10.714  10.642
18133W        W90459   3.312   1.054  13.299
18134W        W90460   7.127  37.534   3.655
18135W        W90461  10.707  10.236   4.918
18136W        W90462   4.698  14.809   2.621
18137W        W90463  37.979   9.333  13.304
18138W        W90464  11.494   4.868   3.690
18139W        W90465  38.920  24.702   4.661
18140W        W90466  21.977  12.062   1.516
18141W        W90467   5.623  44.354  10.190
18142W        W90468  24.508  12.092  12.044
18143W        W90469  19.724  33.315   3.703
18144W        W90470  38.426  33.864  13.071
18145W        W90471  33.886  15.117   2.684
18146W        W90472  26.510   9.132   2.181
18147W        W90473  44.028  21.935   3.700
18148W        W90474  26.691  39.056  12.446
18149W        W90475  26.628   1.819  12.844
18150W        W90476  42.157  12.596  11.249
18151W        W90477  38.367  19.537  11.396
18152W        W90478   3.723   7.934  13.558
18153W        W90479   2.664   9.359  12.731
18154W        W90480   4.829  24.050   1.385
18155W        W90481   1.364  32.422   1.069
18156W        W90482  39.268   8.795   3.092
18157W        W90483  32.128  36.367  13.865
18158W        W90484   5.248  18.474  14.469
18159W        W90485  24.664  14.368   3.629
18160W        W90486  16.350  12.782   1.943
18161W        W90487  37.348  24.104   2.640
18162W        W90488  42.821  21.532  14.859
18163W        W90489  33.837   1.493   4.036
18164W        W90490  38.107  14.452   1.686
18165W        W90491  23.868  43.586  14.873
18166W        W90492  12.414   0.063  12.547
18167W        W90493  17.424   0.588   2.700
18168W        W90494  40.494  19.066  13.874
18169W        W90495   1.919  32.899  12.783
18170W        W90496   8.799  14.647   1.672
18171W        W90497  22.512   6.182  13.528
18172W        W90498  38.957  41.846  12.630
18173W        W90499  13.890   3.842  13.000
18174W        W90500  18.957   0.694   4.289
18175W        W90501  33.253   7.229  11.503
18176W        W90502  38.845  32.506  12.325
18177W        W90503  31.395  20.776  14.852
18178W        W90504  10.825  28.597  14.878
18179W        W90505  26.550  23.466   1.395
18180W        W90506  15.559  20.577  11.530
18181W        W90507  17.573   4.925  12.753
18182W        W90508  18.185  42.980   3.767
18183W        W90509  26.148  28.977  14.292
18184W        W90510  38.846  35.355   3.767
18185W        W90511  35.206   5.166  12.621
18186W        W90512  27.018  21.158  11.111
18187W        W90513  10.346  18.002   1.314
18188W        W90514  14.656  21.524  14.375
18189W        W90515  23.725  15.367   0.815
18190W        W90516  23.156  41.882  14.820
18191W        W90517   0.263  42.298  10.555
18192W        W90518   0.903   6.925  14.854
18193W        W90519   8.768   2.319   2.128
18194W        W90520  16.708  21.897  14.398
18195W        W90521  14.629  41.898  11.543
18196W        W90522  11.879  26.457   1.511
18197W        W90523   2.164  11.576  13.871
18198W        W90524  13.271  17.309  12.513
18199W        W90525  35.497  38.950  12.942
18200W        W90526   0.751  19.398   3.689
18201W        W90527   6.458  21.310   0.979
18202W        W90528  31.471  40.911  11.627
18203W        W90529   7.734  29.093  13.917
18204W        W90530  20.104  29.782  11.968
18205W        W90531  16.170  31.428   2.877
18206W        W90532  19.801  41.313   5.061
18207W        W90533  24.135  20.312   1.436
18208W        W90534   9.277   2.738   4.540
18209W        W90535   3.367  39.388   0.198
18210W        W90536  37.411  21.722  12.061
18211W        W90537  27.341  37.526  10.886
18212W        W90538  14.628  43.712   3.823
18213W        W90539  16.057   2.738   1.351
18214W        W90540  24.782  39.858   3.993
18215W        W90541  28.563   4.480  12.530
18216W        W90542  38.901   4.135  11.162
18217W        W90543  18.791  20.646   0.879
18218W        W90544  41.531  21.797  11.169
18219W        W90545   2.816  18.173   2.619
18220W        W90546  39.084  23.098   1.583
18221W        W90547  11.861  21.816   4.829
18222W        W90548  18.743  31.486  14.545
18223W        W90549   1.020  14.844   0.763
18224W        W90550  33.137   9.747  10.460
18225W        W90551  18.409  35.002   5.185
18226W        W90552  12.583  16.112   3.831
18227W        W90553  28.605  18.287  11.102
18228W        W90554   7.576  17.182   3.173
18229W        W90555  34.634   5.292   1.846
18230W        W90556  29.543   1.731  10.729
18231W        W90557   8.117  17.589   0.067
18232W        W90558  16.101  27.659   0.330
18233W        W90559  33.484  34.990  14.918
18234W        W90560  39.917  16.112  12.543
18235W        W90561  31.932  17.743   0.917
18236W        W90562  31.848  10.681   0.939
18237W        W90563  30.452  15.759   2.894
18238W        W90564  44.375  12.306  14.215
18239W        W90565  22.308   5.023   4.978
18240W        W90566   1.831   7.136  10.965
18241W        W90567   5.034  17.980  14.304
18242W        W90568  36.076  16.107   4.194
18243W        W90569   6.777  41.036  13.400
18244W        W90570  26.885  23.489  13.183
18245W        W90571  33.667  42.997   0.647
18246W        W90572  19.608  42.569  10.699
18247W        W90573  25.455  23.260   0.379
18248W        W90574  17.738  28.663  14.525
18249W        W90575   9.358   5.275  14.277
18250W        W90576  32.510  39.888   0.847
18251W        W90577  28.022   1.792   4.650
18252W        W90578  17.131  22.757  12.004
18253W        W90579  40.281  36.342  14.627
18254W        W90580  15.008  14.186  13.968
18255W        W90581  40.311  12.248   1.914
18256W        W90582  38.840  32.948  11.234
18257W        W90583   4.005  22.637   4.971
18258W        W90584  35.740  17.180   4.061
18259W        W90585   8.839  30.737  14.302
18260W        W90586  20.734  31.454   0.235
18261W        W90587  31.349  28.907   2.783
18262W        W90588   9.772  13.378  14.018
18263W        W90589  16.372  19.749  12.443
18264W        W90590  16.552  43.187   3.636
18265W        W90591  40.542  41.075  14.217
18266W        W90592  11.382  10.394  12.695
18267W        W90593   5.393  24.611  11.432
18268W        W90594  19.892  10.232  14.917
18269W        W90595  22.656  12.125   3.247
18270W        W90596  44.671  43.371  12.683
18271W        W90597  17.652   1.992   0.499
18272W        W90598  14.857   2.428  12.491
18273W        W90599  17.382   1.099   2.778
18274W        W90600  26.749  42.763  13.487
18275W        W90601  14.410  42.745  14.566
18276W        W90602   4.057  25.086   1.741
18277W        W90603   4.247  31.471   1.251
18278W        W90604  33.452   9.353   4.687
18279W        W90605  18.307  32.009   1.787
18280W        W90606  36.010  15.320  12.123
18281W        W90607  16.167  19.121  11.109
18282W        W90608  18.187  26.317   3.131
18283W        W90609  15.783   9.121  10.992
18284W        W90610   0.842   7.937   1.833
18285W        W90611  38.927  30.623  12.962
18286W        W90612   8.070  27.931  14.464
18287W        W90613   4.445   9.297   3.560
18288W        W90614  25.454  25.230  13.941
18289W        W90615  27.333  36.338   3.261
18290W        W90616  21.251  19.688  11.497
18291W        W90617   0.363  29.111  11.905
18292W        W90618   9.985  12.160  14.412
18293W        W90619  20.744  42.400   4.840
18294W        W90620  34.658   3.763  11.208
18295W        W90621  20.024  19.987   4.351
18296W        W90622   7.613  28.934  12.611
18297W        W90623  32.043  43.572  14.421
18298W        W90624  31.034  19.167   0.112
18299W        W90625  14.629  17.757   1.427
18300W        W90626  29.472  41.476   4.548
18301W        W90627  17.578   2.483  11.757
18302W        W90628  41.037  42.513  12.422
18303W        W90629   9.936  20.167  10.929
18304W        W90630  43.744  34.016   1.910
18305W        W90631  34.703  38.742   4.064
18306W        W90632  44.783   7.387  13.832
18307W        W90633  29.103  13.426   1.297
18308W        W90634  37.873   7.234   3.624
18309W        W90635  16.878  41.925   1.342
18310W        W90636  34.441  14.340   0.855
18311W        W90637   0.420   6.590  13.903
18312W        W90638  35.037  41.453  13.929
18313W        W90639   6.420  25.561   0.911
18314W        W90640  43.207  30.667  10.032
18315W        W90641  31.031  30.072   0.443
18316W        W90642  40.524  26.128   0.033
18317W        W90643   1.494  44.251   2.403
18318W        W90644  18.870   6.302  14.862
18319W        W90645   3.440  13.040  11.121
18320W        W90646  31.696   6.009  13.384
18321W        W90647  33.594  34.914  10.680
18322W        W90648  20.364  23.575  14.297
18323W        W90649  33.716  23.525  12.201
18324W        W90650  22.010  17.350   0.340
18325W        W90651  31.812  20.781  12.749
18326W        W90652  36.792  11.160   2.107
18327W        W90653  23.873  24.043  14.213
18328W        W90654  40.481  10.209  11.637
18329W        W90655  35.998  32.401   0.379
18330W        W90656  36.037  38.429   4.259
18331W        W90657  42.367   5.468  11.642
18332W        W90658   3.434  28.273  13.947
18333W        W90659  12.193  40.833   4.134
18334W        W90660  11.462  24.278  11.343
18335W        W90661  31.013  36.408  12.709
18336W        W90662   7.308  27.977   3.394
18337W        W90663  17.772   0.747  11.150
18338W        W90664   3.895   0.915  11.344
18339W        W90665   4.388  32.798  14.761
18340W        W90666  33.478   2.511  13.002
18341W        W90667  15.385  22.183   2.472
18342W        W90668  42.410  37.421   2.342
18343W        W90669  40.692  12.210  11.008
18344W        W90670  33.252  38.016   2.826
18345W        W90671  13.156  30.032  12.903
18346W        W90672  40.953  20.203  11.884
18347W        W90673  38.399  37.502   2.746
18348W        W90674  28.699  43.710   1.143
18349W        W90675  15.340  42.969   2.399
18350W        W90676  23.259   2.893   0.822
18351W        W90677  16.113   8.793   2.779
18352W        W90678  32.923   4.942   0.813
18353W        W90679  19.639  42.938  13.885
18354W        W90680   9.398  26.418  12.495
18355W        W90681  37.452  35.918   1.444
18356W        W90682   8.774  36.977   2.849
18357W        W90683   1.678   1.995   0.918
18358W        W90684  44.444  31.559   0.269
18359W        W90685  16.389  33.986  10.718
18360W        W90686  42.879  24.464   1.821
18361W        W90687   1.676  15.239  11.631
18362W        W90688  16.809  33.568   2.454
18363W        W90689  37.882  13.364  13.874
18364W        W90690  29.571  31.376   3.943
18365W        W90691  15.239   3.180  11.299
18366W        W90692  17.188  31.330  14.799
18367W        W90693  14.041  43.059   0.499
18368W        W90694  34.852  17.604   1.425
18369W        W90695  23.252  16.337  13.800
18370W        W90696  15.786  34.522  13.263
18371W        W90697  16.502  24.742   2.355
18372W        W90698  44.267  31.500  11.063
18373W        W90699  13.149   7.211  14.574
18374W        W90700  32.423  31.198  10.745
18375W        W90701  11.905  29.520  14.831
18376W        W90702  25.503  20.559   0.982
18377W        W90703  22.899  14.521  14.332
18378W        W90704  40.986   4.391  14.998
18379W        W90705  30.716  17.518   3.217
18380W        W90706  35.512  44.231   3.160
18381W        W90707  44.956  15.740   2.501
18382W        W90708  17.685  17.088   2.662
18383W        W90709  13.163   1.780   3.133
18384W        W90710  12.716  27.885  11.521
18385W        W90711  21.180  32.094   4.598
18386W        W90712  20.174  10.368  13.939
18387W        W90713  14.124  18.227   2.578
18388W        W90714   2.942  28.251   2.688
18389W        W90715  23.090   5.880   3.284
18390W        W90716   1.796  44.549  11.991
18391W        W90717  30.372  35.478   3.808
18392W        W90718  35.899  32.604   3.701
18393W        W90719  14.412  14.681   2.166
18394W        W90720   9.310  28.461  13.561
18395W        W90721  17.601  26.433   3.316
18396W        W90722  44.293  10.050   1.908
18397W        W90723  18.049   5.245  10.989
18398W        W90724  44.536   6.084  10.130
18399W        W90725  29.190  28.136   3.931
18400W        W90726  34.439   4.830   4.555
18401W        W90727  24.462  38.890   3.808
18402W        W90728  38.955  17.776  13.052
18403W        W90729   2.048  41.761  12.651
18404W        W90730   6.873  42.583  13.497
18405W        W90731  38.043  29.954   2.363
18406W        W90732  29.181  35.239  12.166
18407W        W90733  41.974  33.672   0.322
18408W        W90734  14.736  44.906   1.462
18409W        W90735   6.615  23.881   4.212
18410W        W90736  12.617   9.263   4.619
18411W        W90737  26.094  32.677  11.957
18412W        W90738  14.936  15.190   0.806
18413W        W90739   7.185  33.468  11.707
18414W        W90740   9.297  17.645  13.818
18415W        W90741  42.445  39.362  13.742
18416W        W90742   1.865   2.473   4.594
18417W        W90743  19.864   3.833   4.422
18418W        W90744   7.541  34.434  13.327
18419W        W90745  10.145   1.746   3.894
18420W        W90746  16.328  11.356   1.841
18421W        W90747  15.520  38.518  14.281
18422W        W90748  23.998  32.089   1.794
18423W        W90749  18.656  36.924   2.847
18424W        W90750  42.031  11.739   0.281
18425W        W90751  38.550  40.615   3.942
18426W        W90752  27.502  43.961   3.823
18427W        W90753  21.043  19.728  14.925
18428W        W90754  16.888  28.592  12.189
18429W        W90755  15.657  12.507   3.852
18430W        W90756   0.455   0.062  13.005
18431W        W90757   0.355  11.611   3.144
18432W        W90758  14.057  34.944  14.443
18433W        W90759  43.133  21.445  12.353
18434W        W90760  37.798   5.703  12.144
18435W        W90761   2.383  21.588  12.999
18436W        W90762  27.507  12.118   2.437
18437W        W90763  12.299  27.413   2.917
18438W        W90764  28.481  27.874  12.445
18439W        W90765  30.124  38.389  11.559
18440W        W90766  20.072   0.414   4.739
18441W        W90767  44.582  37.124   2.690
18442W        W90768   8.170  30.146   4.129
18443W        W90769  15.754  35.571  12.757
18444W        W90770  36.389   4.077  14.160
18445W        W90771   1.012  12.723   0.796
18446W        W90772  20.982  20.753  11.471
18447W        W90773  39.477   2.964   3.546
18448W        W90774  31.504  16.272   0.789
18449W        W90775  17.050  35.901   1.177
18450W        W90776   9.048  18.082  12.109
18451W        W90777  34.947  42.889   0.969
18452W        W90778  43.344   7.737  14.216
18453W        W90779  22.813  33.212  13.389
18454W        W90780   3.191  31.493  11.240
18455W        W90781  39.918  25.116  12.275
18456W        W90782  12.934  36.157  11.202
18457W        W90783  32.327  31.984   1.412
18458W        W90784  26.229  12.848   2.785
18459W        W90785  10.125   1.239  11.150
18460W        W90786  22.488  29.893   1.791
18461W        W90787   0.680  35.989   1.436
18462W        W90788   0.841  20.632   2.849
18463W        W90789   2.857   3.464   1.861
18464W        W90790  35.061  40.952   2.326
18465W        W90791   2.029  17.308   0.372
18466W        W90792  15.702  31.805   3.106
18467W        W90793   7.344  14.555   1.713
18468W        W90794  11.709   1.408   4.631
18469W        W90795  22.279  12.537   2.203
18470W        W90796  39.328  26.727   1.471
18471W        W90797  36.905  35.137   3.764
18472W        W90798  38.122  41.260   4.211
18473W        W90799  22.217  21.015  12.020
18474W        W90800  36.102  35.155  11.083
18475W        W90801  26.243  43.732   0.415
18476W        W90802  17.132   5.518   1.333
18477W        W90803   0.455  35.092   4.659
18478W        W90804  44.782  37.217  11.018
18479W        W90805   6.431  42.479  12.356
18480W        W90806  29.951  19.525  10.714
18481W        W90807  29.888  29.009  14.057
18482W        W90808  43.837  20.555  10.758
18483W        W90809  13.270   5.816  13.553
18484W        W90810  18.778  16.235   0.410
18485W        W90811  33.692  27.789  11.214
18486W        W90812  10.846  16.163   2.001
18487W        W90813  21.260  13.797   4.536
18488W        W90814  16.488  20.646  12.846
18489W        W90815  34.543  26.140  12.794
18490W        W90816   4.214  26.641  12.509
18491W        W90817  40.963   5.537  14.900
18492W        W90818  37.535  33.040   2.936
18493W        W90819  11.898  13.573   0.423
18494W        W90820  41.217  13.011   0.335
18495W        W90821  25.084  17.679   1.465
18496W        W90822  32.971  34.842   1.898
18497W        W90823  31.387  11.325   4.659
18498W        W90824  28.124  35.961   0.592
18499W        W90825  41.053  24.897  12.050
18500W        W90826  41.681   8.933  14.976
18501W        W90827  33.999   9.658  13.807
18502W        W90828  24.491  13.841   2.213
18503W        W90829  16.634   1.667   1.391
18504W        W90830   3.351  43.349   2.371
18505W        W90831   4.769  41.985  13.413
18506W        W90832  34.009  40.519   1.055
18507W        W90833  13.578  16.026  12.931
18508W        W90834   2.900  26.130   4.189
18509W        W90835  23.463  13.288  11.038
18510W        W90836   3.698  10.147   0.106
18511W        W90837  42.457  23.977   4.958
18512W        W90838  19.846  30.418  11.629
18513W        W90839  14.151   5.338  10.717
18514W        W90840   6.107   1.385   0.352
18515W        W90841  34.860  32.822  14.347
18516W        W90842  30.661  23.771   0.188
18517W        W90843   0.008  12.932  14.079
18518W        W90844  17.501   0.885   4.193
18519W        W90845   2.552   2.953   3.284
18520W        W90846   0.806   8.149   1.288
18521W        W90847   5.814  31.259  14.064
18522W        W90848  25.456   5.259   3.208
18523W        W90849  11.072  33.063  13.400
18524W        W90850  18.804  25.175  11.649
18525W        W90851  21.065  33.593   4.679
18526W        W90852  36.226  23.538   1.411
18527W        W90853  17.949  22.027   2.906
18528W        W90854  16.330  20.213   2.841
18529W        W90855  25.491  21.395  12.469
18530W        W90856  20.622   9.842   0.514
18531W        W90857  33.631  36.919  11.192
18532W        W90858  24.939  39.449  10.654
18533W        W90859   4.106  40.441  11.584
18534W        W90860  33.386   6.336   4.196
18535W        W90861  28.071  10.277   5.130
18536W        W90862  24.254  32.366   3.674
18537W        W90863   5.677  10.961  13.738
18538W        W90864   8.686  15.099   1.413
18539W        W90865  14.686  12.622   1.006
18540W        W90866  21.184  33.194  14.358
18541W        W90867  23.954  30.621   3.921
18542W        W90868  42.701   3.010   4.196
18543W        W90869   6.681  18.207   2.276
18544W        W90870  27.082  21.671  10.981
18545W        W90871  25.441   2.930   3.872
18546W        W90872  25.728   0.047  11.151
18547W        W90873  27.256  19.092  11.211
18548W        W90874  38.543  40.996  11.187
18549W        W90875  23.155  15.799  11.236
18550W        W90876  19.318  42.246   0.871
18551W        W90877  10.856  34.866  13.867
18552W        W90878   6.708  33.640   3.365
18553W        W90879  44.076  22.712  11.215
18554W        W90880  39.488  24.224   2.109
18555W        W90881  31.380  42.815  11.447
18556W        W90882  26.694   4.963   2.814
18557W        W90883   7.752  23.916   2.248
18558W        W90884  25.673   3.303  11.167
18559W        W90885  18.555  43.775  14.385
18560W        W90886  40.294  12.823   3.665
18561W        W90887  43.582  36.526   3.844
18562W        W90888  12.757   8.415   4.180
18563W        W90889  39.498  32.701   0.723
18564W        W90890  40.735   4.396   1.801
18565W        W90891  19.953  25.094   0.905
18566W        W90892  28.910  15.276  13.878
18567W        W90893  13.053  34.991  10.615
18568W        W90894  37.585  31.424  13.425
18569W        W90895  36.981   8.798   2.599
18570W        W90896  15.109  35.110   0.274
18571W        W90897  36.472   8.273  14.028
18572W        W90898  19.668   6.918   0.877
18573W        W90899  44.189  28.647  11.571
18574W        W90900   8.159  20.219  12.553
18575W        W90901  16.383  26.569   0.872
18576W        W90902  15.175  39.433   1.692
18577W        W90903  11.857   4.430  11.394
18578W        W90904  17.113  24.583  13.039
18579W        W90905  16.477  31.425   3.327
18580W        W90906  19.534  38.521  12.195
18581W        W90907  27.403   0.927  12.119
18582W        W90908  37.095  28.757   1.375
18583W        W90909  19.292  12.653  12.641
18584W        W90910   8.763  19.673   1.671
18585W        W90911   0.796  12.737   4.219
18586W        W90912  44.479  20.054  11.609
18587W        W90913  23.007  41.306  12.135
18588W        W90914  25.042  19.725   3.816
18589W        W90915   5.572   0.982   3.349
18590W        W90916   5.303  26.397   0.373
18591W        W90917   4.520  14.522  14.913
18592W        W90918  15.688  26.483   2.156
18593W        W90919  19.254  16.858   2.441
18594W        W90920  41.833  18.041  13.345
18595W        W90921  22.449  19.951  12.615
18596W        W90922  29.955   2.554  12.953
18597W        W90923  43.520   6.088   3.556
18598W        W90924  13.941  16.577  14.399
18599W        W90925  13.750  38.558   4.646
18600W        W90926  37.536  32.949  13.484
18601W        W90927  28.602  15.937  11.609
18602W        W90928   7.465  23.647  10.800
18603W        W90929   9.100  16.303   1.350
18604W        W90930  43.962  44.042   1.908
18605W        W90931  34.868   3.213   0.891
18606W        W90932  39.898  26.448   4.586
18607W        W90933   4.463   2.934  13.421
18608W        W90934  20.734  11.607   4.082
18609W        W90935  30.596  10.343   4.594
18610W        W90936  12.929  21.308  11.053
18611W        W90937   7.763  34.534  14.223
18612W        W90938  37.111  44.347  10.858
18613W        W90939  16.921  11.726  11.064
18614W        W90940  13.599  13.244   2.398
18615W        W90941   9.545  31.541  12.160
18616W        W90942  32.078  29.410  11.964
18617W        W90943  36.898  40.054   0.869
18618W        W90944  24.520  16.062  14.047
18619W        W90945  32.145  16.282  13.381
18620W        W90946  18.642  15.502   4.690
18621W        W90947  29.000   1.105   3.776
18622W        W90948  10.589  23.204  13.854
18623W        W90949  11.339  27.672  13.746
18624W        W90950  13.193   4.312   1.972
18625W        W90951  19.854   6.412   0.875
18626W        W90952  29.017  24.984  11.137
18627W        W90953   0.817  22.824   2.078
18628W        W90954  18.646  39.288   3.638
18629W        W90955   8.204  26.907  11.954
18630W        W90956  20.766  30.159  12.640
18631W        W90957  31.637  23.981   0.716
18632W        W90958  10.177   0.780   0.804
18633W        W90959   2.576  27.261  11.981
18634W        W90960  10.117  42.296  14.002
18635W        W90961   5.636  37.962  10.933
18636W        W90962   3.080  38.020  14.994
18637W        W90963  17.540  11.361  10.687
18638W        W90964  13.587  15.183   1.263
18639W        W90965   6.342  22.728  14.341
18640W        W90966  44.135   6.639   4.155
18641W        W90967  17.608  35.564   0.415
18642W        W90968  26.452   6.296  11.803
18643W        W90969  41.926  21.918  11.482
18644W        W90970  15.173   3.483   3.881
18645W        W90971   8.794  16.614   1.657
18646W        W90972  25.572  19.371  10.769
18647W        W90973  23.334  20.562  13.415
18648W        W90974   6.175   9.236  11.981
18649W        W90975  33.423  27.470  12.144
18650W        W90976  17.737  30.639   2.655
18651W        W90977  10.243  27.734   3.202
18652W        W90978  26.931  22.264   4.158
18653W        W90979  14.858  13.511  10.738
18654W        W90980   5.728   9.117  10.349
18655W        W90981  12.519  22.213  14.411
18656W        W90982  16.848  16.798  11.500
18657W        W90983  33.688   4.852   1.260
18658W        W90984  28.599  13.333   2.326
18659W        W90985  21.952   4.338   0.309
18660W        W90986   5.158  20.436  14.273
18661W        W90987   3.198  41.706  10.603
18662W        W90988   8.658  39.520   0.364
18663W        W90989  31.880   9.478   3.228
18664W        W90990  30.605  18.627  12.199
18665W        W90991  30.953  34.417  11.029
18666W        W90992  27.174  29.430  13.992
18667W        W90993  25.070  41.465  14.937
18668W        W90994  12.006  33.863   3.369
18669W        W90995  31.614   9.687   3.642
18670W        W90996   0.853   3.835  12.584
18671W        W90997  13.322  44.078  10.770
18672W        W90998   9.958  29.847   5.138
18673W        W90999  39.047  13.485  11.030
18674W        W91000  34.462  29.848   4.106
18675W        W91001  14.521  32.036  10.405
18676W        W91002  37.338  17.631  13.901
18677W        W91003   5.572  21.620  12.451
18678W        W91004   8.945  22.229   4.064
18679W        W91005  20.726  24.041  12.064
18680W        W91006  15.067   8.964  11.206
18681W        W91007  31.023  36.003   3.287
18682W        W91008  44.991   4.803   4.046
18683W        W91009  40.146  26.145  13.150
18684W        W91010  17.740  19.252   0.453
18685W        W91011  31.687  39.952  12.660
18686W        W91012  30.017  22.570  14.330
18687W        W91013  17.341  35.296  11.701
18688W        W91014  41.582  12.608   4.157
18689W        W91015  38.235  10.149   4.343
18690W        W91016   9.231  16.626   2.479
18691W        W91017  29.950  34.633   0.290
18692W        W91018  21.807  11.311   0.621
18693W        W91019  18.570  31.103   2.377
18694W        W91020  38.065  15.552  12.496
18695W        W91021  33.829  31.428   4.981
18696W        W91022  42.333   3.626   1.711
18697W        W91023  40.557  28.583  13.933
18698W        W91024  15.039  29.030  14.764
18699W        W91025  25.115  29.893   4.551
18700W        W91026  40.459  17.682  13.473
18701W        W91027  32.556  21.746  11.495
18702W        W91028   0.668  18.054   1.233
18703W        W91029  35.542  43.276  10.643
18704W        W91030   9.275  26.498   3.616
18705W        W91031  16.951  25.168  14.291
18706W        W91032  15.019   7.298   3.568
18707W        W91033  24.221  28.644   0.217
18708W        W91034  22.550   8.416  13.128
18709W        W91035  37.466  40.994   3.160
18710W        W91036   6.702  40.839   2.148
18711W        W91037  12.593  15.494  11.704
18712W        W91038  20.979  33.313  11.413
18713W        W91039  18.695  11.938   1.718
18714W        W91040  18.537  21.595   3.833
18715W        W91041  23.179   2.754  10.644
18716W        W91042  28.107  25.621  14.882
18717W        W91043  26.393  26.180  12.495
18718W        W91044   0.699  39.423  14.939
18719W        W91045  25.998  34.953   4.658
18720W        W91046   0.609  12.603   2.767
18721W        W91047   7.086  30.022  14.848
18722W        W91048  35.105  32.565   4.184
18723W        W91049  27.109  34.894  10.555
18724W        W91050  19.181  10.261  14.024
18725W        W91051  30.964  21.009  11.178
18726W        W91052  10.704  39.658   1.837
18727W        W91053  10.859  28.898  13.975
18728W        W91054   8.401  25.429   3.716
18729W        W91055  20.545  23.610   3.107
18730W        W91056  25.898  39.554   2.733
18731W        W91057   1.818  12.522  12.321
18732W        W91058  30.364  37.836   2.033
18733W        W91059  22.545  33.976  14.438
18734W        W91060  25.804  17.661   2.570
18735W        W91061  19.517  30.814   2.373
18736W        W91062  41.266  17.697   4.115
18737W        W91063  17.637  37.858  12.173
18738W        W91064  26.031   3.435   4.744
18739W        W91065   3.311  21.517  11.519
18740W        W91066  11.895  38.140  11.723
18741W        W91067  26.895   0.370   2.907
18742W        W91068  43.518  34.898  12.972
18743W        W91069   5.013  28.950   1.388
18744W        W91070   0.394  12.196   0.157
18745W        W91071  38.258  34.670  12.442
18746W        W91072  33.941  43.969   1.377
18747W        W91073  32.388  42.742   1.881
18748W        W91074  42.958  25.268  14.846
18749W        W91075  32.114  10.218   1.959
18750W        W91076  24.229  31.743   5.205
18751W        W91077  33.913  44.245  14.050
18752W        W91078  23.905  26.980   1.562
18753W        W91079  28.566   2.946   0.230
18754W        W91080  28.289   5.156  10.478
18755W        W91081  26.233  39.771  14.123
18756W        W91082  23.907  13.329   3.021
18757W        W91083  20.047  36.062   2.619
18758W        W91084  12.780  41.003  12.075
18759W        W91085   6.478  20.152  13.508
18760W        W91086  32.421  24.535  12.894
18761W        W91087  27.918  16.283  11.219
18762W        W91088   6.770  43.476   0.540
18763W        W91089  25.535  24.292   1.471
18764W        W91090  30.392  40.823   0.944
18765W        W91091  15.145  23.179   4.641
18766W        W91092  28.334  35.505   1.313
18767W        W91093   5.618  20.248  13.925
18768W        W91094   4.451  25.593   2.399
18769W        W91095   9.688  36.815  12.975
18770W        W91096  18.249  36.569  12.674
18771W        W91097  13.761  22.599  13.910
18772W        W91098   3.469   5.944   4.137
18773W        W91099  20.192  17.376  13.121
18774W        W91100  37.536  23.596   4.657
18775W        W91101   5.689  40.783   0.203
18776W        W91102  26.775  22.914  14.865
18777W        W91103  38.801  22.923   0.772
18778W        W91104  11.809  43.480  14.820
18779W        W91105  20.270  33.664  11.006
18780W        W91106  26.572  20.222  10.660
18781W        W91107  18.701   0.745   2.907
18782W        W91108  28.405   4.000   1.448
18783W        W91109  31.597  39.904   1.401
18784W        W91110   2.282  18.065  11.726
18785W        W91111  13.576   7.682  13.979
18786W        W91112  36.158   3.956  11.513
18787W        W91113  20.201   0.849  14.512
18788W        W91114  17.671  32.611  13.114
18789W        W91115   3.782   8.684  11.217
18790W        W91116  19.188   9.153  11.626
18791W        W91117  24.316  21.534  11.092
18792W        W91118  16.148  15.113   4.141
18793W        W91119  28.257   5.347  14.388
18794W        W91120  20.807   5.796  13.854
18795W        W91121  31.484  27.369  12.592
18796W        W91122   3.301  15.832   3.768
18797W        W91123   1.029  35.451  14.777
18798W        W91124  43.572  27.166  12.560
18799W        W91125  37.096  30.234   0.391
18800W        W91126  42.082  28.690  13.053
18801W        W91127  32.001  33.337   4.994
18802W        W91128  31.417  14.565  12.912
18803W        W91129  33.683  34.682   1.867
18804W        W91130   8.819   9.898  11.982
18805W        W91131  10.780  21.483  12.988
18806W        W91132  39.979  21.770  13.168
18807W        W91133  19.573  26.379   3.923
18808W        W91134  38.067   6.997  12.987
18809W        W91135  29.589  18.785  11.083
18810W        W91136  10.030  38.595  13.817
18811W        W91137  15.131   1.227   4.105
18812W        W91138  21.164  28.000   0.322
18813W        W91139  26.805  27.694  13.705
18814W        W91140  30.678  40.935   1.415
18815W        W91141  35.647  29.038   3.106
18816W        W91142   8.776  10.843   4.646
18817W        W91143   1.459  11.644   2.548
18818W        W91144  12.890  12.573   0.210
18819W        W91145  22.298  33.365  11.892
18820W        W91146  19.347   1.068  13.500
18821W        W91147  14.658  35.239  10.130
18822W        W91148  17.450   7.113   3.308
18823W        W91149   4.633  14.310  10.544
18824W        W91150  16.047   3.822   0.785
18825W        W91151  36.893   9.878   2.722
18826W        W91152  12.851  16.193  10.770
18827W        W91153  14.196  16.560   4.641
18828W        W91154  15.749   3.795  13.903
18829W        W91155  15.358  19.744   0.241
18830W        W91156   6.515   3.720  14.832
18831W        W91157  21.801  11.700   0.962
18832W        W91158  20.950   8.244   0.749
18833W        W91159   5.698   5.142   3.242
18834W        W91160   0.367  35.516  11.615
18835W        W91161  23.226   5.654  11.166
18836W        W91162  24.600  35.645   3.792
18837W        W91163  21.206  40.876  11.617
18838W        W91164  26.713  37.789  11.900
18839W        W91165  29.518  27.218  14.272
18840W        W91166  16.135  27.693   3.893
18841W        W91167   7.423  30.285  11.834
18842W        W91168  18.082  20.132  11.653
18843W        W91169  26.422   6.858  14.167
18844W        W91170  12.830  20.795   4.239
18845W        W91171   5.661  19.585   2.875
18846W        W91172  38.804  31.493  10.186
18847W        W91173  31.583  16.723   3.550
18848W        W91174  23.565   8.184  13.133
18849W        W91175  25.709  17.952  14.700
18850W        W91176  32.423   8.202   1.976
18851W        W91177  42.445  44.499  12.078
18852W        W91178  32.193  39.850  14.436
18853W        W91179  26.244  44.166  12.351
18854W        W91180  24.549  33.508   2.213
18855W        W91181  19.330  37.880  13.002
18856W        W91182   2.615  30.754   1.685
18857W        W91183  40.948  23.888   0.282
18858W        W91184   7.786   5.867   2.712
18859W        W91185  34.645  17.196   1.051
18860W        W91186  20.680  32.442  13.342
18861W        W91187   8.815  24.945  13.535
18862W        W91188  14.936  34.848   4.947
18863W        W91189  17.564  36.009   1.311
18864W        W91190  10.255  43.453   2.398
18865W        W91191   5.433   8.605   1.740
18866W        W91192  37.613  10.292   0.831
18867W        W91193   6.951  38.145   4.144
18868W        W91194  12.575  18.511  13.542
18869W        W91195   2.686  25.640   0.486
18870W        W91196  12.239   6.234   2.336
18871W        W91197  12.890  13.797   2.378
18872W        W91198  25.002  23.302  10.998
18873W        W91199  17.780  23.110  13.111
18874W        W91200  38.670  33.011   1.396
18875W        W91201  26.969  36.109  14.388
18876W        W91202  24.686  29.716   2.887
18877W        W91203  43.729  28.536   4.585
18878W        W91204  23.235  39.204   5.033
18879W        W91205  40.376  30.822   1.138
18880W        W91206  27.050   2.673  10.897
18881W        W91207  17.758  28.418   4.694
18882W        W91208  23.650  28.737   3.247
18883W        W91209   2.702  43.405   0.666
18884W        W91210  41.395   0.229   2.655
18885W        W91211  33.621  13.370  11.702
18886W        W91212  13.760  26.697  12.002
18887W        W91213  33.929  31.347  12.415
18888W        W91214   5.859  44.611  13.653
18889W        W91215   0.793  26.201  12.681
18890W        W91216   6.834  28.326   2.108
18891W        W91217  33.104  15.043  10.984
18892W        W91218  44.642  15.293  13.899
18893W        W91219  27.786  31.147   2.376
18894W        W91220  14.857   3.526  11.183
18895W        W91221   0.838  11.197   0.656
18896W        W91222  41.562   0.842   3.131
18897W        W91223  24.593  13.957  10.957
18898W        W91224  31.995  40.996  12.529
18899W        W91225  23.688  13.500  12.409
18900W        W91226  43.765  32.566  12.847
18901W        W91227  39.074  36.077   2.741
18902W        W91228  11.285  30.898  10.957
18903W        W91229  42.522  11.319   0.943
18904W        W91230  20.188  20.202   2.374
18905W        W91231   6.686  36.148   3.711
18906W        W91232  28.905   2.297  11.999
18907W        W91233  40.035   7.758  13.408
18908W        W91234  26.035  36.563  14.655
18909W        W91235  42.374   9.371  11.485
18910W        W91236  43.496  14.617   3.053
18911W        W91237  14.236   1.353   2.326
18912W        W91238  33.011  30.627  12.948
18913W        W91239  32.343  25.033  13.083
18914W        W91240  35.566  23.241   4.732
18915W        W91241  14.788  17.510   1.929
18916W        W91242  43.410   5.371  11.637
18917W        W91243  44.185   8.610   1.546
18918W        W91244   3.268  29.521  14.796
18919W        W91245  16.802  19.061   1.679
18920W        W91246   6.298  34.517   2.385
18921W        W91247  21.441  19.926   2.779
18922W        W91248   6.241  30.298   3.908
18923W        W91249  10.004  10.626   4.739
18924W        W91250   9.845  31.012   1.614
18925W        W91251  31.434   9.792   4.672
18926W        W91252  44.333  30.719   1.778
18927W        W91253  24.085  28.432   1.517
18928W        W91254  33.991  33.013  10.704
18929W        W91255  14.920   1.712   0.928
18930W        W91256  36.463  18.526  13.456
18931W        W91257  36.003  36.647   3.114
18932W        W91258  40.225   1.746  14.917
18933W        W91259  26.147  16.193  10.943
18934W        W91260   6.096  28.417   0.898
18935W        W91261   4.932   7.186   1.764
18936W        W91262  24.556  25.282  13.921
18937W        W91263  14.528   2.338   3.267
18938W        W91264  17.787  12.840   0.576
18939W        W91265  13.901  41.787   3.952
18940W        W91266  32.675  15.109   3.173
18941W        W91267  24.894  36.488   0.861
18942W        W91268   4.457  23.260  10.741
18943W        W91269  35.794   0.728  11.676
18944W        W91270   5.698  14.119  11.501
18945W        W91271  14.847  41.006   3.321
18946W        W91272   2.684  37.408   1.013
18947W        W91273  31.143  33.801   2.493
18948W        W91274   0.873  24.986  12.356
18949W        W91275  36.951   0.404  13.966
18950W        W91276  42.720   1.964   1.155
18951W        W91277  35.614  26.782  14.807
18952W        W91278  33.855  35.503  12.819
18953W        W91279  36.500  35.715  12.502
18954W        W91280  20.474  27.428   3.674
18955W        W91281  38.402  17.298  13.551
18956W        W91282  36.949   4.826  10.731
18957W        W91283  34.127  23.318  14.479
18958W        W91284  31.573   1.476  13.096
18959W        W91285  27.285  14.154   4.479
18960W        W91286  23.687  19.850   0.805
18961W        W91287  18.547  16.274  11.742
18962W        W91288  37.799  37.367  11.712
18963W        W91289   0.224   5.921  14.501
18964W        W91290  27.936   2.837  13.841
18965W        W91291  34.459  25.433   3.329
18966W        W91292  31.912  11.247   4.386
18967W        W91293  32.567  11.346  12.441
18968W        W91294  17.094  11.228  12.621
18969W        W91295  24.521  24.912   2.777
18970W        W91296  32.117  32.971   2.419
18971W        W91297  26.535  37.580  11.459
18972W        W91298  27.082  10.615  13.912
18973W        W91299   1.214  14.591  10.734
18974W        W91300  39.515  13.760   1.527
18975W        W91301  33.053   6.048   1.187
18976W        W91302  31.576  38.757  14.257
18977W        W91303  13.820  41.840  12.901
18978W        W91304  18.074  33.890   2.316
18979W        W91305  23.346   1.279   3.104
18980W        W91306  26.690  24.705  11.854
18981W        W91307  12.261  10.601  14.503
18982W        W91308  33.746  28.942  13.396
18983W        W91309  26.558  12.161   3.345
18984W        W91310  33.158  38.434   3.908
18985W        W91311  37.528  25.116   0.072
18986W        W91312  16.565   5.874   0.897
18987W        W91313  21.192   8.217   1.669
18988W        W91314  18.746   1.647   1.926
18989W        W91315  20.526   5.836   0.662
18990W        W91316   2.383  23.027   0.752
18991W        W91317  44.219  37.048  11.812
18992W        W91318  39.002  36.838  13.521
18993W        W91319  23.462  42.932  14.421
18994W        W91320  30.640  30.618   4.976
18995W        W91321  41.864  37.960   4.045
18996W        W91322   4.727  25.252   3.182
18997W        W91323  20.170  28.623  14.222
18998W        W91324   6.602  17.941  13.377
18999W        W91325   5.776  37.538  14.068
19000W        W91326  41.519  38.478   3.384
19001W        W91327  31.344  25.944  13.223
19002W        W91328  29.865  28.147  10.251
19003W        W91329  24.703  39.435   4.463
19004W        W91330  41.920  17.193  10.537
19005W        W91331  13.376   2.063  11.869
19006W        W91332  27.611  41.270  11.519
19007W        W91333  13.042  38.444  14.265
19008W        W91334  15.980  16.775   1.272
19009W        W91335  26.721  15.333  13.577
19010W        W91336  17.782   3.026  11.384
19011W        W91337  37.238   1.748  12.926
19012W        W91338  16.987  35.661  11.615
19013W        W91339  34.578  44.451   4.205
19014W        W91340  14.609  11.192  12.230
19015W        W91341  17.324  34.683   0.205
19016W        W91342   5.645  19.128  13.008
19017W        W91343  15.566  38.022  11.916
19018W        W91344  12.849  11.350   1.342
19019W        W91345   0.227  36.982   1.500
19020W        W91346   6.368  35.661   1.675
19021W        W91347  16.759  35.190  11.499
19022W        W91348   2.836   4.256   2.331
19023W        W91349  40.325  10.250   0.474
19024W        W91350  38.334   0.762   3.299
19025W        W91351  17.313   1.957  10.228
19026W        W91352  23.693  25.473   3.814
19027W        W91353  36.318   1.428   4.796
19028W        W91354  43.036  26.968   0.008
19029W        W91355  41.931  23.029  10.604
19030W        W91356   7.548  41.592  12.839
19031W        W91357   7.771  15.747   0.328
19032W        W91358   4.870   7.645   2.356
19033W        W91359  40.922  14.298  13.235
19034W        W91360  26.075  10.774   3.595
19035W        W91361  17.037   2.392   1.221
19036W        W91362  12.762   7.474  14.282
19037W        W91363  18.823  16.296  12.186
19038W        W91364  18.249  12.544   0.299
19039W        W91365  40.984  24.965   1.941
19040W        W91366  39.537   6.695   2.669
19041W        W91367  40.749  33.990   1.695
19042W        W91368   4.490  39.368   0.444
19043W        W91369  14.326  43.739  13.309
19044W        W91370   0.855  18.511   3.885
19045W        W91371  19.613   8.318  11.033
19046W        W91372  37.909  20.061   4.869
19047W        W91373  42.568  36.323   1.350
19048W        W91374   6.891  39.737   3.177
19049W        W91375   0.686  29.982   2.838
19050W        W91376  32.529  18.759  11.812
19051W        W91377  25.254   8.161  10.757
19052W        W91378   8.865   7.515  12.912
19053W        W91379  38.425  11.847  14.972
19054W        W91380   4.985  29.037  11.012
19055W        W91381   2.318   1.475   3.370
19056W        W91382  14.742   8.140   2.358
19057W        W91383  14.863   1.727  12.047
19058W        W91384  41.383  15.890  10.533
19059W        W91385  41.711  23.233   3.682
19060W        W91386   7.629  32.889   3.772
19061W        W91387  41.569  15.991   4.533
19062W        W91388  23.054  22.180  12.150
19063W        W91389  17.058  34.513  10.726
19064W        W91390  22.300  34.400  10.655
19065W        W91391  19.149  29.975   3.163
19066W        W91392  21.170   0.867   3.621
19067W        W91393  19.390  31.376  12.821
19068W        W91394  11.766  25.005   5.500
19069W        W91395  23.014  24.404  13.423
19070W        W91396  14.967  35.622  10.302
19071W        W91397  22.093  41.767  11.931
19072W        W91398  25.753  32.544  12.762
19073W        W91399  27.952   4.331   0.819
19074W        W91400  18.319  44.502  11.218
19075W        W91401  25.998   4.830  10.003
19076W        W91402  28.516   5.727  12.844
19077W        W91403  10.354  23.585  12.422
19078W        W91404  35.138  20.551  14.411
19079W        W91405   8.207  42.808  12.184
19080W        W91406  34.456   0.413   1.149
19081W        W91407  17.718  22.733   3.553
19082W        W91408  16.107  13.705  14.295
19083W        W91409  26.411  19.071   2.854
19084W        W91410  32.571  17.842  14.881
19085W        W91411  29.569   7.215   2.912
19086W        W91412   2.088   8.956  12.042
19087W        W91413   1.062  42.996  11.651
19088W        W91414  44.736   9.870  11.631
19089W        W91415  24.724   6.425   3.221
19090W        W91416   8.795  42.745   2.071
19091W        W91417  43.193  19.053   2.707
19092W        W91418  34.332  20.252  13.425
19093W        W91419   3.288  26.931  11.547
19094W        W91420  17.047  41.494  11.777
19095W        W91421  11.427  31.895  10.510
19096W        W91422  28.652   8.913  12.599
19097W        W91423  43.895  40.346  14.004
19098W        W91424  10.228  14.195   0.208
19099W        W91425  37.359  24.566  11.870
19100W        W91426  15.372  28.674  14.997
19101W        W91427  17.993  43.516  11.342
19102W        W91428  28.849  20.066   4.249
19103W        W91429  12.106  17.148   0.330
19104W        W91430   7.188  38.619  13.300
19105W        W91431   8.626  27.586  13.843
19106W        W91432  44.223  27.461  14.150
19107W        W91433  38.722  16.377   0.984
19108W        W91434  13.145   4.353   1.452
19109W        W91435  21.212  19.575  12.032
19110W        W91436   4.179   5.782  13.547
19111W        W91437  16.723   8.464   0.453
19112W        W91438   2.312   0.291  10.663
19113W        W91439   2.399  44.290   1.908
19114W        W91440  28.877  13.881   1.351
19115W        W91441  38.619  14.584   2.417
19116W        W91442   8.552  21.808   0.252
19117W        W91443  37.889  10.360  13.316
19118W        W91444  32.507   8.852   4.135
19119W        W91445  29.114  10.819  14.115
19120W        W91446  28.506  11.644   2.213
19121W        W91447  25.397  23.084   1.928
19122W        W91448  34.433  15.830  12.994
19123W        W91449  15.180   5.922  11.019
19124W        W91450  15.823  10.277  12.843
19125W        W91451  10.072  29.970  14.851
19126W        W91452  17.964  21.199  14.365
19127W        W91453  15.688  15.169  10.642
19128W        W91454   6.933  42.310   0.649
19129W        W91455  13.626  43.052  13.871
19130W        W91456  35.000   8.271  12.214
19131W        W91457  13.283  32.829  14.271
19132W        W91458  32.879  44.406  12.469
19133W        W91459  10.345  26.617  12.037
19134W        W91460   8.143   4.756  11.050
19135W        W91461  28.653  12.290  14.249
19136W        W91462  29.874  29.084  13.105
19137W        W91463  26.084  17.629   5.366
19138W        W91464   7.703  31.693  11.084
19139W        W91465  42.555  27.743  11.622
19140W        W91466  18.864  41.658   4.929
19141W        W91467   9.204  38.275   0.279
19142W        W91468  33.200  38.891   4.185
19143W        W91469  31.640  25.345   4.269
19144W        W91470  11.149   6.908  10.654
19145W        W91471   8.388  33.711   1.774
19146W        W91472  28.933  19.100   0.838
19147W        W91473  13.514   0.650   5.100
19148W        W91474  13.679  23.214  13.026
19149W        W91475  42.062  29.039   4.491
19150W        W91476   9.991  42.868   0.516
19151W        W91477   0.856  41.712   0.959
19152W        W91478  30.052  11.907  10.674
19153W        W91479   3.453   0.994  11.593
19154W        W91480   8.374  37.325  11.510
19155W        W91481  35.622   8.397  11.571
19156W        W91482  27.641  13.624   2.724
19157W        W91483  15.533  35.891  12.443
19158W        W91484  16.751   5.244  12.520
19159W        W91485  23.112   8.138  14.954
19160W        W91486  19.023  20.146  12.603
19161W        W91487  18.697  34.352   1.921
19162W        W91488  19.646  10.192   0.370
19163W        W91489   1.687   0.806  13.106
19164W        W91490  36.945  37.593   3.625
19165W        W91491  32.502  38.151   1.900
19166W        W91492  18.057  21.424   3.675
19167W        W91493   2.455  32.403   0.288
19168W        W91494  37.532  25.811   3.198
19169W        W91495   1.937   9.990   9.877
19170W        W91496  19.352   1.756   3.636
19171W        W91497  27.245   3.372   2.904
19172W        W91498  24.992  14.245  14.333
19173W        W91499   8.006  43.759  10.737
19174W        W91500   7.754   2.500   3.638
19175W        W91501  26.720  32.372  12.926
19176W        W91502   1.175  24.305   3.136
19177W        W91503  12.082  20.805  14.345
19178W        W91504  14.675   3.546   4.073
19179W        W91505  14.186  13.143   4.646
19180W        W91506  21.409  28.713   1.666
19181W        W91507  43.896  14.351  10.947
19182W        W91508  19.282  27.502  12.885
19183W        W91509  33.066  30.365  10.832
19184W        W91510  24.236  43.064   3.530
19185W        W91511   9.799  40.257   4.830
19186W        W91512   3.227  20.468  11.977
19187W        W91513  13.250  43.318   3.464
19188W        W91514  11.161  35.907   2.219
19189W        W91515  35.133  44.572  13.075
19190W        W91516   1.448  40.026  11.127
19191W        W91517  30.162  20.123  13.919
19192W        W91518  15.058  11.090  11.998
19193W        W91519  16.847  44.692   3.627
19194W        W91520  13.117   3.421  14.521
19195W        W91521  38.521   8.408  12.962
19196W        W91522   8.933  24.723   0.989
19197W        W91523  13.287  37.701   4.313
19198W        W91524  40.544  19.223  14.960
19199W        W91525  38.843  20.581   1.404
19200W        W91526  12.168  26.948  10.228
19201W        W91527  22.052  14.369  12.944
19202W        W91528   2.666  21.312  12.682
19203W        W91529   0.301  36.511  14.706
19204W        W91530  12.193  18.411   1.364
19205W        W91531   1.367  11.844  14.051
19206W        W91532  13.599  28.889  12.963
19207W        W91533   6.461  35.325  12.945
19208W        W91534   8.660  11.911   3.271
19209W        W91535  18.629  12.446  10.574
19210W        W91536  22.589  38.045  10.243
19211W        W91537  12.197  19.619  14.063
19212W        W91538  42.375  12.092   4.208
19213W        W91539  29.953   9.962  11.615
19214W        W91540   1.954  34.431   2.697
19215W        W91541  42.029   8.221  11.961
19216W        W91542   8.796  27.146   1.814
19217W        W91543  34.363  37.642  12.390
19218W        W91544  35.852  21.984  13.469
19219W        W91545   8.764  42.185   0.916
19220W        W91546   2.322  11.643   1.903
19221W        W91547  43.548  23.096   2.688
19222W        W91548  12.177  29.451   2.927
19223W        W91549  25.831  34.715  10.178
19224W        W91550  25.990  29.651   1.393
19225W        W91551  41.037  37.928  12.141
19226W        W91552  43.345   2.671  12.731
19227W        W91553  19.117  15.582   0.737
19228W        W91554  10.544  41.353  12.903
19229W        W91555  38.860  35.892   3.861
19230W        W91556  10.891  20.686   2.858
19231W        W91557  30.019  34.081   4.126
19232W        W91558  18.612  28.139   5.096
19233W        W91559  32.679  31.737   3.685
19234W        W91560   9.845  38.708  14.292
19235W        W91561  12.069   3.290   0.173
19236W        W91562   6.326   0.303   3.858
19237W        W91563   3.836  14.235   0.993
19238W        W91564   7.122  16.080  13.300
19239W        W91565  25.009  10.589  14.791
19240W        W91566  38.341  13.196  11.440
19241W        W91567   8.680  29.501  13.994
19242W        W91568  13.297  33.561  12.917
19243W        W91569  43.950  30.473   0.155
19244W        W91570  21.359  17.097   5.130
19245W        W91571  12.744  27.327   0.581
19246W        W91572  22.347  31.664  10.718
19247W        W91573  34.517  36.249   4.210
19248W        W91574  12.769  23.766   4.587
19249W        W91575   8.767   7.282  14.472
19250W        W91576  16.829  42.900  14.281
19251W        W91577  31.604  21.244  12.833
19252W        W91578  37.295  33.385  12.488
19253W        W91579  44.670  26.465  14.485
19254W        W91580  36.681  31.738  13.826
19255W        W91581  31.375   1.726   1.885
19256W        W91582  32.523  42.378   1.530
19257W        W91583  29.592  38.587  14.512
19258W        W91584   5.029  34.097  12.317
19259W        W91585  38.446  44.568   3.699
19260W        W91586   4.665  10.167   0.069
19261W        W91587  44.834  16.245   3.831
19262W        W91588   6.945  26.916  12.397
19263W        W91589   4.414  15.192  10.951
19264W        W91590  42.247   8.219  13.300
19265W        W91591   6.448   8.955  14.901
19266W        W91592   8.213  15.389  14.406
19267W        W91593  34.607  14.800  13.824
19268W        W91594  14.353  27.073  13.349
19269W        W91595  13.309  35.827  12.976
19270W        W91596  20.548  15.071   0.464
19271W        W91597  18.537  28.998   0.759
19272W        W91598  32.965  35.162   4.332
19273W        W91599  16.724   6.940  11.846
19274W        W91600  37.000  37.799  14.978
19275W        W91601  24.994  36.522  11.143
19276W        W91602   9.657   1.364  10.923
19277W        W91603   5.835   5.659   3.169
19278W        W91604  15.744  44.032  10.512
19279W        W91605  43.482  28.500   2.443
19280W        W91606  35.850  23.561  12.934
19281W        W91607  18.105   8.894   0.741
19282W        W91608  38.363  26.733   2.781
19283W        W91609  43.498  10.894   3.268
19284W        W91610   4.632  18.004   2.623
19285W        W91611  31.603  27.528   1.698
19286W        W91612   7.425  36.536  12.451
19287W        W91613  42.247  10.232  10.914
19288W        W91614  19.005  27.126   1.465
19289W        W91615   7.117  19.784  11.999
19290W        W91616  16.035  26.409  12.588
19291W        W91617  20.914   1.061  11.491
19292W        W91618   4.897   1.827   0.559
19293W        W91619   3.860  18.785   2.310
19294W        W91620  24.539   0.405  11.845
19295W        W91621  27.455  31.141   3.206
19296W        W91622  14.286   9.393   1.165
19297W        W91623  18.566  33.521  12.998
19298W        W91624  42.415  33.639  14.576
19299W        W91625  34.433  26.219   2.821
19300W        W91626  42.551  25.697  13.445
19301W        W91627   9.750   8.141   2.711
19302W        W91628  41.939  36.316   0.527
19303W        W91629   4.418  26.205  14.813
19304W        W91630  44.901   0.535   3.685
19305W        W91631  22.190   2.427   3.693
19306W        W91632  10.782  34.218   3.440
19307W        W91633  27.117   2.312  12.649
19308W        W91634  12.205  30.692  11.627
19309W        W91635  12.506  14.707  13.472
19310W        W91636  14.305  27.058   5.540
19311W        W91637  31.064  11.938  11.709
19312W        W91638  24.051   4.931  11.005
19313W        W91639   5.368   0.913   2.850
19314W        W91640  26.323  17.070  11.054
19315W        W91641  39.805   7.380  11.492
19316W        W91642   0.539  44.418  14.973
19317W        W91643  35.752  42.475  11.491
19318W        W91644  28.641  31.959   5.121
19319W        W91645  43.771   7.716   1.713
19320W        W91646  16.119   7.374  13.419
19321W        W91647  18.072  38.854  11.192
19322W        W91648  20.971   7.273   2.133
19323W        W91649  20.258  40.669  11.656
19324W        W91650   8.756  43.967   3.121
19325W        W91651  13.102   4.937  14.697
19326W        W91652  21.561   9.532  11.948
19327W        W91653  20.497   7.323  12.988
19328W        W91654  38.837  21.841   4.131
19329W        W91655  38.527  24.049  11.605
19330W        W91656   8.630  17.639  14.853
19331W        W91657  25.503   1.429  14.500
19332W        W91658  27.396   7.969   1.376
19333W        W91659   2.247  28.592   4.879
19334W        W91660  39.262  13.828   1.070
19335W        W91661   4.013  32.461   1.370
19336W        W91662   7.971  34.592  11.888
19337W        W91663   3.342  16.115   4.218
19338W        W91664  36.037  23.249   2.756
19339W        W91665  39.981   6.021  11.008
19340W        W91666   9.638   4.870  12.182
19341W        W91667  38.823  13.222   3.149
19342W        W91668  15.313  38.911  14.783
19343W        W91669  29.064   0.040   1.431
19344W        W91670   3.023  24.249   2.747
19345W        W91671  33.550  40.376  10.677
19346W        W91672  25.083   5.804  10.402
19347W        W91673  27.626  35.998   3.655
19348W        W91674  31.533  31.112   1.717
19349W        W91675  14.799  39.820   2.820
19350W        W91676  26.029  35.639  14.374
19351W        W91677   5.021  44.076  12.115
19352W        W91678  26.169  31.304  11.144
19353W        W91679  20.023   2.505  13.071
19354W        W91680   5.830  34.101  14.807
19355W        W91681  32.637   5.902  10.602
19356W        W91682   1.004   7.459  12.541
19357W        W91683   7.672   4.138  11.161
19358W        W91684  12.098  15.258  11.845
19359W        W91685  34.125  30.653   4.087
19360W        W91686   9.032   2.772   5.223
19361W        W91687  14.246  29.320   2.174
19362W        W91688  13.963  37.644   2.237
19363W        W91689  38.415  41.530  14.482
19364W        W91690  15.584  14.536  13.460
19365W        W91691  44.447  20.628   9.684
19366W        W91692  43.894  26.434  13.950
19367W        W91693  42.511   3.396   2.163
19368W        W91694  18.045  11.247  12.438
19369W        W91695  10.664  29.917   0.935
19370W        W91696  12.247  33.348   2.587
19371W        W91697  23.885  25.310  11.057
19372W        W91698  30.840  32.155  11.066
19373W        W91699   0.603  37.284  11.026
19374W        W91700  43.027  16.195   4.572
19375W        W91701  26.029  35.357   3.699
19376W        W91702  14.081  42.683   1.347
19377W        W91703  42.242  15.641  14.763
19378W        W91704  33.484  30.448  11.136
19379W        W91705   2.166  32.154  11.640
19380W        W91706  30.164  36.777   4.758
19381W        W91707  29.392   8.905   3.222
19382W        W91708  18.963  39.827  14.941
19383W        W91709  17.635  44.288  14.405
19384W        W91710   8.366   5.231   4.587
19385W        W91711  32.655  33.313   1.735
19386W        W91712  24.971  18.940   2.854
19387W        W91713  35.162   4.369   1.841
19388W        W91714  43.893  40.571  14.474
19389W        W91715   1.113  44.685  11.661
19390W        W91716  35.372   0.793   3.947
19391W        W91717  39.763  19.101  12.666
19392W        W91718  25.866  31.910   3.364
19393W        W91719  17.648  30.906   1.327
19394W        W91720  40.462  27.228   0.243
19395W        W91721  30.659   0.487  13.958
19396W        W91722  34.083   4.248  12.842
19397W        W91723  27.930  19.190   1.117
19398W        W91724  32.179  32.972  12.031
19399W        W91725  21.079  14.900  13.862
19400W        W91726  32.156  23.219  11.233
19401W        W91727  36.814  19.485   3.197
19402W        W91728  14.182  17.383  12.587
19403W        W91729  20.510  36.101  12.992
19404W        W91730  26.351  24.701  13.107
19405W        W91731  26.511  25.240  10.406
19406W        W91732  10.781   3.773  12.023
19407W        W91733   8.287  18.415   4.809
19408W        W91734  37.918  11.444  13.340
19409W        W91735  10.294   2.510  11.743
19410W        W91736  23.622  40.909   1.772
19411W        W91737  27.268  22.110  14.342
19412W        W91738  31.316  27.698  11.064
19413W        W91739  17.129  11.737  12.467
19414W        W91740  34.292  24.740  14.300
19415W        W91741  27.187  30.178  12.341
19416W        W91742  28.399  25.627   4.162
19417W        W91743  42.471   1.338   2.824
19418W        W91744  38.337   8.840   3.219
19419W        W91745   4.018  38.748   4.326
19420W        W91746  16.349  42.300   2.804
19421W        W91747  12.532  19.217  12.075
19422W        W91748  26.949  33.987   0.435
19423W        W91749  32.892   5.400  11.955
19424W        W91750  20.968   5.884  11.165
19425W        W91751   1.299  23.089  12.322
19426W        W91752   4.224   7.419  12.378
19427W        W91753   9.772  30.213  14.372
19428W        W91754  18.531  41.438   1.831
19429W        W91755  29.340  25.065  10.748
19430W        W91756   3.889  31.681   3.980
19431W        W91757  41.802  13.489  14.817
19432W        W91758  29.925  24.156  11.041
19433W        W91759  12.745  41.982   4.728
19434W        W91760   1.835  19.527   3.993
19435W        W91761  41.744   7.893   1.892
19436W        W91762  28.082  11.136   1.794
19437W        W91763  41.531   3.220   4.889
19438W        W91764  24.485  15.319  12.523
19439W        W91765  40.982  18.642  12.557
19440W        W91766  28.158  10.917   1.322
19441W        W91767  31.972  22.292  14.454
19442W        W91768  31.721  42.854   4.052
19443W        W91769   8.752   2.339  10.999
19444W        W91770  34.442  15.417  10.834
19445W        W91771  13.876  10.842  13.380
19446W        W91772   8.661  28.072  12.529
19447W        W91773  39.186  26.759  10.263
19448W        W91774   7.620  25.047   0.218
19449W        W91775  15.126  23.040   1.317
19450W        W91776  27.612   7.138   2.018
19451W        W91777  23.040  14.575   2.316
19452W        W91778   7.651  34.409   2.657
19453W        W91779  23.660   3.347   1.814
19454W        W91780  15.605  30.196   1.248
19455W        W91781  15.395  13.107  11.664
19456W        W91782  13.833  29.096  14.537
19457W        W91783  11.439   6.889   3.115
19458W        W91784  15.071  17.162  14.861
19459W        W91785  40.113  28.555   1.810
19460W        W91786  40.538  33.692  13.475
19461W        W91787  41.766  18.667   0.423
19462W        W91788  34.503  21.417  14.028
19463W        W91789  37.045   9.942   9.734
19464W        W91790  40.137  41.560  11.958
19465W        W91791  43.288  23.829  13.556
19466W        W91792  38.910   8.231   4.552
19467W        W91793  34.415   7.514   0.532
19468W        W91794   2.761  39.810  10.689
19469W        W91795  25.057  39.973  11.343
19470W        W91796  24.898  12.242  11.100
19471W        W91797  24.659  21.180  10.886
19472W        W91798  28.347  17.159   0.224
19473W        W91799   3.986  42.356  13.323
19474W        W91800  40.528   7.570   3.337
19475W        W91801  23.483  27.209  12.552
19476W        W91802  16.837  40.023  13.684
19477W        W91803  39.845  41.377   3.209
19478W        W91804  25.016   1.728   1.219
19479W        W91805  12.257  26.437  10.198
19480W        W91806   2.458  43.098  14.473
19481W        W91807  19.739  28.564   1.011
19482W        W91808  30.180   7.869  12.646
19483W        W91809  19.546  30.906   0.819
19484W        W91810  28.558  29.657  13.085
19485W        W91811   1.991  13.181   4.788
19486W        W91812  12.353  27.596   1.824
19487W        W91813  42.785  30.582  12.893
19488W        W91814  43.059   4.693   3.895
19489W        W91815  35.016   1.764  11.590
19490W        W91816  36.001  26.036  12.967
19491W        W91817  36.420  15.517  12.389
19492W        W91818  34.023  39.360   4.984
19493W        W91819   0.781   6.380   1.683
19494W        W91820  42.355  33.973  11.140
19495W        W91821  37.453   8.576   0.901
19496W        W91822  12.854  15.267   0.784
19497W        W91823  24.409   6.273  11.192
19498W        W91824  18.690  13.435   2.033
19499W        W91825   7.400   9.307   1.455
19500W        W91826  20.000   8.421  12.797
19501W        W91827  22.000  30.016   1.662
19502W        W91828  34.546  37.969   1.290
19503W        W91829  36.007  20.590   2.268
19504W        W91830  21.984  20.650  14.986
19505W        W91831  41.150   1.324   3.288
19506W        W91832  10.404  14.517   3.399
19507W        W91833  32.282   8.809   9.811
19508W        W91834   7.388  13.427   2.152
19509W        W91835  29.576  10.574  13.997
19510W        W91836   1.892  40.296   1.424
19511W        W91837   5.753  15.604  13.582
19512W        W91838  13.395  26.622  14.024
19513W        W91839  32.008  13.877   0.925
19514W        W91840  41.477  28.187   3.910
19515W        W91841  44.972  41.995   2.373
19516W        W91842   3.771   5.857  12.379
19517W        W91843  24.441  14.353   2.205
19518W        W91844  40.924   1.835  13.279
19519W        W91845  16.352  32.644   2.282
19520W        W91846  21.123  19.615   5.219
19521W        W91847  33.144  25.788  12.199
19522W        W91848  43.464   9.668  11.135
19523W        W91849  34.660  19.214  14.009
19524W        W91850   2.606  19.111  13.388
19525W        W91851  30.677   1.728  13.490
19526W        W91852  39.990  16.852   3.681
19527W        W91853  11.347  13.382  10.800
19528W        W91854  21.236  30.996   0.429
19529W        W91855  40.999  19.835  13.816
19530W        W91856   9.188  22.785  13.968
19531W        W91857   8.385   0.528  11.051
19532W        W91858  35.137  25.642  10.679
19533W        W91859  41.978  41.796   3.629
19534W        W91860  10.528  11.140   2.315
19535W        W91861  25.154  33.417  10.797
19536W        W91862  20.336   2.810  13.367
19537W        W91863  42.825  34.053   2.670
19538W        W91864  21.170  12.218   0.433
19539W        W91865  26.048  32.919   4.159
19540W        W91866  30.700   7.378  11.113
19541W        W91867   2.728  39.818   0.013
19542W        W91868  28.625   8.246  11.216
19543W        W91869  33.021  39.392   4.042
19544W        W91870   4.904  23.095  10.540
19545W        W91871  27.416  28.076   1.891
19546W        W91872  40.413  33.776  14.355
19547W        W91873  36.680  26.707  10.289
19548W        W91874  40.340   0.630   3.365
19549W        W91875  23.567  30.376  10.642
19550W        W91876  20.691  12.833   3.086
19551W        W91877   9.039  25.698   4.213
19552W        W91878  13.363   5.293   2.514
19553W        W91879   3.971   1.369  11.088
19554W        W91880   4.695  30.104  10.681
19555W        W91881   0.795   6.420  10.704
19556W        W91882  21.599  35.930  12.514
19557W        W91883  29.273  43.491   4.944
19558W        W91884  35.954  21.968  12.002
19559W        W91885  31.008   3.630  12.936
19560W        W91886  17.265   1.187   2.213
19561W        W91887  31.257  35.556   3.248
19562W        W91888  28.879   1.185  11.413
19563W        W91889  41.698  39.778  11.333
19564W        W91890   3.440   9.302   1.719
19565W        W91891  40.261  42.863  12.403
19566W        W91892  39.456  32.295   9.943
19567W        W91893  21.603  30.259  11.127
19568W        W91894   6.279  15.552  14.174
19569W        W91895  25.933  17.723  13.447
19570W        W91896   5.959  23.704   0.441
19571W        W91897  23.586  40.440   2.530
19572W        W91898  39.508  24.714   1.418
19573W        W91899  35.697  16.317  13.401
19574W        W91900  14.756   8.432   2.880
19575W        W91901   5.960  34.916   2.845
19576W        W91902  32.285  40.298   3.577
19577W        W91903   2.051  18.159   1.373
19578W        W91904   1.317  16.576  13.910
19579W        W91905  37.866  17.378   2.846
19580W        W91906  35.056  38.589  11.480
19581W        W91907  44.367  29.574  12.834
19582W        W91908  41.206  15.728  11.365
19583W        W91909  44.850  17.087  14.316
19584W        W91910   8.941  24.676   0.101
19585W        W91911  23.792  35.583  14.372
19586W        W91912  19.656   3.642  13.409
19587W        W91913  29.379  25.189   0.808
19588W        W91914  43.399  43.166  11.918
19589W        W91915  13.834   8.554   2.076
19590W        W91916  37.080  16.586   1.491
19591W        W91917   3.312  24.678   0.323
19592W        W91918  13.906  25.111  13.575
19593W        W91919  26.639   3.871   1.753
19594W        W91920  26.230   4.308  14.531
19595W        W91921  35.065  14.537  13.866
19596W        W91922  12.767   0.972  14.659
19597W        W91923   7.715  11.071   1.172
19598W        W91924  44.951  30.127   1.359
19599W        W91925  28.512  14.955   2.637
19600W        W91926  37.411   0.128   4.795
19601W        W91927  19.492  11.699   0.672
19602W        W91928  16.079  15.287  13.368
19603W        W91929  17.186  20.722   1.225
19604W        W91930  19.276  41.521   1.341
19605W        W91931  14.684   8.816   1.498
19606W        W91932  29.229  13.305   3.128
19607W        W91933   3.900  20.729   2.658
19608W        W91934  30.381  19.101  10.799
19609W        W91935   4.985  11.273   5.085
19610W        W91936   9.736  40.754   3.881
19611W        W91937  24.487  23.807   3.530
19612W        W91938  15.557  26.019  12.445
19613W        W91939  34.163  30.972  12.126
19614W        W91940   9.794   3.807   0.912
19615W        W91941  34.554  26.889   4.592
19616W        W91942  30.948  42.439  11.601
19617W        W91943  16.739  18.593   1.431
19618W        W91944  24.999  11.296  11.887
19619W        W91945   2.797  42.776   1.902
19620W        W91946  36.353  33.611  14.907
19621W        W91947   9.701  24.011   1.877
19622W        W91948  10.284  35.579  12.096
19623W        W91949  36.560   1.921   2.735
19624W        W91950   4.529  23.044  11.262
19625W        W91951  15.259  38.987  12.091
19626W        W91952  27.075  25.212  14.768
19627W        W91953  10.762  36.621  12.440
19628W        W91954  29.163  41.945   1.276
19629W        W91955  36.028  22.116   1.383
19630W        W91956   7.549  30.696   3.148
19631W        W91957   4.776  17.126   1.902
19632W        W91958  15.847  38.251   1.390
19633W        W91959  20.860  24.560   4.728
19634W        W91960   6.230  17.492   1.002
19635W        W91961  31.865   2.533   1.860
19636W        W91962  44.241  33.922  12.265
19637W        W91963  31.677   1.913  13.354
19638W        W91964   2.910   4.354   1.457
19639W        W91965   9.453  19.046  13.890
19640W        W91966  43.577  20.080   4.130
19641W        W91967  33.497  16.758  12.236
19642W        W91968  10.644  33.167   4.224
19643W        W91969  44.460  21.439  12.407
19644W        W91970  21.615  25.928  14.748
19645W        W91971  21.146  12.938  10.208
19646W        W91972  15.082  31.090  11.802
19647W        W91973  39.951  15.725  10.710
19648W        W91974   5.910   5.881   4.673
19649W        W91975  33.964  26.095  11.924
19650W        W91976  43.069  40.498  11.579
19651W        W91977  15.600   0.625  10.115
19652W        W91978  40.553  42.002  12.928
19653W        W91979  40.923  25.897  14.283
19654W        W91980  13.272  35.801  13.808
19655W        W91981  27.738  19.204  11.552
19656W        W91982  17.293  22.045   3.168
19657W        W91983   2.224   4.168  11.502
19658W        W91984  26.234  22.197  14.030
19659W        W91985  31.825  41.327   2.380
19660W        W91986  44.007  14.933  14.332
19661W        W91987  40.922  35.826  14.035
19662W        W91988  38.350  18.282  14.404
19663W        W91989   9.481   2.293   4.326
19664W        W91990   3.048  17.518   0.694
19665W        W91991  21.789  32.587   2.229
19666W        W91992  32.924  29.168   0.654
19667W        W91993  42.766  27.974   3.377
19668W        W91994  22.956  29.659   2.712
19669W        W91995  13.600   7.203   2.928
19670W        W91996  14.703  15.278  12.825
19671W        W91997   0.180   2.952  14.742
19672W        W91998  30.112   7.679   0.911
19673W        W91999  43.855  22.552   0.246
19674W        W92000  13.989   6.373   4.962
19675W        W92001  42.863  17.676  13.507
19676W        W92002  32.027  35.380  13.014
19677W        W92003  23.856  34.531   2.874
19678W        W92004  29.094  16.186  10.723
19679W        W92005  27.527   0.287  10.574
19680W        W92006  43.731  15.081  13.877
19681W        W92007   2.055  22.155  14.860
19682W        W92008   0.874  36.327  13.567
19683W        W92009   4.322  33.832   1.312
19684W        W92010   7.460  44.330  12.443
19685W        W92011   2.288  33.568   2.590
19686W        W92012  35.433  34.824  13.017
19687W        W92013  38.983  39.197   4.618
19688W        W92014  22.026  28.353  13.811
19689W        W92015  17.345  29.382  12.473
19690W        W92016  41.381  37.483   2.876
19691W        W92017  15.211  27.199  11.228
19692W        W92018  39.999  31.409   2.210
19693W        W92019  43.741  18.685   1.422
19694W        W92020  12.780   5.210   3.897
19695W        W92021   8.710  38.795  11.808
19696W        W92022  36.852  41.338   4.972
19697W        W92023  29.678  11.387   0.734
19698W        W92024  39.190   1.678  14.922
19699W        W92025  30.533   8.024   4.236
19700W        W92026  31.925  16.184  12.867
19701W        W92027  42.628   8.042   2.833
19702W        W92028  40.061  18.230  14.900
19703W        W92029   0.173  16.714   2.299
19704W        W92030  23.657   4.313   2.193
19705W        W92031  41.827  32.541   1.905
19706W        W92032   0.303  12.776   4.034
19707W        W92033  33.113   4.957   2.610
19708W        W92034  35.090   5.783  14.224
19709W        W92035  20.586   8.681  12.452
19710W        W92036  36.942  31.142  14.273
19711W        W92037  23.285  37.961  11.662
19712W        W92038  40.582  35.131   4.144
19713W        W92039   7.980  31.932   5.028
19714W        W92040  22.673  19.330   0.920
19715W        W92041  29.170  27.668   4.133
19716W        W92042  15.555  33.622   2.266
19717W        W92043   6.476  44.721   1.810
19718W        W92044  35.930  19.539  12.997
19719W        W92045   7.830  14.186   0.165
19720W        W92046   9.928  10.277  12.552
19721W        W92047  19.816  37.461   0.262
19722W        W92048  10.634  12.252   1.287
19723W        W92049  32.559  37.955   1.440
19724W        W92050  42.772  30.150  11.228
19725W        W92051   1.050  32.159  10.146
19726W        W92052  10.276  14.232   1.211
19727W        W92053  30.961  40.908   0.429
19728W        W92054  36.213  35.650  11.928
19729W        W92055  24.872  42.763   2.846
19730W        W92056  36.591  37.404  13.302
19731W        W92057  26.987   1.814  12.007
19732W        W92058  24.986  30.174  14.095
19733W        W92059  32.443  32.799   1.814
19734W        W92060   4.638  37.215   2.708
19735W        W92061  30.891  35.850  12.047
19736W        W92062  18.653  26.480  10.551
19737W        W92063   0.326  41.813   0.041
19738W        W92064  42.869   8.791  11.795
19739W        W92065  43.832  37.067   4.175
19740W        W92066  40.954  10.739   4.177
19741W        W92067  24.026   4.257  14.374
19742W        W92068   6.616  34.657   1.658
19743W        W92069  25.008  40.375   2.269
19744W        W92070   0.301  27.036  14.242
19745W        W92071  28.511  19.187   3.728
19746W        W92072  34.833  14.598   3.891
19747W        W92073  23.289  25.892  14.307
19748W        W92074   7.198  16.784   3.933
19749W        W92075  14.355  42.032  11.958
19750W        W92076  41.540  32.899  11.179
19751W        W92077  34.980  44.308   2.229
19752W        W92078  27.051   9.068   3.595
19753W        W92079  23.823  37.890  10.831
19754W        W92080  18.124  12.529   4.479
19755W        W92081  44.876  36.922   4.560
19756W        W92082   1.422   3.529   4.076
19757W        W92083  29.489   1.849   5.204
19758W        W92084  40.556  43.751  13.007
19759W        W92085  28.712   3.302   2.434
19760W        W92086  10.563  33.958  12.297
19761W        W92087  31.909   1.351   3.865
19762W        W92088  16.879  26.584   1.005
19763W        W92089  37.025  43.314   2.748
19764W        W92090  33.145  36.589   4.982
19765W        W92091  28.550   9.237   2.231
19766W        W92092  29.565  40.689  11.359
19767W        W92093  29.016   0.775   2.683
19768W        W92094  39.285  36.552  14.770
19769W        W92095  22.327  23.606  11.527
19770W        W92096  10.351   9.946  14.600
19771W        W92097  19.870  10.390   0.798
19772W        W92098   2.266  24.149  14.483
19773W        W92099  21.376  29.906  12.682
19774W        W92100  26.744  44.953  13.080
19775W        W92101  27.705  17.091   2.711
19776W        W92102  11.650  38.542  11.935
19777W        W92103   1.478  14.553  13.563
19778W        W92104   4.209  10.756  12.720
19779W        W92105  24.803  33.542   1.289
19780W        W92106  22.363  24.479   1.629
19781W        W92107  19.520  17.110  11.108
19782W        W92108  18.568  41.639  14.886
19783W        W92109  27.287  30.059   1.414
19784W        W92110   9.729   6.564   1.643
19785W        W92111  42.803  10.656   0.437
19786W        W92112  27.401  20.585  10.705
19787W        W92113   3.445  38.347  14.752
19788W        W92114  17.139   9.104   1.283
19789W        W92115  11.667  14.217   1.925
19790W        W92116  32.230  29.453  13.101
19791W        W92117  44.173  24.250  13.326
19792W        W92118  18.445  44.270   2.189
19793W        W92119   3.005  33.247   0.910
19794W        W92120  29.729  17.377  10.594
19795W        W92121  30.935   6.967   0.987
19796W        W92122  14.216  27.492   2.085
19797W        W92123  10.119   6.931  10.872
19798W        W92124  31.786  14.753  14.168
19799W        W92125   8.917  44.435   2.285
19800W        W92126  17.975   7.852  13.391
19801W        W92127  29.592   6.769   2.616
19802W        W92128  34.948   6.472   2.255
19803W        W92129  35.603   3.384   1.775
19804W        W92130  26.084  10.592   0.300
19805W        W92131   9.488  44.173   0.284
19806W        W92132  41.378  19.809  13.445
19807W        W92133  43.504  10.189   2.852
19808W        W92134   9.668   9.119   4.422
19809W        W92135  24.183   4.270  13.857
19810W        W92136  40.337   2.370  11.621
19811W        W92137   6.414   1.315   3.055
19812W        W92138  27.117  26.442  10.173
19813W        W92139   8.171  25.177  10.488
19814W        W92140  26.377  40.954  11.091
19815W        W92141  12.875  28.150  12.830
19816W        W92142  34.528  15.814   1.478
19817W        W92143  42.580  21.140   4.174
19818W        W92144  25.200   9.219  13.999
19819W        W92145   1.510   8.229  11.210
19820W        W92146  27.565  30.952   0.495
19821W        W92147   3.001  11.139   1.502
19822W        W92148  13.308   6.213   0.469
19823W        W92149  35.000  40.465  14.982
19824W        W92150   0.328  12.371  11.080
19825W        W92151  33.504   7.821   4.176
19826W        W92152  33.456  15.586  13.040
19827W        W92153   8.640  42.520  14.851
19828W        W92154  18.683  35.900   3.018
19829W        W92155   6.324  34.301   1.376
19830W        W92156  38.055  11.616   0.231
19831W        W92157  21.215  19.269  14.704
19832W        W92158  41.096  24.689   2.799
19833W        W92159  26.187   4.717  12.732
19834W        W92160   3.173  43.807   1.348
19835W        W92161  32.575  37.158  12.942
19836W        W92162   2.369   1.417  13.136
19837W        W92163  18.655  38.130   3.251
19838W        W92164  42.691  20.582  13.010
19839W        W92165  13.872  30.817  11.778
19840W        W92166   5.828  27.509   0.197
19841W        W92167  41.393  32.868  14.781
19842W        W92168  32.884  41.768  13.063
19843W        W92169   9.878  22.969  10.830
19844W        W92170  17.694  29.173   3.669
19845W        W92171   6.937  24.703   1.393
19846W        W92172  22.195   8.858  12.804
19847W        W92173  25.179  42.852   3.277
19848W        W92174  36.673   5.702  11.311
19849W        W92175   4.560   1.827  13.813
19850W        W92176  16.079  25.635  13.889
19851W        W92177  29.167  38.876  10.005
19852W        W92178  33.981  19.102   2.389
19853W        W92179  16.493  32.763  11.133
19854W        W92180  22.115  32.335   1.323
19855W        W92181  33.029  39.812   2.168
19856W        W92182  12.733   3.718  14.744
19857W        W92183  40.669  25.065   2.359
19858W        W92184  20.239  14.128  13.485
19859W        W92185  24.194  17.337  13.901
19860W        W92186   5.065  44.410   1.189
19861W        W92187  28.167   5.199  11.029
19862W        W92188   6.874  10.439  14.872
19863W        W92189  12.146  42.583  10.417
19864W        W92190   1.947   4.793   2.278
19865W        W92191  34.498  37.434  10.370
19866W        W92192  16.427   2.837   4.200
19867W        W92193  41.446  19.135   4.335
19868W        W92194  29.123   5.034   0.674
19869W        W92195  37.897  41.283   3.352
19870W        W92196  35.734  19.712  13.440
19871W        W92197  17.478  30.506  11.436
19872W        W92198  11.006  20.084   3.316
19873W        W92199  25.008  38.225   1.200
19874W        W92200  24.015  16.838  10.556
19875W        W92201   6.632  10.271  10.449
19876W        W92202   3.825   8.131  12.661
19877W        W92203   8.487  12.178  13.066
19878W        W92204   2.673  39.917   0.520
19879W        W92205  26.717  27.089  14.897
19880W        W92206   7.832   5.597   0.911
19881W        W92207  16.525  31.082   2.258
19882W        W92208  18.746   4.492   0.388
19883W        W92209  22.315  21.962   4.750
19884W        W92210  13.053  27.971  11.139
19885W        W92211  26.032  35.937   4.947
19886W        W92212  13.364   3.570  12.254
19887W        W92213  28.641  33.385  10.908
19888W        W92214  36.099   9.138  13.574
19889W        W92215  18.156   6.616  12.977
19890W        W92216   9.548  17.346   4.170
19891W        W92217  27.712  32.166  12.265
19892W        W92218  23.771   4.450   0.030
19893W        W92219  43.315  37.564  11.663
19894W        W92220  26.026  31.835   1.547
19895W        W92221   6.916  27.924   4.623
19896W        W92222  22.104  27.732   0.654
19897W        W92223  14.156   1.213  12.966
19898W        W92224   3.904  14.381  10.940
19899W        W92225  17.712   6.409  11.486
19900W        W92226   7.105  25.493  14.017
19901W        W92227   6.227  42.916  12.159
19902W        W92228  35.203  15.348  11.517
19903W        W92229  29.274  30.246   1.509
19904W        W92230  10.197  19.885  10.584
19905W        W92231  41.237  33.135  10.827
19906W        W92232  29.086   6.920   3.705
19907W        W92233  29.595  22.887  14.934
19908W        W92234  16.065   5.585  11.487
19909W        W92235  15.755  10.747   2.385
19910W        W92236  37.020  26.556   0.361
19911W        W92237  38.794  18.036  11.607
19912W        W92238  10.399  25.975  11.473
19913W        W92239  37.431  11.863   5.036
19914W        W92240   9.278  25.164  11.807
19915W        W92241   6.871  20.012   3.833
19916W        W92242  28.409  29.520  12.202
19917W        W92243   9.688  30.472  13.906
19918W        W92244  36.433  39.032   3.446
19919W        W92245  39.448  44.444  12.072
19920W        W92246  29.067  33.915   4.420
19921W        W92247  17.160  12.254   2.346
19922W        W92248   0.182  16.354  12.133
19923W        W92249  43.493  28.639  10.530
19924W        W92250  38.032  34.848  12.979
19925W        W92251   1.857  12.266   3.739
19926W        W92252  29.167  28.572   4.691
19927W        W92253  10.395  39.655   4.617
19928W        W92254  21.609  39.317  14.485
19929W        W92255  18.616  36.497  14.873
19930W        W92256  38.748  10.615   1.308
19931W        W92257   2.919  12.342   5.118
19932W        W92258  27.849  40.887  10.116
19933W        W92259  23.816  41.914   0.959
19934W        W92260  18.514  27.174  12.954
19935W        W92261  32.768  16.675   0.238
19936W        W92262  42.418  24.606  10.387
19937W        W92263   7.628   7.264   3.628
19938W        W92264  36.404  34.992   1.281
19939W        W92265  18.191  17.172  14.038
19940W        W92266   5.702  14.975  12.929
19941W        W92267   1.547  42.258   1.770
19942W        W92268  10.702  40.126   4.845
19943W        W92269  15.842  44.494  13.402
19944W        W92270   5.389  14.672   1.814
19945W        W92271  23.820   1.156   3.275
19946W        W92272   2.287  23.243   5.293
19947W        W92273  25.869  24.141  14.401
19948W        W92274  16.626  22.151  12.821
19949W        W92275  38.328  24.522  10.838
19950W        W92276   4.186  12.936  12.631
19951W        W92277  39.482  23.154  13.166
19952W        W92278  25.901  32.352   1.638
19953W        W92279   5.310  11.711   5.020
19954W        W92280  26.204  37.782  12.086
19955W        W92281   3.675  38.039  12.079
19956W        W92282  14.356  16.724   0.353
19957W        W92283  25.960  20.146  14.504
19958W        W92284  34.940  39.643  13.098
19959W        W92285  41.186   0.240  12.148
19960W        W92286  11.375  26.673   2.859
19961W        W92287   0.431  13.141  14.374
19962W        W92288  13.868   5.343   2.678
19963W        W92289  33.423  32.931  11.438
19964W        W92290  11.501  23.246  11.565
19965W        W92291   4.713  21.272  14.352
19966W        W92292  10.860   5.838   0.071
19967W        W92293  16.872  17.342  13.571
19968W        W92294  22.345  34.483  11.523
19969W        W92295  35.468   7.856   4.055
19970W        W92296  41.589   4.500  13.107
19971W        W92297   2.526  10.911  11.543
19972W        W92298  41.663   9.165   2.901
19973W        W92299  12.197  29.914   3.269
19974W        W92300  13.229   5.876   3.683
19975W        W92301   4.360  12.220   4.175
19976W        W92302  34.777   9.228   4.558
19977W        W92303  27.977   9.667   4.162
19978W        W92304  19.543  21.936  11.009
19979W        W92305  29.730  25.457  12.424
19980W        W92306  33.473  22.621  12.622
19981W        W92307  40.445  15.851   4.239
19982W        W92308   3.550  39.253  10.635
19983W        W92309  28.243  12.620   2.898
19984W        W92310  22.664  43.759   0.402
19985W        W92311   6.907   8.860  10.598
19986W        W92312   8.212   1.354   2.686
19987W        W92313   1.831   9.074  12.488
19988W        W92314  34.021  32.975  11.222
19989W        W92315  23.586  16.164   4.646
19990W        W92316  32.857  33.935  12.552
19991W        W92317  16.202  24.438   0.805
19992W        W92318  10.755  38.872  11.979
19993W        W92319  43.249   3.915   4.404
19994W        W92320  38.612  11.612   1.513
19995W        W92321  44.294  10.718  14.452
19996W        W92322  24.612  27.470   2.871
19997W        W92323  34.459  16.855   1.431
19998W        W92324  12.820  30.842   4.078
19999W        W92325  42.960  35.479   1.036
20000W        W92326  26.480  43.948   0.843
20001W        W92327   5.127   4.007  12.181
20002W        W92328  31.322  39.315   2.901
20003W        W92329  19.012  42.348   4.385
20004W        W92330   6.714  36.792   4.342
20005W        W92331  32.469  29.405   0.223
20006W        W92332  30.872   4.736   0.718
20007W        W92333  11.332  29.160  12.963
20008W        W92334  38.917  29.473  14.864
20009W        W92335  37.302   5.468   4.828
20010W        W92336  14.301  15.375  10.473
20011W        W92337  20.894   0.403  13.413
20012W        W92338  23.203  24.191   3.257
20013W        W92339  11.177  40.690  13.440
20014W        W92340  21.285   9.145   4.656
20015W        W92341  14.366   2.956   4.208
20016W        W92342  33.747   0.071  11.003
20017W        W92343  16.168  40.534   3.391
20018W        W92344  27.508  22.323  12.948
20019W        W92345  14.646  15.590  14.769
20020W        W92346  39.762  12.837   2.852
20021W        W92347  34.815  41.749  12.174
20022W        W92348  37.116  35.908  13.084
20023W        W92349  13.083  31.502   1.793
20024W        W92350  34.609   9.406  12.050
20025W        W92351  44.599   9.740   1.327
20026W        W92352  12.202  33.154  14.992
20027W        W92353  29.016   6.726   0.612
20028W        W92354  40.622  12.728  12.400
20029W        W92355  34.123  24.948   0.007
20030W        W92356  42.535  42.282   3.157
20031W        W92357  14.157  26.282  12.400
20032W        W92358  41.400  44.444  10.644
20033W        W92359  14.795  13.575   3.527
20034W        W92360  17.158  33.172   2.306
20035W        W92361   8.348   3.872  11.567
20036W        W92362  36.193  16.705   3.414
20037W        W92363  12.600  10.057  13.455
20038W        W92364  10.837  10.665   2.270
20039W        W92365  27.659   1.505  13.472
20040W        W92366   7.309  15.582   1.847
20041W        W92367  41.936  42.763   0.473
20042W        W92368  28.137  11.576  14.699
20043W        W92369  43.293   0.896  13.550
20044W        W92370   5.039   5.649   4.647
20045W        W92371  43.744  21.225   0.361
20046W        W92372  18.073  16.110  14.916
20047W        W92373  32.457  42.062  13.064
20048W        W92374  29.558  43.178   2.010
20049W        W92375  20.195  20.791   3.252
20050W        W92376  26.127   9.781   4.096
20051W        W92377  44.972  38.963   2.240
20052W        W92378  14.762  29.465  13.357
20053W        W92379  20.729  31.044  12.317
20054W        W92380  19.058  32.951   4.774
20055W        W92381  34.667  39.926  11.096
20056W        W92382  23.892  21.032  13.586
20057W        W92383  36.176  39.297   2.012
20058W        W92384  13.736  13.342  13.417
20059W        W92385  13.398   3.955   1.642
20060W        W92386  38.883  20.971  10.681
20061W        W92387  29.972  31.202  11.212
20062W        W92388  43.685  23.012   1.170
20063W        W92389  13.423  22.315  12.249
20064W        W92390  44.683  21.756  10.320
20065W        W92391  24.217  25.671   0.319
20066W        W92392  32.661  12.451   4.358
20067W        W92393   1.461  36.558   1.466
20068W        W92394  18.743  41.795  12.087
20069W        W92395  43.192  33.580   0.709
20070W        W92396  13.938   1.272   2.937
20071W        W92397   8.470  42.367  12.371
20072W        W92398  27.928  17.031   4.247
20073W        W92399   3.485  13.238  13.044
20074W        W92400  38.433  16.806   0.367
20075W        W92401  30.521  39.440  12.938
20076W        W92402  19.606  38.002  12.432
20077W        W92403  28.047   9.361   1.430
20078W        W92404  38.942  32.166  10.918
20079W        W92405  18.220  44.271  10.767
20080W        W92406  34.535  43.786   3.582
20081W        W92407  27.156  35.956  10.430
20082W        W92408  17.246  12.724   4.064
20083W        W92409   5.696  11.904  12.920
20084W        W92410   2.460  27.985  14.003
20085W        W92411  36.459  27.483  13.780
20086W        W92412  39.992  44.873  14.819
20087W        W92413  34.435  40.391  13.668
20088W        W92414   7.866  16.247   4.137
20089W        W92415  44.616  21.307   4.116
20090W        W92416  21.992  42.029  13.025
20091W        W92417  24.052  16.718  14.499
20092W        W92418   4.181   6.405   2.249
20093W        W92419   2.796  36.660  13.260
20094W        W92420   6.269  18.322  14.901
20095W        W92421  41.748  41.724  13.518
20096W        W92422  17.103   9.310   2.239
20097W        W92423   0.827  21.969   3.221
20098W        W92424   2.446  19.641   0.824
20099W        W92425  29.475  24.530   2.794
20100W        W92426   0.871  35.978   1.926
20101W        W92427  34.123  36.026  11.184
20102W        W92428  34.880  12.220  14.239
20103W        W92429  15.287   8.935   4.528
20104W        W92430  41.499   8.063  12.767
20105W        W92431  43.499  36.771  14.666
20106W        W92432  40.069  42.907  13.988
20107W        W92433  39.058  36.356   4.068
20108W        W92434  39.516  20.430   3.593
20109W        W92435  38.138  34.450  11.656
20110W        W92436  20.672  25.476   1.237
20111W        W92437   4.952  11.117  11.151
20112W        W92438  21.810  34.380   4.272
20113W        W92439  30.986  38.076   3.339
20114W        W92440  41.522  41.675  14.981
20115W        W92441   3.507  29.102  13.377
20116W        W92442  39.068  20.816  11.125
20117W        W92443  38.552  31.055  11.408
20118W        W92444  43.471   6.609   3.632
20119W        W92445  21.584  23.076  10.534
20120W        W92446   5.218   6.772  12.567
20121W        W92447   6.860  28.527  13.006
20122W        W92448  33.815  12.026  14.021
20123W        W92449  34.190  31.961  14.428
20124W        W92450  22.520  34.565   1.775
20125W        W92451   3.189  12.226  13.525
20126W        W92452  21.776  13.854   4.627
20127W        W92453   8.575  24.035  11.137
20128W        W92454   2.432   9.045  11.265
20129W        W92455  20.358   1.844  14.949
20130W        W92456  34.418  34.833   1.522
20131W        W92457  28.665  13.345  12.937
20132W        W92458   9.252  36.556   0.817
20133W        W92459  17.582  17.541  11.919
20134W        W92460  22.623  20.173  14.544
20135W        W92461   2.196  13.878  11.324
20136W        W92462   0.048  39.456  11.065
20137W        W92463  35.577  38.436  14.110
20138W        W92464  22.325  20.497  13.306
20139W        W92465  43.935  30.105  11.713
20140W        W92466  19.345  27.612  14.349
20141W        W92467  35.022  17.274   2.294
20142W        W92468  24.536  31.655  13.923
20143W        W92469  31.463   7.189  13.937
20144W        W92470  41.909  16.734   1.148
20145W        W92471  27.024  38.290   2.953
20146W        W92472   3.378  44.736   0.373
20147W        W92473  28.704  29.623   1.868
20148W        W92474  11.083  36.019  13.290
20149W        W92475  18.031  14.234  14.328
20150W        W92476  25.270   3.300   2.946
20151W        W92477  36.527  12.838  11.528
20152W        W92478  16.223  30.968  13.099
20153W        W92479  13.383   3.908  13.018
20154W        W92480   2.373  34.701   0.998
20155W        W92481  10.844  41.403  14.757
20156W        W92482  43.268  24.095   1.815
20157W        W92483  12.588  10.162   2.201
20158W        W92484  12.562  35.402  11.753
20159W        W92485  28.867  28.173  11.788
20160W        W92486  11.352  22.146  11.980
20161W        W92487  30.682   1.323   3.153
20162W        W92488   7.489  22.748  12.082
20163W        W92489  26.892  36.950   3.269
20164W        W92490   6.338   9.761   0.311
20165W        W92491   8.705  21.753  13.493
20166W        W92492   5.247  16.238  10.641
20167W        W92493  30.628  41.906  14.540
20168W        W92494  24.964  22.115  12.863
20169W        W92495  10.896  32.434   3.723
20170W        W92496   2.465  38.005  13.265
20171W        W92497   9.429   1.906   4.658
20172W        W92498  23.719  21.004  11.792
20173W        W92499  27.044   0.874  10.813
20174W        W92500  41.297  39.143  14.464
20175W        W92501  18.762   7.646   3.604
20176W        W92502  41.044  26.804  13.992
20177W        W92503  29.449  19.072   3.600
20178W        W92504  16.226   7.827  13.021
20179W        W92505  29.518  31.862   2.252
20180W        W92506  39.354  20.664  14.922
20181W        W92507  29.012  32.886  14.973
20182W        W92508  40.596  18.059  13.812
20183W        W92509  30.396  21.518   1.907
20184W        W92510   7.147   9.088  12.167
20185W        W92511  16.798  19.075   0.647
20186W        W92512  31.821  38.699  12.058
20187W        W92513   8.671  16.760  13.754
20188W        W92514   0.238  30.973   0.433
20189W        W92515  29.861   0.665  12.356
20190W        W92516  15.639  10.682  13.586
20191W        W92517  13.172   5.240   2.020
20192W        W92518  28.289  21.262   1.797
20193W        W92519   4.356   3.930   3.780
20194W        W92520  19.546  43.735   1.442
20195W        W92521   9.853  13.981   1.869
20196W        W92522  40.615  29.910  11.657
20197W        W92523  27.263  40.073  11.566
20198W        W92524  41.096  34.417  13.963
20199W        W92525   8.305  39.419   1.744
20200W        W92526   0.409  18.778   4.087
20201W        W92527   0.078  44.261   3.189
20202W        W92528   4.586  37.502  14.940
20203W        W92529   5.430  41.830  12.157
20204W        W92530  22.329  17.603   0.657
20205W        W92531  36.812  32.888  10.966
20206W        W92532   6.628  44.467   1.380
20207W        W92533   3.443  25.190   0.352
20208W        W92534  35.140  19.641   1.382
20209W        W92535  27.127  20.481   4.683
20210W        W92536   9.317  21.667  11.861
20211W        W92537  10.567   4.875   1.867
20212W        W92538  41.834  22.080   1.763
20213W        W92539  15.234  25.154   2.688
20214W        W92540   6.824  14.060  11.124
20215W        W92541  25.049  42.319   3.696
20216W        W92542   0.685  41.523   2.243
20217W        W92543  17.539  16.202  12.535
20218W        W92544   7.349  24.223   0.475
20219W        W92545  38.848  11.750   2.159
20220W        W92546  32.929  39.576   0.798
20221W        W92547  23.576  27.205   4.519
20222W        W92548  17.584  35.995   3.411
20223W        W92549  33.581  15.157  11.153
20224W        W92550  35.510  36.888   3.218
20225W        W92551  32.317  10.747   4.969
20226W        W92552   3.983   6.644   4.231
20227W        W92553  44.889  37.766   4.101
20228W        W92554  27.994  26.094   2.843
20229W        W92555  35.674  40.228  13.127
20230W        W92556  25.913  20.221   0.386
20231W        W92557  13.360  16.846  13.387
20232W        W92558  24.005   2.686   0.293
20233W        W92559  42.759  12.772  12.613
20234W        W92560  19.378  38.472  14.420
20235W        W92561  39.575  14.652  11.238
20236W        W92562   0.954  16.686  12.032
20237W        W92563   6.780   0.520  14.531
20238W        W92564  27.693   1.227  14.754
20239W        W92565   5.740  31.378   3.716
20240W        W92566   7.936  23.007   1.358
20241W        W92567  29.463  24.884   1.815
20242W        W92568  36.469  32.690  14.031
20243W        W92569  28.475  32.151   4.667
20244W        W92570   9.107   8.843  11.394
20245W        W92571  43.760   1.980   3.831
20246W        W92572  19.334  37.758  14.953
20247W        W92573  15.206  12.254   4.072
20248W        W92574  13.841  19.627  14.465
20249W        W92575  34.386  32.295  11.901
20250W        W92576  17.698  34.295   1.851
20251W        W92577   3.544   6.855   4.083
20252W        W92578  21.973  14.386   4.184
20253W        W92579  28.894  21.194  11.047
20254W        W92580  12.137  35.491  13.474
20255W        W92581  11.828  29.679   2.631
20256W        W92582   6.353  16.090   4.213
20257W        W92583  44.577  27.674   2.846
20258W        W92584  22.954  11.848   1.364
20259W        W92585  44.352  26.223  12.527
20260W        W92586  14.889  41.952  11.983
20261W        W92587  30.219  26.449   0.859
20262W        W92588  11.056   6.282   2.853
20263W        W92589  41.994  16.105   0.476
20264W        W92590  31.457  31.641   2.436
20265W        W92591  28.415  14.227  13.113
20266W        W92592  11.409  34.733   5.329
20267W        W92593  25.068  29.902   0.785
20268W        W92594  36.892   6.831  10.743
20269W        W92595  22.762  39.503  11.543
20270W        W92596  32.389  32.508  11.907
20271W        W92597  44.135  23.613  10.215
20272W        W92598   7.444  43.826  12.619
20273W        W92599  14.117  18.713  14.264
20274W        W92600  15.797  28.737  12.837
20275W        W92601  39.755  24.021   4.869
20276W        W92602   0.489  10.274  10.139
20277W        W92603  14.629  40.837   1.066
20278W        W92604  35.073  19.535   4.699
20279W        W92605  25.803  44.718  14.963
20280W        W92606  17.857  34.420  14.468
20281W        W92607  29.469   6.686   1.620
20282W        W92608  21.042  15.615  14.992
20283W        W92609  24.210   1.867  12.442
20284W        W92610  14.017   4.304  11.710
20285W        W92611  42.784  42.733   2.005
20286W        W92612  43.446   7.410   4.095
20287W        W92613   8.043  29.733   3.788
20288W        W92614  12.914   2.228  11.634
20289W        W92615  35.294  30.812   4.587
20290W        W92616  29.957  38.309  14.263
20291W        W92617  13.749  36.053  14.644
20292W        W92618  23.755  43.053   0.338
20293W        W92619  15.823   6.368  10.636
20294W        W92620  15.264   3.502  14.875
20295W        W92621  40.585  25.862  10.897
20296W        W92622  24.160  33.533   3.237
20297W        W92623   5.358  12.833   1.166
20298W        W92624   6.363  32.184   0.410
20299W        W92625  38.912   5.800   0.125
20300W        W92626  14.825  36.657  13.882
20301W        W92627  25.454  27.383   0.400
20302W        W92628  24.153  35.498  11.117
20303W        W92629  21.589  44.036  14.783
20304W        W92630  44.591  35.118   0.234
20305W        W92631  16.077  21.122   4.812
20306W        W92632  35.045   0.483   4.987
20307W        W92633   2.327  26.137   3.683
20308W        W92634   5.737   2.774   3.200
20309W        W92635  43.905  41.626  12.431
20310W        W92636  33.916   5.992   1.475
20311W        W92637  34.014  11.013   2.166
20312W        W92638  32.347   6.576  13.547
20313W        W92639   1.949  34.773   0.271
20314W        W92640  25.903  24.545  12.096
20315W        W92641  34.530  30.111   2.670
20316W        W92642  17.961  36.669   4.405
20317W        W92643  13.113  41.787  13.477
20318W        W92644   7.609  35.455  10.739
20319W        W92645  14.523   2.850  12.737
20320W        W92646  15.316  14.154  14.389
20321W        W92647  10.168  37.909   3.190
20322W        W92648  11.710  11.523  10.633
20323W        W92649  16.617  19.592  11.608
20324W        W92650   0.674  25.676  11.186
20325W        W92651  19.704   0.524  12.441
20326W        W92652  20.709   9.288  11.632
20327W        W92653  21.128  25.197  12.621
20328W        W92654   6.458  25.669  11.507
20329W        W92655  41.457  28.629   3.605
20330W        W92656  38.530  44.293   3.274
20331W        W92657  19.047  15.294   4.123
20332W        W92658  14.094  15.715   4.196
20333W        W92659   6.249  43.974  10.765
20334W        W92660  18.890   0.175   5.133
20335W        W92661  34.485  40.988   1.658
20336W        W92662   4.983  34.945   1.601
20337W        W92663  44.337  32.310  14.512
20338W        W92664   3.999  26.557  12.988
20339W        W92665  11.316  13.520   3.191
20340W        W92666  35.545  26.263  14.832
20341W        W92667  16.798  26.481   3.719
20342W        W92668  15.534  37.475   4.696
20343W        W92669   3.427   0.033  14.765
20344W        W92670  31.715  25.654  14.227
20345W        W92671  35.105  43.324   4.741
20346W        W92672  42.815  21.069  12.910
20347W        W92673  10.836   8.939   3.630
20348W        W92674  37.566  30.612  11.541
20349W        W92675  41.321  11.391  10.952
20350W        W92676  14.355  43.385  12.426
20351W        W92677  23.505  24.262   0.755
20352W        W92678  42.892  41.717  12.012
20353W        W92679   0.791  17.983   3.169
20354W        W92680  16.084  34.832  12.957
20355W        W92681  10.348  29.391   1.691
20356W        W92682  18.646  25.447   2.793
20357W        W92683  31.339  26.292   4.387
20358W        W92684   9.768  44.465  14.446
20359W        W92685  39.366  31.956  10.684
20360W        W92686  19.015   0.190  13.506
20361W        W92687  33.987   0.069  11.494
20362W        W92688  44.006   9.834   0.447
20363W        W92689   3.861  21.712   0.319
20364W        W92690  26.742   1.067   3.705
20365W        W92691  13.672  30.563   2.698
20366W        W92692   5.171  39.607   4.011
20367W        W92693  42.939   8.305  11.970
20368W        W92694  11.222  31.050  13.634
20369W        W92695  34.123  22.089  12.090
20370W        W92696  43.204   6.601   1.238
20371W        W92697  28.403  10.186  14.796
20372W        W92698  29.119   8.694  10.587
20373W        W92699  20.577   3.984   3.747
20374W        W92700  38.917  12.465  14.949
20375W        W92701   9.866   7.797  13.924
20376W        W92702  21.546   7.080  11.551
20377W        W92703  44.846  22.748   0.501
20378W        W92704  41.841   8.428   2.909
20379W        W92705  15.410   7.156  14.372
20380W        W92706  11.723  19.442  12.542
20381W        W92707  41.015  12.805  13.600
20382W        W92708  23.307  35.563  12.892
20383W        W92709  32.673  18.322  11.598
20384W        W92710  15.140   9.713   1.731
20385W        W92711  40.875  35.070   3.158
20386W        W92712  39.232  10.827   2.723
20387W        W92713  20.656   6.908  14.860
20388W        W92714   5.647  23.143   3.392
20389W        W92715  17.484  14.167   0.768
20390W        W92716   2.961  42.524  13.366
20391W        W92717  39.328   4.414  11.255
20392W        W92718  21.156  29.647   3.370
20393W        W92719   4.874  28.452  13.016
20394W        W92720  28.229  12.499  14.674
20395W        W92721   4.829  30.608   0.726
20396W        W92722  35.289  37.281   2.327
20397W        W92723  10.856  18.173   4.315
20398W        W92724  30.715  17.490   0.763
20399W        W92725   5.860  13.079  12.191
20400W        W92726  35.269   5.788   2.218
20401W        W92727   1.646  23.627   5.170
20402W        W92728  29.861  39.539   1.694
20403W        W92729   5.822  31.820  13.321
20404W        W92730  26.175  22.521  11.855
20405W        W92731  33.503  35.839  14.450
20406W        W92732  31.384   6.278   2.343
20407W        W92733  42.006   3.272   0.439
20408W        W92734  27.577  19.319  13.298
20409W        W92735  32.467   1.315  13.659
20410W        W92736  22.714  10.432  13.457
20411W        W92737  31.520  33.298   4.767
20412W        W92738  11.319   3.553   4.542
20413W        W92739   5.699   4.637  14.137
20414W        W92740  10.169  39.890   3.637
20415W        W92741  22.975  32.297  11.201
20416W        W92742   4.768  11.281   0.298
20417W        W92743  34.404  37.954   3.237
20418W        W92744  43.422  32.319  10.568
20419W        W92745  14.733  14.704  13.885
20420W        W92746  12.553  21.468  13.303
20421W        W92747  11.447  36.512   1.269
20422W        W92748  23.639  36.652  13.580
20423W        W92749   9.962  30.457  11.017
20424W        W92750   1.379  26.843   2.195
20425W        W92751   1.114  22.155   5.425
20426W        W92752   2.755  33.956  11.490
20427W        W92753  43.496   3.627  14.851
20428W        W92754  20.345  43.325   1.944
20429W        W92755   9.797   3.875   1.434
20430W        W92756  15.131  19.105  11.270
20431W        W92757  34.576   6.230  14.042
20432W        W92758   9.152   3.178   1.729
20433W        W92759  16.247   6.402  13.269
20434W        W92760  41.435  44.336  12.021
20435W        W92761   7.909  22.218  11.559
20436W        W92762  15.724  11.477   0.383
20437W        W92763  29.658   5.845   2.904
20438W        W92764  38.246   2.785   4.761
20439W        W92765  34.683  38.275   3.621
20440W        W92766  34.033  18.814  14.396
20441W        W92767  18.196  27.122  14.825
20442W        W92768  29.038  26.247   9.637
20443W        W92769  39.452  23.543  12.408
20444W        W92770   6.164  26.680   1.351
20445W        W92771   5.488   5.467  13.056
20446W        W92772   7.187   7.278   1.187
20447W        W92773  13.365  37.514  13.474
20448W        W92774   6.788  24.281   1.058
20449W        W92775  15.842   4.897  12.086
20450W        W92776   1.451  13.848  14.959
20451W        W92777  31.083  36.436   1.388
20452W        W92778  43.368  31.856   3.269
20453W        W92779   3.795  16.826  10.768
20454W        W92780  34.576  40.535   0.702
20455W        W92781  40.748   5.685   3.797
20456W        W92782  35.218   1.394   1.937
20457W        W92783  30.486   9.155  12.526
20458W        W92784  11.362  22.673  13.804
20459W        W92785   5.924  29.524   0.784
20460W        W92786  43.974  33.812   4.253
20461W        W92787  42.601  32.192   4.833
20462W        W92788  40.744  26.672  12.445
20463W        W92789  40.738  16.590  12.179
20464W        W92790  35.853  10.247  14.447
20465W        W92791  15.974  18.137  10.094
20466W        W92792   7.156   7.239  12.370
20467W        W92793  20.024  39.588   0.394
20468W        W92794  14.067  10.157   0.944
20469W        W92795  10.284  30.138  14.398
20470W        W92796  28.356  37.886   1.116
20471W        W92797  26.599  21.263  11.871
20472W        W92798  24.900  19.150  11.502
20473W        W92799  13.333  41.940   3.127
20474W        W92800  35.598  44.776  12.169
20475W        W92801  19.309  39.344   1.133
20476W        W92802  14.114  34.902   1.896
20477W        W92803  12.356   8.274   3.324
20478W        W92804  13.846   0.465  12.369
20479W        W92805  20.289  38.915   1.390
20480W        W92806  13.178  13.228   3.389
20481W        W92807  16.807  12.647   4.700
20482W        W92808  33.791  38.652  11.036
20483W        W92809  28.200  23.641  13.281
20484W        W92810  35.576  16.627  14.044
20485W        W92811  13.880   9.873   0.450
20486W        W92812  12.746  27.201   0.075
20487W        W92813  30.620  25.621   0.431
20488W        W92814  31.055  15.267  13.320
20489W        W92815  13.631  25.391  12.809
20490W        W92816  37.136  40.952   1.217
20491W        W92817  43.391   8.699   3.212
20492W        W92818  39.829  38.454  14.860
20493W        W92819   4.176  37.099   4.126
20494W        W92820  10.819  33.478  10.727
20495W        W92821  17.285  22.488   4.985
20496W        W92822   1.087  43.954   4.416
20497W        W92823  18.670  34.891   2.843
20498W        W92824  18.236  22.511   0.332
20499W        W92825  37.331  44.192  12.685
20500W        W92826   7.142  27.426  11.031
20501W        W92827   5.889  27.995  14.975
20502W        W92828  18.597  24.531   0.291
20503W        W92829  14.858   6.311  14.788
20504W        W92830  15.165   4.291   3.787
20505W        W92831  41.439  15.362  11.627
20506W        W92832  41.156  22.942   0.442
20507W        W92833   0.859   9.251  10.386
20508W        W92834  20.030  41.432   0.759
20509W        W92835   6.620  42.103   0.305
20510W        W92836  29.873  44.964  13.463
20511W        W92837  22.547  28.564   2.474
20512W        W92838  31.706   9.379   1.881
20513W        W92839  32.898  12.145  14.699
20514W        W92840  29.520  12.078   1.338
20515W        W92841  38.108   2.252   3.276
20516W        W92842  20.972  41.335   0.302
20517W        W92843   5.884  15.710  12.003
20518W        W92844  30.092   8.655  13.006
20519W        W92845  30.619  39.918   3.684
20520W        W92846  32.971  18.510   0.980
20521W        W92847  21.576  12.292   1.245
20522W        W92848  20.552  24.147   4.656
20523W        W92849  15.811  40.770  10.688
20524W        W92850  44.308  36.375  10.946
20525W        W92851  31.629   5.627  10.685
20526W        W92852  40.994  27.489   1.023
20527W        W92853  18.783  18.774  12.529
20528W        W92854  24.246   9.638   3.278
20529W        W92855  23.725  30.034   0.739
20530W        W92856  41.470  24.204   3.821
20531W        W92857  11.052  15.142  12.059
20532W        W92858  21.450  40.289  13.409
20533W        W92859   4.656  11.426   1.368
20534W        W92860  29.583  22.080   4.682
20535W        W92861  44.697  18.776  12.136
20536W        W92862  25.140   0.099  13.986
20537W        W92863   1.509   5.754   3.656
20538W        W92864  44.914  41.561   0.247
20539W        W92865   1.813  18.255  11.910
20540W        W92866  10.111  11.618  12.294
20541W        W92867  23.760   8.804   0.901
20542W        W92868  17.307   4.706  12.033
20543W        W92869  35.509   2.785   0.401
20544W        W92870  40.902  33.165  14.040
20545W        W92871  36.917   0.174   4.075
20546W        W92872  21.018  39.436   5.143
20547W        W92873   6.877  19.526   2.383
20548W        W92874   3.263  26.898  12.631
20549W        W92875  38.558  12.909  13.526
20550W        W92876  33.904  34.286   4.117
20551W        W92877   1.275   9.014  13.818
20552W        W92878  41.016  41.530  14.973
20553W        W92879  27.137  35.320   3.308
20554W        W92880  27.703  30.167  11.107
20555W        W92881  10.395  14.706   1.346
20556W        W92882  32.181  28.561   4.987
20557W        W92883  37.431  44.851  10.925
20558W        W92884   6.651  15.096  14.810
20559W        W92885  31.033   9.400   3.581
20560W        W92886   0.118   5.224   1.974
20561W        W92887  30.473  23.551  14.762
20562W        W92888  28.603  21.964   4.348
20563W        W92889  43.371   9.865   3.246
20564W        W92890  10.304  12.356   1.690
20565W        W92891  19.039  10.123   4.101
20566W        W92892  19.514  20.065   5.001
20567W        W92893  18.176   5.281   2.256
20568W        W92894  36.619  18.378  13.959
20569W        W92895  21.680  33.003   3.337
20570W        W92896  35.880  36.545  13.011
20571W        W92897  41.808   6.163   4.208
20572W        W92898  43.637  20.159   1.460
20573W        W92899  18.313  13.331  14.035
20574W        W92900   5.390  28.499   1.817
20575W        W92901  16.815   4.183  14.372
20576W        W92902  28.672   9.276  14.304
20577W        W92903  38.019  31.470   4.264
20578W        W92904   3.241  23.679  13.849
20579W        W92905  19.679  42.954   4.606
20580W        W92906  25.421  22.940  11.102
20581W        W92907  31.888   3.271  11.064
20582W        W92908   3.577   5.232   4.741
20583W        W92909  44.947  30.030  12.152
20584W        W92910  24.745  28.793   3.219
20585W        W92911   2.671  31.686   2.170
20586W        W92912  21.654  13.336   1.423
20587W        W92913  38.769  39.809   2.262
20588W        W92914   2.216  13.205  13.545
20589W        W92915  27.940  36.394   0.372
20590W        W92916   0.666   5.435   3.772
20591W        W92917  44.947  39.587   0.376
20592W        W92918  37.045  10.060  11.455
20593W        W92919  29.432  42.714  14.760
20594W        W92920  26.495   9.077   1.216
20595W        W92921  28.708   5.323   0.753
20596W        W92922  37.782  14.312  12.962
20597W        W92923   9.276  24.684  12.995
20598W        W92924  28.564  40.045   1.761
20599W        W92925  28.620   3.665  13.071
20600W        W92926  34.048  37.493   0.188
20601W        W92927   3.698  34.797   0.257
20602W        W92928   5.631  40.216   0.289
20603W        W92929   8.909  41.578  10.789
20604W        W92930  43.923   7.874   4.711
20605W        W92931   3.336  12.529   3.234
20606W        W92932  39.629  27.467   3.261
20607W        W92933   0.043  27.280   0.640
20608W        W92934  30.885   6.391   2.135
20609W        W92935  42.237  37.967  14.828
20610W        W92936   9.638  43.125  13.978
20611W        W92937   8.093  21.096   2.750
20612W        W92938  33.165  23.644  14.048
20613W        W92939  12.313   6.662  14.358
20614W        W92940  39.781  36.880  11.130
20615W        W92941  34.997  20.871   4.207
20616W        W92942  19.179  27.161  14.166
20617W        W92943  40.742  14.837   1.269
20618W        W92944  20.090   8.797   0.909
20619W        W92945   9.332  14.056  12.073
20620W        W92946  19.735  44.523   0.732
20621W        W92947  11.113  10.222  13.715
20622W        W92948   3.783  19.094  13.889
20623W        W92949  23.145  27.580   0.461
20624W        W92950  14.437  28.909   2.608
20625W        W92951  24.129  24.606   1.382
20626W        W92952   8.426  26.171  10.712
20627W        W92953   5.900  22.803  14.010
20628W        W92954   9.825   3.153   4.529
20629W        W92955  40.540  33.982   4.430
20630W        W92956  36.641  18.087  10.635
20631W        W92957   8.891  36.472  12.586
20632W        W92958  16.710  37.625  11.871
20633W        W92959  17.217  17.719   3.310
20634W        W92960  30.191   8.755  13.921
20635W        W92961  14.068  22.442   4.250
20636W        W92962   8.786   0.788  13.990
20637W        W92963  41.401   7.288   3.076
20638W        W92964  33.972  23.576  14.914
20639W        W92965  17.213   2.679  12.913
20640W        W92966  24.768   7.329   3.836
20641W        W92967   2.246   7.740   0.487
20642W        W92968  18.689  35.977   0.795
20643W        W92969  41.807  36.624   2.647
20644W        W92970  10.660  11.590   3.876
20645W        W92971   3.327  10.681   0.292
20646W        W92972  11.155  26.959   1.419
20647W        W92973  27.022  29.990  10.589
20648W        W92974  27.015  36.579   1.921
20649W        W92975   6.888  34.590   3.635
20650W        W92976   6.003  23.457   1.782
20651W        W92977   9.684  25.201   0.643
20652W        W92978   2.981  41.366   3.657
20653W        W92979  23.701   8.472   3.088
20654W        W92980   5.547   1.467   1.415
20655W        W92981   8.781  31.365  14.952
20656W        W92982   1.221  16.206   1.828
20657W        W92983  28.192  12.825   0.089
20658W        W92984  44.868  12.820   1.665
20659W        W92985  21.185  41.450   2.718
20660W        W92986   4.878  28.176  10.041
20661W        W92987   7.761  40.125  11.613
20662W        W92988  20.506  29.177   4.131
20663W        W92989  10.407  27.116   0.662
20664W        W92990  14.439  24.383   4.496
20665W        W92991  20.724  25.424  14.942
20666W        W92992  24.860  10.955   2.739
20667W        W92993  11.114  12.863  14.928
20668W        W92994  21.571  40.778   9.997
20669W        W92995  22.726   3.844  13.842
20670W        W92996  31.704  17.958   4.136
20671W        W92997  34.161  31.988   4.565
20672W        W92998  39.874  33.955  12.602
20673W        W92999  12.682  36.347   2.627
20674W        W93000  27.136  11.807   1.471
20675W        W93001  22.062  28.549   3.507
20676W        W93002  28.432  18.189  12.426
20677W        W93003   2.751  18.041  12.014
20678W        W93004  14.752  44.339   2.234
20679W        W93005   5.723  42.848  14.914
20680W        W93006  33.957  33.852   4.984
20681W        W93007  31.679  40.074   0.307
20682W        W93008  30.736   3.316  14.931
20683W        W93009   3.893  33.611   0.833
20684W        W93010  32.325  17.409  11.587
20685W        W93011  14.273  30.929   4.795
20686W        W93012  40.021   8.892   1.493
20687W        W93013   8.506  28.603   1.512
20688W        W93014  15.065   5.843   1.490
20689W        W93015  30.404  16.746  13.436
20690W        W93016  29.116  42.217   3.590
20691W        W93017  31.904   7.327  14.840
20692W        W93018  27.953  17.725   1.698
20693W        W93019  35.317  37.322   1.014
20694W        W93020  35.977  17.720  13.472
20695W        W93021  30.156   1.032  14.318
20696W        W93022  17.735  27.411   4.530
20697W        W93023  10.336  21.752  12.912
20698W        W93024   6.920  14.903  12.957
20699W        W93025  38.093   0.257  14.512
20700W        W93026   0.750  43.548  10.854
20701W        W93027  24.567  20.415   2.644
20702W        W93028   9.227   2.035   2.115
20703W        W93029  23.245  38.642  12.790
20704W        W93030   7.742  10.367   4.550
20705W        W93031  39.441  20.009  14.376
20706W        W93032   5.617   4.642   3.370
20707W        W93033  10.005  22.360  11.816
20708W        W93034  15.232  14.182   1.062
20709W        W93035  13.200   5.626  11.622
20710W        W93036   8.821  11.642  11.185
20711W        W93037   5.625  38.431  13.823
20712W        W93038  28.041  21.755  11.932
20713W        W93039  10.439   1.784  11.249
20714W        W93040  19.162  18.384  12.249
20715W        W93041  15.809   6.833   1.785
20716W        W93042   3.231  32.676  11.492
20717W        W93043  22.674  22.471   1.552
20718W        W93044  12.953  35.894  14.299
20719W        W93045   0.442  33.200  14.013
20720W        W93046   7.740   1.093  11.679
20721W        W93047  23.076  14.833   4.673
20722W        W93048   9.177  12.693  13.246
20723W        W93049  21.567  44.519   0.713
20724W        W93050  36.511  28.989   0.926
20725W        W93051  33.868  35.508   4.171
20726W        W93052  21.951  11.598  12.433
20727W        W93053  39.913  25.303  11.548
20728W        W93054  34.439  36.608  12.441
20729W        W93055   7.615  36.023  13.832
20730W        W93056   3.909  37.881   2.919
20731W        W93057  23.958   5.710   2.427
20732W        W93058  20.549  43.471   2.384
20733W        W93059   1.685  17.513   3.301
20734W        W93060  41.355  27.075  13.352
20735W        W93061  33.522  33.131   0.252
20736W        W93062  30.675  16.707   1.197
20737W        W93063   7.131  30.138  12.698
20738W        W93064  41.612  22.145  12.461
20739W        W93065  25.710   1.672  12.338
20740W        W93066   3.977   3.892   0.516
20741W        W93067  21.646  41.235  10.795
20742W        W93068  38.526  32.853   0.903
20743W        W93069  17.207  21.806  14.927
20744W        W93070   9.917  11.506  13.153
20745W        W93071  28.093  32.151   1.435
20746W        W93072  41.212  19.231   0.386
20747W        W93073  17.331  26.047   1.855
20748W        W93074  21.158   2.483  13.131
20749W        W93075   8.876  28.066   5.133
20750W        W93076  14.552  39.321  10.608
20751W        W93077   2.515  15.277   3.782
20752W        W93078  25.991  28.289  11.966
20753W        W93079  15.207  25.199  14.652
20754W        W93080  33.131  20.812   2.352
20755W        W93081  33.444  23.981   1.469
20756W        W93082  40.475  35.431   4.878
20757W        W93083  10.732  37.075   1.421
20758W        W93084  18.529  20.092   4.668
20759W        W93085  15.520  14.337   4.207
20760W        W93086   0.709  38.172  11.464
20761W        W93087   5.811  38.572  13.359
20762W        W93088   5.936  29.069  11.339
20763W        W93089  38.483  22.018   1.818
20764W        W93090  21.668  22.378  11.570
20765W        W93091  23.729  17.668  12.592
20766W        W93092  21.167   4.975  14.472
20767W        W93093  29.066  38.629  12.292
20768W        W93094  10.244  25.096  12.842
20769W        W93095   7.805   2.814  10.729
20770W        W93096  22.326  42.864  13.470
20771W        W93097   4.518   5.333  11.281
20772W        W93098   3.492  28.388   3.343
20773W        W93099  32.939  21.238   2.558
20774W        W93100  38.128  23.998   3.778
20775W        W93101   5.285  35.914   4.242
20776W        W93102  38.233  33.334  13.047
20777W        W93103  23.184   5.829  12.885
20778W        W93104  20.190  27.013   2.837
20779W        W93105  44.207  19.951  12.641
20780W        W93106  30.731  24.927   4.030
20781W        W93107  31.585   7.596   3.777
20782W        W93108   1.970  19.000  10.707
20783W        W93109  10.299  29.890   4.359
20784W        W93110   8.220  31.910   2.261
20785W        W93111  19.455   5.365  12.477
20786W        W93112  30.107   2.000   2.063
20787W        W93113  41.910  18.686  11.785
20788W        W93114  18.080   7.946   2.308
20789W        W93115  17.072  15.351   3.202
20790W        W93116  25.653  41.002   0.235
20791W        W93117  27.236  26.620   1.200
20792W        W93118   0.974  27.046   4.651
20793W        W93119  37.446   6.642   4.156
20794W        W93120   9.701   1.913   2.776
20795W        W93121  34.093  35.048  14.082
20796W        W93122  13.676  33.978   3.545
20797W        W93123   9.560  15.811   2.325
20798W        W93124  43.449  25.148  14.965
20799W        W93125  21.551  34.426   1.818
20800W        W93126   8.731   0.966   4.968
20801W        W93127  25.120  36.075  11.422
20802W        W93128  39.469   1.275  12.895
20803W        W93129  19.917  29.728   2.122
20804W        W93130  27.360  11.363  12.623
20805W        W93131   4.161  16.336   0.917
20806W        W93132  19.680  42.642  12.110
20807W        W93133   9.992  38.312  14.587
20808W        W93134  10.144  38.077   0.344
20809W        W93135  34.413  24.284  12.685
20810W        W93136  28.860  22.693   4.697
20811W        W93137  36.677  11.428  11.990
20812W        W93138  20.539  34.129   3.869
20813W        W93139  28.235  13.906  11.916
20814W        W93140  36.568  20.001   1.862
20815W        W93141  31.625  33.026   2.289
20816W        W93142  28.051  18.189   1.515
20817W        W93143  31.496  19.519   4.246
20818W        W93144  13.767  44.865  11.176
20819W        W93145  29.628  20.607   3.416
20820W        W93146   0.094  30.032  12.996
20821W        W93147   1.283   0.444  13.905
20822W        W93148  21.042  21.989  14.918
20823W        W93149  32.745  35.691  10.853
20824W        W93150  44.511  21.771   0.381
20825W        W93151   0.261  36.808  12.501
20826W        W93152  10.796  29.094   4.995
20827W        W93153  20.819   6.483   4.039
20828W        W93154  20.649  25.568  12.632
20829W        W93155   4.189   6.728   0.439
20830W        W93156   9.616  11.642   0.874
20831W        W93157  22.313  39.614   5.521
20832W        W93158  21.038  31.868   4.162
20833W        W93159   5.249  35.355  14.490
20834W        W93160  15.275  44.847   0.741
20835W        W93161   1.477  14.143   4.152
20836W        W93162  30.833   3.013   2.004
20837W        W93163  43.679  15.034   2.777
20838W        W93164  22.206   5.018   2.885
20839W        W93165   4.381  22.814  14.657
20840W        W93166  12.214  37.036   0.766
20841W        W93167  26.109  42.332  12.362
20842W        W93168  12.587  24.242  13.996
20843W        W93169  22.060  40.950   0.947
20844W        W93170  40.394  44.979   2.463
20845W        W93171  14.242  36.076  14.391
20846W        W93172  31.485  38.605   0.280
20847W        W93173  38.315  11.358   3.288
20848W        W93174  23.951  32.176  12.146
20849W        W93175  18.565  43.547   0.823
20850W        W93176   8.450  26.971   2.688
20851W        W93177   6.834   7.194   4.857
20852W        W93178  41.980   7.497  13.135
20853W        W93179  23.243  25.427  13.497
20854W        W93180  31.133  37.613   0.813
20855W        W93181   4.226   2.748  12.141
20856W        W93182   6.336  36.874  12.122
20857W        W93183   7.433  29.174  11.002
20858W        W93184  24.216  22.729  11.747
20859W        W93185  35.558   8.313   1.353
20860W        W93186  38.998   0.747  10.709
20861W        W93187  35.387  38.914   4.546
20862W        W93188  14.387  18.221   2.144
20863W        W93189  38.917  10.144   2.318
20864W        W93190  38.508  14.650  10.583
20865W        W93191   7.618  10.392  14.433
20866W        W93192   5.666   7.709   2.688
20867W        W93193  42.731  43.436   3.139
20868W        W93194  39.725  39.516   2.363
20869W        W93195  23.443  26.052   1.386
20870W        W93196  29.169   9.950  11.097
20871W        W93197  41.365  17.996  13.086
20872W        W93198  37.876  10.185  10.291
20873W        W93199  42.452   5.895   2.193
20874W        W93200   1.906   1.310   3.120
20875W        W93201  24.550  18.471   0.340
20876W        W93202  40.297  39.836  10.714
20877W        W93203  44.278  35.823   4.138
20878W        W93204   8.373  39.349  14.228
20879W        W93205  26.024  44.193   4.329
20880W        W93206   0.243  19.500  11.975
20881W        W93207  38.904  22.272  15.000
20882W        W93208   2.973  38.017   0.793
20883W        W93209  25.112  18.479  13.825
20884W        W93210   4.930  15.908  10.396
20885W        W93211  36.498  37.913  12.905
20886W        W93212  34.517  42.998   0.673
20887W        W93213   5.401  35.865  10.703
20888W        W93214   7.421  23.529   3.139
20889W        W93215  38.347  20.724   0.244
20890W        W93216  16.517  17.198   2.341
20891W        W93217   8.342  14.875  13.492
20892W        W93218  37.647   8.424   0.001
20893W        W93219   2.827  12.308  13.009
20894W        W93220  20.132   2.485  13.890
20895W        W93221  23.557  31.751  11.680
20896W        W93222  21.775  33.691  13.040
20897W        W93223  11.024  34.654  11.500
20898W        W93224  42.532  15.088  10.649
20899W        W93225  26.304  41.030   2.342
20900W        W93226  40.668  11.798  12.547
20901W        W93227  41.724  34.853  12.524
20902W        W93228  31.856   0.656   1.778
20903W        W93229   0.558  36.480   0.171
20904W        W93230  22.876  44.814   4.832
20905W        W93231  39.457   8.324   4.346
20906W        W93232  13.311  11.271  10.529
20907W        W93233  23.548  28.634   4.603
20908W        W93234  38.497  17.668   4.023
20909W        W93235  18.769  28.126   1.401
20910W        W93236   5.344  26.038  10.716
20911W        W93237  16.114  29.618  14.411
20912W        W93238  17.360  17.701   3.799
20913W        W93239  20.273  23.720  11.608
20914W        W93240   1.033  12.373   5.081
20915W        W93241   8.440  30.006  10.693
20916W        W93242  14.285  31.855   4.626
20917W        W93243  38.350   1.046   3.723
20918W        W93244  23.227  28.508  14.795
20919W        W93245  11.840  42.379  12.460
20920W        W93246   1.509   4.240   5.090
20921W        W93247  23.214  18.729   1.452
20922W        W93248  22.739   3.856  11.256
20923W        W93249  18.295   0.737   3.430
20924W        W93250  41.255  43.804   1.609
20925W        W93251  33.292  26.722  12.417
20926W        W93252  34.454  42.940   2.061
20927W        W93253  14.561  39.493  11.507
20928W        W93254   5.120  33.836  11.075
20929W        W93255  15.234   3.872  13.930
20930W        W93256   4.667  13.166   4.675
20931W        W93257  34.993  43.989  13.086
20932W        W93258   1.719  37.845   3.788
20933W        W93259  12.183  13.017  11.442
20934W        W93260  39.916   5.305  13.649
20935W        W93261  44.381   4.945  11.511
20936W        W93262   6.136   8.830  10.170
20937W        W93263  24.668  35.050  14.021
20938W        W93264  12.276  10.507  12.990
20939W        W93265  16.410  37.540   1.134
20940W        W93266  37.600  35.157   0.931
20941W        W93267  34.194   8.591   0.270
20942W        W93268  17.574  12.163  14.978
20943W        W93269  20.525  42.449  11.601
20944W        W93270   6.444  43.109  10.762
20945W        W93271  39.719  11.367  12.561
20946W        W93272  26.653  38.445   0.504
20947W        W93273  18.062  39.721  11.492
20948W        W93274  30.554   1.392  14.386
20949W        W93275  15.418  32.442  10.350
20950W        W93276  43.259   5.535   2.656
20951W        W93277   5.186  14.371  12.476
20952W        W93278  19.532  28.941   1.708
20953W        W93279  23.917   2.332   0.659
20954W        W93280  27.226  41.708  14.615
20955W        W93281  19.983  19.193   3.786
20956W        W93282  41.190  44.640  11.132
20957W        W93283  17.299   1.228   1.302
20958W        W93284  11.345  30.033   4.606
20959W        W93285  41.246  28.530   0.376
20960W        W93286  19.311   6.616  10.621
20961W        W93287  44.521  11.069  12.062
20962W        W93288  17.572   8.110   3.347
20963W        W93289  36.646  13.753   3.363
20964W        W93290  18.279  19.332  14.341
20965W        W93291  12.630  10.229  11.811
20966W        W93292  43.748  29.676  12.653
20967W        W93293   9.667  28.923   3.059
20968W        W93294  11.518  24.650  10.723
20969W        W93295  19.182  36.547  11.333
20970W        W93296  24.603  39.026   1.387
20971W        W93297  19.114  43.814   1.752
20972W        W93298  19.332  17.203   4.893
20973W        W93299  22.790   4.033   4.521
20974W        W93300   0.476  36.019   3.298
20975W        W93301  42.827  21.612   1.807
20976W        W93302   5.232  33.341  11.779
20977W        W93303  39.491   9.785   1.295
20978W        W93304  22.557  16.793   5.504
20979W        W93305   7.795  20.636  12.377
20980W        W93306  21.351  19.887  10.712
20981W        W93307   0.323  41.802  10.722
20982W        W93308  12.621  44.460   3.864
20983W        W93309  18.304  16.872   2.080
20984W        W93310  30.450   6.014  11.207
20985W        W93311  37.554  16.697   0.520
20986W        W93312  30.012  32.046   1.382
20987W        W93313  18.661  43.401   2.142
20988W        W93314  15.104  42.767   0.403
20989W        W93315  11.610  41.376   1.373
20990W        W93316  23.054   0.474   2.726
20991W        W93317  25.538  17.201  13.027
20992W        W93318  11.258  31.514  11.391
20993W        W93319   5.833  27.026  13.146
20994W        W93320  40.818  41.823  13.788
20995W        W93321  15.718  40.518   4.117
20996W        W93322  25.083   5.790  14.739
20997W        W93323   8.298  26.941   2.209
20998W        W93324  26.717  41.284  11.884
20999W        W93325  40.864   0.716   3.630
21000W        W93326  24.397   2.325  14.272
21001W        W93327  44.687  24.936  12.039
21002W        W93328  28.844  42.370   1.352
21003W        W93329  11.816  31.497   2.205
21004W        W93330   6.550  12.683   0.797
21005W        W93331  38.378  38.130  10.970
21006W        W93332  27.160  38.045  14.604
21007W        W93333  23.048  15.281   1.185
21008W        W93334  26.813  10.600   0.800
21009W        W93335  30.607  21.917   0.962
21010W        W93336   9.710   6.628  10.793
21011W        W93337   1.244  44.812   0.449
21012W        W93338  11.274  28.765   4.064
21013W        W93339  39.311   4.797   1.235
21014W        W93340   2.285  14.716   5.063
21015W        W93341  24.258  36.935   4.679
21016W        W93342  26.644  11.218   2.710
21017W        W93343   5.312  15.857  12.695
21018W        W93344  39.844  32.108  14.956
21019W        W93345  26.457  18.764  14.923
21020W        W93346  44.402  43.104   2.862
21021W        W93347  31.701  27.574  14.941
21022W        W93348  28.528  34.198  13.999
21023W        W93349  34.928  22.767   3.655
21024W        W93350   9.312  33.625   3.331
21025W        W93351  42.505  22.087   4.642
21026W        W93352   3.453  42.318  13.328
21027W        W93353  42.313   8.896   2.385
21028W        W93354  31.029  12.721  14.501
21029W        W93355  39.995  36.562  12.039
21030W        W93356  44.280   8.160   4.460
21031W        W93357  22.516   1.791   3.130
21032W        W93358  10.631  24.184  11.083
21033W        W93359  37.807  10.776   0.797
21034W        W93360   6.749  28.293  14.324
21035W        W93361   7.845   2.224   3.163
21036W        W93362  15.291  18.611  11.273
21037W        W93363  36.528  27.792   0.386
21038W        W93364  37.026  17.584   4.142
21039W        W93365   7.770  34.880   5.014
21040W        W93366  36.068  34.102  14.289
21041W        W93367  42.705   3.891  10.427
21042W        W93368  16.077  18.671   4.910
21043W        W93369  20.797   5.819   1.413
21044W        W93370  37.136  24.048  13.383
21045W        W93371  40.331   7.436  13.829
21046W        W93372   3.472  32.531   3.761
21047W        W93373  27.370  10.187  11.016
21048W        W93374  39.975  15.712   2.594
21049W        W93375  34.110  23.281   3.534
21050W        W93376   8.854   9.049   5.018
21051W        W93377  12.242  30.841  12.581
21052W        W93378  40.472  31.154   2.280
21053W        W93379  22.332  23.499  10.737
21054W        W93380  18.648  20.076  11.161
21055W        W93381  22.267  33.068   5.105
21056W        W93382  34.583   1.208  13.588
21057W        W93383  41.817  10.404  14.139
21058W        W93384  35.536   4.873  10.699
21059W        W93385  18.589  25.565  13.833
21060W        W93386  29.403   7.864  11.113
21061W        W93387  18.742  21.103  13.375
21062W        W93388  19.779  35.143   1.346
21063W        W93389   2.601  23.704   1.804
21064W        W93390  32.802   5.650  12.413
21065W        W93391  31.794  44.737  14.855
21066W        W93392  30.965   5.983   4.670
21067W        W93393  12.319   0.819  14.929
21068W        W93394   0.781   1.747  11.089
21069W        W93395  27.053   9.195  14.046
21070W        W93396   4.462  23.310   1.847
21071W        W93397  26.221   7.720   3.223
21072W        W93398  40.454  39.570  12.131
21073W        W93399  13.745  18.467  11.891
21074W        W93400  17.782  29.063  13.439
21075W        W93401   6.018  11.770  13.799
21076W        W93402  13.873  24.749  10.227
21077W        W93403  33.439  20.182  13.883
21078W        W93404  27.695  34.553   0.916
21079W        W93405   7.538  36.152  10.666
21080W        W93406  34.946   1.966  14.867
21081W        W93407  27.041  42.764  13.948
21082W        W93408   1.468  34.610  14.436
21083W        W93409  36.091   5.325   1.735
21084W        W93410  24.570  26.793   4.458
21085W        W93411  10.622  23.705  14.087
21086W        W93412  16.311   8.933  13.927
21087W        W93413   3.233   6.280  13.856
21088W        W93414  35.017  43.501   2.783
21089W        W93415  43.323   6.910   0.233
21090W        W93416   7.947  22.185   4.170
21091W        W93417  24.020   0.753   0.375
21092W        W93418  16.785  25.392  14.745
21093W        W93419  15.664  29.909   0.764
21094W        W93420  36.358  12.128   0.650
21095W        W93421  34.567  23.364  13.908
21096W        W93422  29.666  44.577  13.876
21097W        W93423   2.253  28.940  11.933
21098W        W93424  14.033  19.514   0.032
21099W        W93425  25.121  16.682   4.043
21100W        W93426  25.067  32.498   0.619
21101W        W93427  23.011   7.648   0.797
21102W        W93428  44.383   0.838  12.190
21103W        W93429  40.330   4.696  11.937
21104W        W93430   8.788  17.115   1.848
21105W        W93431  14.021  38.565   4.171
21106W        W93432  21.208  11.854  11.441
21107W        W93433   1.656  24.821  14.366
21108W        W93434   3.845  43.319  13.121
21109W        W93435  23.297   6.027  11.529
21110W        W93436  25.583  17.587   0.651
21111W        W93437  28.391  17.085   3.234
21112W        W93438   2.930  31.713   2.612
21113W        W93439  28.440  37.020   0.621
21114W        W93440  14.538  20.568  11.405
21115W        W93441   9.727  17.730   3.871
21116W        W93442  33.422   9.309   2.280
21117W        W93443  22.069   6.955   2.676
21118W        W93444  26.121  26.109   3.687
21119W        W93445  39.014   6.177   0.960
21120W        W93446   5.991  31.984  14.414
21121W        W93447   9.695  33.778  12.446
21122W        W93448  18.531   4.237  11.092
21123W        W93449  22.593  28.528   3.388
21124W        W93450  11.090   5.106   0.002
21125W        W93451  12.552   0.202   4.363
21126W        W93452   5.780  10.818   2.114
21127W        W93453  39.080  28.002   1.915
21128W        W93454  20.128  15.599  13.312
21129W        W93455  21.022  14.170   4.258
21130W        W93456  30.424   7.810  11.318
21131W        W93457  21.066  28.002  13.028
21132W        W93458  42.005  17.133  14.381
21133W        W93459  25.523  41.098  12.474
21134W        W93460  30.913  40.308   1.901
21135W        W93461  44.223  36.077  12.994
21136W        W93462  14.076  38.387   0.943
21137W        W93463  41.331   0.669   1.873
21138W        W93464  43.040   2.905  10.698
21139W        W93465  22.420   6.386   4.124
21140W        W93466  24.284  43.470   1.787
21141W        W93467  36.864   3.518   2.290
21142W        W93468   7.255   4.189  13.804
21143W        W93469  32.073   0.640  14.542
21144W        W93470  16.681   4.989  13.007
21145W        W93471  20.091  27.946  11.232
21146W        W93472  32.086  42.409  12.113
21147W        W93473  41.894  11.705   1.151
21148W        W93474  28.894  37.405  13.024
21149W        W93475  19.075   5.314   3.363
21150W        W93476   2.967   8.738   2.713
21151W        W93477  10.286  18.959   3.349
21152W        W93478   0.112  42.790  13.262
21153W        W93479   6.229  25.097   0.697
21154W        W93480  13.825   1.947   4.542
21155W        W93481  16.351   7.118   4.975
21156W        W93482  10.353   4.962   3.206
21157W        W93483  10.609  43.388  11.146
21158W        W93484  15.698  12.131   4.219
21159W        W93485   4.600  16.427  12.865
21160W        W93486  44.819  18.459   1.161
21161W        W93487  29.966  26.880  10.666
21162W        W93488   4.845  38.268   2.742
21163W        W93489  13.020   3.279   2.176
21164W        W93490  22.594   6.971   0.243
21165W        W93491  44.889  25.734  13.884
21166W        W93492  44.168   1.768   0.927
21167W        W93493  35.765  32.671   0.802
21168W        W93494  40.481  17.741   4.599
21169W        W93495  43.470  29.229   1.955
21170W        W93496  28.221  17.256   4.598
21171W        W93497   5.026   3.324   3.168
21172W        W93498   1.272  21.609   1.080
21173W        W93499  34.092  43.997  12.517
21174W        W93500   3.403   2.693   3.292
21175W        W93501  33.975  38.971   2.174
21176W        W93502  10.288  12.224  12.058
21177W        W93503  27.413  37.820   3.115
21178W        W93504  19.743  14.256  12.113
21179W        W93505  14.293  36.371  14.808
21180W        W93506  27.307  42.191   1.902
21181W        W93507  22.519  38.642  10.706
21182W        W93508   3.032  37.000  11.840
21183W        W93509  19.350  19.871  11.935
21184W        W93510  13.538  43.262   2.089
21185W        W93511  33.126  10.449   1.852
21186W        W93512  28.037  30.253   3.206
21187W        W93513  12.599  27.273  13.093
21188W        W93514  21.684  30.319   0.945
21189W        W93515  43.368   5.136   1.753
21190W        W93516  18.566  38.492  12.820
21191W        W93517  30.073  24.917  12.490
21192W        W93518   7.806  20.108   3.115
21193W        W93519  41.270   3.350  14.905
21194W        W93520  34.415   3.806   4.503
21195W        W93521  10.355  33.028   0.339
21196W        W93522  24.704  14.121  12.100
21197W        W93523  12.915  11.404  11.951
21198W        W93524   1.470  40.923  13.557
21199W        W93525  13.248  29.222   1.011
21200W        W93526  17.655  39.850  14.221
21201W        W93527  21.259  21.663  11.207
21202W        W93528  44.804   6.761  11.644
21203W        W93529  17.076  14.300   3.791
21204W        W93530  14.202  36.642   5.427
21205W        W93531  37.543  39.546   1.254
21206W        W93532  17.342  15.672   4.446
21207W        W93533  37.999  36.080   2.770
21208W        W93534  40.042  15.443  14.679
21209W        W93535  18.863  28.672  13.862
21210W        W93536  36.459   5.775  10.638
21211W        W93537  35.511   2.420   3.192
21212W        W93538  33.508  14.472   3.117
21213W        W93539  19.826   3.862  12.904
21214W        W93540  33.965  17.436  12.593
21215W        W93541  40.481  10.773   2.271
21216W        W93542  20.319  20.687   2.272
21217W        W93543  32.026  41.489  14.285
21218W        W93544   6.925  33.533   4.227
21219W        W93545  36.991  14.039  13.543
21220W        W93546  14.110   2.442  13.805
21221W        W93547  37.733  12.190   0.790
21222W        W93548   3.705  35.494  13.510
21223W        W93549  27.259   1.369   0.443
21224W        W93550  34.499   6.531   3.446
21225W        W93551  11.125  43.342  11.077
21226W        W93552   3.505  41.432  11.381
21227W        W93553  12.729  24.246   4.103
21228W        W93554  14.082  33.966  10.552
21229W        W93555  14.836  38.944  12.391
21230W        W93556   4.739  17.144  14.837
21231W        W93557  38.304   3.048   1.663
21232W        W93558  30.924   3.976  10.718
21233W        W93559  35.611   0.459   4.272
21234W        W93560  27.985   1.829   1.220
21235W        W93561   5.653  27.639  11.327
21236W        W93562   9.710  41.361  13.545
21237W        W93563  27.122  24.087  13.964
21238W        W93564   0.445  25.226   2.840
21239W        W93565  25.486  26.741   4.502
21240W        W93566   3.057  21.343   2.763
21241W        W93567  21.654  18.207  10.356
21242W        W93568  42.027  13.785  14.453
21243W        W93569  11.611   2.504  13.756
21244W        W93570  11.299  14.038   1.026
21245W        W93571  19.314  32.475   2.287
21246W        W93572  25.205  17.233   5.212
21247W        W93573  44.722  14.511  12.093
21248W        W93574  29.280   0.790   4.688
21249W        W93575   2.264  21.625   0.663
21250W        W93576  24.719   1.361   2.264
21251W        W93577  31.993  17.712  10.872
21252W        W93578  24.167  13.248  12.415
21253W        W93579   9.966  34.887  10.709
21254W        W93580  42.291   6.184  14.017
21255W        W93581  38.526  19.914  11.975
21256W        W93582  10.752  28.273  11.118
21257W        W93583  19.211  32.346   4.150
21258W        W93584   8.684  36.326  14.846
21259W        W93585  38.424  28.948   2.801
21260W        W93586   3.905  12.249  13.024
21261W        W93587   8.343  32.957   3.384
21262W        W93588   0.823  10.809  12.404
21263W        W93589  25.189  24.067   3.192
21264W        W93590  27.000  21.791  10.411
21265W        W93591  20.456  36.400  10.962
21266W        W93592   9.346  39.299   1.167
21267W        W93593  12.177  12.323  12.978
21268W        W93594  28.077  15.401  10.771
21269W        W93595   0.081  12.273   4.713
21270W        W93596  43.688  22.548   2.774
21271W        W93597   9.449  33.142  13.590
21272W        W93598  12.357  20.703  13.831
21273W        W93599  35.583  44.945   0.273
21274W        W93600  17.566   3.497  11.488
21275W        W93601  18.588  32.960  14.581
21276W        W93602  28.561  29.276  13.427
21277W        W93603   9.757  24.661  14.440
21278W        W93604  13.246  29.992   3.912
21279W        W93605  30.965  26.979   0.946
21280W        W93606   9.829   8.213   4.577
21281W        W93607  30.081  28.544   1.236
21282W        W93608  38.668  36.039   4.818
21283W        W93609  29.082  23.087  11.525
21284W        W93610  33.621   0.059   1.057
21285W        W93611   3.536   9.697   0.376
21286W        W93612  11.809   6.810   3.917
21287W        W93613   1.044  21.088   2.680
21288W        W93614  42.142  14.178   2.925
21289W        W93615  38.081  15.960   0.239
21290W        W93616   8.264   4.222  11.944
21291W        W93617  44.428  15.340   0.355
21292W        W93618  39.541  12.130   2.626
21293W        W93619   6.945  11.674   1.585
21294W        W93620  24.571  32.657  11.571
21295W        W93621   1.976  33.546   0.695
21296W        W93622   9.646  31.223  13.477
21297W        W93623   5.299  17.738  12.511
21298W        W93624  30.638  34.949   1.044
21299W        W93625  16.212   6.987   3.623
21300W        W93626  23.610  33.748   1.474
21301W        W93627  36.614  31.940   2.259
21302W        W93628  16.054  30.124  14.504
21303W        W93629  35.814  24.090  12.892
21304W        W93630  12.862  27.032   3.061
21305W        W93631  41.131  17.198   0.011
21306W        W93632  43.582  41.017   2.691
21307W        W93633  22.560   5.724   0.450
21308W        W93634  19.633  22.466   2.301
21309W        W93635  25.477  41.893  13.334
21310W        W93636  42.081  28.970   3.578
21311W        W93637   7.954  35.871   0.554
21312W        W93638  11.960  42.808   3.717
21313W        W93639  12.783   0.812  10.607
21314W        W93640  38.057  40.595   2.734
21315W        W93641   2.514  24.499   2.273
21316W        W93642  30.471   9.196  11.607
21317W        W93643  27.993  21.956   2.426
21318W        W93644  22.246   9.349  13.004
21319W        W93645  24.913   5.503   1.700
21320W        W93646   7.992  17.632  12.964
21321W        W93647   2.711  21.552   0.923
21322W        W93648  36.643  12.272  11.030
21323W        W93649  19.263  40.894   2.723
21324W        W93650  33.573  31.006  13.526
21325W        W93651  26.982  30.224   0.283
21326W        W93652  34.937  16.810  12.481
21327W        W93653   6.623  42.194   1.640
21328W        W93654  33.266  16.145   2.681
21329W        W93655  39.471  37.665   3.033
21330W        W93656  31.088  26.930  13.643
21331W        W93657  35.942  21.473  13.404
21332W        W93658  17.889  14.623  11.070
21333W        W93659  42.448   3.436   4.068
21334W        W93660  11.618  16.558  14.761
21335W        W93661  39.123  43.349   0.249
21336W        W93662  43.563  17.280  12.999
21337W        W93663  31.639   9.730  12.365
21338W        W93664  39.464  13.398   2.917
21339W        W93665   4.947  32.431   1.162
21340W        W93666  35.564  10.302   2.729
21341W        W93667  18.015  37.681  11.884
21342W        W93668  16.706  22.881   1.779
21343W        W93669  17.203  15.351   2.300
21344W        W93670  15.321  44.430  14.825
21345W        W93671   2.210   3.254  11.519
21346W        W93672   6.364  11.150  12.048
21347W        W93673  34.859   5.869  11.111
21348W        W93674  28.564  35.825   3.514
21349W        W93675  19.042  25.063   2.404
21350W        W93676  14.618  30.324  14.687
21351W        W93677   3.967  18.034  11.255
21352W        W93678   9.729  18.885  11.737
21353W        W93679   1.242  20.193   3.625
21354W        W93680  43.205  13.115  10.726
21355W        W93681  44.910  26.698  14.100
21356W        W93682  10.895  37.088  13.311
21357W        W93683  36.551  16.768  10.717
21358W        W93684  37.394  34.947  10.742
21359W        W93685  36.565  28.955   3.214
21360W        W93686  18.693  43.540   3.717
21361W        W93687   5.400  16.622  12.819
21362W        W93688  30.634   4.148   4.967
21363W        W93689  32.073  10.537   2.395
21364W        W93690   0.326  38.946   1.868
21365W        W93691  38.578  25.036  14.425
21366W        W93692  42.824  43.589   2.189
21367W        W93693  43.908  30.534   3.689
21368W        W93694  19.224  32.821   0.351
21369W        W93695  27.590  15.724   5.126
21370W        W93696  38.515   6.133   0.174
21371W        W93697  24.551  16.133   0.019
21372W        W93698  14.786  33.365   0.321
21373W        W93699  29.042  33.402   4.332
21374W        W93700  31.570  18.123  10.049
21375W        W93701  36.598  17.041   0.474
21376W        W93702  33.155  40.737  14.898
21377W        W93703  35.973  31.624  11.129
21378W        W93704  11.854  30.031  14.812
21379W        W93705  17.158  25.178   3.730
21380W        W93706   6.291  28.285  11.471
21381W        W93707  20.599   0.513  12.566
21382W        W93708  29.538  34.794  14.445
21383W        W93709   7.914   1.695  13.387
21384W        W93710  12.083   0.467  11.461
21385W        W93711  36.381  39.904  12.028
21386W        W93712   6.788  24.595  12.850
21387W        W93713  29.541  36.675  11.967
21388W        W93714  20.468  34.170  13.916
21389W        W93715  30.990   2.910   3.305
21390W        W93716  27.450  14.706   0.438
21391W        W93717  14.845  10.283   4.753
21392W        W93718  35.918  40.290   0.053
21393W        W93719  41.394  27.944   2.928
21394W        W93720  43.996   4.227  10.604
21395W        W93721   1.958  17.170   1.306
21396W        W93722   9.167  36.895  12.490
21397W        W93723  41.543  16.069   2.245
21398W        W93724  37.336   1.915  11.914
21399W        W93725  35.665   7.439  12.888
21400W        W93726   6.982  33.389   3.717
21401W        W93727   5.153   1.301  13.310
21402W        W93728  33.145  25.594   1.723
21403W        W93729  12.771   6.940  11.198
21404W        W93730  29.174  39.041   2.170
21405W        W93731  31.590  26.452   3.625
21406W        W93732   2.347  20.111   1.876
21407W        W93733   1.355  20.290  11.706
21408W        W93734   8.724  13.395  11.996
21409W        W93735  29.218  41.339  10.555
21410W        W93736  43.978  19.602  14.259
21411W        W93737  16.042  32.667   3.742
21412W        W93738  30.862  31.097  13.567
21413W        W93739  20.793  28.459   3.748
21414W        W93740  16.977  44.754  10.480
21415W        W93741  12.165  30.340  12.681
21416W        W93742  44.173  34.265  14.842
21417W        W93743  26.079   8.020  10.952
21418W        W93744  42.680  29.589   3.166
21419W        W93745  29.570  35.216  10.566
21420W        W93746  23.038  17.198   9.661
21421W        W93747  12.752   9.951   4.272
21422W        W93748   4.887  36.169   0.472
21423W        W93749   7.838  39.465  14.371
21424W        W93750  14.365  34.678   0.542
21425W        W93751  33.112  19.537   3.710
21426W        W93752  12.376   3.684   0.346
21427W        W93753  16.124  28.170   1.210
21428W        W93754  34.096  29.902   2.891
21429W        W93755  41.059  31.415   0.290
21430W        W93756   6.054   1.664  12.053
21431W        W93757  18.771  43.347  13.385
21432W        W93758  44.497   8.203   3.637
21433W        W93759  21.293  11.183   1.226
21434W        W93760  24.779  41.814  13.047
21435W        W93761  35.975  18.579  12.112
21436W        W93762   2.845  13.346  13.785
21437W        W93763  16.251  30.607   1.214
21438W        W93764   1.385   8.330   2.098
21439W        W93765  10.414  20.572   1.619
21440W        W93766  40.955  15.511  13.727
21441W        W93767  37.325   1.861   2.251
21442W        W93768  36.977   2.849   3.716
21443W        W93769  36.970  44.797  11.181
21444W        W93770  19.212  38.961  13.454
21445W        W93771  30.217  34.064  11.643
21446W        W93772  36.069  35.667  14.030
21447W        W93773  42.323  35.108   2.805
21448W        W93774   0.072  17.742  11.659
21449W        W93775  16.353  18.146  11.080
21450W        W93776  22.746  18.403   4.073
21451W        W93777   7.275  37.624  10.460
21452W        W93778  22.267  38.358  13.875
21453W        W93779  25.416  24.783  13.085
21454W        W93780  10.391  26.193   0.394
21455W        W93781  36.678  15.816  12.051
21456W        W93782   9.149  33.818  10.209
21457W        W93783   5.066  36.741  13.362
21458W        W93784  32.964  34.340  11.223
21459W        W93785  24.877  16.308  10.675
21460W        W93786  18.848  24.553   2.529
21461W        W93787  19.247  16.607   4.178
21462W        W93788  14.339   0.338  11.526
21463W        W93789  30.002   9.187  12.947
21464W        W93790  32.390  26.642   0.488
21465W        W93791  16.069  27.921  12.218
21466W        W93792  16.220  18.673  14.467
21467W        W93793  16.828  17.041   0.260
21468W        W93794  33.516  26.804  14.451
21469W        W93795  34.128  33.887   1.832
21470W        W93796  31.518  38.173  14.819
21471W        W93797   8.670   4.643   2.331
21472W        W93798  29.906  11.525  11.931
21473W        W93799   1.806  20.702   3.763
21474W        W93800  41.849   6.885   4.704
21475W        W93801   6.216  13.373  10.367
21476W        W93802  20.616  31.670  12.045
21477W        W93803  22.196   4.858   1.455
21478W        W93804  12.313  11.264  10.757
21479W        W93805   4.874  10.537   1.573
21480W        W93806   3.800  30.581  12.151
21481W        W93807   7.716  21.533   4.340
21482W        W93808   8.382  24.958   3.955
21483W        W93809  10.923  36.566  13.335
21484W        W93810  14.663   1.111   2.114
21485W        W93811  24.902  24.230   3.618
21486W        W93812   0.732  39.725   1.742
21487W        W93813  10.145  17.494  10.710
21488W        W93814   7.337   8.759   0.722
21489W        W93815  39.058   0.540  11.621
21490W        W93816  12.590  18.063   0.532
21491W        W93817   4.279  29.641  11.559
21492W        W93818  44.165  20.160   1.479
21493W        W93819  41.799  26.851   4.582
21494W        W93820  34.458  13.973   1.220
21495W        W93821  24.806  18.268   0.735
21496W        W93822  38.566  13.214   0.219
21497W        W93823   8.877  16.188  10.735
21498W        W93824  19.552  40.408  12.570
21499W        W93825   5.520   5.383   2.815
21500W        W93826  17.094   4.815   0.943
21501W        W93827  43.493  37.566   3.302
21502W        W93828  37.971  24.436   2.713
21503W        W93829  35.326  34.041   4.620
21504W        W93830  19.116   3.311  11.284
21505W        W93831  26.889   7.831   3.674
21506W        W93832  33.908  36.133   9.845
21507W        W93833  29.570   1.027  14.901
21508W        W93834   5.941  12.174   1.026
21509W        W93835  18.507  16.468  12.879
21510W        W93836  30.812  44.624   3.843
21511W        W93837  21.536  37.504   2.208
21512W        W93838  41.363  16.745  12.366
21513W        W93839  31.035  29.657  11.196
21514W        W93840  37.011  35.541   4.563
21515W        W93841  29.031  17.207   4.151
21516W        W93842   4.889  39.830  11.643
21517W        W93843  11.303  32.197  13.156
21518W        W93844  13.289  37.125   2.107
21519W        W93845  10.626  32.492   1.914
21520W        W93846  21.539  36.892   2.723
21521W        W93847   5.412  33.984  12.633
21522W        W93848  10.703  27.556   4.625
21523W        W93849  31.951  13.168  14.857
21524W        W93850  44.230  37.419   2.419
21525W        W93851  31.236  25.549  12.848
21526W        W93852  33.608   7.161  12.880
21527W        W93853  34.969  28.767   1.393
21528W        W93854  40.455  12.993  11.905
21529W        W93855   1.975  22.201   2.163
21530W        W93856  31.812  33.498  11.958
21531W        W93857  32.131  25.747   2.504
21532W        W93858  38.356  43.488   2.074
21533W        W93859   4.439  29.621   0.186
21534W        W93860  20.306  43.366   1.442
21535W        W93861  20.118   5.396  13.501
21536W        W93862  29.876   1.767   1.139
21537W        W93863  38.537  17.446  13.081
21538W        W93864  19.039  12.933   2.266
21539W        W93865  27.587  34.011  13.501
21540W        W93866  28.788  28.751   0.514
21541W        W93867  39.618  44.438   2.790
21542W        W93868   3.447  11.893  10.694
21543W        W93869   1.293  38.451   2.442
21544W        W93870   9.114  12.343   4.184
21545W        W93871  39.503  10.843   2.214
21546W        W93872  39.012  19.244   0.957
21547W        W93873  14.196  31.374   3.998
21548W        W93874  25.501  33.358   1.850
21549W        W93875  28.981   1.889  14.073
21550W        W93876   8.864   8.664   3.750
21551W        W93877   2.514  14.218  12.795
21552W        W93878  25.377   5.438  13.434
21553W        W93879  23.702  35.400  10.892
21554W        W93880  34.014   1.027  10.619
21555W        W93881  10.889  19.071   4.599
21556W        W93882  20.252  27.611   1.423
21557W        W93883  14.798  44.035  10.661
21558W        W93884  15.747  25.087  11.951
21559W        W93885   7.673  13.414  11.133
21560W        W93886   7.872  20.618   2.937
21561W        W93887  24.743  35.640   2.817
21562W        W93888  43.474  14.272  14.095
21563W        W93889   1.007  27.712  13.946
21564W        W93890  42.228  25.159   2.218
21565W        W93891  40.924  34.379   0.871
21566W        W93892   2.399   2.429   2.298
21567W        W93893  28.421   3.506  12.383
21568W        W93894  22.575  29.938   3.897
21569W        W93895   2.414  18.643   0.835
21570W        W93896  23.633  26.689   0.999
21571W        W93897  33.874  18.516  10.698
21572W        W93898   3.163  32.115   3.743
21573W        W93899   0.831   1.367  12.470
21574W        W93900  36.768  42.811   2.728
21575W        W93901   4.439   3.674   2.224
21576W        W93902  13.607  15.238   3.683
21577W        W93903  30.730  18.089  14.518
21578W        W93904  43.940  41.937   0.007
21579W        W93905   0.271  44.893  13.494
21580W        W93906  43.849  28.694  11.972
21581W        W93907   4.851  31.349  14.971
21582W        W93908  17.421   8.239   5.003
21583W        W93909  12.695  21.651   0.268
21584W        W93910   8.613  24.177  12.551
21585W        W93911  30.593   0.318   0.337
21586W        W93912  39.901  14.578   4.165
21587W        W93913  33.950  22.668  11.291
21588W        W93914   9.584  34.349  11.486
21589W        W93915   8.463  38.861  14.457
21590W        W93916  34.198  33.369   1.840
21591W        W93917   8.326   6.700  14.959
21592W        W93918   1.238  19.269   3.717
21593W        W93919   9.826  27.162   1.592
21594W        W93920  17.751  15.042   3.804
21595W        W93921   4.380  34.928  13.828
21596W        W93922  40.396  38.772   2.814
21597W        W93923   6.420  41.094   0.239
21598W        W93924  21.178  44.891   0.750
21599W        W93925  13.351  41.331  14.840
21600W        W93926  22.529  10.218  11.910
21601W        W93927  18.256   5.955  12.147
21602W        W93928   5.666   2.539   2.753
21603W        W93929  15.639   5.491  12.855
21604W        W93930  24.476  36.905   1.856
21605W        W93931  10.758  30.611  13.775
21606W        W93932  23.257  34.997  12.972
21607W        W93933   9.741  10.669   3.144
21608W        W93934   3.425  23.745   1.929
21609W        W93935  16.199  24.295  13.361
21610W        W93936  24.200  11.321   4.823
21611W        W93937  30.084  44.866  14.814
21612W        W93938  33.413  32.665  10.994
21613W        W93939   9.421  22.789  11.093
21614W        W93940  17.868  22.001   0.839
21615W        W93941  26.088  12.057   2.243
21616W        W93942  29.632   7.652  14.890
21617W        W93943  42.177   8.714   4.727
21618W        W93944  14.234  16.546   1.977
21619W        W93945  21.582   1.912  11.201
21620W        W93946  19.041  12.640  10.803
21621W        W93947  27.019  31.965   2.239
21622W        W93948  42.878  44.457   0.769
21623W        W93949  29.084  13.042   1.662
21624W        W93950  33.491  32.673  13.508
21625W        W93951  43.463  44.539   3.787
21626W        W93952  12.951  23.281  13.771
21627W        W93953  40.252  18.139  12.946
21628W        W93954  16.811  26.104  12.747
21629W        W93955  23.631   7.156   1.982
21630W        W93956   0.945  23.028  11.227
21631W        W93957  21.714  41.949  12.560
21632W        W93958  21.936  16.537  10.747
21633W        W93959  30.917   3.758   3.839
21634W        W93960  14.830  22.830  10.817
21635W        W93961  20.541  26.195  14.382
21636W        W93962  15.812   9.341  12.886
21637W        W93963  33.067   2.000  10.893
21638W        W93964  10.893   8.739  14.127
21639W        W93965   1.355  11.207   9.774
21640W        W93966   3.245  44.778   2.900
21641W        W93967  19.248   2.433  10.794
21642W        W93968  26.105  33.852   2.950
21643W        W93969  14.735   7.952   1.856
21644W        W93970  43.868   4.428  12.887
21645W        W93971  29.449   3.489  13.337
21646W        W93972  11.322  23.153  10.559
21647W        W93973   6.671   4.383  11.218
21648W        W93974  24.810  36.483  14.891
21649W        W93975   5.760  39.490  13.584
21650W        W93976  23.407  34.279   2.800
21651W        W93977   3.741   9.327  13.504
21652W        W93978  11.189  27.681   4.514
21653W        W93979   5.466   9.778  10.672
21654W        W93980  32.085  20.535   3.169
21655W        W93981  22.062  18.702  13.023
21656W        W93982   9.230  15.603  10.818
21657W        W93983   8.379  31.224   3.672
21658W        W93984  28.966  27.733   1.723
21659W        W93985  28.688  43.144  10.833
21660W        W93986  39.817  19.964   4.928
21661W        W93987  35.051  23.706   0.863
21662W        W93988  29.644  41.550  14.016
21663W        W93989  11.420  26.615   1.725
21664W        W93990  25.994  24.338   2.273
21665W        W93991  43.188   5.772   4.450
21666W        W93992  32.318  39.500  14.055
21667W        W93993  14.872  39.980  10.188
21668W        W93994  30.141   5.190  11.973
21669W        W93995  12.736  14.271  11.512
21670W        W93996  21.480   2.215  13.430
21671W        W93997  36.548  15.141   4.118
21672W        W93998  37.484  35.409   1.407
21673W        W93999  36.962  39.892   2.786
21674W        W94000   8.882  20.491  12.993
21675W        W94001  22.099   5.724  14.772
21676W        W94002  30.639   3.967   2.467
21677W        W94003  24.019  27.964   0.743
21678W        W94004   4.070   3.792  15.000
21679W        W94005  28.561  33.564  10.368
21680W        W94006  32.954   8.908   0.782
21681W        W94007  12.920  26.133  10.701
21682W        W94008  23.898  11.569   4.444
21683W        W94009  11.918  30.147   3.784
21684W        W94010  12.327  22.670   4.462
21685W        W94011  18.175  33.158  12.897
21686W        W94012  24.968  21.644   3.612
21687W        W94013  20.710   7.886  12.945
21688W        W94014  26.136   4.017  13.983
21689W        W94015  22.506  33.104   4.577
21690W        W94016   1.712  43.970  13.913
21691W        W94017  23.922  18.530  12.390
21692W        W94018  18.305   6.875  13.404
21693W        W94019  23.663  16.284  11.158
21694W        W94020  40.495   8.818   5.044
21695W        W94021  24.496  18.802  11.524
21696W        W94022   8.904  36.337  12.080
21697W        W94023  33.051  43.470  11.630
21698W        W94024  11.332   2.785  12.806
21699W        W94025  20.682  27.890   2.310
21700W        W94026  44.850  17.898  11.214
21701W        W94027  12.072  37.232  12.735
21702W        W94028  11.774  16.760   4.633
21703W        W94029  38.974  21.954   0.975
21704W        W94030  36.885  33.749  14.839
21705W        W94031  26.074  22.273  11.428
21706W        W94032  14.560  39.904  11.188
21707W        W94033  29.510  38.339   1.891
21708W        W94034  34.189  44.377  11.949
21709W        W94035  30.236  11.340  11.544
21710W        W94036  30.074  15.635   1.917
21711W        W94037  24.001  10.614  11.214
21712W        W94038  26.488  23.734  13.381
21713W        W94039   7.481  26.715   0.994
21714W        W94040  42.568   7.499  14.972
21715W        W94041  31.151   6.786   2.328
21716W        W94042  16.692  14.962   3.315
21717W        W94043  11.254  23.182  12.021
21718W        W94044   7.678  26.466  13.942
21719W        W94045  42.231   2.035   1.380
21720W        W94046  24.248  43.759  13.897
21721W        W94047  33.547  15.735   2.822
21722W        W94048  24.670  37.126   3.650
21723W        W94049  39.305  11.235   1.954
21724W        W94050  38.557  27.473  14.485
21725W        W94051  13.280  25.485  12.142
21726W        W94052  30.575  12.836   0.903
21727W        W94053  17.317  23.681   2.401
21728W        W94054  37.301  33.452  11.983
21729W        W94055   2.403  26.313  12.197
21730W        W94056  12.177  34.436  14.339
21731W        W94057  31.621  24.504   3.732
21732W        W94058  18.603  36.866   1.824
21733W        W94059  38.841   0.985   4.106
21734W        W94060  27.116   7.439  14.810
21735W        W94061  11.175  26.855   4.032
21736W        W94062  15.529  43.997   2.045
21737W        W94063  43.048  36.755  11.514
21738W        W94064  20.561  27.659   4.132
21739W        W94065  16.590   7.667   0.367
21740W        W94066  24.661  33.999   4.064
21741W        W94067  19.333   9.284   4.914
21742W        W94068  35.791  38.740  13.371
21743W        W94069  36.759  37.954  11.057
21744W        W94070  34.389  37.939  12.980
21745W        W94071  41.588  41.837   4.844
21746W        W94072  20.710  31.836  11.182
21747W        W94073  31.570  43.233  14.699
21748W        W94074  21.145  36.345   1.291
21749W        W94075   2.235  12.465   9.757
21750W        W94076  26.195  42.474   0.749
21751W        W94077  26.288  27.595  14.310
21752W        W94078  32.966  42.783  13.966
21753W        W94079  22.749  10.173   1.876
21754W        W94080  11.734   3.218   3.327
21755W        W94081  35.543  21.273  11.708
21756W        W94082  26.159  15.301  11.626
21757W        W94083   8.688  23.530  10.937
21758W        W94084  31.940  17.074  12.784
21759W        W94085  15.011  43.399  14.147
21760W        W94086  39.557  13.154  11.895
21761W        W94087  19.370   5.646  10.439
21762W        W94088  21.460  37.921   5.415
21763W        W94089  21.710  24.150   2.847
21764W        W94090  41.115  29.454   2.851
21765W        W94091  11.202  36.626  13.788
21766W        W94092   4.886  16.304   9.956
21767W        W94093  38.034  33.970  10.755
21768W        W94094  19.806  32.573   0.483
21769W        W94095  19.602  22.684  11.611
21770W        W94096   4.874  37.323   3.156
21771W        W94097  17.223  18.810  11.149
21772W        W94098  19.882  39.850  11.782
21773W        W94099  30.122  27.686  13.039
21774W        W94100  25.205  32.385  14.852
21775W        W94101   5.471  28.711  14.672
21776W        W94102  12.314  12.296   4.668
21777W        W94103   2.250  10.433   1.239
21778W        W94104   5.195  27.175   3.158
21779W        W94105  28.518  34.852   4.301
21780W        W94106  43.758  37.653   1.929
21781W        W94107  22.900  26.466  13.581
21782W        W94108   4.282  41.006  13.960
21783W        W94109  43.292  30.337  10.596
21784W        W94110  33.626   8.898  10.194
21785W        W94111  39.446  22.043  10.774
21786W        W94112   2.452  19.176  14.283
21787W        W94113  38.072   4.066  11.688
21788W        W94114  37.976  44.714   2.789
21789W        W94115  19.027  28.094  10.794
21790W        W94116  35.981  14.093  14.901
21791W        W94117   9.145  34.603   3.193
21792W        W94118   5.715  13.685  14.546
21793W        W94119  39.919  20.539  14.980
21794W        W94120  11.997  43.883  12.367
21795W        W94121  23.209  23.595   4.084
21796W        W94122  26.644  12.411  12.582
21797W        W94123  38.936   0.275   1.993
21798W        W94124  22.067   7.735   4.447
21799W        W94125  23.754  33.621   4.075
21800W        W94126  13.194   1.823   1.582
21801W        W94127   4.828   4.868   0.372
21802W        W94128  33.090  28.996   3.222
21803W        W94129  22.634  40.342   2.517
21804W        W94130  24.629  15.251  14.756
21805W        W94131  23.052   6.439  11.932
21806W        W94132  13.572  42.783   1.420
21807W        W94133  16.105  36.046  10.697
21808W        W94134  38.595  34.890  11.067
21809W        W94135  14.071   2.650  12.860
21810W        W94136  37.506   9.954   5.571
21811W        W94137  42.768  28.680  14.227
21812W        W94138  18.866  24.686  11.811
21813W        W94139  19.533  26.314   1.258
21814W        W94140  39.757  23.484   4.045
21815W        W94141  39.150  27.758   2.371
21816W        W94142  13.920  25.705   3.866
21817W        W94143   9.987  17.280  14.744
21818W        W94144  34.185  34.112  10.624
21819W        W94145  37.986   5.635   0.665
21820W        W94146  33.707  33.958  10.590
21821W        W94147   7.808  42.328   0.494
21822W        W94148   9.319  35.414  10.764
21823W        W94149  13.806  37.096   3.194
21824W        W94150  38.402  11.886   1.924
21825W        W94151  39.462  40.028   1.452
21826W        W94152  41.112  41.338  12.138
21827W        W94153   7.950   2.353   1.709
21828W        W94154   7.693  10.973  12.710
21829W        W94155  24.693   2.454  12.921
21830W        W94156  10.364  40.035  14.139
21831W        W94157   4.144   9.768   4.245
21832W        W94158  30.504   9.642  11.008
21833W        W94159  10.196   5.839   0.769
21834W        W94160  28.034   1.015   4.153
21835W        W94161  14.019   6.128   4.101
21836W        W94162  37.656  32.991   1.111
21837W        W94163   3.857  42.525   1.673
21838W        W94164  42.388  22.704  11.414
21839W        W94165  19.771  43.896   3.751
21840W        W94166  38.393  38.065  12.295
21841W        W94167   5.734  18.108  11.291
21842W        W94168  12.769  28.351  10.978
21843W        W94169  25.976  11.646   3.517
21844W        W94170  28.505  37.437  14.859
21845W        W94171   5.731   0.881   2.451
21846W        W94172  20.198   9.281  11.657
21847W        W94173   7.289  14.838   3.680
21848W        W94174  34.362  12.256   4.687
21849W        W94175  21.930  19.266   1.253
21850W        W94176  26.578  10.363   0.318
21851W        W94177  43.307  12.740  14.957
21852W        W94178  41.277  44.021   1.141
21853W        W94179  13.206   3.962   4.582
21854W        W94180  41.030   2.968  11.866
21855W        W94181   0.984  35.835  13.726
21856W        W94182  11.968  32.109  14.495
21857W        W94183  17.665  23.806   2.765
21858W        W94184  24.591  39.444   2.169
21859W        W94185   3.757  21.986   0.765
21860W        W94186  39.177  24.514  12.025
21861W        W94187  41.188  20.004  11.454
21862W        W94188   6.837  29.073  13.865
21863W        W94189  42.425  11.831   0.965
21864W        W94190  29.319  10.208  14.272
21865W        W94191   0.252   9.530  13.832
21866W        W94192   5.354  13.162  12.146
21867W        W94193  43.730  33.367   3.353
21868W        W94194  42.332   1.338   4.611
21869W        W94195  26.157  10.547  11.314
21870W        W94196  13.049   8.315  12.614
21871W        W94197  26.853   4.223  11.646
21872W        W94198  24.039   7.456  10.824
21873W        W94199  13.204  34.001  13.547
21874W        W94200   0.750  37.790   3.794
21875W        W94201  26.717  11.814  13.282
21876W        W94202  40.152  14.064  14.993
21877W        W94203   3.784  44.431  13.958
21878W        W94204  38.109  40.359   0.312
21879W        W94205  38.586  34.620   0.482
21880W        W94206  43.795  32.029  10.772
21881W        W94207  12.889  12.889   2.293
21882W        W94208  43.338  16.115   3.299
21883W        W94209  34.037  11.764  10.966
21884W        W94210  16.265  18.061   3.224
21885W        W94211  40.994  21.636   1.675
21886W        W94212  18.082  20.744   2.356
21887W        W94213  11.651  38.589   0.277
21888W        W94214   0.211  43.785  13.836
21889W        W94215  21.786  22.437   0.522
21890W        W94216  23.682  42.758   1.926
21891W        W94217  28.548  14.263   3.402
21892W        W94218  19.181  38.527   0.678
21893W        W94219  43.343   5.029   0.256
21894W        W94220  35.089  21.548   4.682
21895W        W94221  30.910  31.137   2.993
21896W        W94222   7.274  25.182  14.841
21897W        W94223  44.834  18.465  11.131
21898W        W94224  23.629  27.439   1.642
21899W        W94225  21.783   6.675   2.213
21900W        W94226   8.223  24.959   4.855
21901W        W94227  22.580  22.598  10.002
21902W        W94228  30.396  42.844  12.046
21903W        W94229   7.872  28.589  13.811
21904W        W94230   2.897  31.862  13.380
21905W        W94231  12.146   7.206   1.249
21906W        W94232  10.642  27.095   0.181
21907W        W94233  32.503  18.355  14.949
21908W        W94234  19.363  11.945   4.479
21909W        W94235  35.406  21.716   3.068
21910W        W94236   9.399  42.317   0.235
21911W        W94237   0.482  13.710  10.788
21912W        W94238  33.755  25.984   3.259
21913W        W94239  36.805   2.427   1.009
21914W        W94240   2.373  35.508  12.762
21915W        W94241   6.127  44.069  12.906
21916W        W94242  21.518  14.625  11.510
21917W        W94243  40.971  27.579  14.498
21918W        W94244  34.724  34.996   0.547
21919W        W94245  40.378   6.711  14.610
21920W        W94246  11.785  19.462   3.987
21921W        W94247  12.076  19.629  14.594
21922W        W94248  14.323   3.747   3.364
21923W        W94249  19.296  15.441  11.962
21924W        W94250  25.548  15.446   5.085
21925W        W94251  29.144   8.238  12.548
21926W        W94252  44.395  12.076  11.049
21927W        W94253   0.608   0.814   2.460
21928W        W94254  20.218  23.677  12.479
21929W        W94255  36.083  40.744  12.535
21930W        W94256  44.379  26.918   3.251
21931W        W94257   9.664  39.352  11.648
21932W        W94258  41.755  39.047  12.112
21933W        W94259  27.928   7.815   4.641
21934W        W94260  13.468  38.799  12.979
21935W        W94261  20.736  20.349   2.127
21936W        W94262  31.328   6.893  14.358
21937W        W94263   9.694  43.504  11.454
21938W        W94264  28.891  41.461   3.402
21939W        W94265  33.416   8.008   3.666
21940W        W94266  17.030  18.259   2.575
21941W        W94267  22.248  14.201  11.637
21942W        W94268  42.380  15.804   0.273
21943W        W94269  16.196  22.118   2.193
21944W        W94270  10.985  37.317   3.161
21945W        W94271   8.339  26.418   2.227
21946W        W94272   4.368  31.261  12.934
21947W        W94273  33.264  44.899  10.993
21948W        W94274  31.351  31.198   2.731
21949W        W94275  28.667  27.078  11.506
21950W        W94276  25.784  23.770  12.277
21951W        W94277  35.154  19.141  13.863
21952W        W94278  11.117  41.213   1.930
21953W        W94279  28.735  39.626  13.065
21954W        W94280  40.469  25.552  12.952
21955W        W94281  43.022  28.480  12.613
21956W        W94282  22.626   8.880   4.894
21957W        W94283  25.094  37.215   1.241
21958W        W94284   5.683  44.891   2.265
21959W        W94285  12.637  23.054   4.343
21960W        W94286  37.510  11.613   4.038
21961W        W94287  43.768  12.029   4.835
21962W        W94288  36.396   9.560   3.392
21963W        W94289  41.343  42.225   0.680
21964W        W94290  28.127  34.555   3.340
21965W        W94291   6.857  22.788   1.931
21966W        W94292  31.525  16.313  13.767
21967W        W94293  25.673   6.671  12.062
21968W        W94294  16.808  37.679  13.932
21969W        W94295  20.292  12.746  13.828
21970W        W94296  36.197  12.282  10.783
21971W        W94297  41.392  40.270   1.867
21972W        W94298  25.633  41.783   2.090
21973W        W94299  31.255   6.685   1.314
21974W        W94300  11.725   1.465   2.864
21975W        W94301   5.762   3.755  11.503
21976W        W94302   7.642  24.678  13.963
21977W        W94303  39.401  26.719  14.502
21978W        W94304  34.692  26.690   2.834
21979W        W94305  13.021  38.385   1.698
21980W        W94306  29.955  26.151   0.511
21981W        W94307  27.876   7.778   1.328
21982W        W94308  23.180  32.073   1.889
21983W        W94309  35.104  22.618   1.278
21984W        W94310  44.043  39.131   0.929
21985W        W94311  22.151  40.146   4.674
21986W        W94312  38.780  10.451  11.164
21987W        W94313  20.384   2.850   2.595
21988W        W94314   5.007  33.234   4.185
21989W        W94315  25.106   1.311   1.907
21990W        W94316  19.130  34.111   1.738
21991W        W94317  37.350   2.866  11.487
21992W        W94318  19.287  14.734  12.855
21993W        W94319   3.256   5.846  12.368
21994W        W94320   8.736  12.290   2.282
21995W        W94321  37.535  11.231   4.365
21996W        W94322  44.344   6.162  10.622
21997W        W94323  35.105  41.043  13.597
21998W        W94324  18.567  31.119   2.896
21999W        W94325  29.960   0.043  14.349
22000W        W94326  11.689  13.160   3.131
22001W        W94327  24.773   3.287  12.803
22002W        W94328  30.612   7.394  14.311
22003W        W94329  22.247  10.267  13.333
22004W        W94330  31.594  19.176   1.438
22005W        W94331  11.059  26.839   9.634
22006W        W94332  43.294  40.365   4.023
22007W        W94333  21.801   4.321   1.630
22008W        W94334  12.205   7.638  11.597
22009W        W94335  28.269  14.456  10.577
22010W        W94336  39.011  12.480  12.171
22011W        W94337  39.529  30.674  14.689
22012W        W94338  16.178  33.627  13.607
22013W        W94339  29.407   9.605   0.380
22014W        W94340  10.830  37.347   4.024
22015W        W94341  25.180   2.319   0.874
22016W        W94342  12.068  43.797   0.244
22017W        W94343  22.069  33.811  12.016
22018W        W94344   7.439   0.418   1.245
22019W        W94345  11.384   0.658   0.890
22020W        W94346  19.348  17.317  11.560
22021W        W94347  13.591  40.498   1.826
22022W        W94348   2.433  18.024   3.014
22023W        W94349   8.770  43.508  13.794
22024W        W94350  20.277  41.014  13.479
22025W        W94351  33.859   7.439   1.331
22026W        W94352  16.540  33.981  13.478
22027W        W94353  30.639   1.221   1.316
22028W        W94354  13.407  31.348  12.484
22029W        W94355  20.979   0.735  14.966
22030W        W94356  28.934  19.632  10.516
22031W        W94357   4.870  26.473  14.776
22032W        W94358   3.496   2.277  11.102
22033W        W94359  36.707  41.789   1.094
22034W        W94360  31.190   2.409   4.062
22035W        W94361  43.132   6.655  13.970
22036W        W94362  10.261  25.718   4.760
22037W        W94363   1.553  39.213   4.387
22038W        W94364  30.821  14.218  11.393
22039W        W94365  33.651  36.297   3.191
22040W        W94366  28.924  14.812  12.984
22041W        W94367  35.736   9.399   5.026
22042W        W94368  23.487  14.292   9.866
22043W        W94369  26.292  13.485   1.918
22044W        W94370  10.778   2.962  12.573
22045W        W94371  27.435  31.885   3.644
22046W        W94372  22.531   6.290   3.264
22047W        W94373  31.755  44.543   4.838
22048W        W94374  12.328  38.956  10.490
22049W        W94375  29.831  24.483  11.430
22050W        W94376  27.851  12.123  11.234
22051W        W94377  32.032  25.516   2.013
22052W        W94378  30.270  29.050   1.329
22053W        W94379  19.158  27.647   2.120
22054W        W94380  37.973  25.198  11.691
22055W        W94381  37.383  39.353   3.764
22056W        W94382  32.385  44.255  12.485
22057W        W94383   7.292  27.641   2.971
22058W        W94384  24.955  42.265   1.415
22059W        W94385  27.015  11.831  11.888
22060W        W94386   9.654  22.678   1.352
22061W        W94387  31.627  10.131  12.027
22062W        W94388  10.629  25.674  11.136
22063W        W94389  13.995  18.372   1.350
22064W        W94390  41.911  34.516   4.672
22065W        W94391  27.042  29.981  11.892
22066W        W94392  22.212  36.808  14.395
22067W        W94393  20.468  27.545  12.388
22068W        W94394  16.767  37.477   3.337
22069W        W94395  25.545  36.604   3.228
22070W        W94396  25.606  43.637  11.443
22071W        W94397   4.823  39.613  11.154
22072W        W94398  18.536  44.758   1.129
22073W        W94399  27.962  19.084   0.609
22074W        W94400  25.016  15.387   0.804
22075W        W94401  18.649  14.688   0.294
22076W        W94402  23.129  22.774   0.279
22077W        W94403  27.618  33.519   2.889
22078W        W94404  38.079  34.537   0.921
22079W        W94405  16.565  10.270   2.250
22080W        W94406  32.546  36.255   3.412
22081W        W94407  38.840  44.842   0.254
22082W        W94408  29.225  13.618   0.169
22083W        W94409  44.293  19.583  11.880
22084W        W94410  32.893  15.470  11.233
22085W        W94411   8.076   6.919   2.513
22086W        W94412  19.924  24.491  11.183
22087W        W94413  11.321  34.622  12.005
22088W        W94414  10.114  41.290   1.405
22089W        W94415  35.051   9.915   4.049
22090W        W94416   1.691  27.648  11.119
22091W        W94417   2.284   3.926   3.920
22092W        W94418  15.379  21.738  10.543
22093W        W94419  44.742  37.417  10.104
22094W        W94420  23.250  43.833  12.466
22095W        W94421  21.854  43.912   2.007
22096W        W94422  12.017   6.265  12.425
22097W        W94423  28.631  19.324   2.358
22098W        W94424  29.935   5.398   3.650
22099W        W94425  40.642  19.958   9.847
22100W        W94426   0.371  37.080  10.619
22101W        W94427  30.160  11.603  11.118
22102W        W94428  44.201   3.776   4.462
22103W        W94429  37.886  31.876  12.914
22104W        W94430   2.030  11.722   4.579
22105W        W94431  41.789  13.221  12.115
22106W        W94432   8.206  24.028   3.218
22107W        W94433  21.686   0.941  14.242
22108W        W94434  10.449  23.717  11.029
22109W        W94435   6.237   6.518   2.896
22110W        W94436  16.206  30.027  10.772
22111W        W94437  42.091  11.033   1.743
22112W        W94438  36.451  27.467   4.080
22113W        W94439  40.207  25.877   3.123
22114W        W94440  37.306   1.881  10.037
22115W        W94441  41.996  10.544   1.816
22116W        W94442  42.248  41.249   5.266
22117W        W94443  31.547   7.602  11.399
22118W        W94444  11.081   4.229   2.720
22119W        W94445  26.955  31.583   5.058
22120W        W94446  25.457   4.103   1.721
22121W        W94447  29.731  41.368  14.993
22122W        W94448   1.441  18.200   2.868
22123W        W94449   9.359  17.796  10.989
22124W        W94450  19.199  21.071  11.834
22125W        W94451  24.107   8.710   3.303
22126W        W94452   1.321  18.812   4.267
22127W        W94453  15.300   0.144  13.419
22128W        W94454  28.601  29.287   3.732
22129W        W94455   3.962  19.227   0.283
22130W        W94456  23.471  11.235  12.202
22131W        W94457  13.388  37.422  11.146
22132W        W94458  11.934  39.847  10.737
22133W        W94459  34.925   5.604  13.340
22134W        W94460  37.449  20.235  10.927
22135W        W94461   2.860   9.233  11.061
22136W        W94462  39.483   8.610  12.552
22137W        W94463  34.762  28.487  10.686
22138W        W94464  16.345  20.097   3.757
22139W        W94465  31.490  24.841   4.132
22140W        W94466  19.331   4.828   3.071
22141W        W94467   9.205  19.664  12.942
22142W        W94468   0.929  15.109   4.306
22143W        W94469  40.434  15.336  13.871
22144W        W94470   2.674   5.704   4.787
22145W        W94471  33.461  31.366   3.106
22146W        W94472  16.307  41.582   0.399
22147W        W94473   0.750  34.461   2.911
22148W        W94474  15.194  11.757  11.490
22149W        W94475  22.450  33.784   2.831
22150W        W94476  32.212   3.710   1.420
22151W        W94477  13.646  31.771  12.312
22152W        W94478   1.295  43.840  14.535
22153W        W94479  12.512  15.409   3.238
22154W        W94480  15.191  33.897   4.891
22155W        W94481   5.471  17.835   1.466
22156W        W94482  35.092   1.345   3.378
22157W        W94483   2.410  41.044  11.907
22158W        W94484  24.775  21.054  14.885
22159W        W94485  44.330   6.462   0.375
22160W        W94486  18.265   3.871  13.479
22161W        W94487  23.977  25.273  13.045
22162W        W94488  34.359  33.588   0.301
22163W        W94489  16.826  24.648  11.947
22164W        W94490  13.309  20.165  14.552
22165W        W94491  33.507  28.082  14.772
22166W        W94492  36.957  40.829   4.479
22167W        W94493  42.162  12.213  12.466
22168W        W94494   0.331  18.070  12.881
22169W        W94495  17.391  19.499  14.243
22170W        W94496  23.736  17.356   1.831
22171W        W94497   6.117  38.428  12.444
22172W        W94498  22.075  22.048   2.258
22173W        W94499  43.483  21.077   2.750
22174W        W94500  32.072  18.495  12.912
22175W        W94501  17.320  16.058  11.278
22176W        W94502  20.648  39.526   4.333
22177W        W94503  16.231  31.166  10.627
22178W        W94504  23.693  27.112   0.630
22179W        W94505  40.885  16.185  14.901
22180W        W94506  18.739  28.734  12.952
22181W        W94507   4.401  43.283  12.909
22182W        W94508  22.043  32.758   0.067
22183W        W94509   0.389   8.292  14.451
22184W        W94510  16.745  40.736  12.034
22185W        W94511   7.419   7.780   0.015
22186W        W94512  30.105   1.483  13.396
22187W        W94513  18.739  12.617  14.512
22188W        W94514  28.453  22.937  13.851
22189W        W94515  21.026   5.860  12.033
22190W        W94516   3.397  16.858   3.702
22191W        W94517  10.329  35.678   2.445
22192W        W94518  23.152  26.398  10.750
22193W        W94519  41.371  43.491   4.532
22194W        W94520   6.121  39.865  10.209
22195W        W94521  20.051  26.933  11.623
22196W        W94522  44.271  40.228   4.138
22197W        W94523   0.111  29.092   1.265
22198W        W94524  42.963  32.108  12.848
22199W        W94525   2.298  21.149   1.710
22200W        W94526   2.393  22.010   2.436
22201W        W94527  28.219  26.100   5.468
22202W        W94528   9.633  16.133   0.400
22203W        W94529  25.571  19.549  13.142
22204W        W94530   2.749  27.113  13.745
22205W        W94531   5.707  14.571   3.690
22206W        W94532  11.103  40.764   3.585
22207W        W94533  35.277  15.658  14.213
22208W        W94534  29.030   4.196  11.701
22209W        W94535  39.888  38.455   4.222
22210W        W94536   7.240  34.083   2.863
22211W        W94537   3.842   3.299   2.886
22212W        W94538   6.819  25.081   3.139
22213W        W94539  38.294  29.104   3.290
22214W        W94540  43.587   7.244  14.917
22215W        W94541  15.150  39.357  13.830
22216W        W94542  28.154  26.028   2.224
22217W        W94543  22.609  15.170   1.416
22218W        W94544  20.193  20.839   1.396
22219W        W94545  43.348   0.772   4.173
22220W        W94546  27.333  36.778   4.145
22221W        W94547  41.285   2.366   0.836
22222W        W94548  36.095  15.531   3.795
22223W        W94549  32.039  15.247  10.789
22224W        W94550   6.813   3.961  10.392
22225W        W94551  20.593   8.915   0.820
22226W        W94552   8.380  13.638   0.614
22227W        W94553  27.075   2.875   2.829
22228W        W94554   8.723  37.261   1.653
22229W        W94555   9.624  44.343  11.748
22230W        W94556  36.844  18.612  11.647
22231W        W94557  18.588   6.322  12.992
22232W        W94558   9.631  18.566   3.780
22233W        W94559   6.277  43.443   3.224
22234W        W94560  25.220  28.481  11.591
22235W        W94561  27.422  15.292   2.307
22236W        W94562  34.999  25.768  11.975
22237W        W94563  40.429  17.146   4.280
22238W        W94564  16.700  37.764   2.341
22239W        W94565   6.306  18.256   3.237
22240W        W94566  35.127  11.941  10.111
22241W        W94567  14.874   7.748  14.401
22242W        W94568  25.104  39.538  14.279
22243W        W94569   9.591   7.421  12.421
22244W        W94570  26.097  33.394   3.198
22245W        W94571  17.578   9.354   1.317
22246W        W94572  34.834   6.695  12.520
22247W        W94573   1.263  10.440   3.507
22248W        W94574   9.839  41.301   2.274
22249W        W94575  41.011  32.885  11.210
22250W        W94576  43.652  34.502   4.577
22251W        W94577   8.770  36.999  12.832
22252W        W94578  40.469  44.961  11.569
22253W        W94579  26.201   6.975   2.151
22254W        W94580  35.846  34.908   5.091
22255W        W94581   6.868  19.153  10.711
22256W        W94582  35.801  21.480   4.233
22257W        W94583  17.584  14.043  12.444
22258W        W94584   5.761  25.432  11.235
22259W        W94585   0.837  29.604  12.359
22260W        W94586  22.694  19.191  14.931
22261W        W94587   4.816  18.839  12.468
22262W        W94588   1.732  12.391   0.442
22263W        W94589  23.764   1.199   1.877
22264W        W94590  24.502  20.849  12.853
22265W        W94591  17.812   7.224   3.691
22266W        W94592   8.736   0.847   1.174
22267W        W94593  21.999  39.862   4.274
22268W        W94594  16.174  38.485  10.658
22269W        W94595  28.980   6.249   0.365
22270W        W94596  14.721   8.950  12.913
22271W        W94597   8.501  27.532   3.784
22272W        W94598   7.761  17.581  12.492
22273W        W94599  16.548  20.017   0.811
22274W        W94600  23.736  35.559   3.666
22275W        W94601   6.884  11.035  12.082
22276W        W94602  44.343   9.139  14.504
22277W        W94603  11.886  30.528  14.686
22278W        W94604   6.794  12.285  12.523
22279W        W94605  36.244  13.249  14.833
22280W        W94606  11.741  34.812   1.719
22281W        W94607  20.479  21.771  11.830
22282W        W94608  38.841  34.894   1.417
22283W        W94609  23.079  15.893  14.745
22284W        W94610   3.851   9.141  11.004
22285W        W94611  21.891   3.214  12.482
22286W        W94612  22.210  29.659   2.160
22287W        W94613  23.446  12.125   1.242
22288W        W94614  38.835  27.628   3.683
22289W        W94615  32.579  19.237  11.603
22290W        W94616  26.986  39.628  13.149
22291W        W94617  29.524  26.758  13.527
22292W        W94618  23.590  20.188   4.668
22293W        W94619  24.888  39.496   3.034
22294W        W94620   6.000  10.438   4.106
22295W        W94621  36.028  36.129   3.060
22296W        W94622  27.473  16.040  11.178
22297W        W94623  14.878  41.850  11.076
22298W        W94624   0.450  13.146  13.145
22299W        W94625   0.039  30.899  12.945
22300W        W94626  30.943  25.282   3.732
22301W        W94627  14.692   6.636   3.076
22302W        W94628  40.514  20.528  10.836
22303W        W94629  30.413  21.265   1.195
22304W        W94630   7.657  35.153   3.657
22305W        W94631  30.324   6.280  13.446
22306W        W94632  33.920  22.575   4.581
22307W        W94633   5.338  27.679  12.892
22308W        W94634  29.743  32.977   0.426
22309W        W94635  28.391  19.140  12.240
22310W        W94636   1.496  20.710   4.284
22311W        W94637  15.760  20.557   1.802
22312W        W94638  14.362   7.355   4.125
22313W        W94639  25.633  30.620   4.380
22314W        W94640  27.656  33.969  14.540
22315W        W94641   2.701  39.599   1.358
22316W        W94642  17.029  34.685   5.348
22317W        W94643  29.723  16.381   0.359
22318W        W94644   3.640  31.928  11.533
22319W        W94645   3.997   2.357  12.489
22320W        W94646  14.258   8.658   4.872
22321W        W94647  28.977  26.936  13.422
22322W        W94648  21.018  23.998   2.198
22323W        W94649  21.022  24.584   2.743
22324W        W94650   4.975  20.774   4.938
22325W        W94651  21.080  31.931  10.260
22326W        W94652  43.403  26.643  11.639
22327W        W94653  32.563  25.596   4.645
22328W        W94654  38.614  26.119   1.509
22329W        W94655  42.809  12.784  10.642
22330W        W94656  31.948   2.051   2.020
22331W        W94657  30.072   3.139   1.282
22332W        W94658  22.613  12.325  10.926
22333W        W94659  43.515  13.974   0.125
22334W        W94660  22.200   3.322   4.113
22335W        W94661  38.083  10.881   3.310
22336W        W94662  14.321  15.070  11.443
22337W        W94663  26.663  23.035  14.117
22338W        W94664  22.221  24.099   3.185
22339W        W94665   9.772  29.150   1.505
22340W        W94666  31.160   2.945   0.447
22341W        W94667  14.681  36.301   0.387
22342W        W94668  42.540  42.806  13.423
22343W        W94669  19.181  25.245   4.306
22344W        W94670  28.253   3.134  11.135
22345W        W94671  26.594  27.643   3.293
22346W        W94672   8.910   4.247   3.267
22347W        W94673  33.278  41.772   4.139
22348W        W94674  35.443  16.770   2.267
22349W        W94675  19.095   5.250   2.344
22350W        W94676  44.980  27.580   4.680
22351W        W94677   6.275  39.496  14.199
22352W        W94678  25.108  12.416   0.353
22353W        W94679   2.162  23.630   4.982
22354W        W94680  35.825  10.284   2.272
22355W        W94681  23.610  11.711   4.020
22356W        W94682   5.943  18.739  14.891
22357W        W94683  32.471   2.993  12.533
22358W        W94684  26.209   6.722   0.713
22359W        W94685  21.653  30.196  14.044
22360W        W94686  22.495   0.046  14.917
22361W        W94687  22.748  28.361  10.357
22362W        W94688  29.023  41.146   1.596
22363W        W94689  11.758  17.026  10.280
22364W        W94690  38.352  37.651  13.440
22365W        W94691  21.051   5.954   2.746
22366W        W94692  18.675   7.763   4.631
22367W        W94693   8.141  12.739   3.801
22368W        W94694   0.054  27.548   2.738
22369W        W94695  13.145  19.079  12.901
22370W        W94696  17.799  26.519   2.818
22371W        W94697   2.978  35.498   1.348
22372W        W94698  27.685  30.683   3.303
22373W        W94699  21.582  24.139   3.813
22374W        W94700  24.958  31.675  11.106
22375W        W94701  17.086  36.176   2.196
22376W        W94702  36.953  12.887  10.136
22377W        W94703  28.168  34.079  10.643
22378W        W94704   3.235  28.184  13.465
22379W        W94705   0.514  30.351  11.604
22380W        W94706  22.107  38.128   4.767
22381W        W94707   6.733  18.751  12.561
22382W        W94708  26.483  29.538   0.941
22383W        W94709  28.692  22.515  12.936
22384W        W94710   6.274  30.075  12.747
22385W        W94711  22.432  42.276  12.064
22386W        W94712   8.999   2.284   4.564
22387W        W94713  34.421  35.297  14.435
22388W        W94714  27.235  31.416  13.553
22389W        W94715   5.826  37.045   0.198
22390W        W94716  11.190  40.315   4.337
22391W        W94717   9.675  25.981   1.877
22392W        W94718   0.441  38.545  11.159
22393W        W94719   0.570  25.694   2.368
22394W        W94720   6.335  38.365  14.234
22395W        W94721  26.485  31.591  11.446
22396W        W94722  17.963  20.688  11.640
22397W        W94723  35.252   5.187  13.417
22398W        W94724   2.162  29.039   4.164
22399W        W94725  26.669  22.608  10.662
22400W        W94726   1.029   4.369   4.530
22401W        W94727  22.261  18.354   0.273
22402W        W94728  20.897  17.036   2.810
22403W        W94729   0.168  35.107  10.725
22404W        W94730   6.859   1.873   1.340
22405W        W94731  43.981  29.434  13.810
22406W        W94732  28.079  41.238  11.971
22407W        W94733  16.032   7.496   3.583
22408W        W94734  32.104  38.945  14.928
22409W        W94735  30.241  44.953  12.243
22410W        W94736  41.920  23.068   1.010
22411W        W94737   1.637  30.653  10.561
22412W        W94738  16.280  10.245   0.795
22413W        W94739  33.909   2.992   4.333
22414W        W94740  32.224  17.079   5.283
22415W        W94741  10.836   8.859  10.740
22416W        W94742  13.590  40.480  13.045
22417W        W94743  10.916  15.024  11.074
22418W        W94744   2.680  38.973  13.114
22419W        W94745  30.040   2.957   0.373
22420W        W94746  23.337  44.376   3.297
22421W        W94747  32.331  11.553  11.129
22422W        W94748  44.431  29.250   4.769
22423W        W94749  13.219  40.334   2.343
22424W        W94750  42.990  21.725   4.608
22425W        W94751  24.140   9.186  12.847
22426W        W94752  42.946  16.053  13.138
22427W        W94753  24.026  33.436   1.446
22428W        W94754  30.416   6.380  11.575
22429W        W94755  18.495  11.875   0.408
22430W        W94756  12.128  13.728   1.295
22431W        W94757  12.065  30.380  11.217
22432W        W94758   3.182  39.903   2.849
22433W        W94759  17.728   9.055   1.706
22434W        W94760  19.790  33.069  14.796
22435W        W94761   9.330  18.587  12.062
22436W        W94762   2.786  22.616   4.670
22437W        W94763  29.958  34.498   2.842
22438W        W94764  42.831  35.909  11.073
22439W        W94765  16.611  23.256   2.900
22440W        W94766  34.205  38.917  12.734
22441W        W94767  39.156  35.992   4.922
22442W        W94768  10.896   2.458  12.659
22443W        W94769  28.254  18.643   1.420
22444W        W94770  44.964  10.376  12.845
22445W        W94771  25.939   8.269   2.281
22446W        W94772  44.367  24.084   4.792
22447W        W94773   8.061  16.603   4.496
22448W        W94774  25.151   6.517  12.066
22449W        W94775   0.909  31.913   4.189
22450W        W94776  40.053  20.309  10.708
22451W        W94777   8.617  29.470   2.230
22452W        W94778   1.654  36.564  14.310
22453W        W94779  25.265  23.058  13.111
22454W        W94780  18.368  41.743   4.176
22455W        W94781  13.315  40.299   0.472
22456W        W94782  37.244  39.381  12.995
22457W        W94783   2.612  38.507   2.891
22458W        W94784  32.823  15.452  11.897
22459W        W94785   8.811  25.728   3.733
22460W        W94786  44.986  15.200   3.983
22461W        W94787  41.933   7.370  11.514
22462W        W94788  43.495   3.281   4.984
22463W        W94789  36.067   1.890   4.788
22464W        W94790  13.761  43.066  14.898
22465W        W94791   7.840  18.691  14.340
22466W        W94792  17.484   8.910   4.602
22467W        W94793  40.922  24.057   1.161
22468W        W94794  33.558  16.547  13.641
22469W        W94795  18.498  36.091  11.035
22470W        W94796  34.340  39.405   2.362
22471W        W94797  33.816  31.064   1.783
22472W        W94798  25.252   2.595   2.889
22473W        W94799  34.148  37.994  12.038
22474W        W94800  15.227   9.203   3.800
22475W        W94801  30.872  17.946  11.453
22476W        W94802   6.656  27.311  13.492
22477W        W94803  15.649  42.850   2.820
22478W        W94804  34.364   1.268   4.852
22479W        W94805  13.742  29.501   2.686
22480W        W94806  18.262  22.518   4.054
22481W        W94807   5.174  26.917   3.632
22482W        W94808   4.550  34.044   3.613
22483W        W94809  25.981  30.994  12.041
22484W        W94810  14.124  24.407   0.955
22485W        W94811  18.261  32.626  14.322
22486W        W94812  18.802   7.809   2.682
22487W        W94813  40.097  34.442  14.903
22488W        W94814  26.710   5.095  12.038
22489W        W94815  25.128  13.666  12.540
22490W        W94816  39.085  30.835   3.280
22491W        W94817  32.991  26.550  12.783
22492W        W94818   1.525   0.743  12.631
22493W        W94819  37.537  30.997   2.996
22494W        W94820  10.198  35.641  11.141
22495W        W94821  35.570   3.512  14.693
22496W        W94822  15.223  18.535  12.636
22497W        W94823  36.402  13.768  14.859
22498W        W94824  44.780  35.309  13.282
22499W        W94825  38.295  36.337   4.661
22500W        W94826  35.566  34.516   4.627
22501W        W94827  29.619   1.310  14.445
22502W        W94828  28.489  10.694  13.454
22503W        W94829  32.554  16.622  13.379
22504W        W94830  14.098  18.723   2.744
22505W        W94831  34.154   1.888   1.197
22506W        W94832  29.633  42.259   3.610
22507W        W94833   1.843   8.686   4.705
22508W        W94834  37.302   3.385   3.707
22509W        W94835  19.114  42.874  12.355
22510W        W94836  21.100   1.823  13.412
22511W        W94837  12.359  17.336   2.120
22512W        W94838   2.898  10.327  13.735
22513W        W94839  22.314  38.860   5.047
22514W        W94840   7.772  36.332   0.414
22515W        W94841  33.204  11.306  12.378
22516W        W94842  16.269  12.679  14.988
22517W        W94843  36.603  32.963  12.303
22518W        W94844  26.098   4.597   2.727
22519W        W94845  32.833  35.813   3.337
22520W        W94846  20.478  39.079  12.995
22521W        W94847   6.300  37.526  11.420
22522W        W94848  25.519  11.419   3.629
22523W        W94849  11.379  29.676   0.698
22524W        W94850  22.178  11.050  11.496
22525W        W94851  39.863   3.155   0.479
22526W        W94852  26.076  27.231   4.553
22527W        W94853  21.766  24.522   3.292
22528W        W94854   9.945  13.584   1.559
22529W        W94855  39.578  13.711   0.684
22530W        W94856  12.696  13.779  14.869
22531W        W94857  38.405   4.889   4.327
22532W        W94858  27.816  25.460  11.023
22533W        W94859  17.336   4.350   0.676
22534W        W94860  36.510   8.657   3.769
22535W        W94861  26.485  17.072   3.216
22536W        W94862  30.324  21.637  12.079
22537W        W94863  44.305   4.217  13.120
22538W        W94864  13.351  37.363   1.384
22539W        W94865  31.649  39.576   0.405
22540W        W94866  15.284  30.151   2.062
22541W        W94867  44.827   9.803   2.747
22542W        W94868  30.953  15.304  12.809
22543W        W94869  33.476  40.864   4.403
22544W        W94870  13.389   2.766  11.109
22545W        W94871  23.241   4.926  12.964
22546W        W94872  39.450   7.732  11.900
22547W        W94873   3.530  13.187   3.853
22548W        W94874  25.480  10.997   2.840
22549W        W94875  15.303   6.337  10.716
22550W        W94876  17.928   5.669  14.483
22551W        W94877   9.599  10.890  14.660
22552W        W94878   2.686  41.965  10.877
22553W        W94879  21.065  30.541  12.427
22554W        W94880  12.408  41.134  10.717
22555W        W94881  20.539  44.018  11.425
22556W        W94882  41.453   0.975  14.036
22557W        W94883  14.288  17.737   3.273
22558W        W94884   6.899  37.479  12.525
22559W        W94885  43.517  33.124   3.830
22560W        W94886  38.494  19.806   2.357
22561W        W94887  14.630   4.902   2.647
22562W        W94888  30.068  27.750   3.557
22563W        W94889  44.004  20.241   2.407
22564W        W94890   8.826  20.654   4.717
22565W        W94891   3.175   7.395  14.861
22566W        W94892  41.953  39.536  12.230
22567W        W94893  19.329  39.866   4.202
22568W        W94894  42.997  23.797   1.382
22569W        W94895  27.943  33.911  11.095
22570W        W94896  14.596  38.755   1.392
22571W        W94897  41.801  33.535   4.246
22572W        W94898  31.075  23.169  12.818
22573W        W94899  39.804   4.121  10.826
22574W        W94900  11.936  41.141   9.924
22575W        W94901  28.060  37.722  12.744
22576W        W94902  13.760  37.120  10.965
22577W        W94903   1.655  39.116  13.874
22578W        W94904  39.068  35.237  14.833
22579W        W94905  29.377  16.330   3.550
22580W        W94906  37.621  14.336   4.535
22581W        W94907  21.078  44.012  14.614
22582W        W94908   1.651  32.533   2.694
22583W        W94909   5.950   6.173   0.238
22584W        W94910  12.527  30.062  13.767
22585W        W94911  35.889  34.852   2.891
22586W        W94912  21.299   7.789  12.028
22587W        W94913  41.945  38.082   3.136
22588W        W94914  22.260   6.876  10.544
22589W        W94915  40.336  37.325   2.852
22590W        W94916  14.753  23.780  11.901
22591W        W94917   3.209  25.505  11.145
22592W        W94918   5.884  34.545  14.001
22593W        W94919  20.802   4.542   1.741
22594W        W94920  24.280   3.929   2.329
22595W        W94921   2.010   1.286   0.964
22596W        W94922  15.870  40.473  11.973
22597W        W94923  44.797  27.410   3.236
22598W        W94924  32.437  20.731  12.895
22599W        W94925  31.933  11.039   3.854
22600W        W94926  29.653  15.089  13.169
22601W        W94927  21.992  21.312   3.019
22602W        W94928  10.279   6.444   2.394
22603W        W94929  19.200  36.385   2.424
22604W        W94930  26.496  16.587  10.962
22605W        W94931  35.804   6.795  10.668
22606W        W94932  17.690  26.666   0.875
22607W        W94933  34.623  27.872   0.885
22608W        W94934  29.827  19.380   2.721
22609W        W94935  40.838   3.517  14.542
22610W        W94936  40.727   6.359  14.032
22611W        W94937   2.955  32.154  10.807
22612W        W94938  26.497  23.050   2.775
22613W        W94939  35.613   7.173  14.264
22614W        W94940  18.503  15.167  11.554
22615W        W94941  14.810  22.279  14.955
22616W        W94942  20.558  11.341  10.605
22617W        W94943  20.727  44.331   1.841
22618W        W94944  38.540  15.669   2.446
22619W        W94945  38.785   4.871  14.895
22620W        W94946  42.557  22.559   3.535
22621W        W94947  44.773  44.280   0.155
22622W        W94948  43.855  39.195  14.735
22623W        W94949  40.418  25.010   2.813
22624W        W94950  23.844  40.581   5.125
22625W        W94951  31.818  12.866  13.871
22626W        W94952  31.097  22.023   0.876
22627W        W94953  24.460  33.124   1.326
22628W        W94954  29.360   3.620  14.982
22629W        W94955  35.424  30.105   1.328
22630W        W94956  41.458  37.289  13.954
22631W        W94957  16.701  43.480  11.136
22632W        W94958  25.582   1.163  12.378
22633W        W94959   6.755  43.216   0.979
22634W        W94960   9.781  18.271  12.558
22635W        W94961   8.322  26.665   1.346
22636W        W94962   7.962   6.259   3.013
22637W        W94963  18.503   3.979   1.956
22638W        W94964  27.500  32.181   1.394
22639W        W94965  29.337  30.659  13.339
22640W        W94966  22.620  21.314  10.427
22641W        W94967  11.289   9.913  12.875
22642W        W94968  12.128  31.544  12.012
22643W        W94969  25.649  20.101  14.060
22644W        W94970  11.874  26.953  11.058
22645W        W94971   1.070  19.811   2.878
22646W        W94972  37.015  39.891  12.927
22647W        W94973  11.019   7.098  11.100
22648W        W94974   7.697   0.334   1.865
22649W        W94975  19.521  34.040  14.993
22650W        W94976  33.049  32.031  11.692
22651W        W94977  19.116  20.502  10.492
22652W        W94978   2.218  13.465   3.998
22653W        W94979   4.627  27.223   3.381
22654W        W94980   2.850   7.314   1.436
22655W        W94981   4.154   4.949   2.825
22656W        W94982  16.868   8.726  11.357
22657W        W94983  43.384  16.489  11.703
22658W        W94984  12.280  36.776   3.418
22659W        W94985  21.858  28.153  12.039
22660W        W94986   2.774  22.184  12.251
22661W        W94987   6.391  26.787  11.133
22662W        W94988   3.933  17.447   2.203
22663W        W94989   0.662  35.849  11.879
22664W        W94990  27.924  18.551  12.933
22665W        W94991  18.267  14.808   4.276
22666W        W94992  27.651  39.728  10.664
22667W        W94993  13.672  18.324   1.861
22668W        W94994  41.003  41.829   4.667
22669W        W94995  31.442  21.583   1.787
22670W        W94996  39.268  16.883  13.606
22671W        W94997  24.312  12.626  14.050
22672W        W94998  21.726   9.410  12.945
22673W        W94999   6.205   4.783   0.622
22674W        W95000  17.271  41.903   0.417
22675W        W95001   9.611  39.545   4.314
22676W        W95002  44.923  32.309   4.212
22677W        W95003  22.932   3.522   4.607
22678W        W95004  23.560  38.933   0.093
22679W        W95005   1.047  19.293  11.632
22680W        W95006  28.159  23.722   0.071
22681W        W95007   3.176  22.734   0.889
22682W        W95008  44.843  13.095   2.343
22683W        W95009   9.098  10.699  13.749
22684W        W95010   6.364   7.723  14.933
22685W        W95011  22.293  33.646   4.210
22686W        W95012  37.056  31.848   3.662
22687W        W95013  18.280  43.542   1.628
22688W        W95014  17.930   5.798   2.242
22689W        W95015   7.198  39.044  14.030
22690W        W95016   1.646  26.304   2.852
22691W        W95017   2.317  11.537  14.871
22692W        W95018  32.468  24.932   2.361
22693W        W95019   7.605  41.499  10.975
22694W        W95020  23.540  13.385   1.829
22695W        W95021   9.183  42.573   3.646
22696W        W95022  30.147  10.072   3.729
22697W        W95023  17.725  21.106  13.857
22698W        W95024  29.605  38.120  11.539
22699W        W95025  36.790   2.773  13.628
22700W        W95026  36.528  23.246   9.995
22701W        W95027  44.769  40.954   0.773
22702W        W95028  28.079   6.077  10.699
22703W        W95029  29.898   6.819  13.146
22704W        W95030  34.095  12.650  13.413
22705W        W95031  26.640  14.672   5.220
22706W        W95032  27.407  25.743   0.461
22707W        W95033  28.168  22.968   2.402
22708W        W95034  16.482  34.913  12.479
22709W        W95035  23.261  19.209  13.353
22710W        W95036  30.614  38.400  10.602
22711W        W95037  42.120  36.936  11.122
22712W        W95038  16.103   4.853   4.857
22713W        W95039  31.442  11.726   1.710
22714W        W95040   3.322  11.789   0.899
22715W        W95041   9.541  39.804   1.313
22716W        W95042  16.464  16.029   2.807
22717W        W95043  22.003  13.117   3.247
22718W        W95044   6.640   9.280   2.425
22719W        W95045  29.915  38.794   2.682
22720W        W95046  34.941  29.161  12.154
22721W        W95047   1.902  26.578  13.409
22722W        W95048  18.004  27.463   1.006
22723W        W95049  15.900  21.023  13.527
22724W        W95050  31.377  16.276  11.066
22725W        W95051   2.330  30.846  13.005
22726W        W95052  18.510  38.713   0.390
22727W        W95053  22.609  33.616   4.623
22728W        W95054  27.219  18.133  11.179
22729W        W95055  44.888   9.403  11.408
22730W        W95056   9.128   5.779  14.403
22731W        W95057   7.863  15.172  12.640
22732W        W95058   2.260  27.034  10.756
22733W        W95059  28.904  17.746  11.538
22734W        W95060  35.122  31.394  12.926
22735W        W95061  37.596  40.541   1.290
22736W        W95062  35.090  33.486  13.906
22737W        W95063   5.973  37.959  12.299
22738W        W95064  33.745  32.816  14.874
22739W        W95065  40.777  37.070  12.105
22740W        W95066   7.938   0.411   1.413
22741W        W95067  42.716  27.402  12.990
22742W        W95068  41.306   4.044   0.593
22743W        W95069   7.517  17.507   4.597
22744W        W95070   5.390  16.640  14.582
22745W        W95071  25.650  21.001  11.479
22746W        W95072  15.551   9.676  12.138
22747W        W95073  29.546  10.879  12.852
22748W        W95074  21.580  20.307  13.480
22749W        W95075  18.738  32.009   0.667
22750W        W95076  17.504  16.085  10.783
22751W        W95077   0.453   7.181  14.849
22752W        W95078  25.170  28.878   1.050
22753W        W95079  29.093  38.507  10.443
22754W        W95080  30.960  11.335  13.299
22755W        W95081  36.550  12.833   5.610
22756W        W95082  35.993   3.761   3.960
22757W        W95083  10.831  17.065  13.102
22758W        W95084  41.479  11.784  12.133
22759W        W95085  27.954   7.260  12.534
22760W        W95086  29.925  31.854   0.872
22761W        W95087  17.405  41.849   1.274
22762W        W95088  27.734   8.907   4.616
22763W        W95089  21.253  15.650  10.742
22764W        W95090  20.812  22.098   0.927
22765W        W95091  34.969   3.253   2.723
22766W        W95092  44.076  40.706   4.191
22767W        W95093  33.480  28.639   3.170
22768W        W95094  37.635  21.267   1.818
22769W        W95095  41.997  22.838   2.348
22770W        W95096  22.670   1.445  14.587
22771W        W95097  21.240   1.595   0.147
22772W        W95098  32.867  30.606   3.368
22773W        W95099  30.433  13.150  13.358
22774W        W95100  27.035   1.391   3.432
22775W        W95101  34.913  19.276   2.179
22776W        W95102  14.552  11.719   4.311
22777W        W95103  32.594  37.485  11.093
22778W        W95104  25.197  31.198   0.429
22779W        W95105  35.885  17.327   2.664
22780W        W95106  42.874  18.661   1.366
22781W        W95107  15.813   4.139   4.822
22782W        W95108  10.289  20.631  11.875
22783W        W95109   9.429  44.248   4.070
22784W        W95110   9.765  18.262  10.848
22785W        W95111  19.730  38.471   4.640
22786W        W95112  24.373  18.066  11.949
22787W        W95113  29.133  38.097   4.611
22788W        W95114  16.772  12.182   1.481
22789W        W95115  37.538  31.718  13.841
22790W        W95116  11.138   1.661  11.610
22791W        W95117   6.962  40.032   0.693
22792W        W95118  35.422  10.227  12.157
22793W        W95119  36.894  42.520   2.166
22794W        W95120  28.405  27.753   3.643
22795W        W95121  15.233  11.645  12.419
22796W        W95122  42.332  30.671  14.369
22797W        W95123  11.301   1.026   4.517
22798W        W95124   6.667   8.124  14.702
22799W        W95125  28.478  36.997   0.109
22800W        W95126   5.145  13.150  11.221
22801W        W95127   9.065  41.730  14.960
22802W        W95128  31.031   8.427  12.524
22803W        W95129  32.299  15.803   1.219
22804W        W95130  10.737   6.532  12.598
22805W        W95131   3.392  21.677  12.355
22806W        W95132  33.584  26.655   0.963
22807W        W95133  29.467  10.491   4.508
22808W        W95134   2.687   5.747   4.263
22809W        W95135  44.421  34.641   2.436
22810W        W95136  13.141  39.821   2.449
22811W        W95137  16.302  44.344   0.907
22812W        W95138  13.680  24.549   3.269
22813W        W95139  39.860  15.458   1.239
22814W        W95140  25.778  40.040  14.076
22815W        W95141   0.257  17.731   4.727
22816W        W95142  17.560   4.482  13.014
22817W        W95143   7.281   5.489   3.163
22818W        W95144  30.691   8.793  13.839
22819W        W95145  16.530  24.932  12.254
22820W        W95146  29.428  23.211  12.963
22821W        W95147  40.362  29.544  13.096
22822W        W95148   9.627   9.766  12.647
22823W        W95149  26.471   9.085  14.763
22824W        W95150  28.085  40.315  10.971
22825W        W95151   3.065  36.067  14.466
22826W        W95152   0.217  19.647  11.506
22827W        W95153  21.107   0.552  12.964
22828W        W95154  43.540   6.147   4.543
22829W        W95155  34.447  37.529   2.322
22830W        W95156  25.129  36.875  12.473
22831W        W95157  19.626  22.195  11.781
22832W        W95158  30.872  16.254  13.013
22833W        W95159   5.363  20.891   3.449
22834W        W95160  11.735   1.887   1.444
22835W        W95161  27.918  27.966   5.426
22836W        W95162  10.639   4.941  14.543
22837W        W95163   9.299  20.150   4.576
22838W        W95164  32.256  36.415  10.453
22839W        W95165  44.866  29.199   0.366
22840W        W95166  44.956  11.407   1.211
22841W        W95167   6.523  37.754   3.221
22842W        W95168  37.886  34.452   2.238
22843W        W95169  43.261  27.109  11.770
22844W        W95170  43.168  28.539  13.458
22845W        W95171  23.837   0.038   4.482
22846W        W95172  12.162  25.540  13.758
22847W        W95173  12.074   0.292   0.858
22848W        W95174  23.150  30.918   3.575
22849W        W95175  23.554  44.907   1.439
22850W        W95176  33.618  13.497   2.098
22851W        W95177  27.692  32.132  13.955
22852W        W95178  21.968   2.523   1.780
22853W        W95179  29.942  41.967   0.712
22854W        W95180  26.730  26.865   4.129
22855W        W95181   2.314  31.950   1.219
22856W        W95182  11.138  31.862   3.310
22857W        W95183  13.303  38.490   2.243
22858W        W95184  10.862   0.288  11.060
22859W        W95185  24.502   7.285   1.958
22860W        W95186  26.078  20.652  11.027
22861W        W95187  43.958  41.553  13.290
22862W        W95188   6.419  34.705  10.690
22863W        W95189  26.058  29.776  11.692
22864W        W95190  32.919  35.861   2.841
22865W        W95191   7.917  26.041  10.953
22866W        W95192   7.815  14.713  14.569
22867W        W95193  31.896   4.334   1.392
22868W        W95194   2.059  23.730  10.648
22869W        W95195  15.549   4.850   5.038
22870W        W95196   5.394  33.299   1.482
22871W        W95197  28.880   5.030  13.712
22872W        W95198  11.707  35.145  12.240
22873W        W95199   2.957  12.223  13.979
22874W        W95200  43.911  25.736   2.809
22875W        W95201  27.642  28.253   3.250
22876W        W95202  40.104   4.331   4.100
22877W        W95203  29.461   6.017  10.500
22878W        W95204   1.521  10.918  11.185
22879W        W95205  11.581  28.375   4.964
22880W        W95206  11.831  11.893   1.292
22881W        W95207  31.933  24.766  12.881
22882W        W95208  35.484   4.188  11.708
22883W        W95209  42.825  44.881  10.664
22884W        W95210   7.516  18.210   2.534
22885W        W95211  34.482   0.236  12.018
22886W        W95212  40.350  37.489  10.198
22887W        W95213  15.845  44.437  14.951
22888W        W95214  11.144  36.053   1.255
22889W        W95215  11.079  27.791  12.036
22890W        W95216  17.366  36.869   0.400
22891W        W95217  41.461  44.324   4.208
22892W        W95218  35.914  22.175   3.629
22893W        W95219   1.672  24.800   4.466
22894W        W95220  11.810  19.965  13.972
22895W        W95221  41.813  36.805   1.817
22896W        W95222  44.435  11.126   3.065
22897W        W95223   7.198   9.402  10.744
22898W        W95224  21.328  31.021   4.135
22899W        W95225  21.141  32.855  11.268
22900W        W95226   4.047  38.448   4.753
22901W        W95227  30.094  40.794  10.668
22902W        W95228  15.783  30.934   3.202
22903W        W95229  31.368  25.768   1.411
22904W        W95230  35.663   1.737  10.584
22905W        W95231  21.728  38.917   0.898
22906W        W95232  26.180  19.181   4.224
22907W        W95233  38.276  34.023   3.585
22908W        W95234  10.854  18.079  11.499
22909W        W95235   8.998  28.984   4.659
22910W        W95236  37.072  12.778  13.959
22911W        W95237  29.447  17.809  10.433
22912W        W95238  21.663  13.258   3.626
22913W        W95239  40.790  15.244  12.073
22914W        W95240  10.342  12.062   3.850
22915W        W95241  21.764  34.198  12.888
22916W        W95242  36.351   6.782   3.127
22917W        W95243  10.631   4.876   0.038
22918W        W95244  11.946  27.302   5.573
22919W        W95245  24.116  33.620   0.589
22920W        W95246  23.038  44.332  11.530
22921W        W95247  32.106  21.571  14.756
22922W        W95248   9.389  13.581  13.759
22923W        W95249  36.549  31.478  14.889
22924W        W95250  26.359  23.613   0.393
22925W        W95251  29.563  16.088  12.853
22926W        W95252  27.979  21.611  12.938
22927W        W95253  15.733  25.527  12.523
22928W        W95254  36.490  33.383   1.976
22929W        W95255  21.755   0.559  14.586
22930W        W95256  21.276  34.509  10.700
22931W        W95257  31.722   8.715   2.315
22932W        W95258  11.797   7.321  12.920
22933W        W95259  27.700   7.127  11.177
22934W        W95260  28.761  37.487  14.419
22935W        W95261  25.555  39.590  13.130
22936W        W95262  19.532  26.901  13.884
22937W        W95263   0.901  22.479  14.393
22938W        W95264  27.754  20.727  11.568
22939W        W95265  24.270  13.142   3.783
22940W        W95266  19.790  18.230  11.608
22941W        W95267  38.347  42.473   4.243
22942W        W95268  37.294  43.863  14.898
22943W        W95269  33.396  37.432  10.524
22944W        W95270  24.496  26.283   2.225
22945W        W95271  15.078  21.798   2.684
22946W        W95272  18.680  11.999   0.879
22947W        W95273  30.982  11.103   4.929
22948W        W95274  17.397   9.473   1.796
22949W        W95275  23.514  29.734   4.113
22950W        W95276   7.549  31.521   3.805
22951W        W95277  24.563  44.657  11.871
22952W        W95278  33.484  43.842   0.191
22953W        W95279   5.660  25.934  11.540
22954W        W95280  13.931   9.151  14.786
22955W        W95281  26.063  39.270   3.151
22956W        W95282  12.629  41.439   2.432
22957W        W95283  35.390  30.900   1.848
22958W        W95284  41.210  29.653  11.189
22959W        W95285  29.972  42.981  13.405
22960W        W95286  26.186  28.220  11.054
22961W        W95287  22.148  18.800   1.304
22962W        W95288  32.991  41.493   3.776
22963W        W95289  23.766  22.162   4.325
22964W        W95290  16.517  14.732  14.096
22965W        W95291   1.611   4.347  10.209
22966W        W95292  26.470  27.042   3.730
22967W        W95293  29.431   1.899   2.364
22968W        W95294  39.026  43.294  13.495
22969W        W95295  15.348   9.334   3.265
22970W        W95296   0.855  26.506  12.261
22971W        W95297  40.390   1.403  11.879
22972W        W95298  33.084   3.398   3.209
22973W        W95299  32.220  22.967   4.134
22974W        W95300  19.250  43.999  11.244
22975W        W95301  36.025   8.728  12.129
22976W        W95302  35.628   8.668  10.710
22977W        W95303  22.751  44.337   3.262
22978W        W95304  28.014   0.241   4.867
22979W        W95305  34.949  35.823  12.412
22980W        W95306  10.785  38.535   1.028
22981W        W95307  27.874   7.281   0.479
22982W        W95308   9.748  35.304   3.838
22983W        W95309  18.658   5.707   1.488
22984W        W95310  13.685  31.127   2.668
22985W        W95311  30.454  24.230  10.960
22986W        W95312  23.869  24.157  13.704
22987W        W95313  18.672  30.557   2.910
22988W        W95314  13.130  28.671   0.515
22989W        W95315  14.080  23.735  11.117
22990W        W95316  21.934  37.397  14.482
22991W        W95317   8.098  41.024  12.484
22992W        W95318  35.409   3.030  12.839
22993W        W95319   0.486  42.209  11.012
22994W        W95320   1.761  37.315   3.697
22995W        W95321  15.165  14.491   3.859
22996W        W95322  20.540   9.188  12.545
22997W        W95323  41.876   8.350  13.951
22998W        W95324  14.162   2.377  13.287
22999W        W95325  15.199  34.535  10.231
23000W        W95326  17.543  22.204   0.490
23001W        W95327  20.832  18.189  10.896
23002W        W95328   0.900  20.664   1.227
23003W        W95329   7.655  19.425  14.838
23004W        W95330  30.586  28.849  13.497
23005W        W95331  43.016  36.526  14.769
23006W        W95332  25.049   6.727  10.719
23007W        W95333  11.765   0.844  12.517
23008W        W95334  25.439  35.117   2.182
23009W        W95335  13.781   1.210  14.809
23010W        W95336  34.676  44.574   3.243
23011W        W95337  20.581  20.807  13.922
23012W        W95338  44.695  13.295  13.865
23013W        W95339   4.398  12.038  10.977
23014W        W95340  44.026  26.050  11.590
23015W        W95341  10.925  11.347  11.780
23016W        W95342  39.609  35.271  14.266
23017W        W95343   0.597  42.570  13.322
23018W        W95344  29.211  12.610  13.511
23019W        W95345  11.802  38.575  13.747
23020W        W95346  44.012  28.934  14.056
23021W        W95347   8.874   5.429   4.054
23022W        W95348  12.619  28.162   0.393
23023W        W95349  11.144   1.315  12.906
23024W        W95350  36.134  22.209  13.083
23025W        W95351   3.688   1.883   3.432
23026W        W95352   8.138  42.508   2.561
23027W        W95353  12.344  16.736   3.804
23028W        W95354  14.671  22.960   1.856
23029W        W95355  23.659  15.141   0.322
23030W        W95356  33.507   5.759  13.084
23031W        W95357  38.894   4.204   2.369
23032W        W95358  18.600   2.199  11.966
23033W        W95359  31.609  21.212   4.547
23034W        W95360   5.966  16.397   3.193
23035W        W95361  17.698   3.821  14.703
23036W        W95362   1.417   0.883   1.351
23037W        W95363  13.623  12.070  11.560
23038W        W95364  20.878  16.301  11.151
23039W        W95365   2.908  28.450  13.158
23040W        W95366  17.741  36.299   1.843
23041W        W95367   8.290  24.445   0.242
23042W        W95368  29.290  41.355   0.291
23043W        W95369  13.588  13.887   0.923
23044W        W95370  42.813  10.235  11.946
23045W        W95371  26.381  42.947   0.840
23046W        W95372   4.053   4.043   2.943
23047W        W95373  14.243  42.314   4.432
23048W        W95374  36.940  24.527   3.826
23049W        W95375  43.728  32.670  13.399
23050W        W95376  33.166  26.009   0.917
23051W        W95377  34.439  39.900  13.823
23052W        W95378  18.811  35.676   3.792
23053W        W95379  21.639  42.695   4.654
23054W        W95380  39.253  41.454   4.587
23055W        W95381  40.768  31.638   3.185
23056W        W95382  32.889  17.368  12.450
23057W        W95383  35.336  18.724   4.215
23058W        W95384  11.659  42.272  11.633
23059W        W95385  35.890  39.837  11.855
23060W        W95386  20.677   5.920   3.837
23061W        W95387  25.527   4.557   9.957
23062W        W95388  23.218  21.589   2.431
23063W        W95389   2.972  35.890   2.731
23064W        W95390  28.195  39.280   1.290
23065W        W95391  12.191  13.965   0.221
23066W        W95392  30.641  10.181   0.533
23067W        W95393  41.024  28.147   3.292
23068W        W95394  43.944  23.509   1.150
23069W        W95395  27.435  28.210  11.923
23070W        W95396  40.077  44.855   2.860
23071W        W95397  18.802  21.017  11.479
23072W        W95398   1.891  30.436   2.262
23073W        W95399  15.064   5.813  11.996
23074W        W95400  12.437  19.711  13.239
23075W        W95401  27.540  31.622   1.632
23076W        W95402   2.223  22.709  10.773
23077W        W95403   6.973   0.750  14.989
23078W        W95404  29.492   8.781  14.959
23079W        W95405  36.791  40.911  14.416
23080W        W95406  12.626  32.511   3.759
23081W        W95407  19.146  14.340  10.998
23082W        W95408  27.687   2.063   3.995
23083W        W95409   7.316  33.215  13.834
23084W        W95410  12.806  35.280   1.462
23085W        W95411  16.082  43.026  12.334
23086W        W95412  43.982  43.000  14.122
23087W        W95413  20.017  17.302  14.475
23088W        W95414  20.204  31.605  14.237
23089W        W95415  19.797  26.953  11.148
23090W        W95416  19.928  14.907  14.657
23091W        W95417  23.497  37.260   1.579
23092W        W95418  31.508  36.589  12.066
23093W        W95419  40.977   4.427  14.452
23094W        W95420  24.766  23.180  14.516
23095W        W95421   4.109  12.275   2.616
23096W        W95422  33.674  31.964  10.290
23097W        W95423   1.901  10.256  10.625
23098W        W95424  15.742  18.078  10.658
23099W        W95425   6.215  19.624   1.423
23100W        W95426  12.829  21.072  12.406
23101W        W95427  17.109  31.009   4.606
23102W        W95428  16.142  33.577  10.482
23103W        W95429  23.140  26.093   3.847
23104W        W95430  10.150   0.889  13.548
23105W        W95431  18.620   6.939   1.649
23106W        W95432  21.211  23.629   4.373
23107W        W95433   6.425  37.928   1.228
23108W        W95434  29.092  29.098  12.564
23109W        W95435  26.197   7.942  13.347
23110W        W95436  35.618  19.475   2.705
23111W        W95437  15.584  34.961  14.380
23112W        W95438  30.105  42.872   0.305
23113W        W95439  21.735  13.283  13.525
23114W        W95440  32.598   2.231  12.994
23115W        W95441  42.996  29.013   1.364
23116W        W95442   0.525  21.119  13.307
23117W        W95443  25.997   2.289  14.910
23118W        W95444  25.576  21.582  10.687
23119W        W95445  28.578  21.811   1.763
23120W        W95446  29.574  15.790  10.905
23121W        W95447  25.806  12.252  12.319
23122W        W95448  39.911  35.860   4.183
23123W        W95449   9.700   7.408   2.357
23124W        W95450   1.428  27.914   3.749
23125W        W95451  37.426   5.872  10.957
23126W        W95452  34.524  28.060  14.865
23127W        W95453  44.985   6.293  12.921
23128W        W95454  38.757  36.025  11.157
23129W        W95455  25.958  10.285   2.297
23130W        W95456   8.707  26.805  14.276
23131W        W95457  25.225  25.002   4.690
23132W        W95458  21.185  16.362   0.441
23133W        W95459  34.032  38.527   4.118
23134W        W95460  35.600  39.259   4.082
23135W        W95461  14.904  11.215  13.897
23136W        W95462  12.212  13.905  14.709
23137W        W95463  28.647   6.717   1.961
23138W        W95464  35.068  22.542   0.390
23139W        W95465  44.711  24.225  10.728
23140W        W95466  42.286  40.310   2.919
23141W        W95467  10.759   0.246   1.456
23142W        W95468  10.597   9.392  13.436
23143W        W95469  31.545  17.904   0.621
23144W        W95470   5.196  43.215   1.826
23145W        W95471  10.341  27.321   2.902
23146W        W95472  36.762  19.540  13.141
23147W        W95473  16.698   0.283   0.760
23148W        W95474  44.612  42.983   0.070
23149W        W95475  19.725   5.802  12.515
23150W        W95476  26.011  38.588  12.464
23151W        W95477  42.080  32.842   2.708
23152W        W95478  11.219  34.034   0.859
23153W        W95479  14.357   0.290  10.559
23154W        W95480  35.912   6.940  13.125
23155W        W95481   2.102   0.156   1.490
23156W        W95482  15.485  42.439   5.092
23157W        W95483  14.797  25.161   4.250
23158W        W95484  39.589   1.171   2.238
23159W        W95485  38.573   7.681  14.443
23160W        W95486   9.626  24.207  11.129
23161W        W95487  40.978   1.783  11.430
23162W        W95488   4.856  24.654   1.742
23163W        W95489   4.771   5.815  12.493
23164W        W95490  36.708  21.920  14.664
23165W        W95491  26.418  31.040   5.142
23166W        W95492  42.413  34.354   4.679
23167W        W95493  42.717  17.807  14.537
23168W        W95494   3.786  27.238   4.627
23169W        W95495   8.657  33.623  10.677
23170W        W95496  32.897  19.845  13.799
23171W        W95497   0.999  10.393  10.187
23172W        W95498   8.966  39.832  13.376
23173W        W95499  10.872  41.755   2.850
23174W        W95500   0.256  24.422   3.161
23175W        W95501  26.972   4.437  10.847
23176W        W95502   7.861  20.261  11.653
23177W        W95503  14.596   6.810  12.894
23178W        W95504  19.328  23.389   0.966
23179W        W95505  10.889  35.977   0.762
23180W        W95506  12.716   1.150   0.152
23181W        W95507  20.296  23.825   3.495
23182W        W95508  33.668  15.194  13.319
23183W        W95509   0.745  11.869  14.289
23184W        W95510  10.238  22.097   1.642
23185W        W95511  37.273  24.945   3.808
23186W        W95512  34.846  22.541  14.542
23187W        W95513   3.937  27.986  14.854
23188W        W95514   1.451  35.168  11.143
23189W        W95515  38.384  36.864  10.995
23190W        W95516  16.307   2.923   1.767
23191W        W95517  16.068   7.121  12.589
23192W        W95518  15.276   0.554   1.776
23193W        W95519   9.767  35.984   4.837
23194W        W95520  24.512  28.131   1.060
23195W        W95521  38.273  41.969   4.322
23196W        W95522  42.476  44.429  11.185
23197W        W95523  13.349  12.292   3.349
23198W        W95524  31.386  32.577   0.428
23199W        W95525   5.322   6.186  12.070
23200W        W95526  27.722   2.498  14.199
23201W        W95527  25.491  18.152  12.917
23202W        W95528  10.741  35.646  13.346
23203W        W95529  23.555  13.839  14.871
23204W        W95530   7.170   6.120   0.843
23205W        W95531   6.411  17.097   4.612
23206W        W95532   6.145   6.824   1.845
23207W        W95533  31.473   2.319   3.661
23208W        W95534  25.978  44.368   2.191
23209W        W95535  29.085  35.115  14.446
23210W        W95536   4.919  24.469  11.574
23211W        W95537   4.772  38.385  13.479
23212W        W95538  33.612   5.824  11.621
23213W        W95539  28.553  28.594   5.494
23214W        W95540   8.361  23.211   2.579
23215W        W95541   6.733  22.715  13.973
23216W        W95542  40.645   7.238   3.730
23217W        W95543  17.342  29.142   1.271
23218W        W95544   1.424   0.546  10.624
23219W        W95545   2.773   6.432  10.730
23220W        W95546  30.563  10.962  12.078
23221W        W95547  12.731  26.447   0.787
23222W        W95548  11.769   8.630  10.182
23223W        W95549  30.212  20.843  14.443
23224W        W95550  24.182  17.265  12.956
23225W        W95551  40.429   1.194   3.581
23226W        W95552   7.971   6.982  14.726
23227W        W95553  28.915  17.113   3.252
23228W        W95554   2.425  27.344   0.058
23229W        W95555  37.221  24.499   2.288
23230W        W95556  43.993  23.819  12.237
23231W        W95557  37.550  43.397   0.426
23232W        W95558  12.851  42.257  12.495
23233W        W95559  17.496  24.566   4.374
23234W        W95560  11.268  13.358   1.923
23235W        W95561  23.476  14.839  13.395
23236W        W95562  37.092  18.466   3.699
23237W        W95563   7.410  34.904  13.141
23238W        W95564  23.566  31.233   4.249
23239W        W95565  35.358  31.067   0.314
23240W        W95566   8.302  29.364   0.207
23241W        W95567  11.181  39.417  11.139
23242W        W95568  42.428  19.988   0.936
23243W        W95569   3.862   9.188  12.073
23244W        W95570  21.833  34.579  14.930
23245W        W95571  19.068   0.373  10.852
23246W        W95572  20.973  25.038   2.450
23247W        W95573  13.818   6.806  12.471
23248W        W95574  32.287  35.424  14.718
23249W        W95575  37.442  26.159  11.225
23250W        W95576  22.746  44.393   1.465
23251W        W95577  43.595  24.550   3.188
23252W        W95578  16.752  32.064  13.804
23253W        W95579  42.955  16.569   0.313
23254W        W95580  12.778   9.783   4.762
23255W        W95581  36.728   2.512   0.102
23256W        W95582   7.538  12.748   3.869
23257W        W95583  35.577   9.316   1.759
23258W        W95584  17.656   6.931  12.991
23259W        W95585   8.988  14.240   2.830
23260W        W95586  24.769  21.141   4.542
23261W        W95587   9.560  17.802  13.382
23262W        W95588  33.613  26.348  14.221
23263W        W95589  37.964   1.593  10.736
23264W        W95590   6.947  17.854   3.111
23265W        W95591  21.038  27.000  10.675
23266W        W95592  32.982  15.405   5.039
23267W        W95593  43.960  30.445  13.901
23268W        W95594   0.359  37.578  14.962
23269W        W95595  39.913  32.490  11.694
23270W        W95596  18.057  40.532   3.480
23271W        W95597  40.536  16.754  12.616
23272W        W95598   1.257  18.841  11.439
23273W        W95599  20.081  37.383   4.584
23274W        W95600  41.460  26.610   2.358
23275W        W95601  34.493  35.418   5.369
23276W        W95602  33.543  43.551  14.737
23277W        W95603  34.367  39.660   4.059
23278W        W95604   2.557  42.113  11.909
23279W        W95605  34.365  16.247   2.805
23280W        W95606  32.584  40.693   1.894
23281W        W95607  28.863   3.992  13.393
23282W        W95608  39.198  22.389  12.784
23283W        W95609  26.065   5.702  12.485
23284W        W95610  27.233   5.278  14.472
23285W        W95611  25.985  27.257   3.773
23286W        W95612  29.905  37.998  14.721
23287W        W95613  31.581  32.434  10.600
23288W        W95614   4.795  30.735  11.353
23289W        W95615  40.398   0.717  11.165
23290W        W95616  15.844  12.787  13.813
23291W        W95617   8.725  26.181   0.562
23292W        W95618  44.710  18.919  13.752
23293W        W95619  38.002  11.633   3.972
23294W        W95620   7.585   3.228   3.222
23295W        W95621  38.195  39.784  12.089
23296W        W95622   8.687  29.465  10.447
23297W        W95623   0.255   2.627   0.270
23298W        W95624  10.176  13.871  10.587
23299W        W95625  28.750   4.350   3.313
23300W        W95626  27.554   9.257   3.164
23301W        W95627  15.096  19.962   0.644
23302W        W95628  19.019  15.583   3.682
23303W        W95629  10.402  10.748   3.921
23304W        W95630  27.558  27.445  12.383
23305W        W95631  33.490   3.215  13.443
23306W        W95632   2.768  35.879  11.158
23307W        W95633  13.002  10.154   3.825
23308W        W95634  37.873  16.320   2.700
23309W        W95635  24.075  41.302  13.114
23310W        W95636  16.356  36.440  11.529
23311W        W95637   3.891  40.446  12.262
23312W        W95638  36.131   4.805   1.766
23313W        W95639  36.054   2.264   4.313
23314W        W95640   6.392  32.340  14.441
23315W        W95641   5.666  18.506   0.262
23316W        W95642  31.438   1.242   0.443
23317W        W95643  17.337  41.235   0.238
23318W        W95644  41.949  24.943  12.525
23319W        W95645  17.784  17.792   2.125
23320W        W95646  13.431   1.690   2.034
23321W        W95647   1.944  44.313  11.542
23322W        W95648  16.017  35.882   4.934
23323W        W95649  41.481   2.980  11.120
23324W        W95650  15.269  36.090  12.059
23325W        W95651   0.466   7.651  14.672
23326W        W95652   0.019  27.098  13.798
23327W        W95653  25.930   9.583   2.861
23328W        W95654  30.090  42.985   4.540
23329W        W95655  13.676  28.181   2.235
23330W        W95656  28.264   6.572  13.022
23331W        W95657  32.017  29.350   4.458
23332W        W95658  38.031  40.346   3.744
23333W        W95659  31.802  11.533  11.137
23334W        W95660  41.763  10.800   0.358
23335W        W95661  10.237  26.494  14.007
23336W        W95662  41.730  30.102   4.652
23337W        W95663  15.553   9.167  10.539
23338W        W95664   3.591  18.797  13.319
23339W        W95665  33.217  35.621   1.359
23340W        W95666  21.074  28.925  13.873
23341W        W95667  19.685  42.301   1.500
23342W        W95668  15.572  41.018   2.252
23343W        W95669  19.495  22.093   4.228
23344W        W95670  30.261  29.586   2.818
23345W        W95671  39.305  14.191   4.107
23346W        W95672  41.224  29.958  13.937
23347W        W95673  24.632  24.405  12.379
23348W        W95674  42.094  41.312   2.284
23349W        W95675   9.398   4.917  11.487
23350W        W95676  32.382  13.298   1.248
23351W        W95677  32.558  14.597  10.735
23352W        W95678  14.267  15.648   0.506
23353W        W95679  11.840  22.981   3.210
23354W        W95680  12.175  27.864  12.800
23355W        W95681   9.676   4.363  12.115
23356W        W95682  44.336  19.140  14.028
23357W        W95683  23.101   1.274  12.759
23358W        W95684  13.184   2.434  12.865
23359W        W95685  24.918  43.043   1.798
23360W        W95686  16.183   4.469  13.410
23361W        W95687  34.950  35.595  10.664
23362W        W95688   7.615  31.650  13.254
23363W        W95689  20.284  40.044   4.265
23364W        W95690  31.885  10.241  10.620
23365W        W95691  37.783  41.817  13.589
23366W        W95692  33.304   5.665   5.008
23367W        W95693  15.180   7.706   1.689
23368W        W95694   0.232  39.164   4.240
23369W        W95695  15.357   2.291  12.561
23370W        W95696   1.110   2.303   0.345
23371W        W95697  16.546  21.941   3.986
23372W        W95698  33.454  31.883   3.204
23373W        W95699  25.633  17.833  12.304
23374W        W95700   2.024   0.023  12.045
23375W        W95701  13.376  20.713  10.640
23376W        W95702  38.725  24.682   2.244
23377W        W95703  13.710  14.519   1.761
23378W        W95704  38.297  28.346   1.019
23379W        W95705  29.646   4.447  10.768
23380W        W95706  13.315  39.568   4.714
23381W        W95707  30.064  13.359  12.042
23382W        W95708  25.492  29.605   3.532
23383W        W95709  18.656  44.264   1.172
23384W        W95710  42.941  14.366  13.947
23385W        W95711  35.452  30.704  11.350
23386W        W95712   5.569  20.752  14.166
23387W        W95713  23.070   1.722  11.612
23388W        W95714   9.414  16.149   2.659
23389W        W95715   2.049  19.103   2.194
23390W        W95716  10.655  11.928   4.254
23391W        W95717  10.875  21.301   1.214
23392W        W95718   8.732  14.891  10.787
23393W        W95719   5.473  28.648  12.059
23394W        W95720   6.880  15.004   1.220
23395W        W95721  32.726   3.271   4.149
23396W        W95722  10.738   2.922   2.613
23397W        W95723  11.830  32.979   4.191
23398W        W95724  25.252   9.918  10.639
23399W        W95725  21.355  43.043  14.742
23400W        W95726   3.423  20.236  12.930
23401W        W95727  27.922  30.445   0.953
23402W        W95728   9.195  31.863   3.694
23403W        W95729  19.045   3.636  12.520
23404W        W95730  40.890  30.221  10.391
23405W        W95731  10.942  15.059  13.701
23406W        W95732   0.226   0.277   4.515
23407W        W95733  35.413  42.362   2.506
23408W        W95734  26.570  31.126   2.832
23409W        W95735  13.133  32.522  10.429
23410W        W95736  22.646   2.064   2.637
23411W        W95737  32.474  18.062  10.715
23412W        W95738   8.768  40.539   0.045
23413W        W95739   9.839  16.002   1.939
23414W        W95740  32.167  10.003   2.417
23415W        W95741   0.674   4.781  12.074
23416W        W95742  33.159  42.834   0.717
23417W        W95743  22.966  18.606   1.896
23418W        W95744  32.024  16.361   0.825
23419W        W95745  26.742   8.313   2.696
23420W        W95746   5.296  37.935  10.436
23421W        W95747  14.852  21.379   4.659
23422W        W95748  29.612  43.307   1.472
23423W        W95749  12.068   3.407   0.683
23424W        W95750  11.137   2.426  13.941
23425W        W95751  27.334   6.702   3.480
23426W        W95752  39.298  23.221  11.183
23427W        W95753   5.376   4.988  13.934
23428W        W95754  15.521  19.746  13.125
23429W        W95755  36.442  23.762  12.036
23430W        W95756   1.992  41.363  11.589
23431W        W95757   3.900  35.823   9.871
23432W        W95758  26.533   9.312   0.276
23433W        W95759   8.745  20.812  11.690
23434W        W95760   1.157  31.325  12.007
23435W        W95761  35.354  27.941   2.480
23436W        W95762  23.202  21.328   0.878
23437W        W95763  41.239  26.134   4.655
23438W        W95764  25.800  36.283  12.538
23439W        W95765  19.481  29.642   3.374
23440W        W95766  30.447  13.761   2.700
23441W        W95767   2.786  24.947   2.216
23442W        W95768  31.888   3.699  12.490
23443W        W95769  39.528  36.461   4.330
23444W        W95770  27.714   0.998  13.442
23445W        W95771  20.560  12.370  12.011
23446W        W95772  42.064  13.590  11.504
23447W        W95773  42.156  41.913   1.713
23448W        W95774  38.987  37.861   3.221
23449W        W95775   4.867  43.981  10.784
23450W        W95776  19.022  10.946   3.703
23451W        W95777  18.827  15.726   4.278
23452W        W95778  44.768  26.076   1.923
23453W        W95779  44.887  15.637  13.597
23454W        W95780  37.042   6.858   3.773
23455W        W95781  35.084  39.010   4.993
23456W        W95782  23.725  39.502  13.429
23457W        W95783  19.150  13.532   2.997
23458W        W95784   5.132  16.679  10.348
23459W        W95785  38.925  14.770  11.831
23460W        W95786  36.435   8.349   4.206
23461W        W95787   4.721  16.158   3.634
23462W        W95788  41.206  37.083  10.680
23463W        W95789  30.601   9.259   3.077
23464W        W95790  38.528  38.460   3.912
23465W        W95791   9.811   8.838   1.795
23466W        W95792   8.890  29.628  14.467
23467W        W95793  42.124  12.799   0.376
23468W        W95794  23.101  36.066   2.622
23469W        W95795  22.585  26.770   3.636
23470W        W95796  20.825  11.469   0.946
23471W        W95797   4.839  16.611   2.668
23472W        W95798  32.205  34.615  12.489
23473W        W95799  11.637  38.021   2.122
23474W        W95800  35.378  16.552   1.288
23475W        W95801  44.437  10.303   1.263
23476W        W95802  29.126   1.262   2.478
23477W        W95803  40.088  38.375   4.698
23478W        W95804  42.358  20.914  11.634
23479W        W95805   9.306   3.036   1.250
23480W        W95806  36.894  42.731   1.362
23481W        W95807   4.885  28.498   1.864
23482W        W95808  36.820  11.798  11.174
23483W        W95809  19.120  40.248   4.550
23484W        W95810  15.332  32.985  10.495
23485W        W95811  40.431  27.616   4.854
23486W        W95812  43.935  27.413  11.480
23487W        W95813  24.890  16.838   0.971
23488W        W95814   9.245  24.945   1.359
23489W        W95815  17.224   5.509   2.479
23490W        W95816  17.823   7.279  11.244
23491W        W95817  29.863  32.220  11.373
23492W        W95818  22.281  30.111  12.531
23493W        W95819  13.732  22.471   2.678
23494W        W95820  10.232  25.722  11.873
23495W        W95821  35.859  25.798  12.524
23496W        W95822   3.650  30.096  12.040
23497W        W95823  35.121  42.824  14.405
23498W        W95824  27.473  28.405   0.198
23499W        W95825  22.465  38.504   3.173
23500W        W95826  15.134  19.341  13.047
23501W        W95827  14.867  10.375   3.835
23502W        W95828   6.171   9.804   1.619
23503W        W95829   8.682  37.442   3.812
23504W        W95830  33.459  33.434  11.432
23505W        W95831  25.753  21.729  12.180
23506W        W95832  18.145  43.034   2.780
23507W        W95833  32.963  37.947   4.299
23508W        W95834   3.279  36.545  11.418
23509W        W95835  26.909  25.020   0.676
23510W        W95836  29.673  35.786   2.933
23511W        W95837   8.269   4.627   1.944
23512W        W95838  35.496  21.318  14.059
23513W        W95839   9.879  31.506  11.262
23514W        W95840  28.443   2.107   2.398
23515W        W95841  44.165  17.774   3.261
23516W        W95842  33.737  38.074  10.253
23517W        W95843   4.772   3.196   4.240
23518W        W95844  20.169  18.741  10.720
23519W        W95845   7.924  32.101  13.137
23520W        W95846  26.214  29.233   3.901
23521W        W95847  21.597  33.495  13.561
23522W        W95848  39.496   3.722  12.968
23523W        W95849   0.819  21.021  13.718
23524W        W95850  19.429  25.011   0.827
23525W        W95851  11.455  10.781   2.334
23526W        W95852  17.813  42.441   0.749
23527W        W95853  30.644   4.087  13.922
23528W        W95854  30.659  20.739   3.253
23529W        W95855   5.375  13.874  13.827
23530W        W95856   2.499  10.924   4.986
23531W        W95857  16.001  43.195  10.703
23532W        W95858  12.860  44.723  11.601
23533W        W95859  35.146  36.082   3.189
23534W        W95860  30.611  23.292  12.006
23535W        W95861  22.552  13.850  14.853
23536W        W95862  37.025   4.371  13.554
23537W        W95863   1.818   0.527   0.531
23538W        W95864  29.150  23.032   4.421
23539W        W95865  20.677  25.525   5.022
23540W        W95866  39.216  11.649  12.843
23541W        W95867   0.934  12.685  10.543
23542W        W95868  36.510  37.510  14.750
23543W        W95869  19.083  11.922   1.369
23544W        W95870  16.090  22.219   4.181
23545W        W95871  18.526  18.165  14.927
23546W        W95872  39.139  40.502  14.383
23547W        W95873  29.906  40.348   0.938
23548W        W95874  21.637  44.777  12.527
23549W        W95875  36.330  27.960   4.212
23550W        W95876  25.505  31.199  12.552
23551W        W95877  38.088  20.333  13.042
23552W        W95878  11.355  23.586   4.601
23553W        W95879   7.335   1.648  13.917
23554W        W95880  15.610  16.756  14.885
23555W        W95881  22.122  33.352  12.828
23556W        W95882  29.742  34.473   1.717
23557W        W95883  20.921   4.263  14.967
23558W        W95884  28.946   9.886   1.826
23559W        W95885  15.701   3.640   1.644
23560W        W95886   9.211  32.528  11.599
23561W        W95887  31.158  38.133   0.756
23562W        W95888  18.891  12.292  13.468
23563W        W95889   7.060  35.715  13.756
23564W        W95890  38.331   0.213   4.169
23565W        W95891  38.969  31.708  12.790
23566W        W95892  33.347  15.250  12.068
23567W        W95893  11.228   6.292  14.508
23568W        W95894  21.026  37.628  12.534
23569W        W95895   2.493  32.933   2.893
23570W        W95896  38.801   4.424  10.734
23571W        W95897  44.703  23.706   3.248
23572W        W95898  31.087   5.938  13.767
23573W        W95899  12.575   8.539  10.108
23574W        W95900  19.687  13.283   1.819
23575W        W95901  16.840   4.481   2.135
23576W        W95902   9.252  11.729   2.174
23577W        W95903   9.395  38.426  14.249
23578W        W95904  36.100  35.454  10.657
23579W        W95905  20.318  16.145  13.281
23580W        W95906  36.868   6.942   0.442
23581W        W95907  23.126   6.326  14.751
23582W        W95908   7.178  36.075  12.530
23583W        W95909  36.963  27.994  11.855
23584W        W95910   7.616  40.354  12.041
23585W        W95911  28.485  17.549   4.244
23586W        W95912  44.498  26.613   0.850
23587W        W95913  32.031   2.377   5.129
23588W        W95914  23.053  41.907   3.741
23589W        W95915  32.084  43.949  13.075
23590W        W95916   1.066  20.514  14.460
23591W        W95917  15.155   0.852  11.586
23592W        W95918  29.407  38.442   0.990
23593W        W95919  35.875  14.064  13.852
23594W        W95920  38.980  10.649  13.964
23595W        W95921  26.121  20.672   0.293
23596W        W95922  18.457  33.130   2.906
23597W        W95923  27.339  14.438  11.623
23598W        W95924   6.234  31.850   1.775
23599W        W95925  26.645  40.834  11.629
23600W        W95926  23.402  44.405   0.211
23601W        W95927   4.752   9.331   0.871
23602W        W95928  36.003  44.384  12.267
23603W        W95929  31.691  36.800  13.627
23604W        W95930  23.729  26.108   3.239
23605W        W95931  41.923  21.105   1.930
23606W        W95932  14.739  23.599  14.182
23607W        W95933   5.824  33.206  13.807
23608W        W95934   1.747  10.661   3.816
23609W        W95935  17.092   2.665   3.689
23610W        W95936  40.987  10.640   3.195
23611W        W95937   9.519   3.449  12.855
23612W        W95938   5.946  44.765  10.992
23613W        W95939  19.775  37.194  11.976
23614W        W95940   3.699  40.907  12.431
23615W        W95941  26.177   4.503   4.869
23616W        W95942  21.222  12.031  10.919
23617W        W95943  44.739   9.651  14.458
23618W        W95944  10.520  15.738  13.194
23619W        W95945   9.187  32.956   0.790
23620W        W95946  23.191  39.400   5.501
23621W        W95947   8.177  16.607  12.038
23622W        W95948   4.565  38.395  13.978
23623W        W95949  32.674  13.303   0.524
23624W        W95950  15.143  13.209  11.145
23625W        W95951   8.520  41.415   2.839
23626W        W95952   3.996  25.943  14.946
23627W        W95953  14.782  22.079  11.542
23628W        W95954   0.459  39.437   0.410
23629W        W95955  23.122  10.520   0.981
23630W        W95956  37.768  13.125  12.057
23631W        W95957  18.018  16.268  10.769
23632W        W95958   0.025  12.217  12.493
23633W        W95959  20.059  42.882   1.471
23634W        W95960  15.146  15.358   4.106
23635W        W95961  17.719  13.240  10.936
23636W        W95962  34.488  36.091  14.865
23637W        W95963  15.833  22.594  13.948
23638W        W95964   6.828  16.110  11.228
23639W        W95965  16.521   5.776  13.359
23640W        W95966   4.573   3.877   9.739
23641W        W95967  22.696  34.470   4.299
23642W        W95968   8.875  36.944   3.867
23643W        W95969  35.666  44.312  11.437
23644W        W95970  17.166  36.471  14.043
23645W        W95971  41.612  27.513   1.723
23646W        W95972   7.153   2.720  13.877
23647W        W95973  35.108   0.369  12.742
23648W        W95974   2.420  33.091  12.766
23649W        W95975  21.100  33.226  13.443
23650W        W95976  36.490   3.656  13.309
23651W        W95977   8.174  27.700  12.933
23652W        W95978  37.465  15.784   1.005
23653W        W95979   9.166   9.780  12.392
23654W        W95980  39.323  44.501  12.579
23655W        W95981  19.835  23.476   0.182
23656W        W95982  42.314  34.162   2.110
23657W        W95983   4.425  12.770  10.619
23658W        W95984   1.958  30.080   4.670
23659W        W95985  31.625  24.260   1.633
23660W        W95986  34.953  11.910  10.589
23661W        W95987  32.959   3.908   3.080
23662W        W95988  22.705  37.446  14.959
23663W        W95989  40.528  16.485   2.369
23664W        W95990  15.746  44.409  12.501
23665W        W95991   0.735  32.706  10.937
23666W        W95992   7.187  31.960  13.295
23667W        W95993   0.580  36.794   2.802
23668W        W95994  41.123   1.556  11.999
23669W        W95995   5.632  40.555   3.128
23670W        W95996   1.232   4.869   4.556
23671W        W95997  35.102   3.418  14.985
23672W        W95998  33.076  21.602   2.208
23673W        W95999  23.028  43.405  13.069
23674W        W96000  32.635  40.956   4.953
23675W        W96001  30.921  25.906   1.928
23676W        W96002  13.966  27.494   4.118
23677W        W96003  10.659   1.215   4.524
23678W        W96004   2.280  10.199  10.953
23679W        W96005  14.343  22.133   0.918
23680W        W96006   3.355   1.780  11.972
23681W        W96007   7.691  20.339   0.619
23682W        W96008  13.761  10.231  12.671
23683W        W96009  16.083   7.042  11.316
23684W        W96010   6.353  10.960  12.773
23685W        W96011  38.151   7.284   1.891
23686W        W96012  42.053  12.773  12.169
23687W        W96013  42.500  24.521  14.525
23688W        W96014  25.729  29.671   2.558
23689W        W96015  21.813  27.258  11.946
23690W        W96016  36.994  22.283   1.404
23691W        W96017   8.653   9.717   1.270
23692W        W96018  33.516  31.530  13.996
23693W        W96019  18.697  34.478  12.167
23694W        W96020  39.851  31.730  11.782
23695W        W96021  26.834  13.203  13.401
23696W        W96022  31.411  39.259  13.363
23697W        W96023  40.847  31.817   0.535
23698W        W96024  41.884  37.304   0.263
23699W        W96025  44.472  17.641   2.289
23700W        W96026   8.103  15.870  14.249
23701W        W96027   8.924  37.825   4.590
23702W        W96028  37.136  35.485  13.391
23703W        W96029   6.272  12.373  13.470
23704W        W96030  20.477  20.555   1.744
23705W        W96031  23.045   5.137  11.552
23706W        W96032  42.335  43.004  12.044
23707W        W96033  43.497   7.164  10.690
23708W        W96034  35.298  31.072   4.127
23709W        W96035   1.332  12.333   0.767
23710W        W96036  29.115   1.536   2.949
23711W        W96037  21.170   5.003   4.869
23712W        W96038  21.520  22.644  14.092
23713W        W96039   5.546  23.021  11.532
23714W        W96040  26.794  14.439  10.058
23715W        W96041   3.514  11.750   2.250
23716W        W96042   9.126  23.021   4.079
23717W        W96043  20.245  42.314   4.730
23718W        W96044  41.559  12.098   4.285
23719W        W96045  39.931  22.477   1.750
23720W        W96046   8.639  34.614  12.564
23721W        W96047  32.821  16.071   3.959
23722W        W96048  28.211  32.799   1.417
23723W        W96049  33.881  24.593  12.903
23724W        W96050  17.627  40.926   4.744
23725W        W96051  22.998  20.338  10.695
23726W        W96052  34.154  15.583   1.759
23727W        W96053  41.985   1.355  14.603
23728W        W96054  32.741  26.984   2.369
23729W        W96055  24.909  28.901  11.549
23730W        W96056  23.502  42.280  11.101
23731W        W96057  37.035   7.469  10.674
23732W        W96058   7.991   3.483  12.289
23733W        W96059   7.868  12.232   2.663
23734W        W96060  19.484  34.530  14.027
23735W        W96061  17.134   3.313  10.805
23736W        W96062  40.543  21.459  10.566
23737W        W96063  22.144  26.700   1.995
23738W        W96064  20.800  27.299  12.010
23739W        W96065   7.907  23.127  14.808
23740W        W96066  23.526  13.558  11.503
23741W        W96067  32.854  27.090  11.126
23742W        W96068  14.264   7.114  10.409
23743W        W96069  14.173  10.067  12.366
23744W        W96070  41.280   9.944  11.563
23745W        W96071  29.737   1.262   0.337
23746W        W96072   2.914  38.911  13.565
23747W        W96073  23.098  14.701  14.794
23748W        W96074  25.466  19.599   2.676
23749W        W96075  40.350   4.689   3.630
23750W        W96076  38.231  14.665   3.317
23751W        W96077  26.314  17.149  12.523
23752W        W96078  20.679  38.813   2.611
23753W        W96079   4.357  37.514  14.094
23754W        W96080  32.199  17.524  14.399
23755W        W96081   2.010   1.234   1.898
23756W        W96082  35.598   8.790   2.901
23757W        W96083  13.352   7.645   4.119
23758W        W96084  43.302  24.479  11.993
23759W        W96085  40.756  10.821   2.735
23760W        W96086  30.074  19.826  11.113
23761W        W96087  36.047  20.453   1.016
23762W        W96088  39.934  18.472   4.861
23763W        W96089  13.156  13.524   4.250
23764W        W96090  14.996  44.803   2.434
23765W        W96091  20.574   3.252  13.574
23766W        W96092   1.379   8.058  13.382
23767W        W96093  36.546  19.013   2.834
23768W        W96094  40.981  41.067   1.558
23769W        W96095  16.809  16.036   3.618
23770W        W96096  13.864  29.496  12.295
23771W        W96097   8.455  42.489  11.880
23772W        W96098  33.963  15.308   4.433
23773W        W96099  33.532  41.742  13.399
23774W        W96100  44.650  40.601   4.111
23775W        W96101  26.829  13.566   1.683
23776W        W96102  40.036  19.659   4.092
23777W        W96103   9.294  38.456  10.660
23778W        W96104  25.620  34.057  14.771
23779W        W96105  34.126  28.919  10.773
23780W        W96106  13.815  33.626  10.235
23781W        W96107  11.324  18.843   2.893
23782W        W96108   6.245   4.726  13.510
23783W        W96109  33.403   3.903  11.577
23784W        W96110  34.978  28.019  10.730
23785W        W96111  11.659  36.089   5.006
23786W        W96112  18.651  14.960   4.637
23787W        W96113   8.598  31.973  13.651
23788W        W96114  44.794  42.509  12.951
23789W        W96115  21.991  31.188   2.315
23790W        W96116  31.352  27.903  13.312
23791W        W96117  16.183  21.346   3.854
23792W        W96118  24.742  20.112   3.656
23793W        W96119   4.519   0.010  13.446
23794W        W96120   8.723  29.056   4.246
23795W        W96121   5.187  33.442  10.207
23796W        W96122  35.158  35.351   3.659
23797W        W96123  23.825  43.814  13.154
23798W        W96124   2.921  24.091   3.976
23799W        W96125   0.633   7.595   0.171
23800W        W96126  12.315  38.049  13.952
23801W        W96127   4.167  25.985  12.111
23802W        W96128  27.060  13.701   4.579
23803W        W96129   1.441   3.448  14.876
23804W        W96130  21.605  21.033   1.351
23805W        W96131  27.588  20.651   3.196
23806W        W96132  32.886   4.290  14.341
23807W        W96133   0.308  16.388  13.855
23808W        W96134   8.676  13.338  14.410
23809W        W96135  23.175  30.236  13.014
23810W        W96136  21.141  12.577   2.357
23811W        W96137  38.034   9.320  12.789
23812W        W96138  41.068  42.404   2.515
23813W        W96139  32.886  17.694   3.002
23814W        W96140  23.988  44.500  10.629
23815W        W96141  18.495  19.299  10.756
23816W        W96142  30.112  21.654  14.268
23817W        W96143  10.840  19.659   3.015
23818W        W96144   0.926  31.071   4.563
23819W        W96145  18.938  37.388   3.668
23820W        W96146   0.744  38.423   1.257
23821W        W96147  43.220  10.371  11.031
23822W        W96148   8.951  11.576  10.670
23823W        W96149  34.730  14.074   3.266
23824W        W96150   6.916  15.599  13.383
23825W        W96151  43.112   2.924  14.499
23826W        W96152  13.203  38.452  10.811
23827W        W96153  31.338   4.692  13.438
23828W        W96154  15.421  19.223   2.927
23829W        W96155  35.608  29.636  12.087
23830W        W96156   4.934  17.851  10.619
23831W        W96157  30.406   3.685   4.143
23832W        W96158  22.614   1.194   0.135
23833W        W96159  34.267   4.701  11.125
23834W        W96160   2.785  11.023  13.505
23835W        W96161  13.152  21.006  12.976
23836W        W96162  16.587   2.289   4.297
23837W        W96163  11.401  34.407   0.019
23838W        W96164  10.917   8.527  12.074
23839W        W96165  33.549  19.338   1.272
23840W        W96166  12.989   0.696   0.045
23841W        W96167  23.977  14.280   2.914
23842W        W96168  44.271  21.474  11.510
23843W        W96169  19.569  21.043  14.799
23844W        W96170  20.070  32.827  12.747
23845W        W96171  44.822  17.511   2.643
23846W        W96172  10.357   6.801   3.780
23847W        W96173  29.533  14.387   1.717
23848W        W96174  34.469  31.381   4.501
23849W        W96175   8.350  23.194   1.129
23850W        W96176  20.205   5.426   0.719
23851W        W96177   8.766   0.154   0.822
23852W        W96178  10.822   0.909   0.475
23853W        W96179   7.746  34.114  12.866
23854W        W96180  26.654  33.193  11.633
23855W        W96181  31.195  29.322   1.747
23856W        W96182  20.616   2.251   4.648
23857W        W96183  22.752  31.685  11.565
23858W        W96184  25.464   9.329  12.559
23859W        W96185  21.889  23.294   0.225
23860W        W96186  14.157   0.133   3.829
23861W        W96187  21.263   9.280   2.316
23862W        W96188  39.375   7.681  14.354
23863W        W96189   0.769  17.897   2.641
23864W        W96190   4.583  21.618   2.431
23865W        W96191  37.558   3.325  14.849
23866W        W96192  35.063   4.418   4.040
23867W        W96193  27.087   2.039  13.064
23868W        W96194  15.232  43.596   1.916
23869W        W96195  10.251  34.545  14.007
23870W        W96196   3.262   4.408  13.970
23871W        W96197   4.642  40.954  11.180
23872W        W96198   2.632   1.786   9.892
23873W        W96199   4.802   5.010  12.887
23874W        W96200  31.154   9.723   1.437
23875W        W96201  26.482  20.354  12.809
23876W        W96202  41.425  39.437  10.959
23877W        W96203  37.556   6.331   1.015
23878W        W96204  18.599  11.622  11.891
23879W        W96205   6.979  40.317   2.836
23880W        W96206  15.146   9.910   4.081
23881W        W96207  35.192  24.049   2.317
23882W        W96208  31.285   7.722   1.431
23883W        W96209  11.806  36.834   1.002
23884W        W96210  18.274  10.597  14.280
23885W        W96211   6.557  33.660   1.963
23886W        W96212  32.163  38.327   3.661
23887W        W96213  34.924  26.770  12.833
23888W        W96214  32.809  43.012  11.501
23889W        W96215  23.930  44.277  11.422
23890W        W96216   4.755  24.712  10.722
23891W        W96217  20.230  29.435   2.988
23892W        W96218  42.872  36.061   0.538
23893W        W96219  26.556  35.714  12.581
23894W        W96220   9.632  14.461  14.789
23895W        W96221  40.397   1.961   3.365
23896W        W96222   6.219   8.301   3.312
23897W        W96223   4.456  23.282  13.675
23898W        W96224  35.583  25.802  13.427
23899W        W96225  10.931  27.695   4.070
23900W        W96226  31.047  28.706  14.107
23901W        W96227  12.217  11.094   2.905
23902W        W96228  21.471  21.625  14.406
23903W        W96229   3.216  35.617  12.350
23904W        W96230   0.973   9.215   1.718
23905W        W96231  20.614  37.542   1.768
23906W        W96232  19.731   6.028   4.708
23907W        W96233  10.172  37.787  13.921
23908W        W96234  32.961  36.591  13.451
23909W        W96235  14.641   2.861  12.247
23910W        W96236  28.680   9.890  11.954
23911W        W96237   4.307  19.075   0.641
23912W        W96238  27.586   7.313   2.500
23913W        W96239  17.306  40.281  14.912
23914W        W96240   4.008  25.193   0.304
23915W        W96241   3.397  37.539   3.197
23916W        W96242  42.066  40.884  10.523
23917W        W96243  20.360  10.719  14.287
23918W        W96244   7.721  14.387   2.335
23919W        W96245   0.299  23.041  10.638
23920W        W96246  41.849   6.597  12.455
23921W        W96247  34.717  15.680  14.235
23922W        W96248   1.190  30.871  11.222
23923W        W96249  12.838  31.679   2.218
23924W        W96250   8.369  34.341  12.104
23925W        W96251  24.461  17.855   3.720
23926W        W96252   8.606  26.088   2.917
23927W        W96253  19.519  25.677   3.663
23928W        W96254  16.492  41.106   4.198
23929W        W96255   5.204  18.047  12.948
23930W        W96256  24.733  20.079  11.781
23931W        W96257  39.856  23.087   4.675
23932W        W96258  26.442  16.087  12.717
23933W        W96259  38.360  13.894  10.895
23934W        W96260  24.157  24.205   5.137
23935W        W96261  15.330  24.212  13.724
23936W        W96262  22.586  14.659  11.423
23937W        W96263  11.355  21.341   0.885
23938W        W96264  20.109   8.174   3.800
23939W        W96265  10.599  29.560   4.674
23940W        W96266  37.331   4.334   4.173
23941W        W96267  16.744  33.641   2.963
23942W        W96268  35.964  26.189   5.140
23943W        W96269  29.371  30.638  14.284
23944W        W96270  41.719  11.225  13.974
23945W        W96271  35.842  31.983  14.085
23946W        W96272   9.435   0.355   3.257
23947W        W96273  12.361  43.430   0.036
23948W        W96274  15.500  35.623  11.964
23949W        W96275  36.421  30.375   2.282
23950W        W96276  29.916  36.145  14.571
23951W        W96277  16.297  28.101  11.772
23952W        W96278  37.247  12.732   0.360
23953W        W96279  39.917   4.990  11.977
23954W        W96280  31.383  11.361   2.067
23955W        W96281   2.588   7.583  11.883
23956W        W96282  42.927   4.883   0.955
23957W        W96283  19.795  43.888  13.920
23958W        W96284   6.805   5.802  13.095
23959W        W96285  40.667  31.901  10.750
23960W        W96286  13.589  20.772   0.963
23961W        W96287  26.501   8.578  13.004
23962W        W96288  17.021  31.072   0.576
23963W        W96289  24.560  31.700  12.520
23964W        W96290   6.732  21.003  13.278
23965W        W96291  16.260  35.069  13.456
23966W        W96292  21.693  19.469  14.722
23967W        W96293  20.698  41.451  11.497
23968W        W96294  21.721  15.152   1.708
23969W        W96295  32.978   2.386   2.361
23970W        W96296  15.819  38.311   2.216
23971W        W96297  25.368  25.763  14.003
23972W        W96298  24.170  31.954   0.786
23973W        W96299   7.836  26.150  11.958
23974W        W96300   7.367  28.209  14.836
23975W        W96301  35.307  40.513  11.204
23976W        W96302  34.340  38.885   2.530
23977W        W96303  32.789  25.109   0.993
23978W        W96304  28.046  44.561   3.703
23979W        W96305  23.005  40.635   0.824
23980W        W96306   1.780  15.470   2.322
23981W        W96307  30.152  13.146  11.105
23982W        W96308  14.580   3.660   2.342
23983W        W96309   8.227  34.040  10.712
23984W        W96310  36.623  28.976   2.705
23985W        W96311  36.938  40.812  13.932
23986W        W96312  24.304   0.881  14.360
23987W        W96313  18.079  14.797   1.083
23988W        W96314  18.356  27.754   1.904
23989W        W96315  16.638  30.873   3.860
23990W        W96316  42.542  12.200   2.281
23991W        W96317  23.446  31.732  13.496
23992W        W96318  21.925   7.899   2.937
23993W        W96319  14.846   3.279   0.893
23994W        W96320   3.987  32.117  12.885
23995W        W96321  16.341  13.250  12.550
23996W        W96322   5.432  31.724  10.667
23997W        W96323  13.039  28.980   2.836
23998W        W96324  14.665   9.631   3.348
23999W        W96325  18.621  30.201   3.822
24000W        W96326  19.549  25.791   1.395
24001W        W96327  28.376  29.351   4.185
24002W        W96328  20.175   5.960   2.764
24003W        W96329  32.128   6.075  13.646
24004W        W96330  37.503  41.917   2.640
24005W        W96331   6.978   0.596  12.561
24006W        W96332  42.900  34.480  13.398
24007W        W96333  37.560  30.392   0.248
24008W        W96334  32.945  23.992   3.860
24009W        W96335  12.098  28.414   2.616
24010W        W96336   3.470  16.080  11.457
24011W        W96337  30.872  30.560  11.049
24012W        W96338  41.355  25.236  11.804
24013W        W96339  25.150  15.106   1.652
24014W        W96340  21.532  17.666   4.237
24015W        W96341  31.069  17.826   4.520
24016W        W96342   9.639  21.139   4.556
24017W        W96343  21.456  29.474  11.538
24018W        W96344  36.973  32.038   4.600
24019W        W96345  20.344  44.205   2.173
24020W        W96346   9.250  29.581  14.872
24021W        W96347  21.036   2.500  14.013
24022W        W96348  31.631  31.039   4.659
24023W        W96349  37.356  35.720  13.831
24024W        W96350   6.430  13.154   4.735
24025W        W96351  26.081   3.394   0.392
24026W        W96352  23.595  34.433   0.845
24027W        W96353  42.869   2.453   2.592
24028W        W96354  40.685  35.964   0.769
24029W        W96355   3.847   3.050  11.959
24030W        W96356  37.814  31.950  14.770
24031W        W96357  18.582  41.474   2.765
24032W        W96358  27.632  30.194  14.082
24033W        W96359   0.385   9.273  14.738
24034W        W96360   1.065  37.403  14.372
24035W        W96361  36.917  29.512   4.286
24036W        W96362  42.454  40.270   4.328
24037W        W96363  24.528  16.638  12.303
24038W        W96364   4.430  13.890  13.735
24039W        W96365  18.742   8.948   0.850
24040W        W96366  10.092  16.610   4.497
24041W        W96367  19.166  26.263  12.955
24042W        W96368  44.853   9.746  10.752
24043W        W96369   0.835  11.198   2.590
24044W        W96370   2.545   6.812   0.770
24045W        W96371  12.704  42.748  12.399
24046W        W96372   6.818  27.576   2.741
24047W        W96373  12.579  43.484  12.869
24048W        W96374   9.597  35.062  11.068
24049W        W96375  26.953  19.514   1.849
24050W        W96376  15.728  12.207   4.979
24051W        W96377   9.556  17.312  10.689
24052W        W96378  41.995  25.505   3.109
24053W        W96379   3.107  10.233  14.220
24054W        W96380   9.505  30.116   5.107
24055W        W96381  30.581  17.747   1.700
24056W        W96382  20.793  23.430   4.101
24057W        W96383  19.638  38.798  14.830
24058W        W96384  32.948   6.919  12.350
24059W        W96385   3.770  10.552   0.562
24060W        W96386  20.362  10.275   0.899
24061W        W96387  16.784  24.984  13.011
24062W        W96388  15.816  43.354   4.833
24063W        W96389   8.184  33.108   2.891
24064W        W96390   1.966  18.108  10.875
24065W        W96391  14.426  21.537  12.682
24066W        W96392  15.818  29.157  13.744
24067W        W96393  32.380  38.415   0.347
24068W        W96394   1.894  32.546  13.643
24069W        W96395  21.646  16.277   4.096
24070W        W96396  25.198  37.481   1.916
24071W        W96397  24.808  11.912  12.468
24072W        W96398  20.272  25.991   0.846
24073W        W96399  44.467  18.212   2.902
24074W        W96400  11.454  35.306   3.109
24075W        W96401  44.847  21.940   2.893
24076W        W96402  14.331  24.667  11.149
24077W        W96403  21.257   4.739   3.238
24078W        W96404   6.397   5.613  11.933
24079W        W96405  17.204  30.385   3.208
24080W        W96406  20.679  18.987   1.833
24081W        W96407  22.722  23.292  13.793
24082W        W96408  10.867  13.338  11.679
24083W        W96409  23.610  36.063   2.414
24084W        W96410  24.535  39.368  11.933
24085W        W96411   7.026   4.999   2.290
24086W        W96412   7.647   6.759   2.274
24087W        W96413  35.136  31.991   0.823
24088W        W96414  30.998  40.421  10.145
24089W        W96415  41.562  10.907  10.661
24090W        W96416  39.003  30.961   0.892
24091W        W96417   4.654  22.005  14.741
24092W        W96418  31.591  29.603   4.647
24093W        W96419   9.227  32.193   0.327
24094W        W96420  15.356  19.361  12.214
24095W        W96421  28.183  23.481   4.660
24096W        W96422  23.338  12.652   0.907
24097W        W96423  35.121  36.952  14.820
24098W        W96424   4.467  34.769  11.950
24099W        W96425  14.746  20.027   4.550
24100W        W96426  36.578   4.325  12.724
24101W        W96427   9.266  10.140  12.002
24102W        W96428  35.448   5.251   1.350
24103W        W96429  26.476   4.823  14.592
24104W        W96430   8.283  21.572   2.689
24105W        W96431  34.143   1.132  13.869
24106W        W96432  12.044  28.248  10.996
24107W        W96433  17.031   2.933  12.504
24108W        W96434  31.123  18.828  14.185
24109W        W96435  28.931  30.605   0.046
24110W        W96436  16.125  16.051   0.914
24111W        W96437   6.628  22.999   3.192
24112W        W96438  37.666  23.264   1.654
24113W        W96439  15.544  11.921   1.465
24114W        W96440  17.358   7.905  12.328
24115W        W96441  36.128  34.374   3.743
24116W        W96442  14.326   6.822  12.465
24117W        W96443   5.985  28.000   4.523
24118W        W96444   4.842  32.916   0.938
24119W        W96445  30.474  25.928  11.772
24120W        W96446  30.669  44.016  10.979
24121W        W96447  32.429  16.144   3.591
24122W        W96448  42.179   7.905  12.490
24123W        W96449  44.007  12.425   0.551
24124W        W96450   6.666   8.940  12.428
24125W        W96451  31.594  33.386   0.794
24126W        W96452  22.990  37.169  10.016
24127W        W96453  31.944   0.867   3.117
24128W        W96454   8.250  11.630   0.405
24129W        W96455  12.408  39.300  13.466
24130W        W96456  34.625  35.743   9.743
24131W        W96457  40.770   2.490  10.748
24132W        W96458  30.768  21.255   4.156
24133W        W96459   2.271  36.832   0.266
24134W        W96460   2.993  39.945  11.121
24135W        W96461  28.173  34.466   2.487
24136W        W96462   2.721   1.228  12.423
24137W        W96463   1.987  32.467  12.406
24138W        W96464  25.141  29.329  13.433
24139W        W96465  42.791  26.255  14.605
24140W        W96466  37.921  30.340  12.623
24141W        W96467   7.204  22.509   4.194
24142W        W96468  17.359  17.308   1.292
24143W        W96469  27.972  13.878  12.381
24144W        W96470  28.946  40.351  12.487
24145W        W96471  26.097  27.792  11.952
24146W        W96472  10.357   2.119   0.326
24147W        W96473  44.020   6.386  14.918
24148W        W96474  39.808   3.531   5.039
24149W        W96475  23.095   2.762  11.568
24150W        W96476   6.197  34.483   1.879
24151W        W96477  24.058  31.961  12.999
24152W        W96478  40.372  25.928   2.496
24153W        W96479  38.079  12.472   0.034
24154W        W96480  25.530  10.655  14.745
24155W        W96481  26.790  14.847  14.390
24156W        W96482  26.059  40.086  14.534
24157W        W96483   9.162  25.901   1.267
24158W        W96484   2.347  32.801   3.964
24159W        W96485  11.214   9.613  11.483
24160W        W96486  40.104  33.327   0.419
24161W        W96487   8.714  32.084   0.495
24162W        W96488  12.912   5.961  12.651
24163W        W96489  41.327  36.540  14.498
24164W        W96490  43.696   4.850  13.582
24165W        W96491   4.476  39.060  13.365
24166W        W96492  16.143  25.432   4.293
24167W        W96493  15.579  30.906   2.224
24168W        W96494   6.996  32.546  14.927
24169W        W96495   1.375  19.195   0.265
24170W        W96496  25.756  38.548  14.020
24171W        W96497  26.369  10.050  12.857
24172W        W96498  11.510  24.115   3.771
24173W        W96499   8.307  42.250  14.323
24174W        W96500  21.098  12.590   3.271
24175W        W96501  24.385   7.658  14.784
24176W        W96502  41.840   0.578   1.025
24177W        W96503  10.760  44.955  10.644
24178W        W96504  36.602   8.845  10.533
24179W        W96505  18.769   6.414   4.556
24180W        W96506  25.954  24.601   1.418
24181W        W96507  36.988  31.511   4.603
24182W        W96508  10.298   8.956  13.347
24183W        W96509  39.988  30.681  10.695
24184W        W96510  21.067  39.369   4.075
24185W        W96511  29.771   9.625   1.865
24186W        W96512   7.280  34.415  11.580
24187W        W96513  22.556  13.903  11.959
24188W        W96514  29.731  29.929  13.030
24189W        W96515  24.669   6.286  12.055
24190W        W96516   9.764  27.056   3.571
24191W        W96517  17.223   6.127  10.810
24192W        W96518  24.172  30.891   0.796
24193W        W96519  32.199   2.808   0.306
24194W        W96520  40.536  43.590  14.346
24195W        W96521  14.758  20.744  13.112
24196W        W96522   1.172  26.119   1.338
24197W        W96523  30.651  23.416  13.024
24198W        W96524  44.294   6.977   0.308
24199W        W96525   7.403  42.444   0.778
24200W        W96526  41.381   6.284   3.276
24201W        W96527  35.782  22.720  10.774
24202W        W96528  14.116  26.160   5.088
24203W        W96529  31.580   7.773  12.346
24204W        W96530  22.558   5.699  12.855
24205W        W96531   4.650  25.123   0.779
24206W        W96532  13.781  29.488   3.224
24207W        W96533   4.799  37.953  10.581
24208W        W96534  28.877  15.865   1.383
24209W        W96535  32.078  35.988  14.699
24210W        W96536  34.332  23.762   0.283
24211W        W96537  23.536   7.280  10.769
24212W        W96538   9.340  35.516  12.115
24213W        W96539  39.851  17.061  11.603
24214W        W96540  21.453  41.999  13.898
24215W        W96541  39.216  12.693   1.387
24216W        W96542  17.994  22.094   4.300
24217W        W96543   1.155   7.469   2.313
24218W        W96544  13.663   3.688   4.443
24219W        W96545  36.927  12.383   0.674
24220W        W96546  44.709   1.849  14.214
24221W        W96547   3.019  15.140  12.935
24222W        W96548  22.025  44.413   2.780
24223W        W96549   1.455  40.730  11.897
24224W        W96550  34.912  39.581  10.670
24225W        W96551   1.305  29.166  13.425
24226W        W96552  36.570   3.352   3.216
24227W        W96553   0.927  22.507  11.295
24228W        W96554  15.520  33.994   3.577
24229W        W96555   4.259  14.628  12.865
24230W        W96556  15.819  31.593  11.536
24231W        W96557  34.111  42.658   0.683
24232W        W96558  33.054  44.287   2.158
24233W        W96559  40.911  19.527   2.330
24234W        W96560  26.964   4.878  13.341
24235W        W96561   3.315  34.539  12.398
24236W        W96562   0.686   9.681  12.999
24237W        W96563  17.516  36.401   3.717
24238W        W96564  33.567  27.909  12.986
24239W        W96565  17.162  33.586  13.983
24240W        W96566  15.010  30.640   0.499
24241W        W96567  32.458  15.794  13.002
24242W        W96568  20.111  31.849  12.061
24243W        W96569  15.398  12.130  13.389
24244W        W96570  43.748  43.814  12.064
24245W        W96571  16.598  10.125   4.241
24246W        W96572  33.609  17.263   1.137
24247W        W96573  23.728  44.504   4.596
24248W        W96574  15.302  43.727  14.406
24249W        W96575  25.988   8.842   2.549
24250W        W96576  42.826  18.530   4.841
24251W        W96577   7.766  34.946   2.631
24252W        W96578  37.333  24.140  12.173
24253W        W96579  22.891  38.905  10.448
24254W        W96580  23.477  14.302   1.700
24255W        W96581  41.776  39.835  11.850
24256W        W96582  11.087  40.382  13.852
24257W        W96583  37.891   5.369   4.646
24258W        W96584  10.626  32.881  13.248
24259W        W96585  16.080  19.803  14.733
24260W        W96586  19.146  36.396  10.349
24261W        W96587  28.665  15.062  11.780
24262W        W96588  19.251  32.314  14.417
24263W        W96589   2.509   2.280   0.821
24264W        W96590  16.242  28.687   4.577
24265W        W96591  28.909  35.503   3.710
24266W        W96592  43.553   7.758   2.173
24267W        W96593  19.097  11.944  13.850
24268W        W96594  30.023  44.640  12.593
24269W        W96595   7.185  18.209   2.138
24270W        W96596  12.299  24.759   0.953
24271W        W96597  33.531  29.107  13.826
24272W        W96598  23.076  42.261   2.468
24273W        W96599   6.250   8.913  11.109
24274W        W96600  18.182  15.930   2.327
24275W        W96601  37.610   0.319  10.704
24276W        W96602  33.619  33.572  13.875
24277W        W96603   1.642  19.240  13.612
24278W        W96604   2.213  32.026   4.889
24279W        W96605  26.658   7.183   4.632
24280W        W96606   7.796  13.342  13.054
24281W        W96607   2.938  10.126  12.070
24282W        W96608  12.394  37.394  10.968
24283W        W96609  11.651  10.666  10.117
24284W        W96610  26.050  22.783   0.751
24285W        W96611  31.515  43.602  13.774
24286W        W96612  43.713  15.968  12.064
24287W        W96613  28.156  25.094  11.139
24288W        W96614  10.187  43.361  12.529
24289W        W96615  36.046  10.955   4.179
24290W        W96616   1.538  20.492   3.333
24291W        W96617  44.364   5.200  10.615
24292W        W96618  26.013  19.860   3.787
24293W        W96619  22.731   3.340  11.207
24294W        W96620  36.396  44.517   3.209
24295W        W96621  19.388  25.600  14.240
24296W        W96622   0.510  12.295   4.176
24297W        W96623  19.761  11.816   3.615
24298W        W96624   9.629  27.244   0.100
24299W        W96625  11.663  33.926   4.552
24300W        W96626  32.438  13.814  13.405
24301W        W96627   4.741  17.090  12.081
24302W        W96628  27.728  40.533  13.608
24303W        W96629  22.332   1.720   2.287
24304W        W96630  24.079  22.536  12.724
24305W        W96631  12.129  41.672   1.408
24306W        W96632  16.859  18.186   4.103
24307W        W96633   2.881   9.412  14.804
24308W        W96634  20.436  41.576  14.974
24309W        W96635  15.005  18.088   2.750
24310W        W96636  23.295  41.494   0.175
24311W        W96637  26.338  10.854  13.056
24312W        W96638  13.457  24.582   4.554
24313W        W96639   3.788   5.628  12.840
24314W        W96640  15.139  20.507   0.769
24315W        W96641  14.996  11.771   4.085
24316W        W96642   5.200  28.063   0.287
24317W        W96643  13.834  29.891  12.620
24318W        W96644  20.785   2.588   3.559
24319W        W96645   8.923   9.824  14.036
24320W        W96646  37.941  21.019  12.054
24321W        W96647  10.901  16.296   3.632
24322W        W96648  38.537  20.636  13.037
24323W        W96649  17.070  30.867  13.413
24324W        W96650   8.121  35.927  12.291
24325W        W96651  17.006  19.888  11.454
24326W        W96652  32.903  19.266   0.296
24327W        W96653  27.065  25.032  11.551
24328W        W96654  27.690  16.330  13.648
24329W        W96655  34.524  33.602  12.401
24330W        W96656  33.565  19.315  11.671
24331W        W96657  12.507  42.045  10.829
24332W        W96658   5.462  37.860  12.446
24333W        W96659  32.580  13.168   1.770
24334W        W96660  27.691  22.586  10.556
24335W        W96661   1.184  26.500   0.341
24336W        W96662  43.505   0.363   3.247
24337W        W96663  19.190  14.483   3.281
24338W        W96664  36.973  29.423  12.863
24339W        W96665   2.404   1.550  11.152
24340W        W96666  29.582   0.491   1.558
24341W        W96667  19.333  10.224   1.906
24342W        W96668   7.777  36.602   2.219
24343W        W96669   8.843  11.084   4.191
24344W        W96670  38.329  19.093   3.923
24345W        W96671  38.072  44.287   1.503
24346W        W96672  15.086  44.084   1.776
24347W        W96673  32.144  19.286  14.330
24348W        W96674  10.853  25.922  13.095
24349W        W96675  35.069  31.030  14.882
24350W        W96676  16.567   3.951  11.231
24351W        W96677  33.596  30.953  11.262
24352W        W96678  37.007   6.912  11.579
24353W        W96679  28.600  20.352   2.218
24354W        W96680  30.994  40.268   3.652
24355W        W96681  40.746  33.501  11.991
24356W        W96682  22.064  22.458  11.902
24357W        W96683  10.534  16.855   3.089
24358W        W96684  16.390   9.828  14.051
24359W        W96685  28.979  20.641  10.727
24360W        W96686  30.166  29.632   0.649
24361W        W96687  31.539  28.063   4.539
24362W        W96688  25.128  18.219   0.324
24363W        W96689  31.933  23.624   4.584
24364W        W96690  23.040  42.026   4.624
24365W        W96691  18.076  12.376  11.903
24366W        W96692  15.367   5.201   4.056
24367W        W96693  11.379  23.743  11.437
24368W        W96694  11.299  16.173  14.939
24369W        W96695   1.592  18.752   5.078
24370W        W96696  12.104   9.905   1.683
24371W        W96697  10.324  13.699  13.303
24372W        W96698  24.665  35.994  11.676
24373W        W96699  28.017  22.402   1.035
24374W        W96700  34.353  44.721   2.860
24375W        W96701  25.138  24.589  12.379
24376W        W96702  23.783   2.871  10.654
24377W        W96703   2.454  40.629   4.176
24378W        W96704  16.261  43.809  13.753
24379W        W96705  29.925  16.991  14.470
24380W        W96706  16.506  39.823  14.955
24381W        W96707  12.084  13.041   4.223
24382W        W96708  21.454  40.019  11.456
24383W        W96709  28.303  26.979  13.653
24384W        W96710  23.711  26.691   4.498
24385W        W96711  30.853  44.594  13.534
24386W        W96712  27.764  17.658  13.000
24387W        W96713  29.948  38.243   0.415
24388W        W96714  33.079  14.673   3.912
24389W        W96715  33.518   1.399   4.898
24390W        W96716  33.461  18.721  13.854
24391W        W96717  14.081  35.570   0.281
24392W        W96718  21.036  43.022   1.436
24393W        W96719  32.946  32.933   1.011
24394W        W96720  30.608  20.619   0.432
24395W        W96721  24.084  22.068  12.553
24396W        W96722   6.333  22.124  10.902
24397W        W96723  33.437   1.990  13.046
24398W        W96724  28.998  13.591  11.646
24399W        W96725  21.648  15.902  11.593
24400W        W96726   1.693  11.178   5.339
24401W        W96727  13.323   2.676  14.906
24402W        W96728  28.370  39.536   0.859
24403W        W96729  36.420  18.030   4.888
24404W        W96730  29.127  18.603   1.022
24405W        W96731   7.423  22.810   4.584
24406W        W96732  34.901  41.058   3.735
24407W        W96733  37.063  19.521  11.220
24408W        W96734  38.914  35.397  13.886
24409W        W96735  17.043   4.784   3.237
24410W        W96736  25.584  20.123   1.918
24411W        W96737  35.535   3.788  10.764
24412W        W96738   9.789   9.760   2.643
24413W        W96739  38.660  35.478  14.581
24414W        W96740  18.711  18.472   1.953
24415W        W96741  13.355  12.810   0.224
24416W        W96742  15.763  27.198  14.476
24417W        W96743  17.416  33.971  10.635
24418W        W96744   3.217  37.759   1.493
24419W        W96745  19.688   1.493   1.842
24420W        W96746   8.662   4.952   4.953
24421W        W96747  18.796  29.634   4.486
24422W        W96748  22.506  28.652  10.764
24423W        W96749   5.707  15.134   0.891
24424W        W96750  22.401  16.262  14.600
24425W        W96751  43.747  33.950  12.100
24426W        W96752  41.830  10.006   3.278
24427W        W96753  26.887  26.338  12.418
24428W        W96754  40.060  22.473  13.100
24429W        W96755  32.143   5.371   0.812
24430W        W96756  41.345   7.786  12.364
24431W        W96757  26.681  21.739   3.490
24432W        W96758  32.141  27.546  13.284
24433W        W96759   1.812  33.384   2.753
24434W        W96760   9.825  27.359   2.978
24435W        W96761  27.588  39.935   0.864
24436W        W96762   1.530  44.039   1.042
24437W        W96763  18.887  16.133  13.036
24438W        W96764  38.645   3.276   4.223
24439W        W96765  39.143  19.543   2.683
24440W        W96766  40.825  15.641   0.818
24441W        W96767  27.420  37.900   2.206
24442W        W96768  38.647  13.374  14.300
24443W        W96769  22.608  14.070  14.375
24444W        W96770  26.679  28.509  10.670
24445W        W96771   8.021  36.196   0.951
24446W        W96772  40.728  31.898  11.293
24447W        W96773  14.604  39.828   1.933
24448W        W96774   4.922  24.663   0.845
24449W        W96775  36.726  12.729   0.330
24450W        W96776  12.496  24.968  14.935
24451W        W96777  41.830  36.321  11.681
24452W        W96778   1.375  15.711   4.198
24453W        W96779  29.637  32.377  13.008
24454W        W96780  38.246   2.979   2.624
24455W        W96781  29.427  24.747  13.063
24456W        W96782  25.685   2.819   3.205
24457W        W96783  43.345  35.743  10.951
24458W        W96784  31.594  36.397  14.547
24459W        W96785  19.803  44.488  14.365
24460W        W96786   5.197  27.010   0.897
24461W        W96787  22.037  36.119   2.653
24462W        W96788  32.419   5.221  11.133
24463W        W96789  31.198  35.765  10.260
24464W        W96790  41.355  38.728  12.202
24465W        W96791  32.617  22.618   0.579
24466W        W96792  35.523  28.850   1.903
24467W        W96793  22.510   1.781  13.756
24468W        W96794  27.528  25.955   9.620
24469W        W96795  17.016  26.591  13.964
24470W        W96796  41.923  28.474   3.331
24471W        W96797  21.243  11.562  11.878
24472W        W96798  29.686  37.115   1.217
24473W        W96799  29.332  20.006   1.904
24474W        W96800  34.940   4.478   1.288
24475W        W96801   6.880  18.753   4.615
24476W        W96802  44.410   6.467  11.514
24477W        W96803   0.265  27.186  11.630
24478W        W96804   3.724  30.887  11.023
24479W        W96805   5.267  34.740  10.764
24480W        W96806   7.249  28.184  12.863
24481W        W96807  40.327  22.005  12.055
24482W        W96808  27.057  22.798   0.886
24483W        W96809  22.542   4.802  13.359
24484W        W96810  17.982  20.915   3.706
24485W        W96811  10.689  27.962   3.119
24486W        W96812  38.035  11.798   1.244
24487W        W96813   2.098  24.712  12.066
24488W        W96814  43.508  31.579  11.513
24489W        W96815  36.156  21.674   0.893
24490W        W96816  13.403   6.366   2.807
24491W        W96817  39.352  38.695   0.677
24492W        W96818   5.919  22.787   4.557
24493W        W96819  19.109  28.180   4.743
24494W        W96820  21.783  12.722   2.306
24495W        W96821  44.092  36.993   2.762
24496W        W96822  17.158  29.057   2.178
24497W        W96823  31.640  13.907   2.378
24498W        W96824   1.852  35.567   1.957
24499W        W96825   5.211  13.718  12.926
24500W        W96826  12.588  42.251   2.331
24501W        W96827  39.042  15.706   3.159
24502W        W96828   3.945  37.488   2.561
24503W        W96829  37.329  11.875  12.575
24504W        W96830  28.708  22.077  13.442
24505W        W96831  21.119  20.235  13.267
24506W        W96832  23.200  11.779   0.905
24507W        W96833  19.656  15.513  11.605
24508W        W96834  25.073   3.248   2.454
24509W        W96835  35.976  30.683  14.304
24510W        W96836  18.286  35.104  13.422
24511W        W96837  43.321  13.806  13.952
24512W        W96838  17.147   9.263  12.024
24513W        W96839  36.602  13.759  13.068
24514W        W96840  10.655  42.270  12.204
24515W        W96841  37.508  22.360  11.558
24516W        W96842   3.929  12.773  11.320
24517W        W96843  33.580  32.430  14.505
24518W        W96844  20.318  37.899   4.654
24519W        W96845   7.072  13.388   2.553
24520W        W96846  42.410  21.196  10.625
24521W        W96847  44.821  23.949   1.323
24522W        W96848  26.394  34.147   4.177
24523W        W96849  27.942  10.070   0.079
24524W        W96850  19.164   8.614   3.637
24525W        W96851  33.230  23.754   4.465
24526W        W96852  16.842  28.250   2.363
24527W        W96853   4.942  38.626  12.028
24528W        W96854   4.675  22.160  12.847
24529W        W96855  12.843  18.504  10.748
24530W        W96856  18.108   3.983  10.917
24531W        W96857  30.642  30.421   0.367
24532W        W96858  40.967  12.736  14.483
24533W        W96859  40.542  35.066   0.273
24534W        W96860  36.416  27.472  14.977
24535W        W96861   6.802  24.857   4.512
24536W        W96862  30.657   6.845  11.531
24537W        W96863  39.501  32.686  10.364
24538W        W96864  25.025  21.950  10.616
24539W        W96865  38.865   9.885  12.648
24540W        W96866  14.069  14.339  14.562
24541W        W96867  14.275  21.579  13.208
24542W        W96868  18.274  29.201   1.429
24543W        W96869   7.256  11.395   4.182
24544W        W96870  28.260  23.412   0.566
24545W        W96871  31.980  43.564  11.672
24546W        W96872  35.927  28.873   4.843
24547W        W96873  35.873  21.292   1.736
24548W        W96874  30.664  22.069  12.370
24549W        W96875  39.147  33.204  14.565
24550W        W96876  24.193  42.289  14.332
24551W        W96877  39.278  27.591   1.440
24552W        W96878   4.755  16.498   1.145
24553W        W96879  35.114  34.135   0.500
24554W        W96880  25.709  36.920   0.836
24555W        W96881   1.392   0.252   4.659
24556W        W96882  31.529  31.024   0.663
24557W        W96883   3.264  11.611  14.348
24558W        W96884  20.356   0.411   3.387
24559W        W96885  26.523  25.532  13.344
24560W        W96886   9.210  26.556   3.123
24561W        W96887  13.694  18.164  12.323
24562W        W96888  32.471  16.861   4.172
24563W        W96889  36.546   8.934  12.863
24564W        W96890   3.157  29.449  14.287
24565W        W96891  21.667  30.171   4.730
24566W        W96892   5.787  10.112  10.461
24567W        W96893  11.058  30.067   2.715
24568W        W96894   1.380  15.085   1.126
24569W        W96895  41.499  16.247   3.287
24570W        W96896  31.556  22.211   3.305
24571W        W96897  16.866   1.713  14.659
24572W        W96898  29.622  19.410  14.333
24573W        W96899  12.245  33.809  10.680
24574W        W96900   6.617  15.076   2.265
24575W        W96901   2.787  17.170   0.978
24576W        W96902  17.774  26.688  10.574
24577W        W96903  22.495   9.767  12.808
24578W        W96904  23.943   1.754   0.422
24579W        W96905   0.726  25.990  12.213
24580W        W96906  28.301   1.688   2.120
24581W        W96907  17.472  13.248   9.925
24582W        W96908  33.410  39.924   4.406
24583W        W96909  23.022  13.331   1.813
24584W        W96910  32.035  42.024  11.790
24585W        W96911  27.198  10.787  10.636
24586W        W96912  18.702  22.059  14.367
24587W        W96913  42.475   1.217  11.596
24588W        W96914  24.011  23.585  14.377
24589W        W96915   8.485   6.958  12.160
24590W        W96916   1.419  21.391  11.150
24591W        W96917  44.518  34.094   0.361
24592W        W96918  19.278  43.492  11.872
24593W        W96919   2.470   3.699  11.536
24594W        W96920   1.817   7.525  12.986
24595W        W96921  18.017  13.736   1.895
24596W        W96922  26.139  21.993  11.915
24597W        W96923   2.716  14.041  11.984
24598W        W96924  42.421  42.950   1.273
24599W        W96925  34.108  17.151   0.994
24600W        W96926  38.091  43.209  10.733
24601W        W96927  18.801  18.867   3.831
24602W        W96928  10.225  27.707   1.732
24603W        W96929  41.122  17.158   3.145
24604W        W96930  42.233   0.507   0.728
24605W        W96931  41.944  10.596   4.628
24606W        W96932   0.805  25.699   0.562
24607W        W96933  42.708  24.022   0.976
24608W        W96934  39.435   0.955  13.378
24609W        W96935  27.084   7.887   1.800
24610W        W96936   6.731  11.636   0.252
24611W        W96937  37.940  30.718   3.214
24612W        W96938  21.161   9.149   3.216
24613W        W96939  20.932  24.346   0.472
24614W        W96940  25.331  37.336  12.545
24615W        W96941  24.036   4.483  12.803
24616W        W96942  39.649  22.543  11.571
24617W        W96943  10.795  28.562   2.247
24618W        W96944  36.181   8.676  11.607
24619W        W96945  14.844  32.629   1.294
24620W        W96946  39.010  24.558   1.404
24621W        W96947   5.418   8.174  14.465
24622W        W96948  22.601  12.153   0.847
24623W        W96949  42.084  16.127   4.718
24624W        W96950  17.349  42.840  11.706
24625W        W96951  29.688  36.038  10.728
24626W        W96952   1.949  39.835   2.931
24627W        W96953   1.881  25.753  13.050
24628W        W96954   0.014  33.457   3.268
24629W        W96955  15.506  13.322  14.956
24630W        W96956  38.018  42.415  14.453
24631W        W96957   4.558  22.653  12.987
24632W        W96958   8.111  34.637   2.834
24633W        W96959  21.044   4.349   1.324
24634W        W96960  10.390  17.547   2.271
24635W        W96961  30.403  32.246  13.488
24636W        W96962  25.188  41.851  11.598
24637W        W96963  41.297  13.896  13.103
24638W        W96964  15.741  34.083   0.944
24639W        W96965  33.551  35.135  11.974
24640W        W96966  31.644  14.886  11.702
24641W        W96967  27.424  26.169   4.141
24642W        W96968  39.266   8.311   3.870
24643W        W96969  26.658  28.042   0.040
24644W        W96970   5.919  15.120  12.460
24645W        W96971   2.858  17.596   4.187
24646W        W96972  19.714  16.462   3.403
24647W        W96973   2.446  33.901  14.871
24648W        W96974  24.515   5.807   1.312
24649W        W96975  42.438  42.831  11.562
24650W        W96976   6.700  33.635   2.467
24651W        W96977  25.110  43.307  12.644
24652W        W96978  41.084  31.855  11.650
24653W        W96979  18.619  34.327  11.083
24654W        W96980  13.663  16.261   2.103
24655W        W96981  21.664  20.296   2.394
24656W        W96982  26.781  17.170   2.817
24657W        W96983  43.477   6.008   0.167
24658W        W96984  32.609  17.071  14.325
24659W        W96985  18.341  43.833  11.048
24660W        W96986  43.814  29.933   3.840
24661W        W96987   5.696  14.300  12.396
24662W        W96988  23.450   9.864   2.814
24663W        W96989  15.898  17.461  13.563
24664W        W96990  31.384  35.107   2.646
24665W        W96991  16.132  37.898   2.396
24666W        W96992   2.720  22.951   5.114
24667W        W96993  12.849  44.802  12.847
24668W        W96994  14.292  41.338   2.737
24669W        W96995   9.416  39.990   4.541
24670W        W96996  22.922  44.365   0.042
24671W        W96997   9.651  29.479  12.167
24672W        W96998   4.692  19.393   2.420
24673W        W96999  44.980   5.897  14.974
24674W        W97000  24.231  12.999  11.436
24675W        W97001   7.664  23.688  14.081
24676W        W97002   3.791  39.891  13.369
24677W        W97003   2.913  16.619  11.051
24678W        W97004  42.033  37.150   2.131
24679W        W97005  14.065  40.020  13.733
24680W        W97006  14.702  11.683  12.393
24681W        W97007  40.226   7.699   0.040
24682W        W97008  42.299   3.689  12.127
24683W        W97009   6.177  41.996  14.417
24684W        W97010  26.445  40.336   1.931
24685W        W97011  17.616  14.595  11.512
24686W        W97012  17.641  10.166  10.618
24687W        W97013  35.365  32.083   1.286
24688W        W97014  11.579  25.642  12.739
24689W        W97015  40.381  24.479  12.578
24690W        W97016  30.850   3.663  14.306
24691W        W97017   7.765   1.709   0.722
24692W        W97018  32.264   7.810   4.813
24693W        W97019  28.897  20.722   0.843
24694W        W97020  26.082  14.044   4.130
24695W        W97021  24.977  40.662  11.864
24696W        W97022  37.779  33.517   2.843
24697W        W97023  32.132  39.940   1.614
24698W        W97024  13.273  43.122   1.662
24699W        W97025  33.944  14.253   1.293
24700W        W97026  36.835  10.628  12.580
24701W        W97027  27.013  42.548   3.147
24702W        W97028  14.886  26.689  11.562
24703W        W97029  37.553  36.959  14.288
24704W        W97030  28.116  27.536   0.847
24705W        W97031  29.512  30.003  12.344
24706W        W97032   4.449  22.657   9.717
24707W        W97033  28.727  44.036  11.032
24708W        W97034  32.122  19.470  11.542
24709W        W97035  30.492   8.720  11.323
24710W        W97036  16.540  20.693   3.372
24711W        W97037  14.540  40.340   1.842
24712W        W97038   9.671  19.762  14.371
24713W        W97039  14.134  42.386   2.839
24714W        W97040  12.193  29.600   4.698
24715W        W97041   3.280  39.430   1.212
24716W        W97042  16.821   5.803   3.578
24717W        W97043  13.320  23.134  14.409
24718W        W97044  35.359   6.714  14.233
24719W        W97045  37.347  38.432   0.980
24720W        W97046  16.033  11.828   2.802
24721W        W97047  40.795   0.382   3.206
24722W        W97048  38.498  23.993   3.407
24723W        W97049  30.096  22.753  10.604
24724W        W97050  21.265  42.471  11.352
24725W        W97051  24.573  20.714   2.231
24726W        W97052  44.853  41.479   0.758
24727W        W97053  42.278   2.716  13.999
24728W        W97054  34.530  32.591   0.453
24729W        W97055  17.874   3.917  11.390
24730W        W97056  26.183  34.618  11.556
24731W        W97057  12.848  41.394   0.970
24732W        W97058   4.321  19.471  11.117
24733W        W97059  28.412  30.425   0.793
24734W        W97060  25.454  10.108   0.982
24735W        W97061  44.438  15.216  10.565
24736W        W97062   2.195  38.110  10.959
24737W        W97063  28.071  31.734   0.253
24738W        W97064  35.681  15.932  11.949
24739W        W97065   3.719  35.068   1.826
24740W        W97066   9.653  41.354   4.718
24741W        W97067  24.319  42.901  12.410
24742W        W97068  24.618   6.347   0.936
24743W        W97069   8.767   1.215  10.385
24744W        W97070  17.801  37.547  10.911
24745W        W97071  17.686  41.911   2.397
24746W        W97072  40.792  10.251   4.005
24747W        W97073  29.983   2.237  10.712
24748W        W97074  20.693  28.099   4.845
24749W        W97075  38.487  20.577  14.752
24750W        W97076  38.744  24.284  11.134
24751W        W97077  11.394  24.053   0.341
24752W        W97078  43.858   5.227  11.428
24753W        W97079  25.355   7.173   1.745
24754W        W97080  39.380  31.642  11.971
24755W        W97081  17.517  18.064   2.526
24756W        W97082  15.169  27.290   2.629
24757W        W97083   1.728  14.946   2.309
24758W        W97084  33.292  29.475   3.224
24759W        W97085  32.247  34.359  13.185
24760W        W97086  34.563   0.493   4.176
24761W        W97087   7.830  30.429   0.139
24762W        W97088  18.826  12.260  11.062
24763W        W97089  23.276  39.233  13.481
24764W        W97090  10.775  34.881  11.085
24765W        W97091  40.361   2.662   2.862
24766W        W97092   6.836  27.202  14.353
24767W        W97093   0.787  30.507   1.668
24768W        W97094  34.084  32.098  11.534
24769W        W97095  11.632   9.823  14.447
24770W        W97096  29.550  27.667  11.742
24771W        W97097  21.601  35.596  11.129
24772W        W97098   5.375   8.647   0.852
24773W        W97099  33.414  34.203  11.002
24774W        W97100  12.783  40.246   0.345
24775W        W97101  16.732  18.971   2.667
24776W        W97102  32.046   8.267   3.663
24777W        W97103   1.721  17.810  13.532
24778W        W97104  19.032  27.531   4.563
24779W        W97105  34.079  18.334   0.144
24780W        W97106  42.033  12.237   1.272
24781W        W97107  19.189  27.510   3.989
24782W        W97108  30.866  21.564  12.961
24783W        W97109   3.864  25.005   1.255
24784W        W97110  30.967  18.083   2.786
24785W        W97111   7.982  18.181   0.954
24786W        W97112  42.005  36.511  13.899
24787W        W97113   8.902  28.565  10.557
24788W        W97114  23.032  15.093   2.194
24789W        W97115   3.041   4.241   3.349
24790W        W97116  36.243  30.810   4.957
24791W        W97117  24.795  24.789  11.189
24792W        W97118  34.420  16.007  11.653
24793W        W97119   4.933  12.707   4.845
24794W        W97120   6.662  32.240   2.900
24795W        W97121  18.721  28.504  13.405
24796W        W97122   8.389  11.723   2.832
24797W        W97123  10.047  39.880   1.367
24798W        W97124  25.792  44.620  14.012
24799W        W97125  10.324  16.056  12.815
24800W        W97126  23.104  34.456  13.047
24801W        W97127  11.236   7.390   4.595
24802W        W97128  35.092  27.517   4.224
24803W        W97129  34.431  15.302  12.907
24804W        W97130  15.583  40.005   0.932
24805W        W97131   6.375   8.752  14.419
24806W        W97132  36.836   3.436   1.386
24807W        W97133  15.428   4.261   2.210
24808W        W97134  13.637  11.848   1.448
24809W        W97135  12.252  41.835   4.543
24810W        W97136   8.237  14.579   2.177
24811W        W97137  34.169  21.106   0.324
24812W        W97138   6.536  16.081  12.214
24813W        W97139  30.054   4.385   0.928
24814W        W97140  44.875   4.610   2.689
24815W        W97141  41.453   1.569  11.542
24816W        W97142  32.552  35.116  12.857
24817W        W97143  29.680   0.993   0.785
24818W        W97144   2.206  27.031  14.520
24819W        W97145  39.998  17.829  13.249
24820W        W97146  30.207  43.690  14.335
24821W        W97147   1.861  32.468   3.177
24822W        W97148  34.869  12.820   5.006
24823W        W97149   6.246  12.299   1.889
24824W        W97150  16.561  42.347   1.446
24825W        W97151  10.592  13.817  13.752
24826W        W97152   7.463  10.603  14.875
24827W        W97153   1.254  29.384  12.079
24828W        W97154   4.866   4.863   5.062
24829W        W97155  44.376   3.160   1.699
24830W        W97156  25.082  18.758  13.317
24831W        W97157  16.087  37.019  12.449
24832W        W97158   2.008  41.300  12.092
24833W        W97159  41.995  28.820  10.941
24834W        W97160  33.213   9.220   1.725
24835W        W97161  16.804  19.056   1.165
24836W        W97162  40.533  11.173   3.899
24837W        W97163   5.585  30.315   2.142
24838W        W97164   1.945  23.455  14.360
24839W        W97165  11.393  19.748  12.297
24840W        W97166  37.890   5.963   2.194
24841W        W97167  16.604  12.663   1.338
24842W        W97168  26.556  42.189  11.606
24843W        W97169  25.221   4.602  11.442
24844W        W97170  36.529  37.884   0.933
24845W        W97171  33.830  36.518   2.636
24846W        W97172   8.142   9.835  13.341
24847W        W97173  32.574  37.026   2.438
24848W        W97174  27.767  13.135  10.697
24849W        W97175   0.174  26.666   4.254
24850W        W97176   9.151  24.212   2.933
24851W        W97177  15.632  32.057   2.239
24852W        W97178  43.960  29.162   3.066
24853W        W97179   0.869  44.828  14.919
24854W        W97180  44.243  34.940   0.841
24855W        W97181  14.086  24.105  13.846
24856W        W97182   0.972  35.425  10.977
24857W        W97183   6.932  26.630   2.310
24858W        W97184  36.251  27.152   3.570
24859W        W97185  21.908  41.553  12.848
24860W        W97186  28.687  24.124   1.655
24861W        W97187  31.626  42.290   2.322
24862W        W97188  24.238  41.755   2.349
24863W        W97189  15.327   2.029  12.043
24864W        W97190   2.515   2.925   1.290
24865W        W97191  28.502  23.499   4.196
24866W        W97192   9.915   2.837  13.560
24867W        W97193  25.497  33.007   1.451
24868W        W97194   5.915  13.129  10.742
24869W        W97195  11.613  29.021  13.473
24870W        W97196  11.917  32.675  13.392
24871W        W97197   1.402  11.407   3.860
24872W        W97198   2.840  41.365   0.288
24873W        W97199  42.914  36.379  13.915
24874W        W97200  14.177  11.829  12.482
24875W        W97201  23.547  19.346  13.952
24876W        W97202  30.184   0.928   3.659
24877W        W97203  19.932  35.076   0.490
24878W        W97204  30.892   4.830  14.772
24879W        W97205  29.676  13.598   2.790
24880W        W97206  24.485  38.615  13.094
24881W        W97207  34.998  21.560   3.335
24882W        W97208  19.669   6.570   4.650
24883W        W97209  36.054  32.551  12.841
24884W        W97210   6.154  38.022   2.292
24885W        W97211  36.345  44.864  13.391
24886W        W97212  31.362   4.337   1.356
24887W        W97213   8.024  17.825  12.052
24888W        W97214  31.168   0.933  12.762
24889W        W97215  39.892  14.185   0.421
24890W        W97216  37.297   5.836   1.268
24891W        W97217  28.035   9.239   4.897
24892W        W97218  26.620  28.461   0.378
24893W        W97219   1.179  32.064   0.346
24894W        W97220  41.083  38.056  13.043
24895W        W97221  36.939   0.833   4.537
24896W        W97222   1.016  32.969  13.434
24897W        W97223  29.522  30.560   1.955
24898W        W97224  18.077  14.380  11.602
24899W        W97225   4.376  34.301  10.707
24900W        W97226  25.926  28.916   4.166
24901W        W97227  37.005   7.350   2.643
24902W        W97228  21.968  24.910  13.938
24903W        W97229  13.232  37.884  14.959
24904W        W97230   9.301   4.504   1.202
24905W        W97231   8.821  34.975   2.304
24906W        W97232   0.026  30.650   1.308
24907W        W97233   0.688  35.087  10.652
24908W        W97234  38.738  39.388  12.901
24909W        W97235  16.364  31.094  12.627
24910W        W97236   8.275  20.335   3.148
24911W        W97237  15.922  21.936  13.501
24912W        W97238  31.968  23.984   5.116
24913W        W97239  16.087   6.798   0.966
24914W        W97240  26.150  30.635  14.549
24915W        W97241  26.052  41.591   1.853
24916W        W97242   1.872  33.232  12.007
24917W        W97243  29.945  33.180  11.170
24918W        W97244   4.698  32.955  12.959
24919W        W97245   5.857   7.632   0.012
24920W        W97246  40.021   0.284  14.503
24921W        W97247  37.407  22.479  12.666
24922W        W97248  15.662  14.815  12.993
24923W        W97249  26.449   7.893   2.767
24924W        W97250   7.274  27.514   2.453
24925W        W97251   0.728  43.791   1.344
24926W        W97252   0.278  37.740   2.687
24927W        W97253  23.446  15.198  14.072
24928W        W97254  30.046   5.532  13.112
24929W        W97255  33.386  30.087  12.361
24930W        W97256  26.868  31.979   4.553
24931W        W97257  41.578  24.256   2.283
24932W        W97258  19.554  31.540  12.381
24933W        W97259   1.248  21.414   1.724
24934W        W97260  39.156  21.283  12.038
24935W        W97261  10.383  16.866  13.971
24936W        W97262  26.047  29.594  12.188
24937W        W97263  31.844   5.206   2.653
24938W        W97264  42.224   0.764   1.657
24939W        W97265  42.104  40.067  13.501
24940W        W97266  33.055   3.100   1.860
24941W        W97267  30.470  11.179  12.938
24942W        W97268  13.284  32.068  12.004
24943W        W97269   6.186  26.909   4.264
24944W        W97270  44.449  17.548  13.916
24945W        W97271  33.066   6.248   1.668
24946W        W97272  19.186  19.244  13.123
24947W        W97273  28.446  18.575   1.893
24948W        W97274  25.729  24.762  11.539
24949W        W97275   8.151   0.978   1.755
24950W        W97276   8.237  13.795   1.655
24951W        W97277  21.620   5.743  14.537
24952W        W97278   6.433  29.623   3.246
24953W        W97279   4.745  26.560  11.725
24954W        W97280  11.240  39.465   4.592
24955W        W97281  30.596   7.791  11.793
24956W        W97282  29.150   3.620   3.731
24957W        W97283  24.160  17.880   1.551
24958W        W97284  39.853  39.943   3.207
24959W        W97285  38.390   8.997   1.068
24960W        W97286   3.062   8.297   2.972
24961W        W97287   3.640   4.997   2.832
24962W        W97288  38.083  17.625   4.905
24963W        W97289   1.108  35.885   4.638
24964W        W97290  43.827  34.141   2.923
24965W        W97291  43.844  34.977  10.606
24966W        W97292   5.391   2.564  10.883
24967W        W97293  40.376   2.345   0.411
24968W        W97294  29.927  40.836   2.700
24969W        W97295   5.820  40.013  13.498
24970W        W97296  20.917  19.170  12.651
24971W        W97297  15.362   4.031  10.647
24972W        W97298   4.892  33.434  14.851
24973W        W97299  16.159   7.899  13.864
24974W        W97300  19.946  15.146   2.374
24975W        W97301  15.111  36.959   2.981
24976W        W97302   9.445  13.201  10.695
24977W        W97303  24.152  31.326  10.540
24978W        W97304   3.943  33.051  14.726
24979W        W97305  39.098  16.131   1.247
24980W        W97306  36.931  41.955  11.823
24981W        W97307  43.391  13.951  12.741
24982W        W97308   8.211  19.031   3.513
24983W        W97309  22.540  39.882   4.288
24984W        W97310  16.898   8.674   1.463
24985W        W97311   8.704   7.758  14.247
24986W        W97312   9.117  19.837   3.269
24987W        W97313  32.802  33.789   2.866
24988W        W97314   7.921  24.681  14.982
24989W        W97315  11.773  18.264   4.789
24990W        W97316  17.502  11.215   0.028
24991W        W97317   0.021  35.057  12.050
24992W        W97318  30.034   4.371   1.846
24993W        W97319  12.382   7.592   2.144
24994W        W97320   3.741  38.006   4.602
24995W        W97321  36.612  40.584  10.710
24996W        W97322  12.802  14.612   3.632
24997W        W97323  44.884   1.983   1.929
24998W        W97324   0.567  29.492   0.760
24999W        W97325  18.549  23.009   0.263
25000W        W97326  32.408   3.910   2.863
25001W        W97327  30.608   3.650   2.044
25002W        W97328  13.935  44.931  14.877
25003W        W97329  10.376  24.182   4.484
25004W        W97330  11.716   8.824  11.661
25005W        W97331  17.281  17.700  10.990
25006W        W97332  27.773  28.036   2.790
25007W        W97333  32.370  28.219   4.259
25008W        W97334  10.244  15.058   4.070
25009W        W97335  19.281  38.993   0.135
25010W        W97336  26.331  42.378  13.442
25011W        W97337  33.008  15.916   1.814
25012W        W97338  35.116  44.735   0.369
25013W        W97339   0.002  18.357  12.038
25014W        W97340   0.096   3.641  11.037
25015W        W97341   8.319   7.888  13.297
25016W        W97342  28.211   8.079  11.663
25017W        W97343   9.928  41.983   0.677
25018W        W97344  22.519   2.856  12.083
25019W        W97345  14.952  43.478   2.869
25020W        W97346  15.520  19.918   1.490
25021W        W97347  20.250  13.099   1.184
25022W        W97348  38.065  23.447   1.337
25023W        W97349   5.004  20.879  11.012
25024W        W97350  42.935  20.048  11.820
25025W        W97351  36.120  14.305   1.732
25026W        W97352   8.697  22.482   4.579
25027W        W97353  25.781   3.431   1.223
25028W        W97354  23.552  28.928  14.894
25029W        W97355  15.579  44.346   1.684
25030W        W97356  38.793   4.424  13.023
25031W        W97357  32.301  20.562   4.115
25032W        W97358  29.463  41.046   0.771
25033W        W97359  27.662  10.264   1.446
25034W        W97360  42.788  38.332  11.704
25035W        W97361  34.293  29.192   2.412
25036W        W97362   3.208  29.727   3.690
25037W        W97363  10.213   4.647  10.856
25038W        W97364   9.805  31.586   3.194
25039W        W97365  13.791  31.839  10.961
25040W        W97366  13.120  30.993   1.920
25041W        W97367  39.024  18.951   1.977
25042W        W97368  27.457   0.295  11.983
25043W        W97369  41.180  28.324  11.685
25044W        W97370   2.463   5.429   1.803
25045W        W97371  15.585  16.139   4.592
25046W        W97372  36.558  35.429   3.127
25047W        W97373  28.660   2.029  12.526
25048W        W97374  23.495  16.732   3.213
25049W        W97375  44.552  37.043  13.302
25050W        W97376  12.699  19.085  11.607
25051W        W97377   0.744  26.227  14.060
25052W        W97378  24.906  36.765  10.699
25053W        W97379  12.131  36.538  10.675
25054W        W97380   8.460   0.896   2.652
25055W        W97381  20.471  31.999  10.755
25056W        W97382   9.433  34.734  10.689
25057W        W97383  17.589  36.403  11.900
25058W        W97384  34.250  27.372  13.869
25059W        W97385   6.703  38.748   3.226
25060W        W97386  17.047  19.895   4.509
25061W        W97387  41.554  10.771   4.320
25062W        W97388  44.613  35.858  10.221
25063W        W97389  44.380  24.668  14.094
25064W        W97390   0.066  16.598  14.299
25065W        W97391  37.815  30.017  13.467
25066W        W97392  42.824  43.332  13.102
25067W        W97393   3.721   1.714  10.711
25068W        W97394  20.479  29.436  11.784
25069W        W97395   9.078  22.886  14.875
25070W        W97396  20.299  11.124  13.359
25071W        W97397  38.079  44.270   4.466
25072W        W97398  13.778   6.887  11.163
25073W        W97399   7.261  42.797  11.389
25074W        W97400  37.297  39.166   3.258
25075W        W97401   6.611  43.369  12.323
25076W        W97402  36.740  28.302   4.227
25077W        W97403  27.732  23.646   3.689
25078W        W97404  14.632  37.096  12.901
25079W        W97405  26.541  20.272  11.797
25080W        W97406  12.768  15.540  13.390
25081W        W97407  32.114   4.403   4.731
25082W        W97408  27.043  25.116  13.003
25083W        W97409  14.025  37.824  10.633
25084W        W97410   2.635  17.033   4.821
25085W        W97411   6.174  20.768   3.758
25086W        W97412  34.328  10.463   0.386
25087W        W97413   0.272  11.730  12.519
25088W        W97414  20.940   2.135   0.964
25089W        W97415  22.624  12.204  11.945
25090W        W97416  27.173  18.339  10.696
25091W        W97417  19.067  34.053  14.000
25092W        W97418  12.363  27.504   0.260
25093W        W97419  35.269   8.488   3.303
25094W        W97420  31.948  23.098  13.925
25095W        W97421  11.741  17.087   2.598
25096W        W97422   1.782  23.099  12.446
25097W        W97423  36.728  32.637  10.526
25098W        W97424  31.573   1.465  14.486
25099W        W97425  28.103   2.347  14.528
25100W        W97426  24.782   1.472  12.073
25101W        W97427  33.874  19.787  10.456
25102W        W97428   2.795  34.388  12.424
25103W        W97429  12.284  35.924   3.869
25104W        W97430  40.483  31.397  10.655
25105W        W97431  12.052  36.064   9.687
25106W        W97432  14.106   9.138   4.764
25107W        W97433  17.169  44.500  12.424
25108W        W97434  24.226  21.237  13.133
25109W        W97435  17.759  41.563  10.804
25110W        W97436  11.130  21.847  11.622
25111W        W97437  24.275  19.751  13.443
25112W        W97438  26.442  22.489  11.109
25113W        W97439   2.069  20.036  12.392
25114W        W97440  32.219  25.933  14.068
25115W        W97441  15.691  34.489   3.630
25116W        W97442  32.587  35.423   3.585
25117W        W97443  16.168  42.783   2.752
25118W        W97444   3.425  13.018   3.372
25119W        W97445  21.067  31.903  13.952
25120W        W97446  39.953  24.892  13.458
25121W        W97447  31.872  32.523   2.309
25122W        W97448  34.163  37.396   4.196
25123W        W97449  26.885  34.973   4.807
25124W        W97450  33.798  13.727   3.985
25125W        W97451  15.012  18.766  10.872
25126W        W97452   3.769  44.768   4.314
25127W        W97453  33.914  12.792  12.272
25128W        W97454   6.274  10.721   2.294
25129W        W97455  24.258  30.819  10.601
25130W        W97456  40.197  12.425  14.474
25131W        W97457   4.124   1.784   1.136
25132W        W97458  31.886  17.454   1.938
25133W        W97459  32.110  24.034  10.712
25134W        W97460  11.201  19.845   4.226
25135W        W97461  18.126  18.838  14.248
25136W        W97462  30.034  27.519   5.139
25137W        W97463   4.626  22.165   1.224
25138W        W97464  38.819   9.150  11.462
25139W        W97465   7.434  29.539   0.707
25140W        W97466  26.240  19.782   0.425
25141W        W97467   5.310  30.851   0.817
25142W        W97468  28.529   7.192  12.017
25143W        W97469  35.472  24.468  13.923
25144W        W97470  32.417  18.865   3.675
25145W        W97471  39.319  18.095   1.196
25146W        W97472  31.216  25.247  12.356
25147W        W97473   9.379  23.090   4.533
25148W        W97474  37.285  20.184   4.343
25149W        W97475  17.571  20.625   2.482
25150W        W97476  43.944   3.878  14.943
25151W        W97477  32.573  40.308   2.844
25152W        W97478  24.574   4.216  13.338
25153W        W97479   5.482  16.137   1.816
25154W        W97480  38.045  22.467  13.945
25155W        W97481  42.510  27.027  11.989
25156W        W97482  26.876  35.079  14.676
25157W        W97483  18.306  17.011  13.386
25158W        W97484  40.826  16.013  11.540
25159W        W97485   2.773  28.552   1.690
25160W        W97486   5.383  10.828   0.055
25161W        W97487   7.178  39.019  11.004
25162W        W97488  39.244   9.298  10.688
25163W        W97489  32.543  26.217   2.716
25164W        W97490  20.256  38.056  10.460
25165W        W97491  23.906  15.436   3.738
25166W        W97492  42.244  29.609   1.300
25167W        W97493  38.989  42.721  11.602
25168W        W97494   3.874  11.115  12.044
25169W        W97495  24.191  11.582   0.995
25170W        W97496  14.722  36.793  12.464
25171W        W97497   3.265  15.608   1.894
25172W        W97498  42.499  38.673   3.286
25173W        W97499  19.021   2.816  11.069
25174W        W97500  30.578   0.536   2.893
25175W        W97501  11.951  15.056  11.142
25176W        W97502  19.366  10.715   4.065
25177W        W97503  18.052  22.400  12.911
25178W        W97504   2.966  17.258  12.509
25179W        W97505  12.244  28.424  13.426
25180W        W97506  29.687  29.898   1.405
25181W        W97507  20.066  33.476  13.515
25182W        W97508  18.242  33.639   1.867
25183W        W97509  20.551  32.580   0.941
25184W        W97510  11.517  16.521   3.362
25185W        W97511  27.756  26.719  14.180
25186W        W97512  36.476  40.879  14.825
25187W        W97513  33.617  13.226  12.200
25188W        W97514  37.965  14.741  14.881
25189W        W97515  37.295  14.832  11.072
25190W        W97516  10.736  43.779  12.083
25191W        W97517  41.363  28.240  14.018
25192W        W97518  24.370  15.645  14.971
25193W        W97519   8.850  38.551  12.969
25194W        W97520  36.978  26.531   2.247
25195W        W97521  40.718   0.057   2.080
25196W        W97522  20.726   5.807  11.625
25197W        W97523  31.864  27.592  11.096
25198W        W97524  10.709  22.035   1.858
25199W        W97525  30.914  40.906   2.295
25200W        W97526  18.696  11.395   0.293
25201W        W97527   4.889  40.411  10.394
25202W        W97528  20.198   2.770   0.517
25203W        W97529  10.789  23.495  14.540
25204W        W97530  44.950  15.671   4.425
25205W        W97531  31.645  37.166  12.807
25206W        W97532   0.856  29.096   2.456
25207W        W97533  15.106  15.879   4.163
25208W        W97534   8.032  35.026  13.740
25209W        W97535   6.796   3.989   4.394
25210W        W97536  21.908  28.010   1.907
25211W        W97537   8.756  23.989   2.690
25212W        W97538   3.340  32.452  11.947
25213W        W97539  18.654  26.387   2.876
25214W        W97540   9.826  11.815  10.817
25215W        W97541  30.542  29.617   1.010
25216W        W97542   2.846  34.487   1.038
25217W        W97543  19.702   1.236   2.277
25218W        W97544  12.133  21.230   0.265
25219W        W97545   7.181  28.636  12.624
25220W        W97546  20.635  22.275  14.066
25221W        W97547  11.792   8.241   3.602
25222W        W97548   9.417  15.535  14.988
25223W        W97549  12.325  38.339  11.537
25224W        W97550  29.477  21.230  11.290
25225W        W97551  24.506  12.665   2.245
25226W        W97552   7.864   4.077  11.647
25227W        W97553  39.178   4.229   0.405
25228W        W97554  14.082  40.559   3.146
25229W        W97555  31.487  39.749   4.162
25230W        W97556  37.443  39.448  12.520
25231W        W97557   0.452  13.843  13.646
25232W        W97558  16.601  25.139  11.085
25233W        W97559  12.345   1.943   4.047
25234W        W97560  28.045  11.832   0.400
25235W        W97561  19.469   8.251   1.735
25236W        W97562  38.912  33.448   4.632
25237W        W97563  40.539  30.930  12.580
25238W        W97564  26.219  12.361   1.452
25239W        W97565  39.038  35.168  11.208
25240W        W97566  31.118  41.907  14.335
25241W        W97567  38.314  18.211  13.388
25242W        W97568  14.062  21.114  10.112
25243W        W97569  40.878   4.201  13.426
25244W        W97570  17.880  19.678  14.204
25245W        W97571  33.535  38.095   1.528
25246W        W97572  38.356  16.593   3.878
25247W        W97573  24.134  29.496  12.589
25248W        W97574  34.139   0.526  12.378
25249W        W97575  37.000   3.697   4.203
25250W        W97576  29.066  27.478   2.643
25251W        W97577  32.779  38.824  11.912
25252W        W97578   1.317  29.653  12.532
25253W        W97579  19.322  37.097   0.622
25254W        W97580  17.109   8.663   4.360
25255W        W97581  35.110  28.202   0.634
25256W        W97582  10.058  44.445   0.944
25257W        W97583   9.384  24.342  14.649
25258W        W97584  21.020  29.599   0.882
25259W        W97585  33.145   5.768  10.678
25260W        W97586  20.473  19.677   3.140
25261W        W97587  20.783  32.046   3.741
25262W        W97588  25.280  11.333   1.400
25263W        W97589  19.639  29.541  11.922
25264W        W97590  24.816  18.817  14.773
25265W        W97591  29.580  33.526  11.295
25266W        W97592   9.425  29.925  13.307
25267W        W97593   0.570  38.601  12.936
25268W        W97594  35.211  23.654   2.738
25269W        W97595  24.046   4.825   2.844
25270W        W97596  29.553  12.274  12.896
25271W        W97597  22.905  34.784  14.253
25272W        W97598  40.925  31.118  10.608
25273W        W97599  11.718  35.961  10.049
25274W        W97600  10.800  37.870   1.783
25275W        W97601  34.430  16.716   0.923
25276W        W97602   4.923  25.271  11.284
25277W        W97603  41.775  17.625  14.420
25278W        W97604  11.595  27.091   1.734
25279W        W97605  22.552   6.360  11.236
25280W        W97606   8.076  11.133   0.345
25281W        W97607  26.655  26.601  10.367
25282W        W97608  44.512  35.395  10.025
25283W        W97609  41.013  37.502  11.401
25284W        W97610  42.380  10.650  13.468
25285W        W97611  44.087  20.858   0.239
25286W        W97612  27.909  42.769   2.306
25287W        W97613  38.293  26.217   2.828
25288W        W97614  18.193   0.421   1.077
25289W        W97615  26.093  28.022   0.374
25290W        W97616   8.921  12.388  10.489
25291W        W97617  30.448  20.049   4.842
25292W        W97618   9.618  17.954   1.750
25293W        W97619   5.965  44.294  11.546
25294W        W97620  12.204  36.573   5.511
25295W        W97621  38.633  10.786  11.999
25296W        W97622   1.770   6.184   3.585
25297W        W97623  19.081   9.343   0.173
25298W        W97624  31.321  36.848  14.523
25299W        W97625  36.481  22.055   0.656
25300W        W97626  27.542  11.112   3.675
25301W        W97627   5.706  17.780   4.170
25302W        W97628   1.843  10.790  14.542
25303W        W97629  11.187  38.408   2.793
25304W        W97630  31.137  41.337  10.077
25305W        W97631   3.178   3.208  11.534
25306W        W97632  42.259  40.344   0.402
25307W        W97633  34.320  33.113  11.617
25308W        W97634  27.260  35.739  13.480
25309W        W97635  32.360  22.892  14.737
25310W        W97636   5.938  23.661  14.558
25311W        W97637  33.974  32.102  10.683
25312W        W97638  26.433  37.106  14.099
25313W        W97639  13.168  39.288  11.225
25314W        W97640  14.925  40.019   5.073
25315W        W97641  41.905  33.043  12.526
25316W        W97642  31.628  36.527   4.938
25317W        W97643  13.991  39.300   3.588
25318W        W97644  37.894  38.003   1.250
25319W        W97645  31.827  27.181   4.554
25320W        W97646  19.670  44.103  12.889
25321W        W97647   2.827  36.969  12.833
25322W        W97648  36.034  11.112   2.583
25323W        W97649   4.991  37.526  10.345
25324W        W97650  14.408  40.399   0.063
25325W        W97651  11.369   1.159  13.379
25326W        W97652   6.084   6.353   1.149
25327W        W97653  24.544  22.113  10.631
25328W        W97654  27.098  10.358   0.292
25329W        W97655   8.429  25.113  13.809
25330W        W97656  13.134  31.793  13.482
25331W        W97657   8.623  28.175   4.133
25332W        W97658   6.830  43.505  11.320
25333W        W97659  39.246   0.828   4.893
25334W        W97660  39.988  37.349   4.084
25335W        W97661   4.209  20.607   0.798
25336W        W97662  16.534  34.050   1.152
25337W        W97663  34.311  28.031   4.222
25338W        W97664  43.782  30.316  12.562
25339W        W97665  16.573  40.846  12.566
25340W        W97666  16.724  33.501  14.861
25341W        W97667   9.206  20.710   3.778
25342W        W97668  30.403  29.536   1.506
25343W        W97669  23.514  23.757   0.903
25344W        W97670  38.302  20.125   0.774
25345W        W97671  12.168  10.325  12.116
25346W        W97672  44.565   6.248   0.805
25347W        W97673  16.057  11.379  11.597
25348W        W97674  33.789   4.293   2.162
25349W        W97675  23.616  43.709   4.075
25350W        W97676  33.670   7.266   0.881
25351W        W97677  14.755  29.969   0.038
25352W        W97678  23.053  13.687  14.904
25353W        W97679   8.309  40.942   4.091
25354W        W97680  35.140  36.201  11.129
25355W        W97681   9.179   1.181  11.439
25356W        W97682  13.268  17.693  11.710
25357W        W97683  29.615  33.522   1.710
25358W        W97684   4.589  25.091   1.714
25359W        W97685  27.430  14.743   1.378
25360W        W97686  16.059   0.476  11.191
25361W        W97687   2.135   8.921   2.926
25362W        W97688  36.105  35.994   2.390
25363W        W97689  25.733   8.375  12.564
25364W        W97690   2.362  30.613  12.503
25365W        W97691  24.743  21.535   0.540
25366W        W97692  27.676  37.455   0.483
25367W        W97693  42.490  25.193   3.655
25368W        W97694  18.505   6.776   4.243
25369W        W97695  12.407  29.143  14.387
25370W        W97696  21.101  33.444  14.825
25371W        W97697  38.590   5.665   1.554
25372W        W97698   0.199  37.903   4.529
25373W        W97699  20.204   7.302  13.464
25374W        W97700  13.055   4.162   2.449
25375W        W97701  44.917  24.174  13.996
25376W        W97702  28.894  43.873   5.010
25377W        W97703  39.843  33.558   3.725
25378W        W97704  27.718  27.041  11.072
25379W        W97705  31.410  35.184  12.045
25380W        W97706  18.043  38.523   0.277
25381W        W97707  31.094  34.892  12.365
25382W        W97708  16.677  35.643  11.220
25383W        W97709   2.413   9.238   1.969
25384W        W97710   7.701  16.841  11.909
25385W        W97711  32.999  14.882   0.913
25386W        W97712  14.748  12.483  14.276
25387W        W97713  12.238  31.419  14.942
25388W        W97714  28.277  31.195  14.452
25389W        W97715   3.249  33.828   1.185
25390W        W97716   3.872  34.981  13.382
25391W        W97717  17.885  10.264   1.715
25392W        W97718  31.638  20.182  12.092
25393W        W97719  29.011  13.857  10.750
25394W        W97720  36.249  16.501   3.891
25395W        W97721   8.204  38.398   1.960
25396W        W97722  44.714  24.751   2.317
25397W        W97723  10.793  32.698   2.398
25398W        W97724   2.004  37.513   1.705
25399W        W97725   9.262  16.731  14.936
25400W        W97726  28.176  23.131  13.433
25401W        W97727  38.931  24.055   5.132
25402W        W97728   2.536  26.183   0.995
25403W        W97729  25.963  13.610   0.461
25404W        W97730  10.822   2.904   3.579
25405W        W97731  20.290  24.648   1.906
25406W        W97732  18.582   1.920   0.479
25407W        W97733  21.464  42.940  12.466
25408W        W97734  15.555  26.639   3.145
25409W        W97735   2.685  26.390  11.539
25410W        W97736  37.115  33.962  10.106
25411W        W97737  39.332   2.018   1.041
25412W        W97738   4.731  25.011   3.639
25413W        W97739  24.102  35.209   1.367
25414W        W97740   1.697  26.389  11.664
25415W        W97741  33.953  40.333   2.851
25416W        W97742  12.361  41.563   0.797
25417W        W97743  23.788  31.644  14.490
25418W        W97744   5.941  28.139   3.730
25419W        W97745  20.276   3.063   4.263
25420W        W97746  20.943   6.992   2.746
25421W        W97747  38.845  30.914   3.731
25422W        W97748  35.864   6.744  14.097
25423W        W97749   4.223   7.233   3.104
25424W        W97750   9.702  42.208  14.790
25425W        W97751  39.948  19.867   0.990
25426W        W97752  26.015  35.645  13.144
25427W        W97753   3.642  23.549  14.905
25428W        W97754  26.320  42.176   3.532
25429W        W97755  20.353  40.948   3.190
25430W        W97756   2.248  23.338   1.880
25431W        W97757   1.431  14.733  12.201
25432W        W97758  25.036  11.257   1.853
25433W        W97759   7.192   5.551   4.801
25434W        W97760  37.287   2.484  12.504
25435W        W97761  12.020  12.014   3.240
25436W        W97762  31.420   5.232  14.044
25437W        W97763  37.740  28.638   0.488
25438W        W97764  17.536  34.818  14.319
25439W        W97765   6.231  44.286  13.799
25440W        W97766  10.637  42.452  12.706
25441W        W97767  23.313  43.764   0.861
25442W        W97768  44.678  14.210  13.232
25443W        W97769  37.869  39.351   3.519
25444W        W97770  31.505  22.467  13.472
25445W        W97771   5.162   5.339   1.082
25446W        W97772  33.594  35.290   1.223
25447W        W97773   1.134  22.767   1.652
25448W        W97774   6.599  36.890  11.217
25449W        W97775  43.090  37.079  12.872
25450W        W97776  34.573  17.729  12.840
25451W        W97777  22.008  39.648  14.513
25452W        W97778  17.764  30.558   4.631
25453W        W97779  31.532  34.815   3.925
25454W        W97780  30.961  33.205   1.356
25455W        W97781  28.598   8.335   3.116
25456W        W97782  11.613   0.306   4.139
25457W        W97783   9.706  17.650   0.007
25458W        W97784  35.527  42.733  12.984
25459W        W97785   5.491  17.148  13.378
25460W        W97786   8.703  18.066  11.657
25461W        W97787  15.110   2.536  13.899
25462W        W97788  43.236   2.836   4.882
25463W        W97789  35.570  38.953  13.935
25464W        W97790  25.940   4.943   4.634
25465W        W97791  40.845  40.210   3.487
25466W        W97792  17.884  36.900   0.392
25467W        W97793  32.441   9.915  11.655
25468W        W97794  20.245  39.579   1.838
25469W        W97795  39.442  43.562   3.198
25470W        W97796   5.770  34.346  12.609
25471W        W97797  41.889  13.270   4.850
25472W        W97798  38.309  38.381  11.824
25473W        W97799   0.313  11.867   4.491
25474W        W97800  13.113  37.195   4.249
25475W        W97801  38.925  38.793   2.143
25476W        W97802   3.163  44.816   0.839
25477W        W97803   8.246  42.047  12.050
25478W        W97804  23.048  37.079   1.337
25479W        W97805  29.594  14.222   4.385
25480W        W97806  21.235  38.213   4.640
25481W        W97807  19.579  34.368   1.807
25482W        W97808  33.543  30.487  12.059
25483W        W97809  13.642  15.687   1.134
25484W        W97810   8.271  12.605  12.923
25485W        W97811  36.420  11.822   2.838
25486W        W97812  41.592   8.248   0.475
25487W        W97813  34.906  25.443   1.234
25488W        W97814  37.404  40.563   4.542
25489W        W97815  21.612  21.549  10.809
25490W        W97816  11.804  40.958   1.953
25491W        W97817  21.476  43.005   3.236
25492W        W97818  17.027  15.176   0.122
25493W        W97819  13.874  14.751   1.313
25494W        W97820  10.571  11.163   3.630
25495W        W97821  18.631  12.878   9.928
25496W        W97822  31.442  41.506  13.423
25497W        W97823  34.832   2.197  13.948
25498W        W97824   4.659  42.172  14.635
25499W        W97825  30.598  31.954  12.021
25500W        W97826  11.830  34.156   2.623
25501W        W97827  31.564  44.710   1.640
25502W        W97828  15.907   1.388  11.099
25503W        W97829  13.380  33.903   0.859
25504W        W97830   2.513  35.892  10.723
25505W        W97831  13.154   3.968   3.155
25506W        W97832  24.936  42.371   3.176
25507W        W97833  43.814  18.509   0.920
25508W        W97834  27.650  32.277  13.084
25509W        W97835  29.054  38.632  13.362
25510W        W97836  17.630  33.314  14.479
25511W        W97837  14.246   8.269  10.931
25512W        W97838  42.150  38.923   2.390
25513W        W97839  14.377   9.471   5.042
25514W        W97840  33.326  16.231   3.204
25515W        W97841  44.616   7.041  13.428
25516W        W97842  35.922  34.751  10.141
25517W        W97843   4.494  39.522   2.791
25518W        W97844   1.215  16.568  10.730
25519W        W97845  32.458   4.468   3.723
25520W        W97846  32.201  17.836   4.126
25521W        W97847  30.795  31.702  12.893
25522W        W97848  16.723  18.811   3.162
25523W        W97849  35.638   9.763  12.929
25524W        W97850  44.512  36.055   2.681
25525W        W97851  22.789  16.972  11.921
25526W        W97852  23.188  43.123  11.151
25527W        W97853  25.687  20.029  14.956
25528W        W97854  19.356  43.287   4.235
25529W        W97855  27.990  12.690   3.337
25530W        W97856  20.986  43.219   4.956
25531W        W97857  17.197  16.755  13.563
25532W        W97858  39.497   9.023  13.476
25533W        W97859  33.459  23.796   3.185
25534W        W97860  31.901  20.085   2.920
25535W        W97861  24.878  38.906  10.141
25536W        W97862  29.326  12.138  11.638
25537W        W97863  17.684   4.357  12.119
25538W        W97864  30.852  29.923  14.922
25539W        W97865  40.484  18.813  12.544
25540W        W97866  14.487  17.839  14.413
25541W        W97867  14.780  33.309  13.361
25542W        W97868  23.014  30.184   4.627
25543W        W97869  16.682  25.173   3.517
25544W        W97870  30.589  43.265   4.796
25545W        W97871  40.966  21.229   4.950
25546W        W97872  29.848   2.483  13.471
25547W        W97873   9.680  12.053   0.009
25548W        W97874  15.102  30.031   3.283
25549W        W97875  41.984  44.462   1.873
25550W        W97876  22.480  34.029  13.520
25551W        W97877  42.405  19.710  12.302
25552W        W97878  36.365  29.134   1.395
25553W        W97879  40.363  28.697   1.263
25554W        W97880  15.245   0.772  11.064
25555W        W97881  32.479   2.506  13.434
25556W        W97882  23.131  28.073  13.372
25557W        W97883  10.789  22.701  11.575
25558W        W97884   7.256  20.158   0.328
25559W        W97885   2.267  40.956   1.885
25560W        W97886  11.902  24.688   1.739
25561W        W97887  17.868   4.695   3.442
25562W        W97888   9.827   3.116  12.603
25563W        W97889  38.864  41.704   1.751
25564W        W97890  20.727  27.058  12.447
25565W        W97891  28.217  10.906   4.317
25566W        W97892  44.107  39.974   3.713
25567W        W97893   7.656  17.241  12.882
25568W        W97894  15.733  32.428  12.160
25569W        W97895  29.495  43.965  14.873
25570W        W97896  37.822  12.334   1.283
25571W        W97897   8.927  43.262  12.240
25572W        W97898  14.109  44.347  12.497
25573W        W97899  41.713   2.273   1.644
25574W        W97900  17.507  43.901   1.790
25575W        W97901  43.469  11.709   2.170
25576W        W97902   9.622  22.172  13.359
25577W        W97903  16.408  12.891  10.979
25578W        W97904   7.354  34.864   1.879
25579W        W97905  36.571  42.402   3.857
25580W        W97906   8.220   1.748  14.509
25581W        W97907  26.129  26.761   2.920
25582W        W97908   5.166  11.217  13.568
25583W        W97909  37.384  14.224  13.838
25584W        W97910  18.216  26.706  13.048
25585W        W97911  29.447  38.338  12.106
25586W        W97912  36.571   3.476   1.845
25587W        W97913  42.532  14.040  13.931
25588W        W97914   6.779  16.812  12.894
25589W        W97915  15.097  23.237   0.302
25590W        W97916  18.997  17.514   4.617
25591W        W97917   8.278  14.833  14.392
25592W        W97918  44.170  31.104  11.761
25593W        W97919  28.736  17.125  13.847
25594W        W97920  29.694  18.713   4.038
25595W        W97921  26.279  16.376   9.462
25596W        W97922  31.590  27.017   1.844
25597W        W97923  34.068  25.800   1.790
25598W        W97924  34.339   1.389   3.165
25599W        W97925  18.409  34.680   4.086
25600W        W97926   7.460  29.054   4.650
25601W        W97927  18.165  16.572   0.245
25602W        W97928  27.448  37.425   2.761
25603W        W97929  22.011   8.818   5.071
25604W        W97930   5.031  31.989  13.040
25605W        W97931  23.248  39.374  11.594
25606W        W97932  17.640  15.573  10.688
25607W        W97933   9.740  11.567  12.653
25608W        W97934  10.094  32.277   4.556
25609W        W97935  27.084  32.780  11.781
25610W        W97936  36.022  10.427  13.978
25611W        W97937   3.920  41.985  10.691
25612W        W97938  16.614  27.673  13.219
25613W        W97939  16.425  41.881   4.046
25614W        W97940  36.534  20.179  13.359
25615W        W97941  38.570  24.167   0.386
25616W        W97942   1.200  23.015  13.357
25617W        W97943   7.651   4.073   4.468
25618W        W97944  33.378  32.646   0.350
25619W        W97945  30.698  11.108  11.551
25620W        W97946  16.751   6.499   4.612
25621W        W97947  44.494  24.189  14.297
25622W        W97948  20.712   0.251   1.310
25623W        W97949  37.000  15.590   2.513
25624W        W97950   9.150  21.576  13.317
25625W        W97951  40.831  27.038   0.780
25626W        W97952  13.624  12.551  13.011
25627W        W97953  20.959   3.441   0.423
25628W        W97954  29.457  13.429  13.337
25629W        W97955  36.586  35.519   3.633
25630W        W97956  19.466   6.736   0.331
25631W        W97957   4.596  21.490  10.145
25632W        W97958  40.543  23.486  10.634
25633W        W97959   7.350  43.869  12.106
25634W        W97960  23.648  29.774   1.180
25635W        W97961  44.820  30.149   2.272
25636W        W97962  25.265   6.335   3.693
25637W        W97963  32.404  28.841   0.834
25638W        W97964  42.489  13.265  11.522
25639W        W97965  13.791  36.557   1.611
25640W        W97966  11.276  40.344  11.550
25641W        W97967   1.542  33.520  11.751
25642W        W97968  21.660  11.389   0.126
25643W        W97969  42.869  28.960  10.756
25644W        W97970  26.161  44.368  14.255
25645W        W97971  14.213  13.098  13.340
25646W        W97972  38.059  18.991  14.751
25647W        W97973  29.084   6.937  14.660
25648W        W97974  44.414   3.275  12.378
25649W        W97975  30.636   9.748   3.649
25650W        W97976   2.196  37.136  11.229
25651W        W97977   1.608  43.400  14.356
25652W        W97978  24.627  22.503   1.647
25653W        W97979  41.918  29.271  11.523
25654W        W97980  10.176  12.195   3.376
25655W        W97981  44.272  14.193  10.130
25656W        W97982   4.563  34.444  11.531
25657W        W97983  17.245  15.544   0.925
25658W        W97984   7.949  35.861  10.754
25659W        W97985  12.724  41.038   4.136
25660W        W97986  22.149  41.259   4.446
25661W        W97987   4.188  23.804   9.890
25662W        W97988  30.530   5.825   3.055
25663W        W97989  26.644   1.304  12.781
25664W        W97990  44.471  43.808   0.817
25665W        W97991  41.521  36.953   0.819
25666W        W97992   3.163  44.946  11.555
25667W        W97993  31.081  21.777  11.478
25668W        W97994  18.155   3.869   4.862
25669W        W97995  19.703  23.412   2.236
25670W        W97996  32.851   8.272   1.705
25671W        W97997  42.811  24.525  12.120
25672W        W97998  26.388  29.734  14.602
25673W        W97999   0.969   6.169   4.403
25674W        W98000  15.399   1.677  11.156
25675W        W98001  17.316  27.844  13.473
25676W        W98002  25.690  40.752  11.596
25677W        W98003   8.969  15.841   1.164
25678W        W98004  43.781  25.570  14.976
25679W        W98005  32.086   8.678   4.892
25680W        W98006  19.773  39.362  11.643
25681W        W98007  17.245  41.103   0.836
25682W        W98008  12.060  35.621  10.940
25683W        W98009  19.853   6.462   0.076
25684W        W98010  32.468   1.335  14.160
25685W        W98011  34.504  23.885  13.039
25686W        W98012  25.049  11.923  12.012
25687W        W98013  42.632  38.111   1.359
25688W        W98014  38.432  22.803   1.127
25689W        W98015   4.112  16.251  12.143
25690W        W98016  25.522   8.576  12.981
25691W        W98017   4.706  20.844   3.999
25692W        W98018  38.971   8.576  12.724
25693W        W98019  32.630  23.710  13.929
25694W        W98020   0.720  37.310   0.347
25695W        W98021  41.496  44.532  11.554
25696W        W98022  15.773  11.319   4.931
25697W        W98023   4.296   1.012  13.597
25698W        W98024  24.660  32.362  14.327
25699W        W98025  34.830  34.492   2.432
25700W        W98026  30.325  41.208   1.707
25701W        W98027   3.940  25.292   2.555
25702W        W98028  10.191   4.392  11.897
25703W        W98029  38.473  28.683  13.417
25704W        W98030  29.921   3.437  13.878
25705W        W98031  37.330   9.932   3.331
25706W        W98032  16.979   0.945   4.129
25707W        W98033   1.566  28.728  13.420
25708W        W98034  12.239  28.430  12.058
25709W        W98035  26.047   1.664   3.763
25710W        W98036   3.745  19.903   0.914
25711W        W98037  39.885   0.852  13.688
25712W        W98038   0.768  17.594   0.814
25713W        W98039  34.300  26.427  14.906
25714W        W98040   2.580  37.132  13.437
25715W        W98041  28.129   9.160   4.393
25716W        W98042  21.320  22.676  10.714
25717W        W98043   4.823  15.692   2.892
25718W        W98044  31.433  29.718   1.461
25719W        W98045  40.167  31.815  10.659
25720W        W98046  41.474  16.605   2.359
25721W        W98047  15.033  33.917  13.770
25722W        W98048  30.220  19.197   1.430
25723W        W98049  17.032  21.999   2.717
25724W        W98050   7.083   9.886   1.411
25725W        W98051  12.213  11.444   2.493
25726W        W98052  10.666  42.809  13.121
25727W        W98053  39.491   8.457  14.891
25728W        W98054  28.494   7.400   2.299
25729W        W98055  41.395  24.961   1.605
25730W        W98056   8.424  29.952  12.984
25731W        W98057  27.660  12.361   4.314
25732W        W98058  17.759  44.017  12.376
25733W        W98059  39.097   8.805  14.962
25734W        W98060  35.965  42.291   0.844
25735W        W98061  36.959  39.287   4.100
25736W        W98062  34.689  29.322   4.146
25737W        W98063  10.104  18.807   0.922
25738W        W98064  24.478   1.468   3.773
25739W        W98065  16.191   3.641   1.254
25740W        W98066  29.968  38.294  13.368
25741W        W98067  10.604  13.855   4.193
25742W        W98068  24.182  30.087   0.246
25743W        W98069  32.679  10.132   1.772
25744W        W98070  26.059   5.185  12.574
25745W        W98071  21.765  26.277   3.580
25746W        W98072  26.488  43.185   3.755
25747W        W98073  13.408  38.009   3.576
25748W        W98074  30.573  35.285   0.678
25749W        W98075   9.754  29.613   4.327
25750W        W98076  26.252  22.928  14.955
25751W        W98077   1.200  30.173   1.546
25752W        W98078  35.980  33.100   2.144
25753W        W98079  15.576   0.105  14.218
25754W        W98080   6.408  19.757   4.800
25755W        W98081  39.265  42.824  13.507
25756W        W98082  23.252   8.485   2.762
25757W        W98083   2.250   4.796  13.794
25758W        W98084   1.685  31.632  13.924
25759W        W98085  35.667  22.474  12.290
25760W        W98086   8.136  19.189  14.342
25761W        W98087  41.582  38.162  12.940
25762W        W98088  15.687  25.038  14.962
25763W        W98089  18.623  34.976  14.408
25764W        W98090  24.211   9.662   1.405
25765W        W98091  24.942  24.014   1.780
25766W        W98092  36.863  37.124  11.723
25767W        W98093   7.873  23.180  11.771
25768W        W98094   3.320  22.308  11.059
25769W        W98095  34.733  19.508   5.082
25770W        W98096  17.219  25.590  14.990
25771W        W98097   2.318  34.049   1.273
25772W        W98098  11.381  44.949   4.682
25773W        W98099   9.709  30.808   0.214
25774W        W98100  29.865  11.895  13.981
25775W        W98101   0.274  12.812   1.301
25776W        W98102  22.594   6.163  10.752
25777W        W98103   4.710  18.479   2.795
25778W        W98104  32.549  10.458  13.545
25779W        W98105   4.301   8.378   2.335
25780W        W98106   5.671  16.310  13.760
25781W        W98107  34.426  42.015  10.803
25782W        W98108  37.472  37.830  14.045
25783W        W98109  29.592  25.733  10.173
25784W        W98110  38.824  21.665  13.378
25785W        W98111   7.775  35.496  14.309
25786W        W98112  22.709  31.151  13.890
25787W        W98113  26.498  28.530   3.836
25788W        W98114   9.272  30.693   1.907
25789W        W98115  25.573  14.662  13.156
25790W        W98116  32.553   9.440  13.356
25791W        W98117  23.579   4.707  11.040
25792W        W98118  19.610   8.388   0.704
25793W        W98119  41.451  19.266   3.311
25794W        W98120   0.433  25.486  14.020
25795W        W98121   5.750   0.577   2.851
25796W        W98122  18.846  38.978   4.544
25797W        W98123  32.432  11.469   1.410
25798W        W98124  31.052  27.573  12.398
25799W        W98125  22.056  34.880  10.738
25800W        W98126  24.075  21.576   1.176
25801W        W98127  34.876  15.551  12.837
25802W        W98128   4.313  24.775   3.442
25803W        W98129  13.010  27.955   1.691
25804W        W98130  39.705  35.170  13.487
25805W        W98131  10.875  38.575   3.675
25806W        W98132  35.447  25.249   4.761
25807W        W98133  26.029  36.796   1.247
25808W        W98134  20.198  28.841   4.772
25809W        W98135  14.635  41.271  10.435
25810W        W98136  22.174  38.452   3.879
25811W        W98137  30.614  21.406  11.208
25812W        W98138  35.946  32.433   4.643
25813W        W98139   7.856  17.986  14.865
25814W        W98140   5.840   1.675   0.684
25815W        W98141   8.439  34.884  14.558
25816W        W98142  23.249  29.100  14.481
25817W        W98143  38.331  34.763  14.777
25818W        W98144  24.288  18.097   0.666
25819W        W98145  37.520  37.055   1.153
25820W        W98146  29.977  19.793  14.412
25821W        W98147  39.361  21.262   2.733
25822W        W98148  17.791  17.655   4.054
25823W        W98149  20.620  15.970   3.582
25824W        W98150  30.839  30.737   3.352
25825W        W98151   9.894  37.351  10.766
25826W        W98152  36.463   8.787   0.174
25827W        W98153  22.203  21.677  14.251
25828W        W98154   0.154   4.074   2.520
25829W        W98155   4.775  20.527  10.739
25830W        W98156  13.205  28.877   0.032
25831W        W98157  41.754  41.825  14.496
25832W        W98158  12.894   5.867   3.234
25833W        W98159  10.928  22.825  14.032
25834W        W98160  25.194  36.913   0.763
25835W        W98161   7.558  13.979  14.243
25836W        W98162  21.874  28.852   4.363
25837W        W98163  38.891  11.312   4.030
25838W        W98164  24.516  41.242  11.061
25839W        W98165  21.190  19.509   1.974
25840W        W98166  29.693  18.319  10.339
25841W        W98167  14.648  25.746  13.467
25842W        W98168  38.739  10.177   3.220
25843W        W98169  11.791  29.351   4.467
25844W        W98170  30.728  24.272   1.640
25845W        W98171  40.058  42.606   1.186
25846W        W98172  21.804  39.438   9.863
25847W        W98173  34.500  43.611   4.903
25848W        W98174  33.074   6.590  14.018
25849W        W98175  11.767  32.955  10.558
25850W        W98176  18.183  41.686  13.048
25851W        W98177  37.124  42.288   3.118
25852W        W98178  38.036  37.026   4.674
25853W        W98179  38.833   8.884  14.105
25854W        W98180  37.587   7.776   4.864
25855W        W98181  25.125  35.165  13.276
25856W        W98182   2.444   9.092  14.099
25857W        W98183  14.146  40.839  11.555
25858W        W98184  31.669   8.279  12.566
25859W        W98185   8.839   6.621  10.646
25860W        W98186  34.557  20.855  13.117
25861W        W98187  27.701  24.494  13.535
25862W        W98188  18.651   1.794   1.448
25863W        W98189   2.649   9.273   5.294
25864W        W98190   1.845  25.921   1.896
25865W        W98191   1.879   3.743   4.230
25866W        W98192  33.339  26.385   3.281
25867W        W98193  11.315  20.946   2.675
25868W        W98194  13.651   7.607  12.710
25869W        W98195  32.167  18.672  11.400
25870W        W98196  44.387  35.080   4.567
25871W        W98197  11.386  30.548   0.534
25872W        W98198  31.042   8.200  13.470
25873W        W98199  18.657  38.931  14.496
25874W        W98200  14.408  19.447  13.310
25875W        W98201  20.186  27.012   4.501
25876W        W98202   5.491  19.405   1.693
25877W        W98203  21.037  10.800   1.451
25878W        W98204  30.091  13.666   3.088
25879W        W98205  24.029  27.589   0.374
25880W        W98206  36.882  37.943   4.374
25881W        W98207  35.363   2.277   0.325
25882W        W98208  11.291  35.053  10.197
25883W        W98209  43.552  33.471   1.058
25884W        W98210   5.944  35.461   0.777
25885W        W98211  14.143  17.350   4.981
25886W        W98212  22.022  32.130   4.212
25887W        W98213   1.463  23.080   4.517
25888W        W98214  23.560  33.663   4.576
25889W        W98215  38.078  19.765   3.689
25890W        W98216   9.448   2.414  12.512
25891W        W98217  38.419  42.430   2.304
25892W        W98218  26.652  39.739   3.147
25893W        W98219  32.668  22.570   3.264
25894W        W98220  25.926  24.010   3.666
25895W        W98221  13.336  18.323  14.403
25896W        W98222  14.350  20.539   0.338
25897W        W98223  25.957  19.266  14.439
25898W        W98224  33.853  14.682  11.179
25899W        W98225  28.242  35.048   3.331
25900W        W98226   9.082  12.558   4.668
25901W        W98227  28.925   1.058  12.881
25902W        W98228   6.613  39.415  12.515
25903W        W98229   0.787  11.685   4.634
25904W        W98230  25.468  28.211   3.717
25905W        W98231  16.661   3.262   0.192
25906W        W98232  24.427   1.693  13.881
25907W        W98233  15.993  32.633   2.643
25908W        W98234   6.693  30.393  10.672
25909W        W98235  20.011  14.588  13.460
25910W        W98236  23.704  33.394   0.020
25911W        W98237  21.593   5.365  12.640
25912W        W98238  25.902  31.081  14.673
25913W        W98239   9.809  15.315  11.377
25914W        W98240  13.861  42.726  13.461
25915W        W98241   2.576  37.293   0.114
25916W        W98242  13.053  30.632   1.379
25917W        W98243  44.186  43.956   3.285
25918W        W98244  38.286  17.728  13.837
25919W        W98245   4.723  25.679  11.070
25920W        W98246  38.894  24.477  12.987
25921W        W98247  28.025  40.036  13.489
25922W        W98248  14.380  24.898  13.569
25923W        W98249  30.697  40.867   3.572
25924W        W98250   0.782   2.828  14.440
25925W        W98251  22.612  13.844  13.240
25926W        W98252  17.199   0.560   0.797
25927W        W98253  42.607  39.871   2.039
25928W        W98254  39.540  10.384   0.946
25929W        W98255  42.014  17.649   0.939
25930W        W98256   0.282  23.490  11.503
25931W        W98257  43.463  24.936   3.534
25932W        W98258  28.181  24.628  13.389
25933W        W98259   9.423  27.569   0.451
25934W        W98260   5.801   3.300  14.354
25935W        W98261  20.096  16.513   4.531
25936W        W98262   3.025  26.507   4.566
25937W        W98263  11.831  26.046  13.510
25938W        W98264  11.120  10.608  10.662
25939W        W98265  13.013  26.609  10.487
25940W        W98266  37.594  19.566  10.690
25941W        W98267  42.516  29.479   1.741
25942W        W98268  41.378  22.731  14.900
25943W        W98269  28.470  43.493   1.782
25944W        W98270  15.116  27.946   4.205
25945W        W98271  11.187  14.362   2.905
25946W        W98272  23.425  39.116  14.610
25947W        W98273   6.841   5.814  14.026
25948W        W98274  34.916  30.102   4.162
25949W        W98275   1.019   1.283   4.293
25950W        W98276  31.607  13.780  12.396
25951W        W98277   1.945  29.751   4.228
25952W        W98278  18.238  14.329   2.912
25953W        W98279  42.297   8.625   3.421
25954W        W98280  26.450  10.342   2.437
25955W        W98281   9.195   0.838  12.306
25956W        W98282  11.901  42.351   1.656
25957W        W98283  13.121  20.833  11.105
25958W        W98284  40.573   8.101   2.299
25959W        W98285  19.517  31.898   3.268
25960W        W98286  25.682  38.955  13.304
25961W        W98287  23.119   9.148   1.803
25962W        W98288  28.354  11.111   3.292
25963W        W98289  35.305  29.914   3.502
25964W        W98290  20.167   3.297   3.603
25965W        W98291  11.453  12.779  11.224
25966W        W98292   7.529  22.744  11.102
25967W        W98293  30.009  26.452  13.300
25968W        W98294  37.262  42.446  13.577
25969W        W98295  15.154  14.819   1.841
25970W        W98296  32.115   9.181   4.685
25971W        W98297  43.407  23.170   2.136
25972W        W98298  44.276  33.019  12.220
25973W        W98299  16.445  29.051   3.713
25974W        W98300   6.825  38.886  12.594
25975W        W98301  36.835  36.072   1.969
25976W        W98302  17.380  12.237  10.481
25977W        W98303  18.571  24.437  10.532
25978W        W98304  42.322   2.215  11.529
25979W        W98305  11.494  43.345   3.027
25980W        W98306  12.367   6.622   2.770
25981W        W98307   8.363   5.816  12.671
25982W        W98308  35.736   8.627   2.237
25983W        W98309  37.631  24.202  12.574
25984W        W98310  18.201  16.638  14.220
25985W        W98311  17.500  14.786  10.105
25986W        W98312  32.908  31.319  14.323
25987W        W98313  15.816  31.702   2.610
25988W        W98314  20.244  11.305   0.737
25989W        W98315  16.856  16.717   2.243
25990W        W98316   0.954   1.854  13.269
25991W        W98317  11.048  23.421   1.802
25992W        W98318  24.980  40.391  13.918
25993W        W98319  15.712  28.261  13.070
25994W        W98320  24.692   8.395   1.892
25995W        W98321   6.948   8.050  13.349
25996W        W98322  27.915  28.410   4.247
25997W        W98323   3.282  25.711  14.842
25998W        W98324  24.703   2.705   2.392
25999W        W98325  19.153  11.662  10.556
26000W        W98326  34.443  20.364   4.608
26001W        W98327  29.835   4.925   2.764
26002W        W98328   6.801   0.479   4.086
26003W        W98329   3.159  36.593  12.571
26004W        W98330  11.836   7.723   3.971
26005W        W98331  22.195  17.753  11.450
26006W        W98332  28.055  27.071   4.046
26007W        W98333   7.793   9.380  14.549
26008W        W98334  26.474   1.965   2.396
26009W        W98335   3.868  18.631   3.623
26010W        W98336  38.307   0.393  11.370
26011W        W98337  29.641   8.576  11.719
26012W        W98338  34.507   5.665  14.926
26013W        W98339  18.295  26.948  11.237
26014W        W98340   3.891  32.528  12.547
26015W        W98341  34.771  15.684   3.408
26016W        W98342  14.829   7.440   4.894
26017W        W98343  34.073  43.200   2.817
26018W        W98344   1.143  16.137   3.206
26019W        W98345  28.293  31.240  10.712
26020W        W98346  43.283  15.977   2.820
26021W        W98347  25.333  25.648   2.174
26022W        W98348  30.992  12.861  12.023
26023W        W98349  38.057  33.222  11.061
26024W        W98350  44.163   7.070  10.322
26025W        W98351  20.154  38.571   4.348
26026W        W98352   5.820   2.542   4.092
26027W        W98353   4.665  20.958  11.381
26028W        W98354   9.879  32.797   0.296
26029W        W98355   2.026   5.682   1.828
26030W        W98356  16.510   8.593  13.100
26031W        W98357  16.127  23.263   3.107
26032W        W98358  19.803   9.021   2.295
26033W        W98359  17.221  34.977   1.941
26034W        W98360  44.414  14.772  12.458
26035W        W98361  20.277  19.105   4.240
26036W        W98362   5.320  15.404   0.013
26037W        W98363  30.598   4.562   4.598
26038W        W98364   5.723  24.147  12.623
26039W        W98365  40.434  43.014   2.363
26040W        W98366  37.523  18.122  13.963
26041W        W98367  33.555  20.041  14.902
26042W        W98368   5.477  17.310   1.302
26043W        W98369  13.104  29.004  13.098
26044W        W98370  32.658   1.933  12.569
26045W        W98371  23.195  19.327   3.932
26046W        W98372  24.509  27.581   0.179
26047W        W98373  21.249  43.998   0.614
26048W        W98374   1.364   4.850  14.443
26049W        W98375  39.514  17.767   2.858
26050W        W98376   8.570  18.766   1.879
26051W        W98377  10.652   5.936  11.252
26052W        W98378  10.359  12.873  13.069
26053W        W98379   2.753  15.691  10.850
26054W        W98380  15.567  34.968  10.716
26055W        W98381   3.999  17.693   0.208
26056W        W98382   6.400  15.546   2.213
26057W        W98383  15.590   0.973   4.088
26058W        W98384  44.364  32.358  10.481
26059W        W98385  14.043  36.568  14.413
26060W        W98386   0.229  28.653   2.988
26061W        W98387  36.115  41.511   2.330
26062W        W98388   5.741   1.786   4.708
26063W        W98389   4.409  39.068   2.185
26064W        W98390  35.479  30.615  11.921
26065W        W98391  34.433  17.206   4.217
26066W        W98392  28.590  38.148   2.769
26067W        W98393  40.935  25.946   1.804
26068W        W98394  30.058  43.522  11.542
26069W        W98395  38.401  29.603   3.233
26070W        W98396  20.468  22.285  11.960
26071W        W98397  38.459  23.586  13.525
26072W        W98398  24.403  25.676  12.203
26073W        W98399  27.175  29.740  12.631
26074W        W98400   8.366  26.818   9.910
26075W        W98401   4.647  31.675   3.299
26076W        W98402  23.527  14.059   1.238
26077W        W98403   3.424  36.885  14.335
26078W        W98404  36.402   1.270   1.213
26079W        W98405  35.971  39.737   1.745
26080W        W98406  18.773   8.918  13.945
26081W        W98407  16.589  22.919  14.468
26082W        W98408  40.869  25.994   2.329
26083W        W98409  13.611  38.066   2.286
26084W        W98410  43.007  20.008  10.945
26085W        W98411   0.295  33.146   1.594
26086W        W98412  31.557  36.514   2.162
26087W        W98413  42.375  32.839  10.735
26088W        W98414  21.145  10.020   3.768
26089W        W98415  19.067  12.158   4.891
26090W        W98416  15.269  11.870  13.854
26091W        W98417  40.608  26.686  11.168
26092W        W98418  31.097   2.758  13.279
26093W        W98419  24.701  32.894   1.734
26094W        W98420  29.886  25.948  10.598
26095W        W98421  35.462  37.364  11.127
26096W        W98422  34.415  18.732   3.765
26097W        W98423  10.413   8.279  10.430
26098W        W98424   7.233  35.068  10.673
26099W        W98425  23.997  41.364   3.258
26100W        W98426  17.486   9.644  11.981
26101W        W98427  35.785  36.949  11.171
26102W        W98428   9.820  39.823   0.877
26103W        W98429  16.985  18.131   2.052
26104W        W98430  40.097  12.665  12.399
26105W        W98431  14.116  29.522   0.640
26106W        W98432   7.332  16.184   4.632
26107W        W98433   1.011  40.730   4.258
26108W        W98434  30.324  43.517   1.456
26109W        W98435  38.138  13.555   5.351
26110W        W98436  20.156  36.971   0.191
26111W        W98437   9.881  41.295   0.957
26112W        W98438  18.162  11.480   1.166
26113W        W98439  24.508  41.266   2.344
26114W        W98440  12.862  27.021   3.564
26115W        W98441  11.548  40.924   3.799
26116W        W98442   0.882  35.156   5.150
26117W        W98443  28.955   8.305   2.194
26118W        W98444  36.661  38.733  11.195
26119W        W98445   8.433  35.900   0.754
26120W        W98446  31.988   7.456   3.211
26121W        W98447  34.464   7.864  11.918
26122W        W98448   6.412   3.611   2.612
26123W        W98449   5.757  17.054  12.027
26124W        W98450  17.256  33.994   4.420
26125W        W98451  22.454  38.599   1.637
26126W        W98452  44.538   6.791  11.138
26127W        W98453  16.621  37.167  13.988
26128W        W98454  23.789   5.487  12.610
26129W        W98455  35.002   5.963   4.525
26130W        W98456  35.973  15.881  12.546
26131W        W98457  28.916  39.971  14.330
26132W        W98458  41.966  10.477  10.540
26133W        W98459   2.329  23.174   4.758
26134W        W98460  34.532  43.356   3.872
26135W        W98461  39.165  16.414   4.991
26136W        W98462  41.000  44.283   1.507
26137W        W98463  32.175  28.988   0.398
26138W        W98464  14.234   1.955  13.605
26139W        W98465  22.569  36.095  13.890
26140W        W98466   0.475  10.641   1.475
26141W        W98467  22.001  16.011   3.742
26142W        W98468  10.721   9.369  10.766
26143W        W98469  18.166   8.190  11.580
26144W        W98470  37.588  43.808  14.065
26145W        W98471   3.002  28.544   3.385
26146W        W98472   0.525  24.066   3.410
26147W        W98473   0.908  24.688  13.950
26148W        W98474  22.432  18.631   3.248
26149W        W98475  26.978  36.382   2.417
26150W        W98476  25.349  22.939   4.206
26151W        W98477   3.074  41.357  13.848
26152W        W98478  23.133  34.617  12.063
26153W        W98479  28.202  11.265  13.529
26154W        W98480  27.657  33.516   0.906
26155W        W98481  24.268  44.380  11.042
26156W        W98482   0.929  33.860  12.057
26157W        W98483  28.120  20.560   2.386
26158W        W98484  41.202  38.833   3.175
26159W        W98485  29.411  27.898  10.186
26160W        W98486  26.200  27.178   0.318
26161W        W98487  31.097  14.613   0.319
26162W        W98488  16.162  43.007   1.427
26163W        W98489   4.726   7.909  13.731
26164W        W98490   1.247   5.029   0.920
26165W        W98491  43.983  44.342  14.751
26166W        W98492  42.996  29.395   1.882
26167W        W98493  22.250  36.631  14.882
26168W        W98494   3.804  20.440   4.115
26169W        W98495  42.996  31.117  10.207
26170W        W98496  27.375  43.491   3.641
26171W        W98497  22.633  42.311  10.451
26172W        W98498  31.083   4.325   4.619
26173W        W98499  22.797   8.208   2.825
26174W        W98500  32.631  23.082   3.437
26175W        W98501  32.342  20.494  11.980
26176W        W98502  11.369   4.837   1.329
26177W        W98503  36.983   4.962   0.390
26178W        W98504  29.674  27.620  12.749
26179W        W98505  22.151  20.692  12.423
26180W        W98506  12.348  20.797   3.926
26181W        W98507  11.622  29.945  13.827
26182W        W98508   2.199  31.345  13.026
26183W        W98509  24.237  40.718   2.922
26184W        W98510  32.698  24.132   0.912
26185W        W98511  13.080  24.616   4.170
26186W        W98512  31.132  24.016  13.951
26187W        W98513  20.762   8.291  13.976
26188W        W98514  17.696  24.494   3.424
26189W        W98515  36.508  17.351  11.419
26190W        W98516   6.596  12.618  11.470
26191W        W98517  17.664  33.147  13.082
26192W        W98518  42.300  13.235   4.509
26193W        W98519  40.789  15.488  11.584
26194W        W98520  32.159   2.925  13.361
26195W        W98521   6.106  44.553   1.308
26196W        W98522  25.762  13.591   2.746
26197W        W98523  40.990  18.261   0.053
26198W        W98524  10.115   0.773  10.589
26199W        W98525  21.957  16.433   3.391
26200W        W98526  24.617  29.940   4.930
26201W        W98527  19.213  12.703   1.739
26202W        W98528  36.206   8.369  14.997
26203W        W98529  27.534  29.880  10.560
26204W        W98530  20.663  29.470   3.248
26205W        W98531  10.886  37.973   2.709
26206W        W98532  33.032  22.933  12.610
26207W        W98533   8.869  42.485   1.358
26208W        W98534   3.788   8.874  13.260
26209W        W98535   5.643   0.509  14.492
26210W        W98536  35.727  43.904   1.465
26211W        W98537   7.670  24.950   4.885
26212W        W98538  15.579   0.614  14.227
26213W        W98539  11.590  22.746  10.379
26214W        W98540  38.543  17.120  12.692
26215W        W98541  25.372  16.644  14.006
26216W        W98542  34.852   2.430  13.449
26217W        W98543  24.281  37.961  13.520
26218W        W98544   5.297   4.483  13.823
26219W        W98545  12.602  21.528  12.430
26220W        W98546  36.059  22.276   2.384
26221W        W98547  21.806  17.070   4.867
26222W        W98548  32.991  24.470  14.486
26223W        W98549  44.014  31.846   0.958
26224W        W98550   8.352  40.329   2.891
26225W        W98551  35.767   5.022  11.978
26226W        W98552  37.567  14.847  10.630
26227W        W98553   8.304  19.653   0.762
26228W        W98554   4.877  31.555  13.796
26229W        W98555  23.066  40.414  10.178
26230W        W98556  33.094   4.274  11.432
26231W        W98557   9.812  17.934  12.938
26232W        W98558  42.891  36.841  14.382
26233W        W98559  38.788  42.320   0.946
26234W        W98560  18.089  25.472   2.345
26235W        W98561  25.185   4.845   2.307
26236W        W98562  17.350  28.127   4.900
26237W        W98563  25.751   7.130  11.207
26238W        W98564  22.706  35.986   0.860
26239W        W98565  29.144   2.227   4.050
26240W        W98566  31.426  16.210   4.313
26241W        W98567   7.229   3.723   3.408
26242W        W98568  35.511   0.204   4.722
26243W        W98569  29.198  32.048   4.294
26244W        W98570  28.898  41.304  14.913
26245W        W98571  44.846  38.837   3.247
26246W        W98572  25.605  12.224   2.960
26247W        W98573  13.320   7.397  11.963
26248W        W98574  31.316   7.527  10.164
26249W        W98575  26.251   1.287   3.467
26250W        W98576  11.962  14.067  12.010
26251W        W98577  11.387   6.846  12.000
26252W        W98578  17.679   3.937   4.032
26253W        W98579  22.211  30.977  12.441
26254W        W98580  10.704  32.484  14.861
26255W        W98581  35.861  21.132  10.397
26256W        W98582  41.815  16.726  10.732
26257W        W98583   5.685   1.260   3.827
26258W        W98584  32.427   9.674   1.639
26259W        W98585  37.408  29.150   3.132
26260W        W98586  36.607  17.253   4.164
26261W        W98587  42.795  34.905   3.748
26262W        W98588   6.628   0.801   1.874
26263W        W98589  22.301  21.783  13.325
26264W        W98590  18.203  23.590  10.430
26265W        W98591  44.960  11.323  12.899
26266W        W98592  27.707  39.295   4.957
26267W        W98593   6.967  43.836  13.942
26268W        W98594  24.032  13.825  10.295
26269W        W98595   2.478  35.703   2.775
26270W        W98596  19.134   4.630   2.106
26271W        W98597  33.904   2.212  12.912
26272W        W98598  25.834   5.437  11.608
26273W        W98599   3.705   5.664  13.354
26274W        W98600  41.928   2.769  10.992
26275W        W98601  21.197  28.026   4.600
26276W        W98602  15.073  18.734  11.716
26277W        W98603  23.751  22.278   0.839
26278W        W98604  10.206  33.702   3.558
26279W        W98605   9.605   1.834  11.120
26280W        W98606  19.827  39.893   3.334
26281W        W98607   9.452  34.050  13.565
26282W        W98608  15.941  26.310   0.965
26283W        W98609  27.489  32.138   2.311
26284W        W98610  13.324  12.314   0.039
26285W        W98611  22.991  13.611   0.798
26286W        W98612  35.996  32.601   2.330
26287W        W98613   5.593  34.941  14.773
26288W        W98614   8.661  41.444   4.723
26289W        W98615  33.904  19.993  13.624
26290W        W98616  24.215  10.577  14.886
26291W        W98617  15.568  35.361   4.465
26292W        W98618   8.703   4.663   0.768
26293W        W98619  11.312  38.324   4.151
26294W        W98620  19.407   4.963   4.116
26295W        W98621  31.037  11.387  10.644
26296W        W98622  30.666  40.857  13.101
26297W        W98623  18.920  10.551   0.963
26298W        W98624  44.079  25.985  14.920
26299W        W98625  30.393   3.226   1.732
26300W        W98626   4.354  16.048  11.743
26301W        W98627  40.648   6.556   4.436
26302W        W98628  29.196  13.792  12.908
26303W        W98629  22.051  25.211  14.806
26304W        W98630  21.658  13.599  12.888
26305W        W98631  29.652  21.979  12.611
26306W        W98632   1.853  26.126  10.946
26307W        W98633   4.134  27.490   2.815
26308W        W98634  36.312   5.239  12.621
26309W        W98635  12.982  34.498  13.756
26310W        W98636  19.798  21.689   4.375
26311W        W98637  33.289  37.496  11.832
26312W        W98638  33.104   8.726  13.380
26313W        W98639  19.573  21.663   3.904
26314W        W98640   6.777  41.749   2.387
26315W        W98641  20.966  39.158   0.317
26316W        W98642  30.855  43.858   1.731
26317W        W98643  43.444  12.683  11.436
26318W        W98644  25.543  31.183   0.923
26319W        W98645  16.587  37.250   0.649
26320W        W98646  21.217  17.171   3.225
26321W        W98647  19.986  44.559   2.299
26322W        W98648  20.344  25.663   0.243
26323W        W98649  31.801  44.963   2.038
26324W        W98650  40.608   5.193   3.600
26325W        W98651  19.205  28.429   4.243
26326W        W98652  10.729  32.089  11.081
26327W        W98653   0.792  44.358   2.641
26328W        W98654   5.161  25.156   0.842
26329W        W98655  24.500  30.856   1.896
26330W        W98656  38.562  16.355  11.094
26331W        W98657  42.981  28.183   0.956
26332W        W98658  41.980   2.765  12.886
26333W        W98659  38.462  25.253   2.769
26334W        W98660   9.138  10.241   4.180
26335W        W98661   0.761  24.254  13.497
26336W        W98662  36.416   7.713   1.029
26337W        W98663  29.514   1.443  12.473
26338W        W98664  27.973  20.291   1.375
26339W        W98665  30.545  42.631   1.204
26340W        W98666  39.556  26.214   3.725
26341W        W98667  25.068  38.068  14.807
26342W        W98668  18.825   0.419   2.509
26343W        W98669   1.217  14.615   2.769
26344W        W98670  27.899   2.009   2.212
26345W        W98671   7.444  31.854   4.193
26346W        W98672   6.784  15.648  11.487
26347W        W98673  26.498  23.313  11.627
26348W        W98674  31.924  16.280   2.313
26349W        W98675  40.029  14.638  14.263
26350W        W98676  37.937  29.756  12.555
26351W        W98677  14.259  12.776  11.300
26352W        W98678  14.403  13.263  11.581
26353W        W98679  19.513  32.852   3.672
26354W        W98680  22.790  31.953   0.907
26355W        W98681  30.543  24.035   3.630
26356W        W98682  32.037  30.266   4.279
26357W        W98683  14.120  36.557  12.511
26358W        W98684  26.588  43.298   1.236
26359W        W98685  13.600  43.931   0.050
26360W        W98686   5.799   2.921   1.431
26361W        W98687  33.260  29.528  12.487
26362W        W98688   9.319  13.747  11.465
26363W        W98689  41.306   4.789   2.240
26364W        W98690  18.481  21.058   0.818
26365W        W98691  36.440   0.772   3.573
26366W        W98692  27.596  27.337  11.495
26367W        W98693  21.839  20.576  13.106
26368W        W98694   4.533  26.608  14.397
26369W        W98695  24.056   3.831  13.374
26370W        W98696  20.963   4.684   2.252
26371W        W98697  32.525   8.839   4.637
26372W        W98698   4.079  28.067  11.028
26373W        W98699  42.199  35.798  10.392
26374W        W98700  21.626  26.436   1.179
26375W        W98701  29.416  28.377   4.305
26376W        W98702   5.505   0.101   2.770
26377W        W98703  30.927  27.434   1.259
26378W        W98704   0.966  13.770  13.606
26379W        W98705  27.204   8.317  12.495
26380W        W98706  20.185  14.327  11.624
26381W        W98707  38.696  26.482   4.117
26382W        W98708   8.188  28.580   4.617
26383W        W98709  27.675   3.600   2.740
26384W        W98710  43.366   1.633   1.885
26385W        W98711   4.862   9.400  12.012
26386W        W98712  36.144  36.167  13.961
26387W        W98713  38.967  16.212   1.883
26388W        W98714   3.747  14.458   4.681
26389W        W98715  14.554  27.226   4.265
26390W        W98716  25.741  33.780   1.626
26391W        W98717  40.298  18.756   5.108
26392W        W98718   3.312   0.349   3.836
26393W        W98719  12.340  32.924  14.267
26394W        W98720  15.257   2.360   4.805
26395W        W98721  37.920  37.870  12.424
26396W        W98722  27.460  18.996  12.108
26397W        W98723   2.184  12.315   0.709
26398W        W98724   9.281  20.021  14.170
26399W        W98725  26.549  44.966   4.120
26400W        W98726  23.084  27.435   1.406
26401W        W98727  34.361  30.401  11.233
26402W        W98728   0.919  34.550  10.743
26403W        W98729  38.568  35.557  12.447
26404W        W98730  38.024  26.043  14.296
26405W        W98731  25.723  13.139  13.984
26406W        W98732   5.949  37.880  14.962
26407W        W98733  24.770  23.222  13.204
26408W        W98734  17.759  38.651   4.129
26409W        W98735  30.141  17.181  11.212
26410W        W98736  32.081  40.516  12.375
26411W        W98737  15.599  34.153   2.273
26412W        W98738  25.126  16.149   1.439
26413W        W98739  16.684   2.675   4.639
26414W        W98740  18.326  34.089  11.960
26415W        W98741  41.749  11.419   1.952
26416W        W98742  17.802  28.136  12.461
26417W        W98743  43.307  44.784   4.217
26418W        W98744   8.144   9.008  14.682
26419W        W98745  26.766  33.773   3.344
26420W        W98746  39.346   8.213   2.824
26421W        W98747  32.465  35.678   2.649
26422W        W98748  12.884  33.408  10.354
26423W        W98749  22.999  15.140   3.825
26424W        W98750   3.297  28.995  14.951
26425W        W98751  28.956  17.656  14.926
26426W        W98752  31.098  34.393  12.123
26427W        W98753  21.739  30.149   3.753
26428W        W98754  26.559   7.848  10.779
26429W        W98755  11.232  16.784  12.370
26430W        W98756   5.345  35.812  11.555
26431W        W98757  16.747   3.682   4.228
26432W        W98758  28.585  16.047   3.136
26433W        W98759  28.590  12.641   1.079
26434W        W98760  44.565  15.250   2.958
26435W        W98761   6.569   6.367   1.367
26436W        W98762  16.984  38.853  10.391
26437W        W98763   7.893  37.872   3.600
26438W        W98764  19.859   4.036  11.938
26439W        W98765   7.621  32.834   1.223
26440W        W98766  37.103  33.822   4.102
26441W        W98767   6.280  17.506  11.631
26442W        W98768  17.016  42.486  14.547
26443W        W98769  13.301  37.895  10.992
26444W        W98770  35.075  36.864  10.002
26445W        W98771  42.093  44.029  13.782
26446W        W98772  10.573  30.906   0.764
26447W        W98773  11.675  21.251  11.225
26448W        W98774  32.947  33.526  10.371
26449W        W98775  44.703  19.905  12.654
26450W        W98776  34.981  38.039   4.507
26451W        W98777  34.735   6.101   3.588
26452W        W98778   9.387  34.355   2.756
26453W        W98779  34.600  40.588   3.150
26454W        W98780  18.255  11.348   1.976
26455W        W98781  16.097   4.402   3.490
26456W        W98782  32.911   7.809  12.955
26457W        W98783  29.701  10.972   2.831
26458W        W98784  12.814  35.475  12.974
26459W        W98785  14.396   2.719   4.770
26460W        W98786   0.931  31.162   3.662
26461W        W98787  15.552  36.399   0.576
26462W        W98788  23.870  42.783  11.511
26463W        W98789  35.374  30.120   2.504
26464W        W98790  40.860  11.289   0.668
26465W        W98791   2.352  12.114   3.607
26466W        W98792  39.294  25.722   2.739
26467W        W98793   4.883  38.809   3.763
26468W        W98794  22.963   2.966  12.927
26469W        W98795  32.879   9.803  11.923
26470W        W98796  38.332  15.682   2.936
26471W        W98797   4.988   1.664  10.222
26472W        W98798   8.271  13.097  11.979
26473W        W98799  23.610  34.644   4.659
26474W        W98800  35.773  25.196   2.372
26475W        W98801   3.962  24.108  12.954
26476W        W98802  32.800  30.093   3.262
26477W        W98803   1.393  20.135   1.457
26478W        W98804  25.923  39.944  11.096
26479W        W98805   7.814  17.750   2.647
26480W        W98806  30.689   2.014   0.803
26481W        W98807   3.397   1.529   2.728
26482W        W98808  36.384  36.561  14.965
26483W        W98809  40.840   3.989  14.724
26484W        W98810  29.073   7.446   4.596
26485W        W98811  10.084  39.243  13.904
26486W        W98812   4.732  21.767   1.945
26487W        W98813  33.847  13.651  13.374
26488W        W98814  24.138  40.974   0.511
26489W        W98815  13.719  34.092  11.406
26490W        W98816  43.026  17.250   1.934
26491W        W98817  12.041   6.928  14.003
26492W        W98818   0.248  17.540  11.209
26493W        W98819  31.221   3.156  11.984
26494W        W98820  30.694  33.374  14.519
26495W        W98821   5.829  30.511  11.345
26496W        W98822  11.368  25.513   3.804
26497W        W98823  12.098   4.773   2.740
26498W        W98824  34.412  44.215   0.004
26499W        W98825  19.551  29.120   4.626
26500W        W98826  39.499  39.983  12.921
26501W        W98827  17.313  26.723   1.257
26502W        W98828  21.382  32.109  11.741
26503W        W98829  41.946  43.302  14.448
26504W        W98830  24.653  44.215   3.146
26505W        W98831   9.951  28.009   0.708
26506W        W98832  18.019  44.862  12.053
26507W        W98833  14.773  27.923   1.192
26508W        W98834  15.482  36.890   0.059
26509W        W98835  36.794  43.065   0.760
26510W        W98836  37.961  16.569  10.804
26511W        W98837  36.051  25.323  11.631
26512W        W98838  17.709  26.351  10.952
26513W        W98839   4.799  37.305   5.116
26514W        W98840   9.467  22.544   0.000
26515W        W98841  37.332   1.376   4.441
26516W        W98842   6.355  38.868  12.411
26517W        W98843  12.885   3.926   1.791
26518W        W98844   1.334  38.264  14.994
26519W        W98845  29.451  25.279   2.232
26520W        W98846   4.036  24.499  13.748
26521W        W98847  41.865  22.222   4.547
26522W        W98848  23.524  30.732  11.537
26523W        W98849  13.738  22.702   0.385
26524W        W98850  11.705  11.100   3.082
26525W        W98851  10.116  38.391  11.112
26526W        W98852  20.392   1.437   4.269
26527W        W98853  44.172  21.852  14.989
26528W        W98854  18.802   4.455  10.691
26529W        W98855  43.989   2.977   2.869
26530W        W98856  36.391  19.806  14.819
26531W        W98857  25.907  40.480   4.620
26532W        W98858   8.669  34.136  12.810
26533W        W98859  28.847  39.305  14.869
26534W        W98860  10.640  15.123   1.221
26535W        W98861   9.315  10.252   4.649
26536W        W98862   3.220  38.556   4.259
26537W        W98863  29.344  27.089   0.254
26538W        W98864   1.034  28.425  14.897
26539W        W98865  22.780  16.251  14.983
26540W        W98866  20.617  18.580   3.749
26541W        W98867   6.263   6.767  12.534
26542W        W98868  22.568  10.663  11.562
26543W        W98869   1.856   6.400  14.578
26544W        W98870  34.997  24.111   2.903
26545W        W98871  17.867   1.684   3.698
26546W        W98872  21.599  24.232  11.633
26547W        W98873  31.485   7.279  10.609
26548W        W98874  34.888  11.242  14.193
26549W        W98875  14.028  28.593  12.846
26550W        W98876  37.860  43.395  12.611
26551W        W98877  37.118   6.726   1.294
26552W        W98878  39.433  42.058   0.565
26553W        W98879  37.890  37.381  10.606
26554W        W98880  25.573  13.214  13.371
26555W        W98881  11.422  29.750  14.899
26556W        W98882  30.017  37.048   2.643
26557W        W98883  32.115  24.772   3.785
26558W        W98884  32.564   0.468  13.883
26559W        W98885  29.928  24.096   0.277
26560W        W98886  32.011   3.178  12.382
26561W        W98887  14.545  12.168   2.839
26562W        W98888  17.134   7.586  11.946
26563W        W98889  33.973  15.810  14.939
26564W        W98890  27.735  18.104  13.271
26565W        W98891  25.265   9.437  11.426
26566W        W98892   5.118  35.906  12.403
26567W        W98893  24.496  15.782  11.381
26568W        W98894  21.013  27.395   0.954
26569W        W98895   4.810  23.849  11.106
26570W        W98896  14.819  41.415   3.648
26571W        W98897  39.818  10.715   1.223
26572W        W98898  22.639  22.937   4.344
26573W        W98899  35.220  17.795   4.124
26574W        W98900  42.447   4.813   2.604
26575W        W98901   4.051  19.602  14.931
26576W        W98902  30.900   3.307  10.121
26577W        W98903  39.516  34.114  11.618
26578W        W98904  11.868  26.591   1.018
26579W        W98905  17.954   9.428   4.606
26580W        W98906   9.252  36.746   2.823
26581W        W98907  20.623  11.895  13.623
26582W        W98908  40.363  22.106   0.261
26583W        W98909   7.347  18.954   3.784
26584W        W98910  31.879  32.920  12.980
26585W        W98911   2.952  25.527   4.061
26586W        W98912  10.378  39.054   1.212
26587W        W98913  32.008  25.450   2.947
26588W        W98914   7.110  25.472   4.091
26589W        W98915  39.244  37.892  11.003
26590W        W98916  31.613  29.384   2.735
26591W        W98917   6.716  34.078   2.869
26592W        W98918   5.919  19.671  13.862
26593W        W98919  15.674  32.161  10.843
26594W        W98920   3.466  11.217   2.297
26595W        W98921   5.816  21.506   4.703
26596W        W98922   5.438  11.745  14.819
26597W        W98923   7.195  39.887  12.832
26598W        W98924  23.048  32.491   2.849
26599W        W98925  41.328  37.906   0.709
26600W        W98926  32.759  41.429  11.170
26601W        W98927  37.931  39.026   4.349
26602W        W98928  29.991   4.717  11.199
26603W        W98929  15.681   1.409  13.868
26604W        W98930  22.693  24.117   0.394
26605W        W98931  16.355  25.995  14.151
26606W        W98932  35.423  29.232  10.488
26607W        W98933  35.594  37.480   1.950
26608W        W98934   3.772   2.264  12.959
26609W        W98935  23.233   3.184   2.610
26610W        W98936  38.940  41.308  12.596
26611W        W98937  25.151  22.131   3.774
26612W        W98938  41.526  22.687  11.199
26613W        W98939  20.878  39.909  13.291
26614W        W98940  29.489  23.406  14.966
26615W        W98941  18.128  17.732  11.188
26616W        W98942   8.710  33.576   2.159
26617W        W98943   9.705  13.214   4.863
26618W        W98944   9.326  11.960   2.850
26619W        W98945   5.598  16.638   0.057
26620W        W98946  29.230  19.424   4.953
26621W        W98947  23.420  13.486   3.170
26622W        W98948   2.219  23.696   2.703
26623W        W98949  25.369   8.025  12.076
26624W        W98950   3.057   5.836  10.191
26625W        W98951  24.602  35.587  11.377
26626W        W98952   5.410  19.993   4.299
26627W        W98953  21.504  30.554   3.977
26628W        W98954  42.558  11.314  11.440
26629W        W98955  41.584  27.895   4.900
26630W        W98956  20.616  25.492  13.151
26631W        W98957  22.249  38.007   2.457
26632W        W98958  27.967  16.836   3.486
26633W        W98959   2.026   2.108  11.624
26634W        W98960   0.346  11.255   0.886
26635W        W98961  42.384  34.583  13.365
26636W        W98962  41.448  38.038   3.685
26637W        W98963  15.556  42.496   2.358
26638W        W98964  33.277   9.789  12.749
26639W        W98965  34.869  12.004  11.884
26640W        W98966   0.851  29.043  13.631
26641W        W98967  15.127  14.627   2.684
26642W        W98968  20.690   2.727   0.279
26643W        W98969  10.675  23.080   4.133
26644W        W98970   0.072   6.888  11.229
26645W        W98971   9.192  39.010   0.711
26646W        W98972  23.702   5.097  11.372
26647W        W98973  38.380  19.890  13.740
26648W        W98974  41.623  44.298  13.552
26649W        W98975  28.102  30.467  11.201
26650W        W98976  16.151  40.051   0.250
26651W        W98977  37.117  24.609  13.090
26652W        W98978  11.359   0.215   1.751
26653W        W98979  38.472  11.230  14.376
26654W        W98980  21.193   1.103   0.285
26655W        W98981  17.961  35.954  11.669
26656W        W98982   7.655  25.699   2.881
26657W        W98983  35.941  24.665   3.680
26658W        W98984  27.194  16.702   1.303
26659W        W98985  19.399  11.301   3.704
26660W        W98986   5.824  40.708   4.439
26661W        W98987  18.119  16.238   4.464
26662W        W98988  29.149  31.498  11.523
26663W        W98989   6.241  12.350  10.774
26664W        W98990  10.812  30.985   4.711
26665W        W98991   2.682  36.338   3.603
26666W        W98992  35.301  13.251  14.813
26667W        W98993  38.856  19.112  12.213
26668W        W98994  38.381  25.388   4.644
26669W        W98995  39.771  39.976  12.476
26670W        W98996   0.245   1.587   4.034
26671W        W98997  31.983  24.242  12.910
26672W        W98998  17.700  14.202   3.613
26673W        W98999  36.624  34.087  10.088
26674W        W99000  21.489  10.591   2.341
26675W        W99001   0.506  15.046  14.251
26676W        W99002  38.060  14.224   3.658
26677W        W99003  17.183   2.916   3.195
26678W        W99004  17.717   6.236   1.643
26679W        W99005  33.878  43.061   3.731
26680W        W99006   2.767   4.477  10.628
26681W        W99007  31.561  30.629   1.497
26682W        W99008   2.293  27.429   1.790
26683W        W99009  22.271  18.566   3.829
26684W        W99010  41.423  27.595  14.731
26685W        W99011  39.992  14.023  13.602
26686W        W99012  36.300  39.932  14.524
26687W        W99013  34.495  29.174  10.478
26688W        W99014  43.938  39.380   3.140
26689W        W99015  27.754   1.382   0.240
26690W        W99016   9.471  29.906  11.544
26691W        W99017  33.034   2.204   4.781
26692W        W99018  27.197  26.660   4.090
26693W        W99019  36.947  14.529  13.398
26694W        W99020   2.968  11.376  12.141
26695W        W99021  42.263  34.017   4.144
26696W        W99022   3.665   1.048  12.472
26697W        W99023  25.530   7.149   0.694
26698W        W99024  29.222  40.935  13.334
26699W        W99025  32.894  34.414   2.707
26700W        W99026   7.576  20.500  13.001
26701W        W99027  44.909   4.789   2.201
26702W        W99028  34.194  29.402   4.164
26703W        W99029   6.262  27.095  10.744
26704W        W99030  10.814  28.612   4.225
26705W        W99031  27.616  41.929  14.232
26706W        W99032   2.601  10.639   0.302
26707W        W99033  33.782   0.944   1.333
26708W        W99034  36.994   8.148  13.970
26709W        W99035  17.099   2.426  13.329
26710W        W99036  36.405  42.735   3.475
26711W        W99037  36.614  37.465  11.025
26712W        W99038  39.279  28.068  13.870
26713W        W99039   2.747  42.267   4.588
26714W        W99040  37.409  40.272   1.739
26715W        W99041  17.014  30.601  11.222
26716W        W99042  25.263   4.445  14.970
26717W        W99043  27.712  43.103   4.513
26718W        W99044  21.021  42.459   5.268
26719W        W99045   7.720  22.619  13.009
26720W        W99046  35.127  12.400  12.502
26721W        W99047   2.933  35.851  14.920
26722W        W99048   7.299  23.685   1.444
26723W        W99049  28.967   6.958  13.616
26724W        W99050  13.127  42.011  14.371
26725W        W99051  17.434   2.963  14.487
26726W        W99052   6.397  37.222   3.234
26727W        W99053  33.350  30.074  14.499
26728W        W99054  15.642  16.548  11.157
26729W        W99055  31.271  37.043  11.931
26730W        W99056  24.195   4.349  12.322
26731W        W99057  13.671  41.829   1.443
26732W        W99058  11.156  20.497  11.567
26733W        W99059  36.094   9.609   0.278
26734W        W99060  16.146  39.896   3.228
26735W        W99061  27.236  22.358   1.237
26736W        W99062  34.658   1.539   0.364
26737W        W99063  43.499  38.800   0.159
26738W        W99064  25.451  38.067   0.274
26739W        W99065  11.821  14.847   0.328
26740W        W99066  37.955  35.575  14.668
26741W        W99067  27.734  12.715   2.887
26742W        W99068  39.954  32.880  14.278
26743W        W99069  21.547   7.798  12.484
26744W        W99070   1.852   1.525   2.301
26745W        W99071  31.844   3.623   4.260
26746W        W99072  44.964  41.041   4.175
26747W        W99073  34.839  10.111  11.537
26748W        W99074  35.702   3.826  11.286
26749W        W99075  44.447  15.236  10.044
26750W        W99076  16.034  33.597   4.577
26751W        W99077  27.332  21.702  11.440
26752W        W99078  42.271  13.152   1.952
26753W        W99079  41.314  14.275   3.081
26754W        W99080   3.425   1.799   1.894
26755W        W99081  11.738   8.769  14.490
26756W        W99082  36.982  13.397  10.121
26757W        W99083   4.390  40.456  13.980
26758W        W99084  41.919  15.551   0.249
26759W        W99085  35.491  19.056  12.578
26760W        W99086   0.344  19.793   1.474
26761W        W99087  34.566  22.835  10.488
26762W        W99088  21.457  36.598  11.168
26763W        W99089  14.073  32.128   3.156
26764W        W99090  29.110  22.571  11.484
26765W        W99091  13.105  27.546  11.614
26766W        W99092  38.722  22.506  10.724
26767W        W99093  12.150  31.014   1.271
26768W        W99094  32.635  28.970  12.502
26769W        W99095  15.179  26.469   0.366
26770W        W99096  29.891  29.475  14.317
26771W        W99097  10.828  15.903   3.208
26772W        W99098  44.183   8.786  14.842
26773W        W99099  29.494  44.961   4.347
26774W        W99100  40.304  38.588   3.285
26775W        W99101   1.068  20.703   3.320
26776W        W99102  33.167  26.630  11.145
26777W        W99103   8.175  27.948  11.124
26778W        W99104  43.063  17.714  11.242
26779W        W99105  23.851  30.646  13.072
26780W        W99106  26.839  38.411  11.029
26781W        W99107  28.724  17.298   1.772
26782W        W99108  37.506  25.936   0.546
26783W        W99109  40.822  34.651   0.435
26784W        W99110  11.641  32.206   1.266
26785W        W99111   3.816   0.977   4.446
26786W        W99112   2.063  20.469   1.270
26787W        W99113  44.783   0.596   0.288
26788W        W99114  13.080  38.401   2.699
26789W        W99115  12.031  37.569   4.603
26790W        W99116  32.081  35.406   2.850
26791W        W99117  29.666   3.659   2.251
26792W        W99118   1.846  23.085   2.136
26793W        W99119   1.757  40.033  11.532
26794W        W99120  13.706   0.023   2.287
26795W        W99121  14.064  38.199   0.314
26796W        W99122  41.203   4.814  10.560
26797W        W99123  14.322  26.205   4.602
26798W        W99124  37.224  41.326  11.766
26799W        W99125   5.189   9.493  14.887
26800W        W99126   5.318  37.771  13.368
26801W        W99127  23.188  43.045   5.054
26802W        W99128   2.435   5.348   0.131
26803W        W99129  26.549  34.524  11.169
26804W        W99130   4.739  11.003   5.473
26805W        W99131  23.439   8.899   3.063
26806W        W99132  23.620  29.868   0.252
26807W        W99133  20.190  40.459  12.877
26808W        W99134  10.130  19.209   2.787
26809W        W99135  44.144   2.017   2.373
26810W        W99136   4.654   9.423   4.993
26811W        W99137  24.138  35.507   4.498
26812W        W99138   4.369   4.386  12.236
26813W        W99139  12.724  30.893  12.776
26814W        W99140  13.130  12.624   1.925
26815W        W99141   1.762  10.730   2.796
26816W        W99142  35.403  26.984   2.911
26817W        W99143  25.220  41.959   3.343
26818W        W99144   3.893  31.049  12.919
26819W        W99145  41.039  20.789  13.735
26820W        W99146  22.043  20.084   0.721
26821W        W99147  36.688  25.206  11.991
26822W        W99148  28.276  24.145   3.239
26823W        W99149  32.861  25.594   0.289
26824W        W99150  40.566  19.610   4.093
26825W        W99151  16.846  19.009  13.811
26826W        W99152  29.985   6.637  11.587
26827W        W99153  44.706  26.518   3.168
26828W        W99154  13.852  15.404   0.738
26829W        W99155  10.124  22.027  13.354
26830W        W99156  12.830  34.030   5.434
26831W        W99157   7.356   7.303   0.696
26832W        W99158  17.704   4.886  11.410
26833W        W99159  33.427   7.713  14.425
26834W        W99160  27.972  39.556  13.294
26835W        W99161  35.931   8.926   4.484
26836W        W99162  31.062  33.490  11.047
26837W        W99163  29.436   4.855   1.993
26838W        W99164   2.741  42.995  14.037
26839W        W99165   5.359  21.302  13.364
26840W        W99166  38.067  21.085   0.986
26841W        W99167  22.070   7.406  12.884
26842W        W99168  30.153  34.391  12.058
26843W        W99169   3.295   6.174  11.577
26844W        W99170  21.222   7.705  14.550
26845W        W99171  40.738  25.586   2.624
26846W        W99172  38.992  11.794  10.975
26847W        W99173  35.438   8.911  14.910
26848W        W99174   8.751  15.181   4.620
26849W        W99175  37.733   2.332   4.167
26850W        W99176  21.053  11.362  14.274
26851W        W99177   0.242  19.087   2.849
26852W        W99178  24.722  16.567  13.284
26853W        W99179  24.507  14.275  12.545
26854W        W99180  15.061  40.990  11.405
26855W        W99181  22.490  32.711   3.618
26856W        W99182  43.787   2.472  14.248
26857W        W99183   4.954  40.604  11.405
26858W        W99184   7.644  42.376   4.671
26859W        W99185  16.669   8.780   2.926
26860W        W99186  42.471  27.748  13.918
26861W        W99187  36.905  14.176   3.238
26862W        W99188   1.724  30.218   4.210
26863W        W99189  16.192  13.004  13.011
26864W        W99190  27.999  13.743  11.461
26865W        W99191   2.756  25.135   1.328
26866W        W99192  41.300  30.549   0.438
26867W        W99193   1.854  27.723  13.373
26868W        W99194  13.048  40.488   3.251
26869W        W99195  36.965  33.963  11.046
26870W        W99196   2.838  19.461   3.423
26871W        W99197  40.841  43.340   2.383
26872W        W99198  10.765  16.242   0.003
26873W        W99199  38.041  30.272   0.453
26874W        W99200  28.157  21.722   0.218
26875W        W99201   3.227  30.729   2.152
26876W        W99202  40.591  34.549   2.341
26877W        W99203  42.362  13.203  13.577
26878W        W99204  30.467   5.008   0.233
26879W        W99205  18.676  38.867  12.475
26880W        W99206  37.482  34.220   1.905
26881W        W99207  21.721  24.016   3.328
26882W        W99208  39.464  34.548   0.499
26883W        W99209   4.304  30.717   0.755
26884W        W99210  23.245  33.181   4.041
26885W        W99211  29.444   2.782  12.872
26886W        W99212   0.980  32.646   3.414
26887W        W99213  42.311  12.646   2.129
26888W        W99214  44.717   7.259  11.160
26889W        W99215   6.337   4.255   4.292
26890W        W99216  38.402  38.449   1.633
26891W        W99217  31.942  40.940  10.328
26892W        W99218   8.928  17.850  14.430
26893W        W99219   5.990   8.802  13.831
26894W        W99220  12.693   1.721   1.438
26895W        W99221   4.380  34.380  14.873
26896W        W99222  26.923  12.673  10.545
26897W        W99223  26.990  38.727  12.183
26898W        W99224  10.561  24.486  10.668
26899W        W99225  43.293  18.836  13.303
26900W        W99226  24.008  15.690  14.596
26901W        W99227  13.138  34.397   9.646
26902W        W99228   6.960  41.095   0.251
26903W        W99229   3.430  40.372  11.000
26904W        W99230  36.465  35.445   2.484
26905W        W99231  19.104  40.940   4.317
26906W        W99232  18.913  33.925   2.927
26907W        W99233  26.000   1.246  14.488
26908W        W99234   5.412  20.438   3.214
26909W        W99235  40.035  17.334  13.396
26910W        W99236  35.801   6.695   4.403
26911W        W99237  43.119   8.324  11.029
26912W        W99238  42.531  18.190  12.098
26913W        W99239  32.314  10.391  14.431
26914W        W99240  35.693   3.296  12.522
26915W        W99241  19.144  28.265   0.460
26916W        W99242  24.544   9.393  11.196
26917W        W99243  20.375   6.330   0.807
26918W        W99244   6.200  17.305  14.797
26919W        W99245  38.898  22.297  12.055
26920W        W99246  27.099  11.681  14.520
26921W        W99247  15.114  33.955   2.339
26922W        W99248   7.943   7.775   0.061
26923W        W99249  13.289   5.624  14.538
26924W        W99250  44.934  11.351  11.948
26925W        W99251  39.346  21.412  13.475
26926W        W99252  34.079  15.131  13.725
26927W        W99253  40.035  33.410   1.858
26928W        W99254   0.824  12.385  13.120
26929W        W99255   6.838  39.580  11.686
26930W        W99256   3.159  16.760  13.022
26931W        W99257  40.019  44.708  11.602
26932W        W99258   2.246  16.293  14.950
26933W        W99259  33.476  35.648  13.517
26934W        W99260  15.731  33.053   2.277
26935W        W99261   5.955  19.699   3.309
26936W        W99262  34.606  23.334  10.394
26937W        W99263  15.668  21.956  12.561
26938W        W99264   4.029  37.418  13.098
26939W        W99265  36.919  34.361  12.514
26940W        W99266  10.250   6.757  12.287
26941W        W99267   2.718   9.483   3.807
26942W        W99268  36.628  30.989   3.696
26943W        W99269  10.900  32.930  10.676
26944W        W99270   1.233  13.615   0.381
26945W        W99271  32.488  26.174  13.240
26946W        W99272  14.042  15.006   2.245
26947W        W99273  26.229  18.583   5.098
26948W        W99274  25.625  16.129  12.204
26949W        W99275  23.797  44.636   3.326
26950W        W99276  18.716  29.619  12.889
26951W        W99277   4.277   0.563  11.212
26952W        W99278  35.774  16.580  11.874
26953W        W99279   9.188  26.454   2.153
26954W        W99280   7.377  28.690  13.098
26955W        W99281  36.353  15.806  11.485
26956W        W99282  44.731   6.769   3.033
26957W        W99283   2.355   1.305  10.243
26958W        W99284  34.063   6.405  11.513
26959W        W99285  33.833   1.084  13.459
26960W        W99286  13.763  24.558   4.973
26961W        W99287  28.362  17.231  11.170
26962W        W99288  40.367  29.300   4.161
26963W        W99289  18.566  42.371   1.356
26964W        W99290  20.706  17.582  12.141
26965W        W99291   9.248  44.411   4.522
26966W        W99292  23.022  40.072  12.964
26967W        W99293  36.505   5.674  12.419
26968W        W99294  44.447   0.810  11.686
26969W        W99295  28.376  28.324  14.938
26970W        W99296  29.142   8.760  12.435
26971W        W99297  39.496  25.517  13.294
26972W        W99298   6.197  37.503   0.881
26973W        W99299  25.240   9.740   2.218
26974W        W99300  39.814   9.222   4.604
26975W        W99301   3.234  20.202  14.980
26976W        W99302   1.943  20.953  14.434
26977W        W99303  37.996  30.821  12.494
26978W        W99304  32.909  18.696   3.669
26979W        W99305  43.273  26.483   0.410
26980W        W99306  16.235  40.072   3.711
26981W        W99307   8.653   8.339   0.999
26982W        W99308   1.164   0.233  14.521
26983W        W99309   7.793   3.148  14.447
26984W        W99310  14.401  37.034   3.759
26985W        W99311   4.772   3.629   4.975
26986W        W99312   6.338  35.689  13.951
26987W        W99313  10.822   3.519  14.480
26988W        W99314  19.736  21.060  12.097
26989W        W99315  12.752  10.646   4.590
26990W        W99316   5.683  42.771   2.790
26991W        W99317   6.846   9.802  13.634
26992W        W99318  26.527  11.224   0.791
26993W        W99319   9.166  25.455   2.287
26994W        W99320  41.420  28.189  12.643
26995W        W99321  33.122  22.514   0.494
26996W        W99322  29.098  20.932  12.888
26997W        W99323  29.126  28.946   2.291
26998W        W99324   5.665  38.112  11.447
26999W        W99325  16.237  23.461   0.694
27000W        W99326   9.452  32.538   1.385
27001W        W99327   0.431  20.986  12.451
27002W        W99328  24.421  30.468  11.558
27003W        W99329  42.871  22.404  12.478
27004W        W99330  14.798  32.415  12.453
27005W        W99331   1.432  17.328   2.785
27006W        W99332  33.398  35.151  10.279
27007W        W99333  17.542   9.149  10.715
27008W        W99334   2.523   4.459  12.946
27009W        W99335   4.387  16.681  13.823
27010W        W99336  16.260  38.933  10.886
27011W        W99337  36.864  12.242  13.202
27012W        W99338  12.409  29.615   4.223
27013W        W99339  15.539  11.165   2.191
27014W        W99340   2.714  11.380   4.956
27015W        W99341  32.422   8.728  14.446
27016W        W99342  33.841  32.129  13.736
27017W        W99343  10.629  20.266  14.497
27018W        W99344  39.880  39.872  14.449
27019W        W99345  23.009   4.838  14.702
27020W        W99346  11.368  12.744  14.469
27021W        W99347  37.457  29.548  12.575
27022W        W99348   1.286   5.907   3.224
27023W        W99349   9.161  40.800   2.621
27024W        W99350  21.531  23.623  11.090
27025W        W99351  20.527  19.326  14.017
27026W        W99352  22.935  15.640   1.943
27027W        W99353  25.330   9.192  13.517
27028W        W99354   4.157  23.648  14.956
27029W        W99355  27.600  19.249   4.144
27030W        W99356  33.204  32.153  12.941
27031W        W99357  18.020  23.166  12.148
27032W        W99358  23.509   6.768   0.005
27033W        W99359  10.378  37.910   2.707
27034W        W99360   5.766  18.245  13.506
27035W        W99361  25.648  26.878  11.120
27036W        W99362  40.850  20.842  12.891
27037W        W99363  20.213  26.065  13.974
27038W        W99364  16.813  13.765  13.913
27039W        W99365  24.122  37.085  11.091
27040W        W99366   5.821   0.609  11.324
27041W        W99367  25.026  22.101   2.689
27042W        W99368  39.981   0.969   3.710
27043W        W99369  27.578  38.416   4.746
27044W        W99370  13.710  34.163  13.589
27045W        W99371  41.617  18.110   4.059
27046W        W99372  11.664  39.482  10.980
27047W        W99373   7.249  11.397  11.965
27048W        W99374  23.332  13.557  14.466
27049W        W99375  25.428  19.186  11.720
27050W        W99376  28.752  34.834   4.773
27051W        W99377  27.275   0.340   0.529
27052W        W99378  39.545  32.852   4.217
27053W        W99379  33.158  42.016   1.506
27054W        W99380  12.440  44.975   0.642
27055W        W99381   0.025   1.196   0.957
27056W        W99382  21.475   6.870  13.633
27057W        W99383  12.849  26.596   1.832
27058W        W99384  11.652  26.765  10.227
27059W        W99385  13.289  20.152   2.613
27060W        W99386  39.048  17.939  13.965
27061W        W99387   8.822   9.657   0.790
27062W        W99388  43.807  26.716   4.120
27063W        W99389  25.275   3.844   2.229
27064W        W99390  22.154  26.313   5.344
27065W        W99391  12.450   4.142  13.471
27066W        W99392  20.008  32.988   2.820
27067W        W99393  29.986  41.018   2.215
27068W        W99394  30.225  15.124   3.167
27069W        W99395  28.545  32.187  11.418
27070W        W99396  31.380  23.074   0.966
27071W        W99397  20.565  24.991   2.156
27072W        W99398  24.153  44.718  13.157
27073W        W99399  32.693  18.523   4.712
27074W        W99400  17.042  26.702  11.647
27075W        W99401   4.277  35.200   4.637
27076W        W99402   1.531  17.784   0.667
27077W        W99403   2.037  20.328   5.052
27078W        W99404  13.920   6.975  11.975
27079W        W99405  26.508  43.491   4.208
27080W        W99406  31.510  13.219   1.438
27081W        W99407   2.417   7.821  14.032
27082W        W99408  28.610  12.325   4.238
27083W        W99409  27.239  39.887  14.038
27084W        W99410  43.089  27.188   4.243
27085W        W99411  11.126   2.132   3.708
27086W        W99412  42.437  24.658  12.901
27087W        W99413   1.846  38.972   0.291
27088W        W99414  42.248  24.214  11.161
27089W        W99415  13.331  41.022  10.608
27090W        W99416  13.772  31.417  11.948
27091W        W99417  26.909  41.963  11.905
27092W        W99418  27.052  27.097   4.524
27093W        W99419  28.881   3.666  12.583
27094W        W99420   2.406  42.777  12.545
27095W        W99421  38.041  36.361  10.616
27096W        W99422  23.501  44.725   4.195
27097W        W99423  33.975  13.065  10.576
27098W        W99424  37.915  23.683   1.852
27099W        W99425  22.900   1.491   0.747
27100W        W99426  28.438   0.369   3.636
27101W        W99427   2.312  17.638  10.911
27102W        W99428   1.323   5.668  10.644
27103W        W99429  41.456  19.578   4.764
27104W        W99430  38.046  14.684   0.385
27105W        W99431   1.272   1.174  11.743
27106W        W99432  20.710  18.632  12.578
27107W        W99433  24.902  16.067   2.689
27108W        W99434  19.389  39.836  11.884
27109W        W99435  41.067  11.400  11.404
27110W        W99436  17.468   9.430   2.655
27111W        W99437  23.679   6.741   2.314
27112W        W99438  19.689  38.904   0.440
27113W        W99439  41.429   9.611  14.600
27114W        W99440  27.221  26.545  13.016
27115W        W99441  10.709   0.891  14.089
27116W        W99442  11.789  40.827  12.993
27117W        W99443  30.889  15.223  12.309
27118W        W99444  29.164   7.380  14.415
27119W        W99445  39.054  42.051  10.630
27120W        W99446  39.059  35.322  11.712
27121W        W99447   3.913  13.707  13.526
27122W        W99448  42.376   0.505   1.241
27123W        W99449  22.027  12.371  12.115
27124W        W99450   7.299  31.572  12.804
27125W        W99451  33.762   6.913  14.012
27126W        W99452  44.377  44.537   0.601
27127W        W99453  19.477  13.796   1.017
27128W        W99454   2.319   1.372  13.975
27129W        W99455   2.310  42.906   4.637
27130W        W99456   1.031  34.947   4.591
27131W        W99457  33.595  15.385  11.606
27132W        W99458  27.018   9.220   2.209
27133W        W99459  35.052   4.489   2.381
27134W        W99460  29.068  34.534   2.392
27135W        W99461  28.578  35.102  14.772
27136W        W99462  26.965  28.612   5.063
27137W        W99463  40.283   0.886  14.987
27138W        W99464  42.123  36.610   1.416
27139W        W99465   5.822   7.591   5.044
27140W        W99466  44.312   7.849   0.233
27141W        W99467  20.609  33.462  12.355
27142W        W99468  14.563  34.903  14.365
27143W        W99469  13.363  37.486   0.484
27144W        W99470  31.364  32.775  13.527
27145W        W99471  17.681  22.496   3.092
27146W        W99472   9.348  35.841   0.299
27147W        W99473  40.157  23.398  14.280
27148W        W99474  31.363  42.917   1.965
27149W        W99475  31.529  16.574  12.142
27150W        W99476   4.091  20.116  12.010
27151W        W99477   7.314   2.255   3.183
27152W        W99478  18.105  12.919  11.720
27153W        W99479  22.055  37.651  13.372
27154W        W99480  42.352  20.940  14.764
27155W        W99481   5.611  20.525   3.765
27156W        W99482   3.751  25.516   1.175
27157W        W99483  41.849   0.841  12.562
27158W        W99484   1.938  13.136  14.514
27159W        W99485   6.934  18.195  11.670
27160W        W99486  18.732  21.185  12.037
27161W        W99487  11.621   5.981  12.622
27162W        W99488  35.450  37.361  13.062
27163W        W99489   7.424   1.194  12.961
27164W        W99490   7.741   3.754  10.811
27165W        W99491   2.700   8.267   4.892
27166W        W99492  40.320  40.322   3.795
27167W        W99493  11.742   0.431   2.687
27168W        W99494  27.595  44.953  12.439
27169W        W99495  23.928  40.019   3.895
27170W        W99496  20.017  17.752   4.559
27171W        W99497   4.476  30.984   3.283
27172W        W99498  26.408  41.396  12.320
27173W        W99499  31.643  19.099   3.258
27174W        W99500   1.733   3.432   0.322
27175W        W99501  12.200   6.428  13.913
27176W        W99502   9.134   2.016   0.350
27177W        W99503  27.153  36.126   3.734
27178W        W99504   2.359  21.530  10.868
27179W        W99505   6.942  21.724   1.795
27180W        W99506  33.359   6.826   4.435
27181W        W99507   2.853  10.258  12.572
27182W        W99508  29.892  31.689   3.659
27183W        W99509  37.391  31.373  12.146
27184W        W99510  19.204  31.385  13.294
27185W        W99511   7.355  10.571   0.818
27186W        W99512  36.340  13.570  13.467
27187W        W99513  16.108  26.428  11.087
27188W        W99514  17.113  27.131   2.678
27189W        W99515  30.197  43.564   3.240
27190W        W99516  15.691  15.222   4.376
27191W        W99517   4.355  37.030  10.655
27192W        W99518  43.808  44.917   1.365
27193W        W99519  31.143  29.147   3.241
27194W        W99520  26.202  43.305  11.988
27195W        W99521  10.382   5.246  13.243
27196W        W99522  10.190  44.988   4.645
27197W        W99523   9.884  35.391  10.804
27198W        W99524  25.609  12.668   4.246
27199W        W99525  35.828  43.984  14.398
27200W        W99526  27.976  38.757   1.206
27201W        W99527  35.544  20.267   0.997
27202W        W99528   6.781  24.296   1.912
27203W        W99529  24.754  17.765   9.752
27204W        W99530  24.060  11.042  11.462
27205W        W99531   8.547   0.262  10.632
27206W        W99532  20.565  19.564  11.372
27207W        W99533  27.066  17.717  14.731
27208W        W99534  23.559  40.980  14.311
27209W        W99535  33.059  41.572   1.831
27210W        W99536  39.567  37.824   0.372
27211W        W99537   6.153  21.815   2.129
27212W        W99538  37.556  31.448  14.387
27213W        W99539  33.229  43.915   0.654
27214W        W99540  33.478  22.260   2.276
27215W        W99541  18.641  12.966  10.593
27216W        W99542   4.331  33.105  14.347
27217W        W99543  16.073  26.605   1.420
27218W        W99544  32.516  36.632   4.329
27219W        W99545  37.982  24.948   0.271
27220W        W99546  25.234  34.021  13.970
27221W        W99547  34.941  36.067   0.189
27222W        W99548   4.912  14.484   0.776
27223W        W99549  17.673  15.581  14.616
27224W        W99550  10.794  22.294  12.520
27225W        W99551  24.669  43.410  14.425
27226W        W99552  40.938  31.743  13.433
27227W        W99553  30.137   7.038  14.955
27228W        W99554  30.778  20.536  11.156
27229W        W99555   0.186  21.609  10.641
27230W        W99556  25.161  21.603  11.491
27231W        W99557  33.714  32.569  10.589
27232W        W99558  42.279  24.048  12.895
27233W        W99559  31.976   4.150  14.313
27234W        W99560   2.183   5.279   3.684
27235W        W99561  32.766   8.424  13.609
27236W        W99562  22.056  21.723   0.923
27237W        W99563  24.643  35.540  14.945
27238W        W99564  44.537  20.353   1.195
27239W        W99565   5.317   8.493  13.142
27240W        W99566  37.152   6.865   4.546
27241W        W99567  20.212  14.382  13.017
27242W        W99568  23.121   1.709  14.429
27243W        W99569  31.936  44.092  11.522
27244W        W99570   7.369  20.446  14.839
27245W        W99571  31.849  40.396   4.808
27246W        W99572   7.428  37.707   1.581
27247W        W99573  34.012  18.282   3.217
27248W        W99574  29.539   1.424   2.166
27249W        W99575  16.882   6.387   2.856
27250W        W99576  32.432  13.152   3.737
27251W        W99577  27.165  22.959  14.321
27252W        W99578  14.546   8.375   3.746
27253W        W99579  23.221   1.369  13.566
27254W        W99580  42.290   9.894   2.254
27255W        W99581  43.369  17.817  11.967
27256W        W99582  13.303   1.352  14.606
27257W        W99583  18.710  27.188   3.256
27258W        W99584  10.944   9.155   2.340
27259W        W99585  16.732  43.423   3.213
27260W        W99586  17.663   3.930   0.877
27261W        W99587  23.012   4.363  11.550
27262W        W99588  23.874  40.028  14.433
27263W        W99589  13.246  30.464   1.837
27264W        W99590  42.290  18.544  14.074
27265W        W99591  33.305  23.305   4.041
27266W        W99592  26.303  40.793  12.961
27267W        W99593  13.191  12.036  12.211
27268W        W99594  32.329  13.631  11.990
27269W        W99595  31.961  17.244   2.401
27270W        W99596  40.888   7.725   0.307
27271W        W99597  23.599  37.269  14.722
27272W        W99598  36.741  15.077  12.682
27273W        W99599  35.430  20.199   3.822
27274W        W99600  40.503  34.960   1.952
27275W        W99601   2.550  41.968   2.272
27276W        W99602   1.295  19.108   1.761
27277W        W99603  25.938  24.188   1.768
27278W        W99604  23.821  17.779   4.359
27279W        W99605  18.838  33.192  12.120
27280W        W99606  32.135   9.740   1.200
27281W        W99607  26.683   2.669  13.453
27282W        W99608  29.485  13.081   1.290
27283W        W99609  20.546   8.360  11.050
27284W        W99610  25.003  34.611  14.171
27285W        W99611  43.759  10.390  12.117
27286W        W99612   5.776  19.715   4.044
27287W        W99613  38.313  30.078   4.623
27288W        W99614  21.492  24.726  11.608
27289W        W99615  39.761  16.828  10.655
27290W        W99616  38.564   6.469  11.994
27291W        W99617  27.275   2.796   2.340
27292W        W99618  36.851  15.497  12.975
27293W        W99619  42.514  21.607   3.934
27294W        W99620   5.465  41.065   3.226
27295W        W99621   9.910  42.801  12.668
27296W        W99622  21.241  14.799  11.091
27297W        W99623  18.425  26.542  14.481
27298W        W99624  44.762  35.411  10.497
27299W        W99625  35.680  24.217   3.845
27300W        W99626   6.441  13.643  12.382
27301W        W99627  38.924   6.969   4.930
27302W        W99628  33.506  43.545  12.923
27303W        W99629  35.236  17.077   1.873
27304W        W99630  38.052  29.570  13.447
27305W        W99631   7.345  17.231   1.160
27306W        W99632  26.573  12.306   2.359
27307W        W99633  29.451   9.651  13.590
27308W        W99634  23.019  13.649  11.475
27309W        W99635  32.479   1.502   1.027
27310W        W99636  40.804   0.909   4.255
27311W        W99637  43.767  20.325   1.951
27312W        W99638  10.217  11.785  11.807
27313W        W99639  24.450   7.104  10.842
27314W        W99640  14.645  34.302   2.339
27315W        W99641   7.052  20.055  14.853
27316W        W99642  10.107   1.953  13.067
27317W        W99643  28.892  36.017  14.411
27318W        W99644  33.660  13.793  13.821
27319W        W99645  37.436  28.880   2.699
27320W        W99646  23.323   7.371   1.643
27321W        W99647  41.380  13.594  14.456
27322W        W99648  42.957  11.424  11.152
27323W        W99649  13.371  14.084  13.708
27324W        W99650   6.679   7.655   1.761
27325W        W99651  36.052  43.522   1.340
27326W        W99652  27.735  44.785   4.722
27327W        W99653  33.557  41.357   1.826
27328W        W99654  44.002   5.271   3.124
27329W        W99655  10.064   4.809  11.319
27330W        W99656  30.428  16.305   2.842
27331W        W99657  18.690  33.418  11.678
27332W        W99658   2.657  33.500   3.782
27333W        W99659  18.074  41.427   2.821
27334W        W99660  28.384  33.151  11.635
27335W        W99661  15.733  41.816   2.842
27336W        W99662  29.733  21.161  10.729
27337W        W99663  14.814  30.387  10.723
27338W        W99664  33.461   7.338  14.020
27339W        W99665  34.985  42.353   1.069
27340W        W99666  22.986  20.709  14.812
27341W        W99667   7.810   1.390   1.970
27342W        W99668  24.089  31.619   9.959
27343W        W99669  16.075   9.754  12.157
27344W        W99670  43.093  12.775   1.798
27345W        W99671   3.761  22.346  13.474
27346W        W99672  38.154  26.436   4.155
27347W        W99673   0.832   5.866  12.595
27348W        W99674  31.706  27.628  12.989
27349W        W99675  31.779  29.484  12.841
27350W        W99676  10.352  25.087   3.256
27351W        W99677   7.627  14.076  11.552
27352W        W99678  24.349  42.310   2.416
27353W        W99679  18.197  27.104  13.372
27354W        W99680  30.972   7.623  11.475
27355W        W99681  15.441  17.737   0.281
27356W        W99682  30.542  15.707  12.413
27357W        W99683  21.298   7.965  11.212
27358W        W99684  37.696  44.050   3.859
27359W        W99685  39.998   3.026   4.964
27360W        W99686  22.552  30.533   2.626
27361W        W99687  33.324  19.716  14.088
27362W        W99688   0.428   1.375   0.650
27363W        W99689  17.615  39.424  14.520
27364W        W99690  22.775  39.337   3.311
27365W        W99691  19.353  12.063  13.423
27366W        W99692  32.916  14.879   1.850
27367W        W99693   5.459   3.301  13.953
27368W        W99694  31.353   1.704   2.760
27369W        W99695  32.848  36.409  12.987
27370W        W99696  32.934  10.794  12.951
27371W        W99697  33.560  12.080   0.906
27372W        W99698  20.485  34.097   1.032
27373W        W99699  43.165   7.856   4.041
27374W        W99700   5.661   5.326   1.320
27375W        W99701  30.345  25.986  10.319
27376W        W99702   5.619  16.134  11.933
27377W        W99703  33.630   4.348  14.143
27378W        W99704   6.978  25.136  14.415
27379W        W99705   3.815  26.241   4.200
27380W        W99706  14.283  25.545  11.234
27381W        W99707  11.000   0.484  10.588
27382W        W99708  44.473  25.585  13.624
27383W        W99709  23.936   0.284  11.145
27384W        W99710  26.107  35.423   0.964
27385W        W99711   7.680  12.267   3.130
27386W        W99712   9.183  25.768  10.855
27387W        W99713  21.669   2.783  12.631
27388W        W99714   6.367  10.438   2.769
27389W        W99715  33.611  38.321   0.708
27390W        W99716  42.703  41.386   3.361
27391W        W99717  20.450  33.661   1.754
27392W        W99718  25.000  40.645   4.126
27393W        W99719  40.306   7.188   0.771
27394W        W99720  28.418   1.355   4.271
27395W        W99721  33.192  13.309  11.064
27396W        W99722   6.001  37.104   2.718
27397W        W99723  43.916  12.362  11.868
27398W        W99724  12.237  43.583   1.496
27399W        W99725  35.972  11.883   9.986
27400W        W99726  26.415   0.098   0.759
27401W        W99727  15.130  15.826   5.012
27402W        W99728  41.040  34.372  14.900
27403W        W99729   8.826  41.002  12.024
27404W        W99730  44.887  15.703   1.027
27405W        W99731   9.089   7.339  12.304
27406W        W99732  23.009  26.977  11.519
27407W        W99733  30.911  19.631  11.916
27408W        W99734  11.420  24.547   2.705
27409W        W99735  14.758   4.183  13.352
27410W        W99736  31.137  37.557   3.336
27411W        W99737  44.809   9.649   3.662
27412W        W99738  36.274  15.596   2.043
27413W        W99739  26.827   0.934   4.604
27414W        W99740   7.368  43.502   1.667
27415W        W99741  27.981  32.337  13.489
27416W        W99742  38.010  11.121   0.424
27417W        W99743  37.355  14.291   4.097
27418W        W99744  39.287  36.549   2.733
27419W        W99745  33.414  12.625   1.625
27420W        W99746  31.015  29.170  13.370
27421W        W99747  44.365  39.597   3.341
27422W        W99748  16.964  28.245   1.386
27423W        W99749  42.483  43.251   4.484
27424W        W99750   7.331  11.793   3.873
27425W        W99751  25.465  42.915   4.068
27426W        W99752  38.944  44.285  14.476
27427W        W99753  11.798  36.845   3.706
27428W        W99754   1.231  39.955   3.358
27429W        W99755  31.489  24.515  11.729
27430W        W99756  19.033  29.003   3.565
27431W        W99757   4.289  34.610  13.386
27432W        W99758  21.658  12.090  11.266
27433W        W99759  20.793   6.671  11.476
27434W        W99760   4.205  23.560   3.723
27435W        W99761  23.855  19.172  11.949
27436W        W99762  29.078  21.585   0.249
27437W        W99763  28.896   7.817  14.442
27438W        W99764   1.451  34.314  10.785
27439W        W99765  39.381  43.101   4.568
27440W        W99766  31.451  21.643   0.898
27441W        W99767  26.882  35.155  14.166
27442W        W99768  19.215  21.958   2.848
27443W        W99769   1.697  33.870  11.388
27444W        W99770  23.552  17.357   9.611
27445W        W99771  23.964   4.392   3.522
27446W        W99772   5.689  18.078   1.896
27447W        W99773  24.698  36.363   4.210
27448W        W99774  24.775   0.801  11.617
27449W        W99775  44.981  22.670   4.213
27450W        W99776   1.270  13.067  10.678
27451W        W99777  40.217  23.266   1.849
27452W        W99778   1.525  42.349  11.038
27453W        W99779  24.123  23.098  10.470
27454W        W99780  38.686   9.936   1.877
27455W        W99781  15.542  25.557  13.010
27456W        W99782  18.416  11.291  12.782
27457W        W99783   6.002   7.746  10.730
27458W        W99784  22.658   0.424  11.214
27459W        W99785   1.557  37.113  14.322
27460W        W99786  13.313  42.109   1.727
27461W        W99787   0.112  13.091  13.551
27462W        W99788  15.721   0.169  11.506
27463W        W99789  24.659  11.816  14.258
27464W        W99790  24.929  29.282  13.909
27465W        W99791   0.370   4.292   1.636
27466W        W99792   4.951  28.500   4.090
27467W        W99793  41.965  23.679  14.877
27468W        W99794  38.588  34.854   1.851
27469W        W99795   1.685   4.755   0.978
27470W        W99796  10.259  16.109   0.985
27471W        W99797   2.837   0.455   0.837
27472W        W99798  20.977  43.662  14.274
27473W        W99799  24.316  34.863   0.314
27474W        W99800  17.185  11.758   3.713
27475W        W99801  26.271  15.257   4.607
27476W        W99802  14.783  20.148   3.188
27477W        W99803  28.380  12.801  12.970
27478W        W99804   6.104   8.770   1.312
27479W        W99805   2.333  44.871   1.934
27480W        W99806  17.569  17.624  12.936
27481W        W99807  41.762  41.970   2.051
27482W        W99808   5.103  17.078  14.470
27483W        W99809  18.171  39.020  12.098
27484W        W99810  24.275   5.303  14.363
27485W        W99811  30.984  17.320  12.089
27486W        W99812  28.672   9.689  13.918
27487W        W99813  16.843  16.303   1.319
27488W        W99814  32.712  25.753  12.499
27489W        W99815  36.604  14.226   1.913
27490W        W99816  26.049  31.140   4.715
27491W        W99817  38.428   9.629  12.638
27492W        W99818  40.920  32.578  11.993
27493W        W99819  36.964  31.125  12.225
27494W        W99820  23.459  32.004  12.113
27495W        W99821  41.672  39.005   3.259
27496W        W99822  32.104  44.957  12.879
27497W        W99823  40.424  27.979  11.645
27498W        W99824  41.210   2.962   4.006
27499W        W99825  35.517  20.751  11.886
27500W        W99826   7.742   2.557   4.767
27501W        W99827  16.822  26.926   3.071
27502W        W99828  23.544  36.559   4.927
27503W        W99829  13.423  20.260   3.095
27504W        W99830   2.370  23.312   4.264
27505W        W99831  41.367  26.242  11.179
27506W        W99832   1.630   9.607  11.139
27507W        W99833  28.375   9.440  10.702
27508W        W99834  18.634  26.514  11.974
27509W        W99835  11.243  10.811   1.863
27510W        W99836  27.465   2.970  12.114
27511W        W99837  38.839  29.019  13.945
27512W        W99838  21.090  10.069  13.327
27513W        W99839  11.968   1.725  14.937
27514W        W99840  41.443  25.920   0.862
27515W        W99841  38.746  39.645  11.284
27516W        W99842  14.290  38.972   4.334
27517W        W99843  29.447  39.074  14.402
27518W        W99844  33.738  20.521  12.556
27519W        W99845  12.094  41.477   3.256
27520W        W99846  18.124   3.477  12.142
27521W        W99847  12.898  38.396  10.348
27522W        W99848  15.300  36.713   4.234
27523W        W99849   5.083  43.209   3.224
27524W        W99850  23.262  18.308   2.205
27525W        W99851  28.178  40.969   0.124
27526W        W99852  27.231  11.060   1.736
27527W        W99853  28.982  29.185   1.869
27528W        W99854   4.530  10.339   4.994
27529W        W99855   2.455  32.978   2.370
27530W        W99856  43.737  21.531   2.803
27531W        W99857  22.695   9.243  14.449
27532W        W99858  35.068   2.027  11.125
27533W        W99859  22.785   4.101   0.360
27534W        W99860  17.604  40.271  11.051
27535W        W99861  33.248  10.112  11.739
27536W        W99862  25.067  31.167  11.134
27537W        W99863  36.635  18.111   2.371
27538W        W99864   2.671  37.200  11.525
27539W        W99865   5.398  27.476   2.421
27540W        W99866   9.290  11.641  13.878
27541W        W99867  30.528  37.047  12.991
27542W        W99868   2.991   8.607   3.632
27543W        W99869  19.780  31.382  13.154
27544W        W99870  38.286  34.623  10.739
27545W        W99871  16.182  32.041  12.653
27546W        W99872  15.196  10.431   0.761
27547W        W99873  39.721  29.879  14.742
27548W        W99874   9.117   9.600   1.901
27549W        W99875   7.590  27.517  13.611
27550W        W99876  20.666  25.120   1.670
27551W        W99877  25.262  38.921   2.392
27552W        W99878  23.078  17.317  14.269
27553W        W99879   6.948  33.113  12.008
27554W        W99880  35.913  28.052  13.497
27555W        W99881  35.004  17.577   4.553
27556W        W99882  18.952   7.634   2.185
27557W        W99883  13.359  13.818   1.375
27558W        W99884  36.525   2.330  13.746
27559W        W99885  26.141  29.186   1.221
27560W        W99886  31.553  30.477  12.158
27561W        W99887  15.837   5.821   4.656
27562W        W99888  20.767  22.985   3.793
27563W        W99889  27.613  35.872  13.124
27564W        W99890  10.380  23.611  14.857
27565W        W99891  17.027   6.655  14.860
27566W        W99892   6.630  17.829   0.978
27567W        W99893  35.515  17.222  11.186
27568W        W99894  32.961  25.667  10.642
27569W        W99895  22.303  32.562   2.158
27570W        W99896   2.925  41.150  10.722
27571W        W99897   7.822   2.039   4.571
27572W        W99898  17.219  36.537  13.539
27573W        W99899  27.530   1.473  14.348
27574W        W99900  18.863  40.039  13.461
27575W        W99901  37.385  19.412  14.554
27576W        W99902   2.881  29.019   3.244
27577W        W99903  15.126  14.574  12.139
27578W        W99904  25.771   7.665  12.012
27579W        W99905  10.316  30.838   3.300
27580W        W99906  15.498  42.935   4.942
27581W        W99907  23.922   3.761  14.304
27582W        W99908  15.187  32.454  13.362
27583W        W99909   3.400   8.859  12.910
27584W        W99910  23.164   9.585   0.718
27585W        W99911  41.030   6.203   1.255
27586W        W99912  34.078  24.518  13.608
27587W        W99913  13.198  27.360   3.783
27588W        W99914  37.671  24.971  12.079
27589W        W99915  35.534  40.655   1.798
27590W        W99916   3.043  35.890  13.972
27591W        W99917  19.530  29.591  14.888
27592W        W99918  16.584   8.918   1.825
27593W        W99919  37.318   8.613   4.317
27594W        W99920  16.241  35.770  12.918
27595W        W99921  20.005  12.195  10.470
27596W        W99922  16.743  42.530  13.028
27597W        W99923  27.169   0.908   3.262
27598W        W99924  11.621  29.289   2.338
27599W        W99925   8.664  10.422   2.355
27600W        W99926  31.455  30.742  12.603
27601W        W99927  13.665  20.948   3.780
27602W        W99928  23.252  32.445  12.955
27603W        W99929  40.165  27.448   3.279
27604W        W99930  14.111  12.339  12.657
27605W        W99931  37.166  21.583   1.043
27606W        W99932   3.722  12.234  11.582
27607W        W99933  23.254  21.654   2.963
27608W        W99934   3.997  34.941   2.281
27609W        W99935  21.441  11.728  12.385
27610W        W99936  15.683  34.543  12.747
27611W        W99937  16.746  20.445  11.329
27612W        W99938  40.730  25.861  13.786
27613W        W99939   2.680  40.593  13.854
27614W        W99940  31.031  24.670   0.737
27615W        W99941  11.303  24.215  11.862
27616W        W99942  27.142   0.754  12.548
27617W        W99943  12.807  27.427  13.708
27618W        W99944  19.492  16.581  13.887
27619W        W99945  33.979  40.243   3.968
27620W        W99946  28.150  23.308   2.813
27621W        W99947  44.438  32.087  14.013
27622W        W99948  37.519  26.229  12.875
27623W        W99949  33.557  38.578  13.908
27624W        W99950  31.318  23.613   0.935
27625W        W99951   0.425   8.433  13.443
27626W        W99952  13.524  41.773  14.627
27627W        W99953  27.155  12.670  11.456
27628W        W99954  43.672  33.730   5.008
27629W        W99955  40.868  42.894   2.637
27630W        W99956  23.489   7.791  14.558
27631W        W99957  14.099  15.233   1.371
27632W        W99958  10.202  25.170   4.682
27633W        W99959  39.954  24.418  14.364
27634W        W99960  34.047  11.168   4.080
27635W        W99961  19.303  25.099   3.384
27636W        W99962  17.381  31.991  11.097
27637W        W99963  41.173  11.420  12.336
27638W        W99964   0.888  33.348  14.637
27639W        W99965  24.507  16.643  10.661
27640W        W99966  34.007  41.474  13.347
27641W        W99967  26.682   7.133  11.968
27642W        W99968  39.101  26.662   2.354
27643W        W99969  27.547  42.629  11.125
27644W        W99970   1.841   5.446  10.513
27645W        W99971  12.282  12.098  10.583
27646W        W99972  19.493   5.960   2.026
27647W        W99973   8.677  11.216  10.896
27648W        W99974  16.745  13.182  11.243
27649W        W99975  12.812  30.359   3.828
27650W        W99976   0.494  32.962  13.556
27651W        W99977  30.017  38.510   4.688
27652W        W99978  34.550   1.692  11.361
27653W        W99979  35.943  30.603   2.741
27654W        W99980  25.520   0.470  14.156
27655W        W99981  41.460  11.681  14.057
27656W        W99982   6.076  15.191   4.303
27657W        W99983  18.764   3.025   4.096
27658W        W99984   7.752  26.986  13.878
27659W        W99985   3.650  23.058   4.913
27660W        W99986  42.761   9.474  11.065
27661W        W99987  35.804  33.941  10.538
27662W        W99988  22.164  25.463   2.687
27663W        W99989   9.847  44.434   4.314
27664W        W99990  35.122  36.552   0.358
27665W        W99991  37.330  18.253   0.899
27666W        W99992  29.378  21.304  11.801
27667W        W99993  19.686  32.438   3.915
27668W        W99994  19.674  44.982  14.837
27669W        W99995  27.674  10.667   0.628
27670W        W99996  29.599  25.528  14.831
27671W        W99997  28.081  32.141  14.287
27672W        W99998  10.453   7.119   0.698
27673W        W99999   3.888   2.382  14.364
27674W        W    0   1.751  37.489   4.168
27675W        W    1  36.084  44.774   0.148
27676W        W    2  28.975  40.141  12.004
27677W        W    3  20.586  18.118  11.893
27678W        W    4   9.289   3.029   0.363
27679W        W    5  30.704  22.050  14.052
27680W        W    6  41.343  43.911  13.342
27681W        W    7  15.145  39.492  12.313
27682W        W    8  24.075  36.924  12.017
27683W        W    9  16.500  34.049  12.506
27684W        W   10  41.436  25.822   1.829
27685W        W   11  43.856  16.031  10.756
27686W        W   12  27.933  43.793  13.347
27687W        W   13  36.887  41.863   4.370
27688W        W   14  12.650  16.655  10.664
27689W        W   15  44.015  28.373  14.058
27690W        W   16  20.513   8.200   0.436
27691W        W   17  30.703  36.392   4.155
27692W        W   18  22.196   1.973   0.962
27693W        W   19  15.113  17.522  12.600
27694W        W   20   3.777  20.463   1.712
27695W        W   21  29.084  43.328  10.578
27696W        W   22  13.062  44.491  11.061
27697W        W   23  24.205  29.507   1.864
27698W        W   24  27.261  43.903  11.565
27699W        W   25   8.432   9.235  10.358
27700W        W   26   4.390  27.690   2.350
27701W        W   27  12.305  44.056   3.999
27702W        W   28   1.350  36.900   4.559
27703W        W   29  24.486  15.716  10.865
27704W        W   30  31.328  40.205   3.260
27705W        W   31  17.284  44.805  12.830
27706W        W   32  32.144   8.634  14.909
27707W        W   33  43.002  22.548  14.814
27708W        W   34  30.424  42.024  11.595
27709W        W   35  41.267  42.328   3.614
27710W        W   36  22.977   9.262  12.125
27711W        W   37  18.346  14.842  14.890
27712W        W   38  40.358   4.720   1.725
27713W        W   39  28.522  12.731   2.267
27714W        W   40  44.158  20.973  11.536
27715W        W   41  26.135   3.472  12.451
27716W        W   42  43.405  43.593   0.731
27717W        W   43  26.117  15.260   2.550
27718W        W   44  24.536   8.814  11.518
27719W        W   45  36.086  30.249  13.930
27720W        W   46   4.219  20.887   0.365
27721W        W   47  23.947  25.100   5.106
27722W        W   48   7.481  17.596  13.476
27723W        W   49  10.190  24.548   0.513
27724W        W   50  44.806  30.272  13.411
27725W        W   51   4.557  22.211  10.654
27726W        W   52  37.919  17.335   4.472
27727W        W   53   0.465  43.940  14.827
27728W        W   54  13.228   5.714   0.400
27729W        W   55  28.541  35.844   1.979
27730W        W   56   2.564  10.937   0.974
27731W        W   57  36.891   4.022   2.352
27732W        W   58  41.113  13.634  11.532
27733W        W   59  15.293   1.335   0.988
27734W        W   60  20.996  10.304   4.667
27735W        W   61  35.098  11.730  14.224
27736W        W   62  21.722   5.105  13.110
27737W        W   63  32.872  20.817  12.614
27738W        W   64  23.434  12.239  11.247
27739W        W   65  14.347  15.262  13.606
27740W        W   66   9.689   4.437  13.909
27741W        W   67  13.218  36.911  14.292
27742W        W   68  39.828  35.989  13.755
27743W        W   69  17.777  35.773  10.739
27744W        W   70  24.469   1.810   2.101
27745W        W   71  43.440  43.050  12.916
27746W        W   72   2.941  36.165  11.544
27747W        W   73  33.913  41.031  12.453
27748W        W   74  16.260  42.830  11.527
27749W        W   75  15.208   0.047   1.736
27750W        W   76  35.020   0.978   0.727
27751W        W   77   3.089   5.810  13.281
27752W        W   78  14.631  40.064  12.171
27753W        W   79  25.040  12.289   2.825
27754W        W   80  13.654   1.611  11.642
27755W        W   81  14.375  32.617   2.187
27756W        W   82  24.534  19.821   4.046
27757W        W   83  38.476  41.620   2.169
27758W        W   84  40.043  26.318   0.210
27759W        W   85  23.865   1.918  12.830
27760W        W   86  30.314  22.435  13.938
27761W        W   87   6.509   4.953   0.256
27762W        W   88  26.672  24.522  10.910
27763W        W   89  33.398  36.929   0.518
27764W        W   90  32.721  21.710   4.571
27765W        W   91   8.170   0.495   4.382
27766W        W   92   1.754   6.624   1.833
27767W        W   93   4.247  32.565   3.014
27768W        W   94  35.628  23.926   2.545
27769W        W   95   4.332  35.627   4.268
27770W        W   96  41.523  30.931   1.240
27771W        W   97  19.953   8.835  11.452
27772W        W   98  21.685   9.944  12.243
27773W        W   99  20.054   8.023   0.645
27774W        W  100  38.395  16.692  13.978
27775W        W  101  17.067   8.039  12.744
27776W        W  102  34.948  14.981   0.985
27777W        W  103  26.337  20.972  13.473
27778W        W  104  19.616   6.753  12.347
27779W        W  105  39.045   7.931   4.153
27780W        W  106  23.773  39.974   2.644
27781W        W  107  11.840  29.134  12.077
27782W        W  108  16.675   1.235  13.031
27783W        W  109  35.594  37.316   1.472
27784W        W  110  27.072   0.834  14.788
27785W        W  111   2.389  41.301  13.527
27786W        W  112  33.115   5.248  12.423
27787W        W  113  11.761  24.788  12.559
27788W        W  114  13.037   5.619   4.093
27789W        W  115  31.211  17.750  13.012
27790W        W  116  23.020  22.332  11.646
27791W        W  117   8.509   3.421   2.507
27792W        W  118  24.216   4.457  10.473
27793W        W  119  28.016   1.822   0.161
27794W        W  120   1.725  39.956   0.528
27795W        W  121  30.373  20.155   0.311
27796W        W  122  22.476  31.859   3.261
27797W        W  123  34.819   7.739  14.783
27798W        W  124   0.285  13.903   2.271
27799W        W  125  37.175   3.227  10.977
27800W        W  126  10.902  20.666   3.720
27801W        W  127  32.429  30.244   4.643
27802W        W  128  34.929   2.889  13.703
27803W        W  129  26.896  34.352  11.943
27804W        W  130  27.545  24.955   3.694
27805W        W  131  25.037  28.472  10.663
27806W        W  132  42.305  18.094   3.225
27807W        W  133   2.774  35.123   1.808
27808W        W  134  19.069   0.534   2.016
27809W        W  135  12.821   3.768  14.233
27810W        W  136  31.974   8.460  14.048
27811W        W  137  30.865  29.658  13.276
27812W        W  138  29.686  10.290   3.129
27813W        W  139  30.945   6.625   2.788
27814W        W  140  27.734  37.007   2.940
27815W        W  141  38.974  41.563  11.678
27816W        W  142  35.366   1.980   2.376
27817W        W  143   8.201  42.765  12.905
27818W        W  144   8.203  11.072   0.910
27819W        W  145  38.954  22.760  11.111
27820W        W  146   0.809  28.110  13.456
27821W        W  147  15.190  30.003   1.005
27822W        W  148  27.996  33.139  11.957
27823W        W  149  24.554  29.659   4.446
27824W        W  150   3.214  17.011   0.724
27825W        W  151  11.023  24.550  12.149
27826W        W  152  19.078  29.998   2.655
27827W        W  153  31.997   7.964  11.623
27828W        W  154  39.662  28.402   3.300
27829W        W  155  41.214   6.226  13.422
27830W        W  156  24.191   3.452   2.725
27831W        W  157  20.682   2.705  12.388
27832W        W  158   8.665  36.712   4.289
27833W        W  159  24.648  38.869   5.112
27834W        W  160  18.214   5.631  14.057
27835W        W  161  41.338  19.707   1.458
27836W        W  162  20.970  27.559   3.785
27837W        W  163  39.904   3.192  14.479
27838W        W  164  35.348  29.392  11.023
27839W        W  165  42.883  41.386   0.869
27840W        W  166  27.908  20.829   4.231
27841W        W  167   8.234  29.573  14.748
27842W        W  168  44.794   2.512   0.519
27843W        W  169   3.177  28.873  13.038
27844W        W  170  42.651  33.575   5.265
27845W        W  171  36.976  38.849  10.790
27846W        W  172  44.950  10.310  14.974
27847W        W  173   7.064  41.003  12.577
27848W        W  174  43.675  13.142   2.233
27849W        W  175  26.555  33.917  13.037
27850W        W  176  38.354  20.483  13.475
27851W        W  177  30.686  14.092  10.504
27852W        W  178  20.585   2.984   0.788
27853W        W  179  22.079   2.328  11.447
27854W        W  180  13.908  40.502  14.977
27855W        W  181  23.223  30.560   0.768
27856W        W  182  36.003  21.648   3.360
27857W        W  183  14.317  31.109  10.684
27858W        W  184   1.487  18.524  11.098
27859W        W  185  22.483  40.409   4.381
27860W        W  186  27.968  27.982   1.810
27861W        W  187  26.097  17.491   3.885
27862W        W  188   6.015  34.054  13.418
27863W        W  189  14.367  34.505   4.190
27864W        W  190  28.826  15.343   1.381
27865W        W  191  10.697  36.533   1.043
27866W        W  192  44.669  41.378  11.181
27867W        W  193  34.924  43.238   4.262
27868W        W  194   3.196  44.528  11.060
27869W        W  195   9.081  21.708   4.165
27870W        W  196   9.811  27.942   2.303
27871W        W  197  36.543  23.195  10.624
27872W        W  198  35.406  42.927  12.515
27873W        W  199  42.710  30.329   4.590
27874W        W  200  24.739  41.885   3.153
27875W        W  201   3.573  35.137   4.665
27876W        W  202  21.924   9.658   0.410
27877W        W  203  40.572  40.915   1.255
27878W        W  204   4.137  35.831  12.968
27879W        W  205  12.469  31.179  10.630
27880W        W  206  25.418  37.418   3.788
27881W        W  207  38.392  23.181  12.008
27882W        W  208   1.982  26.563  14.483
27883W        W  209   8.482  32.352  11.204
27884W        W  210   7.512   1.959   2.796
27885W        W  211   0.140   4.170  12.925
27886W        W  212  13.586  24.344  11.312
27887W        W  213  27.265  16.298  14.039
27888W        W  214  33.864  30.064   2.164
27889W        W  215   0.814  23.876   4.619
27890W        W  216  16.138  18.355  13.510
27891W        W  217  19.240   8.668  13.922
27892W        W  218   4.918   0.352  13.315
27893W        W  219   5.616  15.616   1.790
27894W        W  220  21.441  41.154  12.016
27895W        W  221   1.775  27.243   1.747
27896W        W  222  10.962   4.768  11.909
27897W        W  223  16.636  12.544  14.123
27898W        W  224   1.725  21.783   0.272
27899W        W  225  27.271  36.191  14.821
27900W        W  226  29.110  16.637   2.362
27901W        W  227  20.718  27.457  14.689
27902W        W  228  30.449  15.533   4.163
27903W        W  229  44.407  24.070  11.664
27904W        W  230   5.741   7.227  13.426
27905W        W  231  12.107  44.444  10.619
27906W        W  232  38.386   4.786  11.448
27907W        W  233  16.589  36.377   2.233
27908W        W  234  23.385   2.050  12.937
27909W        W  235   6.795   5.339   3.238
27910W        W  236   2.512  22.178   1.422
27911W        W  237  40.685   4.885  14.049
27912W        W  238  44.987   9.794  13.465
27913W        W  239  40.022  33.670  13.631
27914W        W  240   5.969  27.038   3.136
27915W        W  241   0.979  31.615  13.174
27916W        W  242  11.717   4.261  10.553
27917W        W  243   3.849  28.928   2.288
27918W        W  244  44.862  23.172   4.136
27919W        W  245  23.235  23.120  13.889
27920W        W  246  16.837   8.371  11.009
27921W        W  247   4.760  29.614   0.606
27922W        W  248  11.812  37.014   3.233
27923W        W  249   5.146  29.635   4.053
27924W        W  250  10.314  22.462  11.419
27925W        W  251   6.773  19.315   0.151
27926W        W  252  14.317   4.406  13.547
27927W        W  253   5.386  30.110  13.354
27928W        W  254  33.546  42.760  13.428
27929W        W  255   9.784  34.922   1.613
27930W        W  256  21.173  29.067  14.390
27931W        W  257   7.281  13.884  12.009
27932W        W  258  36.625  22.592  13.853
27933W        W  259  29.349  21.796  12.998
27934W        W  260  43.856  43.479  10.637
27935W        W  261  18.255  43.783   2.282
27936W        W  262   7.388  42.934   2.919
27937W        W  263  21.003  23.592  12.006
27938W        W  264   4.893  38.684   4.769
27939W        W  265  28.666  43.264  13.978
27940W        W  266   3.357  44.006   4.613
27941W        W  267  20.968  28.428   4.364
27942W        W  268  23.788  25.800  11.064
27943W        W  269  36.973   5.792   0.840
27944W        W  270   0.813  43.600  10.357
27945W        W  271  23.157  27.190   0.881
27946W        W  272  11.976  22.657   1.390
27947W        W  273   7.467  29.174  13.313
27948W        W  274  30.903  13.370  13.289
27949W        W  275  11.271   3.251  14.551
27950W        W  276   4.916   5.306  14.190
27951W        W  277  38.398  26.548   2.279
27952W        W  278   3.974  15.791  12.386
27953W        W  279  25.531  33.246   2.345
27954W        W  280  19.700  12.359   0.328
27955W        W  281  24.246  35.409   1.842
27956W        W  282  11.183  35.400  13.454
27957W        W  283  35.525  24.449   2.467
27958W        W  284  19.556  44.456  14.816
27959W        W  285  15.789  17.381  13.066
27960W        W  286   3.700  35.020   1.232
27961W        W  287  34.670  32.130  10.084
27962W        W  288   7.306  15.162   4.553
27963W        W  289  25.480   9.462   3.686
27964W        W  290  34.423  22.426  14.947
27965W        W  291  17.273  43.399  13.512
27966W        W  292  14.320  37.344  11.688
27967W        W  293  24.629   4.433   0.209
27968W        W  294   2.759  26.050  12.991
27969W        W  295  29.699  17.659  12.288
27970W        W  296  29.117  35.059  14.980
27971W        W  297  27.224  32.584  11.062
27972W        W  298  16.277  10.682   2.385
27973W        W  299  10.993  26.433  11.981
27974W        W  300  21.122  37.505   1.915
27975W        W  301  39.494  33.124  11.942
27976W        W  302  34.966  13.333  10.670
27977W        W  303  31.063  18.764  12.947
27978W        W  304  31.355  14.472  11.616
27979W        W  305  22.623  39.792   3.520
27980W        W  306  25.807  22.230  14.426
27981W        W  307  43.168  20.664  12.857
27982W        W  308   4.170   8.350  13.010
27983W        W  309  11.574  10.398   2.003
27984W        W  310  31.552  28.724  14.288
27985W        W  311  39.946  30.186   1.230
27986W        W  312  16.576  11.350  13.302
27987W        W  313  36.569   2.969   1.856
27988W        W  314  34.092  35.472   1.254
27989W        W  315  26.431  28.107   3.116
27990W        W  316   1.872  33.122   4.442
27991W        W  317   3.186  13.229   2.398
27992W        W  318  37.873  24.954   1.958
27993W        W  319  28.644  43.359  11.818
27994W        W  320  28.697  30.951  11.873
27995W        W  321  15.737  43.317   0.762
27996W        W  322  23.582  16.963  10.261
27997W        W  323   7.887  41.529   4.056
27998W        W  324  12.877   6.511   2.814
27999W        W  325  42.449  20.167  14.099
28000W        W  326  42.971   6.144  11.165
28001W        W  327  30.929  14.319  12.904
28002W        W  328  22.494  12.307   1.328
28003W        W  329  44.717   6.242  13.381
28004W        W  330  16.723  41.017  13.439
28005W        W  331   2.651  14.724   3.073
28006W        W  332  43.710   6.445  12.019
28007W        W  333  11.111  35.076   3.885
28008W        W  334  19.471   2.875   2.688
28009W        W  335  17.732   5.374  14.062
28010W        W  336  28.545   3.829   4.173
28011W        W  337  15.264  27.667  10.979
28012W        W  338  33.408   0.440  14.280
28013W        W  339   1.812  15.257   0.862
28014W        W  340   6.871  32.546  14.251
28015W        W  341  14.587   4.796  12.508
28016W        W  342  26.944  34.404  13.595
28017W        W  343  13.102  19.663  11.610
28018W        W  344  37.886  40.186   4.603
28019W        W  345  25.632  34.553   4.576
28020W        W  346  13.752  27.785   0.010
28021W        W  347  36.518  18.200   3.270
28022W        W  348  31.906  18.760   5.044
28023W        W  349  42.392   4.690   3.126
28024W        W  350  21.305  14.963   2.017
28025W        W  351  10.307  37.830   1.248
28026W        W  352  40.621   0.359   1.325
28027W        W  353  18.955   9.276  12.116
28028W        W  354  30.060  15.311   4.442
28029W        W  355  19.770  11.838  14.685
28030W        W  356  31.137  11.434  11.555
28031W        W  357  18.691  10.695   2.308
28032W        W  358   5.938  17.871  11.698
28033W        W  359  20.081   4.894  13.384
28034W        W  360  15.982  38.313  12.039
28035W        W  361   3.721  38.638   0.086
28036W        W  362  29.144  12.983  11.264
28037W        W  363  41.865  44.697   1.292
28038W        W  364  30.030  23.498  13.153
28039W        W  365  38.317   3.499  12.442
28040W        W  366  30.136  16.122   0.533
28041W        W  367   3.253   6.771  14.501
28042W        W  368   4.887  12.838   1.681
28043W        W  369  13.723   1.411   4.664
28044W        W  370  43.761  17.641   4.603
28045W        W  371  27.906  37.977   3.133
28046W        W  372  14.740  24.493   1.692
28047W        W  373   1.939  17.202  10.355
28048W        W  374  23.988  20.563  11.198
28049W        W  375  39.545  13.076   1.600
28050W        W  376   8.650  15.539  12.352
28051W        W  377   7.622  16.183   0.042
28052W        W  378  32.502  15.360   4.195
28053W        W  379  40.171  22.821  14.528
28054W        W  380  26.849  10.616   3.093
28055W        W  381  13.163  36.348  11.613
28056W        W  382   3.220   0.350   4.860
28057W        W  383   2.330  12.264   3.095
28058W        W  384   7.361  38.060  12.205
28059W        W  385  41.831  34.038   0.776
28060W        W  386  12.280  32.205   5.002
28061W        W  387  21.151   1.385   4.744
28062W        W  388  16.162   4.279  11.504
28063W        W  389  25.595  20.112   2.812
28064W        W  390  21.553  13.624  13.911
28065W        W  391  25.550  42.089   3.712
28066W        W  392  21.509  38.631   4.095
28067W        W  393  37.856  43.740  14.897
28068W        W  394  29.944  43.666  14.850
28069W        W  395  26.185  36.852   4.589
28070W        W  396   2.770  10.228  13.094
28071W        W  397  27.958  27.487   4.330
28072W        W  398  33.187  24.147  11.519
28073W        W  399   6.371  34.652  13.902
28074W        W  400  20.460  24.501  12.066
28075W        W  401  32.503  11.210  11.717
28076W        W  402  30.811  11.230  14.341
28077W        W  403  16.669  21.793   4.510
28078W        W  404   7.169  28.480   3.365
28079W        W  405  11.209  31.710   4.814
28080W        W  406  37.478  40.805   0.851
28081W        W  407  30.267  18.802  14.408
28082W        W  408  35.963  44.359  14.751
28083W        W  409   4.106  42.017   3.184
28084W        W  410   7.399   5.183   4.491
28085W        W  411  31.989  22.047  10.639
28086W        W  412  38.427  26.859   4.341
28087W        W  413   7.845  36.937   3.082
28088W        W  414  21.536  43.709  14.400
28089W        W  415  38.592  21.731  12.877
28090W        W  416  25.089  33.943  10.735
28091W        W  417   0.476  22.177  11.890
28092W        W  418  31.995   1.493  11.514
28093W        W  419   0.043   7.328  12.498
28094W        W  420  21.062  42.048   1.171
28095W        W  421  23.612  38.332  11.009
28096W        W  422  13.309   1.720  12.259
28097W        W  423  12.121   3.395  13.700
28098W        W  424  25.473   8.006   3.709
28099W        W  425  36.865  10.720   3.847
28100W        W  426  25.699  16.723  14.791
28101W        W  427  27.556  15.391   0.194
28102W        W  428   6.475  29.033   4.570
28103W        W  429  27.048  43.807   2.694
28104W        W  430  13.927  12.781   2.338
28105W        W  431  31.961  32.125  11.992
28106W        W  432   3.801  30.143   3.179
28107W        W  433  26.976  36.488   2.923
28108W        W  434  22.630   4.356  11.185
28109W        W  435  28.373   7.455  10.686
28110W        W  436  30.505   9.572   4.131
28111W        W  437  44.392  11.833  12.364
28112W        W  438  17.099   8.573   2.704
28113W        W  439  21.067  29.923   2.687
28114W        W  440   5.034  38.842   1.602
28115W        W  441  44.328  39.039   3.208
28116W        W  442  18.876  34.439  11.512
28117W        W  443  11.196  27.914   3.164
28118W        W  444  26.682  31.474  12.974
28119W        W  445  34.450  22.756  11.424
28120W        W  446  17.756   8.675  12.379
28121W        W  447   8.117  37.159  11.101
28122W        W  448   9.768  24.721  11.129
28123W        W  449   7.354  11.879  11.149
28124W        W  450   3.164  12.485   1.765
28125W        W  451  22.975   9.949   3.874
28126W        W  452  40.336  38.288  14.816
28127W        W  453  24.891  26.537   0.279
28128W        W  454  13.258   9.607  13.984
28129W        W  455   2.303   5.277   4.591
28130W        W  456  39.651  35.978  12.868
28131W        W  457  29.519  28.984   1.875
28132W        W  458  30.144  42.458   3.230
28133W        W  459  13.138  24.714   3.104
28134W        W  460  42.052  24.430  12.585
28135W        W  461  32.268  20.939  14.684
28136W        W  462  10.793  15.533  13.571
28137W        W  463  36.307   5.201   4.606
28138W        W  464   8.936  35.818  14.220
28139W        W  465  31.604  20.417  14.358
28140W        W  466  26.430  37.122   1.261
28141W        W  467   0.507  16.180  12.608
28142W        W  468  43.962  39.548  14.359
28143W        W  469  34.811  40.429  11.160
28144W        W  470   6.352  31.260  11.530
28145W        W  471  42.993   5.875  10.716
28146W        W  472  38.143   6.332  13.320
28147W        W  473  44.097   8.097   1.813
28148W        W  474  23.702  17.504  13.081
28149W        W  475   2.147  11.621   3.623
28150W        W  476   7.919  42.059   4.138
28151W        W  477  39.529  24.727   4.550
28152W        W  478  23.395  41.262  11.609
28153W        W  479  13.103   2.520  13.856
28154W        W  480  21.337  24.618   1.738
28155W        W  481  29.394   5.647  14.837
28156W        W  482  43.984   8.412   4.810
28157W        W  483  10.030   7.308  13.292
28158W        W  484  12.873  10.651  13.481
28159W        W  485  37.374  35.066   3.602
28160W        W  486  39.579  21.541  10.901
28161W        W  487  36.907  13.783   5.494
28162W        W  488  26.617   4.628  11.877
28163W        W  489  21.161  37.426   2.872
28164W        W  490   9.101  35.154  11.154
28165W        W  491  26.918  20.813  10.694
28166W        W  492  12.103   5.765  12.590
28167W        W  493  21.759  31.090   0.490
28168W        W  494  29.601   3.499  10.374
28169W        W  495  20.587  32.177  14.737
28170W        W  496  10.647  27.563   0.998
28171W        W  497  13.321   0.693  11.587
28172W        W  498  37.116  38.359   4.633
28173W        W  499  12.125  22.812  10.486
28174W        W  500  39.473  22.562   3.774
28175W        W  501  22.019  43.679  14.758
28176W        W  502  11.242  28.911   2.244
28177W        W  503  13.174  26.731  13.539
28178W        W  504  41.469  14.608  13.616
28179W        W  505  41.868  24.897   0.277
28180W        W  506  19.595  24.666   3.667
28181W        W  507   2.464  42.348  14.913
28182W        W  508   5.281  11.591  12.877
28183W        W  509  38.263  33.527   0.756
28184W        W  510  20.721  18.801   2.712
28185W        W  511  39.594  34.043   4.040
28186W        W  512  15.349  27.523  12.887
28187W        W  513   7.157  16.128  11.628
28188W        W  514   1.527  30.647   1.004
28189W        W  515  32.738  22.639  12.980
28190W        W  516  26.459   3.901  11.508
28191W        W  517   5.885  37.403  10.450
28192W        W  518  32.063   0.229  12.419
28193W        W  519  44.441   2.192   4.144
28194W        W  520  32.227  22.662  12.920
28195W        W  521  20.220  30.509   1.709
28196W        W  522   4.026  42.295  11.972
28197W        W  523  28.759  18.768  11.662
28198W        W  524  18.099  22.582  13.435
28199W        W  525  37.550  27.204   2.344
28200W        W  526  41.308   3.941  12.276
28201W        W  527   3.140  15.682  11.194
28202W        W  528  24.938  34.237  14.562
28203W        W  529   8.664  11.290   2.672
28204W        W  530  35.582  42.029   0.363
28205W        W  531  12.640  15.096   0.348
28206W        W  532  32.318   0.479   3.090
28207W        W  533  32.156  17.280  13.745
28208W        W  534   8.095  44.448   0.841
28209W        W  535  19.017  39.345  11.245
28210W        W  536  28.662  26.220   0.879
28211W        W  537  18.131  26.471  14.041
28212W        W  538   0.037  21.231  14.208
28213W        W  539  12.807  42.869   3.167
28214W        W  540  27.992  36.127   4.614
28215W        W  541  35.100  44.818   2.202
28216W        W  542   6.090   7.805  12.019
28217W        W  543  29.115  18.541  11.981
28218W        W  544  27.951   6.046   2.116
28219W        W  545   4.029  15.095  12.893
28220W        W  546   1.271  12.254  10.123
28221W        W  547  33.701  30.637   3.707
28222W        W  548  28.987   0.816   1.619
28223W        W  549  21.691   5.290  11.273
28224W        W  550   9.580  29.437   0.241
28225W        W  551   8.844  33.568   3.571
28226W        W  552  21.591  22.672   0.942
28227W        W  553  15.532   3.932   0.792
28228W        W  554   3.214  32.903  13.883
28229W        W  555  12.766   0.306   1.448
28230W        W  556  18.541   9.965  13.951
28231W        W  557  27.917   7.117  11.662
28232W        W  558  40.446  44.554   3.221
28233W        W  559  11.874  26.073   0.364
28234W        W  560  19.854  24.392   1.801
28235W        W  561  43.485  31.381  14.726
28236W        W  562  28.984  11.220   4.865
28237W        W  563   4.855   0.866   2.788
28238W        W  564  25.596  15.808   4.031
28239W        W  565   2.006  13.323  14.006
28240W        W  566  29.709  33.987   3.248
28241W        W  567  29.858   0.349  14.782
28242W        W  568  16.350  15.729  13.407
28243W        W  569  29.601  35.858  14.094
28244W        W  570   1.165  27.226  11.584
28245W        W  571  37.757  23.236  14.636
28246W        W  572  39.934   5.437   2.766
28247W        W  573   0.613  39.112   9.898
28248W        W  574  41.534  31.255  14.522
28249W        W  575  44.259  23.528   3.648
28250W        W  576  44.239   3.907   0.357
28251W        W  577  33.423  14.284  12.953
28252W        W  578   7.086   0.255  11.755
28253W        W  579   1.209  17.806  12.934
28254W        W  580  17.521  16.810  13.987
28255W        W  581  14.458  14.221   3.714
28256W        W  582  11.335  38.408  12.437
28257W        W  583  22.011  20.089  13.256
28258W        W  584   7.870  13.732  14.871
28259W        W  585  35.667   2.377   2.127
28260W        W  586  19.747  17.969  11.126
28261W        W  587  18.508  32.238  12.096
28262W        W  588  17.531  38.326   3.788
28263W        W  589  18.027  22.474  14.854
28264W        W  590  43.424  10.688   1.865
28265W        W  591  24.265   7.516   0.981
28266W        W  592  19.552  17.349   1.914
28267W        W  593  16.994  34.082   3.071
28268W        W  594  38.834  29.678  13.865
28269W        W  595  36.585   7.161   2.869
28270W        W  596  28.169   0.387  11.716
28271W        W  597  41.386  15.539  10.910
28272W        W  598  16.434   0.768  13.067
28273W        W  599  31.730  22.511  12.991
28274W        W  600  41.767  25.007   5.098
28275W        W  601  10.640   3.302  14.039
28276W        W  602  40.996  44.932   0.227
28277W        W  603   2.395  42.289   3.221
28278W        W  604  35.870   7.732   2.289
28279W        W  605   4.307  17.680   4.402
28280W        W  606  44.380  39.876   1.123
28281W        W  607  14.832  17.279   1.455
28282W        W  608  36.861   0.178  10.340
28283W        W  609   7.663  41.164   5.050
28284W        W  610  39.026  28.070  13.409
28285W        W  611  19.955  13.611   0.413
28286W        W  612  42.953  42.844  13.862
28287W        W  613  13.341  16.392   2.836
28288W        W  614   7.208  31.789  11.798
28289W        W  615  25.475  41.379  13.495
28290W        W  616  40.533  32.581   2.257
28291W        W  617  35.739  30.671  13.850
28292W        W  618  42.274  21.256  12.023
28293W        W  619  22.222  27.023   3.918
28294W        W  620  15.943  16.686   3.524
28295W        W  621   2.548  42.798   3.800
28296W        W  622  11.463  22.661   1.340
28297W        W  623   8.853   9.297  13.637
28298W        W  624  43.569  11.349  14.446
28299W        W  625  43.358  31.828  13.031
28300W        W  626  13.115  29.532   3.702
28301W        W  627  14.689  18.103  10.459
28302W        W  628   2.969   0.023   0.234
28303W        W  629  17.547  39.967  11.475
28304W        W  630  38.296  18.560   3.200
28305W        W  631   5.179   2.437  11.367
28306W        W  632  31.083  34.945   0.732
28307W        W  633   7.238  33.195   1.267
28308W        W  634  20.633   0.894   3.295
28309W        W  635  26.408  28.627  12.009
28310W        W  636  43.782  39.554   0.691
28311W        W  637  36.471   5.596   1.910
28312W        W  638  13.435  29.129   3.697
28313W        W  639  13.224  44.855  13.989
28314W        W  640   3.271  18.237   2.360
28315W        W  641  33.538  25.054  12.051
28316W        W  642   9.666   8.510   3.720
28317W        W  643   6.788  41.758  12.136
28318W        W  644  16.608   9.368   2.094
28319W        W  645  40.746   1.298   4.603
28320W        W  646   5.409  43.958  13.943
28321W        W  647  43.215  20.616   2.655
28322W        W  648  27.875  10.699  14.481
28323W        W  649   9.206  43.752   1.936
28324W        W  650   8.609   6.554   5.018
28325W        W  651  40.991   1.422  14.611
28326W        W  652  30.476   2.111  14.900
28327W        W  653  26.664  11.317  14.391
28328W        W  654  24.897   0.326  11.129
28329W        W  655   9.012  29.473   3.096
28330W        W  656   6.901  15.317   3.250
28331W        W  657  34.158  36.341   1.238
28332W        W  658  28.623  32.771  14.043
28333W        W  659   3.404  40.603   4.072
28334W        W  660  10.824  33.880   0.278
28335W        W  661  14.488  24.477  13.850
28336W        W  662  37.729   0.319  12.121
28337W        W  663   0.581   3.549   5.519
28338W        W  664  31.907  26.753  11.762
28339W        W  665  36.255   8.647  13.723
28340W        W  666   1.283  15.631   0.302
28341W        W  667  32.079  31.246   4.544
28342W        W  668  13.752   7.217  14.894
28343W        W  669   2.529  26.576   1.875
28344W        W  670  11.234  29.165   2.686
28345W        W  671  17.509  44.185  11.954
28346W        W  672  26.497   6.285  13.419
28347W        W  673   8.796   7.662  10.646
28348W        W  674  24.775  44.769  14.876
28349W        W  675  34.884   0.365   2.975
28350W        W  676   4.821  18.162  13.308
28351W        W  677  34.854  42.271  12.310
28352W        W  678  25.446   3.582   1.600
28353W        W  679  16.735  16.090  12.129
28354W        W  680  39.159  21.617  11.655
28355W        W  681  26.117  23.650  14.352
28356W        W  682  11.616  14.724   4.297
28357W        W  683  21.476  18.022  12.417
28358W        W  684  22.733  13.440  13.549
28359W        W  685   9.712  21.806   0.774
28360W        W  686  14.192  15.162   3.343
28361W        W  687   9.464  27.547   4.066
28362W        W  688  28.380  29.094   4.645
28363W        W  689  40.877  43.888  11.591
28364W        W  690   9.709   6.708   1.036
28365W        W  691  16.749  31.933  11.509
28366W        W  692   2.799  10.314  14.681
28367W        W  693  22.868  10.268   4.879
28368W        W  694  40.909  44.482  14.963
28369W        W  695  22.508  17.614   2.824
28370W        W  696  43.796  27.616   3.255
28371W        W  697  13.316  29.101  14.557
28372W        W  698  31.175  24.864   2.829
28373W        W  699  32.849  12.816   3.940
28374W        W  700  37.004  24.026   3.082
28375W        W  701  33.388  31.463   2.215
28376W        W  702  16.556  14.200   0.949
28377W        W  703  35.075  25.936  13.323
28378W        W  704   4.788   8.366  10.710
28379W        W  705  14.384  20.251  11.824
28380W        W  706   6.882  41.101  10.684
28381W        W  707  35.601  27.631  13.566
28382W        W  708  35.068  15.520   3.786
28383W        W  709  15.788   3.698  14.807
28384W        W  710  16.720   6.692  10.574
28385W        W  711  35.102  24.211   0.252
28386W        W  712  43.854  38.329   1.305
28387W        W  713   8.243  37.363  10.658
28388W        W  714  27.029  20.301  12.409
28389W        W  715  14.114  20.676   1.292
28390W        W  716  19.545  16.016   3.158
28391W        W  717   1.236  16.066  13.851
28392W        W  718  33.434  34.039  13.729
28393W        W  719  19.058  36.589   1.906
28394W        W  720  15.415   3.022   4.066
28395W        W  721  37.216  22.931  12.883
28396W        W  722   1.010   6.143  11.229
28397W        W  723   0.780  32.416  10.522
28398W        W  724  25.740  16.202  10.641
28399W        W  725  25.222   2.163   4.570
28400W        W  726  39.985  13.692   1.290
28401W        W  727  23.023   5.986   2.252
28402W        W  728  30.204  28.519   4.629
28403W        W  729  29.599  20.514  13.622
28404W        W  730   4.484  24.764  13.511
28405W        W  731  35.093   5.966  12.963
28406W        W  732  12.146  20.659   0.755
28407W        W  733  11.117  11.716  12.081
28408W        W  734  12.163  27.926   0.460
28409W        W  735  20.825  34.645  13.059
28410W        W  736  36.458  24.591  12.470
28411W        W  737   5.346  33.003  10.428
28412W        W  738  13.503  34.957  11.396
28413W        W  739   9.390  41.552   3.714
28414W        W  740   0.747   1.803  14.262
28415W        W  741  16.479  42.990  11.986
28416W        W  742   0.297  14.116  11.518
28417W        W  743  31.841  37.436   4.661
28418W        W  744  23.115  33.856   0.309
28419W        W  745   1.964  14.459   2.376
28420W        W  746  32.970   1.892   2.488
28421W        W  747  12.804   1.476  14.733
28422W        W  748  24.567  21.773   4.580
28423W        W  749  40.404  16.068  10.655
28424W        W  750   4.254  27.544  11.581
28425W        W  751  19.461   2.501  11.262
28426W        W  752  13.865  37.388   1.371
28427W        W  753   7.338   2.233   4.631
28428W        W  754  10.682  27.418  10.782
28429W        W  755  36.464   3.705   4.630
28430W        W  756   7.461  37.974   4.169
28431W        W  757  35.459  25.130   1.942
28432W        W  758  15.267   7.223  10.737
28433W        W  759  33.076  31.477   3.890
28434W        W  760  13.209   2.851   2.969
28435W        W  761  13.058  10.365   4.292
28436W        W  762  10.909   9.295  12.611
28437W        W  763  10.172  19.124  12.689
28438W        W  764  29.900  22.547   3.779
28439W        W  765  44.503  27.668   3.621
28440W        W  766  19.659  22.467   3.146
28441W        W  767   2.329  33.583  12.583
28442W        W  768   8.864  41.578   3.190
28443W        W  769  25.251  24.263  14.925
28444W        W  770  33.519  33.699   5.384
28445W        W  771  21.556   9.808  13.295
28446W        W  772  17.915  36.413   3.359
28447W        W  773  36.877   0.669  14.449
28448W        W  774  21.606  41.101  13.753
28449W        W  775   0.985  22.325  11.765
28450W        W  776  10.110  13.741  11.071
28451W        W  777  37.143  36.219  10.493
28452W        W  778  31.829  19.095  11.137
28453W        W  779   1.709  32.842  11.070
28454W        W  780  31.916  11.305   0.226
28455W        W  781  22.677  21.235  12.919
28456W        W  782  11.091   1.097   3.046
28457W        W  783  17.097   1.899   1.379
28458W        W  784  19.574  13.888  12.512
28459W        W  785  10.323  43.867  13.049
28460W        W  786   8.122  35.910  13.803
28461W        W  787  31.215  41.103  14.761
28462W        W  788  32.438  37.112  10.484
28463W        W  789   2.061  21.920  11.777
28464W        W  790  21.051  11.583   3.389
28465W        W  791  16.962  17.488   0.492
28466W        W  792  27.892  18.697  11.535
28467W        W  793  22.674  15.931  11.019
28468W        W  794  10.811  18.567   2.868
28469W        W  795  24.783  44.876  12.646
28470W        W  796  32.981  44.477   2.728
28471W        W  797  13.800  39.698  11.949
28472W        W  798   6.421  33.612   2.911
28473W        W  799  24.714  30.676   4.403
28474W        W  800  41.309  21.286   3.209
28475W        W  801  40.945  11.816  12.109
28476W        W  802  21.976  28.923   3.858
28477W        W  803  29.849  17.352  11.704
28478W        W  804   6.414  10.689   0.384
28479W        W  805  19.471   9.377   2.571
28480W        W  806  24.971  24.559   2.714
28481W        W  807  25.817  25.099   0.184
28482W        W  808  11.154   6.573   3.399
28483W        W  809   0.080  23.487  14.701
28484W        W  810  27.446  36.339  12.996
28485W        W  811  29.153  17.659   3.227
28486W        W  812  26.459  14.798  12.983
28487W        W  813  30.649  14.793   1.353
28488W        W  814   7.709   6.041   0.009
28489W        W  815  41.694  29.674  14.982
28490W        W  816  37.556   4.505  11.118
28491W        W  817  23.736  33.571  11.912
28492W        W  818  12.262  18.318   2.311
28493W        W  819  20.277  21.331   0.501
28494W        W  820   8.245   6.868   0.465
28495W        W  821   1.376  14.226  11.595
28496W        W  822  11.921  31.973  10.726
28497W        W  823  28.633  31.981  13.955
28498W        W  824  13.817   5.343   4.076
28499W        W  825  24.724  28.960  14.692
28500W        W  826   5.801   6.378   2.630
28501W        W  827  30.125  20.092  10.666
28502W        W  828  38.326  13.220  14.713
28503W        W  829  27.679  14.091   3.748
28504W        W  830   4.340   5.939   0.703
28505W        W  831   3.052  23.726  10.736
28506W        W  832  13.186  26.149  11.678
28507W        W  833  13.388  11.273  11.043
28508W        W  834   8.886  33.084  12.325
28509W        W  835  35.157  11.146  11.997
28510W        W  836   7.255  11.058  14.923
28511W        W  837   5.969  44.851  12.333
28512W        W  838  42.382  40.071  10.636
28513W        W  839  27.214  18.585  14.319
28514W        W  840  30.483   8.335  13.937
28515W        W  841   7.209  40.020   0.241
28516W        W  842  44.299  26.087   4.328
28517W        W  843   7.064  31.332   1.255
28518W        W  844   8.925  28.511  12.478
28519W        W  845  17.467  34.436   3.492
28520W        W  846  39.076  38.670  11.816
28521W        W  847  43.352   2.608  13.967
28522W        W  848  32.100  43.556   3.301
28523W        W  849   1.482  25.696  12.433
28524W        W  850   2.282  24.213  12.028
28525W        W  851  20.775   9.092   3.727
28526W        W  852  33.518  19.065  13.002
28527W        W  853   2.785  38.356  12.423
28528W        W  854  24.540  30.192  13.517
28529W        W  855   7.701  13.492  14.359
28530W        W  856  21.480   7.850   2.650
28531W        W  857   5.963  11.814  11.602
28532W        W  858   0.312  17.032  13.049
28533W        W  859  14.611  35.028   1.154
28534W        W  860  31.500  26.668  14.839
28535W        W  861   8.835  25.367  10.626
28536W        W  862  44.103  31.465  12.872
28537W        W  863   4.864  29.451   1.410
28538W        W  864  38.835  17.134  11.871
28539W        W  865  12.274  25.103  10.404
28540W        W  866   8.839  40.018   2.934
28541W        W  867  30.904  25.955  12.940
28542W        W  868  14.239  22.273  12.536
28543W        W  869  27.090  44.771   2.066
28544W        W  870   9.186   9.173  11.764
28545W        W  871  37.829  28.580   0.992
28546W        W  872  40.554  42.662   1.800
28547W        W  873  39.064  30.522   4.718
28548W        W  874  16.035  36.496  11.942
28549W        W  875  28.609   2.451  11.625
28550W        W  876  37.096  20.597   0.041
28551W        W  877  28.639  34.174  13.449
28552W        W  878  10.821  17.855   0.315
28553W        W  879  44.790  21.327   2.032
28554W        W  880  12.333   4.790  12.428
28555W        W  881  30.611   3.241   3.342
28556W        W  882  19.942  36.721  13.476
28557W        W  883  23.453  25.932  10.691
28558W        W  884   7.369  18.197   1.638
28559W        W  885  31.556  41.383  14.448
28560W        W  886  36.445  28.892   1.851
28561W        W  887  33.387  20.845   0.183
28562W        W  888  15.332   1.396  10.407
28563W        W  889  10.949  27.516   2.908
28564W        W  890  12.639  38.470  12.840
28565W        W  891   6.710   7.480   1.269
28566W        W  892  21.793   7.203  11.130
28567W        W  893   3.754  14.655  12.967
28568W        W  894  23.699  19.986  11.581
28569W        W  895   2.298  29.527  11.320
28570W        W  896  25.133  23.073   3.301
28571W        W  897  20.769  13.713   4.391
28572W        W  898   6.490  12.743   2.676
28573W        W  899  36.567  32.486  11.923
28574W        W  900   0.331   7.439   0.694
28575W        W  901   4.849  25.761  10.075
28576W        W  902  16.901  39.244  14.834
28577W        W  903   5.735  25.962  14.753
28578W        W  904   8.104   8.202  13.803
28579W        W  905  13.864  36.583  12.046
28580W        W  906   3.389  37.267   1.730
28581W        W  907   4.027  21.645   5.303
28582W        W  908   7.002  44.485  11.555
28583W        W  909  26.007  27.964  11.474
28584W        W  910  30.146  29.926  14.441
28585W        W  911  25.122  10.683   3.102
28586W        W  912  17.727   9.103  13.970
28587W        W  913  44.076  23.012  14.350
28588W        W  914  11.900  22.616   4.154
28589W        W  915   2.945  22.061   3.251
28590W        W  916  28.366  10.151  13.960
28591W        W  917  12.671  41.999   0.816
28592W        W  918  42.191   2.950   4.115
28593W        W  919  12.816  13.092  10.785
28594W        W  920  33.710  44.085   4.171
28595W        W  921  26.225  32.252   2.472
28596W        W  922  30.473  20.676  12.531
28597W        W  923   1.639  31.023   1.720
28598W        W  924  13.252  37.323  12.987
28599W        W  925   4.517  27.198   1.446
28600W        W  926   0.824  18.270  14.195
28601W        W  927  33.496  24.525  11.688
28602W        W  928  44.744  37.350   3.801
28603W        W  929  40.078   4.576  12.543
28604W        W  930  12.614  35.352  11.253
28605W        W  931  15.832  22.442  13.449
28606W        W  932   2.446  31.443   3.142
28607W        W  933  26.745  32.159  11.588
28608W        W  934  40.485  40.405   2.390
28609W        W  935  26.800  42.299   1.821
28610W        W  936   8.885  17.487  10.941
28611W        W  937  21.756  17.270   1.736
28612W        W  938  13.159   5.098  11.928
28613W        W  939   6.838  12.852  14.556
28614W        W  940   6.312  44.265  12.463
28615W        W  941  23.617   6.297  13.879
28616W        W  942   2.789  27.583   2.744
28617W        W  943  24.222  33.700  11.884
28618W        W  944   9.869  35.899   1.714
28619W        W  945   8.342  29.455  13.087
28620W        W  946  26.143  34.928   0.785
28621W        W  947  19.964  41.444  12.811
28622W        W  948  37.117   9.781   0.394
28623W        W  949  35.174  41.552   3.798
28624W        W  950  42.525   0.976  11.146
28625W        W  951  19.744  21.983   1.880
28626W        W  952  31.576   4.937  14.455
28627W        W  953  25.076  34.864   2.659
28628W        W  954  25.964   5.274   1.782
28629W        W  955  19.987  26.407   0.969
28630W        W  956  30.394  41.324  12.940
28631W        W  957  22.206   8.039  12.034
28632W        W  958  29.096  36.055   0.838
28633W        W  959  19.044  37.121   1.866
28634W        W  960   9.152  22.588   1.449
28635W        W  961  24.083  41.241  12.101
28636W        W  962   7.376  22.764  14.347
28637W        W  963   9.559  29.501  11.204
28638W        W  964   5.252  35.578  11.096
28639W        W  965  27.407  25.295  10.683
28640W        W  966   2.219  31.150   0.724
28641W        W  967  27.097   8.425  13.481
28642W        W  968  21.752  24.912   1.297
28643W        W  969   8.644  15.137  11.501
28644W        W  970  38.849  17.267   4.264
28645W        W  971  36.903  13.316   4.147
28646W        W  972  11.081  14.778  13.294
28647W        W  973  26.598  20.636   4.724
28648W        W  974  38.382   3.711   3.267
28649W        W  975  14.065  33.390   4.678
28650W        W  976  11.222   1.256  13.876
28651W        W  977   9.877  22.048  13.810
28652W        W  978  18.474   5.634   3.346
28653W        W  979  33.877  33.507   0.981
28654W        W  980  41.821  42.960   1.890
28655W        W  981  33.765  31.180  10.811
28656W        W  982   9.234  43.358  10.719
28657W        W  983  41.236  38.989  10.756
28658W        W  984   8.308  13.876  11.218
28659W        W  985  13.751  37.424  12.897
28660W        W  986  13.158  13.128  11.186
28661W        W  987  31.845  12.199  11.580
28662W        W  988  15.233  14.166   2.887
28663W        W  989  44.255   4.358  12.409
28664W        W  990  25.234  18.499  14.773
28665W        W  991   8.672  30.893  10.864
28666W        W  992  33.651  35.418  10.701
28667W        W  993   0.214  44.257  11.343
28668W        W  994  33.595  40.350   5.132
28669W        W  995  21.873   7.651   2.374
28670W        W  996  41.865  43.747  13.387
28671W        W  997  19.920  17.370   2.733
28672W        W  998  30.065   6.439   4.640
28673W        W  999  12.085  32.143   3.218
28674W        W 1000  13.258  27.455   2.915
28675W        W 1001  28.456  39.238  13.300
28676W        W 1002  11.605  38.124  13.640
28677W        W 1003  35.855  29.151   1.222
28678W        W 1004  42.438  42.137  10.686
28679W        W 1005  24.642   1.479   1.723
28680W        W 1006   0.510  11.205  14.185
28681W        W 1007  41.445  14.522   4.516
28682W        W 1008   0.316  19.236   0.939
28683W        W 1009  36.623  35.119   0.799
28684W        W 1010  35.508  34.279  10.792
28685W        W 1011   6.520  43.800   0.835
28686W        W 1012  30.228  24.209   1.813
28687W        W 1013  14.842  32.000   2.786
28688W        W 1014  12.291  20.094  14.501
28689W        W 1015  43.859  11.428   1.822
28690W        W 1016  27.076  14.593   2.195
28691W        W 1017  25.558  40.279   1.957
28692W        W 1018  28.179  40.918  13.002
28693W        W 1019  37.102  34.648   2.744
28694W        W 1020  18.574  12.324   4.681
28695W        W 1021  10.690  31.104  14.582
28696W        W 1022  40.388  34.636  11.200
28697W        W 1023   4.373  25.555  11.872
28698W        W 1024   4.834   6.185   0.820
28699W        W 1025   6.874  36.524  10.994
28700W        W 1026  15.217  36.564  12.323
28701W        W 1027  29.868   2.839  14.657
28702W        W 1028  37.554   8.711   2.423
28703W        W 1029   4.165  34.855   1.391
28704W        W 1030   3.898   8.671   0.289
28705W        W 1031  20.241  12.348  11.149
28706W        W 1032  37.830  16.249   3.605
28707W        W 1033  18.938  23.249  11.693
28708W        W 1034  19.011  26.555   4.689
28709W        W 1035   5.633   0.724   4.619
28710W        W 1036  13.067  14.199   2.109
28711W        W 1037  43.297   9.818  12.768
28712W        W 1038  38.787  38.089   0.664
28713W        W 1039  26.636   8.387  10.803
28714W        W 1040  13.286  43.855   4.209
28715W        W 1041  24.461  33.610   3.730
28716W        W 1042  10.549  22.264   4.443
28717W        W 1043  44.332  32.240   1.796
28718W        W 1044   8.299  32.017   0.844
28719W        W 1045  42.999  33.176   1.071
28720W        W 1046  19.755  34.099   1.389
28721W        W 1047  10.757  39.302   4.472
28722W        W 1048  16.710  37.474   4.824
28723W        W 1049  27.953   4.518   2.251
28724W        W 1050   5.645  33.404  10.584
28725W        W 1051  24.183   5.442   4.592
28726W        W 1052  19.940  13.418  14.242
28727W        W 1053  25.441  23.922  11.929
28728W        W 1054  37.489  24.231  13.057
28729W        W 1055  44.561  22.518  11.187
28730W        W 1056   8.166  40.833   0.843
28731W        W 1057  24.255  12.523   4.309
28732W        W 1058  38.950   8.826  10.482
28733W        W 1059   1.407  39.795  12.123
28734W        W 1060  17.062  29.033  10.645
28735W        W 1061   6.498  11.420   1.799
28736W        W 1062  12.065   9.192  14.564
28737W        W 1063   8.665  10.097   0.368
28738W        W 1064  25.441  41.445  10.676
28739W        W 1065   1.348  35.678  14.420
28740W        W 1066  41.312   5.836   0.983
28741W        W 1067  44.963   6.395  14.833
28742W        W 1068   6.972  36.076  14.952
28743W        W 1069   3.341  43.845   3.024
28744W        W 1070   3.234  25.642  12.540
28745W        W 1071  44.382  30.533  11.345
28746W        W 1072  36.322  34.947  10.670
28747W        W 1073  30.545  42.420   3.689
28748W        W 1074  24.737   7.479  12.820
28749W        W 1075   4.680  10.714  14.410
28750W        W 1076  41.909  38.680   4.543
28751W        W 1077   7.171  39.029   4.139
28752W        W 1078  19.422  17.097   1.195
28753W        W 1079  21.737  34.628  13.985
28754W        W 1080  13.406  15.277  12.489
28755W        W 1081   8.491   7.158  13.018
28756W        W 1082  13.586   7.797   3.657
28757W        W 1083  36.080  25.955   3.855
28758W        W 1084   3.039  29.355   0.249
28759W        W 1085  39.603   7.926   4.070
28760W        W 1086  17.330  42.398  10.947
28761W        W 1087  27.579  43.233  11.613
28762W        W 1088  17.191  36.464  11.198
28763W        W 1089  25.155  11.016  13.833
28764W        W 1090  19.111  37.870  12.514
28765W        W 1091  19.631   9.755   4.381
28766W        W 1092  31.584  39.239   5.044
28767W        W 1093  23.272  26.735  13.007
28768W        W 1094   0.752  19.475   1.268
28769W        W 1095  15.154  16.395  11.694
28770W        W 1096  40.748  14.356   0.323
28771W        W 1097  15.677  18.429   4.668
28772W        W 1098   5.983   9.313  13.914
28773W        W 1099  42.578  23.499   1.643
28774W        W 1100   9.889   9.619  11.836
28775W        W 1101   1.434   7.247   2.768
28776W        W 1102  26.052  43.806   1.281
28777W        W 1103  15.045  24.650  12.009
28778W        W 1104  14.331  33.557  12.950
28779W        W 1105  15.928  10.805   0.177
28780W        W 1106  30.831  34.652   1.459
28781W        W 1107  41.450   3.308   2.822
28782W        W 1108  13.888  42.285  13.129
28783W        W 1109  32.392   1.827   1.848
28784W        W 1110  25.255  24.771   2.306
28785W        W 1111  30.332  37.678  12.592
28786W        W 1112  18.333  31.051  13.926
28787W        W 1113  42.819  25.180   0.348
28788W        W 1114  37.338   7.645   0.451
28789W        W 1115   8.762   2.436   3.706
28790W        W 1116   3.548  10.860  11.593
28791W        W 1117  32.600  44.498  12.905
28792W        W 1118  27.943  32.708  12.247
28793W        W 1119  40.502   6.388   1.964
28794W        W 1120  11.496  35.162   4.190
28795W        W 1121  39.457  15.601   2.382
28796W        W 1122   9.811  44.365   2.255
28797W        W 1123  44.124   7.653  12.624
28798W        W 1124  22.054   5.829   0.301
28799W        W 1125  38.761   4.048   3.301
28800W        W 1126   9.220  37.368   9.835
28801W        W 1127  41.936   8.685   0.372
28802W        W 1128  44.515  24.275   4.335
28803W        W 1129  33.589  22.064   4.264
28804W        W 1130  35.164  17.115  14.328
28805W        W 1131  12.169   9.225  10.678
28806W        W 1132  12.862  39.164   1.187
28807W        W 1133  19.978  39.961   0.769
28808W        W 1134  24.937  29.441   4.811
28809W        W 1135  15.355  13.106   1.391
28810W        W 1136  26.816  31.838   0.963
28811W        W 1137  35.672  17.713  11.204
28812W        W 1138  21.276  41.554  10.975
28813W        W 1139  11.569  27.867  12.157
28814W        W 1140  12.494  14.359   0.417
28815W        W 1141  40.830  30.161  14.224
28816W        W 1142  15.617  29.481  14.430
28817W        W 1143  18.003   7.671  11.540
28818W        W 1144  44.431   7.644   2.758
28819W        W 1145  18.743   9.698  11.088
28820W        W 1146  11.810  21.034   1.481
28821W        W 1147  42.714  24.290   3.170
28822W        W 1148  21.368  20.527  12.926
28823W        W 1149  31.845  25.108   1.690
28824W        W 1150   0.372  25.559   4.659
28825W        W 1151  16.616   8.044   0.739
28826W        W 1152  30.641  36.332   0.317
28827W        W 1153  21.495  40.286  14.988
28828W        W 1154  10.198  18.739   4.595
28829W        W 1155   5.465   2.221   0.939
28830W        W 1156  17.551  33.005  12.560
28831W        W 1157   7.422  39.472  13.548
28832W        W 1158  11.617  32.971   3.231
28833W        W 1159  35.176  29.740  14.429
28834W        W 1160   0.476  27.107   0.253
28835W        W 1161  33.919  32.460   3.738
28836W        W 1162  39.930   3.823  14.861
28837W        W 1163  11.231   3.693  12.267
28838W        W 1164   9.768   4.186  11.646
28839W        W 1165  12.559  41.819  11.651
28840W        W 1166  19.792  39.472   0.928
28841W        W 1167  14.524  11.958   0.402
28842W        W 1168  36.329   1.934  13.996
28843W        W 1169  40.485  30.401   1.937
28844W        W 1170  18.752   8.159  12.546
28845W        W 1171   5.273  11.110  14.068
28846W        W 1172  17.756  29.696  12.641
28847W        W 1173  41.453  18.612   4.109
28848W        W 1174  43.868  40.099  11.043
28849W        W 1175  30.972  23.553  13.511
28850W        W 1176  44.202  36.827   0.405
28851W        W 1177  40.742  43.721  12.059
28852W        W 1178  36.617  27.006   3.921
28853W        W 1179  33.107  14.203   4.138
28854W        W 1180  25.025   4.468  13.433
28855W        W 1181  34.883  33.600  11.053
28856W        W 1182   2.799  38.453   2.426
28857W        W 1183  10.686  12.913  14.022
28858W        W 1184  38.205  41.507   3.761
28859W        W 1185   7.575  25.834   4.175
28860W        W 1186   2.649  38.618  14.416
28861W        W 1187   7.139  19.707   4.180
28862W        W 1188   3.791   2.330   3.191
28863W        W 1189  44.852   8.231  11.375
28864W        W 1190  11.809  25.147   2.217
28865W        W 1191  43.925  20.076   0.517
28866W        W 1192   9.219  14.869   3.408
28867W        W 1193   4.187  41.995  12.521
28868W        W 1194   5.893  15.495  14.501
28869W        W 1195   7.787  20.762  13.396
28870W        W 1196  21.077  20.296   0.745
28871W        W 1197  21.058  32.473  11.594
28872W        W 1198  26.126  26.188   4.544
28873W        W 1199  18.762   8.690   1.302
28874W        W 1200   6.201  18.031   1.909
28875W        W 1201  27.671  24.624   1.022
28876W        W 1202  20.505  21.287  11.593
28877W        W 1203  11.221   5.777  14.452
28878W        W 1204  22.464   5.000  13.848
28879W        W 1205  15.696   8.369  11.550
28880W        W 1206  41.059  38.205   3.962
28881W        W 1207  37.404  25.897  13.310
28882W        W 1208  13.552  39.462   1.795
28883W        W 1209  35.983   2.850   1.379
28884W        W 1210  17.139  18.806   3.846
28885W        W 1211  31.137  23.108  13.317
28886W        W 1212  37.477  35.114  13.472
28887W        W 1213   9.598   1.671   2.272
28888W        W 1214  22.908  26.180  14.062
28889W        W 1215  39.098  25.048  14.406
28890W        W 1216  43.051  33.615   2.797
28891W        W 1217  41.088  29.586   0.580
28892W        W 1218  34.535  23.653  14.334
28893W        W 1219  23.488  34.087  14.450
28894W        W 1220   8.961  21.537  11.226
28895W        W 1221  18.615  14.755   1.723
28896W        W 1222  19.996  35.424  12.025
28897W        W 1223  41.120   3.824  13.753
28898W        W 1224  35.768   8.721  13.523
28899W        W 1225  24.618  20.529   1.743
28900W        W 1226  17.457  22.794  14.881
28901W        W 1227  44.244  26.486   4.016
28902W        W 1228  18.683  42.587   4.699
28903W        W 1229  40.008  37.112   3.614
28904W        W 1230  11.573  30.141   1.930
28905W        W 1231   5.926   8.870  14.873
28906W        W 1232  13.572   6.845  12.940
28907W        W 1233  17.026  35.443  12.075
28908W        W 1234  21.826  28.951  12.522
28909W        W 1235  43.010  10.404  14.761
28910W        W 1236  30.176  18.598   3.173
28911W        W 1237  23.992  33.338   3.676
28912W        W 1238   2.668  24.202  11.485
28913W        W 1239  18.640  13.811  14.946
28914W        W 1240   3.355  11.758   5.438
28915W        W 1241  33.084  37.298  14.883
28916W        W 1242  20.755  32.648  12.010
28917W        W 1243  39.996  44.038   4.034
28918W        W 1244  18.330  16.732  11.569
28919W        W 1245  31.144  33.110  11.849
28920W        W 1246  30.193  31.912   1.859
28921W        W 1247  19.143  38.293  10.417
28922W        W 1248  19.805  25.239   1.395
28923W        W 1249  36.109   6.419  12.442
28924W        W 1250  25.419  39.030  11.062
28925W        W 1251  28.771  43.426   4.773
28926W        W 1252   0.869  32.404   4.357
28927W        W 1253   0.849   1.371   0.198
28928W        W 1254  27.578  25.766   2.330
28929W        W 1255  44.374   7.173   3.679
28930W        W 1256  23.161  14.369   0.463
28931W        W 1257  22.420  15.297  13.822
28932W        W 1258   2.496  11.698  12.001
28933W        W 1259  39.123  20.132   1.387
28934W        W 1260   3.962  19.719   0.440
28935W        W 1261  25.439  40.152  11.070
28936W        W 1262  42.728  40.290   0.891
28937W        W 1263  21.970  30.885   2.758
28938W        W 1264  22.308  44.983  13.091
28939W        W 1265  37.578  22.486   2.198
28940W        W 1266  21.660  35.989   0.013
28941W        W 1267  17.329   3.283   4.922
28942W        W 1268  14.093  10.565  12.429
28943W        W 1269  27.588   6.116  12.865
28944W        W 1270  25.683  44.863   3.069
28945W        W 1271  30.431   2.329  12.802
28946W        W 1272  19.973   9.353   1.851
28947W        W 1273  24.572   3.903   2.746
28948W        W 1274  19.288  18.836  12.445
28949W        W 1275  20.792  31.959  12.489
28950W        W 1276   9.358  10.045   2.002
28951W        W 1277  11.691  12.813   3.997
28952W        W 1278   8.279  12.343   4.095
28953W        W 1279  41.291  22.090  14.113
28954W        W 1280  21.105   8.747  12.457
28955W        W 1281   8.313  17.858  10.776
28956W        W 1282  27.786  23.115   4.647
28957W        W 1283  12.826  18.639  12.487
28958W        W 1284  24.658  43.334   0.351
28959W        W 1285  22.000  24.530  11.876
28960W        W 1286  27.805  25.608  10.539
28961W        W 1287  39.042   1.026  13.047
28962W        W 1288   2.057  40.447   4.489
28963W        W 1289  11.337  41.372  14.912
28964W        W 1290  42.818  35.546   4.590
28965W        W 1291   9.937  25.755   0.765
28966W        W 1292   0.855  33.193   1.505
28967W        W 1293  26.925  22.112   0.833
28968W        W 1294   4.824  12.712   2.881
28969W        W 1295  10.794  17.227   3.852
28970W        W 1296  29.246  27.137  13.842
28971W        W 1297  27.452   7.668  13.564
28972W        W 1298   0.899  33.008  10.544
28973W        W 1299  34.862  18.742  11.537
28974W        W 1300  42.963  10.616   0.958
28975W        W 1301  25.943  35.086   2.369
28976W        W 1302   6.976  13.611  12.432
28977W        W 1303  23.316  27.404  11.451
28978W        W 1304  38.895  21.216   2.478
28979W        W 1305  23.536  14.384   2.221
28980W        W 1306   3.619   3.768   2.840
28981W        W 1307  30.245  33.108   0.283
28982W        W 1308   5.633  29.612   0.327
28983W        W 1309   6.803  13.899  13.777
28984W        W 1310  22.201   8.247  10.728
28985W        W 1311  12.152  39.156   3.847
28986W        W 1312   8.740  43.761  12.406
28987W        W 1313  10.783   9.335   2.821
28988W        W 1314  20.755  20.228  14.822
28989W        W 1315  40.497   8.107  12.040
28990W        W 1316  13.906  11.351  11.179
28991W        W 1317  20.519  39.426   0.427
28992W        W 1318  11.604  11.740  11.899
28993W        W 1319  29.085  12.335  13.106
28994W        W 1320  18.090  30.498  13.273
28995W        W 1321  23.399  33.203  10.999
28996W        W 1322  36.815  40.300  13.959
28997W        W 1323  17.753  32.818  14.433
28998W        W 1324   0.023   3.749  12.213
28999W        W 1325   1.885  29.896   2.231
29000W        W 1326  12.607   3.547  12.528
29001W        W 1327  43.415  43.048   3.648
29002W        W 1328  26.772  24.559   3.430
29003W        W 1329  15.629   1.344   2.603
29004W        W 1330  41.029  12.824   3.319
29005W        W 1331  35.382   7.351   1.378
29006W        W 1332  25.513  31.633  13.891
29007W        W 1333  12.869   5.637   0.771
29008W        W 1334  14.766  36.661  11.112
29009W        W 1335  24.537   9.013  14.960
29010W        W 1336  28.604  35.873   0.774
29011W        W 1337  10.323  10.626   2.353
29012W        W 1338  42.577  37.378  12.103
29013W        W 1339  31.558  10.660   2.308
29014W        W 1340  17.274  19.582   0.593
29015W        W 1341  17.229   6.426   0.281
29016W        W 1342   1.679  22.867  11.983
29017W        W 1343  15.623  17.056  11.156
29018W        W 1344  41.047  19.855   5.002
29019W        W 1345  26.253  34.596  14.829
29020W        W 1346   3.201  17.790   2.686
29021W        W 1347   2.302   6.254  11.558
29022W        W 1348  24.665  42.071  14.307
29023W        W 1349  38.432  20.800   1.692
29024W        W 1350  35.303   5.980   3.221
29025W        W 1351   5.866  44.735  11.847
29026W        W 1352  32.857  11.609  12.108
29027W        W 1353  42.003  27.229   1.930
29028W        W 1354  30.845  44.548  10.212
29029W        W 1355  19.368  32.584  13.953
29030W        W 1356  39.445   4.855   4.608
29031W        W 1357  23.516  11.321   3.699
29032W        W 1358  35.357  17.537   1.425
29033W        W 1359  23.536  23.215   0.794
29034W        W 1360  19.317  36.589   3.387
29035W        W 1361   1.018  43.000   2.227
29036W        W 1362   0.406  29.977  12.467
29037W        W 1363   1.708   9.708  12.476
29038W        W 1364  31.084  33.316   5.068
29039W        W 1365  31.214  42.744  14.012
29040W        W 1366  40.246  11.306  11.062
29041W        W 1367  42.665  14.004  12.588
29042W        W 1368  43.650  15.051   4.202
29043W        W 1369  33.617  20.619  14.751
29044W        W 1370   5.411  20.679   0.649
29045W        W 1371  24.169  44.299   3.409
29046W        W 1372   9.830  12.568   3.154
29047W        W 1373  38.048  23.743   4.592
29048W        W 1374   4.667  26.756   3.702
29049W        W 1375  42.111  28.983  14.499
29050W        W 1376  32.940  39.389  12.858
29051W        W 1377  16.790  31.497   2.407
29052W        W 1378  24.678  29.338  14.341
29053W        W 1379  20.657  20.166   2.595
29054W        W 1380   7.907   3.012  11.599
29055W        W 1381   7.346   2.755   3.290
29056W        W 1382  33.684   4.502   0.882
29057W        W 1383  35.517  32.244  11.998
29058W        W 1384  38.473  37.718  14.824
29059W        W 1385  41.844   8.373   3.428
29060W        W 1386  44.039   4.087   0.819
29061W        W 1387   9.784   6.158  12.570
29062W        W 1388  43.584  39.979   3.680
29063W        W 1389  22.239  14.801   1.032
29064W        W 1390  32.591  36.313   0.305
29065W        W 1391  32.453  39.829   3.807
29066W        W 1392  27.259  29.878  14.284
29067W        W 1393   3.468  44.377  10.646
29068W        W 1394   0.253  24.236   2.677
29069W        W 1395   7.740  29.605  13.872
29070W        W 1396  25.963  39.654  12.404
29071W        W 1397  44.655  41.583   2.360
29072W        W 1398  16.222  22.115   4.671
29073W        W 1399  19.229   6.405   1.288
29074W        W 1400   6.412  34.469   3.452
29075W        W 1401  21.510   3.283   2.303
29076W        W 1402  10.839   8.330   4.739
29077W        W 1403  39.409   6.534  13.592
29078W        W 1404   9.316  21.676   0.380
29079W        W 1405   8.636  34.443   3.169
29080W        W 1406  24.009  16.811  10.022
29081W        W 1407  24.360  15.270   4.868
29082W        W 1408   9.749  44.050  14.126
29083W        W 1409  36.022  22.289   4.546
29084W        W 1410   4.839   2.468  12.067
29085W        W 1411   1.734  13.841  11.614
29086W        W 1412   1.747  34.852  14.812
29087W        W 1413  16.251  18.107  10.536
29088W        W 1414   8.521  34.432   0.862
29089W        W 1415  16.826   7.223   0.509
29090W        W 1416  44.449   0.364  11.938
29091W        W 1417  34.630  36.000  11.039
29092W        W 1418  19.995   0.289   2.611
29093W        W 1419  20.586   6.927   4.088
29094W        W 1420  12.839  18.494  14.475
29095W        W 1421  24.599  40.950  12.012
29096W        W 1422   4.456   8.670  12.007
29097W        W 1423  39.769  24.491  13.087
29098W        W 1424  43.381  24.401   0.399
29099W        W 1425  21.639  16.603  14.251
29100W        W 1426  13.834  31.359  13.402
29101W        W 1427   3.574  22.998  11.501
29102W        W 1428  28.076  38.463  10.618
29103W        W 1429   0.387  18.679   3.161
29104W        W 1430   4.826   1.655  12.546
29105W        W 1431  41.001  27.386  14.986
29106W        W 1432  18.127  37.611  13.513
29107W        W 1433  22.650   0.070   2.780
29108W        W 1434   9.739  19.539  13.023
29109W        W 1435   4.175  31.959   3.246
29110W        W 1436  16.176  15.528  11.930
29111W        W 1437   4.315  41.530   3.802
29112W        W 1438  17.811   4.515   2.545
29113W        W 1439   6.108  30.665   3.575
29114W        W 1440  11.680  34.175   3.145
29115W        W 1441  27.719  17.661  13.530
29116W        W 1442  15.560  38.310  12.377
29117W        W 1443   4.925  35.538   1.226
29118W        W 1444   4.787   1.292   4.507
29119W        W 1445   8.903   6.380   0.919
29120W        W 1446  33.621  41.282   2.669
29121W        W 1447  23.312  12.763  14.944
29122W        W 1448   4.471  20.409   0.393
29123W        W 1449  36.467  29.942  13.728
29124W        W 1450  33.212  18.507  13.381
29125W        W 1451   9.654   2.802  11.283
29126W        W 1452  35.938   8.814   0.038
29127W        W 1453  30.029  39.309  14.475
29128W        W 1454  19.979  37.057   2.726
29129W        W 1455  22.148  17.361  11.061
29130W        W 1456  23.525  33.479  11.442
29131W        W 1457  31.628  39.804   2.845
29132W        W 1458   3.525   3.719   2.333
29133W        W 1459   8.923  18.190  14.030
29134W        W 1460  42.254  29.341   2.255
29135W        W 1461  21.001  24.187   1.720
29136W        W 1462  20.969  41.795  11.948
29137W        W 1463   9.925   5.922   4.063
29138W        W 1464  25.136   5.395   2.190
29139W        W 1465  33.135  33.668   3.288
29140W        W 1466  15.563  13.380  12.094
29141W        W 1467   2.183  25.541   0.437
29142W        W 1468   4.339  25.143   4.896
29143W        W 1469   6.898  29.623  12.964
29144W        W 1470  37.961  16.837  11.662
29145W        W 1471  36.030  21.781   1.818
29146W        W 1472  15.331  41.336   0.760
29147W        W 1473   1.057  41.919  14.318
29148W        W 1474  10.183  18.694   2.918
29149W        W 1475  18.145   3.803   3.275
29150W        W 1476  19.194  13.120  10.748
29151W        W 1477  37.510  18.284   1.415
29152W        W 1478  21.498  40.558  11.293
29153W        W 1479  12.298   8.210  14.364
29154W        W 1480  28.066   8.302   0.211
29155W        W 1481  31.995  32.445  10.914
29156W        W 1482   3.702  24.178  14.402
29157W        W 1483   1.725  19.815   2.713
29158W        W 1484   4.479  13.608  10.570
29159W        W 1485  32.803  30.136  12.101
29160W        W 1486  22.434  10.781  10.723
29161W        W 1487  29.931  25.079   1.688
29162W        W 1488   4.214  44.954   1.205
29163W        W 1489  13.210  32.853   3.400
29164W        W 1490  31.974  21.409   4.246
29165W        W 1491  19.211  17.022  13.827
29166W        W 1492  23.517   4.263  11.574
29167W        W 1493  18.327  22.947   2.345
29168W        W 1494  14.353  32.942  13.978
29169W        W 1495  40.422  40.816  13.317
29170W        W 1496  13.324  16.302  12.473
29171W        W 1497  40.613   0.272   0.394
29172W        W 1498   5.689   0.939  11.685
29173W        W 1499  40.383  36.081   4.291
29174W        W 1500   0.429   7.909  11.216
29175W        W 1501  44.821  10.685  14.444
29176W        W 1502  23.070   1.817   2.447
29177W        W 1503  21.610  32.642  13.933
29178W        W 1504  12.768  27.033  10.592
29179W        W 1505   6.816  23.668  11.481
29180W        W 1506  33.368  26.112  11.868
29181W        W 1507  39.568  39.211   3.751
29182W        W 1508   5.365  44.250  12.481
29183W        W 1509  18.112   5.735   0.861
29184W        W 1510  32.671  21.109   4.546
29185W        W 1511  44.210  32.371   0.311
29186W        W 1512  18.525  44.454   4.680
29187W        W 1513  41.831  20.182  14.797
29188W        W 1514  24.612   2.486  13.830
29189W        W 1515  23.758  28.930   2.378
29190W        W 1516  11.386  37.663  11.102
29191W        W 1517  10.146  40.653   3.122
29192W        W 1518  43.974  24.262   2.298
29193W        W 1519  25.098  41.784   3.809
29194W        W 1520   1.286  30.997   2.753
29195W        W 1521  33.175  40.553   0.812
29196W        W 1522  33.757  40.080  14.841
29197W        W 1523  38.786  16.373  13.089
29198W        W 1524   2.853  10.743  10.427
29199W        W 1525  37.104  28.676   4.226
29200W        W 1526   1.767  11.908  13.672
29201W        W 1527  38.364   4.630  13.923
29202W        W 1528  25.100  17.477  14.911
29203W        W 1529  36.945  32.137  11.977
29204W        W 1530  13.358  25.159  13.554
29205W        W 1531   9.144   2.039  13.899
29206W        W 1532  36.990  34.965  12.991
29207W        W 1533   8.866  44.433   1.391
29208W        W 1534  36.556  17.491   3.711
29209W        W 1535  24.967  13.645  10.814
29210W        W 1536   7.669  36.056   3.734
29211W        W 1537   3.824  31.636   3.472
29212W        W 1538  21.320  37.004   0.966
29213W        W 1539  40.858  38.435  13.358
29214W        W 1540   5.145  10.251   0.225
29215W        W 1541   8.206   0.329   1.944
29216W        W 1542  31.367  35.571  14.330
29217W        W 1543  24.244  36.418   1.722
29218W        W 1544  19.036  19.820  13.391
29219W        W 1545  18.135  13.567   4.627
29220W        W 1546  26.875  26.574  11.699
29221W        W 1547  14.610  29.628   3.673
29222W        W 1548  43.312  35.140   1.610
29223W        W 1549  22.076  40.199   5.541
29224W        W 1550  22.107   8.947  13.336
29225W        W 1551  19.533  27.162  13.184
29226W        W 1552  32.402  16.707  10.678
29227W        W 1553   0.502  17.564   1.267
29228W        W 1554   4.179  26.417   1.508
29229W        W 1555   3.524   8.429   3.221
29230W        W 1556  36.789  35.960   5.135
29231W        W 1557  34.618   0.897  10.716
29232W        W 1558   7.693  27.027  11.320
29233W        W 1559  20.462  11.782   0.734
29234W        W 1560   6.523  36.404  11.351
29235W        W 1561  43.390  14.076   2.380
29236W        W 1562  11.013  44.827   1.690
29237W        W 1563  34.730  26.482   4.257
29238W        W 1564   1.827  42.306  10.604
29239W        W 1565  24.718  12.197  12.887
29240W        W 1566  10.252  39.532   2.708
29241W        W 1567  20.825   6.827   3.623
29242W        W 1568  30.495  11.785  12.489
29243W        W 1569  20.748  43.356  10.509
29244W        W 1570  24.236  41.811   3.316
29245W        W 1571  24.499  42.883   5.292
29246W        W 1572  14.298  38.967  14.058
29247W        W 1573   5.605  42.046  11.143
29248W        W 1574   1.889  35.506   0.974
29249W        W 1575  27.463  27.643  11.101
29250W        W 1576  13.050  36.115   1.398
29251W        W 1577  25.083  30.745   5.028
29252W        W 1578   8.195  36.095   3.765
29253W        W 1579  20.803  43.412   1.708
29254W        W 1580  34.856  43.771   0.375
29255W        W 1581   0.348  35.043   1.315
29256W        W 1582  30.076  29.919   2.455
29257W        W 1583  42.318  35.369   4.538
29258W        W 1584  22.571   6.440   1.000
29259W        W 1585  39.079  44.049   1.859
29260W        W 1586   1.780  44.933   2.764
29261W        W 1587  11.591  30.461  13.910
29262W        W 1588  27.941  30.383  14.863
29263W        W 1589  10.782  36.336  12.890
29264W        W 1590  16.242  31.527   2.363
29265W        W 1591  19.409  23.525  13.429
29266W        W 1592  19.528  40.296   0.539
29267W        W 1593  34.082  37.924   4.216
29268W        W 1594  43.881  14.584  13.956
29269W        W 1595  16.141  37.582  13.359
29270W        W 1596   9.289   3.216  14.839
29271W        W 1597  43.933  38.207  11.163
29272W        W 1598  12.617  35.002  10.869
29273W        W 1599  38.870   2.273   0.838
29274W        W 1600   4.532   6.757  10.372
29275W        W 1601  35.101  16.522   0.473
29276W        W 1602  39.814  33.438  12.410
29277W        W 1603  42.320  19.828   3.580
29278W        W 1604  33.502  32.561   0.871
29279W        W 1605   1.915  12.545  11.828
29280W        W 1606  27.606  11.598   1.329
29281W        W 1607  13.072  13.048   5.186
29282W        W 1608  18.136   8.890  13.517
29283W        W 1609  32.162  16.560   4.500
29284W        W 1610  39.257   8.882  11.626
29285W        W 1611   6.816   7.148  11.231
29286W        W 1612  43.278   3.403   3.613
29287W        W 1613  37.347  43.092  14.477
29288W        W 1614  34.427  11.701  13.538
29289W        W 1615  34.521  19.038   3.138
29290W        W 1616  25.040  27.696   2.202
29291W        W 1617  29.690  24.037  12.473
29292W        W 1618  40.523   7.411   4.212
29293W        W 1619   4.793  28.172   1.172
29294W        W 1620  42.845  20.189   3.169
29295W        W 1621   4.427  18.028  10.996
29296W        W 1622   4.675  30.516   4.130
29297W        W 1623   6.132  25.696   1.483
29298W        W 1624  13.351  22.009   2.140
29299W        W 1625  35.809  14.972   2.363
29300W        W 1626  33.970  30.096   3.357
29301W        W 1627   5.793   5.726  14.521
29302W        W 1628  39.838   6.225   3.246
29303W        W 1629   0.017   4.191   0.862
29304W        W 1630  42.461  41.538  13.136
29305W        W 1631   3.850  35.997  13.546
29306W        W 1632  33.661  24.163   2.349
29307W        W 1633  42.498  40.746   0.137
29308W        W 1634  36.303  34.871   1.824
29309W        W 1635  30.944  32.699   0.143
29310W        W 1636   5.261  38.930   0.532
29311W        W 1637  18.629  16.056  12.587
29312W        W 1638  32.257  25.618  13.037
29313W        W 1639  25.743  21.818   2.731
29314W        W 1640  18.218  28.712  12.032
29315W        W 1641   7.338   4.781   4.805
29316W        W 1642  14.772  23.581  13.664
29317W        W 1643  20.246   8.325  14.014
29318W        W 1644   9.378  17.979   2.746
29319W        W 1645  27.438  35.805  14.475
29320W        W 1646  34.437   3.878   3.094
29321W        W 1647  44.463   0.317  14.871
29322W        W 1648   5.463  32.582   1.737
29323W        W 1649  24.578   9.616  13.574
29324W        W 1650  31.497  33.033   4.266
29325W        W 1651  29.514  21.243   2.702
29326W        W 1652  37.461  28.013  11.624
29327W        W 1653  18.554  38.972  11.379
29328W        W 1654  44.896   1.961  13.352
29329W        W 1655  16.849  22.062   3.541
29330W        W 1656   5.460   4.913   0.993
29331W        W 1657  36.146  25.729   0.715
29332W        W 1658  24.987   6.773  14.660
29333W        W 1659  26.517  43.437   0.738
29334W        W 1660  15.996  26.477   2.908
29335W        W 1661   6.150  27.792  11.359
29336W        W 1662  24.040  30.678   2.282
29337W        W 1663  36.845  23.494   2.222
29338W        W 1664   9.926  10.171  14.897
29339W        W 1665  19.561  42.897   1.691
29340W        W 1666  31.924  27.957  10.733
29341W        W 1667  41.362   4.701  11.448
29342W        W 1668  29.648  27.347   3.886
29343W        W 1669  33.551  37.819  10.866
29344W        W 1670  40.073  39.396  11.830
29345W        W 1671   1.284  20.725   0.852
29346W        W 1672  27.154  31.817  11.827
29347W        W 1673  38.544  17.720  11.096
29348W        W 1674   8.784  12.067  12.627
29349W        W 1675   0.868   0.271   2.682
29350W        W 1676  32.534  26.505   1.347
29351W        W 1677  10.324   7.357   1.235
29352W        W 1678   1.324  12.406  12.178
29353W        W 1679   5.937   5.476   1.862
29354W        W 1680  29.946  26.232  11.076
29355W        W 1681  32.329   1.795  10.759
29356W        W 1682   7.427  41.837   4.133
29357W        W 1683   4.025  21.830   1.174
29358W        W 1684   1.002  35.460   0.295
29359W        W 1685  24.536  36.402  11.398
29360W        W 1686  26.622  15.925   2.231
29361W        W 1687  38.431  34.168  12.622
29362W        W 1688   4.909   0.395   0.365
29363W        W 1689  17.775   6.119  14.245
29364W        W 1690  21.278   0.218   1.261
29365W        W 1691  17.005  39.791  14.783
29366W        W 1692  16.527  26.166  12.292
29367W        W 1693  29.767   3.754   0.848
29368W        W 1694   3.962  31.057   1.509
29369W        W 1695  17.772  28.528  11.629
29370W        W 1696  43.734  38.121   2.175
29371W        W 1697  22.690  41.887   3.373
29372W        W 1698   4.778   9.455  11.509
29373W        W 1699   1.928  16.335   3.736
29374W        W 1700  43.862  43.746   2.838
29375W        W 1701   0.525  36.395   1.855
29376W        W 1702  27.999   0.245  12.174
29377W        W 1703  17.190  19.245   2.766
29378W        W 1704   8.935  28.697  12.962
29379W        W 1705  16.835  38.714  14.904
29380W        W 1706  36.811  34.405  13.892
29381W        W 1707   9.878   3.340  14.767
29382W        W 1708   3.666  44.541  12.487
29383W        W 1709   5.008   6.858  10.190
29384W        W 1710  33.512  11.823  10.815
29385W        W 1711  41.865  17.260   2.729
29386W        W 1712  18.142  33.676  10.448
29387W        W 1713  18.245  27.522   4.551
29388W        W 1714  22.729  33.916   1.535
29389W        W 1715  19.803   0.814  13.451
29390W        W 1716   5.912  43.833   4.665
29391W        W 1717  36.524  18.315  12.981
29392W        W 1718  42.358  42.917   0.746
29393W        W 1719  36.833  42.465  13.198
29394W        W 1720  38.975  11.772   0.722
29395W        W 1721  39.248  36.108   3.467
29396W        W 1722  33.588  30.501  14.044
29397W        W 1723   0.882  38.173  12.889
29398W        W 1724   8.150  22.078   0.491
29399W        W 1725  14.763  18.644   4.505
29400W        W 1726  11.083   2.280  14.843
29401W        W 1727  41.723  38.914   4.981
29402W        W 1728  26.118  42.215   0.308
29403W        W 1729  16.783  43.859   1.292
29404W        W 1730  14.473  44.724   3.790
29405W        W 1731   5.126   5.988   9.865
29406W        W 1732  12.238   7.408   3.072
29407W        W 1733   8.472  36.000   2.380
29408W        W 1734  25.095  13.829   1.309
29409W        W 1735  15.913  28.639  11.202
29410W        W 1736  15.207   0.426   3.652
29411W        W 1737  26.126  37.803  14.931
29412W        W 1738   2.257  31.136  14.351
29413W        W 1739  22.498  23.607   0.383
29414W        W 1740  19.207   8.412  12.601
29415W        W 1741  20.649  28.435   0.955
29416W        W 1742  38.980  36.703   0.826
29417W        W 1743  42.041  32.260  12.441
29418W        W 1744   9.616  11.257   4.674
29419W        W 1745  10.394  11.578  13.833
29420W        W 1746  15.228  43.807   4.145
29421W        W 1747  34.813  26.047  10.723
29422W        W 1748  24.420  38.386  10.498
29423W        W 1749  28.195  43.539   1.317
29424W        W 1750  11.318   8.323  12.342
29425W        W 1751   1.548  25.489  14.391
29426W        W 1752   7.124  31.383   2.195
29427W        W 1753  15.289   7.681  12.096
29428W        W 1754   1.919  23.073   4.146
29429W        W 1755  32.096   4.819   2.895
29430W        W 1756  32.569  37.561  12.578
29431W        W 1757   7.631  41.556   2.762
29432W        W 1758   6.374  38.210  10.860
29433W        W 1759  34.198   1.891   3.260
29434W        W 1760   2.873  35.333  14.862
29435W        W 1761  20.279  19.294   1.335
29436W        W 1762  44.208  13.213  11.871
29437W        W 1763  12.332  36.875   1.990
29438W        W 1764  42.484  41.129  12.806
29439W        W 1765  43.560   8.753  13.646
29440W        W 1766   1.022  35.939  13.218
29441W        W 1767  14.112   1.175   4.322
29442W        W 1768  31.005  31.433   2.154
29443W        W 1769  16.206  23.629  11.055
29444W        W 1770  26.802  29.135   4.473
29445W        W 1771  35.189  37.038  12.130
29446W        W 1772  34.379  28.505  11.060
29447W        W 1773  11.658   4.486  12.393
29448W        W 1774   3.178  42.485  12.921
29449W        W 1775   0.746  31.596   4.581
29450W        W 1776   1.295  10.640  12.150
29451W        W 1777  34.887  38.891   1.804
29452W        W 1778  31.999  31.989   4.693
29453W        W 1779  19.248   6.666   3.741
29454W        W 1780   6.323   6.930  12.018
29455W        W 1781   4.757  36.508  11.595
29456W        W 1782  30.298   8.551   1.289
29457W        W 1783  42.972  41.516  11.520
29458W        W 1784  24.004   5.740  13.420
29459W        W 1785  24.339  13.406  14.544
29460W        W 1786   7.207   7.935   3.961
29461W        W 1787  34.871  16.936   4.193
29462W        W 1788  30.595   8.723  12.830
29463W        W 1789  20.650  40.454   4.331
29464W        W 1790  29.010  17.951  14.450
29465W        W 1791   3.171  13.155   4.209
29466W        W 1792   0.285  25.041  11.620
29467W        W 1793  10.119  35.935  12.461
29468W        W 1794  20.297   0.873   4.675
29469W        W 1795  31.814   4.799   2.289
29470W        W 1796  15.102   6.740   0.048
29471W        W 1797  31.608  35.377  11.521
29472W        W 1798  28.622  23.739   4.663
29473W        W 1799  42.864  31.286   4.736
29474W        W 1800  13.267   5.826   4.535
29475W        W 1801   1.461  10.306   9.868
29476W        W 1802   7.159  30.486  11.449
29477W        W 1803  10.698  31.085   1.249
29478W        W 1804  26.525  24.148  11.254
29479W        W 1805   6.392  12.667   4.563
29480W        W 1806  15.024   0.734   2.187
29481W        W 1807  42.442  40.842   4.677
29482W        W 1808  37.992  34.120   1.830
29483W        W 1809  34.557   8.887  11.972
29484W        W 1810  12.623   6.872  11.685
29485W        W 1811  39.483  40.406   3.232
29486W        W 1812   9.124  16.205  14.939
29487W        W 1813  16.161  24.084   2.764
29488W        W 1814  41.931  10.906   2.214
29489W        W 1815  38.026   9.952   0.803
29490W        W 1816   8.449  14.803   4.093
29491W        W 1817   2.219  31.450   2.137
29492W        W 1818  10.402  35.578   4.713
29493W        W 1819  13.600  34.884  13.037
29494W        W 1820  42.731  36.104   1.986
29495W        W 1821  38.970  23.383  11.546
29496W        W 1822  20.652   5.941  10.748
29497W        W 1823  15.677  25.667   2.580
29498W        W 1824  18.087  19.667   0.331
29499W        W 1825  18.052  33.860   3.227
29500W        W 1826  36.282  21.685  11.629
29501W        W 1827   3.744  25.749   2.817
29502W        W 1828  42.267   5.466   0.393
29503W        W 1829  42.253   9.215   3.152
29504W        W 1830  38.463  21.052   4.300
29505W        W 1831  35.463   3.745  13.371
29506W        W 1832  40.430  28.755  12.611
29507W        W 1833  12.292  11.662   2.953
29508W        W 1834  30.633  36.485  11.587
29509W        W 1835  28.443   9.436  11.929
29510W        W 1836  26.834  24.951   0.162
29511W        W 1837   1.988  20.552   3.067
29512W        W 1838   6.760  43.916   3.737
29513W        W 1839  26.530  24.003   1.358
29514W        W 1840  16.362   1.002  11.862
29515W        W 1841  22.491  16.316  13.032
29516W        W 1842  38.257  29.752   0.708
29517W        W 1843  31.238  41.021  13.349
29518W        W 1844  35.901  23.630  13.822
29519W        W 1845  11.304   7.003  11.518
29520W        W 1846   5.183  41.310   2.849
29521W        W 1847   9.641  42.324   3.636
29522W        W 1848  11.353  26.282  13.553
29523W        W 1849  36.150  31.616  13.879
29524W        W 1850  16.709  26.794  10.813
29525W        W 1851  10.700  13.013   3.663
29526W        W 1852  40.474  11.763   2.636
29527W        W 1853  42.966  35.001  12.043
29528W        W 1854  37.459  10.612  13.416
29529W        W 1855   6.450   9.321  11.447
29530W        W 1856  12.227  35.145  12.611
29531W        W 1857  31.964   6.664   2.800
29532W        W 1858  25.586  27.379  11.002
29533W        W 1859  26.463  17.351  14.474
29534W        W 1860  15.547   2.774  12.506
29535W        W 1861  34.940  13.652   1.838
29536W        W 1862  11.092  41.318   1.425
29537W        W 1863  25.526  33.198  10.495
29538W        W 1864  41.310  27.043  10.880
29539W        W 1865  41.724   3.861   0.331
29540W        W 1866   9.167  18.247  11.152
29541W        W 1867  16.508  39.911  11.681
29542W        W 1868  13.828  16.665  11.505
29543W        W 1869  21.213  41.509   3.671
29544W        W 1870  27.035  43.366  10.887
29545W        W 1871  31.459  38.553   0.808
29546W        W 1872  13.461  37.571   2.349
29547W        W 1873  43.630  44.488  12.530
29548W        W 1874  16.736  33.508  11.567
29549W        W 1875  35.023  40.888   3.250
29550W        W 1876  34.852  32.181  14.914
29551W        W 1877  15.102   1.509  13.852
29552W        W 1878  44.282   7.444   0.535
29553W        W 1879  13.692  28.201  11.804
29554W        W 1880  38.576   3.017  12.944
29555W        W 1881   6.833  27.536  12.204
29556W        W 1882  29.221  41.358   2.472
29557W        W 1883  42.606   1.508   1.378
29558W        W 1884  41.288  19.799  11.932
29559W        W 1885  15.444  34.909  12.376
29560W        W 1886  22.086   1.499  12.889
29561W        W 1887  12.437  40.014   1.749
29562W        W 1888  30.645  33.865   2.427
29563W        W 1889  40.080   8.876  12.061
29564W        W 1890   7.783  13.179   3.178
29565W        W 1891  31.368  32.424   3.630
29566W        W 1892  12.429  36.624   4.190
29567W        W 1893  17.893  24.008   0.883
29568W        W 1894  24.587  26.551  11.550
29569W        W 1895  39.767  36.368  12.462
29570W        W 1896  38.919   5.665  14.644
29571W        W 1897   0.623  21.567  11.668
29572W        W 1898  26.606  15.782   3.136
29573W        W 1899  37.981  12.670   0.882
29574W        W 1900  26.393   3.934   4.239
29575W        W 1901  33.607  27.404  12.991
29576W        W 1902  23.510   2.677   1.226
29577W        W 1903  14.615  36.455  10.080
29578W        W 1904   0.267   2.559  11.368
29579W        W 1905  41.795   8.293  12.413
29580W        W 1906  19.046  15.076   0.854
29581W        W 1907   0.668  25.509  13.288
29582W        W 1908  15.336  40.479   0.689
29583W        W 1909  18.027   2.949   3.773
29584W        W 1910  25.290  42.102   4.164
29585W        W 1911  42.471  23.667  12.412
29586W        W 1912   4.998  24.002  13.955
29587W        W 1913   5.755   4.507   2.804
29588W        W 1914  39.231   5.402   3.318
29589W        W 1915  42.509  33.906   1.232
29590W        W 1916  13.587  27.459  13.116
29591W        W 1917  43.429   7.010  13.718
29592W        W 1918  23.507  39.634  14.458
29593W        W 1919  12.096  42.496  12.905
29594W        W 1920   7.696  44.515  10.826
29595W        W 1921  34.659  29.603  13.459
29596W        W 1922  44.888  26.575   1.674
29597W        W 1923  33.425   9.000   5.119
29598W        W 1924  12.393  20.142   0.721
29599W        W 1925  22.429  11.805   1.217
29600W        W 1926  28.006  29.633   0.284
29601W        W 1927   1.271  10.079  11.129
29602W        W 1928  28.620  15.211  13.069
29603W        W 1929  23.341   3.898   3.704
29604W        W 1930  18.220  26.544   4.138
29605W        W 1931  31.571  16.249   1.706
29606W        W 1932  39.514   6.926  12.084
29607W        W 1933  34.957  20.154   1.112
29608W        W 1934  14.253  19.760  12.068
29609W        W 1935  38.641  41.977  13.431
29610W        W 1936   5.400  18.483  11.218
29611W        W 1937  25.625  28.244  11.236
29612W        W 1938  33.343  25.260  13.354
29613W        W 1939   3.968  44.488  11.521
29614W        W 1940   3.376  43.597   1.899
29615W        W 1941  18.256   5.466   3.786
29616W        W 1942  12.541  22.072   3.617
29617W        W 1943   0.481  17.889  14.009
29618W        W 1944  20.592  23.753  13.874
29619W        W 1945  40.909  11.146   3.108
29620W        W 1946  25.950  25.082  13.883
29621W        W 1947  32.937  44.374   4.826
29622W        W 1948  17.071  36.932  12.328
29623W        W 1949  35.340  41.132   1.888
29624W        W 1950   5.935   9.748  10.881
29625W        W 1951  38.333   8.701   4.957
29626W        W 1952   5.908  41.522  14.439
29627W        W 1953  43.031  29.878   4.089
29628W        W 1954  17.789  19.669   0.760
29629W        W 1955  11.018  18.712   3.320
29630W        W 1956   7.403  11.720  14.128
29631W        W 1957  32.665  29.588   1.966
29632W        W 1958  25.951  13.176   1.188
29633W        W 1959  40.043  27.523  11.094
29634W        W 1960  23.113  11.271   1.514
29635W        W 1961   1.736  13.929  11.107
29636W        W 1962  28.627  27.541  11.739
29637W        W 1963  41.038  14.748  14.389
29638W        W 1964  33.495  26.824   3.035
29639W        W 1965  30.016   5.168   0.511
29640W        W 1966  24.918  29.487  13.000
29641W        W 1967  13.741  36.765   9.772
29642W        W 1968  16.539  17.244   3.377
29643W        W 1969   3.279  25.713   3.712
29644W        W 1970   9.464  39.530  11.200
29645W        W 1971  17.206  14.779  14.310
29646W        W 1972  16.962  29.524   2.191
29647W        W 1973  33.471  14.157   0.319
29648W        W 1974  35.285  43.910   0.627
29649W        W 1975   8.792  40.414  12.460
29650W        W 1976   9.795   5.963  13.908
29651W        W 1977  15.201  24.702  14.442
29652W        W 1978  16.057  14.884  14.272
29653W        W 1979   6.808  23.463   4.985
29654W        W 1980  35.343  11.878   3.393
29655W        W 1981  15.694  27.604  11.273
29656W        W 1982  13.756  32.515  10.458
29657W        W 1983  44.718  40.644   1.625
29658W        W 1984  37.181  10.703   5.113
29659W        W 1985  37.088  35.104  14.413
29660W        W 1986  11.910  29.783   4.153
29661W        W 1987  30.631  36.564  14.799
29662W        W 1988  27.903  43.794  13.859
29663W        W 1989   4.091  34.122   0.941
29664W        W 1990  27.020  28.067  10.721
29665W        W 1991  33.791  41.685   4.122
29666W        W 1992  35.484  20.812  14.105
29667W        W 1993  42.228  43.361  14.894
29668W        W 1994  14.160  21.200   3.612
29669W        W 1995  30.939  27.006   4.410
29670W        W 1996  31.957  40.300   9.883
29671W        W 1997  37.577  11.786  14.323
29672W        W 1998  32.021   3.981   1.004
29673W        W 1999   8.206  32.051  12.691
29674W        W 2000  36.784  16.741  11.582
29675W        W 2001  16.121   2.117   2.158
29676W        W 2002  44.229  13.168   3.136
29677W        W 2003  18.771   6.365   2.367
29678W        W 2004  28.185  15.673  12.295
29679W        W 2005  25.940   4.351  12.493
29680W        W 2006  36.388  38.264   0.372
29681W        W 2007   8.898   8.232  12.555
29682W        W 2008   3.367  41.273   0.305
29683W        W 2009  36.304  36.615   4.285
29684W        W 2010  14.594  38.433   0.991
29685W        W 2011  27.098  38.207  12.385
29686W        W 2012   1.123   0.796   5.097
29687W        W 2013  13.631  31.017  13.743
29688W        W 2014   6.310  12.403   1.350
29689W        W 2015  20.655  32.966  13.369
29690W        W 2016  29.660  20.325   2.149
29691W        W 2017  13.179   8.318   2.383
29692W        W 2018  12.355  25.183  10.910
29693W        W 2019   7.010  41.377   3.320
29694W        W 2020  31.452   8.488  13.448
29695W        W 2021  44.189  10.130  11.121
29696W        W 2022   5.956  29.899   3.726
29697W        W 2023   1.364  31.638   4.080
29698W        W 2024  15.304  20.235  13.125
29699W        W 2025   3.323  31.205  11.952
29700W        W 2026   3.236  21.042  11.267
29701W        W 2027  31.678   6.204  12.357
29702W        W 2028  17.990   1.712  14.034
29703W        W 2029  33.469  37.572   1.482
29704W        W 2030  31.708   8.092  11.216
29705W        W 2031  23.529  35.671  12.146
29706W        W 2032  21.266  24.732  10.815
29707W        W 2033   3.237  24.989  10.505
29708W        W 2034  22.789  35.950  11.278
29709W        W 2035  40.431  34.223   3.518
29710W        W 2036  21.197  41.224   0.807
29711W        W 2037  10.317  37.361  14.400
29712W        W 2038  18.970   2.881   2.532
29713W        W 2039  28.458  26.968  12.857
29714W        W 2040  39.720  12.217   3.097
29715W        W 2041   9.350  28.955   2.279
29716W        W 2042  27.399  29.635   1.158
29717W        W 2043   0.312   8.404  11.125
29718W        W 2044  25.658  29.153  14.303
29719W        W 2045  27.673  19.697  10.376
29720W        W 2046  26.221  26.329  14.761
29721W        W 2047   5.998  33.524  11.909
29722W        W 2048  38.207  11.377  14.778
29723W        W 2049  35.673  23.681  11.509
29724W        W 2050  24.741  10.920   3.639
29725W        W 2051  15.279  21.273   1.879
29726W        W 2052  41.074  38.827  12.611
29727W        W 2053  40.583  10.884  13.311
29728W        W 2054   2.185   9.876  12.295
29729W        W 2055  37.926  39.278  12.644
29730W        W 2056  43.823  17.122   0.401
29731W        W 2057  24.428  24.065   1.730
29732W        W 2058  21.131   3.314  13.422
29733W        W 2059  34.340  34.896   2.833
29734W        W 2060  29.197  23.001   4.944
29735W        W 2061  18.545  31.401   3.333
29736W        W 2062   3.025  18.107  13.759
29737W        W 2063  10.737  31.116  13.553
29738W        W 2064  36.356  32.290   3.241
29739W        W 2065  35.586  40.291  11.586
29740W        W 2066  11.541  37.759   4.894
29741W        W 2067  37.016   5.218   4.107
29742W        W 2068  36.085   8.823  13.097
29743W        W 2069  36.358  31.508   2.351
29744W        W 2070  15.524  26.559   0.740
29745W        W 2071   9.741  23.163  14.372
29746W        W 2072   5.986  14.688   4.503
29747W        W 2073  28.010  14.008  10.432
29748W        W 2074   0.015  34.471  12.779
29749W        W 2075  26.767  30.955   2.351
29750W        W 2076  20.819  15.199  11.163
29751W        W 2077  28.088  29.064  12.126
29752W        W 2078   8.751  32.925   1.714
29753W        W 2079  18.367  38.125   1.822
29754W        W 2080  38.633  17.982  12.337
29755W        W 2081  22.531   8.137   3.801
29756W        W 2082  30.503  21.703   4.222
29757W        W 2083  19.204   0.659  11.265
29758W        W 2084  10.375  38.637   4.341
29759W        W 2085  21.149   7.768   1.397
29760W        W 2086   5.679  43.433   1.760
29761W        W 2087  12.602  27.813   0.784
29762W        W 2088  38.601  35.051  12.410
29763W        W 2089  33.503  21.447   1.950
29764W        W 2090   1.308  37.745  14.982
29765W        W 2091  20.063   5.031  12.057
29766W        W 2092   3.481  42.811  12.577
29767W        W 2093   3.290  33.411  12.992
29768W        W 2094  25.631  27.596   2.000
29769W        W 2095  43.856   9.941   2.521
29770W        W 2096  37.224  19.844   5.112
29771W        W 2097  10.141  11.616   0.879
29772W        W 2098  19.550  12.219   3.863
29773W        W 2099  36.102  10.417  10.260
29774W        W 2100  38.907  11.480  14.513
29775W        W 2101  42.810  34.316   1.384
29776W        W 2102  41.352  37.278  14.895
29777W        W 2103  12.034  41.520  12.070
29778W        W 2104  12.433  32.906   4.875
29779W        W 2105  16.326   5.333   0.907
29780W        W 2106  34.227   6.914   0.056
29781W        W 2107  13.931   4.711   3.775
29782W        W 2108   6.638   1.739   1.786
29783W        W 2109  29.830  19.670  13.928
29784W        W 2110  20.121   4.961   2.594
29785W        W 2111  37.922  23.619  13.336
29786W        W 2112   4.619  41.778   0.388
29787W        W 2113  11.960  23.011  11.646
29788W        W 2114  17.664  36.849   1.830
29789W        W 2115   8.432  15.134  13.980
29790W        W 2116   2.058  35.735  13.089
29791W        W 2117  43.347  23.920  10.714
29792W        W 2118  12.680  35.331   3.667
29793W        W 2119   3.970  16.746  13.376
29794W        W 2120  24.460  14.793  12.426
29795W        W 2121   7.211  11.121  12.500
29796W        W 2122  13.587  35.977  12.551
29797W        W 2123  27.919  17.061   0.522
29798W        W 2124   8.371   7.195   2.907
29799W        W 2125  29.002  36.321   2.872
29800W        W 2126  21.829  19.095   4.938
29801W        W 2127   6.252   0.947   1.154
29802W        W 2128  24.651  18.186  10.664
29803W        W 2129  29.984   0.734   4.102
29804W        W 2130  30.127  21.757  12.590
29805W        W 2131  39.047  16.178  11.445
29806W        W 2132  34.963  29.220  12.675
29807W        W 2133  40.103  18.776  12.201
29808W        W 2134  21.240  44.502   4.144
29809W        W 2135  32.872  21.924  11.041
29810W        W 2136  40.760  39.817   3.129
29811W        W 2137  38.299  25.736   1.389
29812W        W 2138   4.775  11.053  10.204
29813W        W 2139  27.209  24.082  14.745
29814W        W 2140  23.980   0.389   2.873
29815W        W 2141  36.129  25.572   1.603
29816W        W 2142  15.121  26.266  12.495
29817W        W 2143  20.743   2.052  11.749
29818W        W 2144  32.370  37.414  13.512
29819W        W 2145  32.600  14.056  12.339
29820W        W 2146   3.904  40.016  12.696
29821W        W 2147  27.536  44.525  13.405
29822W        W 2148  25.726  25.039  12.003
29823W        W 2149   8.124   4.322  12.990
29824W        W 2150   5.257   5.408   4.106
29825W        W 2151  40.774  10.883  14.369
29826W        W 2152  34.840  22.159  13.328
29827W        W 2153   2.155  17.606   3.075
29828W        W 2154  24.086  40.068   0.736
29829W        W 2155  34.465  28.921   1.455
29830W        W 2156   3.615   1.456  10.049
29831W        W 2157  23.296   7.700  13.329
29832W        W 2158  42.236  27.530  12.879
29833W        W 2159   2.707  12.775   3.656
29834W        W 2160  40.716   4.721  10.720
29835W        W 2161  38.877   7.483  10.650
29836W        W 2162  24.816  20.724  14.321
29837W        W 2163  43.522  40.287   1.197
29838W        W 2164  23.091   6.710  13.412
29839W        W 2165  30.170   4.166  12.132
29840W        W 2166  42.902   7.839   3.612
29841W        W 2167  27.712  16.128   0.891
29842W        W 2168  24.610  13.086   3.274
29843W        W 2169   2.872  42.110   2.646
29844W        W 2170  12.669  28.736   1.490
29845W        W 2171  31.358  43.771   1.881
29846W        W 2172  21.425  20.091   3.255
29847W        W 2173  11.702  26.932   4.050
29848W        W 2174   4.327  18.956   4.870
29849W        W 2175  21.716  23.985   2.315
29850W        W 2176  12.054  10.834  12.048
29851W        W 2177  34.783  37.549   4.599
29852W        W 2178  14.660  19.997  10.606
29853W        W 2179   5.418  41.567   1.394
29854W        W 2180  14.220  20.913   3.156
29855W        W 2181  26.367  38.678   1.373
29856W        W 2182   4.240  44.383   4.668
29857W        W 2183   6.305  38.795  13.350
29858W        W 2184  37.888   0.158  13.616
29859W        W 2185   6.968  43.546  14.363
29860W        W 2186   9.500  26.734   4.534
29861W        W 2187  10.678  38.811   3.198
29862W        W 2188  32.565  32.073   4.853
29863W        W 2189  11.977  21.515  13.754
29864W        W 2190  31.861  26.642  11.239
29865W        W 2191   7.733  18.311   5.107
29866W        W 2192  44.898   2.279   3.229
29867W        W 2193  43.258  36.428  14.319
29868W        W 2194  43.842  29.466   4.094
29869W        W 2195  38.043  13.454   1.340
29870W        W 2196  38.486  29.610  11.611
29871W        W 2197  36.463   8.757   0.785
29872W        W 2198  29.364  15.590   4.138
29873W        W 2199   7.905  26.055  14.858
29874W        W 2200   1.277  43.815  10.433
29875W        W 2201  14.133   6.987   3.848
29876W        W 2202  13.280  10.732   2.340
29877W        W 2203  21.479   3.389   4.559
29878W        W 2204  28.125   7.166   4.146
29879W        W 2205  14.900  25.511   3.775
29880W        W 2206  26.992   3.227  12.130
29881W        W 2207  14.096   9.918  11.139
29882W        W 2208  21.855  31.506   0.804
29883W        W 2209  37.361  19.317   4.912
29884W        W 2210  24.950  23.543   3.103
29885W        W 2211  36.105   4.010  13.384
29886W        W 2212   5.676   1.304  12.049
29887W        W 2213  16.772  16.409  13.029
29888W        W 2214  35.853  16.576   4.279
29889W        W 2215  13.543   6.803  13.854
29890W        W 2216  22.780  38.892   3.066
29891W        W 2217  36.474   7.467  11.074
29892W        W 2218  41.489  37.549  14.414
29893W        W 2219  36.769  18.190  11.353
29894W        W 2220  32.218  16.650  12.119
29895W        W 2221   6.424  28.187   4.784
29896W        W 2222  14.274  25.097   1.536
29897W        W 2223  33.571  31.134   0.800
29898W        W 2224  22.138  18.178   4.814
29899W        W 2225  36.020  43.314   3.695
29900W        W 2226  21.700  15.652  11.137
29901W        W 2227   3.998  26.095   2.494
29902W        W 2228  39.097  13.303  14.583
29903W        W 2229   4.403  19.206   2.862
29904W        W 2230  15.621  31.844  13.926
29905W        W 2231  32.266  18.186   1.707
29906W        W 2232  15.469  25.639   3.322
29907W        W 2233  30.416   3.091  11.223
29908W        W 2234  18.015   3.236  13.124
29909W        W 2235  16.550  36.627  12.007
29910W        W 2236  33.610  11.879  13.406
29911W        W 2237  36.794  39.180  14.891
29912W        W 2238  38.060  42.322  13.939
29913W        W 2239   8.634  32.482  12.897
29914W        W 2240  10.735  15.379   3.396
29915W        W 2241   7.439  41.882   4.652
29916W        W 2242  35.491  37.106  11.570
29917W        W 2243  44.379  39.040  11.044
29918W        W 2244  13.809  36.507  14.898
29919W        W 2245  23.481   2.799  11.055
29920W        W 2246  33.963  22.041   2.358
29921W        W 2247   4.248   1.446   4.140
29922W        W 2248   5.798  13.253   0.559
29923W        W 2249   5.499  29.614  13.507
29924W        W 2250   0.669  29.608   4.143
29925W        W 2251  31.724  24.080  14.398
29926W        W 2252  14.373  19.473   0.409
29927W        W 2253  30.005  25.611  13.626
29928W        W 2254   9.323   0.053   1.326
29929W        W 2255  29.412  44.893   2.229
29930W        W 2256  41.988   3.480   4.829
29931W        W 2257   8.158  34.772  14.977
29932W        W 2258  44.640   1.007   1.869
29933W        W 2259  33.987  15.170  14.262
29934W        W 2260  34.146  23.129  11.177
29935W        W 2261  35.810  13.887   1.790
29936W        W 2262  21.954   1.369   0.972
29937W        W 2263  20.383  33.932  13.446
29938W        W 2264   3.002  24.024   1.869
29939W        W 2265  14.914   2.596   4.128
29940W        W 2266  28.059  27.228  11.709
29941W        W 2267  44.926  36.450   4.785
29942W        W 2268  15.316  30.880  14.824
29943W        W 2269   3.726  25.051  11.430
29944W        W 2270   6.263  22.628   4.084
29945W        W 2271  19.978  38.912  13.016
29946W        W 2272  26.498  36.519   3.134
29947W        W 2273   9.968  28.497   1.932
29948W        W 2274  10.157   4.233   3.746
29949W        W 2275   3.733  34.365  11.129
29950W        W 2276  21.958  35.273   1.752
29951W        W 2277  26.022  41.352   3.836
29952W        W 2278   6.415  18.517   1.434
29953W        W 2279  11.949   5.302  14.725
29954W        W 2280  32.875  23.205  13.910
29955W        W 2281  20.314  16.682   4.058
29956W        W 2282   0.596  14.767  11.866
29957W        W 2283  10.089  20.596  11.155
29958W        W 2284  30.702  14.134   3.633
29959W        W 2285  32.504  33.246   0.804
29960W        W 2286   2.183  44.882   3.736
29961W        W 2287   6.803  42.283  14.839
29962W        W 2288  25.693  18.124   4.271
29963W        W 2289  11.966  42.580   2.581
29964W        W 2290  41.029  27.020   1.261
29965W        W 2291  40.077  27.777  11.980
29966W        W 2292  10.653   4.244   2.335
29967W        W 2293  41.143  35.711  12.067
29968W        W 2294  41.030  22.726  10.490
29969W        W 2295   0.333  17.281  13.540
29970W        W 2296  17.246  43.998  12.379
29971W        W 2297  34.355  30.003  12.970
29972W        W 2298  43.888  18.424  14.778
29973W        W 2299   5.762  43.839  10.875
29974W        W 2300  11.733   9.105  12.075
29975W        W 2301  19.046  44.692  13.361
29976W        W 2302  20.483  17.858   4.270
29977W        W 2303  39.060   2.853  14.762
29978W        W 2304  23.170  39.076   1.361
29979W        W 2305  22.689  30.016   0.189
29980W        W 2306  20.132  37.504  10.547
29981W        W 2307  44.741   3.038   0.599
29982W        W 2308  34.037  44.239  11.101
29983W        W 2309  18.839  26.082   4.628
29984W        W 2310  29.847  24.167   2.769
29985W        W 2311  27.089   9.208  11.012
29986W        W 2312  35.660   6.147  12.464
29987W        W 2313  44.258  34.632  10.584
29988W        W 2314  14.226  42.203  11.487
29989W        W 2315  10.811  36.369   1.545
29990W        W 2316  16.606  32.592   4.026
29991W        W 2317   0.645  27.553  13.557
29992W        W 2318  21.155  11.078  13.254
29993W        W 2319  41.007  24.077  10.703
29994W        W 2320  29.080   6.439   1.884
29995W        W 2321  41.431  43.484   0.294
29996W        W 2322  10.652  44.261   2.690
29997W        W 2323   5.361  34.192   1.623
29998W        W 2324   3.725  32.767  12.100
29999W        W 2325  39.119  11.368   2.823
30000W        W 2326  30.808  10.253  13.365
30001W        W 2327  40.315  23.146  11.548
30002W        W 2328  42.807   0.865  13.378
30003W        W 2329  12.592   1.774  11.618
30004W        W 2330  24.539   4.923   0.504
30005W        W 2331  31.640  21.060   1.754
30006W        W 2332  37.533  10.164  11.973
30007W        W 2333  43.035  14.632  13.480
30008W        W 2334  20.164   7.904  12.835
30009W        W 2335  13.184  32.981   2.325
30010W        W 2336  37.153  16.031   2.276
30011W        W 2337  26.228  11.090   0.320
30012W        W 2338   6.808  42.288  13.054
30013W        W 2339  21.338  14.192  12.517
30014W        W 2340  13.830   1.370  12.463
30015W        W 2341  14.180  25.075  11.397
30016W        W 2342   3.394   4.745   4.659
30017W        W 2343  25.418  40.297   3.773
30018W        W 2344  42.963   6.965   0.964
30019W        W 2345  18.482  44.508  11.721
30020W        W 2346  33.102   3.579   1.705
30021W        W 2347   5.787   0.437  11.823
30022W        W 2348  30.491   8.763   0.190
30023W        W 2349  32.258  10.154   1.480
30024W        W 2350  41.951   5.166  11.867
30025W        W 2351  42.486  20.105   4.053
30026W        W 2352  20.815  30.917  13.771
30027W        W 2353  26.640  19.214   0.643
30028W        W 2354  20.074  11.072  10.181
30029W        W 2355  42.172  39.039   3.417
30030W        W 2356  39.968  15.018  13.907
30031W        W 2357  41.400  24.759  11.679
30032W        W 2358   4.743  42.296   2.891
30033W        W 2359  26.635   7.407   2.766
30034W        W 2360  42.744  31.157   4.191
30035W        W 2361  40.275  17.270   3.767
30036W        W 2362  19.273   0.184  11.387
30037W        W 2363  40.442  35.048   2.455
30038W        W 2364  40.655  43.090  14.850
30039W        W 2365   3.256   3.874   4.153
30040W        W 2366  40.543   8.178  14.269
30041W        W 2367  15.073  24.622   2.319
30042W        W 2368  18.535  41.328  12.092
30043W        W 2369  19.448  44.853   1.467
30044W        W 2370   9.280  25.495   0.500
30045W        W 2371  29.650  19.344  10.320
30046W        W 2372  42.482   0.839   4.619
30047W        W 2373  36.645  25.319   4.256
30048W        W 2374  15.653   7.276  11.109
30049W        W 2375   7.762  26.568   0.342
30050W        W 2376  26.491   5.407   3.004
30051W        W 2377  15.415  37.337   1.370
30052W        W 2378  27.453  11.650   3.670
30053W        W 2379  30.998  35.578   0.961
30054W        W 2380   0.071  31.655  10.824
30055W        W 2381   0.503  25.913   0.159
30056W        W 2382  23.875  18.068   1.071
30057W        W 2383  10.677  40.915  11.717
30058W        W 2384  33.814  16.106   2.566
30059W        W 2385  10.776  27.618  10.300
30060W        W 2386  33.783  16.927  12.673
30061W        W 2387  10.201   6.572   5.186
30062W        W 2388   2.950  20.363   4.118
30063W        W 2389  14.310  40.292  12.501
30064W        W 2390  39.744  44.430  11.225
30065W        W 2391  25.672  22.545  11.627
30066W        W 2392  41.122  26.406   1.559
30067W        W 2393  35.896   9.924  13.961
30068W        W 2394  29.708   8.291  13.409
30069W        W 2395  33.353  35.810   9.730
30070W        W 2396  44.363  40.319  10.576
30071W        W 2397  13.754   5.923   1.776
30072W        W 2398  17.339  10.882  14.306
30073W        W 2399   1.009  41.518   3.706
30074W        W 2400  41.374   8.780  10.677
30075W        W 2401  40.450  42.418  14.770
30076W        W 2402  35.387  33.480  12.544
30077W        W 2403  19.300  33.812  14.427
30078W        W 2404   3.817  37.712   5.029
30079W        W 2405  14.813  39.486   0.899
30080W        W 2406  30.909   1.446   1.870
30081W        W 2407  15.141  23.165   1.832
30082W        W 2408  23.732  28.596   4.117
30083W        W 2409   3.967  41.381   0.816
30084W        W 2410  30.630  33.083   4.862
30085W        W 2411  42.957  20.796  13.386
30086W        W 2412  40.445  21.635  12.553
30087W        W 2413  15.336   8.734  11.667
30088W        W 2414  35.864  33.522   3.440
30089W        W 2415  32.859  26.652   0.285
30090W        W 2416   4.805  28.881  14.062
30091W        W 2417  36.781  41.110  13.520
30092W        W 2418  22.071  11.653  14.366
30093W        W 2419  14.172   2.833   2.831
30094W        W 2420  12.718  41.277  14.413
30095W        W 2421  19.757  14.617  11.708
30096W        W 2422  19.736  32.700  11.911
30097W        W 2423  14.736  32.007  13.846
30098W        W 2424  13.809  13.107   1.949
30099W        W 2425   8.056  30.388  13.754
30100W        W 2426  21.693   1.615  12.546
30101W        W 2427  44.993   0.616   1.848
30102W        W 2428  34.589  34.107  12.308
30103W        W 2429  43.007  39.883  14.213
30104W        W 2430  10.493  10.571  11.835
30105W        W 2431  38.755  38.093   3.634
30106W        W 2432  35.266  44.985   3.684
30107W        W 2433  38.122  33.453  11.525
30108W        W 2434  42.504  32.488  14.981
30109W        W 2435  40.521  18.482  10.828
30110W        W 2436   6.812  39.913   2.110
30111W        W 2437  30.499   9.862   2.764
30112W        W 2438  13.923   2.586   4.121
30113W        W 2439  18.600  18.757  11.559
30114W        W 2440  32.827  11.310   0.675
30115W        W 2441   1.379  32.153   4.065
30116W        W 2442   7.939  41.967  11.648
30117W        W 2443   0.773  38.863   2.806
30118W        W 2444  22.549  39.961  12.826
30119W        W 2445   7.712  28.250  11.925
30120W        W 2446  34.486  15.449   2.147
30121W        W 2447   2.305  30.598   2.642
30122W        W 2448  27.188  17.459  13.210
30123W        W 2449  42.808  25.584   3.556
30124W        W 2450   0.107   1.251  10.692
30125W        W 2451  28.512  14.344  11.010
30126W        W 2452   5.001  30.865  14.859
30127W        W 2453  31.662  31.187  14.812
30128W        W 2454  13.067   9.768   2.614
30129W        W 2455   0.365  23.087   2.304
30130W        W 2456  44.886  34.858   3.673
30131W        W 2457  17.194  40.933  11.433
30132W        W 2458  32.180  44.851   4.755
30133W        W 2459  37.532   4.914  13.780
30134W        W 2460  19.290  35.051   3.499
30135W        W 2461  41.544  18.667   3.226
30136W        W 2462  27.574  39.078   0.861
30137W        W 2463  38.182  12.413   4.077
30138W        W 2464  23.500   6.541  11.634
30139W        W 2465  31.513   3.145   3.354
30140W        W 2466  14.551   3.690   0.745
30141W        W 2467  25.687  14.243   3.522
30142W        W 2468  38.344  31.349   1.933
30143W        W 2469   5.983   5.424   3.593
30144W        W 2470  38.463   7.291   2.815
30145W        W 2471  35.884  43.861   2.627
30146W        W 2472  38.518   4.433   4.564
30147W        W 2473  10.166  19.124  11.295
30148W        W 2474  27.571  11.657   4.163
30149W        W 2475  37.569  11.992   2.301
30150W        W 2476  43.602   5.909   0.696
30151W        W 2477   7.137  21.805  11.420
30152W        W 2478  42.395   5.490  10.768
30153W        W 2479  35.084   8.833   2.726
30154W        W 2480   8.613   3.249   1.767
30155W        W 2481   1.897  20.808  10.605
30156W        W 2482  16.505  32.256  11.212
30157W        W 2483  17.296   7.218  13.273
30158W        W 2484  39.054  44.507   1.338
30159W        W 2485  37.125  15.213   0.667
30160W        W 2486  25.684  24.286   3.257
30161W        W 2487   8.677  32.049   2.044
30162W        W 2488   6.790  20.803   4.103
30163W        W 2489  33.898  28.904  14.213
30164W        W 2490  15.944  15.534  11.053
30165W        W 2491  12.465  28.783  14.970
30166W        W 2492  26.442   9.780   4.919
30167W        W 2493  17.510  13.054  14.757
30168W        W 2494  30.404  35.149  11.605
30169W        W 2495  14.732   8.458   1.914
30170W        W 2496  24.697   4.904   3.582
30171W        W 2497  23.709   7.790  12.831
30172W        W 2498  25.494  27.495   2.963
30173W        W 2499  34.144  26.914  14.761
30174W        W 2500  32.068  13.811  10.696
30175W        W 2501  27.546  15.588   2.712
30176W        W 2502  28.853   1.214  11.925
30177W        W 2503  22.671   1.972   0.761
30178W        W 2504  38.464   4.269  11.381
30179W        W 2505  10.678   3.597   0.826
30180W        W 2506  18.213  15.718  13.617
30181W        W 2507  20.741  44.161   2.976
30182W        W 2508  38.629  33.187   4.096
30183W        W 2509  23.738  39.344   1.798
30184W        W 2510  25.096  39.018   1.689
30185W        W 2511  34.346  40.938  14.458
30186W        W 2512  23.363   7.385   4.588
30187W        W 2513  41.291  11.162   2.764
30188W        W 2514  16.916   6.992  12.331
30189W        W 2515  40.663  37.832  11.166
30190W        W 2516  17.720  36.346   4.715
30191W        W 2517   5.724  26.600  12.301
30192W        W 2518  32.028   0.931  12.113
30193W        W 2519  10.287   5.098   0.359
30194W        W 2520  39.303  33.932   3.636
30195W        W 2521   7.836  26.021   1.681
30196W        W 2522  14.743  37.956  13.232
30197W        W 2523  33.806  31.156   0.335
30198W        W 2524   2.865   9.188  10.138
30199W        W 2525  26.747  31.591  13.487
30200W        W 2526  41.331  24.196   4.621
30201W        W 2527  36.755  32.865   2.486
30202W        W 2528  19.097   3.721   0.484
30203W        W 2529   6.304  10.940  11.225
30204W        W 2530   6.696  32.490  10.983
30205W        W 2531   4.413  39.595  10.820
30206W        W 2532  42.261   9.194  13.867
30207W        W 2533  27.138  23.790   0.703
30208W        W 2534  29.678   3.408   3.656
30209W        W 2535   0.457  33.520  14.434
30210W        W 2536  15.563  24.121   1.321
30211W        W 2537  15.430  44.420   3.678
30212W        W 2538  39.489   6.365  13.078
30213W        W 2539  27.119  14.180  13.322
30214W        W 2540  20.530  22.259  12.462
30215W        W 2541  28.181  19.595  12.469
30216W        W 2542  17.136  22.378  10.347
30217W        W 2543  20.804  23.177   4.550
30218W        W 2544  19.277  16.760   3.287
30219W        W 2545  15.642   5.115   4.511
30220W        W 2546  17.322  15.475  13.729
30221W        W 2547  20.504  26.682  11.181
30222W        W 2548  40.600  15.127  13.377
30223W        W 2549   2.223  21.125   0.761
30224W        W 2550   1.437  43.319   2.291
30225W        W 2551  24.212  22.683   2.424
30226W        W 2552   6.839   9.464   4.850
30227W        W 2553  21.368   3.267  12.471
30228W        W 2554  13.846  13.150   4.146
30229W        W 2555  20.072   7.894  14.245
30230W        W 2556  21.182  40.381   0.437
30231W        W 2557  26.521  15.553  14.775
30232W        W 2558  42.688  44.332   1.252
30233W        W 2559  24.798  22.316  14.351
30234W        W 2560  28.237  22.259  13.597
30235W        W 2561  12.269  14.500   0.965
30236W        W 2562  31.938  20.624   0.600
30237W        W 2563  35.249  40.547  14.026
30238W        W 2564  35.942   9.688   3.069
30239W        W 2565  31.875  34.377  12.810
30240W        W 2566  41.706   1.445   5.080
30241W        W 2567  44.980  26.925  12.440
30242W        W 2568  16.492   5.327  12.093
30243W        W 2569  14.054  44.057   0.781
30244W        W 2570  26.493  30.520  10.773
30245W        W 2571   6.813  20.719  12.485
30246W        W 2572  25.744  21.009   0.959
30247W        W 2573  31.534  37.011   4.673
30248W        W 2574  27.946   6.296   0.097
30249W        W 2575  23.500  12.472   4.483
30250W        W 2576  25.246  42.289   2.736
30251W        W 2577  24.318  18.308   1.853
30252W        W 2578  42.425  17.116  10.678
30253W        W 2579  29.681  39.804  13.913
30254W        W 2580  40.452  26.212   0.521
30255W        W 2581  29.488  19.556   0.875
30256W        W 2582   8.531  30.183   0.257
30257W        W 2583  28.283  29.049   0.598
30258W        W 2584  31.085  42.021   2.322
30259W        W 2585  10.316   5.229  11.484
30260W        W 2586  29.979  23.692   1.388
30261W        W 2587  34.129  24.177  12.239
30262W        W 2588  12.770  29.742   2.232
30263W        W 2589  35.763   4.174  12.534
30264W        W 2590   2.314  22.277  13.567
30265W        W 2591  12.966  10.583  11.669
30266W        W 2592  18.149  24.034   2.699
30267W        W 2593  20.486   2.652  12.873
30268W        W 2594  42.285   0.277   1.781
30269W        W 2595  32.337  11.309   4.090
30270W        W 2596  37.296  17.368   1.187
30271W        W 2597  14.338  18.760   1.400
30272W        W 2598  32.576   0.240  10.645
30273W        W 2599   6.219  39.534  12.840
30274W        W 2600  14.585  44.035  11.366
30275W        W 2601   5.447   8.279  12.639
30276W        W 2602  18.003  14.699   2.566
30277W        W 2603  21.792  22.938  10.993
30278W        W 2604   1.431  25.438  11.478
30279W        W 2605  33.432  17.260  12.467
30280W        W 2606   9.603   8.828  12.444
30281W        W 2607  28.958   8.859  14.438
30282W        W 2608  31.068   3.660  12.023
30283W        W 2609  30.074  16.515  10.715
30284W        W 2610  23.205  36.065  13.031
30285W        W 2611  43.681  40.215  10.063
30286W        W 2612  19.364  25.223  12.917
30287W        W 2613  15.847  11.204   0.826
30288W        W 2614  41.287   2.802   4.514
30289W        W 2615  29.980  36.100  11.752
30290W        W 2616  30.471  22.583   4.688
30291W        W 2617  29.667   5.990  14.531
30292W        W 2618  44.801   8.009   4.813
30293W        W 2619  12.186  20.809   2.875
30294W        W 2620  18.921   1.649  10.991
30295W        W 2621  24.548  29.031   4.037
30296W        W 2622   9.164  15.091  13.444
30297W        W 2623   5.882  18.571  13.126
30298W        W 2624  36.344   0.242   1.722
30299W        W 2625  20.289  17.494  11.105
30300W        W 2626  30.988  10.765  11.855
30301W        W 2627   7.477  21.975   4.213
30302W        W 2628  35.014  21.016   4.749
30303W        W 2629  41.602  15.820   3.574
30304W        W 2630  39.936  21.137   3.568
30305W        W 2631  14.132  18.867  13.778
30306W        W 2632  35.219  29.630  12.477
30307W        W 2633   0.626  35.743  11.209
30308W        W 2634  30.581  41.807  13.517
30309W        W 2635   8.151  35.374  10.745
30310W        W 2636   0.890  44.394   1.704
30311W        W 2637  32.907  31.084   1.425
30312W        W 2638  13.694  27.436   3.276
30313W        W 2639   7.464  24.206   3.550
30314W        W 2640  28.170  24.662   3.323
30315W        W 2641  39.608   8.952  14.841
30316W        W 2642  23.715   8.308  12.655
30317W        W 2643  27.863  39.505   0.944
30318W        W 2644  13.089  22.055  10.727
30319W        W 2645   6.913  10.662  10.683
30320W        W 2646  16.002  15.896  10.701
30321W        W 2647  39.740  42.077  11.170
30322W        W 2648  21.808   4.336  14.792
30323W        W 2649  11.318  44.037   3.635
30324W        W 2650  39.488  34.142   2.730
30325W        W 2651   2.937  30.618  11.793
30326W        W 2652  35.518  18.583  12.394
30327W        W 2653   8.230  35.434   3.255
30328W        W 2654  20.946  15.157  12.352
30329W        W 2655  31.495   4.431  11.414
30330W        W 2656  31.618  16.680   4.500
30331W        W 2657  35.740  10.833   0.762
30332W        W 2658   7.889  10.226  11.585
30333W        W 2659  12.270  16.850   1.216
30334W        W 2660  13.231   0.942   0.934
30335W        W 2661   6.178   3.987   3.574
30336W        W 2662  19.188  39.245   4.894
30337W        W 2663   2.963  32.417   1.184
30338W        W 2664  44.204   7.365  14.492
30339W        W 2665   2.263  40.512   2.331
30340W        W 2666   1.686  18.263   4.854
30341W        W 2667  29.093  19.176   4.481
30342W        W 2668   1.732  20.548  13.512
30343W        W 2669   2.655  43.998  13.047
30344W        W 2670  40.025  32.448  14.020
30345W        W 2671  25.108  41.248   2.896
30346W        W 2672  27.910  14.792   4.187
30347W        W 2673  22.998  13.341   4.245
30348W        W 2674  41.549  42.773   3.810
30349W        W 2675  21.630  32.108   1.523
30350W        W 2676  34.610   8.082  13.584
30351W        W 2677   3.753  24.152  11.130
30352W        W 2678  23.139   5.623   0.369
30353W        W 2679  25.033  21.303   3.211
30354W        W 2680  15.236  20.177   4.464
30355W        W 2681   2.768  12.559   5.566
30356W        W 2682  11.637  31.079   1.440
30357W        W 2683  12.560  37.789   1.151
30358W        W 2684   2.919  26.218  13.460
30359W        W 2685  13.067   6.610  11.623
30360W        W 2686  42.289  23.980   1.834
30361W        W 2687  23.784  39.911  12.567
30362W        W 2688  44.419  30.227  14.048
30363W        W 2689  34.473  38.261   4.083
30364W        W 2690  37.329  36.577   0.955
30365W        W 2691  16.683  41.354  12.587
30366W        W 2692  42.732  41.216  11.916
30367W        W 2693  15.033  33.479   2.149
30368W        W 2694  22.008  42.869   3.149
30369W        W 2695   8.524  23.925   4.944
30370W        W 2696   5.718  29.592  13.037
30371W        W 2697  22.043  10.689  13.092
30372W        W 2698   9.255  23.004  12.419
30373W        W 2699  24.185  13.687   2.607
30374W        W 2700  31.589  41.080   1.704
30375W        W 2701  10.901  26.536   1.558
30376W        W 2702  34.502  39.771   2.723
30377W        W 2703   9.279  23.272  11.984
30378W        W 2704  24.044  11.953  10.294
30379W        W 2705  31.460  24.568  12.218
30380W        W 2706  42.186  31.398   1.850
30381W        W 2707  12.300  29.276  11.709
30382W        W 2708  30.514  35.026  12.105
30383W        W 2709   3.225  40.969  14.439
30384W        W 2710   7.885  38.547   0.967
30385W        W 2711   2.312  13.048   1.872
30386W        W 2712  16.603  19.462   1.392
30387W        W 2713  14.109   7.215  13.586
30388W        W 2714  29.969  39.488  12.655
30389W        W 2715  18.834  10.566  11.449
30390W        W 2716   6.830   7.465  11.619
30391W        W 2717  16.032  17.097   3.216
30392W        W 2718   0.549  18.109  11.409
30393W        W 2719  32.637  31.607  13.016
30394W        W 2720  15.049  44.424  12.999
30395W        W 2721  27.381  39.513   1.099
30396W        W 2722   0.215  31.009   0.956
30397W        W 2723   7.626   6.097  10.909
30398W        W 2724  16.725   6.683   0.299
30399W        W 2725  13.225  35.561   4.896
30400W        W 2726  18.754  27.706   4.154
30401W        W 2727  16.213  23.046   2.627
30402W        W 2728  10.403   8.419   0.459
30403W        W 2729   5.648  40.066  14.527
30404W        W 2730  35.845   0.957  12.964
30405W        W 2731  25.688   8.182   4.148
30406W        W 2732  37.993  25.319  12.984
30407W        W 2733  44.885  30.581  12.105
30408W        W 2734   7.100   9.010  13.431
30409W        W 2735  16.650   6.869  13.231
30410W        W 2736  14.610  26.073  10.352
30411W        W 2737  23.190  29.891   0.858
30412W        W 2738  39.476  40.566  14.807
30413W        W 2739  11.163  42.510  11.570
30414W        W 2740  19.080   3.966  10.695
30415W        W 2741  41.508  24.567  10.721
30416W        W 2742  17.320  23.719  12.843
30417W        W 2743  44.346  15.048   1.431
30418W        W 2744  30.554  29.637   2.399
30419W        W 2745   1.921   7.117   3.525
30420W        W 2746   5.813  35.866   4.196
30421W        W 2747  22.043  19.452   4.340
30422W        W 2748  24.195  10.453   5.009
30423W        W 2749   3.230  35.670  11.136
30424W        W 2750   7.917   3.323  10.559
30425W        W 2751  32.383  25.601   1.242
30426W        W 2752  12.864  39.862   4.062
30427W        W 2753  41.778  36.346  14.676
30428W        W 2754   3.420   5.412  14.136
30429W        W 2755   6.255  32.343  13.044
30430W        W 2756  36.435   2.647   3.830
30431W        W 2757  39.574   3.674   1.013
30432W        W 2758   0.495  14.417   4.070
30433W        W 2759  44.487   6.355   1.319
30434W        W 2760  10.776  26.708  13.326
30435W        W 2761  23.384   1.674  13.944
30436W        W 2762  17.850  21.224   0.244
30437W        W 2763   1.244   3.207  10.230
30438W        W 2764   7.645  28.411  12.642
30439W        W 2765  11.637  35.558   4.972
30440W        W 2766  28.526   0.967   3.946
30441W        W 2767  29.503  30.175  11.541
30442W        W 2768  38.207  13.695  14.895
30443W        W 2769   4.943  21.111   3.220
30444W        W 2770  10.918  14.964   4.844
30445W        W 2771  21.656  32.535  11.722
30446W        W 2772  19.125  13.389  13.044
30447W        W 2773  16.246   8.346   1.815
30448W        W 2774  10.168  22.615  12.773
30449W        W 2775  11.410  25.965  10.225
30450W        W 2776  13.203   4.620  11.167
30451W        W 2777  12.743  20.932   1.402
30452W        W 2778  22.488  37.944  13.058
30453W        W 2779  28.085   0.494  14.818
30454W        W 2780  14.158  35.410   1.674
30455W        W 2781   6.712   6.693   2.695
30456W        W 2782  12.134  17.618  11.519
30457W        W 2783  43.289  30.540  12.979
30458W        W 2784  31.907  27.270   5.078
30459W        W 2785  32.568   7.286  10.677
30460W        W 2786  24.342  10.648  11.632
30461W        W 2787  10.898  20.683   4.579
30462W        W 2788  42.973   1.028   4.443
30463W        W 2789  38.800  11.299   1.899
30464W        W 2790  34.848  16.228   1.433
30465W        W 2791  20.464   7.952   1.904
30466W        W 2792   4.148  18.392  11.542
30467W        W 2793  12.346  11.252   1.231
30468W        W 2794  25.133  25.737  13.301
30469W        W 2795  12.555  28.362  14.680
30470W        W 2796  26.374   5.868   0.376
30471W        W 2797  27.607  35.356  13.299
30472W        W 2798  14.067  25.295   4.627
30473W        W 2799  41.297   3.839  11.787
30474W        W 2800   1.210   9.137   0.453
30475W        W 2801   9.334  43.666   0.238
30476W        W 2802  44.568   5.621   3.732
30477W        W 2803  10.448   9.252   2.244
30478W        W 2804  23.967  22.167  13.687
30479W        W 2805   4.267  10.582  10.413
30480W        W 2806  21.506  33.701   3.766
30481W        W 2807  25.146  35.517   1.964
30482W        W 2808  23.778  10.288  14.452
30483W        W 2809   3.012  31.912  14.867
30484W        W 2810   7.832  23.068  12.294
30485W        W 2811   5.812  43.961   1.346
30486W        W 2812  29.586  40.492  10.856
30487W        W 2813  21.048  42.827   3.485
30488W        W 2814  32.234  30.637   0.794
30489W        W 2815  38.426  30.495   0.769
30490W        W 2816  10.583  16.582  14.663
30491W        W 2817  10.470  37.198  12.036
30492W        W 2818   1.055  28.603   0.498
30493W        W 2819   1.862  38.416  10.714
30494W        W 2820  38.580  14.036  14.920
30495W        W 2821  18.661  44.321  13.385
30496W        W 2822  40.381  11.120  11.883
30497W        W 2823  16.210  20.571   2.084
30498W        W 2824  32.405  27.476  14.033
30499W        W 2825  15.149  38.868  14.287
30500W        W 2826  11.733  17.760   1.399
30501W        W 2827   3.413  34.138  13.945
30502W        W 2828  19.631  29.026  13.643
30503W        W 2829  30.582  30.516  10.638
30504W        W 2830   9.201  42.868  11.550
30505W        W 2831  18.804  17.590  12.218
30506W        W 2832   1.135  11.549   0.400
30507W        W 2833  14.876   8.475  12.028
30508W        W 2834  37.594  38.996  12.337
30509W        W 2835  18.768  14.180   1.478
30510W        W 2836  13.652  27.173   5.095
30511W        W 2837   3.203   2.568   3.800
30512W        W 2838  29.941   5.434   0.978
30513W        W 2839  36.407  22.623   2.121
30514W        W 2840  43.318   1.293   4.145
30515W        W 2841  23.534  18.566  14.412
30516W        W 2842   5.358  38.929  12.562
30517W        W 2843  11.027  26.717   5.474
30518W        W 2844  25.218  41.573   4.259
30519W        W 2845  14.956  14.533  14.348
30520W        W 2846  44.497  32.637   3.321
30521W        W 2847  28.446  34.351   3.685
30522W        W 2848  20.012  34.016   0.859
30523W        W 2849   5.910   0.365  13.010
30524W        W 2850  12.887  43.027   3.666
30525W        W 2851  32.551  19.250   2.699
30526W        W 2852  21.506   3.760   4.914
30527W        W 2853  12.920  30.541  13.129
30528W        W 2854  14.514  44.932   3.323
30529W        W 2855  24.725  39.911  12.581
30530W        W 2856  14.293  34.707  11.157
30531W        W 2857  17.767  40.179   3.724
30532W        W 2858   9.175  23.572  14.949
30533W        W 2859   7.701   2.730  12.241
30534W        W 2860   6.878   5.403  10.926
30535W        W 2861  21.191  35.498  11.547
30536W        W 2862  31.598   0.235   1.606
30537W        W 2863  33.458  37.864   0.501
30538W        W 2864  30.708  22.200  13.559
30539W        W 2865  16.095   6.783   2.675
30540W        W 2866   2.307   3.874   3.427
30541W        W 2867  29.476  40.456  13.228
30542W        W 2868  38.668  20.763   2.358
30543W        W 2869  27.871  17.627   3.604
30544W        W 2870  22.039  16.342   2.878
30545W        W 2871  43.765  22.084  13.798
30546W        W 2872  40.048  18.652  11.707
30547W        W 2873  29.958  26.695  11.986
30548W        W 2874   2.940   1.319   1.963
30549W        W 2875   3.751   2.550  12.071
30550W        W 2876  33.577  17.294   4.631
30551W        W 2877  27.407  39.820  12.933
30552W        W 2878  29.228  27.043  11.506
30553W        W 2879  10.393   5.641   0.309
30554W        W 2880  21.662   7.395  13.802
30555W        W 2881  12.312  22.100  11.933
30556W        W 2882   0.837  35.319  11.473
30557W        W 2883   0.813  34.915  12.508
30558W        W 2884  35.835  39.261  12.624
30559W        W 2885  25.436  19.525   4.611
30560W        W 2886  31.023  36.037  13.085
30561W        W 2887  33.626  11.510  12.586
30562W        W 2888  14.535  32.611  14.436
30563W        W 2889   1.193   7.291  14.358
30564W        W 2890  43.696  41.449   0.639
30565W        W 2891  17.299  44.052   0.959
30566W        W 2892  29.448  34.373   2.764
30567W        W 2893  13.668  37.826   0.249
30568W        W 2894  35.656  33.086  11.457
30569W        W 2895  37.948  31.393   3.770
30570W        W 2896  28.664   6.707   2.483
30571W        W 2897  12.380  34.557   2.632
30572W        W 2898  14.123   7.307  10.854
30573W        W 2899   2.297  24.900  14.717
30574W        W 2900  37.295  14.126   1.335
30575W        W 2901  12.286  33.438  14.355
30576W        W 2902  12.123  31.769  11.221
30577W        W 2903   8.359  38.457   2.983
30578W        W 2904  27.740  12.836   0.375
30579W        W 2905  21.078  34.940  12.752
30580W        W 2906  37.576   3.214   3.287
30581W        W 2907  16.589  17.332   1.849
30582W        W 2908   5.914   5.565  11.686
30583W        W 2909  23.443  11.299   0.966
30584W        W 2910  22.222  21.078   0.762
30585W        W 2911  34.313  26.608   3.158
30586W        W 2912  22.290  31.946  11.540
30587W        W 2913  42.823  43.267  13.602
30588W        W 2914  29.068  11.166  11.918
30589W        W 2915  43.242  11.553  10.339
30590W        W 2916  28.412  16.326  11.021
30591W        W 2917  15.130  14.723  10.876
30592W        W 2918   0.851  31.659   2.342
30593W        W 2919  26.806  11.410   1.623
30594W        W 2920   6.743  24.466  13.371
30595W        W 2921  10.859  13.646   1.542
30596W        W 2922  30.003  16.488  14.520
30597W        W 2923   0.364   0.660  11.528
30598W        W 2924  22.886  24.742  13.032
30599W        W 2925  13.825  27.253   2.335
30600W        W 2926  43.657  19.305  14.893
30601W        W 2927  28.174  11.652   1.813
30602W        W 2928   3.343  22.253  10.194
30603W        W 2929  32.356   3.682  11.158
30604W        W 2930  41.369  41.971   2.398
30605W        W 2931  24.539  18.626  13.166
30606W        W 2932  29.038   4.423   0.737
30607W        W 2933   4.707  18.502  12.055
30608W        W 2934  38.166  33.050  11.840
30609W        W 2935  21.177  26.748  12.160
30610W        W 2936   5.823  39.795  14.033
30611W        W 2937  44.834  25.586   1.778
30612W        W 2938   1.959  19.126  14.037
30613W        W 2939  23.588  32.411   1.865
30614W        W 2940  23.547  30.933   3.233
30615W        W 2941   9.110   6.256  11.201
30616W        W 2942  15.252  31.566  14.409
30617W        W 2943  39.541   5.746  14.295
30618W        W 2944   6.339   4.555  13.030
30619W        W 2945  20.075  44.839   0.265
30620W        W 2946  35.837  27.958   2.113
30621W        W 2947  36.892  25.476   1.268
30622W        W 2948  10.905  27.902  13.852
30623W        W 2949  12.862  24.569  14.291
30624W        W 2950  23.171  11.906  10.709
30625W        W 2951  22.806  24.099  12.027
30626W        W 2952  10.747  27.981   2.149
30627W        W 2953  22.641  29.030   3.792
30628W        W 2954  34.858  17.374  13.541
30629W        W 2955   0.793  39.169   5.107
30630W        W 2956  14.596  13.952  13.322
30631W        W 2957   0.781  13.058  11.973
30632W        W 2958  31.996  31.445   5.023
30633W        W 2959  28.107  33.184   1.739
30634W        W 2960  30.124  32.150  12.185
30635W        W 2961  22.904  42.912  10.795
30636W        W 2962  26.636  33.190  12.499
30637W        W 2963   8.348  24.969   3.422
30638W        W 2964  29.682   6.798   0.143
30639W        W 2965  14.885  32.934   3.982
30640W        W 2966  26.066  13.100  11.493
30641W        W 2967   3.312  25.292  13.357
30642W        W 2968  25.337  22.751   0.303
30643W        W 2969   1.222  21.590  10.726
30644W        W 2970  44.381  33.983  13.308
30645W        W 2971  39.507  38.449  10.990
30646W        W 2972  16.461   0.702  11.457
30647W        W 2973   0.275  22.915  13.818
30648W        W 2974  37.432  16.162   4.563
30649W        W 2975  14.151   7.246   1.870
30650W        W 2976   7.659  39.085  11.610
30651W        W 2977   3.272  35.398  13.252
30652W        W 2978  44.206  33.661   0.424
30653W        W 2979  31.146  30.590   2.362
30654W        W 2980   2.751  13.758   0.414
30655W        W 2981  41.324   8.272  13.216
30656W        W 2982  29.806  17.909   1.068
30657W        W 2983   3.955  11.880  10.727
30658W        W 2984   0.475  17.192   2.835
30659W        W 2985  42.753  28.229   2.363
30660W        W 2986  24.213  12.057  10.769
30661W        W 2987  29.013   3.568   0.547
30662W        W 2988  39.410   4.399   3.704
30663W        W 2989  43.795  27.348  14.980
30664W        W 2990  22.218  16.948   9.747
30665W        W 2991  40.999  32.726  13.803
30666W        W 2992  17.494   7.043   4.190
30667W        W 2993  27.911  33.565  12.651
30668W        W 2994  43.098  15.120   4.100
30669W        W 2995  26.682  36.923   2.804
30670W        W 2996   7.342  26.658   4.520
30671W        W 2997   6.244  36.766   2.407
30672W        W 2998  21.123   1.130   2.229
30673W        W 2999  41.767  37.331   1.705
30674W        W 3000   9.641  22.109  14.751
30675W        W 3001   0.837  14.364   3.605
30676W        W 3002  17.774  35.242   4.029
30677W        W 3003  43.649   2.070   4.609
30678W        W 3004  28.042  39.639   5.214
30679W        W 3005  22.971   3.398   1.354
30680W        W 3006  20.540  33.563  10.554
30681W        W 3007  23.319   4.417  10.699
30682W        W 3008  15.323   8.124   0.302
30683W        W 3009  21.272  44.979   5.263
30684W        W 3010  29.483  34.975  13.099
30685W        W 3011   9.815  23.584   3.397
30686W        W 3012  31.899   8.889   1.835
30687W        W 3013  18.607  12.655   2.223
30688W        W 3014  33.510   5.143   2.221
30689W        W 3015  32.700  40.947  14.842
30690W        W 3016  25.608  38.553   2.584
30691W        W 3017  36.088   8.928   3.620
30692W        W 3018  34.513  18.870  11.885
30693W        W 3019  15.579  12.332  13.845
30694W        W 3020   4.561   0.821   3.283
30695W        W 3021  37.840  40.820  11.045
30696W        W 3022  41.610  38.781   1.738
30697W        W 3023  34.331  34.421  11.012
30698W        W 3024   0.873  43.554   3.559
30699W        W 3025  16.865  35.465   2.776
30700W        W 3026  28.335  11.705   4.805
30701W        W 3027  17.347  28.102   2.385
30702W        W 3028   6.927  22.582   3.266
30703W        W 3029  29.992   4.856  10.705
30704W        W 3030  44.783  29.957   3.306
30705W        W 3031   0.141  34.302  11.067
30706W        W 3032  31.079  42.528  13.535
30707W        W 3033  42.076   3.469  14.766
30708W        W 3034  41.079  15.043  12.445
30709W        W 3035  36.334  21.697   1.371
30710W        W 3036  26.681  27.508   1.908
30711W        W 3037  24.145  38.573  14.335
30712W        W 3038  12.277  18.751  12.125
30713W        W 3039  11.340  19.717   3.171
30714W        W 3040  23.302  41.036   4.300
30715W        W 3041  13.337  44.106   1.763
30716W        W 3042  23.472  18.719   5.008
30717W        W 3043  30.431  40.901  14.903
30718W        W 3044  12.133  12.986  14.919
30719W        W 3045   3.846  34.368   4.167
30720W        W 3046   2.884   2.671  13.434
30721W        W 3047  43.414  36.205  13.416
30722W        W 3048  15.773  41.405  10.347
30723W        W 3049  33.957  29.689  12.884
30724W        W 3050  17.698  11.049   0.481
30725W        W 3051  40.632  37.926   3.992
30726W        W 3052   1.227  43.227   2.782
30727W        W 3053  20.529  17.214   4.218
30728W        W 3054  31.293  15.172  11.957
30729W        W 3055  22.580  18.246   3.556
30730W        W 3056  17.799  37.487   1.502
30731W        W 3057  39.394  30.101   4.646
30732W        W 3058   2.780   9.842   2.228
30733W        W 3059   6.686  25.219  11.525
30734W        W 3060  18.132  33.347   3.248
30735W        W 3061  25.903  17.751  10.730
30736W        W 3062  18.903  26.913  12.136
30737W        W 3063  38.073  13.638   2.373
30738W        W 3064  38.642  20.323  13.862
30739W        W 3065   4.838   0.675  11.423
30740W        W 3066   2.987   3.975   0.324
30741W        W 3067  13.402   1.419   0.860
30742W        W 3068  35.566  22.037   1.603
30743W        W 3069  27.720  16.844   4.738
30744W        W 3070  20.779  22.628   4.186
30745W        W 3071  13.641  12.681  13.910
30746W        W 3072  37.867  19.762   1.619
30747W        W 3073  36.930  21.141  11.583
30748W        W 3074  43.439  30.589   3.938
30749W        W 3075  20.004  32.151   3.207
30750W        W 3076   9.105  15.752  10.328
30751W        W 3077  26.243  26.677  14.372
30752W        W 3078   7.107  19.148  14.228
30753W        W 3079  24.254  25.142   3.182
30754W        W 3080  23.978  39.484   3.966
30755W        W 3081  10.403  28.191   3.509
30756W        W 3082   3.323  10.817   3.572
30757W        W 3083  43.151  10.423   2.408
30758W        W 3084  44.917  31.836  14.917
30759W        W 3085  18.035  28.690   3.837
30760W        W 3086  14.580  21.697   0.431
30761W        W 3087  13.257  25.746   0.821
30762W        W 3088  32.674  18.001   0.382
30763W        W 3089   2.239  27.917   3.174
30764W        W 3090  10.734  43.935   0.287
30765W        W 3091  31.716  40.958  14.747
30766W        W 3092  12.273  26.944   0.016
30767W        W 3093  37.107  28.343  11.467
30768W        W 3094  11.231  35.491  10.435
30769W        W 3095  33.522  18.695   4.839
30770W        W 3096   6.921  23.315   1.915
30771W        W 3097  43.751  35.514  10.717
30772W        W 3098  41.360  43.579  10.517
30773W        W 3099  38.972  34.033   2.758
30774W        W 3100  16.670   8.043  14.499
30775W        W 3101  12.606  35.818  10.326
30776W        W 3102  30.938  22.916  14.814
30777W        W 3103  25.437  39.099   9.952
30778W        W 3104  32.147  21.164  12.886
30779W        W 3105  13.822  13.733   4.563
30780W        W 3106   1.855   3.676  10.861
30781W        W 3107   1.786  32.068  13.434
30782W        W 3108  22.825  42.985  13.324
30783W        W 3109  42.975  38.034   0.287
30784W        W 3110  37.685  22.199  14.451
30785W        W 3111   6.242  35.800   3.070
30786W        W 3112  16.775  34.481  12.452
30787W        W 3113  26.412  36.589  10.655
30788W        W 3114   8.364  35.591   0.319
30789W        W 3115   3.986   8.248   0.716
30790W        W 3116  43.385   4.514   0.297
30791W        W 3117  27.956  29.016  10.251
30792W        W 3118  41.961  16.019   3.249
30793W        W 3119  16.231  13.210  14.423
30794W        W 3120   1.399   7.399  11.288
30795W        W 3121   3.746  26.888   0.859
30796W        W 3122  13.722  30.029   3.176
30797W        W 3123   6.337  34.525   2.903
30798W        W 3124  22.061   2.876  10.751
30799W        W 3125  35.384  39.389   1.429
30800W        W 3126  23.029  30.446  14.033
30801W        W 3127   6.319   4.767   1.209
30802W        W 3128  22.322   5.888   3.017
30803W        W 3129  44.890   2.053  12.438
30804W        W 3130  25.279  21.824  11.040
30805W        W 3131  34.326   6.856   0.705
30806W        W 3132   1.304  26.095   3.819
30807W        W 3133   9.943  32.541   2.858
30808W        W 3134  28.200  18.913  14.548
30809W        W 3135  10.475   0.597   1.698
30810W        W 3136  42.490   7.707   1.559
30811W        W 3137  41.996  30.510   3.998
30812W        W 3138  21.588  11.231   3.135
30813W        W 3139  18.281  31.423  11.177
30814W        W 3140  33.135  16.555   4.645
30815W        W 3141  21.672   2.726  11.650
30816W        W 3142   8.640  40.379   2.138
30817W        W 3143   7.106  24.754  12.366
30818W        W 3144  20.656   3.985   1.174
30819W        W 3145  30.534  40.377  10.420
30820W        W 3146  40.541  29.989  11.145
30821W        W 3147  31.779  15.650   1.207
30822W        W 3148  16.137  37.348  13.832
30823W        W 3149  26.162   3.232  12.955
30824W        W 3150  40.965  41.926   2.712
30825W        W 3151   0.304  22.006   3.198
30826W        W 3152  44.424  37.981   3.138
30827W        W 3153  24.074  41.055  10.726
30828W        W 3154   3.642  22.283  10.660
30829W        W 3155   0.346  30.977   2.846
30830W        W 3156  34.566  28.232  11.762
30831W        W 3157  34.848  27.459  13.433
30832W        W 3158   9.854  14.746   4.249
30833W        W 3159   1.898   9.317  13.350
30834W        W 3160   2.385  18.503  12.035
30835W        W 3161  11.882  11.074   4.228
30836W        W 3162  36.879   8.437   0.849
30837W        W 3163  14.819  44.793   1.965
30838W        W 3164   2.793   5.753  13.705
30839W        W 3165  16.941  22.823  14.862
30840W        W 3166  18.624  18.764  10.701
30841W        W 3167  28.710   5.455  10.531
30842W        W 3168  32.154  24.223   2.388
30843W        W 3169  14.659  31.961  11.876
30844W        W 3170  27.104  28.790   9.799
30845W        W 3171  11.628  13.505  13.473
30846W        W 3172  41.132  15.100  10.732
30847W        W 3173   4.629  17.346  11.498
30848W        W 3174  14.716  21.619  13.463
30849W        W 3175  30.243   3.916   0.753
30850W        W 3176  16.123   0.252   3.633
30851W        W 3177   0.572  17.626  11.616
30852W        W 3178  28.923  33.910  12.529
30853W        W 3179  20.529  42.275   0.309
30854W        W 3180  28.081  44.276   4.656
30855W        W 3181  19.726  18.939  11.160
30856W        W 3182  37.543  27.154  12.072
30857W        W 3183   5.695   0.499   1.708
30858W        W 3184  15.300  12.049   3.149
30859W        W 3185  23.539   2.219   0.306
30860W        W 3186   5.441   6.280  13.375
30861W        W 3187  28.170  29.015   1.462
30862W        W 3188   2.585   4.928   1.849
30863W        W 3189  18.633  34.059   1.472
30864W        W 3190   9.869  42.857   4.523
30865W        W 3191  43.251   3.123  13.967
30866W        W 3192   0.112   8.493  13.030
30867W        W 3193  44.051   8.701  13.766
30868W        W 3194  19.995  23.484  12.057
30869W        W 3195  41.959  28.254   0.754
30870W        W 3196   7.690   7.912  14.583
30871W        W 3197  32.173  43.079  14.335
30872W        W 3198  11.874  23.069   0.433
30873W        W 3199  33.166  36.953  10.720
30874W        W 3200  37.347  31.611   1.188
30875W        W 3201  14.792  16.671  11.189
30876W        W 3202   7.589  30.673   3.688
30877W        W 3203  44.309  31.646   4.383
30878W        W 3204  20.835  18.093   4.554
30879W        W 3205   7.731   5.533  14.975
30880W        W 3206  26.541  21.597   3.985
30881W        W 3207  17.692  15.352  12.877
30882W        W 3208   1.717   0.562  11.867
30883W        W 3209  38.378  41.623   1.653
30884W        W 3210  28.082  19.204   3.447
30885W        W 3211  41.740  27.670  12.866
30886W        W 3212  24.990  19.185  12.007
30887W        W 3213   7.664  18.493   2.119
30888W        W 3214  41.085   3.321   4.657
30889W        W 3215   9.198  31.103  14.412
30890W        W 3216  12.553  43.293  11.652
30891W        W 3217  30.689  44.952  13.921
30892W        W 3218  41.877   1.783  11.176
30893W        W 3219  44.506  43.902  14.901
30894W        W 3220  25.617   8.718  10.994
30895W        W 3221  24.094  20.538   3.329
30896W        W 3222   7.857  30.622  13.339
30897W        W 3223  28.072  20.823   0.244
30898W        W 3224  42.456  37.984   0.295
30899W        W 3225   7.421   9.365   4.453
30900W        W 3226  12.767   8.915  14.332
30901W        W 3227  42.024  18.733   1.727
30902W        W 3228  18.173   2.694   2.221
30903W        W 3229  42.495  16.914  11.624
30904W        W 3230  30.463  39.860  10.730
30905W        W 3231  22.666   1.896  14.251
30906W        W 3232   2.316  31.118  12.555
30907W        W 3233  36.056  27.914   4.703
30908W        W 3234   7.544  11.757   1.669
30909W        W 3235  38.574   4.905   4.837
30910W        W 3236  38.016  44.788  13.271
30911W        W 3237  31.179  12.082   0.309
30912W        W 3238  29.941  35.448  13.958
30913W        W 3239  43.113  15.564  11.099
30914W        W 3240  13.272  25.756  10.349
30915W        W 3241  21.461   4.353  10.361
30916W        W 3242   4.372   2.318  10.317
30917W        W 3243  43.901  18.349  13.860
30918W        W 3244  10.319   0.290  11.973
30919W        W 3245  42.603  26.673  10.885
30920W        W 3246   7.128  38.427   3.172
30921W        W 3247   5.793   9.910   3.260
30922W        W 3248  39.944  36.451  12.938
30923W        W 3249  44.299   6.880  14.318
30924W        W 3250  17.080  19.602   4.983
30925W        W 3251  13.936  40.449  13.467
30926W        W 3252  14.842  35.324   2.355
30927W        W 3253   7.821  20.849   0.517
30928W        W 3254  33.345  39.238  12.565
30929W        W 3255   8.346  41.863   0.973
30930W        W 3256   4.355  41.549  12.304
30931W        W 3257  39.908  18.731   0.034
30932W        W 3258  28.507  25.677  13.542
30933W        W 3259  34.495  13.577   1.574
30934W        W 3260   7.618  42.434  11.054
30935W        W 3261  38.079  15.752   1.072
30936W        W 3262  30.964  28.616  14.604
30937W        W 3263  15.917  17.142   4.594
30938W        W 3264   5.726  38.262  14.683
30939W        W 3265   3.579   2.297   0.801
30940W        W 3266  34.535  37.322  10.956
30941W        W 3267  35.178  21.023   0.375
30942W        W 3268  15.418  38.033  14.014
30943W        W 3269  31.700   2.626   2.790
30944W        W 3270  43.602  20.511   0.415
30945W        W 3271  18.738   1.284   1.518
30946W        W 3272  36.610  10.805  14.396
30947W        W 3273   5.829  27.072   1.748
30948W        W 3274  36.578  44.374   4.216
30949W        W 3275  23.947  40.592  10.441
30950W        W 3276  10.245  31.873   3.328
30951W        W 3277  38.759   4.447   1.683
30952W        W 3278  36.365  40.298   2.165
30953W        W 3279  36.820  28.405  13.075
30954W        W 3280  23.648  11.196   0.455
30955W        W 3281   4.884   2.763   0.435
30956W        W 3282  15.265  31.620   0.440
30957W        W 3283   8.202   7.377  13.396
30958W        W 3284  24.753   7.348   4.745
30959W        W 3285  16.251   2.812   0.892
30960W        W 3286  23.430  43.862  14.512
30961W        W 3287  20.566  44.357   3.695
30962W        W 3288  27.701  44.493   1.732
30963W        W 3289   0.521  12.583   0.910
30964W        W 3290  28.204  22.180  14.791
30965W        W 3291  16.064  21.636  12.740
30966W        W 3292  19.109  40.312  14.954
30967W        W 3293  11.235  11.798  12.936
30968W        W 3294   4.670  21.159  10.645
30969W        W 3295  15.533   1.728  14.582
30970W        W 3296  21.764  31.347  11.652
30971W        W 3297  12.571  13.580   1.542
30972W        W 3298  35.647   6.347   0.837
30973W        W 3299  26.040  23.406  14.837
30974W        W 3300  32.695  40.975  11.951
30975W        W 3301  33.921  35.805  13.853
30976W        W 3302  31.398  36.804   1.740
30977W        W 3303   8.638  17.029   4.131
30978W        W 3304  11.699  36.982   0.023
30979W        W 3305  18.646  43.601  10.696
30980W        W 3306  23.520  24.963  13.030
30981W        W 3307  18.058  12.897  14.784
30982W        W 3308  32.231  18.113   0.693
30983W        W 3309   1.031  24.567   2.687
30984W        W 3310  23.470  28.908   1.956
30985W        W 3311   8.965  11.272  12.962
30986W        W 3312  25.626  12.734  14.302
30987W        W 3313  17.561   2.985  10.907
30988W        W 3314  33.059  34.920   9.635
30989W        W 3315  22.647  25.719  11.634
30990W        W 3316  24.611  23.118  12.724
30991W        W 3317  34.781  11.319   0.532
30992W        W 3318  43.073  15.257  11.509
30993W        W 3319  16.758  16.890  13.301
30994W        W 3320  34.903  44.995  14.942
30995W        W 3321  35.165   1.724   4.508
30996W        W 3322  17.486  10.224  13.365
30997W        W 3323   4.161  22.960  10.312
30998W        W 3324  38.857  23.167   3.827
30999W        W 3325  27.065  42.441  11.136
31000W        W 3326   1.518  33.093   2.264
31001W        W 3327  22.862  34.526  11.517
31002W        W 3328  17.425  13.084   5.001
31003W        W 3329   9.831   8.323   2.195
31004W        W 3330  36.506  42.009  12.859
31005W        W 3331  18.967  29.695   2.245
31006W        W 3332  31.980  41.358   2.897
31007W        W 3333   6.743  13.851  12.015
31008W        W 3334  28.884  41.730   4.149
31009W        W 3335   2.013  26.029  11.414
31010W        W 3336  21.931  44.885  12.084
31011W        W 3337  43.227  19.186   0.233
31012W        W 3338  11.280  22.606  14.930
31013W        W 3339  35.472   8.813   1.504
31014W        W 3340  33.890  30.552  11.434
31015W        W 3341  14.393  19.305  11.902
31016W        W 3342  19.103  43.019  11.872
31017W        W 3343  22.037  10.858  14.028
31018W        W 3344  43.273  43.933   3.285
31019W        W 3345  10.633  29.347  13.066
31020W        W 3346   3.899  37.081  14.121
31021W        W 3347  44.099  28.665   1.846
31022W        W 3348   4.792  14.069  13.418
31023W        W 3349  35.556  30.603  13.042
31024W        W 3350  28.408   0.600   4.881
31025W        W 3351  27.976   4.507  13.427
31026W        W 3352  41.722  44.914   1.738
31027W        W 3353  44.867  20.567   0.851
31028W        W 3354   5.336   3.812  11.238
31029W        W 3355  16.226  25.082   2.630
31030W        W 3356  10.557  14.045  11.103
31031W        W 3357  31.859  26.695   2.230
31032W        W 3358   8.749  17.697  13.911
31033W        W 3359  11.623  39.419  12.935
31034W        W 3360  20.628  17.131  11.838
31035W        W 3361   5.676  26.713  14.106
31036W        W 3362   9.422  15.269  13.869
31037W        W 3363   8.442   9.563   2.246
31038W        W 3364  22.475   0.009   0.767
31039W        W 3365  30.158  11.645   1.879
31040W        W 3366  23.114  14.107   0.898
31041W        W 3367  19.481  23.008  12.416
31042W        W 3368  36.154  16.543  10.388
31043W        W 3369   7.426  22.101   1.200
31044W        W 3370  12.319  31.880   0.890
31045W        W 3371  10.087   5.452   2.302
31046W        W 3372   0.547  41.963   3.269
31047W        W 3373  23.607  16.978   1.492
31048W        W 3374  41.967   5.963   4.664
31049W        W 3375   9.891   0.184   0.327
31050W        W 3376  44.795  32.530   0.879
31051W        W 3377  36.297   9.877   1.956
31052W        W 3378  38.937  19.548   0.533
31053W        W 3379  11.897  15.956  10.221
31054W        W 3380  34.055  25.182  12.075
31055W        W 3381  39.580  36.916   0.887
31056W        W 3382  15.727   4.401  11.264
31057W        W 3383   2.194  26.918   1.664
31058W        W 3384  32.097  23.022   1.848
31059W        W 3385  24.602  20.538   3.129
31060W        W 3386  19.123   1.965   4.849
31061W        W 3387  16.192  20.200  14.020
31062W        W 3388   8.430  27.616   2.480
31063W        W 3389  34.912  23.621   3.955
31064W        W 3390   2.676  41.482   2.182
31065W        W 3391  15.703  22.171   1.217
31066W        W 3392   9.330  38.940  14.313
31067W        W 3393  32.978  26.110   2.442
31068W        W 3394  39.856  28.692   1.211
31069W        W 3395  10.743  32.372  11.545
31070W        W 3396  35.353  22.203   4.773
31071W        W 3397  43.877  42.399   3.427
31072W        W 3398   2.387  16.675  13.321
31073W        W 3399  16.031  31.641   1.253
31074W        W 3400  15.197   0.012   1.224
31075W        W 3401  20.158  10.391   2.732
31076W        W 3402   5.306  13.137   1.847
31077W        W 3403   7.438   6.487   0.588
31078W        W 3404  39.372  29.183   0.037
31079W        W 3405   9.533  36.429  14.123
31080W        W 3406  18.187   3.405   3.620
31081W        W 3407  14.806  28.988   0.233
31082W        W 3408  42.279   7.521  12.152
31083W        W 3409  34.350   2.394  10.793
31084W        W 3410   5.986   8.459  11.180
31085W        W 3411  33.680   0.684  14.994
31086W        W 3412   3.627   9.577  11.127
31087W        W 3413   8.342  16.879   0.525
31088W        W 3414   3.853  11.560   0.727
31089W        W 3415  11.633   3.134   0.863
31090W        W 3416  14.504  31.490   4.933
31091W        W 3417  26.616  14.644   4.670
31092W        W 3418  37.115   7.817  13.555
31093W        W 3419  21.396  34.992   3.719
31094W        W 3420  29.490   8.699   2.722
31095W        W 3421   7.928   6.326   1.652
31096W        W 3422  25.485  20.672  12.899
31097W        W 3423  24.815  15.157   4.654
31098W        W 3424  44.936  20.292  11.480
31099W        W 3425  35.377  42.082  13.778
31100W        W 3426  39.486  41.373  13.216
31101W        W 3427  33.089  39.987  14.394
31102W        W 3428   4.431  10.423   2.068
31103W        W 3429   9.574  11.292  14.974
31104W        W 3430   3.507   9.251   4.233
31105W        W 3431  21.734  32.437  10.709
31106W        W 3432   9.358  39.752  12.971
31107W        W 3433   8.196  20.747   1.768
31108W        W 3434  34.039   7.829   1.671
31109W        W 3435  11.371  42.603   0.261
31110W        W 3436  16.315  34.701  11.159
31111W        W 3437  22.092  20.122  14.188
31112W        W 3438  44.875  15.387   4.863
31113W        W 3439  38.463   5.070  11.022
31114W        W 3440   1.516   8.741  11.442
31115W        W 3441  10.186   8.843   0.076
31116W        W 3442  16.756   2.294  11.193
31117W        W 3443  24.445  13.807  13.349
31118W        W 3444   4.769  28.087   3.510
31119W        W 3445  25.165   3.306   4.252
31120W        W 3446  40.331  20.566  12.319
31121W        W 3447  31.709  17.157   4.723
31122W        W 3448  33.537   7.849  13.934
31123W        W 3449  11.207  22.109   2.164
31124W        W 3450  11.058   1.746  14.923
31125W        W 3451  33.669   7.252  14.480
31126W        W 3452  33.884  26.115  14.602
31127W        W 3453  24.447  40.990  13.315
31128W        W 3454   8.747  10.551   0.561
31129W        W 3455  31.657  28.581   4.870
31130W        W 3456  40.557  33.385  13.054
31131W        W 3457  14.258  31.921  11.194
31132W        W 3458   4.265  42.510   2.859
31133W        W 3459  16.279  36.070   0.215
31134W        W 3460  42.939  25.662  12.420
31135W        W 3461  26.592  36.540   5.242
31136W        W 3462  32.539  21.729   3.752
31137W        W 3463   1.575   8.691   1.369
31138W        W 3464   2.335  39.738  13.754
31139W        W 3465  26.916  22.312  12.911
31140W        W 3466   3.370   6.144   1.780
31141W        W 3467  42.445   7.022  12.109
31142W        W 3468   7.706  17.308   2.298
31143W        W 3469   8.420  41.039  13.806
31144W        W 3470  30.450  31.899  12.521
31145W        W 3471  26.244  28.454   1.816
31146W        W 3472  15.170  18.348   1.865
31147W        W 3473  24.165   9.994  12.406
31148W        W 3474  25.583   0.629   0.033
31149W        W 3475  39.184  35.560   1.835
31150W        W 3476  23.816  23.657   1.726
31151W        W 3477  35.319  20.490   2.817
31152W        W 3478  10.315  28.660   0.231
31153W        W 3479  22.611  37.105  12.504
31154W        W 3480   9.662  26.910  13.018
31155W        W 3481  32.691  27.188   3.184
31156W        W 3482  41.254  17.192  13.818
31157W        W 3483  26.116  25.834   1.765
31158W        W 3484   5.202  44.982   3.204
31159W        W 3485  19.117   9.741  12.402
31160W        W 3486  33.917  36.204   5.493
31161W        W 3487  15.624  15.063  13.450
31162W        W 3488  18.923  17.106   2.772
31163W        W 3489   7.695  41.428  13.753
31164W        W 3490  34.986   0.930  11.928
31165W        W 3491  32.113   5.910  10.700
31166W        W 3492   1.326  23.718   0.561
31167W        W 3493  32.468  33.904  13.497
31168W        W 3494  29.330  18.176  12.706
31169W        W 3495   3.735  16.124   0.734
31170W        W 3496   3.708  44.038  11.593
31171W        W 3497  38.009  16.432   0.433
31172W        W 3498  26.158  43.032  14.094
31173W        W 3499  19.098  41.068   2.178
31174W        W 3500  24.168  22.975   4.836
31175W        W 3501  43.824   1.265   2.091
31176W        W 3502  35.843  32.492  14.850
31177W        W 3503   3.738  16.078   2.578
31178W        W 3504  11.649  35.647  12.113
31179W        W 3505  35.141   3.329  14.467
31180W        W 3506  40.803  41.281   0.381
31181W        W 3507  34.398  31.856   3.254
31182W        W 3508  42.079  11.473   0.727
31183W        W 3509   5.421  19.134   2.833
31184W        W 3510  23.999   5.720   1.442
31185W        W 3511   8.775  32.012  12.017
31186W        W 3512  22.656  26.246  10.654
31187W        W 3513  33.980  21.698  10.389
31188W        W 3514  22.252  21.760   3.148
31189W        W 3515  42.740  15.768   1.973
31190W        W 3516  43.604  27.193   4.215
31191W        W 3517  41.456  11.847  13.017
31192W        W 3518  25.684   4.822  12.802
31193W        W 3519  25.162   4.349  13.929
31194W        W 3520  39.084  39.635  12.044
31195W        W 3521  27.131  34.960   1.887
31196W        W 3522  26.959  34.467   1.912
31197W        W 3523  10.646  12.850   2.635
31198W        W 3524  13.079   2.864  11.570
31199W        W 3525  42.356  37.410   2.861
31200W        W 3526  24.252  22.921   3.513
31201W        W 3527  12.578  11.189  12.656
31202W        W 3528  12.825  39.962  12.003
31203W        W 3529   8.424   4.298  13.407
31204W        W 3530  20.735  40.309   0.195
31205W        W 3531  10.843  20.970   3.283
31206W        W 3532  10.412  10.737   4.443
31207W        W 3533  22.234  29.647  12.315
31208W        W 3534  32.222  40.451   5.188
31209W        W 3535  16.059  42.738   4.116
31210W        W 3536  10.657  25.027   1.545
31211W        W 3537  27.359  38.898  14.261
31212W        W 3538  25.501  37.449  10.621
31213W        W 3539  20.229   2.054  12.938
31214W        W 3540   7.783  10.876   0.684
31215W        W 3541  35.825  18.303  12.682
31216W        W 3542  44.942  17.606   1.696
31217W        W 3543  41.054   3.076  11.373
31218W        W 3544   6.267  16.327   3.751
31219W        W 3545   1.881  22.151  11.365
31220W        W 3546  24.549  34.888   4.097
31221W        W 3547  24.098  36.693   2.172
31222W        W 3548  17.631  30.678  13.060
31223W        W 3549   7.709  17.937  10.010
31224W        W 3550  14.618  19.827  12.410
31225W        W 3551   4.196  14.299   1.897
31226W        W 3552   7.880  33.579   0.876
31227W        W 3553  23.174  22.949   2.256
31228W        W 3554  13.608  31.377  11.123
31229W        W 3555  28.040   7.477  12.077
31230W        W 3556  32.909  20.766   2.822
31231W        W 3557  43.805  35.773  13.028
31232W        W 3558   3.758   7.210   0.851
31233W        W 3559  26.154  39.963  10.633
31234W        W 3560   7.677  44.189  12.888
31235W        W 3561  30.884  19.211   1.936
31236W        W 3562  19.162  28.857  13.464
31237W        W 3563  33.647  16.962   2.709
31238W        W 3564  15.737  42.338   4.637
31239W        W 3565  11.302  39.705  14.916
31240W        W 3566  37.808  31.608  12.341
31241W        W 3567  19.229  42.463  14.908
31242W        W 3568  44.033   4.179  11.116
31243W        W 3569   7.079  32.594  10.636
31244W        W 3570  43.443  38.343  11.097
31245W        W 3571  31.719  28.229  14.220
31246W        W 3572   3.459  13.153  12.065
31247W        W 3573   9.379  15.180  10.551
31248W        W 3574  31.417  29.405   0.397
31249W        W 3575  16.639  14.791  12.881
31250W        W 3576   7.290  15.180   0.878
31251W        W 3577   4.748  25.261  10.417
31252W        W 3578   2.728  14.126   0.820
31253W        W 3579  12.821  13.146   4.345
31254W        W 3580  19.995  40.905   3.765
31255W        W 3581  13.701  37.121  13.353
31256W        W 3582  14.061  21.218  10.637
31257W        W 3583   9.114  11.319   0.223
31258W        W 3584   0.690  13.613   4.085
31259W        W 3585   3.375   9.093  11.181
31260W        W 3586  20.500  15.313   1.522
31261W        W 3587  23.982  36.111  13.982
31262W        W 3588  37.034  40.457   1.430
31263W        W 3589  20.411  11.244   3.854
31264W        W 3590  37.902  35.948   3.636
31265W        W 3591  19.562  15.012   4.521
31266W        W 3592   4.235  11.746  14.277
31267W        W 3593  32.428  36.132   2.410
31268W        W 3594  13.033  14.516  13.457
31269W        W 3595  32.667   3.660  13.765
31270W        W 3596   1.752  42.530   3.342
31271W        W 3597  29.038  28.418   2.339
31272W        W 3598  37.116  37.912  11.769
31273W        W 3599  24.338  16.449  10.211
31274W        W 3600  37.871  28.633   4.633
31275W        W 3601  24.131  36.248   2.458
31276W        W 3602   7.905  16.141  12.006
31277W        W 3603  17.103   4.354  14.761
31278W        W 3604  34.644   2.043   0.294
31279W        W 3605  23.516  24.791  14.454
31280W        W 3606  14.268  17.208  11.108
31281W        W 3607   4.477  38.435   4.418
31282W        W 3608   8.946  13.327  10.655
31283W        W 3609  29.567   4.534   3.701
31284W        W 3610  19.733  30.047   3.084
31285W        W 3611   4.060  40.262  13.119
31286W        W 3612   8.697  30.989  11.384
31287W        W 3613  24.655   5.188  12.343
31288W        W 3614  30.392  33.557  12.916
31289W        W 3615  18.679  21.538   3.360
31290W        W 3616  15.721  35.228   2.254
31291W        W 3617   1.323  10.623  14.447
31292W        W 3618  33.122   1.692  12.579
31293W        W 3619  35.854  16.774  13.590
31294W        W 3620   8.204  29.659   4.261
31295W        W 3621  40.081  36.581   0.813
31296W        W 3622  13.829  25.760   1.654
31297W        W 3623  24.807  26.619   3.367
31298W        W 3624  18.122  33.487  10.931
31299W        W 3625  11.196   8.795   1.395
31300W        W 3626  42.839  18.769   0.471
31301W        W 3627   9.286  36.263   1.227
31302W        W 3628  18.173  25.192  10.764
31303W        W 3629   7.531  13.678  10.711
31304W        W 3630  22.120   7.736  14.972
31305W        W 3631   8.761  15.122   1.919
31306W        W 3632  33.414  33.856   1.391
31307W        W 3633  31.169  12.299   4.429
31308W        W 3634  41.022  27.574  10.985
31309W        W 3635  34.003  14.277   4.373
31310W        W 3636  33.706  31.632   0.520
31311W        W 3637   3.433  19.509   4.220
31312W        W 3638  12.134  43.458  10.654
31313W        W 3639  11.260  35.863   4.755
31314W        W 3640  41.936  25.537   4.748
31315W        W 3641   8.688  10.189  13.349
31316W        W 3642   9.584  22.539   2.343
31317W        W 3643  12.730  22.389   0.755
31318W        W 3644   2.968  33.894  14.913
31319W        W 3645  39.537  21.057  11.693
31320W        W 3646  22.226  12.171   4.420
31321W        W 3647  19.509  39.357   2.464
31322W        W 3648   6.661   0.381  11.495
31323W        W 3649  20.983   0.553  11.004
31324W        W 3650  36.025   0.814  14.992
31325W        W 3651  31.456  15.785  11.261
31326W        W 3652  40.287  29.501  11.588
31327W        W 3653  12.814  43.786   0.507
31328W        W 3654  19.130   1.717   1.207
31329W        W 3655  10.755  20.274  12.457
31330W        W 3656  18.853  44.557   0.778
31331W        W 3657  27.543  38.581   0.979
31332W        W 3658  43.721  22.124   4.073
31333W        W 3659  17.278  39.045   3.170
31334W        W 3660   9.650  29.400   2.339
31335W        W 3661  27.433  35.399   0.271
31336W        W 3662  14.699  40.541  13.823
31337W        W 3663  23.555  18.055  14.334
31338W        W 3664  14.676  23.647  14.697
31339W        W 3665   1.494  21.112  12.089
31340W        W 3666  13.771   2.857   3.343
31341W        W 3667   7.700  27.127   0.805
31342W        W 3668  38.540  12.296   4.897
31343W        W 3669  13.582  40.958  12.370
31344W        W 3670  23.295  42.746  12.446
31345W        W 3671  43.796  15.603  13.312
31346W        W 3672   8.815  27.909  10.208
31347W        W 3673  11.369  16.280  12.364
31348W        W 3674  22.464  14.628  13.128
31349W        W 3675  15.655  38.290  13.308
31350W        W 3676  13.259  25.471   0.402
31351W        W 3677  35.301  33.115   4.684
31352W        W 3678  22.801  35.226  10.418
31353W        W 3679   2.525  42.802  13.308
31354W        W 3680  42.286   1.917  14.781
31355W        W 3681  21.136  32.648  14.431
31356W        W 3682   8.307  30.594   2.701
31357W        W 3683   8.867  22.547   3.649
31358W        W 3684  37.634  21.864  11.615
31359W        W 3685  20.697  23.564  14.961
31360W        W 3686  27.119   3.452  13.596
31361W        W 3687  17.541  15.215  14.968
31362W        W 3688  23.527  36.337  14.008
31363W        W 3689  38.910  23.466  12.852
31364W        W 3690  14.043  24.266  11.026
31365W        W 3691  36.090  24.444   4.111
31366W        W 3692   8.619  43.524  11.942
31367W        W 3693  10.714  21.646   2.237
31368W        W 3694  24.191   4.149   0.229
31369W        W 3695  39.819  29.544  13.095
31370W        W 3696   5.448  42.479  14.532
31371W        W 3697   0.586  35.897   4.573
31372W        W 3698  14.539  41.758  14.314
31373W        W 3699  26.538  14.830   1.296
31374W        W 3700  19.680  30.862   3.266
31375W        W 3701  18.140  18.548  10.654
31376W        W 3702  21.814   6.253  12.006
31377W        W 3703  19.059  20.718  13.201
31378W        W 3704   3.227  16.163   2.688
31379W        W 3705  17.686  20.123  13.820
31380W        W 3706  29.216   8.960   5.019
31381W        W 3707  14.195  22.185  13.931
31382W        W 3708  11.261  31.402  10.850
31383W        W 3709  20.982  30.693  10.694
31384W        W 3710  23.169  15.258   3.355
31385W        W 3711  35.650  40.143   1.890
31386W        W 3712  23.977  14.249   1.956
31387W        W 3713  33.549  14.003   4.385
31388W        W 3714   5.335  24.710   1.451
31389W        W 3715   8.351  22.206  12.559
31390W        W 3716  31.326  42.307   0.838
31391W        W 3717  38.871  19.530  10.747
31392W        W 3718  14.158  12.660   1.052
31393W        W 3719  28.462  18.736   4.648
31394W        W 3720  19.768   0.713   2.264
31395W        W 3721  40.072  15.389  11.106
31396W        W 3722  14.679  41.861   1.381
31397W        W 3723  20.942  43.916   1.522
31398W        W 3724   9.377  38.378  11.620
31399W        W 3725  26.233   1.738   1.266
31400W        W 3726  28.700   2.621   3.173
31401W        W 3727  42.769   5.221   2.696
31402W        W 3728  15.347  14.895   4.114
31403W        W 3729  14.452  12.190  11.725
31404W        W 3730  17.018  23.513  14.014
31405W        W 3731  32.889  35.622   0.747
31406W        W 3732  26.713  33.042  13.428
31407W        W 3733  12.069  38.960   2.920
31408W        W 3734  18.665  24.182   4.984
31409W        W 3735   2.854  30.447  11.311
31410W        W 3736  11.127  23.215   2.882
31411W        W 3737   2.902  30.920   0.961
31412W        W 3738  13.420  30.712  12.430
31413W        W 3739  30.939  14.007   1.919
31414W        W 3740   3.169  21.515  10.677
31415W        W 3741  11.672  13.832   4.116
31416W        W 3742  32.985  37.550  11.438
31417W        W 3743  36.704  32.867   3.331
31418W        W 3744  43.561  38.566   2.951
31419W        W 3745   0.923  24.263  11.009
31420W        W 3746  39.939   2.475   4.107
31421W        W 3747   8.605   9.921  14.900
31422W        W 3748  25.206  40.142  12.593
31423W        W 3749  28.608  30.887   0.757
31424W        W 3750   2.674   9.790  12.443
31425W        W 3751  43.531  10.759  14.861
31426W        W 3752  43.065  26.715  10.667
31427W        W 3753  11.897  43.435  13.812
31428W        W 3754  35.977   6.865  11.642
31429W        W 3755  15.040  37.203   1.856
31430W        W 3756  12.116  37.924  14.409
31431W        W 3757  31.634  33.766   4.988
31432W        W 3758   4.974  11.168   1.702
31433W        W 3759  42.519  39.990   1.543
31434W        W 3760  15.290  37.634   0.958
31435W        W 3761  25.229  23.773   4.053
31436W        W 3762   0.154  28.876  11.087
31437W        W 3763   1.234  44.252  13.046
31438W        W 3764  26.890  10.250  11.755
31439W        W 3765  17.505  34.625   3.023
31440W        W 3766  44.337  17.120  11.473
31441W        W 3767   2.384  39.608  11.964
31442W        W 3768  23.024  14.267  10.233
31443W        W 3769  34.166   9.165   1.973
31444W        W 3770   5.756  32.881   0.728
31445W        W 3771  17.810  42.355   2.624
31446W        W 3772  39.464  44.160  11.646
31447W        W 3773   1.142  18.389   0.383
31448W        W 3774  43.872  24.643  13.501
31449W        W 3775  37.109  36.514  14.255
31450W        W 3776  39.795  19.843  10.701
31451W        W 3777  10.363   6.222   1.745
31452W        W 3778  15.349  22.241  10.525
31453W        W 3779  41.375  20.965  10.754
31454W        W 3780  38.974   3.654   1.683
31455W        W 3781  28.940  37.738   2.253
31456W        W 3782  19.833  37.381   3.279
31457W        W 3783  31.152  38.453  10.610
31458W        W 3784  25.769  40.486  14.358
31459W        W 3785  27.065   6.672  11.428
31460W        W 3786  39.000  17.887   3.821
31461W        W 3787  10.578   0.745  11.976
31462W        W 3788  44.714  36.051   3.615
31463W        W 3789  21.721  13.837  10.955
31464W        W 3790  20.091  38.585   0.484
31465W        W 3791   5.687  25.241   3.198
31466W        W 3792  19.731  39.585  13.674
31467W        W 3793  27.272  30.393  13.775
31468W        W 3794   4.608  38.235  11.893
31469W        W 3795   4.444  18.771   1.036
31470W        W 3796  40.869  29.731   3.232
31471W        W 3797  40.745  31.013  13.928
31472W        W 3798  31.185  24.516   1.749
31473W        W 3799  44.455  41.356   1.934
31474W        W 3800  44.476  41.954   4.103
31475W        W 3801  33.245   2.327   4.275
31476W        W 3802  17.145  28.049  14.887
31477W        W 3803  41.382  18.684   1.377
31478W        W 3804  23.945   9.950   2.971
31479W        W 3805  24.351  22.442   3.355
31480W        W 3806  22.663  18.801  13.852
31481W        W 3807  23.980   3.227   1.228
31482W        W 3808  40.462   9.138   2.301
31483W        W 3809  26.618  41.685  11.567
31484W        W 3810  22.219  14.941   1.734
31485W        W 3811  37.415  14.847   3.886
31486W        W 3812  26.582  44.197   3.596
31487W        W 3813  33.185  29.997   0.889
31488W        W 3814   1.759  21.268   1.707
31489W        W 3815  16.121  33.139  12.613
31490W        W 3816  44.722  40.411  12.979
31491W        W 3817  21.281   5.411  12.191
31492W        W 3818  36.967  43.951   0.432
31493W        W 3819   6.001  36.439  14.309
31494W        W 3820  25.151  30.398   4.296
31495W        W 3821  39.262  43.677  11.543
31496W        W 3822  31.398  26.748  11.043
31497W        W 3823   8.689  10.750   3.343
31498W        W 3824  42.464  18.966   3.147
31499W        W 3825  24.262  11.189  14.261
31500W        W 3826  28.374  18.502  11.489
31501W        W 3827  23.932  35.926  12.402
31502W        W 3828  10.214   8.792  12.871
31503W        W 3829  27.309   0.856   0.638
31504W        W 3830  14.770  18.165  14.110
31505W        W 3831  42.460  15.310   4.930
31506W        W 3832  13.803   8.619  11.581
31507W        W 3833  30.045  15.131   1.747
31508W        W 3834  32.779  26.699  11.485
31509W        W 3835  11.762   6.225  11.939
31510W        W 3836  30.573   3.063   0.719
31511W        W 3837  27.521  12.775  13.146
31512W        W 3838  43.232  41.000   1.694
31513W        W 3839   9.079  35.039   4.793
31514W        W 3840  39.170  38.912   3.826
31515W        W 3841  26.943  25.735   4.308
31516W        W 3842  25.008  20.767   4.821
31517W        W 3843  17.284  28.634   1.228
31518W        W 3844  25.004   8.465  12.928
31519W        W 3845  10.574  30.034  14.826
31520W        W 3846  18.739  17.834   3.811
31521W        W 3847  12.842  39.067  11.582
31522W        W 3848  12.658  38.835  14.367
31523W        W 3849  28.688   0.953  14.323
31524W        W 3850  22.124  23.040  10.631
31525W        W 3851  36.382  37.851   2.410
31526W        W 3852  19.387   5.747  12.107
31527W        W 3853  10.911  32.494  12.479
31528W        W 3854  21.433   4.937  12.033
31529W        W 3855  26.437  33.617   4.173
31530W        W 3856  40.183  31.663  12.842
31531W        W 3857   8.423   2.195  14.345
31532W        W 3858  35.939  10.111  12.541
31533W        W 3859   9.791  41.818  12.349
31534W        W 3860  42.804   4.836  10.690
31535W        W 3861  40.092  29.157  12.881
31536W        W 3862  11.417  42.280  14.846
31537W        W 3863  18.843  23.660  10.361
31538W        W 3864  41.534   2.438  11.032
31539W        W 3865  40.326  15.671   1.337
31540W        W 3866  15.856  25.138   0.453
31541W        W 3867  44.533   6.681   4.494
31542W        W 3868  20.244   9.054   3.275
31543W        W 3869  12.223   8.478   3.777
31544W        W 3870  23.800  33.438   0.979
31545W        W 3871  43.461  34.116  13.399
31546W        W 3872   3.351  26.269   1.600
31547W        W 3873  12.176  35.130  11.077
31548W        W 3874  35.904  35.174   4.666
31549W        W 3875   0.403  29.356  14.115
31550W        W 3876  13.407  26.507  12.335
31551W        W 3877  10.241   1.539   4.466
31552W        W 3878  29.428  22.062  10.929
31553W        W 3879  23.903   4.369  11.899
31554W        W 3880  16.123  13.234   4.414
31555W        W 3881   1.917  37.434   2.733
31556W        W 3882  44.395  19.995   4.525
31557W        W 3883   9.228  39.121  11.999
31558W        W 3884  12.339  19.874   4.138
31559W        W 3885  32.451  12.644  12.928
31560W        W 3886   4.759  21.766  13.990
31561W        W 3887  40.898   7.542  12.451
31562W        W 3888  42.817  31.044  11.225
31563W        W 3889  22.617  14.251   2.300
31564W        W 3890  15.736  42.758  10.732
31565W        W 3891   3.367  30.749   0.827
31566W        W 3892  41.427  44.748   2.146
31567W        W 3893   6.740  15.639  12.417
31568W        W 3894  39.591   9.254   0.434
31569W        W 3895   8.457  40.915   1.278
31570W        W 3896  41.366   9.509   0.554
31571W        W 3897  42.234  27.362  11.485
31572W        W 3898   6.300  21.049   4.263
31573W        W 3899  37.320  15.365   3.685
31574W        W 3900  14.113  35.193  11.012
31575W        W 3901   5.523  26.395  14.483
31576W        W 3902  37.442  30.871   0.726
31577W        W 3903  11.630  31.198   3.012
31578W        W 3904  12.079  35.623  12.458
31579W        W 3905  29.212  12.760   3.793
31580W        W 3906  38.336  14.057  12.124
31581W        W 3907  34.081  30.999   0.807
31582W        W 3908  20.746   0.874  13.572
31583W        W 3909  18.144   9.037  11.962
31584W        W 3910  21.175  43.785   3.672
31585W        W 3911  23.152  12.858   2.880
31586W        W 3912  14.280  13.288   3.729
31587W        W 3913  40.789  17.924  11.440
31588W        W 3914  11.808  23.957  12.413
31589W        W 3915  11.151  16.485  11.924
31590W        W 3916  19.226  10.142   0.958
31591W        W 3917  34.409  15.571   0.047
31592W        W 3918  15.668  12.889  12.075
31593W        W 3919  40.789   9.860  11.469
31594W        W 3920  33.523   6.441  13.825
31595W        W 3921   1.750  13.180   0.984
31596W        W 3922  26.784   0.842  14.347
31597W        W 3923  21.279   5.385   2.278
31598W        W 3924  24.761  15.752   3.048
31599W        W 3925  31.375  33.871  14.759
31600W        W 3926  38.543  20.663  14.238
31601W        W 3927   3.857   1.496   1.905
31602W        W 3928  11.418   4.454  13.500
31603W        W 3929   8.612  18.141  13.614
31604W        W 3930   1.229   3.613   3.249
31605W        W 3931  20.595  40.330  11.484
31606W        W 3932   4.631  16.165  12.170
31607W        W 3933  15.063  11.735   1.526
31608W        W 3934  36.871   2.481   4.054
31609W        W 3935  16.686  20.961  14.009
31610W        W 3936  35.204  41.080  10.679
31611W        W 3937  12.392  11.744  14.320
31612W        W 3938  33.162  38.836   3.314
31613W        W 3939   7.671  24.865   4.332
31614W        W 3940  15.624  32.649   4.534
31615W        W 3941  34.616   3.293   3.823
31616W        W 3942   5.579  31.856   0.736
31617W        W 3943   6.785  25.873   4.658
31618W        W 3944  31.181   2.203  11.040
31619W        W 3945  41.397  31.589   3.140
31620W        W 3946  28.632  26.581  12.101
31621W        W 3947   1.856  18.668   3.586
31622W        W 3948   3.993   4.017  11.622
31623W        W 3949   4.544   4.459  10.376
31624W        W 3950  25.049  24.457   0.828
31625W        W 3951   9.860  21.963   1.987
31626W        W 3952   3.056   5.506  10.611
31627W        W 3953  22.641  20.714   3.907
31628W        W 3954  26.660  18.180  13.117
31629W        W 3955   2.778  29.879   2.142
31630W        W 3956  32.633  19.752  11.605
31631W        W 3957   6.951  15.215   2.693
31632W        W 3958  41.905   6.864   0.874
31633W        W 3959  33.825  29.011   2.969
31634W        W 3960  30.677  27.448  13.963
31635W        W 3961  44.852   6.402   3.354
31636W        W 3962  41.260   3.419  12.123
31637W        W 3963  22.256  13.776  11.029
31638W        W 3964  29.365  26.267  14.094
31639W        W 3965  23.294   1.374   1.685
31640W        W 3966  44.455  29.434  11.907
31641W        W 3967  19.542  29.531   0.730
31642W        W 3968   3.595  30.321   4.567
31643W        W 3969  15.792   7.537   2.298
31644W        W 3970  42.931  11.436   3.315
31645W        W 3971  10.847  22.326  13.952
31646W        W 3972   6.455  42.765   3.211
31647W        W 3973  21.586   7.747  11.567
31648W        W 3974  41.364  41.403   4.621
31649W        W 3975  30.151   5.159   2.352
31650W        W 3976   9.422  23.932   1.371
31651W        W 3977  40.373  41.234  11.630
31652W        W 3978   3.371  17.036  10.518
31653W        W 3979   2.482  42.791  11.457
31654W        W 3980   2.773  30.594   2.385
31655W        W 3981  18.259   1.905   2.788
31656W        W 3982  32.444  38.422  12.122
31657W        W 3983  23.799  37.515   0.136
31658W        W 3984  24.895  43.386  14.879
31659W        W 3985  28.083   8.251   3.908
31660W        W 3986  20.999  12.886  12.788
31661W        W 3987  23.251   5.103   0.381
31662W        W 3988  17.032  19.785   0.163
31663W        W 3989  11.704  38.449   1.315
31664W        W 3990   7.395  40.882   4.547
31665W        W 3991   3.243  40.893   4.488
31666W        W 3992  24.263  15.263  14.393
31667W        W 3993   6.921   8.557  13.327
31668W        W 3994   4.303  36.689  12.979
31669W        W 3995  24.086  26.051   3.595
31670W        W 3996  13.576  17.820   1.941
31671W        W 3997  35.006  22.787  14.106
31672W        W 3998  10.294  26.258   4.999
31673W        W 3999  23.726  24.322  12.278
31674W        W 4000   0.218  21.861  11.531
31675W        W 4001  20.817   0.775   4.603
31676W        W 4002  34.541  23.345   1.371
31677W        W 4003   0.694  41.420  12.851
31678W        W 4004  11.192  18.395  11.158
31679W        W 4005  14.139  34.065  13.308
31680W        W 4006   3.842   6.432   0.206
31681W        W 4007  26.145  27.064  12.375
31682W        W 4008  41.073   7.440   0.979
31683W        W 4009  18.643  24.429   1.710
31684W        W 4010  25.118   2.209  11.656
31685W        W 4011  20.152  44.717  12.575
31686W        W 4012  38.812  12.259   0.718
31687W        W 4013   0.921  38.561  12.016
31688W        W 4014  29.206  15.586  11.202
31689W        W 4015  30.523  11.096   3.539
31690W        W 4016  13.296   7.900  12.383
31691W        W 4017  17.358   4.507   2.250
31692W        W 4018  23.549  14.230  12.957
31693W        W 4019  31.310  21.580  11.912
31694W        W 4020   6.370  17.121  12.081
31695W        W 4021  40.333   8.471   4.671
31696W        W 4022  11.872  43.329   3.712
31697W        W 4023   4.274  37.439  11.657
31698W        W 4024   9.712  29.012   1.016
31699W        W 4025   6.198  27.103   3.727
31700W        W 4026  22.102  27.957  10.435
31701W        W 4027  32.319  15.395  12.070
31702W        W 4028   9.912   3.386   3.661
31703W        W 4029  10.796  35.155  14.288
31704W        W 4030  21.140  37.397  13.010
31705W        W 4031  11.363   8.892   2.718
31706W        W 4032  37.451  19.052   0.653
31707W        W 4033  38.565  32.502   2.227
31708W        W 4034  39.881  27.692   3.658
31709W        W 4035  36.260  18.743  14.836
31710W        W 4036  13.299   3.789  11.802
31711W        W 4037  33.204  16.394   0.214
31712W        W 4038  18.221  28.708   4.713
31713W        W 4039  42.908  37.290   4.062
31714W        W 4040  40.640  35.891   3.484
31715W        W 4041   0.259  30.848  11.891
31716W        W 4042  36.070  16.208   3.286
31717W        W 4043  30.548  10.630   3.259
31718W        W 4044   7.690  27.146   3.663
31719W        W 4045   4.362  11.083  10.587
31720W        W 4046   5.325  19.808   0.373
31721W        W 4047  25.422  26.172  12.569
31722W        W 4048  16.654  23.423  10.882
31723W        W 4049  24.217  33.069   1.795
31724W        W 4050  43.749  28.705   3.282
31725W        W 4051  35.818  30.451   1.291
31726W        W 4052  20.122  24.213   4.378
31727W        W 4053   8.653   1.773   0.173
31728W        W 4054   7.463  29.410  14.270
31729W        W 4055  17.304  38.633   2.876
31730W        W 4056  41.219  19.147  12.482
31731W        W 4057  14.056  13.569   0.896
31732W        W 4058  30.061  32.557   0.440
31733W        W 4059   5.748  28.073  11.680
31734W        W 4060  16.275  17.549  12.992
31735W        W 4061  44.786  22.691  10.696
31736W        W 4062  33.434   0.455   0.735
31737W        W 4063   3.128  38.521   0.715
31738W        W 4064   5.805  27.235   4.051
31739W        W 4065  37.482  30.068  12.557
31740W        W 4066  22.470   5.690  13.366
31741W        W 4067  43.236  13.636   1.532
31742W        W 4068  16.721  10.551  13.030
31743W        W 4069   4.396  28.936   1.789
31744W        W 4070  23.970   1.405  12.505
31745W        W 4071  12.191  32.648  13.833
31746W        W 4072  42.615  17.562   1.963
31747W        W 4073  38.946  14.883   2.686
31748W        W 4074  36.555   9.328   1.659
31749W        W 4075  16.072  38.840  12.844
31750W        W 4076  17.309  42.533  12.976
31751W        W 4077   9.399  23.049  10.642
31752W        W 4078  30.883  22.084   4.259
31753W        W 4079  29.422  37.532   2.202
31754W        W 4080  36.501  23.018  12.500
31755W        W 4081   4.866  37.798   3.373
31756W        W 4082  17.142  22.220  12.938
31757W        W 4083  36.090  30.183  14.504
31758W        W 4084   2.264   2.488  11.852
31759W        W 4085  22.254  41.502   3.877
31760W        W 4086  13.228  26.016   1.806
31761W        W 4087  38.870  12.351  10.200
31762W        W 4088   6.413  44.033   4.593
31763W        W 4089  32.291  10.671  13.942
31764W        W 4090   2.175  17.833   2.602
31765W        W 4091  38.763   3.920  12.548
31766W        W 4092   6.962   3.685   1.730
31767W        W 4093  34.958  13.909  11.301
31768W        W 4094  36.526   1.059  13.822
31769W        W 4095   0.456  10.672  10.927
31770W        W 4096  15.223  42.753   4.143
31771W        W 4097  32.597  36.650  14.307
31772W        W 4098  17.054   5.315  11.223
31773W        W 4099  13.280   5.382   0.981
31774W        W 4100   5.611  29.954   3.353
31775W        W 4101  15.634  34.808  10.229
31776W        W 4102  34.881   9.554  14.707
31777W        W 4103   4.201   9.541  14.933
31778W        W 4104   1.813  28.199  10.465
31779W        W 4105  13.285  43.268  13.527
31780W        W 4106   2.433  36.022  14.948
31781W        W 4107  44.349  35.168   2.354
31782W        W 4108  37.848  12.096  11.999
31783W        W 4109  11.283  42.854   2.393
31784W        W 4110  24.625   8.845  14.423
31785W        W 4111   0.997  24.985   1.730
31786W        W 4112   7.566  37.984   0.721
31787W        W 4113   8.885  44.421   3.290
31788W        W 4114   5.601  21.044   2.228
31789W        W 4115   0.190  21.298   2.421
31790W        W 4116  19.931  15.116  13.394
31791W        W 4117  42.418  38.180   3.330
31792W        W 4118  36.849  24.725  11.748
31793W        W 4119  18.266  23.741  14.305
31794W        W 4120  39.023  30.971  14.265
31795W        W 4121   9.310  28.917   1.310
31796W        W 4122  24.225   0.833   4.702
31797W        W 4123  35.355   5.350   4.606
31798W        W 4124  23.967  38.104   5.113
31799W        W 4125   4.442   4.538  14.188
31800W        W 4126  16.726  18.127  11.456
31801W        W 4127  39.293   3.557  14.307
31802W        W 4128   9.574   2.419   2.799
31803W        W 4129   5.927  33.002   3.114
31804W        W 4130  24.114   8.677  14.976
31805W        W 4131  23.146   2.965  13.811
31806W        W 4132  34.925  30.195   1.191
31807W        W 4133   4.818  32.695  12.497
31808W        W 4134  33.148  39.483   1.746
31809W        W 4135  27.161  33.538   3.113
31810W        W 4136  26.197  23.077   1.301
31811W        W 4137  18.664  29.542   1.259
31812W        W 4138  28.718  38.627   1.494
31813W        W 4139   5.204  22.138   4.808
31814W        W 4140  33.683  11.333  10.086
31815W        W 4141   5.977  11.323   1.873
31816W        W 4142  10.324   1.717  14.561
31817W        W 4143  23.557  24.827  12.203
31818W        W 4144   3.370  17.052   1.621
31819W        W 4145  28.456  15.985   2.633
31820W        W 4146  15.448  28.348   4.133
31821W        W 4147  23.633  22.819   0.427
31822W        W 4148  29.075   7.193   4.136
31823W        W 4149   2.625  35.267   5.209
31824W        W 4150  19.545  41.209  13.007
31825W        W 4151  32.095  32.953   3.437
31826W        W 4152  12.672  15.983   3.303
31827W        W 4153  22.992  37.432   2.338
31828W        W 4154   1.253  10.119   0.479
31829W        W 4155   2.538   5.939  10.108
31830W        W 4156  22.783  40.035   1.488
31831W        W 4157  44.909  34.010  14.583
31832W        W 4158   9.096  36.494   2.414
31833W        W 4159  32.046  37.959  11.552
31834W        W 4160  23.700  42.330   3.820
31835W        W 4161  29.949  23.681  12.053
31836W        W 4162  23.243   5.758   4.198
31837W        W 4163   2.432  10.127   3.195
31838W        W 4164  11.750  31.145  10.980
31839W        W 4165  32.521   5.171   3.197
31840W        W 4166  32.701  27.101   0.508
31841W        W 4167  23.225  40.467   9.690
31842W        W 4168   3.818   8.826  10.274
31843W        W 4169   9.788  42.328   4.592
31844W        W 4170   7.098  37.626   4.534
31845W        W 4171  27.732  26.838  11.547
31846W        W 4172  17.877   7.803   3.746
31847W        W 4173   6.755   5.861  11.133
31848W        W 4174  37.315  32.405  13.330
31849W        W 4175  37.958  26.071   4.538
31850W        W 4176  11.350  33.828  14.371
31851W        W 4177  31.207  22.559   1.013
31852W        W 4178  18.796   5.190  12.037
31853W        W 4179  37.388  31.436   3.248
31854W        W 4180  26.089  26.280   0.267
31855W        W 4181  17.320  43.868  13.771
31856W        W 4182  30.676   9.394   1.862
31857W        W 4183  31.854  42.762  11.172
31858W        W 4184  23.021  16.123  10.153
31859W        W 4185   1.477  12.946   2.568
31860W        W 4186  38.828   4.705   4.108
31861W        W 4187   7.923  12.933   0.848
31862W        W 4188  31.438  32.964  10.957
31863W        W 4189  16.566  31.149   0.834
31864W        W 4190  26.039  13.196  13.138
31865W        W 4191  28.031  29.903   1.232
31866W        W 4192  29.459  29.651   0.317
31867W        W 4193  29.704   0.768  14.474
31868W        W 4194  17.117  17.373   5.056
31869W        W 4195   7.142  14.683  12.406
31870W        W 4196  43.709  24.972  12.588
31871W        W 4197  28.654  39.140   2.737
31872W        W 4198   5.347  11.335  12.139
31873W        W 4199  14.874  36.033   5.496
31874W        W 4200  10.737  31.052   1.767
31875W        W 4201  24.917  32.686  11.192
31876W        W 4202  44.001   0.304   4.143
31877W        W 4203  18.441  34.303   3.245
31878W        W 4204  33.889   1.375   0.347
31879W        W 4205   3.305   2.652  10.773
31880W        W 4206  23.658   2.849  14.488
31881W        W 4207   8.171  40.389  13.032
31882W        W 4208  27.201  12.755   1.908
31883W        W 4209   4.108  29.230   0.427
31884W        W 4210   3.749  10.945   0.175
31885W        W 4211  14.152  10.140  11.582
31886W        W 4212  13.362  14.224  10.280
31887W        W 4213   5.903  41.955  12.023
31888W        W 4214  35.455  32.962   4.222
31889W        W 4215  38.041  38.884  12.970
31890W        W 4216  13.122  18.559  12.897
31891W        W 4217  25.329  40.782   2.148
31892W        W 4218  28.514  28.257  13.380
31893W        W 4219  15.694   1.268   4.613
31894W        W 4220   6.471  40.755  14.281
31895W        W 4221   7.683   0.421   3.739
31896W        W 4222   1.717  40.912  14.014
31897W        W 4223   0.858  33.855  14.495
31898W        W 4224   5.158   2.317   4.659
31899W        W 4225  13.394   7.830   2.276
31900W        W 4226   2.413  25.366  13.922
31901W        W 4227   2.769  38.056  12.003
31902W        W 4228   4.709  29.412  10.754
31903W        W 4229  42.712   9.042   0.776
31904W        W 4230  14.607  33.125   0.750
31905W        W 4231  12.500  34.475  12.457
31906W        W 4232  32.575  41.985  14.874
31907W        W 4233   4.903  22.297  11.076
31908W        W 4234  38.907   7.215  11.439
31909W        W 4235  39.367   0.219  11.349
31910W        W 4236  25.182  41.114   1.785
31911W        W 4237  23.948  40.617   1.255
31912W        W 4238  32.959  26.256  14.954
31913W        W 4239  38.507  26.217  13.930
31914W        W 4240  40.349  28.242  12.078
31915W        W 4241   6.806  35.169   1.271
31916W        W 4242  40.982   7.947   3.520
31917W        W 4243  27.488  34.293  12.470
31918W        W 4244  27.651  28.237  13.353
31919W        W 4245  14.598  17.657  10.715
31920W        W 4246  16.988  19.779  13.213
31921W        W 4247   2.994  44.249   1.130
31922W        W 4248  34.100   1.975  13.349
31923W        W 4249  12.608  42.497  12.874
31924W        W 4250  29.106  21.747   4.326
31925W        W 4251  14.569   1.996  12.511
31926W        W 4252   3.732  14.131  12.070
31927W        W 4253  13.177  12.366  14.011
31928W        W 4254  35.867  17.687   2.309
31929W        W 4255  27.453  27.051   1.446
31930W        W 4256  17.327   6.369   1.321
31931W        W 4257  25.533  43.458  13.458
31932W        W 4258  23.552  37.923   1.754
31933W        W 4259  15.401  10.823   4.307
31934W        W 4260  34.841  29.683   4.493
31935W        W 4261  20.461   7.687  14.531
31936W        W 4262   9.788  28.202  13.538
31937W        W 4263  34.673  14.539  14.261
31938W        W 4264  17.781   9.123  13.151
31939W        W 4265  10.906  32.379   2.840
31940W        W 4266   8.896  19.351  11.692
31941W        W 4267  36.895  19.023  11.966
31942W        W 4268  38.590  40.862  12.049
31943W        W 4269  22.005   3.213   2.298
31944W        W 4270  31.390  38.793   3.701
31945W        W 4271  10.676  32.390  10.634
31946W        W 4272  42.340  15.140  14.599
31947W        W 4273  33.862   1.831   1.639
31948W        W 4274  22.242  22.642  10.977
31949W        W 4275  10.316  18.104   2.195
31950W        W 4276   0.673  30.490  10.485
31951W        W 4277  32.404  23.294  13.711
31952W        W 4278  35.973   1.949  14.822
31953W        W 4279  37.605  20.972  12.582
31954W        W 4280  12.708  17.751  13.011
31955W        W 4281  42.070   6.835  10.658
31956W        W 4282   3.770  42.617   0.649
31957W        W 4283  18.633   3.260   4.538
31958W        W 4284  26.281   3.108  10.592
31959W        W 4285   9.379   1.165   3.533
31960W        W 4286  21.559  37.654   3.175
31961W        W 4287  29.299  35.666  10.703
31962W        W 4288  42.539  36.355  14.919
31963W        W 4289  36.889   8.332   4.511
31964W        W 4290  43.447  31.187   1.166
31965W        W 4291  23.431  17.729   4.051
31966W        W 4292  36.498  22.867  14.899
31967W        W 4293  12.633   0.817  12.913
31968W        W 4294  44.518  41.381   2.834
31969W        W 4295  12.029  10.408   0.874
31970W        W 4296  36.851   9.784   3.233
31971W        W 4297   6.315  31.661  12.488
31972W        W 4298  38.482  33.133  12.619
31973W        W 4299  10.680  23.122   1.467
31974W        W 4300  42.358   8.119   4.559
31975W        W 4301  28.123  36.666  14.031
31976W        W 4302   1.490  21.545   3.717
31977W        W 4303   2.373  37.796   2.307
31978W        W 4304  40.754  11.336   1.682
31979W        W 4305   3.833   5.149  12.652
31980W        W 4306  19.084  40.848  11.000
31981W        W 4307  16.093  24.102   1.735
31982W        W 4308  33.591   3.392   3.081
31983W        W 4309  14.333  39.904   2.424
31984W        W 4310   3.260  32.021   1.794
31985W        W 4311  29.728  15.249   3.119
31986W        W 4312  23.044  33.685  11.493
31987W        W 4313  14.144  43.906   2.664
31988W        W 4314  17.565  15.170   3.263
31989W        W 4315  25.988  13.756   2.323
31990W        W 4316  26.939   8.343  12.066
31991W        W 4317  13.877  28.003  12.714
31992W        W 4318  28.576  10.214   2.410
31993W        W 4319  15.264  32.426   1.565
31994W        W 4320  16.867  32.554  12.762
31995W        W 4321  19.613   0.914  11.183
31996W        W 4322  24.749  17.966  11.131
31997W        W 4323   5.935  29.438   2.160
31998W        W 4324   7.410  34.054  14.932
31999W        W 4325  21.260  38.032  11.087
32000W        W 4326  40.008   6.820  11.900
32001W        W 4327  24.128  39.007   1.024
32002W        W 4328  14.190  24.900   1.044
32003W        W 4329  21.507  18.318   1.739
32004W        W 4330  15.101   2.771  14.371
32005W        W 4331  32.173   8.640  12.098
32006W        W 4332  42.396  21.736   1.461
32007W        W 4333  40.730  12.067   4.660
32008W        W 4334  27.575  15.287  10.708
32009W        W 4335   1.259   8.699   3.268
32010W        W 4336  18.624  26.139   3.649
32011W        W 4337  16.213  25.516  11.170
32012W        W 4338  18.808  19.448   4.037
32013W        W 4339   9.552  14.933  13.109
32014W        W 4340  15.271  29.187   1.949
32015W        W 4341   6.426  32.906   0.355
32016W        W 4342   1.483  41.403   1.677
32017W        W 4343   2.316  22.687   4.916
32018W        W 4344  37.639  13.276   2.769
32019W        W 4345  42.051  15.048  12.365
32020W        W 4346  42.315  16.575   2.455
32021W        W 4347  40.766  41.465   3.780
32022W        W 4348  27.257  13.278  10.745
32023W        W 4349   0.857   7.532   2.773
32024W        W 4350   3.100   4.565   9.925
32025W        W 4351  22.348   4.678  12.591
32026W        W 4352  27.735  42.494   3.677
32027W        W 4353  28.897  12.397   3.169
32028W        W 4354   1.811  21.032  11.081
32029W        W 4355  19.416   3.193  13.384
32030W        W 4356  25.018  38.677  12.537
32031W        W 4357  17.344   7.178   1.228
32032W        W 4358  17.932  41.832   1.187
32033W        W 4359  36.080  40.689   4.707
32034W        W 4360  22.785  35.470   4.079
32035W        W 4361  40.003  13.847  10.904
32036W        W 4362  21.693  25.576   0.301
32037W        W 4363   4.805   0.755   3.736
32038W        W 4364   7.093  15.224   2.173
32039W        W 4365  10.711  16.050  14.094
32040W        W 4366  18.269  30.357  12.811
32041W        W 4367  11.536  31.568   2.655
32042W        W 4368  25.160  15.590   3.844
32043W        W 4369   7.568   0.847  14.067
32044W        W 4370  35.337   9.837  13.386
32045W        W 4371   2.683   7.814   4.148
32046W        W 4372  31.542  20.260   1.157
32047W        W 4373  35.699   0.480  11.238
32048W        W 4374  16.342  28.448  14.899
32049W        W 4375  42.346  20.332   3.581
32050W        W 4376  32.942  23.173   1.655
32051W        W 4377  43.392  32.901  13.083
32052W        W 4378  38.726  37.998  12.982
32053W        W 4379  40.825  15.349   2.157
32054W        W 4380  18.458  14.038  14.517
32055W        W 4381   3.130  41.076   0.746
32056W        W 4382   0.697   6.618   4.558
32057W        W 4383  16.698  37.480  11.369
32058W        W 4384  35.103  31.126  12.448
32059W        W 4385  28.219  15.061   3.200
32060W        W 4386  11.982  11.533  11.508
32061W        W 4387   3.388  12.906   0.338
32062W        W 4388  18.584  32.935   4.939
32063W        W 4389   1.019   7.691   0.503
32064W        W 4390  27.452  35.164   2.236
32065W        W 4391  27.376   5.709  11.112
32066W        W 4392  25.137  30.660  11.168
32067W        W 4393  30.667  28.901   0.484
32068W        W 4394  43.061  15.689   4.420
32069W        W 4395  16.081   3.414  11.667
32070W        W 4396  40.118  16.261   1.210
32071W        W 4397  43.155  16.223  14.395
32072W        W 4398  29.723   2.409  11.134
32073W        W 4399  14.841  27.558  11.936
32074W        W 4400  41.404   4.213  13.522
32075W        W 4401  30.247  41.566   0.459
32076W        W 4402  36.469  40.301   4.079
32077W        W 4403  24.567  42.533  10.622
32078W        W 4404  17.402  15.883   2.257
32079W        W 4405   0.231   6.458   4.699
32080W        W 4406  43.025  26.847  11.180
32081W        W 4407  10.377  22.069  12.053
32082W        W 4408   2.983   2.005  12.758
32083W        W 4409  33.361  12.240  10.524
32084W        W 4410  28.024  10.643   4.752
32085W        W 4411  26.080   7.182   3.440
32086W        W 4412  35.431   6.641   2.074
32087W        W 4413   6.708   2.758  12.340
32088W        W 4414  24.494  20.712   0.717
32089W        W 4415  19.552   2.394   2.838
32090W        W 4416  31.341  32.923   3.773
32091W        W 4417   1.255  34.378  14.000
32092W        W 4418   0.673  24.781   0.106
32093W        W 4419  42.619  44.948   1.975
32094W        W 4420  21.077  38.870   3.876
32095W        W 4421   8.891  11.084  12.465
32096W        W 4422  30.119   0.883  11.906
32097W        W 4423  40.536   4.291  11.678
32098W        W 4424   9.161  16.281   3.410
32099W        W 4425  11.652  37.966   1.102
32100W        W 4426  20.980  33.152  12.542
32101W        W 4427  39.861  25.202   3.701
32102W        W 4428  35.070  33.194  14.791
32103W        W 4429  12.082  37.043   5.329
32104W        W 4430   7.761  37.714  12.129
32105W        W 4431  14.191  40.440  14.022
32106W        W 4432  10.338  14.763  14.400
32107W        W 4433   3.755  20.000  13.877
32108W        W 4434  14.227  28.851  11.607
32109W        W 4435   1.988  40.332  10.593
32110W        W 4436   8.261   4.674   2.816
32111W        W 4437   4.813   0.722   1.293
32112W        W 4438  19.512  20.156  10.637
32113W        W 4439  10.686  14.361  14.960
32114W        W 4440  36.908   8.369   2.873
32115W        W 4441  40.239  28.810   4.114
32116W        W 4442  17.468  22.979   3.160
32117W        W 4443  40.960  20.259  14.544
32118W        W 4444  39.998  11.759  11.093
32119W        W 4445  15.564   0.928  13.388
32120W        W 4446  28.130   0.880   2.804
32121W        W 4447  33.030  18.787  12.978
32122W        W 4448  29.721  41.761   3.736
32123W        W 4449  32.648  17.822  12.821
32124W        W 4450   9.934  42.510  14.447
32125W        W 4451  21.312  41.427   4.952
32126W        W 4452  44.461  24.801   1.335
32127W        W 4453   7.207   5.699  11.400
32128W        W 4454  12.149  44.979  12.126
32129W        W 4455  44.671  38.211  14.510
32130W        W 4456   1.828   2.889  13.427
32131W        W 4457   4.199   4.264   0.138
32132W        W 4458  39.331  32.131  14.103
32133W        W 4459  23.473  29.513  13.945
32134W        W 4460   2.354  25.688   0.917
32135W        W 4461   4.354   3.456  10.996
32136W        W 4462  17.463  44.765  11.233
32137W        W 4463  17.852  26.102   4.322
32138W        W 4464   4.435   8.702   2.793
32139W        W 4465  12.055  15.665  12.649
32140W        W 4466  19.703  20.114  11.605
32141W        W 4467   7.280   1.491  14.769
32142W        W 4468  25.490  14.731  11.647
32143W        W 4469   2.665  17.220   0.488
32144W        W 4470  12.399  44.197  12.349
32145W        W 4471  19.117  40.144  12.674
32146W        W 4472  36.591  13.104  13.514
32147W        W 4473  40.767  22.213  11.154
32148W        W 4474  36.800  37.290   2.227
32149W        W 4475  39.819  40.538  11.043
32150W        W 4476  32.918  17.219  13.361
32151W        W 4477  23.760  11.217   3.255
32152W        W 4478   5.891  41.633  12.589
32153W        W 4479  42.847  21.026  14.917
32154W        W 4480  28.508  30.381  14.368
32155W        W 4481  29.973  41.960   1.815
32156W        W 4482  12.568  22.674   2.173
32157W        W 4483   7.445  26.158   4.618
32158W        W 4484  41.341  28.441   2.283
32159W        W 4485  30.522  25.739  13.609
32160W        W 4486   4.054  29.737   0.501
32161W        W 4487   3.652  19.159  12.018
32162W        W 4488  12.607   2.899   1.726
32163W        W 4489  13.815   3.687  11.107
32164W        W 4490  14.282  21.970  11.559
32165W        W 4491  21.850  37.909   2.772
32166W        W 4492  41.969  24.328  10.733
32167W        W 4493   2.928  11.425   9.890
32168W        W 4494  23.709  16.336   4.164
32169W        W 4495  27.098   5.729   1.277
32170W        W 4496  19.681  39.970  11.123
32171W        W 4497   6.929  33.001   0.360
32172W        W 4498  23.061  15.913   0.286
32173W        W 4499  44.843  34.222  11.530
32174W        W 4500  15.229   0.319  11.546
32175W        W 4501   3.453  40.497  13.917
32176W        W 4502  39.960  24.705   3.735
32177W        W 4503  20.150  10.618  10.421
32178W        W 4504  12.272  19.063  14.000
32179W        W 4505   6.093   2.314   3.184
32180W        W 4506  17.238  40.411  11.377
32181W        W 4507  42.674  10.869   1.315
32182W        W 4508   5.180  16.203  13.557
32183W        W 4509   0.756   9.655  13.796
32184W        W 4510  30.182   9.284  14.367
32185W        W 4511   2.727  13.357   4.051
32186W        W 4512  44.443   4.259  10.321
32187W        W 4513   1.917  41.769   4.395
32188W        W 4514   8.615  17.076  10.689
32189W        W 4515  40.745  18.572   4.385
32190W        W 4516   3.791  22.810   0.382
32191W        W 4517   7.332   7.276   3.160
32192W        W 4518   1.791  35.363   3.371
32193W        W 4519  14.866  15.257   2.736
32194W        W 4520  17.082  12.794  12.306
32195W        W 4521  41.430   7.232  14.097
32196W        W 4522   0.977  20.645  12.897
32197W        W 4523  19.181  24.737  12.217
32198W        W 4524  10.278   7.969  12.418
32199W        W 4525  17.250  35.624  10.791
32200W        W 4526  43.914   4.859   2.430
32201W        W 4527  32.865  23.077  14.785
32202W        W 4528   3.788  12.652   4.616
32203W        W 4529  42.297   0.506  11.156
32204W        W 4530   9.600   4.735   0.869
32205W        W 4531  28.694   4.995   2.838
32206W        W 4532  13.837  27.997   0.969
32207W        W 4533  16.987  21.121  14.395
32208W        W 4534  28.936   7.930   3.698
32209W        W 4535  30.156  18.685   1.774
32210W        W 4536   9.846  29.931   2.424
32211W        W 4537  20.698  26.792  11.985
32212W        W 4538  22.089   5.165   0.867
32213W        W 4539  28.205   0.909  11.608
32214W        W 4540  18.266  17.304   4.847
32215W        W 4541   3.325  20.481   0.429
32216W        W 4542  25.017  40.205  12.101
32217W        W 4543  44.494  12.800  14.023
32218W        W 4544  35.066  16.575  14.171
32219W        W 4545   3.438   1.027   2.769
32220W        W 4546  38.973   0.229  12.614
32221W        W 4547  24.063  17.726  10.742
32222W        W 4548  18.988   2.700   3.772
32223W        W 4549  20.201  18.323   2.402
32224W        W 4550  10.255  16.037  13.807
32225W        W 4551  39.654   6.122  11.685
32226W        W 4552  15.903  19.937  12.663
32227W        W 4553   8.830  14.723  14.263
32228W        W 4554  20.276  18.307  11.529
32229W        W 4555   6.734   8.350  10.705
32230W        W 4556   5.580   7.760  11.995
32231W        W 4557  21.341  43.281   3.664
32232W        W 4558  10.153  30.288   2.669
32233W        W 4559  13.447  16.617   2.400
32234W        W 4560  10.272  38.950   2.607
32235W        W 4561  32.095   4.933  13.167
32236W        W 4562  44.109  26.878   3.714
32237W        W 4563  42.862  21.005   3.711
32238W        W 4564   4.903  26.454   1.096
32239W        W 4565  31.891   5.472  13.384
32240W        W 4566  43.441  36.681  11.152
32241W        W 4567  27.577  12.297  12.926
32242W        W 4568  39.476  41.116   2.895
32243W        W 4569  39.073  24.912  10.714
32244W        W 4570   6.187  28.036  13.765
32245W        W 4571  10.950  27.692  13.383
32246W        W 4572  23.367   7.670   0.061
32247W        W 4573  27.612  15.114  12.872
32248W        W 4574   5.988  30.019  11.036
32249W        W 4575  25.121  24.030  13.010
32250W        W 4576  43.032  12.777   0.373
32251W        W 4577   8.259  34.173  13.732
32252W        W 4578  22.600  29.970   3.337
32253W        W 4579  18.655  16.584  10.748
32254W        W 4580  37.077  41.545   0.782
32255W        W 4581  43.635  15.466   2.372
32256W        W 4582  39.805   5.910  10.546
32257W        W 4583  30.996  34.139  14.967
32258W        W 4584  26.310  39.795  12.778
32259W        W 4585   0.493   4.601   1.232
32260W        W 4586  12.192  24.143  12.057
32261W        W 4587  11.134  35.558   0.868
32262W        W 4588   4.864  20.731   2.862
32263W        W 4589  42.379  43.949   4.904
32264W        W 4590  31.470   0.158   2.560
32265W        W 4591   2.008  13.271  13.061
32266W        W 4592  40.810  17.445   1.398
32267W        W 4593   7.784  17.070   4.513
32268W        W 4594  26.240   7.398  14.934
32269W        W 4595  24.001  14.170   9.899
32270W        W 4596  39.921   1.872   3.190
32271W        W 4597  28.645  34.921  12.986
32272W        W 4598  13.133  40.089  14.757
32273W        W 4599   6.373  10.136  14.025
32274W        W 4600  40.539  39.485   3.499
32275W        W 4601  12.843  19.326  11.184
32276W        W 4602  23.533   4.111  14.193
32277W        W 4603  14.104  23.558  13.010
32278W        W 4604  12.810  16.313   1.906
32279W        W 4605   7.298   3.300   1.939
32280W        W 4606   3.722  16.363   1.197
32281W        W 4607   0.952   2.494  13.770
32282W        W 4608  17.211  25.095  14.819
32283W        W 4609  34.455  12.698   0.027
32284W        W 4610   4.003  11.435  10.432
32285W        W 4611   0.352  15.550  12.894
32286W        W 4612  23.279  35.494   1.360
32287W        W 4613  16.088   7.347   1.899
32288W        W 4614  23.664   3.689  13.847
32289W        W 4615  27.409  43.323   4.140
32290W        W 4616  44.263  37.493   2.916
32291W        W 4617   6.436  14.678   1.680
32292W        W 4618  23.032  40.910  11.438
32293W        W 4619  21.662  30.886   0.967
32294W        W 4620  20.252  33.601  13.048
32295W        W 4621  16.728  14.612  12.415
32296W        W 4622  31.179   9.780  12.149
32297W        W 4623  23.888  11.685  14.021
32298W        W 4624   4.896  12.350   4.038
32299W        W 4625   4.730  34.972   3.143
32300W        W 4626  44.335   5.686  10.441
32301W        W 4627  15.643   9.405   1.382
32302W        W 4628   5.704  29.581   4.056
32303W        W 4629  24.456  13.734  14.954
32304W        W 4630  29.175   9.787   3.544
32305W        W 4631  40.024  33.113  12.831
32306W        W 4632   9.842  14.352   2.722
32307W        W 4633  11.305  11.389  10.955
32308W        W 4634  23.830  39.314   4.491
32309W        W 4635   4.262  14.007   3.222
32310W        W 4636  33.972  11.515   3.677
32311W        W 4637  27.347  11.748   2.822
32312W        W 4638  13.123  41.775   0.706
32313W        W 4639   4.182  34.313  11.882
32314W        W 4640  36.707  35.990   3.786
32315W        W 4641  37.378  17.537  14.918
32316W        W 4642  11.850  40.989  13.898
32317W        W 4643  21.963  38.432   1.785
32318W        W 4644  37.808  40.587   1.821
32319W        W 4645  35.641  31.362   1.925
32320W        W 4646  27.452  26.605  11.027
32321W        W 4647  33.686  21.920   1.943
32322W        W 4648  13.552  28.098  11.139
32323W        W 4649  39.512  21.069  11.183
32324W        W 4650  15.344  23.131   0.748
32325W        W 4651   1.743  22.421  10.937
32326W        W 4652  33.547  32.933  14.368
32327W        W 4653   4.894  19.892   4.247
32328W        W 4654   5.478  18.037   0.310
32329W        W 4655  20.648   9.770  14.558
32330W        W 4656   4.197  43.314  10.681
32331W        W 4657  15.304  19.607  11.168
32332W        W 4658  30.606  11.872   0.584
32333W        W 4659  42.037   5.872   2.785
32334W        W 4660  25.260  34.976   0.603
32335W        W 4661  31.462  24.583  12.725
32336W        W 4662  38.138  35.822  12.926
32337W        W 4663  28.567   3.314  13.853
32338W        W 4664  44.762  25.295   1.169
32339W        W 4665  16.163  35.353   1.356
32340W        W 4666   2.709  37.871   3.624
32341W        W 4667  30.110  44.462  10.575
32342W        W 4668  41.302  10.036   1.424
32343W        W 4669   4.995  44.960  11.972
32344W        W 4670  31.061  33.537  11.547
32345W        W 4671  36.479  22.731   9.881
32346W        W 4672  24.020  27.744   4.588
32347W        W 4673  30.407  41.942   3.183
32348W        W 4674   0.510  34.728  12.931
32349W        W 4675  23.104  23.227   1.246
32350W        W 4676  13.084  43.518   1.220
32351W        W 4677  39.325   2.886   0.388
32352W        W 4678  36.665  20.459  13.788
32353W        W 4679  14.550   3.408  11.616
32354W        W 4680   9.571  20.733   4.195
32355W        W 4681  33.458   9.391  10.254
32356W        W 4682   2.512  30.112   4.971
32357W        W 4683  11.080  44.544  10.730
32358W        W 4684   9.545  30.978  11.928
32359W        W 4685  19.014   8.176  13.018
32360W        W 4686   8.162  26.737  14.979
32361W        W 4687  14.110  27.454  10.616
32362W        W 4688  30.294   2.249   3.308
32363W        W 4689  38.350  12.211  10.730
32364W        W 4690   4.377  35.831  14.824
32365W        W 4691  29.368  40.909   4.236
32366W        W 4692  11.827  10.700  11.107
32367W        W 4693  37.045  37.542   1.729
32368W        W 4694  21.279   0.745  12.502
32369W        W 4695   2.750   8.718   4.633
32370W        W 4696  12.262  29.143   4.419
32371W        W 4697  36.841  18.005   4.558
32372W        W 4698   2.902  40.525  14.814
32373W        W 4699  18.264  40.476  13.023
32374W        W 4700   0.498  15.681   1.855
32375W        W 4701  22.883  17.626  10.194
32376W        W 4702  32.524  12.558   3.072
32377W        W 4703  19.234   9.441  13.568
32378W        W 4704  10.864  22.511   1.989
32379W        W 4705  34.054  27.470   2.799
32380W        W 4706  32.025  16.878   0.749
32381W        W 4707  42.738  37.844  14.857
32382W        W 4708  19.796  40.917   0.906
32383W        W 4709  28.248  37.422   1.362
32384W        W 4710  10.616  21.109   1.695
32385W        W 4711  11.184  32.333   2.403
32386W        W 4712  37.425   6.417   4.651
32387W        W 4713  30.441   6.927  14.497
32388W        W 4714  35.055   4.956  11.634
32389W        W 4715  21.103  42.781  14.367
32390W        W 4716  15.365   6.156  11.510
32391W        W 4717  37.474  17.602   0.422
32392W        W 4718  10.296  26.535  10.126
32393W        W 4719   5.469  22.631   9.868
32394W        W 4720  44.247  39.561  11.458
32395W        W 4721  36.870  24.746  11.224
32396W        W 4722  17.558  13.472  14.355
32397W        W 4723  42.791  23.891  12.749
32398W        W 4724   7.778  24.510  12.937
32399W        W 4725  27.160   3.144   0.280
32400W        W 4726  29.943   7.206  11.644
32401W        W 4727  14.212  42.208  14.008
32402W        W 4728  11.129   9.432   3.583
32403W        W 4729  33.128  14.781   0.043
32404W        W 4730  22.660  35.533   1.765
32405W        W 4731   6.352  25.691   3.754
32406W        W 4732  41.337   4.670  14.752
32407W        W 4733  17.131  33.334   2.804
32408W        W 4734  38.589  36.871   2.956
32409W        W 4735   9.251  34.638  11.164
32410W        W 4736  35.663  10.693   1.809
32411W        W 4737  18.268   2.990  10.682
32412W        W 4738   7.829  10.622   4.100
32413W        W 4739  19.657  22.070  12.883
32414W        W 4740  12.420  29.754  11.572
32415W        W 4741  26.364  35.541  11.181
32416W        W 4742   1.676  32.991  14.378
32417W        W 4743  10.144   3.547  10.328
32418W        W 4744  12.415   0.722   1.458
32419W        W 4745  36.562  37.411   1.761
32420W        W 4746  14.698  18.187   0.454
32421W        W 4747  21.537  37.241  12.695
32422W        W 4748  22.747  38.616  12.873
32423W        W 4749  11.801  22.525  14.942
32424W        W 4750   5.723  31.958  13.806
32425W        W 4751  39.922  35.145  10.980
32426W        W 4752   4.022  13.265   1.427
32427W        W 4753  33.362  16.095  14.814
32428W        W 4754  30.171   2.881  13.381
32429W        W 4755  12.422   6.955  12.149
32430W        W 4756   7.693  14.070   4.604
32431W        W 4757   0.256   2.938  12.366
32432W        W 4758  17.675  12.605  14.575
32433W        W 4759  16.564  37.846  13.234
32434W        W 4760  38.004  16.026  14.382
32435W        W 4761  12.214  36.182   4.342
32436W        W 4762  20.817  14.507   5.074
32437W        W 4763  14.525   4.891  14.425
32438W        W 4764  14.254  12.282  14.606
32439W        W 4765  19.668  19.524   4.325
32440W        W 4766  34.582  40.617   4.475
32441W        W 4767  35.489  24.717  13.332
32442W        W 4768   8.189   0.537   2.931
32443W        W 4769  38.645  35.790  12.938
32444W        W 4770  35.870  23.961  14.216
32445W        W 4771  40.371  41.896   2.782
32446W        W 4772  41.455  15.376  13.973
32447W        W 4773  16.524  15.040   1.819
32448W        W 4774   1.493  44.470  13.783
32449W        W 4775  38.551  27.886   4.599
32450W        W 4776   1.285  40.977  14.516
32451W        W 4777   5.180  25.024  11.674
32452W        W 4778   1.487  25.183  10.992
32453W        W 4779  23.683  23.183  14.446
32454W        W 4780  10.696  31.641   3.350
32455W        W 4781  12.679  26.948  13.577
32456W        W 4782  21.054  10.753  12.324
32457W        W 4783  28.128  33.502   3.279
32458W        W 4784  33.698   0.264  12.233
32459W        W 4785  27.488  14.601   2.911
32460W        W 4786  38.804  13.581   1.002
32461W        W 4787  34.522  44.040   4.547
32462W        W 4788  36.924  39.030  13.601
32463W        W 4789  41.667   8.731   1.669
32464W        W 4790  38.951  24.880  11.509
32465W        W 4791  19.062  32.219   3.275
32466W        W 4792  28.329  37.844  13.621
32467W        W 4793  18.080  40.032   1.421
32468W        W 4794  17.014  31.002   2.378
32469W        W 4795  33.304  35.605   5.167
32470W        W 4796  38.000  24.918  11.246
32471W        W 4797  20.300   9.059   2.335
32472W        W 4798  25.702  33.640   1.093
32473W        W 4799  34.497  33.119   1.113
32474W        W 4800  24.003  42.087  13.720
32475W        W 4801  44.418  24.549  11.524
32476W        W 4802  44.143  27.140  13.446
32477W        W 4803  28.320  20.009   4.204
32478W        W 4804   7.593  31.883   0.288
32479W        W 4805  23.699   6.988   4.587
32480W        W 4806  39.525  21.555   0.049
32481W        W 4807   3.235  38.553  12.587
32482W        W 4808  22.598  17.472  11.331
32483W        W 4809  28.216  40.572   0.453
32484W        W 4810   0.819  37.645  11.623
32485W        W 4811  14.801  29.008  11.580
32486W        W 4812  37.074  42.431   3.651
32487W        W 4813  12.835  21.316   4.290
32488W        W 4814  32.471   5.677  12.002
32489W        W 4815  40.729  36.968   1.182
32490W        W 4816  27.687  20.749  14.331
32491W        W 4817  39.279  32.621   0.271
32492W        W 4818  18.815   0.824  11.004
32493W        W 4819   8.989   0.798  14.478
32494W        W 4820  12.237   0.467   4.049
32495W        W 4821  15.253   9.365  14.884
32496W        W 4822  33.771   3.407   4.038
32497W        W 4823  20.083  18.850   5.125
32498W        W 4824  28.618   7.212   4.401
32499W        W 4825  14.009  24.678  13.263
32500W        W 4826  30.487  12.299   0.939
32501W        W 4827  44.905   9.916  14.026
32502W        W 4828  17.690   2.757   1.444
32503W        W 4829  43.726  30.659   2.236
32504W        W 4830   9.260  38.450   2.118
32505W        W 4831  31.377  29.197   2.303
32506W        W 4832   9.775  17.739   5.016
32507W        W 4833   3.910  37.200   1.731
32508W        W 4834  11.145  30.868   1.391
32509W        W 4835  26.858  27.535   0.806
32510W        W 4836  10.761   6.689   1.041
32511W        W 4837   7.453   4.727  12.388
32512W        W 4838   8.934   6.638   4.581
32513W        W 4839  38.330   4.384   2.593
32514W        W 4840  42.802  22.292  14.349
32515W        W 4841  30.267  41.457   2.472
32516W        W 4842  44.195  36.076   3.580
32517W        W 4843   9.746  33.395   4.365
32518W        W 4844  25.401  42.467   0.536
32519W        W 4845   2.289  36.294   4.127
32520W        W 4846  43.578  32.039   1.149
32521W        W 4847  27.349  15.395  12.371
32522W        W 4848  19.009  29.008   1.683
32523W        W 4849  16.575  35.350   3.212
32524W        W 4850   8.712  22.273  11.627
32525W        W 4851  38.592  30.368  13.781
32526W        W 4852  28.389   6.850   1.454
32527W        W 4853  32.971  40.332   2.118
32528W        W 4854  12.627  33.961   1.344
32529W        W 4855   4.306  18.087  13.146
32530W        W 4856  19.296  24.973  11.692
32531W        W 4857  44.746  34.845  14.820
32532W        W 4858   1.865  18.895  12.671
32533W        W 4859  13.404  36.479  11.188
32534W        W 4860  28.935   2.924   4.786
32535W        W 4861  43.473  23.748  14.911
32536W        W 4862   9.302  40.341  12.400
32537W        W 4863  37.721   8.133  12.537
32538W        W 4864   5.310   7.308   0.511
32539W        W 4865   9.920   6.305  14.878
32540W        W 4866   6.138  17.007  11.645
32541W        W 4867  27.649  29.412   3.605
32542W        W 4868   2.311  33.500  10.608
32543W        W 4869  41.831  16.242   0.973
32544W        W 4870  32.514  41.572  10.747
32545W        W 4871  19.464  22.917   4.318
32546W        W 4872  14.051  11.915   5.017
32547W        W 4873  25.994  21.934  14.948
32548W        W 4874  38.338   6.944  14.923
32549W        W 4875  22.965  14.103  13.989
32550W        W 4876  10.909   5.742   0.573
32551W        W 4877  27.474  41.740   4.074
32552W        W 4878  23.328  10.719  11.839
32553W        W 4879  21.149  37.252  14.985
32554W        W 4880  23.184  13.845   0.379
32555W        W 4881  16.702   5.554   2.261
32556W        W 4882   3.731  16.271  13.460
32557W        W 4883  42.334   6.454  14.926
32558W        W 4884  19.566   9.704   2.974
32559W        W 4885  39.462  16.344  11.664
32560W        W 4886  25.877  31.009   3.421
32561W        W 4887   7.173  12.312   4.723
32562W        W 4888  20.469  19.103  11.658
32563W        W 4889   6.693  16.117  14.839
32564W        W 4890  12.345  44.819  13.023
32565W        W 4891  12.308   0.976   2.278
32566W        W 4892  34.820  35.897   0.672
32567W        W 4893  13.532   1.398   1.585
32568W        W 4894  11.384   0.060  12.085
32569W        W 4895   1.959  43.346   2.134
32570W        W 4896   6.304  34.276   0.216
32571W        W 4897  23.040  42.504  11.747
32572W        W 4898  34.174  32.675  12.893
32573W        W 4899  41.823  18.599  13.834
32574W        W 4900   0.021  35.394  14.905
32575W        W 4901  33.626  25.693   0.802
32576W        W 4902  10.249  35.110  11.085
32577W        W 4903  44.273  40.279  12.085
32578W        W 4904  34.831  25.452   5.014
32579W        W 4905  17.484   5.881   1.238
32580W        W 4906   0.053  29.563   0.715
32581W        W 4907   9.151  13.331   0.328
32582W        W 4908  38.384   9.151   1.590
32583W        W 4909  23.176  42.528   2.031
32584W        W 4910   4.432  31.661  14.065
32585W        W 4911   5.715  26.161  11.066
32586W        W 4912  42.978  40.994   4.690
32587W        W 4913  24.648  42.904   0.988
32588W        W 4914  31.214  17.325  14.499
32589W        W 4915  23.569   1.949   2.277
32590W        W 4916  28.485  11.750   1.420
32591W        W 4917  44.086  17.498   1.482
32592W        W 4918   0.312  11.265  14.974
32593W        W 4919   6.645  28.295   0.212
32594W        W 4920  16.457   4.998  14.744
32595W        W 4921   7.944  43.364  14.803
32596W        W 4922   2.318   5.745  11.444
32597W        W 4923  38.789  42.895   2.660
32598W        W 4924  30.193  22.208   0.879
32599W        W 4925  22.047  32.134   2.328
32600W        W 4926  10.232   5.759  12.424
32601W        W 4927  18.069  21.878  11.200
32602W        W 4928  18.548  14.267  10.781
32603W        W 4929  31.949   6.812  11.198
32604W        W 4930   5.379  22.107  11.163
32605W        W 4931   9.879   3.625  12.505
32606W        W 4932   3.982  33.433  13.487
32607W        W 4933  25.152  44.404  12.117
32608W        W 4934  38.127  27.110   3.569
32609W        W 4935  40.407  13.530   0.635
32610W        W 4936  22.203  14.353   4.678
32611W        W 4937  41.222  39.537  13.396
32612W        W 4938  35.885  27.245  11.610
32613W        W 4939  35.297  21.245   2.263
32614W        W 4940  43.293  39.606   4.626
32615W        W 4941  15.144  29.380   4.767
32616W        W 4942  16.780  36.554  12.524
32617W        W 4943   1.273  26.087  13.915
32618W        W 4944  15.788  37.028  14.074
32619W        W 4945  27.047  32.101  10.976
32620W        W 4946   0.030  13.610  13.473
32621W        W 4947  28.606  14.227   0.860
32622W        W 4948  32.765  11.424   1.797
32623W        W 4949  25.155   1.197  10.730
32624W        W 4950  21.644  37.333   4.519
32625W        W 4951  42.962   7.827  14.874
32626W        W 4952  16.559  10.153  10.231
32627W        W 4953  22.319   5.817  11.544
32628W        W 4954   1.436   7.138   3.738
32629W        W 4955   2.543  20.350  13.415
32630W        W 4956  24.782  39.926   4.502
32631W        W 4957  32.395  41.856   0.339
32632W        W 4958   3.077  27.249  11.162
32633W        W 4959  41.459  23.498  13.077
32634W        W 4960   0.753  22.526   4.720
32635W        W 4961   1.736  13.811  13.993
32636W        W 4962  20.042  40.663  14.734
32637W        W 4963   3.199  38.100   4.482
32638W        W 4964  10.337  25.489   2.904
32639W        W 4965  11.069  37.616   5.061
32640W        W 4966   3.432  43.293  14.454
32641W        W 4967  15.327  30.487   2.484
32642W        W 4968  43.453   5.813  12.016
32643W        W 4969   3.319  38.283  13.005
32644W        W 4970  36.090  37.986   0.699
32645W        W 4971  18.330  25.284  11.545
32646W        W 4972  34.019  22.647  13.963
32647W        W 4973   8.728  10.509  10.169
32648W        W 4974   9.950  30.404   0.426
32649W        W 4975  39.333  25.440   0.695
32650W        W 4976  41.458  20.202   4.121
32651W        W 4977   4.395  18.034   0.431
32652W        W 4978  27.483  39.797  14.805
32653W        W 4979  26.714  40.063   1.269
32654W        W 4980  42.989  21.561  11.202
32655W        W 4981  16.805  43.484   1.825
32656W        W 4982   8.636  16.915  13.271
32657W        W 4983  36.330  22.069   3.352
32658W        W 4984  31.116  36.352   2.427
32659W        W 4985  14.916  28.651  10.277
32660W        W 4986  25.919   1.310  10.703
32661W        W 4987  41.555   1.805   1.930
32662W        W 4988  29.122  41.849  10.480
32663W        W 4989  35.688  29.878  14.353
32664W        W 4990   1.493  17.180  11.121
32665W        W 4991   7.216  22.573  12.503
32666W        W 4992  38.264  22.663   4.113
32667W        W 4993  43.270   1.417  11.971
32668W        W 4994  16.219  30.524   2.879
32669W        W 4995   7.432  35.680   1.558
32670W        W 4996  20.160  24.031   2.743
32671W        W 4997  12.238  43.802  13.696
32672W        W 4998  21.441  39.713   5.018
32673W        W 4999  19.389   7.411   1.469
32674W        W 5000  22.226   8.736   4.619
32675W        W 5001  37.688  22.272   3.469
32676W        W 5002  39.533  16.233   4.150
32677W        W 5003   4.119  10.195   2.410
32678W        W 5004  33.290  43.196  11.985
32679W        W 5005  35.524  15.363   0.930
32680W        W 5006  11.381   4.392   1.012
32681W        W 5007  12.277  23.883   9.731
32682W        W 5008  10.060  37.935   2.287
32683W        W 5009  19.899  27.250  13.526
32684W        W 5010  30.021  43.515   3.755
32685W        W 5011  31.528   8.239   0.364
32686W        W 5012  27.192  31.733   0.598
32687W        W 5013  23.958   2.256  11.620
32688W        W 5014   2.787   6.340   0.617
32689W        W 5015  12.352  15.029   1.837
32690W        W 5016   3.269  23.969   3.621
32691W        W 5017  12.150   1.252   2.675
32692W        W 5018  33.996  44.536  13.394
32693W        W 5019  25.354  30.059  14.445
32694W        W 5020  16.661  27.920   3.194
32695W        W 5021   3.347  26.730   3.672
32696W        W 5022  17.258  12.843   0.366
32697W        W 5023  28.076   3.322   4.503
32698W        W 5024   3.553  25.911  11.772
32699W        W 5025  17.259  44.817  14.833
32700W        W 5026  30.831  40.956   4.049
32701W        W 5027  36.707  21.458   4.552
32702W        W 5028  44.797  20.338   3.662
32703W        W 5029  16.728  23.394   0.857
32704W        W 5030   1.889  42.808   4.301
32705W        W 5031  11.320  26.036  14.499
32706W        W 5032  31.494  27.209   4.149
32707W        W 5033  27.565  41.038   2.724
32708W        W 5034   9.333  23.260  13.029
32709W        W 5035  20.738  31.917   3.237
32710W        W 5036  27.982  36.438  13.570
32711W        W 5037   0.142  13.147   4.629
32712W        W 5038  15.169   2.341  11.656
32713W        W 5039  26.644   8.817   3.801
32714W        W 5040  36.096  42.573  14.236
32715W        W 5041  11.881  36.546  11.132
32716W        W 5042  24.102   3.850  11.025
32717W        W 5043  21.510  32.184  13.013
32718W        W 5044   0.941  42.209   0.924
32719W        W 5045   5.279  20.031   2.401
32720W        W 5046  23.272   5.132  11.101
32721W        W 5047  31.682  20.023  14.004
32722W        W 5048  31.688  23.468   0.579
32723W        W 5049  38.637  13.100   2.659
32724W        W 5050   7.950   7.283  13.834
32725W        W 5051  39.456  28.457  11.876
32726W        W 5052  18.134   0.834  14.888
32727W        W 5053  20.620  21.290   4.424
32728W        W 5054   5.725  43.604  13.541
32729W        W 5055  36.395  23.500   1.919
32730W        W 5056  11.259  27.355   5.065
32731W        W 5057  11.556  25.975   5.100
32732W        W 5058  38.583  15.593   3.381
32733W        W 5059  17.171  20.505   2.153
32734W        W 5060   6.709  18.101  12.124
32735W        W 5061  22.976   8.094  12.406
32736W        W 5062   9.821  44.911  11.554
32737W        W 5063  23.967   7.406  14.451
32738W        W 5064  23.371  20.314  12.458
32739W        W 5065  12.689   2.194  14.002
32740W        W 5066  20.971   2.754   4.023
32741W        W 5067  39.169  44.835   2.186
32742W        W 5068  24.591  41.296   3.688
32743W        W 5069  18.261  13.809   2.847
32744W        W 5070  37.433  36.769   0.199
32745W        W 5071  21.718   8.933  14.794
32746W        W 5072  38.777  29.424  13.020
32747W        W 5073   8.330  23.226  13.539
32748W        W 5074   4.119   2.422   4.128
32749W        W 5075  23.749  29.736  11.396
32750W        W 5076  14.557  22.735   0.705
32751W        W 5077   5.770  44.311   2.822
32752W        W 5078   8.493  38.254  13.819
32753W        W 5079   7.092  40.527   0.466
32754W        W 5080  18.660  16.944  12.989
32755W        W 5081  31.861  32.439   0.200
32756W        W 5082  44.597  13.359   4.089
32757W        W 5083  11.729  27.023   0.737
32758W        W 5084  19.228  17.714  11.958
32759W        W 5085  44.928  37.896  12.118
32760W        W 5086  25.676  29.604  10.827
32761W        W 5087  20.970  14.892   3.320
32762W        W 5088  33.079  34.690   4.160
32763W        W 5089  39.062  13.786   0.592
32764W        W 5090   5.796  37.593  11.510
32765W        W 5091  19.032  16.547   0.013
32766W        W 5092  20.353   8.022  12.000
32767W        W 5093  13.381   8.289  11.606
32768W        W 5094   1.977  23.776  13.071
32769W        W 5095   1.446   8.968  10.577
32770W        W 5096  28.427  27.192   3.628
32771W        W 5097   7.972  43.742  12.819
32772W        W 5098   0.049  23.125   4.622
32773W        W 5099  19.658   6.123  13.013
32774W        W 5100   6.132  20.992   5.104
32775W        W 5101  38.317  16.553  12.984
32776W        W 5102  15.413  35.009   3.671
32777W        W 5103  15.833  18.972   3.175
32778W        W 5104  22.340   7.917  13.547
32779W        W 5105   9.340  29.953   0.730
32780W        W 5106  25.731  21.237   1.447
32781W        W 5107   7.673  11.892   3.505
32782W        W 5108  31.668  13.554   4.074
32783W        W 5109  40.443  13.378   1.139
32784W        W 5110  28.839  34.939  12.462
32785W        W 5111   7.620  10.189   3.192
32786W        W 5112  38.143  41.927  13.243
32787W        W 5113  41.485  35.538   0.755
32788W        W 5114  31.215  43.190  12.043
32789W        W 5115  44.993  15.240  14.280
32790W        W 5116  36.430   1.780   5.150
32791W        W 5117  41.950   3.489  10.749
32792W        W 5118  17.316  39.580  11.732
32793W        W 5119  14.738  15.315  11.205
32794W        W 5120  20.293  25.723   2.917
32795W        W 5121  39.424  32.443  10.830
32796W        W 5122  23.877  34.491  11.641
32797W        W 5123  31.957  20.141   1.474
32798W        W 5124  21.058   9.971  14.313
32799W        W 5125  29.156  31.155  10.992
32800W        W 5126  32.284  37.477  14.871
32801W        W 5127   0.313   8.167  10.668
32802W        W 5128   0.950  33.003   0.025
32803W        W 5129  37.308   7.258   2.167
32804W        W 5130  14.259  44.404  11.477
32805W        W 5131   1.939  20.995  10.129
32806W        W 5132  15.220  40.126  11.524
32807W        W 5133  44.888   0.547  14.627
32808W        W 5134   4.141   9.252  13.157
32809W        W 5135  18.083  23.651  10.948
32810W        W 5136  41.092  28.935   2.826
32811W        W 5137  35.946  19.924   1.033
32812W        W 5138  20.175  26.899   0.925
32813W        W 5139  26.212  23.897  14.842
32814W        W 5140   3.845  28.666   4.342
32815W        W 5141  37.419  34.050  11.288
32816W        W 5142   3.495  10.855   2.673
32817W        W 5143  44.972  32.991   3.623
32818W        W 5144  42.913  23.472   4.075
32819W        W 5145   4.489  40.877   2.111
32820W        W 5146  34.103  12.870   1.796
32821W        W 5147   9.981   0.285  10.694
32822W        W 5148  13.836  11.655   3.136
32823W        W 5149  28.546   7.214   1.809
32824W        W 5150   2.679  14.573  14.344
32825W        W 5151   2.969   2.457  12.464
32826W        W 5152   8.892   5.991  13.976
32827W        W 5153  31.261  31.407  11.224
32828W        W 5154  32.251  35.948  10.742
32829W        W 5155  38.797  43.749   2.196
32830W        W 5156   4.536  39.025   1.672
32831W        W 5157  33.601  11.096   4.313
32832W        W 5158  26.549  28.697   2.607
32833W        W 5159  28.564  11.143   0.957
32834W        W 5160  28.140  39.929  11.580
32835W        W 5161  22.025   2.017  13.825
32836W        W 5162  29.332  22.114  11.560
32837W        W 5163  26.570  20.513   1.311
32838W        W 5164  40.844  10.785  14.879
32839W        W 5165  38.018   5.203   3.228
32840W        W 5166  25.206  27.239   2.006
32841W        W 5167  37.616  15.335   2.705
32842W        W 5168  12.546  18.612   0.710
32843W        W 5169   7.790   3.267  11.058
32844W        W 5170  31.580   1.474   2.297
32845W        W 5171   5.398   1.845   2.733
32846W        W 5172  42.945  25.987  13.689
32847W        W 5173  25.462  19.613  14.039
32848W        W 5174  35.958  44.841   4.927
32849W        W 5175  19.504  24.793   1.298
32850W        W 5176  37.574  17.693   3.652
32851W        W 5177  14.586   1.475  13.034
32852W        W 5178  18.305  35.113   1.952
32853W        W 5179   1.484   2.551  14.874
32854W        W 5180  10.358  16.752  13.438
32855W        W 5181  14.932  13.465  12.438
32856W        W 5182  16.729  20.974   4.318
32857W        W 5183  10.391   0.433  13.400
32858W        W 5184  28.163  35.066  10.949
32859W        W 5185  39.729  24.214   2.698
32860W        W 5186   8.507   8.180   1.819
32861W        W 5187  19.539  13.765   3.801
32862W        W 5188  27.678  22.270  14.061
32863W        W 5189  16.910  30.112   2.894
32864W        W 5190  42.278  19.489   0.859
32865W        W 5191  20.384  31.894  11.631
32866W        W 5192  15.572  44.514   4.612
32867W        W 5193  44.901  24.275   2.310
32868W        W 5194   3.842  43.401   4.210
32869W        W 5195  36.842  13.899  10.106
32870W        W 5196  35.753  44.837  14.772
32871W        W 5197  17.263   3.651   3.809
32872W        W 5198  12.682  19.379  13.919
32873W        W 5199  31.447   7.128  14.790
32874W        W 5200   3.140  13.121  14.935
32875W        W 5201  38.337   3.256  11.515
32876W        W 5202  34.811  16.517  12.022
32877W        W 5203   4.949   5.871  12.977
32878W        W 5204  38.973  15.754  11.710
32879W        W 5205  37.916  12.824  10.200
32880W        W 5206  17.171  26.273   2.314
32881W        W 5207  12.180   4.367  13.905
32882W        W 5208  29.035  23.490  12.663
32883W        W 5209  33.340   9.356   3.775
32884W        W 5210  27.600  29.733   4.451
32885W        W 5211  24.049  23.291  10.983
32886W        W 5212  21.437  19.218  11.750
32887W        W 5213  42.000  11.994   0.741
32888W        W 5214  18.044  10.956  12.933
32889W        W 5215  33.113  36.469   0.312
32890W        W 5216  33.342  33.444  14.292
32891W        W 5217   6.325   8.081   2.180
32892W        W 5218  32.053   0.403  10.637
32893W        W 5219  14.741  32.836   0.323
32894W        W 5220   1.809   1.270  12.423
32895W        W 5221  15.025  26.900   0.155
32896W        W 5222  36.220  14.749   3.463
32897W        W 5223   6.199  12.808  14.811
32898W        W 5224   7.329  27.647  12.448
32899W        W 5225   6.790  38.303   0.519
32900W        W 5226  26.206  38.511  13.772
32901W        W 5227  33.057  20.660   1.002
32902W        W 5228  23.151  34.339   4.071
32903W        W 5229  39.810  11.589  11.539
32904W        W 5230  22.670   6.161  14.537
32905W        W 5231  15.080  42.502  14.061
32906W        W 5232  27.191  25.522  12.536
32907W        W 5233  36.475   3.000   2.781
32908W        W 5234  17.745  14.786   4.321
32909W        W 5235   7.740  38.070  11.746
32910W        W 5236   6.091  25.519   3.357
32911W        W 5237   0.431  22.570  13.370
32912W        W 5238  44.260  28.047  13.437
32913W        W 5239   9.371  23.814   3.212
32914W        W 5240  29.824  42.021  13.851
32915W        W 5241   3.676  27.273   4.110
32916W        W 5242   3.057  20.227   2.823
32917W        W 5243  19.790   4.256   4.130
32918W        W 5244  13.555  19.574   3.658
32919W        W 5245  24.639  30.905  10.956
32920W        W 5246  36.276  10.206   0.332
32921W        W 5247   2.363  26.921   4.116
32922W        W 5248   4.576  31.456   0.446
32923W        W 5249  23.936   9.694   1.845
32924W        W 5250  35.805   9.025  11.706
32925W        W 5251  23.155  34.990   4.709
32926W        W 5252  21.718  34.884   4.694
32927W        W 5253  10.862  26.935  10.869
32928W        W 5254  35.618   2.873  14.559
32929W        W 5255  44.431   7.227  10.732
32930W        W 5256   8.292  22.700   4.878
32931W        W 5257   7.834  30.850   2.697
32932W        W 5258  27.406  17.147   0.438
32933W        W 5259  27.227  16.721  10.680
32934W        W 5260  34.571  22.334  12.186
32935W        W 5261  20.171  40.497   4.509
32936W        W 5262  28.161  31.691   3.287
32937W        W 5263   7.555  18.223   0.199
32938W        W 5264   8.557  11.632   1.753
32939W        W 5265  40.954  35.198   1.349
32940W        W 5266  39.661  28.367  11.196
32941W        W 5267  13.246  35.182   1.165
32942W        W 5268  12.221   7.708  13.568
32943W        W 5269  24.810   2.784  10.727
32944W        W 5270   9.941  15.245  13.865
32945W        W 5271  40.441  38.471   1.332
32946W        W 5272  11.904  25.246   1.728
32947W        W 5273   9.940  31.106  10.557
32948W        W 5274   2.067   3.288   4.120
32949W        W 5275  25.407  37.597  12.986
32950W        W 5276  14.679  42.302   4.124
32951W        W 5277  20.812  22.291  11.574
32952W        W 5278   6.235  34.211  11.495
32953W        W 5279  41.482   4.772   3.254
32954W        W 5280  39.047  24.002   0.411
32955W        W 5281   1.936   2.599  13.834
32956W        W 5282  40.340  33.716  11.209
32957W        W 5283   4.239  11.145   4.184
32958W        W 5284  41.538  42.451   0.286
32959W        W 5285  42.332  37.481   0.018
32960W        W 5286  43.396  23.058   4.685
32961W        W 5287  37.868  43.719  13.299
32962W        W 5288  33.373  37.087   2.865
32963W        W 5289  39.311  30.632   2.299
32964W        W 5290  28.820  20.490   1.773
32965W        W 5291  29.685   8.740  13.968
32966W        W 5292  14.818  21.928   3.835
32967W        W 5293  39.988  38.400  14.326
32968W        W 5294   0.298  16.951   0.871
32969W        W 5295  11.582   8.169   4.069
32970W        W 5296  27.936  20.914  12.036
32971W        W 5297  19.088  44.215  11.679
32972W        W 5298   1.948  33.780  14.989
32973W        W 5299  38.757   6.244  12.829
32974W        W 5300  37.104  22.082  12.945
32975W        W 5301  33.016  25.450  11.136
32976W        W 5302  16.136  22.780   4.772
32977W        W 5303  32.980  10.967   3.076
32978W        W 5304  31.211   9.718  12.678
32979W        W 5305  33.145   2.938  10.683
32980W        W 5306   8.184  17.377  10.592
32981W        W 5307  27.185  11.309   1.279
32982W        W 5308  31.750  19.885  11.663
32983W        W 5309  44.920   1.453  12.192
32984W        W 5310  22.495  44.536   4.102
32985W        W 5311   0.540  25.770  12.781
32986W        W 5312   0.432  29.542   1.288
32987W        W 5313  36.826   6.622   2.385
32988W        W 5314  13.773  40.057   4.177
32989W        W 5315  27.452  29.146   1.032
32990W        W 5316   8.849  44.897   2.584
32991W        W 5317  37.485   6.964  12.402
32992W        W 5318  17.139  30.896   0.076
32993W        W 5319  19.684   6.970  10.378
32994W        W 5320  42.403   1.429   0.873
32995W        W 5321  40.351  18.434   1.908
32996W        W 5322  43.899  36.156   4.012
32997W        W 5323   8.478  20.017   1.959
32998W        W 5324   4.649  44.458  13.476
32999W        W 5325   2.141  15.743   4.635
33000W        W 5326  19.119   7.089  12.152
33001W        W 5327  24.776  15.708  12.333
33002W        W 5328  13.920   9.114  12.480
33003W        W 5329   1.447  18.348  14.921
33004W        W 5330  32.070  23.185  12.987
33005W        W 5331  13.689  16.791   2.839
33006W        W 5332   6.124  40.103   0.365
33007W        W 5333  39.330  16.630   4.454
33008W        W 5334  20.009  29.451  14.248
33009W        W 5335   1.685   3.267  11.546
33010W        W 5336   0.931  17.350  12.823
33011W        W 5337  24.154   2.197   1.517
33012W        W 5338   5.007   5.874   4.171
33013W        W 5339  15.381  22.700   3.198
33014W        W 5340  32.930  34.180   4.060
33015W        W 5341  20.784  19.713   4.585
33016W        W 5342  37.612   2.940  11.047
33017W        W 5343  23.739  29.007  10.753
33018W        W 5344  34.632   8.616  12.409
33019W        W 5345  18.252   7.844   0.178
33020W        W 5346  37.649  10.712   2.153
33021W        W 5347  24.123   7.410  12.399
33022W        W 5348  40.374  31.165  13.014
33023W        W 5349   8.750  16.650   0.248
33024W        W 5350   4.328  30.126  14.539
33025W        W 5351   0.237  14.353  11.979
33026W        W 5352  43.232  14.225  11.200
33027W        W 5353  42.878   7.448  12.951
33028W        W 5354  31.485  38.971  13.791
33029W        W 5355  30.113  31.147  12.121
33030W        W 5356   2.890  20.734  11.566
33031W        W 5357  10.615  16.454  13.774
33032W        W 5358  27.595  38.810  14.926
33033W        W 5359  40.356  36.945  12.982
33034W        W 5360  24.477  22.982  13.557
33035W        W 5361  21.130   5.701   1.857
33036W        W 5362   9.804  10.106   1.664
33037W        W 5363  44.763  38.926   4.128
33038W        W 5364  31.010  29.384   0.763
33039W        W 5365   0.884  26.638   1.312
33040W        W 5366   1.946  16.812   0.904
33041W        W 5367  34.894  16.354   2.833
33042W        W 5368  22.151  38.892   2.743
33043W        W 5369  19.586  29.911   2.595
33044W        W 5370  20.533  41.418   4.511
33045W        W 5371   8.927  44.772   0.466
33046W        W 5372   4.189   7.168   1.176
33047W        W 5373  38.280  23.049  11.107
33048W        W 5374   1.812  20.303   0.290
33049W        W 5375  14.838  24.680  11.175
33050W        W 5376   8.201  10.316  12.345
33051W        W 5377   5.640   4.128   3.530
33052W        W 5378  12.732  19.051   2.455
33053W        W 5379   5.947  38.395  10.579
33054W        W 5380  18.742   2.248  12.469
33055W        W 5381  36.142  10.443  14.872
33056W        W 5382  26.761  40.121  10.653
33057W        W 5383  24.041   3.933   2.907
33058W        W 5384  29.434  43.644   1.814
33059W        W 5385  20.395  22.735  14.196
33060W        W 5386  30.605  13.377   0.493
33061W        W 5387  39.884  17.133   1.276
33062W        W 5388  34.322  28.214   2.249
33063W        W 5389  25.627  30.913  11.216
33064W        W 5390  42.746   4.728  14.956
33065W        W 5391  24.370  28.751  11.207
33066W        W 5392  24.453  27.168  12.477
33067W        W 5393  35.385   0.201  14.874
33068W        W 5394  40.334  39.613  13.005
33069W        W 5395  14.251  16.045  14.798
33070W        W 5396   0.429  39.030  13.905
33071W        W 5397   0.266   7.408   1.238
33072W        W 5398  39.803   8.211  10.920
33073W        W 5399  29.533   7.250  11.958
33074W        W 5400  14.516  43.253   2.396
33075W        W 5401  42.318  13.162   1.430
33076W        W 5402   2.650  20.688   9.699
33077W        W 5403   7.767  43.738   1.257
33078W        W 5404  14.601   6.734   0.726
33079W        W 5405  36.323  28.953  12.433
33080W        W 5406  30.332  34.510   3.808
33081W        W 5407  22.187  43.028  12.073
33082W        W 5408  16.633   8.240  14.031
33083W        W 5409   2.760  10.541   4.768
33084W        W 5410   1.442  25.994  12.855
33085W        W 5411   9.267  33.209   1.651
33086W        W 5412  11.664  13.033  10.371
33087W        W 5413  31.536  28.892  10.582
33088W        W 5414  18.935  27.619  11.109
33089W        W 5415  38.073   4.158   4.570
33090W        W 5416   3.689   2.955   2.167
33091W        W 5417  23.200  37.904   2.384
33092W        W 5418   4.812  20.464  11.983
33093W        W 5419  23.949  17.178   2.322
33094W        W 5420   9.767  42.512   1.778
33095W        W 5421  44.594   5.201  11.909
33096W        W 5422  18.682  16.195   2.631
33097W        W 5423   8.455  19.133  14.807
33098W        W 5424  18.161  35.156  14.205
33099W        W 5425   6.738   7.958  14.144
33100W        W 5426  11.422  16.576  11.128
33101W        W 5427  36.088  23.939   4.118
33102W        W 5428  30.151  44.125  12.580
33103W        W 5429  36.312   2.781  13.881
33104W        W 5430  36.704  36.386   4.695
33105W        W 5431   0.994   5.314   1.336
33106W        W 5432  34.483  23.478  14.838
33107W        W 5433  25.389   4.810   0.615
33108W        W 5434   5.354  26.553   2.339
33109W        W 5435   2.444  25.903   3.239
33110W        W 5436  20.749  12.849  11.916
33111W        W 5437  36.080   5.428  12.168
33112W        W 5438  44.252  25.229   1.139
33113W        W 5439  14.055  39.967  14.812
33114W        W 5440  10.823  35.645  11.521
33115W        W 5441  36.057  31.137   0.740
33116W        W 5442  27.162  15.738  14.269
33117W        W 5443  43.992  40.820  11.935
33118W        W 5444  14.803   3.207   1.410
33119W        W 5445  37.771  39.292   3.024
33120W        W 5446  21.145   3.555  10.740
33121W        W 5447  42.678   8.792   3.132
33122W        W 5448  29.491  28.425   2.844
33123W        W 5449  17.835   7.683   1.517
33124W        W 5450  32.853  19.289  11.160
33125W        W 5451   3.459  25.048  11.894
33126W        W 5452  23.411  15.511   3.737
33127W        W 5453   3.360  44.201   0.303
33128W        W 5454  28.026  15.067  11.173
33129W        W 5455  18.781  25.295   1.335
33130W        W 5456  27.958  19.464   1.921
33131W        W 5457  16.261  34.120  12.062
33132W        W 5458  30.311  43.126  13.007
33133W        W 5459   6.161  29.723   0.372
33134W        W 5460  17.578  10.242   2.131
33135W        W 5461  26.643   4.249   2.122
33136W        W 5462  33.940  42.568   3.612
33137W        W 5463  12.931  16.258  11.285
33138W        W 5464  26.934  37.108  14.000
33139W        W 5465  36.028  28.568  13.505
33140W        W 5466  10.439  11.236  10.574
33141W        W 5467   6.661  16.064   1.112
33142W        W 5468   6.902  44.440  13.301
33143W        W 5469  10.112  37.360  13.487
33144W        W 5470  33.068  40.967   1.129
33145W        W 5471  26.479  44.314   1.263
33146W        W 5472  19.991  13.879   0.858
33147W        W 5473  35.192  35.865   3.649
33148W        W 5474   0.254  18.350   1.429
33149W        W 5475  43.310  27.481   0.102
33150W        W 5476   1.560   5.016   4.201
33151W        W 5477  21.940  38.890   5.448
33152W        W 5478   1.745   8.271  13.690
33153W        W 5479  18.567  15.551  12.451
33154W        W 5480  32.392   3.162  11.141
33155W        W 5481  36.465  26.190  11.015
33156W        W 5482   7.943  19.229   4.381
33157W        W 5483   4.421  25.101  12.164
33158W        W 5484  13.641   3.800  10.637
33159W        W 5485  14.227  20.784  13.991
33160W        W 5486   7.379  38.359   2.684
33161W        W 5487  35.507  38.047  14.908
33162W        W 5488   8.250   8.338   0.083
33163W        W 5489  30.534  27.565  11.464
33164W        W 5490  23.873  15.664   0.114
33165W        W 5491  29.022   0.353  11.189
33166W        W 5492  29.410  30.713   0.488
33167W        W 5493  30.535  16.222  10.656
33168W        W 5494  23.703  29.007  10.218
33169W        W 5495  26.777   8.808  11.965
33170W        W 5496  10.699  24.404   4.845
33171W        W 5497   5.334   2.438   3.200
33172W        W 5498  26.622  20.794   2.364
33173W        W 5499  35.490  22.204   3.926
33174W        W 5500  43.575  42.325   2.450
33175W        W 5501  12.788  25.248  11.168
33176W        W 5502  44.537  40.406  14.851
33177W        W 5503  14.366  40.334  11.620
33178W        W 5504  17.960   5.630  13.123
33179W        W 5505  36.996  13.355   2.395
33180W        W 5506  39.446   9.429   0.924
33181W        W 5507  23.318  28.295  12.909
33182W        W 5508  18.527  36.184   1.276
33183W        W 5509  25.439  34.425  13.319
33184W        W 5510  28.584  11.591  14.116
33185W        W 5511  21.300  44.860  14.808
33186W        W 5512  16.574  18.129   2.359
33187W        W 5513  27.959   9.433  12.055
33188W        W 5514  44.982   2.947   4.349
33189W        W 5515  26.158  11.909  11.982
33190W        W 5516  10.718  39.908   3.662
33191W        W 5517  43.964  15.573  12.814
33192W        W 5518  41.915  35.498   0.066
33193W        W 5519  16.843  18.219  12.870
33194W        W 5520  25.713  22.237  12.102
33195W        W 5521  28.497   3.423   5.063
33196W        W 5522  13.948  29.465   4.131
33197W        W 5523   9.037  32.570   4.676
33198W        W 5524   1.759  29.390  12.623
33199W        W 5525  10.319  27.295  14.734
33200W        W 5526  26.187   9.377   4.391
33201W        W 5527  20.214   3.753   1.322
33202W        W 5528  25.979  41.563  14.504
33203W        W 5529   0.445  10.729   5.091
33204W        W 5530  43.720  36.071  13.909
33205W        W 5531  33.040   8.722   4.251
33206W        W 5532  11.682  25.496   1.241
33207W        W 5533   3.729  33.851   4.231
33208W        W 5534  14.776   6.748   1.819
33209W        W 5535  34.962  11.535   5.128
33210W        W 5536  25.863  20.089   3.291
33211W        W 5537  24.709  21.167  14.014
33212W        W 5538  32.468   5.272  13.114
33213W        W 5539  23.721  39.761  11.175
33214W        W 5540  12.228  21.679   0.022
33215W        W 5541   7.653  41.452   1.417
33216W        W 5542  39.345   2.473   0.073
33217W        W 5543   3.879  36.801  12.431
33218W        W 5544   8.946   2.195   1.650
33219W        W 5545  21.125   3.778  14.979
33220W        W 5546  27.618  39.079   4.069
33221W        W 5547  39.073  18.182  12.054
33222W        W 5548  43.449   1.466  12.903
33223W        W 5549  25.958  21.365   5.091
33224W        W 5550   9.318  44.215  11.106
33225W        W 5551  14.022   4.353   0.215
33226W        W 5552   0.819   5.687   4.205
33227W        W 5553   0.686  44.397  11.571
33228W        W 5554   6.882   4.928   1.266
33229W        W 5555  17.178  13.332  12.960
33230W        W 5556  20.542  21.220  14.488
33231W        W 5557  27.096   9.627  12.963
33232W        W 5558   7.711  18.272   3.377
33233W        W 5559  40.812   6.249   2.372
33234W        W 5560  13.384   4.309   2.818
33235W        W 5561  32.164   0.529   1.342
33236W        W 5562  42.301   7.344   2.562
33237W        W 5563   6.133  27.494   2.862
33238W        W 5564  11.092   7.716  10.395
33239W        W 5565  33.530  34.780   1.302
33240W        W 5566  23.740  18.184  10.221
33241W        W 5567  27.474  17.331   2.338
33242W        W 5568  10.142   9.673   1.742
33243W        W 5569  22.469  16.681   0.823
33244W        W 5570  32.387  12.093   2.884
33245W        W 5571  29.443  23.387   0.701
33246W        W 5572  41.524  33.221  14.457
33247W        W 5573  26.951  14.539   1.252
33248W        W 5574   8.562  40.039  13.083
33249W        W 5575  33.311  28.527  14.958
33250W        W 5576  40.474  27.813  12.333
33251W        W 5577  12.397  30.638  13.055
33252W        W 5578  32.465  17.496   3.217
33253W        W 5579  36.539   0.293  14.288
33254W        W 5580  13.502  22.558  14.378
33255W        W 5581   0.513  39.976  13.122
33256W        W 5582  17.919  34.764   4.179
33257W        W 5583  13.936  36.923  10.511
33258W        W 5584  31.022  10.879  12.342
33259W        W 5585  18.134   1.776  10.607
33260W        W 5586   7.405  16.105  14.252
33261W        W 5587  10.333  44.182   5.046
33262W        W 5588  19.662  13.558   2.905
33263W        W 5589  28.053  19.629   0.831
33264W        W 5590  35.021   5.470  11.577
33265W        W 5591  29.824  16.189  11.184
33266W        W 5592  38.406  12.093   1.423
33267W        W 5593  17.028  39.051   2.714
33268W        W 5594  10.077   3.417  11.588
33269W        W 5595  41.622   9.112   3.891
33270W        W 5596   2.955  25.551  11.611
33271W        W 5597   1.895  14.338   0.516
33272W        W 5598  16.246  16.030  12.026
33273W        W 5599  15.291  32.684  13.839
33274W        W 5600   1.757  42.904  12.197
33275W        W 5601  41.251  34.946  14.005
33276W        W 5602  20.674  44.485  12.423
33277W        W 5603  31.741  35.445  13.990
33278W        W 5604  39.413  27.661  13.507
33279W        W 5605  26.426   7.527   3.672
33280W        W 5606   1.228  16.220   1.305
33281W        W 5607  25.135  17.719   0.387
33282W        W 5608  13.607  22.781  12.129
33283W        W 5609   6.559  13.776  13.333
33284W        W 5610  43.670  12.579  12.370
33285W        W 5611  38.913  41.433  11.177
33286W        W 5612  32.290  15.469  13.942
33287W        W 5613  20.116  25.568   1.111
33288W        W 5614   3.502  26.849  12.159
33289W        W 5615  30.304  43.549  10.999
33290W        W 5616  17.541  24.960  11.256
33291W        W 5617  37.758  10.370   3.444
33292W        W 5618  11.569  38.999  12.619
33293W        W 5619  14.858   0.665  14.701
33294W        W 5620   6.379  13.951   1.044
33295W        W 5621  17.061  23.066  14.283
33296W        W 5622   3.474  31.129  11.440
33297W        W 5623  36.469   2.470   2.762
33298W        W 5624  43.170  28.107   2.092
33299W        W 5625  24.463  36.998  13.737
33300W        W 5626  42.754  30.969  11.716
33301W        W 5627  20.137  27.621  13.874
33302W        W 5628  44.845   5.910  10.726
33303W        W 5629  40.090   8.189  14.531
33304W        W 5630  44.272  18.887   1.894
33305W        W 5631   6.586  35.536  12.425
33306W        W 5632  42.275  17.624   4.239
33307W        W 5633  20.683  12.773   3.589
33308W        W 5634   5.369   2.360  14.287
33309W        W 5635  13.206   6.883   1.242
33310W        W 5636   5.682  17.553   1.873
33311W        W 5637  35.137  32.917  13.350
33312W        W 5638  31.628  14.099  10.705
33313W        W 5639   8.236  11.877   1.377
33314W        W 5640  24.836  21.574   1.914
33315W        W 5641  20.731   4.521  12.393
33316W        W 5642  41.018  37.029  13.804
33317W        W 5643   2.663  14.431  12.323
33318W        W 5644  40.100  25.180  13.046
33319W        W 5645  21.370  36.931  11.825
33320W        W 5646  23.578  12.156   0.747
33321W        W 5647  26.915  35.460   4.627
33322W        W 5648  30.197  18.983  13.033
33323W        W 5649  16.063  30.136   1.026
33324W        W 5650   4.635  43.013   2.170
33325W        W 5651  24.680  36.240  12.148
33326W        W 5652  19.368  10.302   3.264
33327W        W 5653  28.102   1.951   3.094
33328W        W 5654  18.663  28.729   2.368
33329W        W 5655  23.539   0.484  13.047
33330W        W 5656  42.639  21.626  12.104
33331W        W 5657  37.654  38.059  14.483
33332W        W 5658   8.782  39.358   0.864
33333W        W 5659  31.897   1.289  14.881
33334W        W 5660   2.976   4.239  11.986
33335W        W 5661  35.852  36.116  10.449
33336W        W 5662  14.296  22.799   1.546
33337W        W 5663  44.387  36.721  10.567
33338W        W 5664  18.529  27.902  10.952
33339W        W 5665  30.103  21.680  11.495
33340W        W 5666  34.937  40.304  14.457
33341W        W 5667  38.567  31.567  11.571
33342W        W 5668  43.426  14.058  11.833
33343W        W 5669  42.531   9.695   2.715
33344W        W 5670  25.252  18.969  13.791
33345W        W 5671  41.853  32.589   4.227
33346W        W 5672  43.533   9.276  13.430
33347W        W 5673  23.347  29.172   3.269
33348W        W 5674  17.816   9.737   0.496
33349W        W 5675  42.664  14.316   4.670
33350W        W 5676  17.969  32.449   4.543
33351W        W 5677  17.151  22.497  12.478
33352W        W 5678   8.119   5.291  14.007
33353W        W 5679   1.503   5.239   1.593
33354W        W 5680  36.132  33.501  13.931
33355W        W 5681  37.098   7.208   4.162
33356W        W 5682  27.630  13.064  12.466
33357W        W 5683  32.702  43.064   4.075
33358W        W 5684   1.559  15.641  14.417
33359W        W 5685  17.363  29.393  14.208
33360W        W 5686   4.233  14.601   4.603
33361W        W 5687  28.819  25.044  13.664
33362W        W 5688  24.468   1.444   0.815
33363W        W 5689  12.139  20.657   2.379
33364W        W 5690  32.199  17.482  12.946
33365W        W 5691  14.727  26.544   3.807
33366W        W 5692  38.409  13.909   3.915
33367W        W 5693  23.491  13.228   4.425
33368W        W 5694  21.261  33.434  11.814
33369W        W 5695  33.637  40.875   0.841
33370W        W 5696  16.368  31.088  13.957
33371W        W 5697  25.451  33.797  14.364
33372W        W 5698   1.856  25.063   3.246
33373W        W 5699  24.495  40.255   2.245
33374W        W 5700  41.860  19.930  11.011
33375W        W 5701  14.813  19.761  13.336
33376W        W 5702  15.336  21.112  11.489
33377W        W 5703  39.843  38.966  12.066
33378W        W 5704  17.517  36.902  12.628
33379W        W 5705  27.627  22.101  12.329
33380W        W 5706  20.369  19.502   0.304
33381W        W 5707  18.193   4.930   3.787
33382W        W 5708  44.910  15.725  14.102
33383W        W 5709  23.140  44.420  10.160
33384W        W 5710  10.221  33.165  12.008
33385W        W 5711   1.240  10.666   2.147
33386W        W 5712  23.121  32.501  10.714
33387W        W 5713   3.833  30.138   4.143
33388W        W 5714  28.652   1.161   2.214
33389W        W 5715  14.867   6.295  11.618
33390W        W 5716   0.000  12.662  12.224
33391W        W 5717  38.216  24.038   1.591
33392W        W 5718  28.373  15.110  10.452
33393W        W 5719  12.791  28.391   1.875
33394W        W 5720  26.083   0.519   0.852
33395W        W 5721  23.242   1.123   4.903
33396W        W 5722  24.669   6.873  14.230
33397W        W 5723  37.166  25.204   0.863
33398W        W 5724   2.017  42.273   4.267
33399W        W 5725  37.619   7.191   4.168
33400W        W 5726   3.385   1.837   0.468
33401W        W 5727  32.065   2.819  10.907
33402W        W 5728   6.774   8.038   0.898
33403W        W 5729  17.016   7.236   2.962
33404W        W 5730  31.835  19.529  14.014
33405W        W 5731  42.994   0.716  14.668
33406W        W 5732  14.735   2.557  11.493
33407W        W 5733   0.304  44.258   2.706
33408W        W 5734  24.957  24.329  11.981
33409W        W 5735   6.236  27.990  10.469
33410W        W 5736  18.763  36.657   3.301
33411W        W 5737  32.037  27.869   1.773
33412W        W 5738  32.999  38.891  13.491
33413W        W 5739   6.258   1.442   0.907
33414W        W 5740  20.569  10.211   3.029
33415W        W 5741  15.604  21.488  12.323
33416W        W 5742  31.407  27.492  14.522
33417W        W 5743   2.683   1.234  14.541
33418W        W 5744  13.777  25.506   0.767
33419W        W 5745  12.089  20.699  11.585
33420W        W 5746  25.436  34.962   1.290
33421W        W 5747  21.445  12.154   4.052
33422W        W 5748  31.054  42.416  14.401
33423W        W 5749  35.435   6.381   0.337
33424W        W 5750   0.174   3.547   2.551
33425W        W 5751   1.321  25.216  12.561
33426W        W 5752  24.004  22.987   4.364
33427W        W 5753  22.322   7.427  13.347
33428W        W 5754  21.227  13.912  12.083
33429W        W 5755  39.449   0.227   3.761
33430W        W 5756   5.887  35.500  13.722
33431W        W 5757   7.252  14.317  11.216
33432W        W 5758  29.889  31.005   0.530
33433W        W 5759   3.668   3.531   5.046
33434W        W 5760  32.989   2.368   3.787
33435W        W 5761  32.208  23.242   3.675
33436W        W 5762  23.196  29.409  12.713
33437W        W 5763  19.778  15.208   0.100
33438W        W 5764  15.051  39.367  12.931
33439W        W 5765  28.390  41.340  12.649
33440W        W 5766   3.877  19.177   4.734
33441W        W 5767  33.206   7.808   2.747
33442W        W 5768   2.788  43.348  14.826
33443W        W 5769  20.537  28.152   4.352
33444W        W 5770  19.969  31.170   0.618
33445W        W 5771  30.651  31.601   4.664
33446W        W 5772  14.288  11.302  10.780
33447W        W 5773  24.601  38.484   4.089
33448W        W 5774   5.910  17.761   2.292
33449W        W 5775  12.629  15.761  10.613
33450W        W 5776   4.444  21.618   3.968
33451W        W 5777   1.822  40.254  14.574
33452W        W 5778  42.057   5.932  13.411
33453W        W 5779  18.645   5.688   2.872
33454W        W 5780   2.738  21.842   0.462
33455W        W 5781  42.587  16.272   4.252
33456W        W 5782   1.871   0.794  13.582
33457W        W 5783  41.811   3.883  11.049
33458W        W 5784  18.275   3.702  12.998
33459W        W 5785   1.472  12.652  11.452
33460W        W 5786   3.252  17.172  11.836
33461W        W 5787  36.877  20.551   3.315
33462W        W 5788  44.812   4.433   0.444
33463W        W 5789  38.233   7.673   3.648
33464W        W 5790  44.242  13.688   0.027
33465W        W 5791  23.956  23.188   1.568
33466W        W 5792  25.848  35.255  10.995
33467W        W 5793  19.502   4.288   1.175
33468W        W 5794   2.828  35.667  13.534
33469W        W 5795  33.157  42.395   3.249
33470W        W 5796  35.031  37.045  10.475
33471W        W 5797  43.947  41.004  10.916
33472W        W 5798  11.317  12.851  10.740
33473W        W 5799   7.395  18.069  13.970
33474W        W 5800  31.495  25.247   1.349
33475W        W 5801   0.353  20.895   4.576
33476W        W 5802  32.381  39.057   9.913
33477W        W 5803   9.333  42.318   4.070
33478W        W 5804  38.304  12.857   9.834
33479W        W 5805  22.987   0.816   0.325
33480W        W 5806  44.908  12.072   0.450
33481W        W 5807  30.361  14.632   0.958
33482W        W 5808  16.069  21.302  12.364
33483W        W 5809  42.941  44.247   2.638
33484W        W 5810  24.696   7.272   0.868
33485W        W 5811  25.285  28.307  12.438
33486W        W 5812  32.625  29.052   3.478
33487W        W 5813  36.047   5.870   1.891
33488W        W 5814  37.684   6.853   4.564
33489W        W 5815  30.002  30.180   2.003
33490W        W 5816  30.296  13.627  14.770
33491W        W 5817  32.513  10.610   1.754
33492W        W 5818   5.244  18.783   0.393
33493W        W 5819  25.006  20.239   3.252
33494W        W 5820  27.789   8.360  11.638
33495W        W 5821   4.007  20.438  11.036
33496W        W 5822   0.459   6.197  11.971
33497W        W 5823   2.161  35.088  12.607
33498W        W 5824  35.235  11.899  12.545
33499W        W 5825   7.365  38.050   1.191
33500W        W 5826  43.236  34.103   0.745
33501W        W 5827  31.057  32.400   4.679
33502W        W 5828  25.510   1.490  10.421
33503W        W 5829  15.256  25.250   0.147
33504W        W 5830   7.527  36.121   0.825
33505W        W 5831  37.894  29.740  11.341
33506W        W 5832  22.706  33.372   2.417
33507W        W 5833  31.604   9.942   0.337
33508W        W 5834   0.222  21.438  14.867
33509W        W 5835   3.533  36.060   4.492
33510W        W 5836  15.935   7.261  14.342
33511W        W 5837  36.053  40.343  12.035
33512W        W 5838  27.944   9.624   1.865
33513W        W 5839  43.085  11.864   5.247
33514W        W 5840   7.757  15.386  13.158
33515W        W 5841  22.956   8.828   3.184
33516W        W 5842  11.172   2.182  11.572
33517W        W 5843  13.647  31.205   4.171
33518W        W 5844   2.708   1.665  14.235
33519W        W 5845  30.660  44.489   2.751
33520W        W 5846   3.191  26.010   2.840
33521W        W 5847  34.277  41.505   4.153
33522W        W 5848   9.650   1.731  12.993
33523W        W 5849  32.540  11.138  13.967
33524W        W 5850   4.690  26.038   3.645
33525W        W 5851  37.538  42.408  12.085
33526W        W 5852  40.039   0.045   3.849
33527W        W 5853  42.469  11.901   0.039
33528W        W 5854  44.677  29.583  11.447
33529W        W 5855   8.886   3.845  12.850
33530W        W 5856  33.471  27.224   1.698
33531W        W 5857   5.509   2.546   3.674
33532W        W 5858  18.974  21.933  11.655
33533W        W 5859  13.651   7.951   1.775
33534W        W 5860  28.239   2.956  12.442
33535W        W 5861   8.884   6.734   2.191
33536W        W 5862   4.448  24.725  12.520
33537W        W 5863  40.048   7.242  13.453
33538W        W 5864  39.835   8.655   0.681
33539W        W 5865  29.128  33.937  13.430
33540W        W 5866  34.917  36.323   3.600
33541W        W 5867   8.650  29.589  10.934
33542W        W 5868  37.623  26.898   1.886
33543W        W 5869  19.245   5.760  10.929
33544W        W 5870  40.767  18.794   4.876
33545W        W 5871  25.517  36.474  14.637
33546W        W 5872  12.169  35.103  13.138
33547W        W 5873  18.588  24.953  10.582
33548W        W 5874  29.987  42.902  10.720
33549W        W 5875   7.680  31.673  11.954
33550W        W 5876  35.432  29.712  14.898
33551W        W 5877  43.964  17.295   3.329
33552W        W 5878  13.538  19.216  14.334
33553W        W 5879  35.539  28.106   4.714
33554W        W 5880   2.636  24.654  12.995
33555W        W 5881  22.000   5.886   2.606
33556W        W 5882  24.844  18.861   5.000
33557W        W 5883  19.902  39.598  12.519
33558W        W 5884  28.881  12.807   0.667
33559W        W 5885   0.449   8.811   4.576
33560W        W 5886  10.189  42.334  10.697
33561W        W 5887   0.059  17.034  11.164
33562W        W 5888  24.607  29.015   0.185
33563W        W 5889  36.101  29.065   2.830
33564W        W 5890  11.072  40.290   0.632
33565W        W 5891  31.669  21.138   3.831
33566W        W 5892   6.561  32.540  12.133
33567W        W 5893  22.584  18.618  12.311
33568W        W 5894  24.464   8.326   4.685
33569W        W 5895  15.664  44.844   1.886
33570W        W 5896  36.870  39.071   0.875
33571W        W 5897   6.507  37.009   2.779
33572W        W 5898  40.574  23.753  14.356
33573W        W 5899  21.931  18.118  12.211
33574W        W 5900   0.647  27.018   2.668
33575W        W 5901   7.466  21.045  12.481
33576W        W 5902  14.783  34.494   2.823
33577W        W 5903   1.552   6.634  13.206
33578W        W 5904  18.439   1.770  12.179
33579W        W 5905  27.136  33.535   0.665
33580W        W 5906  29.174  18.252   0.426
33581W        W 5907  17.538   6.894  13.799
33582W        W 5908  41.788   2.996   2.050
33583W        W 5909  39.559  37.835  12.972
33584W        W 5910  34.287   0.889  11.607
33585W        W 5911   1.551  36.531  12.497
33586W        W 5912  12.639  17.236   2.825
33587W        W 5913  25.528  26.643   5.003
33588W        W 5914  12.224  26.457  14.722
33589W        W 5915  33.718  23.795   1.873
33590W        W 5916   6.164  39.568  11.150
33591W        W 5917   9.611  13.578   0.286
33592W        W 5918  38.419  26.691  14.814
33593W        W 5919  11.719  10.781  13.791
33594W        W 5920  25.201   4.724   2.818
33595W        W 5921  20.933  21.009  14.753
33596W        W 5922   8.345   9.091  12.921
33597W        W 5923  23.975  31.160  14.464
33598W        W 5924  23.274   7.981   0.485
33599W        W 5925  19.664   7.281  12.237
33600W        W 5926  43.324  34.757  11.747
33601W        W 5927  19.523  23.401   4.137
33602W        W 5928  18.253  42.578  13.954
33603W        W 5929  25.255  20.749  13.368
33604W        W 5930  21.193  41.032   1.306
33605W        W 5931  26.517  21.464   3.090
33606W        W 5932  16.172   7.904   3.280
33607W        W 5933  40.046  24.222  10.809
33608W        W 5934  14.259  16.884  13.521
33609W        W 5935  27.559  11.241   2.736
33610W        W 5936  37.033   2.716   1.915
33611W        W 5937  41.531  32.074  13.420
33612W        W 5938   8.764  30.585  12.989
33613W        W 5939  16.119  17.153   3.716
33614W        W 5940  15.629  24.741  10.709
33615W        W 5941  13.706  24.423  10.653
33616W        W 5942   1.978  10.063  14.065
33617W        W 5943  30.854  28.028  11.726
33618W        W 5944  22.725  17.121   2.705
33619W        W 5945  28.875  12.066   1.984
33620W        W 5946   8.083  16.089  12.483
33621W        W 5947  31.482   7.944   1.873
33622W        W 5948  33.003   5.134   1.684
33623W        W 5949  31.050  38.832  11.549
33624W        W 5950   5.904   5.083   4.608
33625W        W 5951  31.565  34.994  13.606
33626W        W 5952   8.773   5.662   1.397
33627W        W 5953  23.204  44.574  11.958
33628W        W 5954  15.841   5.028   2.261
33629W        W 5955   9.279  25.660  14.977
33630W        W 5956   9.836   0.462  14.745
33631W        W 5957  17.495  15.461  11.963
33632W        W 5958  43.973  41.250  13.734
33633W        W 5959  37.794  39.434  14.871
33634W        W 5960  37.092   2.612   3.238
33635W        W 5961  23.971  25.645   2.357
33636W        W 5962   0.436  44.702   1.625
33637W        W 5963   9.378  11.117  13.912
33638W        W 5964  11.552  18.796   3.379
33639W        W 5965  11.380  27.721   2.724
33640W        W 5966  38.151   7.506  13.062
33641W        W 5967  14.219   0.814  11.719
33642W        W 5968  30.504  44.425  13.862
33643W        W 5969   5.684   5.879   2.722
33644W        W 5970   2.689  39.004   2.717
33645W        W 5971  28.051  18.103   4.943
33646W        W 5972   8.674  31.392   2.861
33647W        W 5973  30.018  10.852   1.359
33648W        W 5974  42.954  32.620  11.919
33649W        W 5975  17.247  11.336  11.099
33650W        W 5976  12.154   5.015  13.105
33651W        W 5977  43.072  39.096  11.253
33652W        W 5978  18.201   8.815  14.510
33653W        W 5979  10.983   5.426   2.421
33654W        W 5980  26.607   1.838  14.366
33655W        W 5981   9.763  40.982   2.861
33656W        W 5982  25.753  34.115  14.053
33657W        W 5983  11.664  19.132   1.353
33658W        W 5984   3.282   5.440   2.142
33659W        W 5985  17.176  18.247   4.544
33660W        W 5986  28.039   6.687  12.559
33661W        W 5987  14.144  11.768  11.536
33662W        W 5988  33.505  16.288  11.969
33663W        W 5989  16.648  27.298  12.027
33664W        W 5990  43.255  29.173   4.197
33665W        W 5991  42.340  23.114  12.128
33666W        W 5992  21.516  16.755   4.566
33667W        W 5993  32.341  15.891  14.878
33668W        W 5994  43.483  24.576  14.273
33669W        W 5995  39.075   4.734   0.310
33670W        W 5996  10.264  30.018  10.928
33671W        W 5997  32.417  17.481   2.316
33672W        W 5998  22.239  10.132   1.265
33673W        W 5999  26.935   3.420  14.905
33674W        W 6000   8.689   0.563  11.616
33675W        W 6001  29.517   3.960   3.590
33676W        W 6002  13.320  38.294  14.678
33677W        W 6003  38.718   5.217  12.093
33678W        W 6004  18.580   7.892  12.961
33679W        W 6005  34.624   7.995  11.038
33680W        W 6006  35.431  37.810   2.311
33681W        W 6007  26.914  27.163  12.982
33682W        W 6008  17.281  11.666   0.871
33683W        W 6009  40.324  13.084   2.130
33684W        W 6010  20.056  33.445   0.029
33685W        W 6011  33.960  33.938  11.584
33686W        W 6012  16.695   9.283  13.870
33687W        W 6013  43.066   1.639  13.505
33688W        W 6014   7.775  23.577  12.620
33689W        W 6015   8.348  13.808   3.575
33690W        W 6016   6.710   1.980   4.036
33691W        W 6017  40.383  40.932  14.687
33692W        W 6018  12.403  28.312  12.943
33693W        W 6019  15.908  32.286  13.100
33694W        W 6020   2.013  43.773   1.846
33695W        W 6021   1.418  14.244   0.309
33696W        W 6022  30.720  35.570  11.580
33697W        W 6023  31.196  26.529   0.772
33698W        W 6024  10.233  30.891   1.310
33699W        W 6025  18.619   9.700   4.541
33700W        W 6026   3.899  12.278  11.060
33701W        W 6027  13.858   5.746   0.870
33702W        W 6028   4.774  14.377  14.437
33703W        W 6029  21.875  40.001   1.375
33704W        W 6030   1.358   4.154   1.383
33705W        W 6031  17.913   1.803  12.147
33706W        W 6032  24.504  28.016  11.642
33707W        W 6033  26.495  28.006  11.584
33708W        W 6034  43.343  17.261   4.673
33709W        W 6035  25.973   0.804  10.757
33710W        W 6036   3.874  22.969   5.357
33711W        W 6037   8.674  15.115  14.565
33712W        W 6038  19.679  17.217  13.131
33713W        W 6039   9.434  15.870  12.212
33714W        W 6040  29.257  33.901  11.092
33715W        W 6041   3.862   3.706  11.245
33716W        W 6042  23.296  36.036  11.215
33717W        W 6043  33.450  25.154  11.075
33718W        W 6044  22.404  22.470   4.654
33719W        W 6045   6.636   5.708  13.563
33720W        W 6046   6.352   6.552  11.641
33721W        W 6047   7.964  32.250  11.846
33722W        W 6048  43.785  39.329   4.098
33723W        W 6049   3.511   5.836  11.911
33724W        W 6050  23.076  36.531   2.375
33725W        W 6051  36.345  34.467   1.301
33726W        W 6052  32.610  26.118   4.621
33727W        W 6053  38.619   2.757  14.503
33728W        W 6054  14.460  36.657   4.972
33729W        W 6055  28.769   4.233  10.863
33730W        W 6056  28.516  15.829  14.491
33731W        W 6057   9.236  11.700   1.252
33732W        W 6058   1.862  41.891   1.043
33733W        W 6059  34.586   2.177   3.498
33734W        W 6060  12.135  16.679  10.663
33735W        W 6061  10.847  18.667   1.732
33736W        W 6062  29.337  12.820  10.815
33737W        W 6063  44.027  41.932   1.360
33738W        W 6064  17.765  41.923  14.463
33739W        W 6065  27.814  43.099   1.374
33740W        W 6066  33.455  34.607   2.783
33741W        W 6067   2.906  43.530   2.117
33742W        W 6068  12.681  31.818  12.906
33743W        W 6069  43.535  27.757   2.827
33744W        W 6070   4.273  31.982  12.415
33745W        W 6071  42.040   8.899   4.261
33746W        W 6072  17.348   2.655  14.947
33747W        W 6073  28.484  39.273  11.517
33748W        W 6074  33.090   0.307  11.560
33749W        W 6075  33.547  22.922   4.756
33750W        W 6076  13.875  41.368  13.477
33751W        W 6077  20.828  38.771  10.263
33752W        W 6078   9.268   7.324   4.191
33753W        W 6079  20.083  13.427  12.910
33754W        W 6080  16.711  31.191   0.196
33755W        W 6081  11.381  25.091  10.514
33756W        W 6082  35.339   5.886   0.073
33757W        W 6083  12.804  30.974  13.738
33758W        W 6084   1.015  10.388  13.326
33759W        W 6085  34.855  13.690   2.838
33760W        W 6086  40.501  13.240   2.705
33761W        W 6087  35.567   7.966   0.248
33762W        W 6088  42.808  25.701   0.288
33763W        W 6089  10.378  16.977   1.381
33764W        W 6090  11.715  17.793   4.600
33765W        W 6091  20.577  37.545  11.574
33766W        W 6092  19.531  12.843  11.181
33767W        W 6093   5.243  35.383   0.537
33768W        W 6094  34.484  27.745   2.967
33769W        W 6095  18.593  15.029  12.352
33770W        W 6096   1.248  19.264  14.765
33771W        W 6097  11.383  13.836  14.669
33772W        W 6098  15.146  22.937  14.838
33773W        W 6099   9.496  10.173   2.486
33774W        W 6100   8.841  13.286   3.883
33775W        W 6101  36.111  44.063  13.821
33776W        W 6102  22.635  22.933   2.338
33777W        W 6103  32.158  19.610  12.456
33778W        W 6104  24.592  30.495  14.940
33779W        W 6105   8.012  44.864   1.840
33780W        W 6106  20.499  23.542  12.032
33781W        W 6107  17.258  34.519   1.688
33782W        W 6108   6.983  36.777  14.908
33783W        W 6109  29.114  19.983  14.841
33784W        W 6110  26.411   5.308   0.829
33785W        W 6111   8.178  12.348  14.947
33786W        W 6112  35.245  17.168  11.650
33787W        W 6113  21.660  16.129  13.485
33788W        W 6114  10.796   8.317  13.801
33789W        W 6115  32.780  30.939   2.655
33790W        W 6116   6.645  16.287   0.351
33791W        W 6117  13.230  31.001  12.821
33792W        W 6118  35.568  11.791  13.926
33793W        W 6119  26.126  20.046  12.565
33794W        W 6120  40.543  36.451   0.558
33795W        W 6121  23.084  29.949  13.454
33796W        W 6122  32.086  38.367  12.496
33797W        W 6123  10.230  33.663   4.069
33798W        W 6124  23.206  33.515   2.400
33799W        W 6125  29.071  19.145   3.055
33800W        W 6126  17.341  26.583   1.755
33801W        W 6127  25.204  15.875  12.039
33802W        W 6128  26.938   1.228   2.404
33803W        W 6129  43.033   2.683   0.763
33804W        W 6130   1.341   1.578   0.843
33805W        W 6131   8.873   7.252   2.762
33806W        W 6132   5.246  20.178  12.755
33807W        W 6133   2.280  25.389  11.325
33808W        W 6134  39.288  42.458   0.946
33809W        W 6135  31.595  18.988  14.021
33810W        W 6136   3.864  38.873  12.636
33811W        W 6137   3.934  44.898  12.066
33812W        W 6138  13.051  32.176   2.271
33813W        W 6139  35.576  30.149  13.894
33814W        W 6140  35.472   9.980   3.314
33815W        W 6141  22.295  28.502   0.182
33816W        W 6142  28.072   5.189   3.266
33817W        W 6143   4.006  11.820   4.616
33818W        W 6144  16.066  15.598   3.196
33819W        W 6145  10.281  23.233   1.761
33820W        W 6146  33.579  18.122  14.852
33821W        W 6147  38.816  19.705   4.243
33822W        W 6148  37.806   7.427   0.339
33823W        W 6149  16.502  11.305   3.656
33824W        W 6150  25.462  27.036  13.580
33825W        W 6151  37.073  41.553  11.328
33826W        W 6152  42.412  32.381  12.042
33827W        W 6153  24.287  20.839  12.357
33828W        W 6154  27.378  28.167  10.337
33829W        W 6155   3.889   2.018   1.828
33830W        W 6156   2.346   6.998  11.045
33831W        W 6157   4.477  43.057   1.252
33832W        W 6158  21.099  38.000   1.813
33833W        W 6159  13.492  28.676   1.445
33834W        W 6160  36.805  38.040   2.676
33835W        W 6161   8.666  36.770   2.385
33836W        W 6162  26.176  39.979   4.029
33837W        W 6163  24.167  38.558   2.848
33838W        W 6164  23.845  23.418   4.140
33839W        W 6165  12.357  14.806   3.789
33840W        W 6166  21.759  14.653   1.834
33841W        W 6167  28.409   7.719  14.427
33842W        W 6168  35.246  18.050  13.914
33843W        W 6169  18.517   0.452  10.820
33844W        W 6170  25.613  38.260  12.514
33845W        W 6171   6.343  10.624  14.882
33846W        W 6172  32.101  18.800   3.215
33847W        W 6173  13.820  22.595   1.414
33848W        W 6174  28.518   8.938  10.699
33849W        W 6175  22.129  25.673   2.174
33850W        W 6176  24.961  30.429  12.360
33851W        W 6177   1.380   9.462   5.037
33852W        W 6178  38.484   9.838   2.393
33853W        W 6179  10.181   0.931   3.366
33854W        W 6180  30.485  12.111  12.902
33855W        W 6181  25.367  37.081   3.067
33856W        W 6182   5.835  28.532   0.025
33857W        W 6183  12.242  40.715   1.195
33858W        W 6184  14.952  21.063   3.572
33859W        W 6185  27.670  37.901   3.580
33860W        W 6186   9.696  34.496  14.299
33861W        W 6187  15.287   5.890   2.343
33862W        W 6188  10.678  21.275  11.249
33863W        W 6189  20.694  21.739   0.257
33864W        W 6190   1.330  44.472   0.828
33865W        W 6191  37.716  36.515  13.416
33866W        W 6192  38.545   7.289   3.805
33867W        W 6193  18.522  15.103  13.405
33868W        W 6194   6.881  33.692  11.359
33869W        W 6195   5.125  19.178   2.256
33870W        W 6196   0.106  18.586  12.501
33871W        W 6197  21.804   0.846   4.978
33872W        W 6198  25.177  43.399   0.342
33873W        W 6199   0.735  39.047  12.047
33874W        W 6200   2.917   9.938  11.568
33875W        W 6201  25.469  23.607   3.193
33876W        W 6202  20.983   7.313   1.595
33877W        W 6203  39.433   0.385   3.245
33878W        W 6204  33.596  15.563   2.340
33879W        W 6205  42.779  26.246  10.677
33880W        W 6206  20.559  27.632   4.642
33881W        W 6207   4.237  14.057  11.277
33882W        W 6208   5.674  20.088   2.748
33883W        W 6209  27.264  28.169   2.813
33884W        W 6210  37.984  39.800  10.716
33885W        W 6211  13.271  15.162   1.719
33886W        W 6212  25.626  22.096   1.308
33887W        W 6213  30.024  29.465   1.126
33888W        W 6214  39.380  11.328  11.470
33889W        W 6215  44.194  18.957   4.601
33890W        W 6216  16.777  17.906  13.658
33891W        W 6217  21.700   1.667   1.889
33892W        W 6218  39.949  21.178  10.942
33893W        W 6219  10.664  22.159  14.434
33894W        W 6220  22.604   7.762  10.821
33895W        W 6221  26.500  39.093  11.439
33896W        W 6222  34.191  25.939  13.098
33897W        W 6223  19.702  18.718  11.642
33898W        W 6224  32.089  36.473   2.213
33899W        W 6225   8.188   3.405   4.549
33900W        W 6226  44.281   9.116   2.397
33901W        W 6227  16.618   2.482   3.822
33902W        W 6228   4.492   9.743  13.825
33903W        W 6229  36.771  27.974   2.362
33904W        W 6230  25.265  14.711   3.743
33905W        W 6231  29.078  33.043  10.842
33906W        W 6232  16.378  31.448   1.854
33907W        W 6233  28.725  31.877   4.294
33908W        W 6234   8.055   5.975   4.302
33909W        W 6235  42.463  23.640  14.714
33910W        W 6236   6.451   9.761   4.546
33911W        W 6237  23.738  43.995  12.252
33912W        W 6238   0.775  16.847  12.919
33913W        W 6239  16.917  39.753   2.244
33914W        W 6240  23.570  40.904   4.774
33915W        W 6241  26.903   6.181  11.518
33916W        W 6242  39.936  26.758  12.092
33917W        W 6243  24.278  32.897  11.087
33918W        W 6244  20.615  25.448  10.642
33919W        W 6245  21.603  29.660  11.088
33920W        W 6246  12.390  11.652  12.447
33921W        W 6247  18.885  10.839   3.183
33922W        W 6248   8.929  30.577   0.269
33923W        W 6249  12.206  38.537   2.637
33924W        W 6250  42.940  40.020  10.851
33925W        W 6251  16.117  20.111   3.302
33926W        W 6252  37.866  36.896  11.494
33927W        W 6253  38.869   6.499   1.350
33928W        W 6254  41.864  42.777   2.875
33929W        W 6255  28.906  24.034   0.628
33930W        W 6256   0.404   5.250  12.105
33931W        W 6257  37.469  17.172   4.676
33932W        W 6258   1.196   9.495  13.013
33933W        W 6259  26.374   4.473  10.663
33934W        W 6260  21.259  22.508   2.258
33935W        W 6261   0.040  35.616  10.889
33936W        W 6262  35.370  29.097  13.404
33937W        W 6263  19.931  26.929   0.427
33938W        W 6264   3.978  23.115   1.807
33939W        W 6265  38.437   1.680   3.216
33940W        W 6266   1.455   2.549   5.488
33941W        W 6267  34.518  43.527   4.375
33942W        W 6268  25.711  31.219  11.625
33943W        W 6269  19.236  23.347   1.991
33944W        W 6270  15.389  16.578   0.405
33945W        W 6271  25.033  15.639   1.275
33946W        W 6272  16.794  12.119   4.637
33947W        W 6273  10.195  20.665   3.232
33948W        W 6274   4.814  20.024   1.689
33949W        W 6275  29.304   1.774  14.501
33950W        W 6276  42.788  19.035  11.985
33951W        W 6277  30.980  10.862   3.824
33952W        W 6278  32.410  41.226  11.510
33953W        W 6279  21.988  13.355   0.712
33954W        W 6280  26.602   9.291  10.752
33955W        W 6281  41.108  29.121  11.932
33956W        W 6282   3.593  27.165  11.181
33957W        W 6283  14.241   8.793  12.790
33958W        W 6284  30.336   0.819   1.443
33959W        W 6285  10.146  39.532   4.172
33960W        W 6286  31.988   3.720   0.553
33961W        W 6287  26.370  40.078   0.872
33962W        W 6288   9.172   0.659  11.371
33963W        W 6289   1.029   3.925   5.440
33964W        W 6290  42.431   8.920  12.298
33965W        W 6291  14.193  30.041   3.395
33966W        W 6292  21.108  44.971   3.096
33967W        W 6293  29.803  27.238   0.438
33968W        W 6294  24.305  41.950   1.214
33969W        W 6295  35.419  27.996   1.448
33970W        W 6296  25.978  14.083  13.144
33971W        W 6297  14.385   9.069   0.774
33972W        W 6298  16.439  40.617   4.320
33973W        W 6299  42.092  36.478  12.086
33974W        W 6300  30.031  37.868  10.691
33975W        W 6301   2.655  39.338   2.276
33976W        W 6302   0.736  17.180   3.792
33977W        W 6303  26.441  33.842   2.113
33978W        W 6304  26.524  11.650   3.250
33979W        W 6305  44.814  14.609   1.281
33980W        W 6306   7.187   6.154  10.641
33981W        W 6307  44.763  29.102  10.317
33982W        W 6308  16.786  14.087  13.491
33983W        W 6309   3.830  43.777   0.143
33984W        W 6310  30.417  25.294  13.863
33985W        W 6311  15.331  31.029  10.987
33986W        W 6312  27.460  16.579   1.778
33987W        W 6313   9.749  43.011  14.470
33988W        W 6314  18.144  24.044  13.883
33989W        W 6315   1.383   1.440  12.172
33990W        W 6316  22.913   3.189  10.750
33991W        W 6317   9.346   9.281  13.491
33992W        W 6318  34.104  27.186   2.374
33993W        W 6319   7.656  21.467  12.769
33994W        W 6320  20.079  12.374  12.984
33995W        W 6321  35.110  10.333   0.012
33996W        W 6322  35.548  19.274  10.754
33997W        W 6323  37.020  28.840   2.999
33998W        W 6324  20.812  28.204  13.475
33999W        W 6325   1.321  36.391   4.665
34000W        W 6326  26.865  25.838   0.493
34001W        W 6327  15.644  44.691  12.959
34002W        W 6328  34.922  27.805  13.049
34003W        W 6329  20.688   6.654  14.282
34004W        W 6330  24.152   6.240   1.705
34005W        W 6331  30.363  20.604  12.008
34006W        W 6332   8.160  14.822   3.547
34007W        W 6333  27.212  42.853   4.250
34008W        W 6334  35.528  34.456   1.940
34009W        W 6335  31.667   0.990  12.896
34010W        W 6336  40.443   6.971  13.157
34011W        W 6337  17.665   8.818  10.319
34012W        W 6338  22.930  40.971   5.380
34013W        W 6339  10.177  17.320   1.727
34014W        W 6340   1.470  34.103  13.057
34015W        W 6341  38.880  21.381   5.026
34016W        W 6342  42.878  14.685  12.925
34017W        W 6343  14.773  24.468   3.679
34018W        W 6344  11.413  26.525   1.223
34019W        W 6345  10.178  14.014  11.501
34020W        W 6346  32.480  30.433   1.431
34021W        W 6347  11.392  44.201  13.594
34022W        W 6348  24.523  41.402   3.176
34023W        W 6349  28.708  41.885   3.672
34024W        W 6350  12.537  13.651  13.538
34025W        W 6351   7.876  20.713   2.438
34026W        W 6352   8.420  40.005   0.554
34027W        W 6353  38.045  31.291   0.205
34028W        W 6354   5.335  10.789   4.887
34029W        W 6355   4.544  22.562   2.268
34030W        W 6356  33.846   6.459  14.243
34031W        W 6357   8.846   5.942   4.047
34032W        W 6358  42.882  34.032  11.157
34033W        W 6359  20.422  24.890   5.176
34034W        W 6360   0.532  25.185  11.215
34035W        W 6361  44.923   0.945  12.275
34036W        W 6362  44.404  14.857   4.755
34037W        W 6363   7.176  25.857  10.989
34038W        W 6364   7.960  42.382  12.365
34039W        W 6365  23.597  34.876   1.802
34040W        W 6366  39.362  37.668   1.313
34041W        W 6367  15.036  34.046   3.350
34042W        W 6368  36.389  14.227  14.561
34043W        W 6369   2.647  38.944  14.815
34044W        W 6370  29.741  13.246  13.957
34045W        W 6371  36.062  22.967  12.053
34046W        W 6372  22.494   3.578   1.193
34047W        W 6373  38.579  28.426  12.962
34048W        W 6374  34.911  38.911  10.715
34049W        W 6375  21.205  18.800  13.924
34050W        W 6376  37.485  23.209   2.647
34051W        W 6377  15.817  13.650  11.513
34052W        W 6378   3.838  30.410  13.887
34053W        W 6379  41.440  34.596   0.795
34054W        W 6380  32.916  33.025  14.041
34055W        W 6381  19.438  24.311  14.820
34056W        W 6382  42.914  10.899   2.366
34057W        W 6383   9.713  40.817  13.508
34058W        W 6384  24.742  26.374  12.023
34059W        W 6385  17.076  27.091  13.816
34060W        W 6386  42.740  25.549  13.918
34061W        W 6387  16.220  40.038   1.417
34062W        W 6388  36.961  22.028   1.888
34063W        W 6389   9.670   1.036  10.518
34064W        W 6390  24.708  14.854  10.444
34065W        W 6391  42.536  25.666   1.251
34066W        W 6392   3.422  36.774  12.130
34067W        W 6393  28.001   8.844  11.476
34068W        W 6394   5.159  16.820   4.034
34069W        W 6395  10.456  32.458  13.510
34070W        W 6396  35.356  31.573  12.477
34071W        W 6397  14.094  38.469  14.195
34072W        W 6398  41.264  21.242   2.699
34073W        W 6399  44.719  37.835   3.584
34074W        W 6400   4.250  14.782  10.634
34075W        W 6401   4.954  32.891  13.429
34076W        W 6402   2.868  43.467  11.452
34077W        W 6403   1.551   1.244  13.710
34078W        W 6404  22.894   5.317  12.066
34079W        W 6405  12.490  40.396   4.464
34080W        W 6406   5.366   4.204   0.200
34081W        W 6407   4.907  15.764  12.363
34082W        W 6408  17.263  30.620   0.498
34083W        W 6409  16.459  43.011  11.100
34084W        W 6410  39.076  17.051  10.030
34085W        W 6411   0.237  25.555  13.558
34086W        W 6412  39.487   6.768  14.135
34087W        W 6413   0.378  26.639   1.392
34088W        W 6414  44.538  24.644   4.717
34089W        W 6415  11.847  44.973   2.900
34090W        W 6416   3.218  12.600  14.818
34091W        W 6417   9.365  20.224   1.109
34092W        W 6418  10.886  17.157   2.874
34093W        W 6419  30.521  24.632   0.046
34094W        W 6420  13.611  42.292  12.101
34095W        W 6421   2.086   8.886  14.498
34096W        W 6422  39.512   2.948   1.290
34097W        W 6423   3.163   4.752   1.709
34098W        W 6424  17.204  11.333  12.108
34099W        W 6425  31.862  10.244  11.144
34100W        W 6426  31.071  24.630  11.396
34101W        W 6427   0.914  28.137   1.027
34102W        W 6428  34.438  12.793  12.164
34103W        W 6429  16.766  25.562   0.244
34104W        W 6430  20.159   7.494  11.961
34105W        W 6431  34.517  25.499  14.927
34106W        W 6432  40.372  19.219  11.164
34107W        W 6433  13.822  22.966  14.420
34108W        W 6434  13.665  18.855   1.885
34109W        W 6435  15.053   3.063  13.946
34110W        W 6436   1.545  42.439  13.876
34111W        W 6437   2.485   4.308   3.167
34112W        W 6438  10.416  43.352  13.013
34113W        W 6439  20.920  21.935  12.546
34114W        W 6440  10.156  41.534  11.705
34115W        W 6441   4.951  22.552  10.545
34116W        W 6442  16.035  22.573  11.599
34117W        W 6443  41.054  44.397   2.024
34118W        W 6444  40.756  34.914  11.660
34119W        W 6445   6.904  26.219   2.671
34120W        W 6446  24.675  19.554  14.416
34121W        W 6447   7.637  22.610   0.673
34122W        W 6448  31.930  31.599   0.143
34123W        W 6449  18.256   6.224   2.296
34124W        W 6450   2.026   0.734  11.472
34125W        W 6451   5.349  39.330   1.188
34126W        W 6452  42.615  26.981   4.151
34127W        W 6453  22.304  32.674   0.988
34128W        W 6454  22.936  39.313  10.784
34129W        W 6455  44.397  20.781   0.946
34130W        W 6456   4.883  29.006  13.009
34131W        W 6457  17.277   0.778   3.730
34132W        W 6458  39.132  21.280  13.963
34133W        W 6459   6.259  34.046   0.674
34134W        W 6460  14.245  18.252  13.070
34135W        W 6461  36.900  25.075   3.364
34136W        W 6462  17.583  43.313  11.614
34137W        W 6463  33.417  12.550   1.121
34138W        W 6464  39.486   4.793  13.918
34139W        W 6465  15.253   1.232   3.221
34140W        W 6466  39.406  15.080   2.393
34141W        W 6467  32.040  18.555  14.748
34142W        W 6468   0.793  15.476  13.142
34143W        W 6469  36.666  36.295  10.658
34144W        W 6470  43.419  22.533   4.608
34145W        W 6471  36.009  44.334   2.425
34146W        W 6472  14.531  29.940  13.341
34147W        W 6473  22.669   7.490   2.475
34148W        W 6474  28.783  16.515   3.256
34149W        W 6475  22.313  41.580  11.153
34150W        W 6476  17.663   5.945  12.778
34151W        W 6477  14.943  36.452  13.408
34152W        W 6478  15.567   4.891   0.947
34153W        W 6479  25.756  43.339  13.942
34154W        W 6480  24.377  43.500  14.894
34155W        W 6481  16.293  32.701  10.653
34156W        W 6482  29.646   1.011   3.662
34157W        W 6483   4.939  17.103  11.108
34158W        W 6484   9.985  18.037  14.798
34159W        W 6485   1.491  14.793   3.222
34160W        W 6486  19.334  24.215   3.613
34161W        W 6487  40.815  16.566  14.496
34162W        W 6488  20.126  21.188  14.804
34163W        W 6489   7.790  25.958  13.941
34164W        W 6490  31.944  12.078  10.728
34165W        W 6491  23.728  22.689  11.509
34166W        W 6492   8.866  39.284   3.763
34167W        W 6493  10.686  12.660   5.022
34168W        W 6494  21.746  17.643  11.667
34169W        W 6495  42.503  38.955   3.799
34170W        W 6496   5.751  35.946  13.990
34171W        W 6497  21.001   7.449  10.387
34172W        W 6498  42.770  10.112   2.244
34173W        W 6499   5.329  28.602   0.184
34174W        W 6500  27.134  33.948   1.482
34175W        W 6501  32.117  12.902  10.994
34176W        W 6502  22.691  12.795  14.868
34177W        W 6503  10.664  26.469  11.590
34178W        W 6504  25.390  11.426   0.120
34179W        W 6505  22.014   0.329   0.790
34180W        W 6506  19.064  33.635   3.629
34181W        W 6507  43.224   9.211  11.155
34182W        W 6508  10.320   7.762   3.749
34183W        W 6509  35.585  42.281   3.424
34184W        W 6510  14.812  36.614  11.970
34185W        W 6511  38.342  13.526   0.731
34186W        W 6512  15.873  42.101  13.842
34187W        W 6513  11.146  29.890   1.133
34188W        W 6514  34.059  37.674   2.892
34189W        W 6515  44.743  39.173  10.245
34190W        W 6516  10.193  16.344  11.795
34191W        W 6517  32.593  38.770  11.387
34192W        W 6518  44.575  37.501  12.177
34193W        W 6519   4.213  10.080  10.155
34194W        W 6520   6.218  23.974   3.135
34195W        W 6521  12.515  20.520  14.295
34196W        W 6522  23.470  23.991  10.946
34197W        W 6523  23.022  22.596  13.507
34198W        W 6524  28.312  11.675  10.175
34199W        W 6525   8.125  27.061   3.947
34200W        W 6526  20.357  30.594  11.652
34201W        W 6527  13.394  33.151   0.252
34202W        W 6528  20.084  20.136  11.236
34203W        W 6529   7.167  26.346  13.869
34204W        W 6530  24.125  16.611   4.016
34205W        W 6531  41.445   2.699   1.231
34206W        W 6532   5.871  26.097   2.722
34207W        W 6533  20.886  13.285  13.962
34208W        W 6534  24.931   8.407  14.483
34209W        W 6535   0.270  38.890  14.390
34210W        W 6536  41.522  44.266   1.658
34211W        W 6537   9.637  25.564   3.195
34212W        W 6538  27.187  15.161   0.445
34213W        W 6539   4.855  33.676   3.157
34214W        W 6540  11.369   0.256  13.489
34215W        W 6541  38.112  18.081  12.421
34216W        W 6542   3.247   0.370   4.358
34217W        W 6543   6.866  15.272   3.753
34218W        W 6544  30.531  23.795  11.258
34219W        W 6545  23.029  16.769  14.007
34220W        W 6546  28.935  43.507   2.655
34221W        W 6547  15.652  10.556  11.726
34222W        W 6548  42.837  39.147  10.785
34223W        W 6549  20.277   6.829  14.045
34224W        W 6550  25.517  14.070   9.872
34225W        W 6551   1.985  30.467   1.208
34226W        W 6552   6.087  33.361  10.328
34227W        W 6553  18.082  31.850  14.966
34228W        W 6554  19.088  27.787   0.260
34229W        W 6555  35.226   3.935   3.383
34230W        W 6556  41.188  27.780  12.912
34231W        W 6557   0.792  18.084   0.672
34232W        W 6558  17.104  42.833   3.711
34233W        W 6559   6.167  39.812  11.606
34234W        W 6560  21.552  20.427   2.881
34235W        W 6561  34.175   3.215  12.905
34236W        W 6562  43.331  10.561   0.304
34237W        W 6563  24.617   0.272  14.798
34238W        W 6564  15.242  40.369   1.181
34239W        W 6565  44.292  30.689   3.184
34240W        W 6566  29.544  32.427  12.017
34241W        W 6567   0.363   6.275   2.635
34242W        W 6568  17.224  43.572   2.339
34243W        W 6569  31.979   2.922  10.410
34244W        W 6570  29.729  36.098   1.343
34245W        W 6571   5.700  24.718   4.547
34246W        W 6572  22.684  11.843  13.066
34247W        W 6573  25.548   2.660   4.577
34248W        W 6574  20.669  35.129   1.629
34249W        W 6575  41.347  12.155   2.193
34250W        W 6576  28.125  14.394   3.794
34251W        W 6577  16.101   6.818  10.494
34252W        W 6578  27.573   8.161  13.462
34253W        W 6579  21.789  39.126  11.129
34254W        W 6580  31.476  11.084   4.150
34255W        W 6581  42.375  34.464  10.992
34256W        W 6582  10.202  24.080  12.341
34257W        W 6583  43.874   7.425   3.789
34258W        W 6584   6.169  16.707   1.486
34259W        W 6585  23.195   8.929   1.355
34260W        W 6586  21.969  37.914  13.823
34261W        W 6587  38.723  37.210  14.890
34262W        W 6588   9.789   1.493  11.948
34263W        W 6589  10.375   9.851   3.358
34264W        W 6590   4.310  27.178  14.700
34265W        W 6591   7.431  19.268   4.178
34266W        W 6592   8.199  41.429   0.726
34267W        W 6593  30.033  40.561  11.119
34268W        W 6594  37.369  33.019  11.735
34269W        W 6595   0.433  29.488   2.891
34270W        W 6596   4.868  40.410  14.876
34271W        W 6597   3.744  22.962   2.276
34272W        W 6598  16.647   3.974  13.933
34273W        W 6599  43.900   5.413  12.829
34274W        W 6600  17.826   2.823   4.238
34275W        W 6601   6.428  33.998   3.687
34276W        W 6602  34.050  35.105  10.778
34277W        W 6603  32.982  29.636  12.074
34278W        W 6604  33.949  17.250  11.183
34279W        W 6605  37.470   2.437  13.047
34280W        W 6606  34.131  23.761   3.756
34281W        W 6607  24.033  36.670   1.319
34282W        W 6608  19.760  42.514   1.966
34283W        W 6609  16.151  36.998  11.900
34284W        W 6610   2.430  20.827   1.299
34285W        W 6611  38.908  26.724   4.520
34286W        W 6612  39.708  26.004   3.253
34287W        W 6613  28.698  34.014   4.084
34288W        W 6614  21.815  23.511  10.677
34289W        W 6615  33.973  28.251  12.930
34290W        W 6616  12.072  17.071  13.915
34291W        W 6617  35.663  41.406   3.699
34292W        W 6618  13.208  36.520  10.226
34293W        W 6619  44.335   5.397   0.421
34294W        W 6620  11.113  40.482  12.970
34295W        W 6621   2.720   2.243   1.664
34296W        W 6622  20.134  20.048   1.886
34297W        W 6623  21.118  15.842  14.095
34298W        W 6624  23.022  23.044  12.460
34299W        W 6625  32.537  24.323  10.674
34300W        W 6626  40.093  25.456  12.611
34301W        W 6627  34.954  18.042  11.173
34302W        W 6628   4.416  33.160   0.690
34303W        W 6629  39.152   9.805   1.704
34304W        W 6630  20.250  21.604   2.312
34305W        W 6631  42.405   8.466   2.067
34306W        W 6632  19.183  12.729   0.859
34307W        W 6633   8.615  22.823   0.864
34308W        W 6634  33.466  29.940   2.485
34309W        W 6635  30.034  16.750   3.876
34310W        W 6636  39.738   6.394  11.260
34311W        W 6637   1.762  36.138  11.162
34312W        W 6638  40.291   6.296  13.758
34313W        W 6639  29.109  25.940  10.050
34314W        W 6640  41.706  10.163  12.465
34315W        W 6641  14.048  32.710  12.207
34316W        W 6642  43.247  15.979  11.825
34317W        W 6643  10.555  42.208   1.164
34318W        W 6644  35.615   5.819   4.538
34319W        W 6645  13.816  12.035   0.551
34320W        W 6646  13.208  44.342  14.894
34321W        W 6647  40.297  11.611   0.277
34322W        W 6648  28.106  38.544  14.636
34323W        W 6649  43.961   3.126   2.377
34324W        W 6650  22.080  33.667   3.182
34325W        W 6651   8.325  15.791   0.254
34326W        W 6652  12.798   9.859   3.118
34327W        W 6653  35.359  39.434  13.793
34328W        W 6654   0.697  24.022   1.375
34329W        W 6655   1.668   8.227  12.324
34330W        W 6656  14.999  30.726   4.291
34331W        W 6657   0.767  17.128   1.018
34332W        W 6658  29.003  34.745   0.445
34333W        W 6659   4.681  20.523  14.456
34334W        W 6660  20.170  38.147   0.190
34335W        W 6661  41.913  23.021   3.266
34336W        W 6662  11.301  43.371   2.549
34337W        W 6663   2.351  27.322  12.836
34338W        W 6664  34.966   7.298  14.533
34339W        W 6665  13.977  35.369   2.174
34340W        W 6666  28.944  26.037   1.764
34341W        W 6667  30.938  11.313  13.831
34342W        W 6668   6.771  21.858  13.496
34343W        W 6669   8.405  15.368  11.106
34344W        W 6670   3.187   1.197  10.194
34345W        W 6671  19.522   4.366   3.712
34346W        W 6672  42.403  41.586  11.921
34347W        W 6673  22.685  36.580  10.775
34348W        W 6674  15.596  10.183  14.982
34349W        W 6675  34.350  11.005  14.794
34350W        W 6676  23.717  35.089   3.879
34351W        W 6677  35.200   6.253   3.712
34352W        W 6678  23.158   1.796  12.525
34353W        W 6679  22.005  16.748   3.800
34354W        W 6680   7.646  40.919   1.305
34355W        W 6681   2.959  30.439  12.628
34356W        W 6682  28.916  19.788   3.798
34357W        W 6683  23.997   9.356  11.998
34358W        W 6684   1.790  41.925  11.427
34359W        W 6685  24.970  40.056  10.836
34360W        W 6686  27.351   9.748   3.263
34361W        W 6687  17.644  11.170   4.191
34362W        W 6688  27.624  23.238   2.734
34363W        W 6689  30.205  18.589  11.846
34364W        W 6690  42.538  28.248  14.012
34365W        W 6691  15.406  17.743   2.686
34366W        W 6692  20.751   3.764  11.936
34367W        W 6693  19.069  17.561   2.038
34368W        W 6694  18.474   9.412  12.045
34369W        W 6695  32.168  32.926  10.753
34370W        W 6696   9.469  39.579  12.058
34371W        W 6697  29.479  23.511  12.361
34372W        W 6698  23.743  17.519   0.057
34373W        W 6699  26.522  10.827  12.521
34374W        W 6700   5.770  43.939   1.871
34375W        W 6701   3.108  41.517   1.858
34376W        W 6702  12.496  38.913   3.207
34377W        W 6703   7.246   4.476  14.745
34378W        W 6704  36.940   2.777  12.227
34379W        W 6705  32.513  42.345   1.012
34380W        W 6706   7.686  14.604  11.662
34381W        W 6707  23.571  27.427   0.224
34382W        W 6708  28.431  37.522  11.862
34383W        W 6709  17.629  38.958  14.315
34384W        W 6710  36.167  32.871   0.492
34385W        W 6711  16.589  20.663   2.864
34386W        W 6712   8.145   8.424  10.644
34387W        W 6713  43.807  23.308  12.368
34388W        W 6714  12.366  18.090  11.535
34389W        W 6715   1.265   0.048  10.674
34390W        W 6716  38.951  15.804   3.665
34391W        W 6717  12.067  18.338  11.893
34392W        W 6718  16.186  44.971   0.360
34393W        W 6719  24.650  24.222   4.977
34394W        W 6720  33.730  27.538   2.293
34395W        W 6721  38.197  25.113   4.190
34396W        W 6722  35.093  35.571   0.363
34397W        W 6723  35.907  13.406  11.089
34398W        W 6724  40.979  25.457   3.266
34399W        W 6725  27.426  35.518   1.126
34400W        W 6726  27.924   1.549   3.367
34401W        W 6727  32.013  40.107   3.972
34402W        W 6728  29.833  39.570  14.883
34403W        W 6729  22.209  27.494  11.213
34404W        W 6730  44.035  13.772  13.497
34405W        W 6731  41.124  44.399  13.389
34406W        W 6732  39.063  34.559  14.758
34407W        W 6733  34.356  15.491  14.547
34408W        W 6734  24.225  34.359   1.458
34409W        W 6735  27.069  43.822  13.298
34410W        W 6736  13.180  11.396   0.257
34411W        W 6737   3.258  20.143   3.627
34412W        W 6738  20.800  11.097   4.199
34413W        W 6739  28.410  17.225   1.312
34414W        W 6740  28.994  31.875   0.008
34415W        W 6741   0.477  15.278   0.191
34416W        W 6742  33.837  19.283  14.480
34417W        W 6743  25.526  25.211  10.538
34418W        W 6744  23.482  29.545   4.602
34419W        W 6745  33.156  27.364  13.662
34420W        W 6746  40.860  23.533   2.919
34421W        W 6747  15.378   8.389   3.377
34422W        W 6748  34.829  44.975  12.935
34423W        W 6749  30.951  41.759  10.365
34424W        W 6750  14.279  41.514  12.069
34425W        W 6751  20.648  44.585   4.541
34426W        W 6752  40.240  15.326  12.921
34427W        W 6753  36.343  17.936   0.262
34428W        W 6754   7.703   9.722  11.556
34429W        W 6755   4.393  41.347  11.380
34430W        W 6756   0.636  34.193   2.469
34431W        W 6757  31.201  40.947   3.580
34432W        W 6758  35.646  42.466   0.099
34433W        W 6759  30.052   1.681  10.556
34434W        W 6760  26.730  29.581  10.816
34435W        W 6761   5.795  20.733  12.619
34436W        W 6762  36.486  41.519  14.386
34437W        W 6763  16.973   7.789  13.585
34438W        W 6764  32.081  43.489   0.303
34439W        W 6765  10.155  24.974  11.393
34440W        W 6766   5.967  10.597   3.631
34441W        W 6767  30.656  30.879   0.636
34442W        W 6768  10.453  38.140  10.757
34443W        W 6769  18.133  11.233   3.920
34444W        W 6770  37.962  26.253  10.689
34445W        W 6771   1.815  23.723  10.191
34446W        W 6772  43.441   6.846   0.734
34447W        W 6773  28.923  26.004  14.447
34448W        W 6774   3.257  31.988   1.215
34449W        W 6775   0.784  17.422   2.477
34450W        W 6776  19.277  28.481  11.536
34451W        W 6777  18.725  26.489   1.816
34452W        W 6778  16.238  32.810  14.594
34453W        W 6779  27.402  37.862  13.872
34454W        W 6780  13.317  37.995   1.861
34455W        W 6781  43.388  36.482   4.696
34456W        W 6782  32.377  12.380   2.438
34457W        W 6783  40.461  21.518  12.056
34458W        W 6784   8.851  37.957   3.079
34459W        W 6785  34.102  29.980  10.643
34460W        W 6786  19.003   9.631  11.527
34461W        W 6787  37.100  36.017   4.734
34462W        W 6788   3.334  30.953  12.995
34463W        W 6789   5.231  11.664   4.135
34464W        W 6790  12.294  18.973  11.217
34465W        W 6791  28.037  23.205  10.763
34466W        W 6792  10.920  42.343   0.070
34467W        W 6793  22.620  10.326  10.536
34468W        W 6794   1.511  17.784   2.114
34469W        W 6795   9.826  11.811   1.310
34470W        W 6796  41.473  10.802  14.122
34471W        W 6797  17.856  10.295   2.836
34472W        W 6798  35.090  37.971  14.387
34473W        W 6799  39.261  24.124  11.247
34474W        W 6800   2.277  24.756  12.541
34475W        W 6801  32.961  37.519  13.076
34476W        W 6802   0.779  33.945  12.552
34477W        W 6803   3.442  24.059  13.002
34478W        W 6804   3.309  18.174  12.117
34479W        W 6805  21.550  34.082   0.266
34480W        W 6806  41.760  37.986   1.044
34481W        W 6807  31.664  17.239   3.633
34482W        W 6808  15.238   4.425  13.453
34483W        W 6809  12.763  20.390  11.163
34484W        W 6810   6.513  11.852  12.497
34485W        W 6811  30.490  44.697  14.324
34486W        W 6812  43.840  18.760   4.000
34487W        W 6813  27.619  34.012   0.051
34488W        W 6814  39.790  36.488   2.765
34489W        W 6815   0.421   2.291   3.275
34490W        W 6816   2.036  24.020   1.750
34491W        W 6817   0.845  17.505   2.990
34492W        W 6818  31.004  15.694  12.158
34493W        W 6819  22.721   9.876   4.549
34494W        W 6820  15.604  38.484   1.794
34495W        W 6821   3.417  15.591   1.312
34496W        W 6822   0.306  17.114  12.510
34497W        W 6823  23.803  12.592  14.984
34498W        W 6824  22.095  27.947  11.016
34499W        W 6825  10.889   3.412  11.205
34500W        W 6826   3.153  30.869  14.531
34501W        W 6827   1.476  32.437   0.556
34502W        W 6828  39.349  42.536  12.639
34503W        W 6829   1.388  15.147  14.304
34504W        W 6830  39.031  32.932  12.106
34505W        W 6831  37.370  16.877  13.349
34506W        W 6832   8.320   2.506  10.811
34507W        W 6833   6.251  34.006   4.595
34508W        W 6834  37.252  36.807   3.709
34509W        W 6835  42.878  38.794   0.875
34510W        W 6836   1.466  31.527   3.135
34511W        W 6837  41.858  27.956  14.570
34512W        W 6838  43.086  42.189  12.029
34513W        W 6839  40.788  23.958   3.286
34514W        W 6840  23.006  35.598   0.951
34515W        W 6841  19.210  32.711   3.217
34516W        W 6842   1.325  24.538   0.692
34517W        W 6843  30.665  25.592  10.654
34518W        W 6844  24.863  33.472  11.252
34519W        W 6845  16.549  16.167  12.628
34520W        W 6846  40.047  18.112   4.119
34521W        W 6847  12.564  37.617  12.873
34522W        W 6848  30.188  26.969  11.615
34523W        W 6849  27.636  33.479  14.237
34524W        W 6850  17.858  25.500   3.381
34525W        W 6851  27.239  22.858   1.371
34526W        W 6852   2.573  41.666  12.810
34527W        W 6853  33.769   0.456  12.742
34528W        W 6854  33.777  21.959  12.445
34529W        W 6855   0.892  18.525  13.459
34530W        W 6856  31.210   5.222   4.550
34531W        W 6857  19.751  19.015   4.279
34532W        W 6858  43.822  44.379  11.391
34533W        W 6859  29.640  10.147  11.202
34534W        W 6860   5.293  20.454   2.700
34535W        W 6861  30.042  20.331  14.432
34536W        W 6862  16.990  33.964  14.407
34537W        W 6863  22.120  41.457  10.708
34538W        W 6864  38.885  24.169   2.333
34539W        W 6865  27.966  41.683   1.917
34540W        W 6866  29.641   4.329  14.012
34541W        W 6867   7.612  19.548  12.045
34542W        W 6868  12.798  16.920   3.611
34543W        W 6869  13.645  36.521   4.586
34544W        W 6870  13.228   9.927   4.499
34545W        W 6871  14.985  37.618   2.207
34546W        W 6872  10.423   4.753   3.693
34547W        W 6873   1.871  31.322   2.494
34548W        W 6874  16.155   5.476  13.608
34549W        W 6875  16.080  26.069  13.308
34550W        W 6876  22.648  31.283   1.874
34551W        W 6877  35.846  39.396  11.549
34552W        W 6878   7.854  31.821   1.312
34553W        W 6879   5.204  43.784  11.616
34554W        W 6880   6.545  18.828   3.877
34555W        W 6881  39.752  36.137  10.681
34556W        W 6882  26.519  15.198  10.730
34557W        W 6883  23.931  17.946   4.818
34558W        W 6884  17.237  13.718   9.830
34559W        W 6885   5.865  11.237  11.995
34560W        W 6886  30.118  40.319   1.434
34561W        W 6887  35.943  28.015  12.021
34562W        W 6888   5.828   8.197   2.618
34563W        W 6889  33.935  17.306   3.464
34564W        W 6890  30.848  27.902   4.911
34565W        W 6891  13.587  22.045  10.855
34566W        W 6892  20.004  30.014  13.055
34567W        W 6893   3.651  20.151  10.786
34568W        W 6894  10.758  22.654   0.115
34569W        W 6895   1.386  18.678  13.478
34570W        W 6896  33.497  25.067   1.845
34571W        W 6897  13.209  20.970   3.530
34572W        W 6898  16.024   2.461  14.676
34573W        W 6899  37.638  37.777   0.313
34574W        W 6900   8.842  24.525   3.225
34575W        W 6901  13.034  40.906  11.539
34576W        W 6902  37.630  15.775   3.783
34577W        W 6903  43.859  44.296  11.907
34578W        W 6904   8.430  12.942   2.861
34579W        W 6905   8.353   8.442   0.579
34580W        W 6906   1.181  17.190   0.011
34581W        W 6907  21.559   0.610  13.861
34582W        W 6908  36.049  41.982  10.660
34583W        W 6909  26.182  20.970  12.950
34584W        W 6910  18.185   7.687   2.784
34585W        W 6911  15.231  19.185   4.280
34586W        W 6912  23.048   1.463   3.902
34587W        W 6913  35.728  23.690   0.407
34588W        W 6914  14.101   5.300  12.437
34589W        W 6915  35.827  38.508   4.999
34590W        W 6916  37.793  23.966  12.048
34591W        W 6917   9.204  44.355  10.607
34592W        W 6918  10.253  42.976   2.190
34593W        W 6919  43.822  32.582  13.909
34594W        W 6920  28.064   7.142  13.924
34595W        W 6921  27.642  32.988  14.525
34596W        W 6922  16.651  39.188  10.643
34597W        W 6923  18.873  38.450   4.175
34598W        W 6924  33.358  13.772  11.168
34599W        W 6925  30.587  35.802   0.711
34600W        W 6926  18.262   4.574   0.192
34601W        W 6927  16.597  31.559  12.862
34602W        W 6928  39.380  35.339   3.743
34603W        W 6929  40.475  28.253   1.037
34604W        W 6930   2.861  41.433  12.394
34605W        W 6931   6.043  18.803   3.154
34606W        W 6932  42.302  39.861   3.198
34607W        W 6933   0.612  25.057  14.701
34608W        W 6934  31.142  44.348  11.659
34609W        W 6935  26.979  21.723   2.912
34610W        W 6936  42.564   2.291  13.864
34611W        W 6937  17.385   0.751  12.001
34612W        W 6938  25.040  20.781  13.834
34613W        W 6939   1.845  26.884   0.397
34614W        W 6940  26.245  36.601  12.657
34615W        W 6941  41.276  19.311  14.385
34616W        W 6942  43.015   3.399   3.160
34617W        W 6943   8.313  19.188   1.693
34618W        W 6944  16.835  39.191  10.019
34619W        W 6945  32.623  13.272  11.034
34620W        W 6946  12.602  23.918   0.930
34621W        W 6947  16.185  42.815   3.628
34622W        W 6948  44.355   3.001  11.950
34623W        W 6949  27.744  41.604  11.053
34624W        W 6950  44.234  42.940  10.349
34625W        W 6951  35.178   5.190  10.477
34626W        W 6952   0.790  23.535  14.561
34627W        W 6953  38.473  21.429  12.480
34628W        W 6954  24.685  28.544   1.822
34629W        W 6955  23.314  17.986  11.101
34630W        W 6956  33.172   7.261   0.785
34631W        W 6957   6.511   7.180   1.936
34632W        W 6958  27.186  37.318   0.277
34633W        W 6959  20.197  21.236  10.963
34634W        W 6960   7.692   8.439  12.874
34635W        W 6961   3.215  12.641  12.429
34636W        W 6962  44.453  20.720  13.919
34637W        W 6963  18.568   9.144   4.643
34638W        W 6964  15.046   8.074   1.273
34639W        W 6965   5.220  14.525   1.300
34640W        W 6966  34.590  31.594  10.720
34641W        W 6967   1.620   8.029  12.893
34642W        W 6968  27.360  17.029  11.081
34643W        W 6969  33.120   7.277   3.838
34644W        W 6970  16.680  22.541  11.890
34645W        W 6971  25.439  28.054  10.790
34646W        W 6972  24.365  32.087   4.109
34647W        W 6973  11.590   7.777  10.568
34648W        W 6974  14.689   2.226   0.927
34649W        W 6975  24.804  13.805   1.792
34650W        W 6976  27.158  28.780   4.608
34651W        W 6977   3.454  34.157   4.557
34652W        W 6978  35.850   8.401   1.781
34653W        W 6979  21.074   9.148  10.751
34654W        W 6980  31.149  28.761   4.206
34655W        W 6981  37.907   4.303  12.617
34656W        W 6982  21.118  31.146  13.443
34657W        W 6983  21.086  39.353   3.173
34658W        W 6984  16.890  28.101  12.562
34659W        W 6985  26.329  28.561  10.071
34660W        W 6986  29.972  20.510   3.814
34661W        W 6987  12.192  18.556   4.800
34662W        W 6988  25.051  15.190  10.226
34663W        W 6989  37.527   5.362   3.342
34664W        W 6990  28.924   8.295   0.695
34665W        W 6991  13.719   8.770   4.067
34666W        W 6992  37.019   8.836   4.677
34667W        W 6993  35.350  26.158  10.718
34668W        W 6994  13.228  18.690  13.765
34669W        W 6995  20.178  44.707  10.713
34670W        W 6996  37.445  24.693  14.808
34671W        W 6997   2.671  40.130   1.413
34672W        W 6998   5.508   8.271  11.278
34673W        W 6999  28.894  27.952   3.573
34674W        W 7000  32.685  14.212   4.443
34675W        W 7001  19.804   9.742   0.037
34676W        W 7002  44.244   5.682   1.833
34677W        W 7003  42.373  28.940  14.051
34678W        W 7004  14.210   8.389   2.722
34679W        W 7005  42.003  23.939  12.444
34680W        W 7006   6.210  26.317  11.183
34681W        W 7007   4.904  17.778   5.045
34682W        W 7008  10.868   6.087  12.927
34683W        W 7009  38.460  26.430   4.624
34684W        W 7010  25.049  44.983   0.310
34685W        W 7011  14.140  10.662   1.840
34686W        W 7012   2.856  25.624   1.451
34687W        W 7013   4.366  41.006   3.018
34688W        W 7014  19.249  17.522  13.898
34689W        W 7015  26.847  22.482   3.662
34690W        W 7016  22.108  25.021  10.573
34691W        W 7017  13.075  13.830   0.925
34692W        W 7018  37.601  32.994  12.603
34693W        W 7019  37.046   2.589   4.860
34694W        W 7020  14.142  10.895   3.261
34695W        W 7021  28.404  25.111  13.387
34696W        W 7022  26.400   8.564   1.326
34697W        W 7023  20.516  16.623  12.545
34698W        W 7024  43.565   2.880  13.585
34699W        W 7025  27.254  33.360  14.576
34700W        W 7026  25.028  36.052   2.754
34701W        W 7027   4.130   0.956  12.274
34702W        W 7028  28.882  28.482   0.011
34703W        W 7029  24.998  12.569   2.376
34704W        W 7030  13.267  33.072   5.349
34705W        W 7031  27.960  32.918  13.464
34706W        W 7032  11.384  10.238   2.863
34707W        W 7033   5.210  30.770  13.903
34708W        W 7034   1.690  37.094   1.465
34709W        W 7035  36.912   0.270  12.964
34710W        W 7036  18.605  28.150   0.364
34711W        W 7037   9.567  43.526   4.081
34712W        W 7038  44.830   1.300   4.085
34713W        W 7039  29.164  20.723  14.535
34714W        W 7040   9.290   2.691   3.656
34715W        W 7041   0.888  17.822  10.683
34716W        W 7042  15.533   2.787   1.422
34717W        W 7043  35.355  31.524   2.367
34718W        W 7044  37.382  14.778   1.935
34719W        W 7045   3.484  44.941  11.139
34720W        W 7046  28.654  22.438  14.821
34721W        W 7047  10.381  34.521   0.490
34722W        W 7048  14.576  12.139   0.884
34723W        W 7049  27.094  23.268   4.040
34724W        W 7050  23.999  20.014  10.631
34725W        W 7051  36.749  32.740   1.198
34726W        W 7052   0.359  15.538   4.052
34727W        W 7053  15.114  28.670   1.284
34728W        W 7054  25.587  42.398  13.517
34729W        W 7055  41.657   8.930   4.592
34730W        W 7056  11.719  32.929  12.281
34731W        W 7057  42.537  23.291  14.351
34732W        W 7058  33.912  15.822  13.019
34733W        W 7059   7.536  21.458   3.877
34734W        W 7060   0.726  39.093  12.897
34735W        W 7061  32.566  41.185   0.970
34736W        W 7062  16.371  19.170   4.064
34737W        W 7063  42.527   8.245   1.606
34738W        W 7064  15.279  19.216  10.789
34739W        W 7065  41.056   2.445   2.357
34740W        W 7066  11.812  31.584   4.082
34741W        W 7067  26.396  35.073  13.988
34742W        W 7068  36.554   9.314  13.282
34743W        W 7069   4.176   8.463  13.967
34744W        W 7070  12.176  41.295   2.202
34745W        W 7071   8.291  23.531   0.297
34746W        W 7072  26.158   0.327  10.757
34747W        W 7073  33.102  13.673  10.694
34748W        W 7074  35.097  19.982  11.213
34749W        W 7075  17.889  40.234  12.722
34750W        W 7076  32.500  21.659   0.877
34751W        W 7077  43.412   6.942  12.360
34752W        W 7078  23.524  43.187  14.875
34753W        W 7079  20.115  42.423   2.662
34754W        W 7080  43.442  32.449  11.883
34755W        W 7081   6.051   9.430   4.177
34756W        W 7082   5.476  30.705  13.476
34757W        W 7083  15.742  21.927   4.850
34758W        W 7084  31.618   3.564   0.040
34759W        W 7085  20.977  44.888  13.395
34760W        W 7086   1.512  21.815   1.484
34761W        W 7087  40.750  39.886  10.435
34762W        W 7088  23.494  28.979  14.028
34763W        W 7089  33.205  41.312   2.268
34764W        W 7090  12.243  44.200  11.117
34765W        W 7091   7.145  29.992   0.482
34766W        W 7092  22.177  16.260   4.157
34767W        W 7093  31.624  20.709  11.542
34768W        W 7094  36.073  28.670   1.478
34769W        W 7095   5.425   5.121  13.442
34770W        W 7096  14.699  21.962  12.480
34771W        W 7097  36.427  22.698  14.340
34772W        W 7098  40.280  14.234  10.621
34773W        W 7099  12.319   1.077  13.321
34774W        W 7100   3.903  13.713  11.534
34775W        W 7101  23.994   0.815  11.230
34776W        W 7102  26.416  42.703   5.055
34777W        W 7103  19.348   0.960   1.992
34778W        W 7104  16.084  43.537   2.403
34779W        W 7105   9.970  26.680   0.734
34780W        W 7106  38.617  10.177  10.755
34781W        W 7107  19.407  14.297   0.323
34782W        W 7108  27.759   0.366   1.996
34783W        W 7109  14.269  33.012  10.601
34784W        W 7110  30.104  23.318   2.789
34785W        W 7111  16.233  14.097   1.962
34786W        W 7112   2.771  21.014   0.915
34787W        W 7113  26.214  32.654   3.709
34788W        W 7114  39.662  35.532  13.133
34789W        W 7115  20.221  42.032   3.363
34790W        W 7116  38.322  33.439  14.455
34791W        W 7117   3.950  39.679   4.202
34792W        W 7118  18.807  35.162   2.098
34793W        W 7119  32.526  22.166  10.712
34794W        W 7120  38.721  12.850   1.322
34795W        W 7121   3.415  30.743  10.621
34796W        W 7122  21.039  29.449   2.913
34797W        W 7123  23.054  36.574   1.216
34798W        W 7124  11.197  40.823  11.021
34799W        W 7125  24.228  27.121   0.519
34800W        W 7126   5.700  42.760  12.964
34801W        W 7127   4.115  12.006   0.716
34802W        W 7128  28.370   1.196  12.102
34803W        W 7129   5.707  35.006  13.822
34804W        W 7130  42.286  43.922  12.046
34805W        W 7131  11.393   0.976   0.461
34806W        W 7132   7.846   4.970   2.659
34807W        W 7133  42.579  20.531   1.840
34808W        W 7134  33.054  30.890   2.205
34809W        W 7135   4.783  31.297   4.511
34810W        W 7136  28.500  27.091  14.387
34811W        W 7137  28.230  37.426  10.300
34812W        W 7138   9.304  38.208  12.886
34813W        W 7139  14.168  23.034  13.034
34814W        W 7140  17.615  38.791  12.621
34815W        W 7141  34.969   9.291  14.158
34816W        W 7142  42.765   6.785   1.447
34817W        W 7143   2.834  22.492   4.174
34818W        W 7144  44.374   2.703   0.793
34819W        W 7145  38.641  41.224   1.870
34820W        W 7146  36.072  34.376   1.752
34821W        W 7147  42.147   9.292  13.374
34822W        W 7148   9.673  23.043   4.077
34823W        W 7149  10.390  42.555   3.198
34824W        W 7150  18.744  30.517  13.841
34825W        W 7151  27.147  30.591   4.040
34826W        W 7152   8.263  28.098   0.837
34827W        W 7153  18.583  10.185   3.773
34828W        W 7154  25.543  39.332   0.805
34829W        W 7155  12.833   1.700  13.874
34830W        W 7156  20.627  35.827  10.483
34831W        W 7157  10.860   7.751  13.199
34832W        W 7158  44.245   4.167   3.198
34833W        W 7159  39.882   6.739  10.910
34834W        W 7160  14.399  40.909  14.062
34835W        W 7161  14.917  42.790  14.450
34836W        W 7162  42.774   1.440   2.369
34837W        W 7163  34.831  34.177   1.995
34838W        W 7164  24.743   9.762   3.166
34839W        W 7165  44.291  44.435   4.021
34840W        W 7166   5.095   6.164   4.605
34841W        W 7167  15.829  34.176  11.818
34842W        W 7168  13.347  39.316   1.114
34843W        W 7169  11.690   9.334  11.409
34844W        W 7170  10.532   1.254   3.137
34845W        W 7171  42.517  31.497   1.468
34846W        W 7172  15.791  36.052  12.034
34847W        W 7173   2.454   4.879   3.860
34848W        W 7174   8.971  42.870   0.419
34849W        W 7175  17.494  38.451   4.685
34850W        W 7176  11.800  41.604   2.375
34851W        W 7177  20.243  28.797   0.922
34852W        W 7178   2.357  29.646  10.827
34853W        W 7179  23.686  16.937   2.766
34854W        W 7180   5.777  10.396   1.381
34855W        W 7181  11.340  19.276   1.889
34856W        W 7182  28.474  41.921   0.223
34857W        W 7183  15.540   3.218   4.516
34858W        W 7184   1.357  13.531  11.402
34859W        W 7185  33.963  18.658  13.883
34860W        W 7186  11.898   3.860   0.469
34861W        W 7187  14.555  29.488  13.924
34862W        W 7188  33.888  24.287   1.895
34863W        W 7189  14.326   5.142  12.901
34864W        W 7190  28.432  11.172   2.466
34865W        W 7191   5.144  29.472  13.895
34866W        W 7192  31.988  24.989  14.059
34867W        W 7193  42.711  19.183   1.728
34868W        W 7194   6.667   4.260   2.863
34869W        W 7195  37.618  13.235  10.338
34870W        W 7196   1.707  20.641  11.976
34871W        W 7197  16.814  26.101   1.928
34872W        W 7198  41.403  29.071  13.837
34873W        W 7199   6.415   5.827  14.392
34874W        W 7200  30.015  25.949  14.968
34875W        W 7201  27.599  15.561   3.567
34876W        W 7202   4.400  11.783  13.324
34877W        W 7203   6.446  37.771  14.849
34878W        W 7204  24.517  15.261   0.751
34879W        W 7205  33.880  21.991  11.638
34880W        W 7206   9.772   5.991  11.180
34881W        W 7207  14.151  14.327   3.319
34882W        W 7208  37.278  30.079   3.749
34883W        W 7209  19.126  44.010   1.263
34884W        W 7210  35.565   1.517   4.206
34885W        W 7211  25.097   9.815  11.807
34886W        W 7212  23.177   2.701   2.421
34887W        W 7213  21.205  13.242   4.186
34888W        W 7214   0.296  31.871  12.066
34889W        W 7215   9.845   9.882   0.334
34890W        W 7216  19.168  18.750  10.987
34891W        W 7217   0.977   2.334  12.470
34892W        W 7218  42.145  32.185   4.545
34893W        W 7219  18.513  39.934   3.118
34894W        W 7220  14.156  44.932   2.928
34895W        W 7221  13.352  24.048  13.000
34896W        W 7222  28.697  22.101   0.789
34897W        W 7223  31.373  40.057  14.887
34898W        W 7224   6.213   8.519  13.006
34899W        W 7225  31.246  14.237   3.574
34900W        W 7226  44.919  10.494   2.329
34901W        W 7227  44.522  22.818  12.955
34902W        W 7228   1.775   2.002   4.842
34903W        W 7229   5.954   5.539  12.211
34904W        W 7230  17.275  17.115   1.756
34905W        W 7231  42.444  13.732   4.727
34906W        W 7232   2.689  12.200  11.506
34907W        W 7233  11.648  25.032   0.309
34908W        W 7234  43.410  18.530   4.178
34909W        W 7235   5.303  19.988   1.882
34910W        W 7236  12.675  23.968   0.011
34911W        W 7237  35.797   9.279   2.773
34912W        W 7238   8.940   5.124   0.525
34913W        W 7239  23.445  10.199  11.898
34914W        W 7240  44.138  20.716   2.930
34915W        W 7241   4.825  13.337   1.842
34916W        W 7242  29.953  18.704  14.800
34917W        W 7243  42.468   7.186  13.987
34918W        W 7244  13.489  18.465   1.392
34919W        W 7245  31.507  27.233  11.087
34920W        W 7246  19.106  44.892   3.215
34921W        W 7247  41.543   6.235   0.319
34922W        W 7248   9.395  42.322  12.075
34923W        W 7249   9.654  28.405   3.757
34924W        W 7250   8.171  19.983   1.442
34925W        W 7251  37.885  23.542   3.742
34926W        W 7252   2.970  24.461  12.502
34927W        W 7253   7.638  31.410  12.400
34928W        W 7254  19.164  17.913  12.444
34929W        W 7255   0.874  31.317  12.473
34930W        W 7256  20.883  16.518   0.847
34931W        W 7257  44.391  26.671  11.176
34932W        W 7258  40.650  26.973  14.833
34933W        W 7259  40.024  44.559   4.040
34934W        W 7260  13.438  23.590  10.698
34935W        W 7261  12.549  19.612  12.427
34936W        W 7262  27.207   7.204  11.121
34937W        W 7263  29.098  17.743  12.880
34938W        W 7264  37.137   2.063   3.367
34939W        W 7265  13.726  29.197   4.569
34940W        W 7266  14.121  13.287   2.351
34941W        W 7267  23.875  17.407   2.802
34942W        W 7268  13.351  16.100   1.274
34943W        W 7269  16.078   0.946  13.405
34944W        W 7270  17.466  27.008  11.495
34945W        W 7271  17.202  23.678  10.423
34946W        W 7272  39.229  17.622   0.892
34947W        W 7273  14.062  37.114   0.940
34948W        W 7274  39.057  30.045   0.812
34949W        W 7275   5.359  44.620  13.806
34950W        W 7276  39.387   6.953   4.139
34951W        W 7277  21.432  24.400  12.902
34952W        W 7278  16.077  16.786   4.931
34953W        W 7279   4.525  13.239   1.231
34954W        W 7280  42.009  38.644   0.984
34955W        W 7281  19.444   9.807   3.905
34956W        W 7282   7.232  36.045  13.408
34957W        W 7283  44.973  21.580  13.084
34958W        W 7284   7.676   9.163  10.758
34959W        W 7285  22.066   1.758   0.472
34960W        W 7286   5.787  33.960   2.397
34961W        W 7287   9.173  10.653  10.377
34962W        W 7288  15.521  44.377  11.120
34963W        W 7289  35.968   5.800  14.095
34964W        W 7290  23.137  24.597  14.776
34965W        W 7291   5.841  44.495  14.525
34966W        W 7292  32.301  26.443   4.117
34967W        W 7293   1.441  31.364   3.644
34968W        W 7294  18.027  26.312  12.269
34969W        W 7295  35.647  33.951  12.310
34970W        W 7296   5.162  12.895  14.844
34971W        W 7297  37.339  24.080   3.965
34972W        W 7298  21.128  40.188  12.170
34973W        W 7299   8.857  15.053   0.498
34974W        W 7300   5.612   6.146  14.277
34975W        W 7301   2.184  18.728   4.415
34976W        W 7302   8.357  43.411   4.571
34977W        W 7303  30.198  26.170  13.727
34978W        W 7304  33.434   4.410  10.135
34979W        W 7305   0.347  15.727  14.971
34980W        W 7306  17.723  13.821  13.403
34981W        W 7307  13.207  16.607  13.829
34982W        W 7308  32.152  23.010  11.699
34983W        W 7309   9.288  30.180  11.125
34984W        W 7310  29.898  20.574   0.883
34985W        W 7311  30.347  40.940   4.227
34986W        W 7312  44.469  23.212  11.911
34987W        W 7313  30.980  14.786  12.061
34988W        W 7314   7.968  10.637  14.718
34989W        W 7315  41.946  22.682  14.042
34990W        W 7316  12.019   3.491   2.028
34991W        W 7317  12.567   4.285   0.585
34992W        W 7318  21.574  40.473   4.428
34993W        W 7319  27.397  13.837   0.387
34994W        W 7320  11.760   2.446  14.252
34995W        W 7321  42.174  41.251   4.204
34996W        W 7322   8.178  18.006   3.280
34997W        W 7323  36.317  35.464   5.479
34998W        W 7324  18.832  29.033   3.099
34999W        W 7325  21.719  27.225   4.799
35000W        W 7326  11.294  30.011  10.639
35001W        W 7327  29.477  42.064  13.458
35002W        W 7328  30.147  35.335  14.842
35003W        W 7329  17.258  32.158   1.887
35004W        W 7330  25.407   4.182  11.674
35005W        W 7331   4.766  18.587   0.263
35006W        W 7332  23.022   8.873  11.526
35007W        W 7333  43.674  10.157  11.102
35008W        W 7334   8.282   6.648  10.794
35009W        W 7335  27.671  43.088   2.732
35010W        W 7336  14.828  42.184  14.966
35011W        W 7337  26.119  28.290   3.540
35012W        W 7338   1.028  44.341  13.996
35013W        W 7339  44.809  14.377   5.058
35014W        W 7340  15.320  32.033   0.755
35015W        W 7341  23.867  43.862  14.225
35016W        W 7342   4.928  36.962   1.010
35017W        W 7343  40.541  41.686  10.740
35018W        W 7344   6.882  10.790   4.857
35019W        W 7345  11.793  27.161  11.538
35020W        W 7346  39.969   5.769   0.740
35021W        W 7347  14.787   0.251  13.336
35022W        W 7348  26.758   8.846   0.341
35023W        W 7349  42.193  16.852  13.992
35024W        W 7350  23.521  10.775   4.085
35025W        W 7351   3.676  21.298  14.445
35026W        W 7352   6.399   1.975   3.630
35027W        W 7353  21.184   4.218   2.307
35028W        W 7354   2.372  39.200   1.369
35029W        W 7355  39.495  35.952   4.479
35030W        W 7356   5.207  30.922  11.100
35031W        W 7357  25.277  21.114   1.170
35032W        W 7358  32.748  21.642  14.494
35033W        W 7359  35.381  11.321  14.007
35034W        W 7360   9.856  23.607  14.762
35035W        W 7361  13.886  36.073  12.037
35036W        W 7362  26.269  22.584   1.221
35037W        W 7363  21.757  29.491   0.247
35038W        W 7364  12.230  18.242   2.835
35039W        W 7365  43.796   0.265  14.000
35040W        W 7366  32.450  34.969  14.941
35041W        W 7367   0.009  10.842  12.088
35042W        W 7368  19.062  26.320   0.924
35043W        W 7369  34.614  37.059  14.961
35044W        W 7370  33.259  12.938  13.968
35045W        W 7371  18.098  32.179   4.094
35046W        W 7372  43.918  36.857   1.382
35047W        W 7373  44.469  26.542   2.297
35048W        W 7374   1.750  23.851   4.737
35049W        W 7375   0.267  21.849   1.479
35050W        W 7376   0.236  13.184   0.381
35051W        W 7377  39.774  29.267   2.359
35052W        W 7378  42.968  10.803   3.239
35053W        W 7379  37.790   8.760  13.954
35054W        W 7380  10.461  15.156  13.887
35055W        W 7381  26.516  37.905   3.460
35056W        W 7382  11.642  34.196   3.672
35057W        W 7383   9.678  25.969   1.338
35058W        W 7384  29.117  43.423  12.077
35059W        W 7385  31.402   2.456  14.710
35060W        W 7386  25.572  30.897   4.827
35061W        W 7387  24.577  41.839   4.610
35062W        W 7388  29.203  29.516   0.802
35063W        W 7389  15.019  42.409   3.315
35064W        W 7390  33.585  11.309   1.301
35065W        W 7391  42.970  34.144   3.166
35066W        W 7392   0.310  27.116   1.644
35067W        W 7393  33.115  15.151  11.577
35068W        W 7394  24.400  19.750  14.819
35069W        W 7395  35.604  15.600  12.331
35070W        W 7396   8.094  28.263   4.145
35071W        W 7397  36.571  41.813   3.107
35072W        W 7398   1.497   1.486   3.407
35073W        W 7399  33.572  11.171   0.444
35074W        W 7400  14.024  20.272   2.319
35075W        W 7401  35.947  32.636   1.815
35076W        W 7402  16.172  12.751  11.829
35077W        W 7403  20.764  33.096   1.683
35078W        W 7404  39.443  26.137   4.233
35079W        W 7405  37.054  21.727   4.836
35080W        W 7406   7.329  41.565  14.087
35081W        W 7407   7.097  17.525  14.783
35082W        W 7408  41.976   9.149   4.933
35083W        W 7409  39.622   2.314   4.496
35084W        W 7410  19.997  16.672  13.965
35085W        W 7411  26.910  29.821  13.057
35086W        W 7412   3.204   9.846  12.442
35087W        W 7413  17.428  21.376  10.027
35088W        W 7414   0.621  39.544   4.095
35089W        W 7415  39.494  39.815   1.917
35090W        W 7416  31.125  20.655  14.398
35091W        W 7417  13.049  17.530  14.439
35092W        W 7418   5.713  37.530   1.796
35093W        W 7419   7.268  16.614  13.520
35094W        W 7420  43.432   9.105   1.256
35095W        W 7421  12.631   9.564  12.542
35096W        W 7422  39.891   6.239   0.484
35097W        W 7423   6.088  37.926  11.194
35098W        W 7424  33.837  23.264  13.160
35099W        W 7425  19.244  11.995   2.435
35100W        W 7426  23.377  42.014   0.291
35101W        W 7427  37.429  10.285   9.776
35102W        W 7428  28.903   9.283  10.668
35103W        W 7429  38.031  29.707   1.171
35104W        W 7430  21.287  35.108  14.431
35105W        W 7431  42.416  30.924  10.914
35106W        W 7432  15.071  25.687  14.871
35107W        W 7433  32.078   6.313  13.182
35108W        W 7434  14.258  37.912  14.908
35109W        W 7435  23.444   4.871   4.605
35110W        W 7436  32.491  28.404  14.047
35111W        W 7437   5.945  26.526   4.581
35112W        W 7438   8.337  37.667  14.358
35113W        W 7439  32.046  18.616  11.932
35114W        W 7440  24.608   3.278   1.831
35115W        W 7441  17.195  18.914   2.360
35116W        W 7442  28.937  26.937  11.925
35117W        W 7443  18.774  11.196   2.267
35118W        W 7444  20.459  16.083  10.882
35119W        W 7445  32.679   4.485   0.795
35120W        W 7446  17.807  40.945   3.302
35121W        W 7447  23.171  14.092  12.102
35122W        W 7448  38.517  22.458   0.733
35123W        W 7449  35.870  39.732   3.258
35124W        W 7450  25.367  31.341  13.465
35125W        W 7451   2.843  17.108   1.481
35126W        W 7452  15.784   9.630  13.543
35127W        W 7453  26.163  15.513  10.511
35128W        W 7454   9.092   8.727  12.498
35129W        W 7455   9.709  24.991   3.070
35130W        W 7456  29.604  29.927   2.758
35131W        W 7457   1.992  43.311   3.215
35132W        W 7458  14.108  41.850  13.359
35133W        W 7459  44.527  13.082  14.613
35134W        W 7460  34.961  38.782  13.392
35135W        W 7461  37.549  41.273  13.964
35136W        W 7462  10.308   7.178  14.240
35137W        W 7463  19.250   0.679  12.650
35138W        W 7464  32.879   0.754  12.586
35139W        W 7465  38.125   1.944  10.402
35140W        W 7466   9.600  24.940  10.661
35141W        W 7467   6.297  17.637  10.754
35142W        W 7468  40.687   2.144   4.498
35143W        W 7469  10.241  16.803  11.996
35144W        W 7470  13.693  29.476  11.324
35145W        W 7471  12.805  31.585   3.615
35146W        W 7472  14.656  32.506   4.166
35147W        W 7473  12.510  20.365   4.192
35148W        W 7474  37.913   1.958   3.831
35149W        W 7475  10.711   3.722   4.637
35150W        W 7476  28.870  26.169  13.902
35151W        W 7477  12.379   3.735   1.734
35152W        W 7478   1.871  37.954  14.307
35153W        W 7479  41.291  15.892   0.030
35154W        W 7480  25.065   9.806   4.573
35155W        W 7481   6.834  32.655   4.453
35156W        W 7482  37.369   8.633   5.020
35157W        W 7483  17.738  41.910  11.696
35158W        W 7484  25.262   9.800   3.195
35159W        W 7485  25.965   3.018  13.850
35160W        W 7486  39.546  36.359   3.828
35161W        W 7487  18.997   8.827   0.315
35162W        W 7488  13.614  23.465  11.162
35163W        W 7489   0.138  23.177  14.274
35164W        W 7490  11.593   3.822   0.057
35165W        W 7491  11.398  44.911  11.587
35166W        W 7492  40.547  40.321  13.330
35167W        W 7493  19.801  15.692  14.469
35168W        W 7494  34.340  43.553  12.574
35169W        W 7495  11.891   4.842  12.688
35170W        W 7496  38.231  13.219  10.180
35171W        W 7497  13.719  38.411  12.499
35172W        W 7498  34.395  30.710  10.813
35173W        W 7499  34.348  16.260  12.100
35174W        W 7500  35.042  23.495   4.900
35175W        W 7501   1.695  24.359   4.713
35176W        W 7502  34.826  26.450  12.447
35177W        W 7503  24.233  24.032  10.703
35178W        W 7504   6.191  30.035  12.251
35179W        W 7505   5.135  27.550   4.206
35180W        W 7506  13.394   3.386   0.426
35181W        W 7507  21.589  10.865  10.384
35182W        W 7508   9.239  29.033   4.213
35183W        W 7509  42.276  11.198  10.512
35184W        W 7510   1.375  33.044   4.575
35185W        W 7511  37.866  17.972   0.284
35186W        W 7512  30.265  12.594   0.566
35187W        W 7513  36.137  17.711   5.220
35188W        W 7514  37.013   3.701  11.096
35189W        W 7515  30.991  33.815  14.413
35190W        W 7516  43.448   2.406   3.244
35191W        W 7517  25.445  39.336  10.606
35192W        W 7518  38.763  34.523  12.433
35193W        W 7519  11.668  27.586  14.520
35194W        W 7520  35.549  12.839   0.940
35195W        W 7521   1.435  22.021   3.557
35196W        W 7522  14.691   0.264  13.840
35197W        W 7523  23.677  35.521   2.442
35198W        W 7524  28.015  24.639   0.054
35199W        W 7525  20.518  27.238  13.847
35200W        W 7526  28.263  29.721  12.658
35201W        W 7527  20.166   1.328  14.821
35202W        W 7528  17.051  33.441   4.914
35203W        W 7529  28.322  10.822   2.842
35204W        W 7530  39.472  17.211  14.331
35205W        W 7531  26.021   6.075  13.524
35206W        W 7532  19.091  19.196  14.490
35207W        W 7533  11.894  20.079   0.902
35208W        W 7534  39.589  30.169   2.346
35209W        W 7535  31.397  24.721   3.307
35210W        W 7536   2.248  26.112  10.622
35211W        W 7537  26.285  41.152  13.793
35212W        W 7538  43.918   6.876   1.664
35213W        W 7539  44.491   6.787   0.786
35214W        W 7540  30.679  23.643   1.922
35215W        W 7541  36.058   1.350   3.095
35216W        W 7542  11.888   5.768   1.936
35217W        W 7543   0.734  29.665  14.353
35218W        W 7544  43.022   5.510  11.951
35219W        W 7545  15.193  40.313  14.267
35220W        W 7546  11.315   8.698  13.500
35221W        W 7547   6.267  30.076  13.249
35222W        W 7548  11.869  14.287   4.236
35223W        W 7549  43.750  16.669   1.647
35224W        W 7550  17.855  33.640   1.176
35225W        W 7551  11.124  33.365   4.197
35226W        W 7552   1.617  38.997   3.915
35227W        W 7553  22.360  39.869   1.242
35228W        W 7554  28.127   8.406  11.236
35229W        W 7555  13.671  39.983   1.716
35230W        W 7556  32.871  28.201   2.057
35231W        W 7557  29.166  15.987  12.538
35232W        W 7558  15.798  28.198   3.752
35233W        W 7559  13.091   9.441   4.517
35234W        W 7560   3.560   5.150  11.160
35235W        W 7561   9.381  19.805   2.832
35236W        W 7562   3.324   9.372  13.815
35237W        W 7563  14.633  10.089  14.910
35238W        W 7564  19.251  35.325  12.567
35239W        W 7565  44.443   3.712   0.788
35240W        W 7566  41.322  38.606  13.551
35241W        W 7567  26.693  36.906  11.019
35242W        W 7568  22.125  43.046  13.037
35243W        W 7569  34.829  21.072  10.642
35244W        W 7570  10.201  23.275  11.067
35245W        W 7571   2.431   3.180   1.757
35246W        W 7572   4.659  25.635   4.570
35247W        W 7573   3.869  19.777   2.360
35248W        W 7574  11.732  18.280   0.638
35249W        W 7575   6.544  43.039   0.431
35250W        W 7576  42.923  31.629   4.319
35251W        W 7577  28.507  40.245   5.220
35252W        W 7578  41.611  25.022   4.057
35253W        W 7579  44.276  28.601   4.060
35254W        W 7580  18.091  39.834  12.950
35255W        W 7581  22.164  26.508   3.850
35256W        W 7582  10.612  19.026  11.565
35257W        W 7583   1.952  21.220   3.728
35258W        W 7584  30.210  27.436   0.691
35259W        W 7585  11.624   1.951  13.217
35260W        W 7586  32.509  31.349  13.988
35261W        W 7587  24.126  24.508   1.909
35262W        W 7588   4.645   6.892   4.995
35263W        W 7589   2.768  20.237  10.740
35264W        W 7590   0.753  41.847   1.844
35265W        W 7591  44.836  26.062   2.433
35266W        W 7592  14.533  27.499   4.902
35267W        W 7593  14.033  12.343  13.922
35268W        W 7594   5.749  44.143   3.313
35269W        W 7595  37.632  25.115   1.548
35270W        W 7596  37.070  38.362   3.599
35271W        W 7597  17.197  19.447   2.292
35272W        W 7598  23.509   7.173   2.987
35273W        W 7599  25.632  36.070   4.635
35274W        W 7600   4.815   6.702  14.344
35275W        W 7601  12.288  40.234   2.253
35276W        W 7602  37.089  42.417   0.386
35277W        W 7603  24.271   4.442  14.799
35278W        W 7604  33.851  26.794  12.562
35279W        W 7605  22.968   9.860  11.769
35280W        W 7606   3.489  29.009  11.529
35281W        W 7607  13.887   9.142   0.892
35282W        W 7608  44.458   4.928   1.310
35283W        W 7609  25.100  36.195   1.284
35284W        W 7610   2.459  33.850   4.896
35285W        W 7611   9.155  26.952   4.866
35286W        W 7612  19.197   1.844   1.724
35287W        W 7613  44.509   1.411   0.791
35288W        W 7614  28.197  39.351  11.019
35289W        W 7615  38.969  14.131  10.228
35290W        W 7616   1.544   7.859   3.180
35291W        W 7617  25.026   4.019  14.789
35292W        W 7618  25.280   2.872   0.328
35293W        W 7619   3.457   4.898  14.046
35294W        W 7620  34.551   3.860   2.213
35295W        W 7621  32.353  22.933   4.871
35296W        W 7622  13.407  27.569   4.211
35297W        W 7623   7.919  14.073   3.696
35298W        W 7624  16.254  11.581   3.250
35299W        W 7625  29.275  28.609   0.386
35300W        W 7626  21.008  19.737  13.415
35301W        W 7627  40.014  40.024  12.942
35302W        W 7628   8.142  36.034   0.116
35303W        W 7629   8.125  33.056   3.826
35304W        W 7630  24.596   8.521  14.863
35305W        W 7631  26.235  33.370  14.334
35306W        W 7632  20.599  35.600   4.201
35307W        W 7633  37.506  38.119   3.405
35308W        W 7634  16.189  11.429   4.611
35309W        W 7635  29.539   4.960  12.048
35310W        W 7636  40.113  22.768   0.865
35311W        W 7637  25.206   5.133  14.335
35312W        W 7638  14.264  40.907  14.999
35313W        W 7639  30.195   7.852   3.894
35314W        W 7640  14.090  14.328   2.357
35315W        W 7641  32.559  44.109  13.989
35316W        W 7642  11.242   1.436  10.736
35317W        W 7643  34.396  21.355  10.712
35318W        W 7644  20.143  41.758   4.583
35319W        W 7645   5.518  36.612  11.015
35320W        W 7646   4.035  19.253  14.322
35321W        W 7647  20.213  12.897   4.288
35322W        W 7648   4.411  21.610  10.628
35323W        W 7649  20.278  42.382   2.178
35324W        W 7650  43.810  21.567  10.448
35325W        W 7651  28.154   7.057   4.663
35326W        W 7652  44.351  32.385   2.891
35327W        W 7653  19.672   7.417  10.673
35328W        W 7654  23.039  29.129  13.132
35329W        W 7655  16.606  21.477  11.099
35330W        W 7656  43.901  40.807  14.939
35331W        W 7657  35.870  24.231   2.168
35332W        W 7658   2.718  16.356   2.576
35333W        W 7659  14.060  39.220   5.089
35334W        W 7660   0.204  43.266   2.627
35335W        W 7661  22.002   3.682  11.741
35336W        W 7662   1.229  17.592  10.977
35337W        W 7663  41.198  17.225   0.664
35338W        W 7664  28.002   3.711   4.144
35339W        W 7665  13.740   3.695   3.246
35340W        W 7666  20.702  29.574   1.329
35341W        W 7667  44.061   3.380   1.325
35342W        W 7668  41.454   7.335   2.210
35343W        W 7669  17.194  18.320   1.426
35344W        W 7670  30.138  25.668   3.849
35345W        W 7671   2.000  20.494   4.229
35346W        W 7672  41.623   6.601   2.899
35347W        W 7673  23.087   6.309  14.231
35348W        W 7674  42.992  24.221   2.263
35349W        W 7675  16.253  36.492  12.442
35350W        W 7676  38.989   0.403  12.116
35351W        W 7677  27.471  37.571   0.960
35352W        W 7678  17.046  37.006  12.820
35353W        W 7679  24.625   7.763   2.619
35354W        W 7680  13.556  24.126   4.282
35355W        W 7681  33.507  23.543   0.512
35356W        W 7682  11.134   1.800  13.103
35357W        W 7683   7.711  12.240  13.821
35358W        W 7684  33.354  12.125  13.808
35359W        W 7685   6.233  43.391  11.979
35360W        W 7686  41.975  27.616  13.862
35361W        W 7687  20.315  43.836   3.062
35362W        W 7688  38.851  20.599  12.602
35363W        W 7689  29.908  18.425  14.360
35364W        W 7690  12.489   2.345   2.854
35365W        W 7691  32.995  29.568   2.810
35366W        W 7692  14.137   2.873   1.867
35367W        W 7693  20.253  40.518  11.129
35368W        W 7694  11.795  13.536   2.771
35369W        W 7695  24.373  22.937   1.747
35370W        W 7696  33.945   6.842  14.594
35371W        W 7697   0.088   9.055   3.372
35372W        W 7698  32.154  39.976   4.918
35373W        W 7699  41.187  18.811   3.618
35374W        W 7700  43.412  21.533   4.396
35375W        W 7701  18.235   2.804   1.333
35376W        W 7702  24.084  42.561  10.944
35377W        W 7703   8.428  30.195  13.450
35378W        W 7704  42.089  38.845  11.121
35379W        W 7705  17.973  14.545   3.891
35380W        W 7706   1.858  37.130   0.426
35381W        W 7707  16.273   3.333  10.721
35382W        W 7708  33.635   8.419   1.312
35383W        W 7709  35.317  15.747   4.182
35384W        W 7710  27.059  26.942  10.260
35385W        W 7711  36.929  38.706  11.632
35386W        W 7712  39.774  31.071   4.565
35387W        W 7713  34.360  33.534   0.815
35388W        W 7714  40.228   1.760  11.150
35389W        W 7715  31.808  14.056  13.384
35390W        W 7716  43.301  42.179  10.755
35391W        W 7717  44.201   6.915  11.593
35392W        W 7718  35.784  43.840  14.893
35393W        W 7719  32.445  30.904   1.650
35394W        W 7720   9.321  11.811  10.930
35395W        W 7721  11.703  23.887  13.582
35396W        W 7722  14.608  22.449  14.267
35397W        W 7723  42.933  11.703  14.865
35398W        W 7724  30.131   1.924   0.628
35399W        W 7725   8.711  11.417   4.583
35400W        W 7726  38.416  24.937  11.598
35401W        W 7727  14.709  25.651   2.684
35402W        W 7728   4.447  39.082  10.723
35403W        W 7729  24.985  28.957  13.110
35404W        W 7730  28.138   7.324   1.256
35405W        W 7731  38.380  21.142   2.957
35406W        W 7732  31.776  26.244   4.067
35407W        W 7733   4.736  28.420   2.352
35408W        W 7734  32.608  24.010   3.068
35409W        W 7735  21.957  10.331   4.769
35410W        W 7736  10.488   0.390  10.674
35411W        W 7737  36.028  32.111  12.054
35412W        W 7738   5.346   6.267   4.165
35413W        W 7739  16.892  14.067   0.180
35414W        W 7740   9.682  33.562  13.344
35415W        W 7741  22.654  15.366   3.514
35416W        W 7742   3.752  23.189   1.341
35417W        W 7743   5.852   9.755  13.536
35418W        W 7744  18.266  31.668  14.491
35419W        W 7745  40.187  26.547   1.246
35420W        W 7746  43.034   5.163   1.369
35421W        W 7747  21.010   5.863   0.445
35422W        W 7748   2.604  26.589   0.424
35423W        W 7749  11.169   0.218  13.004
35424W        W 7750  16.010  12.200  14.824
35425W        W 7751  13.194  32.965   2.867
35426W        W 7752  43.765  30.654  14.305
35427W        W 7753  11.577   9.387  13.494
35428W        W 7754  11.322  41.507   2.852
35429W        W 7755  14.814  21.745  12.959
35430W        W 7756  34.164   9.618  12.220
35431W        W 7757  38.604   3.211   5.127
35432W        W 7758   1.706  14.360  11.965
35433W        W 7759  40.450  31.553  14.951
35434W        W 7760  43.521  15.080  10.603
35435W        W 7761  11.281  43.510   1.197
35436W        W 7762  17.473  38.815   3.602
35437W        W 7763  15.079   7.179   1.807
35438W        W 7764  14.456  10.871  12.621
35439W        W 7765  30.762   4.835  11.625
35440W        W 7766   8.329  12.169   0.966
35441W        W 7767  43.217   3.258  11.072
35442W        W 7768  34.721  33.853   0.652
35443W        W 7769   2.460  18.412  13.878
35444W        W 7770  39.455  35.386   0.947
35445W        W 7771  14.196  39.070   1.391
35446W        W 7772  22.761  14.003  12.412
35447W        W 7773  37.490  37.648  12.022
35448W        W 7774  33.776  24.551  14.983
35449W        W 7775  32.585  10.967   1.364
35450W        W 7776  26.403  28.536  14.319
35451W        W 7777  31.698  30.586   3.968
35452W        W 7778   8.737  42.031  14.161
35453W        W 7779  41.646  22.902   0.294
35454W        W 7780  40.522  11.345  14.343
35455W        W 7781  14.878  32.478  14.061
35456W        W 7782  25.444  37.363   0.895
35457W        W 7783  33.624  26.218   0.147
35458W        W 7784  22.680  28.240  14.187
35459W        W 7785  25.086  30.948   0.907
35460W        W 7786  33.523  20.363   1.082
35461W        W 7787   4.947  29.313  14.366
35462W        W 7788  38.905  31.098  12.729
35463W        W 7789  26.806  29.858   1.632
35464W        W 7790  15.105  22.346   0.367
35465W        W 7791  10.165  29.218  12.842
35466W        W 7792  13.930   5.934   3.250
35467W        W 7793   1.560   3.846   2.368
35468W        W 7794   9.822   5.391   3.060
35469W        W 7795   8.958  13.614   3.055
35470W        W 7796   2.206   8.445  11.923
35471W        W 7797  39.974   2.387  13.867
35472W        W 7798  37.991  19.875  10.504
35473W        W 7799  22.077  36.356   0.301
35474W        W 7800   5.517  36.997   2.880
35475W        W 7801  17.418  23.961  12.399
35476W        W 7802  37.015  25.672  11.724
35477W        W 7803  11.814   1.692   3.334
35478W        W 7804  38.828  28.513   3.686
35479W        W 7805  13.048  23.226   0.528
35480W        W 7806  40.128   2.844  12.902
35481W        W 7807  29.192   3.231  12.556
35482W        W 7808   9.232  14.118  14.872
35483W        W 7809  41.715  14.602   0.369
35484W        W 7810  28.527   8.876  13.104
35485W        W 7811  20.811  17.983  12.930
35486W        W 7812   4.359  38.551  10.689
35487W        W 7813  44.100  12.265   4.500
35488W        W 7814  18.562   5.179   4.087
35489W        W 7815  37.662  14.728  12.520
35490W        W 7816  31.494  35.335  14.823
35491W        W 7817  25.039  34.328   0.398
35492W        W 7818  19.881  31.889  11.538
35493W        W 7819  39.977  36.647   4.536
35494W        W 7820  38.576  31.401  12.993
35495W        W 7821  33.688  41.261   4.999
35496W        W 7822  38.696  13.902  13.970
35497W        W 7823   8.470  14.358  11.873
35498W        W 7824  36.330  37.448   0.750
35499W        W 7825  22.510   7.156   3.442
35500W        W 7826  27.954  10.468   4.261
35501W        W 7827  40.593  37.569  12.139
35502W        W 7828  41.981  44.584  14.899
35503W        W 7829  32.504  30.022   2.218
35504W        W 7830  13.377  23.074   2.052
35505W        W 7831  34.184  43.500   2.364
35506W        W 7832  34.848  30.999   0.379
35507W        W 7833   3.447   7.498  12.989
35508W        W 7834  11.653  27.587  10.656
35509W        W 7835  39.315  14.774  10.820
35510W        W 7836  26.429  14.394  11.648
35511W        W 7837  32.392  13.832   1.386
35512W        W 7838  28.616   3.020   3.601
35513W        W 7839  17.831  20.776  12.490
35514W        W 7840  36.132  27.503  10.671
35515W        W 7841  18.034  11.328  13.720
35516W        W 7842  30.045   3.385   2.685
35517W        W 7843  16.661  44.426  10.207
35518W        W 7844   6.275  41.726  11.104
35519W        W 7845  14.891  44.226   0.714
35520W        W 7846   1.809  32.935  10.408
35521W        W 7847   8.188  33.991   0.901
35522W        W 7848  36.553  30.230   4.449
35523W        W 7849  38.993  16.105  10.951
35524W        W 7850   2.160  44.532  11.119
35525W        W 7851  10.299  40.928  13.077
35526W        W 7852  20.700  12.160   2.689
35527W        W 7853  22.559   0.886  14.710
35528W        W 7854  14.599  23.834  13.266
35529W        W 7855  43.377  11.161  11.285
35530W        W 7856   0.490   5.248   3.277
35531W        W 7857  41.873  40.842   3.960
35532W        W 7858   8.373   6.856   2.079
35533W        W 7859  16.638   9.561  12.905
35534W        W 7860  22.720   5.408   2.225
35535W        W 7861  11.787  34.632   0.290
35536W        W 7862   5.728  32.386   3.631
35537W        W 7863  39.556  43.694  12.906
35538W        W 7864  17.277  34.016  12.070
35539W        W 7865  18.886  43.020   2.424
35540W        W 7866  28.478  41.495   3.963
35541W        W 7867   0.792  21.413  12.401
35542W        W 7868  22.312  25.977   0.776
35543W        W 7869  26.467  38.953   0.122
35544W        W 7870   7.257  15.320   4.065
35545W        W 7871  18.709  12.069  13.040
35546W        W 7872  38.607  35.516   3.124
35547W        W 7873  21.483  10.310  13.044
35548W        W 7874   4.866  30.770  12.337
35549W        W 7875  44.840  24.446  11.179
35550W        W 7876  29.932   4.720  14.310
35551W        W 7877  36.048  31.932  11.560
35552W        W 7878  14.432  32.558   1.657
35553W        W 7879   2.456   1.787   2.610
35554W        W 7880  30.589   8.242  11.563
35555W        W 7881  27.158  42.917   0.054
35556W        W 7882  24.180  11.220  11.004
35557W        W 7883  25.612  27.024  13.090
35558W        W 7884  24.130  26.163  12.811
35559W        W 7885   1.648  32.898  12.336
35560W        W 7886  43.274  19.331   4.694
35561W        W 7887  19.671  41.276   3.588
35562W        W 7888  43.372  24.545   2.076
35563W        W 7889  32.039  35.233  10.590
35564W        W 7890  42.365  18.721  12.068
35565W        W 7891  20.618   6.903  11.027
35566W        W 7892  35.406  26.293  13.528
35567W        W 7893   9.132   4.244  14.353
35568W        W 7894  24.176  18.170   5.217
35569W        W 7895  30.689  21.046   0.791
35570W        W 7896  29.755   9.136   2.924
35571W        W 7897  20.714  12.804  10.512
35572W        W 7898  22.650   6.374   4.602
35573W        W 7899  39.904  14.768   2.420
35574W        W 7900   8.586   5.193  12.887
35575W        W 7901   0.880  21.282  11.121
35576W        W 7902   7.096   1.791  14.347
35577W        W 7903  33.901  27.139   0.498
35578W        W 7904  38.616  16.741   1.374
35579W        W 7905  18.964  19.672  11.631
35580W        W 7906   1.437  44.739  14.536
35581W        W 7907  29.913   7.703   1.769
35582W        W 7908  13.630  38.151  10.705
35583W        W 7909  40.227  10.480  12.496
35584W        W 7910   7.303  15.400  11.995
35585W        W 7911  24.133   0.881  14.877
35586W        W 7912  38.270  27.879  13.833
35587W        W 7913  26.504  20.239   1.757
35588W        W 7914  33.435  14.070  14.796
35589W        W 7915   6.720  19.499  14.285
35590W        W 7916  44.567  36.611  12.438
35591W        W 7917  11.242  30.448  14.462
35592W        W 7918   5.332  16.622   1.840
35593W        W 7919  13.299  42.328   4.111
35594W        W 7920   7.926  37.899  14.744
35595W        W 7921  11.289  39.657   3.164
35596W        W 7922  37.605  43.775   2.116
35597W        W 7923   6.374  33.662  11.546
35598W        W 7924  40.996  12.954   1.896
35599W        W 7925  14.417   5.803   0.591
35600W        W 7926   8.215  34.292  12.593
35601W        W 7927  25.755  34.526   1.362
35602W        W 7928   0.862  34.474  13.684
35603W        W 7929  37.075  39.277   4.617
35604W        W 7930  20.530   0.384  11.192
35605W        W 7931  40.993  29.011   0.259
35606W        W 7932  20.926   1.231   0.999
35607W        W 7933  38.365  28.570  12.498
35608W        W 7934  14.537  16.983   3.255
35609W        W 7935  36.434  42.678   4.823
35610W        W 7936  31.709   2.080   2.822
35611W        W 7937  37.912  13.633  10.191
35612W        W 7938  20.482  35.566   1.846
35613W        W 7939  21.841   3.311  14.033
35614W        W 7940  25.066   5.990  11.949
35615W        W 7941  27.466  36.013   4.552
35616W        W 7942   0.033  20.960   2.812
35617W        W 7943  19.514  18.728   2.915
35618W        W 7944  17.006   7.370  10.359
35619W        W 7945  39.186   3.372   4.310
35620W        W 7946  35.937   7.600   0.441
35621W        W 7947  41.896   4.265  13.756
35622W        W 7948  14.217  33.914  14.321
35623W        W 7949  39.419  15.712   1.859
35624W        W 7950   1.396  31.384  12.973
35625W        W 7951  25.435  38.289  11.688
35626W        W 7952   6.751  31.737   2.812
35627W        W 7953   0.956   1.465  12.953
35628W        W 7954  43.478  21.526  11.040
35629W        W 7955   1.924  40.884  11.771
35630W        W 7956  42.358  27.480  10.904
35631W        W 7957  31.194   6.347   0.364
35632W        W 7958  25.927  12.133  10.989
35633W        W 7959  26.423  14.291  12.989
35634W        W 7960  26.696   7.669  13.125
35635W        W 7961   2.444  13.100  12.119
35636W        W 7962   4.718  16.012  11.379
35637W        W 7963   7.317   2.781   1.296
35638W        W 7964  20.594  39.020  11.552
35639W        W 7965   4.294  29.244   2.305
35640W        W 7966  43.478  41.285  11.521
35641W        W 7967  28.167  10.104   3.407
35642W        W 7968  16.272  44.332   2.350
35643W        W 7969  20.989  43.259   3.211
35644W        W 7970  13.735  21.595  11.101
35645W        W 7971  29.590  31.960   3.993
35646W        W 7972   4.278   8.837   2.097
35647W        W 7973  43.674  41.634  11.202
35648W        W 7974  30.644  33.397  12.482
35649W        W 7975  39.105   2.728  14.223
35650W        W 7976  20.063  16.893  13.034
35651W        W 7977  21.630  33.050   4.331
35652W        W 7978  22.031   1.644   3.263
35653W        W 7979  12.356  25.125  12.934
35654W        W 7980  38.115  23.184  11.572
35655W        W 7981  16.570  40.824  11.216
35656W        W 7982  14.724   7.391   0.590
35657W        W 7983   7.194  41.310   2.840
35658W        W 7984  17.279   9.780   3.826
35659W        W 7985  34.462  43.942  11.164
35660W        W 7986  29.201   7.824  10.635
35661W        W 7987  42.093  17.062   3.169
35662W        W 7988  29.920  38.542   0.893
35663W        W 7989  10.376   3.324   4.644
35664W        W 7990   5.165   9.239  14.076
35665W        W 7991  29.583   3.979  13.440
35666W        W 7992  43.956  36.363   1.804
35667W        W 7993  17.960  21.039   0.756
35668W        W 7994  28.175  36.997  13.343
35669W        W 7995  14.885  17.810  12.215
35670W        W 7996   6.702  41.362   4.580
35671W        W 7997   7.565   6.426   1.192
35672W        W 7998  35.721  27.474  10.973
35673W        W 7999  12.734  39.791  12.537
35674W        W 8000  15.593   3.349   3.616
35675W        W 8001  27.621  28.196   0.665
35676W        W 8002   9.652  17.433   1.898
35677W        W 8003  30.035  39.851  14.514
35678W        W 8004  38.893  27.005   4.094
35679W        W 8005  27.426  29.133   3.228
35680W        W 8006  36.819  22.828   0.562
35681W        W 8007  20.641  28.429   2.281
35682W        W 8008  17.933  41.395  12.709
35683W        W 8009  23.761  21.749   0.778
35684W        W 8010  29.704  35.472  11.003
35685W        W 8011  12.150   2.177   1.334
35686W        W 8012  41.871  21.608   0.181
35687W        W 8013  23.005  18.422  11.186
35688W        W 8014  38.386  29.183  13.393
35689W        W 8015  20.582  43.486   4.785
35690W        W 8016  10.389  17.735   4.252
35691W        W 8017   9.772  33.256  12.317
35692W        W 8018  25.293  28.555  13.864
35693W        W 8019  13.279  35.477  14.227
35694W        W 8020  34.377  43.964  14.143
35695W        W 8021  34.027  10.647  10.398
35696W        W 8022  23.482  38.371  12.068
35697W        W 8023  41.235  14.641   1.230
35698W        W 8024  20.756  35.422   3.202
35699W        W 8025  30.157  21.631   2.398
35700W        W 8026   2.250  21.795  13.473
35701W        W 8027   5.804  36.679   1.254
35702W        W 8028  18.120   2.201  13.919
35703W        W 8029  32.066  30.573   2.348
35704W        W 8030  11.174  12.862   2.812
35705W        W 8031  39.574  14.042   2.469
35706W        W 8032  37.084  32.449  12.847
35707W        W 8033  41.816  40.762  12.075
35708W        W 8034   2.237   4.608  12.377
35709W        W 8035   8.233   2.284   1.301
35710W        W 8036  40.399   4.844  12.848
35711W        W 8037  26.073  35.854  13.864
35712W        W 8038  17.706  31.981  13.389
35713W        W 8039  40.995  35.642   0.496
35714W        W 8040  42.075  22.528   1.909
35715W        W 8041  13.779  27.933  13.207
35716W        W 8042  29.659   5.277   2.202
35717W        W 8043  41.025  36.886   0.737
35718W        W 8044  38.158  35.423  13.303
35719W        W 8045  25.733  35.654   3.275
35720W        W 8046  42.118  11.297   4.543
35721W        W 8047  12.106  17.198   3.012
35722W        W 8048  22.900  15.365  14.739
35723W        W 8049   4.960  11.246  14.457
35724W        W 8050  24.176  39.036   2.711
35725W        W 8051  28.514  11.940  14.617
35726W        W 8052  16.750  21.439   1.165
35727W        W 8053  36.138  32.887  11.412
35728W        W 8054  12.405  12.646   0.366
35729W        W 8055  30.472  26.425  11.933
35730W        W 8056  20.270  23.503   2.687
35731W        W 8057  34.369   7.461   1.442
35732W        W 8058  34.325  25.120  11.594
35733W        W 8059   5.413  21.195   4.915
35734W        W 8060  27.053  23.803   1.233
35735W        W 8061  33.261  40.236  14.847
35736W        W 8062  26.478  10.924  11.089
35737W        W 8063  11.772  40.254   2.369
35738W        W 8064  10.739  23.166   2.521
35739W        W 8065  42.967  16.704  14.307
35740W        W 8066   3.371  15.750   2.380
35741W        W 8067  29.885  16.826  13.539
35742W        W 8068  13.831   5.143   4.571
35743W        W 8069   4.501  29.688   4.030
35744W        W 8070  27.656  41.609  13.816
35745W        W 8071  26.901  18.125   3.838
35746W        W 8072   2.222  38.369  13.559
35747W        W 8073  43.264   2.850  11.815
35748W        W 8074  10.632  23.665  11.521
35749W        W 8075   4.346  27.647  12.533
35750W        W 8076  40.288  34.624   0.426
35751W        W 8077  44.735  41.986   2.831
35752W        W 8078  26.625   6.341  13.917
35753W        W 8079   1.777   3.495  13.847
35754W        W 8080  19.965  37.545   3.764
35755W        W 8081   2.986  13.267  12.994
35756W        W 8082  28.505  23.140   3.143
35757W        W 8083   6.728   3.980   3.387
35758W        W 8084  26.566  11.611  13.752
35759W        W 8085  16.781  32.059   1.702
35760W        W 8086   7.472  37.547   2.379
35761W        W 8087   6.413  40.934  11.574
35762W        W 8088  44.491  14.821   2.089
35763W        W 8089   6.249  27.774   5.053
35764W        W 8090  18.498  32.149  13.370
35765W        W 8091   9.407  23.189   2.685
35766W        W 8092  44.137  30.386  12.177
35767W        W 8093  40.010  44.456  12.068
35768W        W 8094   1.279  32.617   3.865
35769W        W 8095  43.082  15.520   3.727
35770W        W 8096  29.747  25.007   4.303
35771W        W 8097  16.642   2.006  10.753
35772W        W 8098  34.563  37.910  14.396
35773W        W 8099  21.598  29.036   0.446
35774W        W 8100  14.160  36.893  14.916
35775W        W 8101  13.681  32.396  12.896
35776W        W 8102   5.556  32.500   0.246
35777W        W 8103  35.017  24.500  13.416
35778W        W 8104  21.527  30.585   0.530
35779W        W 8105  23.507  22.197  11.450
35780W        W 8106  38.140  37.756   0.366
35781W        W 8107   6.276   9.331   4.835
35782W        W 8108  12.693  26.859   5.008
35783W        W 8109  14.372   3.964  14.379
35784W        W 8110  42.475   4.210  13.038
35785W        W 8111  33.546  10.625  12.860
35786W        W 8112   2.520  36.713   2.671
35787W        W 8113  34.536  37.395   0.367
35788W        W 8114  39.561  28.313  14.715
35789W        W 8115  35.335   4.257   2.748
35790W        W 8116  42.384  15.746   3.152
35791W        W 8117   5.845  21.316   4.189
35792W        W 8118   5.371   0.475   3.161
35793W        W 8119   2.898  40.096  12.446
35794W        W 8120   0.208  20.454  11.963
35795W        W 8121  13.623  22.117  13.638
35796W        W 8122  27.963  41.085   3.160
35797W        W 8123  42.876  34.570  11.076
35798W        W 8124   0.363  16.240   4.585
35799W        W 8125   2.713  40.769   0.772
35800W        W 8126   3.177  31.611  12.232
35801W        W 8127  10.648  35.028   2.650
35802W        W 8128  36.263  26.996  11.390
35803W        W 8129  31.300  10.421  14.751
35804W        W 8130  12.469  36.695  14.969
35805W        W 8131  25.511  10.847   4.369
35806W        W 8132  36.861  32.524   4.727
35807W        W 8133  13.216  39.846   1.925
35808W        W 8134  19.949  15.988   4.587
35809W        W 8135   4.366  40.566   0.291
35810W        W 8136  18.775   6.606  13.405
35811W        W 8137   4.899  16.014   1.217
35812W        W 8138   1.512  22.125  14.910
35813W        W 8139   7.707  30.595   9.975
35814W        W 8140  37.950  35.457   2.254
35815W        W 8141  18.579  25.174  14.502
35816W        W 8142  33.525  23.788   0.981
35817W        W 8143  18.794  34.444  10.094
35818W        W 8144  37.825  30.610  12.031
35819W        W 8145  17.537  18.530   3.646
35820W        W 8146   7.269  14.054  12.515
35821W        W 8147  27.025   1.794   0.242
35822W        W 8148  23.012   0.341   3.226
35823W        W 8149  31.140  24.780   3.746
35824W        W 8150  14.174  31.099   0.760
35825W        W 8151  32.928  30.489  13.433
35826W        W 8152  15.252   7.535   4.601
35827W        W 8153  27.656   6.743   0.778
35828W        W 8154  11.841  35.860  12.871
35829W        W 8155  12.337  30.498   2.605
35830W        W 8156  28.026  28.555  11.990
35831W        W 8157  25.094  26.618  14.788
35832W        W 8158  21.073  21.949  14.288
35833W        W 8159  14.554  15.879   1.275
35834W        W 8160   9.654  30.210   2.849
35835W        W 8161  41.348  11.378  11.842
35836W        W 8162  41.432   4.975  12.981
35837W        W 8163  40.204  15.832  12.875
35838W        W 8164  10.726  44.249  14.871
35839W        W 8165  28.113   9.044  11.010
35840W        W 8166  44.387   9.949   3.691
35841W        W 8167  14.778   4.383  12.842
35842W        W 8168  28.580  31.861  11.036
35843W        W 8169  33.157  32.167  14.264
35844W        W 8170  22.019   9.879   3.978
35845W        W 8171  30.580  11.112   4.069
35846W        W 8172  28.461   1.722  12.912
35847W        W 8173  16.996  34.168   3.998
35848W        W 8174  42.974  37.132   2.134
35849W        W 8175  16.807  25.782  13.413
35850W        W 8176  25.158  30.092   2.596
35851W        W 8177   2.495  23.688   3.146
35852W        W 8178  21.304  10.730  11.460
35853W        W 8179  10.742   4.254   4.673
35854W        W 8180  32.601   6.123  12.370
35855W        W 8181   5.359   0.988   0.014
35856W        W 8182  23.701  37.055   3.727
35857W        W 8183  32.897  18.254  13.726
35858W        W 8184   5.118  40.545   9.894
35859W        W 8185   4.696  40.955  10.668
35860W        W 8186  42.750  18.093  10.441
35861W        W 8187  39.844  28.172  11.681
35862W        W 8188  15.016   1.971   2.209
35863W        W 8189   0.621   1.304  13.299
35864W        W 8190  26.229  21.682   0.337
35865W        W 8191  12.595   6.403  11.485
35866W        W 8192   2.169  42.734  14.748
35867W        W 8193  11.094   9.957  11.014
35868W        W 8194   2.750  32.974   0.525
35869W        W 8195  11.290   0.741  13.678
35870W        W 8196  23.626  20.241  14.902
35871W        W 8197   2.377  33.399  12.110
35872W        W 8198   2.604   8.222  12.985
35873W        W 8199  42.879  26.419   4.037
35874W        W 8200  43.278  44.281  10.764
35875W        W 8201  36.558  21.138  10.678
35876W        W 8202  10.409  25.711   0.997
35877W        W 8203   3.223  16.125   1.785
35878W        W 8204  15.999  17.794  13.941
35879W        W 8205  24.347  44.956  11.130
35880W        W 8206  33.989  32.769   4.171
35881W        W 8207   7.896  22.981  10.834
35882W        W 8208  34.622  21.126   3.508
35883W        W 8209  28.380  21.258   2.370
35884W        W 8210  20.469  10.700  11.226
35885W        W 8211  11.349  26.660   0.732
35886W        W 8212  25.713   4.683   5.021
35887W        W 8213   0.069  10.222  10.722
35888W        W 8214  35.925   8.110   4.071
35889W        W 8215  29.698  41.972  12.072
35890W        W 8216  22.164  15.044  14.425
35891W        W 8217  10.306  35.548  13.084
35892W        W 8218  40.799  24.241   4.665
35893W        W 8219  13.829   4.270  10.617
35894W        W 8220  40.659  19.964   0.432
35895W        W 8221  43.291   6.381   3.185
35896W        W 8222  23.069   4.662  11.128
35897W        W 8223   8.104   6.509  14.391
35898W        W 8224  41.290  10.022   0.539
35899W        W 8225  12.323   2.680   1.354
35900W        W 8226  34.952  14.300  10.959
35901W        W 8227  25.808   1.386   0.387
35902W        W 8228  12.280  14.515   1.972
35903W        W 8229   9.165  12.661   2.192
35904W        W 8230  21.140  19.364   4.410
35905W        W 8231  11.385  43.097  14.449
35906W        W 8232  22.933  27.084  14.027
35907W        W 8233  31.434  28.449  12.564
35908W        W 8234  21.997  11.169   4.836
35909W        W 8235   3.369  11.030  12.064
35910W        W 8236  15.268  36.153   3.312
35911W        W 8237  37.896  18.000  12.960
35912W        W 8238  14.264   7.789  11.994
35913W        W 8239  32.161  13.292   2.730
35914W        W 8240  36.799  41.774  13.992
35915W        W 8241  18.166  41.002  10.508
35916W        W 8242  21.696  31.615   1.644
35917W        W 8243  17.739  44.968   4.187
35918W        W 8244  27.718  26.645  12.854
35919W        W 8245  23.192  12.075   3.197
35920W        W 8246  10.331  31.959   1.060
35921W        W 8247   3.050  10.704  14.418
35922W        W 8248  30.575  13.275  14.998
35923W        W 8249   2.722   5.185   4.874
35924W        W 8250   7.267  25.141   4.554
35925W        W 8251  30.229   9.125  12.059
35926W        W 8252  17.746  31.155   0.883
35927W        W 8253  43.312  15.452   2.777
35928W        W 8254  11.445  42.908  10.350
35929W        W 8255  26.051   6.859  11.562
35930W        W 8256  44.179  43.395  11.471
35931W        W 8257  43.470  17.162  13.529
35932W        W 8258   0.729  41.216   1.006
35933W        W 8259  16.706  26.772  13.068
35934W        W 8260   2.785  35.438   4.241
35935W        W 8261   7.328  10.286  13.718
35936W        W 8262  43.041   1.915  11.221
35937W        W 8263  22.261  44.557  11.146
35938W        W 8264  37.918   0.931   4.401
35939W        W 8265  11.138  23.659  12.838
35940W        W 8266   6.610  15.049   0.320
35941W        W 8267  30.110  11.284   2.918
35942W        W 8268  16.428  18.820   1.938
35943W        W 8269   8.790  42.881   2.578
35944W        W 8270  41.984  26.850   3.345
35945W        W 8271  32.077  15.019   4.820
35946W        W 8272  35.019   6.873  11.189
35947W        W 8273  23.477  39.355   4.105
35948W        W 8274  12.474  12.555  10.748
35949W        W 8275  25.174  18.530   1.946
35950W        W 8276  17.978   6.836   4.244
35951W        W 8277  19.518  13.068   2.791
35952W        W 8278  38.430  32.120   0.433
35953W        W 8279   7.945  30.828   0.477
35954W        W 8280   4.939   8.496   1.915
35955W        W 8281  11.147   7.894   2.829
35956W        W 8282  35.889   8.921   1.805
35957W        W 8283  40.796  22.216  12.023
35958W        W 8284  17.898  31.502  13.505
35959W        W 8285   7.819  22.909   0.276
35960W        W 8286   4.260  44.685  13.807
35961W        W 8287  39.583  29.463   0.434
35962W        W 8288   7.423  40.309  10.702
35963W        W 8289  31.077  39.768  11.406
35964W        W 8290   4.833  17.459  14.202
35965W        W 8291   7.431  21.712  14.376
35966W        W 8292  14.398   2.011   4.791
35967W        W 8293   7.633  15.544   4.722
35968W        W 8294  43.551   3.114  14.730
35969W        W 8295  26.620  11.430  11.103
35970W        W 8296  23.064   0.963  13.866
35971W        W 8297   3.448  20.106   3.142
35972W        W 8298  36.034  27.540   3.252
35973W        W 8299  11.761  34.972  10.383
35974W        W 8300  32.996  13.736  12.419
35975W        W 8301  37.045   9.294  13.821
35976W        W 8302  10.165   5.679   2.782
35977W        W 8303   2.980  19.110  14.328
35978W        W 8304   1.419  17.838  10.566
35979W        W 8305  44.908  11.035   0.290
35980W        W 8306   9.006  38.259  13.893
35981W        W 8307  10.677  34.349  11.721
35982W        W 8308   1.284  14.208   4.644
35983W        W 8309  24.687   4.081  13.828
35984W        W 8310  27.804  38.136  12.979
35985W        W 8311  12.873  40.930  13.762
35986W        W 8312  39.766   5.640   1.204
35987W        W 8313  20.101   4.452   2.504
35988W        W 8314  35.141  34.825   4.168
35989W        W 8315   3.165  38.822   1.618
35990W        W 8316  26.886  33.500  13.016
35991W        W 8317  11.208  12.379  14.791
35992W        W 8318  17.164   0.065   4.851
35993W        W 8319  31.556   3.312   0.506
35994W        W 8320  24.542  41.467  12.027
35995W        W 8321  26.564  19.520   2.712
35996W        W 8322  19.694   7.366  11.175
35997W        W 8323  42.208   5.724  12.947
35998W        W 8324  12.116   0.828  12.895
35999W        W 8325  19.406  43.748   0.910
36000W        W 8326  14.824  28.012   0.675
36001W        W 8327  16.260  34.048   4.656
36002W        W 8328  11.105  23.091   0.012
36003W        W 8329  23.596  23.431   1.287
36004W        W 8330  13.161  16.588  10.745
36005W        W 8331  22.575  25.992   1.228
36006W        W 8332  32.958  15.585   4.096
36007W        W 8333   9.831  19.492   3.533
36008W        W 8334  43.494  10.651  12.599
36009W        W 8335  22.795  32.461   2.405
36010W        W 8336  40.008  39.214   4.965
36011W        W 8337   5.235  33.610   2.412
36012W        W 8338  13.682  17.031   1.504
36013W        W 8339   4.717  23.476   3.582
36014W        W 8340  13.707  22.706  14.865
36015W        W 8341   7.322  18.667  14.348
36016W        W 8342  21.496  24.526  12.076
36017W        W 8343   9.767  20.332   1.406
36018W        W 8344  16.502  17.628   1.337
36019W        W 8345  14.149  39.323  11.228
36020W        W 8346  24.472  19.205  11.873
36021W        W 8347  37.051  10.769   3.336
36022W        W 8348   9.402  31.921   3.156
36023W        W 8349  30.141  43.025   4.015
36024W        W 8350  21.914  16.781   1.750
36025W        W 8351  24.012  42.391   0.939
36026W        W 8352  21.752  40.124  12.927
36027W        W 8353  22.646  41.429   4.659
36028W        W 8354  28.280  10.049   0.952
36029W        W 8355   8.708  18.640   5.010
36030W        W 8356  14.235  25.738   5.359
36031W        W 8357  19.257  24.245   0.324
36032W        W 8358   6.785  42.332   3.360
36033W        W 8359  29.703  29.110   3.144
36034W        W 8360   9.176  13.621   4.212
36035W        W 8361   1.309  43.461  11.895
36036W        W 8362   5.860  34.434   2.651
36037W        W 8363  30.586  43.984  12.341
36038W        W 8364  20.085  19.071  14.383
36039W        W 8365   9.629  29.967  12.034
36040W        W 8366  24.700  17.914   4.197
36041W        W 8367  28.713  41.784   2.302
36042W        W 8368  15.954  12.560  12.840
36043W        W 8369   0.321  27.480  13.962
36044W        W 8370   8.344   3.179  11.930
36045W        W 8371  42.706  22.105   2.750
36046W        W 8372  23.021  26.006  11.417
36047W        W 8373  13.745  38.287   3.836
36048W        W 8374  44.281  25.399  10.783
36049W        W 8375  44.656  11.371  10.482
36050W        W 8376  32.509   6.606   2.294
36051W        W 8377   3.225  26.656  13.492
36052W        W 8378   2.434  40.129  12.082
36053W        W 8379  34.715  20.937   2.995
36054W        W 8380   5.835  25.673  14.346
36055W        W 8381  10.096   0.847  12.662
36056W        W 8382  43.714  20.690  14.915
36057W        W 8383  22.010   6.778   1.761
36058W        W 8384  27.984  36.786  12.391
36059W        W 8385  11.804  24.468   0.302
36060W        W 8386  30.369  25.225   1.904
36061W        W 8387  35.190  40.817  12.008
36062W        W 8388  18.534  23.888  12.133
36063W        W 8389  27.063  31.148  10.716
36064W        W 8390   7.799  14.260  12.487
36065W        W 8391  13.254  33.092  12.085
36066W        W 8392  29.013  44.346  12.066
36067W        W 8393  37.648  25.717  12.884
36068W        W 8394   4.898   1.507  14.031
36069W        W 8395  17.215  42.001   1.731
36070W        W 8396  29.989   3.369   4.080
36071W        W 8397  24.897  12.680  12.637
36072W        W 8398   9.259  24.035  11.629
36073W        W 8399  36.243  32.128   0.017
36074W        W 8400  20.866   9.874   0.040
36075W        W 8401  33.128  44.885   0.910
36076W        W 8402  36.565  17.264  12.873
36077W        W 8403   3.300  42.452   0.864
36078W        W 8404  39.039  39.409  14.473
36079W        W 8405   4.900  11.272  13.035
36080W        W 8406  28.110  19.849  14.969
36081W        W 8407  28.171  42.919   4.292
36082W        W 8408  34.562  44.398   0.948
36083W        W 8409  41.014  32.620   1.482
36084W        W 8410  40.511   2.032  10.768
36085W        W 8411   0.565  41.004   4.204
36086W        W 8412  32.358  10.213   4.590
36087W        W 8413  32.784  25.170   4.427
36088W        W 8414   2.368  41.929   4.566
36089W        W 8415  20.608   8.426  10.542
36090W        W 8416  24.440  28.396  10.447
36091W        W 8417  39.557  29.554   1.334
36092W        W 8418  44.842  10.750   4.584
36093W        W 8419  18.757  39.451  10.770
36094W        W 8420  21.067   6.284  13.862
36095W        W 8421  24.027  19.486   3.317
36096W        W 8422  28.691  26.830   3.251
36097W        W 8423  24.224  19.542  10.617
36098W        W 8424  17.118   2.139  12.896
36099W        W 8425  35.957  29.286  10.366
36100W        W 8426   4.900   4.714  10.095
36101W        W 8427  23.082   8.953   4.646
36102W        W 8428  41.875  19.418   4.347
36103W        W 8429  42.484  20.765   0.249
36104W        W 8430  16.681  20.529  14.651
36105W        W 8431   4.718  19.329   3.305
36106W        W 8432  36.841  44.792   4.403
36107W        W 8433  20.071   4.270   2.036
36108W        W 8434   9.710   1.008   0.718
36109W        W 8435  12.378  23.609   1.286
36110W        W 8436   2.025  41.920   3.881
36111W        W 8437  30.575  37.303  11.174
36112W        W 8438  33.018  39.268   3.037
36113W        W 8439  36.364  25.691  11.151
36114W        W 8440  17.080  36.521  12.018
36115W        W 8441  41.948  18.003   1.328
36116W        W 8442  43.887  18.285  11.217
36117W        W 8443  17.997  30.624  11.549
36118W        W 8444  43.521  39.854  11.323
36119W        W 8445   6.449  38.800   5.205
36120W        W 8446  22.193   9.687  14.951
36121W        W 8447  11.866  36.465   3.360
36122W        W 8448  28.162  18.007   4.117
36123W        W 8449  16.812  15.821   0.846
36124W        W 8450  35.834  12.715  13.746
36125W        W 8451  11.866  21.133  11.694
36126W        W 8452  13.122  34.353   0.780
36127W        W 8453   0.256  26.134   1.142
36128W        W 8454  12.389  32.181   0.424
36129W        W 8455  13.158   7.401  12.469
36130W        W 8456   3.872   4.736  11.063
36131W        W 8457  23.453  29.217   4.109
36132W        W 8458  36.095  21.776   0.391
36133W        W 8459   6.285   2.883  12.607
36134W        W 8460  20.215  15.415   0.279
36135W        W 8461   1.351   4.737  13.925
36136W        W 8462  28.476  33.301   2.412
36137W        W 8463  38.441  27.287   0.756
36138W        W 8464  14.185  18.977   0.163
36139W        W 8465  27.393   3.585  14.770
36140W        W 8466  43.437   1.685   2.763
36141W        W 8467  24.676  28.128   4.309
36142W        W 8468   0.235  30.109   3.048
36143W        W 8469  29.137  18.513  11.058
36144W        W 8470  28.609   0.272  11.975
36145W        W 8471   3.577  37.644  10.253
36146W        W 8472  34.338  11.878   3.775
36147W        W 8473  32.471   7.784  12.434
36148W        W 8474  37.670  24.099   1.596
36149W        W 8475  27.434   2.710  13.799
36150W        W 8476  37.612  41.272  12.948
36151W        W 8477  18.254   3.043   4.827
36152W        W 8478  22.248  30.433  11.401
36153W        W 8479  16.545  15.054   3.807
36154W        W 8480  18.324  14.504   0.706
36155W        W 8481  41.551  35.047   0.490
36156W        W 8482  33.119   4.714  11.682
36157W        W 8483   7.272   3.859  10.608
36158W        W 8484  26.363  30.277  11.214
36159W        W 8485  17.139  36.008  14.774
36160W        W 8486  30.721  41.441  13.866
36161W        W 8487  14.579  21.504  11.666
36162W        W 8488  38.372  38.157  13.362
36163W        W 8489  29.426   3.872   0.456
36164W        W 8490  17.850  27.470  13.280
36165W        W 8491  21.705   8.314   1.476
36166W        W 8492  32.317  33.591  14.410
36167W        W 8493  26.461   4.866  13.592
36168W        W 8494  33.729  10.677   3.505
36169W        W 8495   2.639  36.692  13.758
36170W        W 8496  41.002   1.284  11.582
36171W        W 8497  35.092   3.771  13.760
36172W        W 8498  29.366  27.060  14.734
36173W        W 8499  20.760  43.427   1.181
36174W        W 8500  38.566  42.958  11.410
36175W        W 8501  15.045  41.391   0.292
36176W        W 8502   3.503  44.069   1.774
36177W        W 8503   8.839  43.733  11.495
36178W        W 8504  20.357   2.472   2.230
36179W        W 8505  25.548   5.145  11.932
36180W        W 8506  35.346  12.550   0.544
36181W        W 8507  43.729   5.306   2.640
36182W        W 8508  25.049  14.918  11.812
36183W        W 8509   4.695  14.498   3.601
36184W        W 8510  24.110  15.132   1.949
36185W        W 8511  15.907  16.397  10.703
36186W        W 8512  23.463   3.012  14.950
36187W        W 8513   4.859  37.760   2.861
36188W        W 8514  33.142  41.086   1.646
36189W        W 8515  28.663  33.038   0.536
36190W        W 8516  18.456  37.431  12.078
36191W        W 8517  32.881  36.261  14.889
36192W        W 8518  39.533   7.715   0.403
36193W        W 8519  22.653  43.033   4.848
36194W        W 8520  29.047  40.113   1.924
36195W        W 8521  27.542  18.621  11.168
36196W        W 8522   9.828   1.443   1.808
36197W        W 8523  23.417  13.615   3.671
36198W        W 8524  19.075  33.128   0.841
36199W        W 8525   7.610  43.113   1.922
36200W        W 8526  38.669  19.203   4.280
36201W        W 8527  41.341  19.303  13.383
36202W        W 8528   2.450  14.763  14.770
36203W        W 8529  24.649  27.707   3.914
36204W        W 8530  31.865   5.925   0.125
36205W        W 8531  22.433   2.187   4.969
36206W        W 8532  28.607  30.075   0.453
36207W        W 8533  24.334  23.587   4.195
36208W        W 8534  43.069  39.997   2.753
36209W        W 8535  38.996   7.966  14.581
36210W        W 8536   7.177  32.044   2.806
36211W        W 8537   2.840  44.945  13.852
36212W        W 8538   8.240  31.586  10.529
36213W        W 8539  11.769  37.402   3.614
36214W        W 8540  37.744   8.677  14.542
36215W        W 8541  25.700  37.755  12.587
36216W        W 8542  32.440  24.242  13.556
36217W        W 8543  25.520  32.356   3.191
36218W        W 8544   2.712  25.455   4.956
36219W        W 8545  21.953  18.131  11.699
36220W        W 8546  38.906  33.156   0.046
36221W        W 8547   3.348  42.725  11.628
36222W        W 8548  42.744  41.924  12.921
36223W        W 8549   4.510  23.424   2.363
36224W        W 8550   4.193  41.760   1.763
36225W        W 8551   8.451  20.180  12.051
36226W        W 8552  14.338  12.131   4.534
36227W        W 8553   6.646  36.037  12.570
36228W        W 8554  20.770  19.310   2.858
36229W        W 8555  23.291  11.865  11.593
36230W        W 8556  26.424  27.611  12.335
36231W        W 8557  33.121  17.147   2.735
36232W        W 8558  33.771  33.849   2.795
36233W        W 8559   7.211  17.561  13.937
36234W        W 8560  38.186  20.207   2.485
36235W        W 8561  32.863  23.910  11.182
36236W        W 8562   2.817  15.193   2.787
36237W        W 8563  16.623  11.290   1.365
36238W        W 8564   0.379  20.043  14.435
36239W        W 8565  29.361  17.299  13.035
36240W        W 8566   9.872  35.850  11.493
36241W        W 8567  18.805  31.573   5.231
36242W        W 8568  38.919   8.020  13.003
36243W        W 8569  39.037   1.282   3.712
36244W        W 8570   8.695  36.259  14.341
36245W        W 8571   3.697  39.259   2.418
36246W        W 8572   9.409  28.552   0.279
36247W        W 8573  34.545  34.400   2.874
36248W        W 8574  28.227  12.938   3.703
36249W        W 8575  31.498  36.650  12.720
36250W        W 8576   0.846  14.194   1.408
36251W        W 8577  12.052   0.836   1.808
36252W        W 8578  32.048  20.222   0.222
36253W        W 8579  28.109   5.269   0.811
36254W        W 8580  31.685  32.370  11.380
36255W        W 8581  30.367   2.599  10.847
36256W        W 8582  43.549  28.391  12.356
36257W        W 8583  39.736  26.695  11.607
36258W        W 8584  34.375  16.800  12.067
36259W        W 8585  25.076  38.085  11.377
36260W        W 8586  38.250  39.361  13.051
36261W        W 8587   6.275  39.837  12.421
36262W        W 8588  31.040  22.074   3.383
36263W        W 8589  31.310  28.933  11.637
36264W        W 8590  13.630  25.325   3.690
36265W        W 8591  14.645  12.851   3.048
36266W        W 8592  39.830  42.037   4.067
36267W        W 8593   7.763  36.650  11.971
36268W        W 8594  22.519  35.975   3.247
36269W        W 8595   2.794  39.506   3.619
36270W        W 8596   4.497  16.230   4.552
36271W        W 8597  22.184  20.994   3.850
36272W        W 8598  13.939   0.870  12.676
36273W        W 8599  11.127  23.549   0.316
36274W        W 8600  25.594  40.621   3.421
36275W        W 8601  36.931  29.677   1.779
36276W        W 8602  18.646  26.069  14.342
36277W        W 8603  12.618  43.246   2.216
36278W        W 8604   3.827  21.727   9.853
36279W        W 8605   4.958  24.715  12.554
36280W        W 8606  39.894   3.510  11.711
36281W        W 8607  32.322  33.448  11.910
36282W        W 8608  21.345  39.434   3.625
36283W        W 8609  36.616  36.619  11.059
36284W        W 8610  32.631  12.562  14.822
36285W        W 8611  15.243   2.994  14.827
36286W        W 8612  20.524   5.316  14.799
36287W        W 8613   1.220  40.484  12.861
36288W        W 8614  33.671  18.673   2.349
36289W        W 8615   9.638  39.376  12.522
36290W        W 8616  15.811  19.326   2.223
36291W        W 8617  38.438  26.510  10.670
36292W        W 8618   9.633   5.318   2.074
36293W        W 8619  33.288  12.298   0.005
36294W        W 8620  44.078   2.368   3.719
36295W        W 8621  31.683  38.431  10.683
36296W        W 8622  23.109  22.246   1.724
36297W        W 8623  19.394  15.688  12.418
36298W        W 8624  12.429  22.818  11.527
36299W        W 8625  42.638  21.252  12.453
36300W        W 8626  21.772  36.629  12.001
36301W        W 8627  14.815  35.964   0.755
36302W        W 8628   4.658   7.177   2.244
36303W        W 8629  13.150   2.933  10.685
36304W        W 8630   8.331  43.999  13.995
36305W        W 8631   3.547  14.706  11.189
36306W        W 8632  16.999  43.777  14.694
36307W        W 8633  12.444   3.621  13.370
36308W        W 8634  12.640  16.611  14.681
36309W        W 8635   0.659  10.111   4.588
36310W        W 8636  24.106  36.368   3.555
36311W        W 8637  24.693  12.042   0.274
36312W        W 8638  27.789  41.082  11.082
36313W        W 8639  35.459   2.087  14.848
36314W        W 8640  44.906  39.550  13.456
36315W        W 8641  41.046  22.949   1.315
36316W        W 8642  28.682   1.676  11.174
36317W        W 8643  13.594  39.817  14.545
36318W        W 8644  41.044  25.957  11.461
36319W        W 8645  32.670   8.397   4.382
36320W        W 8646  43.825  17.168   3.818
36321W        W 8647  28.930  16.501   3.750
36322W        W 8648   4.452  28.014  11.437
36323W        W 8649  12.795  13.710  11.770
36324W        W 8650  16.913  10.160  13.881
36325W        W 8651  18.520   6.766   0.722
36326W        W 8652   4.974  15.770   0.753
36327W        W 8653  34.883  23.028  13.669
36328W        W 8654  32.318  29.170  14.314
36329W        W 8655  35.100  17.597   1.883
36330W        W 8656   3.481  34.429  12.886
36331W        W 8657  21.737  14.321   0.059
36332W        W 8658  38.357  33.327   2.000
36333W        W 8659  18.455  28.378   3.786
36334W        W 8660  38.333  43.378  11.191
36335W        W 8661  16.382  42.087  11.907
36336W        W 8662  33.579   7.911   0.298
36337W        W 8663  22.912  16.240   3.839
36338W        W 8664   9.438  15.388  11.919
36339W        W 8665  38.911  17.232  13.433
36340W        W 8666  36.736  44.783  13.066
36341W        W 8667   5.227  20.558   1.114
36342W        W 8668  34.568   1.710   4.646
36343W        W 8669  44.997   6.943  14.968
36344W        W 8670   6.953  18.839   3.095
36345W        W 8671  35.394  29.122  12.395
36346W        W 8672  41.020  15.110  14.919
36347W        W 8673   8.170  42.448   3.078
36348W        W 8674  16.234  22.499  12.967
36349W        W 8675  37.907  22.702  12.523
36350W        W 8676  30.515  33.911  12.009
36351W        W 8677  18.711   8.407   0.814
36352W        W 8678  11.241  39.032  11.856
36353W        W 8679  13.239  21.146  10.003
36354W        W 8680   3.575  41.794   2.280
36355W        W 8681  26.455   8.437   0.400
36356W        W 8682   5.589   8.945   1.323
36357W        W 8683  40.361  12.943   4.525
36358W        W 8684  15.766   0.297   2.118
36359W        W 8685  21.371   9.649   4.535
36360W        W 8686  42.453  33.376   1.843
36361W        W 8687  20.856  16.980   1.593
36362W        W 8688  33.855  43.934   2.267
36363W        W 8689  41.577  37.004   2.886
36364W        W 8690  33.137  38.933   1.896
36365W        W 8691  15.344  33.538  12.518
36366W        W 8692  18.527   3.788   2.946
36367W        W 8693  15.353  13.648  10.752
36368W        W 8694   6.983  33.904   4.621
36369W        W 8695  10.429   8.779   2.491
36370W        W 8696   7.328  23.320   3.649
36371W        W 8697   0.718  16.435  11.607
36372W        W 8698  21.438  16.158  14.484
36373W        W 8699  18.091  12.292  13.926
36374W        W 8700  21.960  13.725  11.443
36375W        W 8701  34.949  37.535  14.172
36376W        W 8702  15.173  39.700   2.146
36377W        W 8703   3.983  12.842   2.657
36378W        W 8704  29.406   3.523  11.900
36379W        W 8705  20.994   0.370   0.851
36380W        W 8706  43.652  24.880   1.263
36381W        W 8707   4.325   9.626   0.805
36382W        W 8708  29.218  16.293   0.498
36383W        W 8709   2.773  35.058  11.783
36384W        W 8710   9.946  38.460   3.553
36385W        W 8711  33.532  16.756   0.393
36386W        W 8712  42.887   2.171  12.498
36387W        W 8713  43.602  28.573  13.823
36388W        W 8714  32.188  22.002   1.674
36389W        W 8715  13.062  41.495   1.441
36390W        W 8716  27.025   1.789   4.678
36391W        W 8717   3.933  42.918   2.959
36392W        W 8718  10.495  37.373  13.853
36393W        W 8719  42.960   6.709  12.536
36394W        W 8720  38.383  13.247   2.213
36395W        W 8721  14.336  24.344   2.746
36396W        W 8722  15.044  29.616   1.336
36397W        W 8723  14.272  44.719  13.307
36398W        W 8724  29.588   4.849   4.656
36399W        W 8725  14.219  30.669  12.132
36400W        W 8726  30.386  33.518  14.930
36401W        W 8727  15.493  16.200  13.378
36402W        W 8728  12.534  35.829  12.085
36403W        W 8729  19.482  30.512  13.397
36404W        W 8730  31.662  37.935   4.722
36405W        W 8731  43.206  17.715  14.379
36406W        W 8732  24.242  15.811   2.255
36407W        W 8733   8.846  40.575   1.339
36408W        W 8734  22.695  43.075  14.923
36409W        W 8735  17.960  38.969  13.084
36410W        W 8736  44.293  20.492   3.735
36411W        W 8737  34.970   0.871   3.143
36412W        W 8738  21.407  28.198   1.726
36413W        W 8739  27.556  40.706  11.397
36414W        W 8740   1.286  15.530  13.947
36415W        W 8741  26.015  40.999  13.338
36416W        W 8742   9.233  14.859  12.011
36417W        W 8743  20.219  29.439  10.999
36418W        W 8744  23.698  39.277  11.388
36419W        W 8745   7.945  33.442   1.778
36420W        W 8746  29.207  21.304  12.378
36421W        W 8747   7.147  32.444  12.952
36422W        W 8748  32.604  37.130  13.962
36423W        W 8749  41.831  40.197   4.627
36424W        W 8750  30.105  38.338   2.801
36425W        W 8751  18.140  35.123   0.606
36426W        W 8752   1.299   7.166   1.848
36427W        W 8753  40.688  20.276   2.780
36428W        W 8754  12.025  18.691   0.692
36429W        W 8755  12.121  30.014  11.894
36430W        W 8756  42.790  24.078  14.562
36431W        W 8757  12.573  24.787  10.655
36432W        W 8758   7.289  44.417   2.729
36433W        W 8759  11.446   6.375   1.617
36434W        W 8760  18.665  34.830   1.708
36435W        W 8761  39.667  32.345  12.645
36436W        W 8762  34.609  37.089   9.852
36437W        W 8763  29.650  39.166   1.407
36438W        W 8764  20.328  32.093   0.916
36439W        W 8765  18.840  24.859   4.220
36440W        W 8766   0.277  33.924   3.470
36441W        W 8767  41.298  15.366  12.111
36442W        W 8768  42.821  21.032  13.833
36443W        W 8769   8.883  32.036  14.088
36444W        W 8770  26.185  36.932   2.642
36445W        W 8771  36.024  10.896  10.064
36446W        W 8772  35.822   1.442   4.650
36447W        W 8773  40.500  32.498   3.262
36448W        W 8774  24.617  44.085   4.877
36449W        W 8775   0.353   4.176  14.454
36450W        W 8776  36.310  34.795   9.761
36451W        W 8777  44.129  37.777   0.861
36452W        W 8778  24.083  39.398  10.153
36453W        W 8779  13.232  18.258  12.497
36454W        W 8780   4.814  36.329   3.338
36455W        W 8781   4.875  14.654  12.178
36456W        W 8782  21.676  23.593   4.617
36457W        W 8783  39.558   9.898   0.758
36458W        W 8784  27.721  17.362   4.643
36459W        W 8785   2.986  35.545   0.332
36460W        W 8786  42.997  26.946   4.701
36461W        W 8787  29.157   3.018  13.359
36462W        W 8788   1.290  24.126  13.464
36463W        W 8789  15.272   3.014  10.806
36464W        W 8790  34.556  21.885  13.006
36465W        W 8791   9.232   7.844  10.419
36466W        W 8792  43.107   4.237   5.104
36467W        W 8793  17.981  23.101   3.283
36468W        W 8794  42.232  14.817  13.077
36469W        W 8795  38.902   4.153  12.118
36470W        W 8796  28.175  37.451   4.163
36471W        W 8797   2.392  40.767  13.475
36472W        W 8798  15.120  13.525   1.654
36473W        W 8799  35.502  15.267   4.169
36474W        W 8800  11.301   2.542   0.237
36475W        W 8801   3.936  14.824  12.472
36476W        W 8802   5.942  37.999   1.837
36477W        W 8803  39.106  17.022   1.635
36478W        W 8804  25.810  30.428   5.185
36479W        W 8805  41.116  24.741  14.904
36480W        W 8806  16.588  27.879  14.060
36481W        W 8807  25.902  31.816  11.086
36482W        W 8808  37.962  20.141  13.538
36483W        W 8809  20.224  35.333   4.888
36484W        W 8810  31.858   4.249   0.574
36485W        W 8811  12.614  21.769   4.212
36486W        W 8812  21.027  18.677   0.419
36487W        W 8813   1.465   4.126  10.660
36488W        W 8814  44.775  40.877   3.692
36489W        W 8815  26.382  20.699  10.604
36490W        W 8816  38.370  38.554   0.058
36491W        W 8817   5.461  26.515   4.440
36492W        W 8818  33.933  41.237  13.803
36493W        W 8819   4.903  28.108  13.503
36494W        W 8820   6.343  22.202  14.402
36495W        W 8821  21.226  26.579  12.656
36496W        W 8822   3.485  26.262  14.324
36497W        W 8823  31.634  41.821   0.935
36498W        W 8824  27.916   5.241  11.483
36499W        W 8825  18.711   7.185  10.973
36500W        W 8826  36.805  27.989   3.328
36501W        W 8827  10.179  40.005  14.613
36502W        W 8828  38.365  36.127   0.414
36503W        W 8829  25.946   1.040  12.832
36504W        W 8830   6.345  26.171   1.385
36505W        W 8831  42.333   6.509  12.252
36506W        W 8832   5.924  19.201   1.431
36507W        W 8833  14.590   7.152   1.529
36508W        W 8834  16.614   9.170  10.604
36509W        W 8835  10.773   3.472  12.556
36510W        W 8836  13.959  36.663  13.917
36511W        W 8837  37.055  10.290   1.745
36512W        W 8838   5.989  17.273   0.277
36513W        W 8839   9.114  39.745  13.893
36514W        W 8840  22.068  37.261  11.597
36515W        W 8841   3.066   5.311  13.749
36516W        W 8842  31.298  15.469   1.261
36517W        W 8843  35.002  32.008  10.454
36518W        W 8844  35.042  27.117  11.962
36519W        W 8845  40.263  21.994  14.747
36520W        W 8846  11.720  43.718   3.345
36521W        W 8847  38.871  40.847  12.972
36522W        W 8848  44.390  30.026  11.461
36523W        W 8849  24.302  34.044  13.887
36524W        W 8850   3.955   5.617   4.165
36525W        W 8851  30.075  17.573  10.905
36526W        W 8852  13.637  28.483  14.245
36527W        W 8853  37.554  12.853  10.689
36528W        W 8854  12.822  41.345   4.573
36529W        W 8855  25.410  26.599   0.226
36530W        W 8856  36.962  34.785   3.337
36531W        W 8857  15.914   5.325   2.665
36532W        W 8858   9.810  34.955  13.482
36533W        W 8859  13.732  13.344  12.011
36534W        W 8860  19.669  25.916   4.123
36535W        W 8861   2.848   5.490  14.183
36536W        W 8862  12.514  14.580   2.827
36537W        W 8863  23.647  25.115   0.431
36538W        W 8864  42.598   0.431  14.851
36539W        W 8865  42.803   6.347  10.719
36540W        W 8866   4.645  35.000  12.399
36541W        W 8867  36.263  37.401   2.173
36542W        W 8868  27.403  16.123  14.530
36543W        W 8869  23.731  39.015  10.215
36544W        W 8870  40.497   8.880  12.367
36545W        W 8871  39.001  12.976  14.976
36546W        W 8872  31.503  44.448   1.199
36547W        W 8873  35.097  15.926  11.188
36548W        W 8874  36.499  14.735   0.459
36549W        W 8875  41.328  35.850   3.749
36550W        W 8876   5.726  13.674  11.153
36551W        W 8877  30.946  31.039  10.807
36552W        W 8878  21.764  29.455   1.282
36553W        W 8879  25.597  18.271   0.100
36554W        W 8880   0.519  22.463   3.282
36555W        W 8881  29.938  11.352  14.077
36556W        W 8882   5.739  23.054  12.604
36557W        W 8883  35.915  23.507   0.964
36558W        W 8884  30.483  34.494   0.193
36559W        W 8885  23.953   6.948  10.915
36560W        W 8886  10.896  39.361  12.136
36561W        W 8887  39.877   6.114   4.170
36562W        W 8888   0.026  21.850   0.276
36563W        W 8889  21.631  12.754  13.415
36564W        W 8890  37.522  40.089  10.503
36565W        W 8891  11.592   3.649   0.919
36566W        W 8892  21.471  18.862  10.984
36567W        W 8893  22.043   5.527  12.833
36568W        W 8894  19.052   4.223   2.431
36569W        W 8895  36.502  25.770  10.664
36570W        W 8896   8.417  15.653   4.054
36571W        W 8897  12.334  37.490  13.514
36572W        W 8898  44.274   9.190  13.988
36573W        W 8899  15.367   2.415   1.106
36574W        W 8900   7.861   1.906   1.182
36575W        W 8901   5.803  18.145  10.386
36576W        W 8902  43.562  17.996  11.518
36577W        W 8903  16.262  37.966   4.449
36578W        W 8904  11.250   5.244   2.831
36579W        W 8905  15.614  44.763   1.381
36580W        W 8906  19.666  44.976   3.557
36581W        W 8907  14.285  32.619   0.360
36582W        W 8908   0.121  14.353   0.952
36583W        W 8909  22.165  21.034  11.276
36584W        W 8910  27.813   7.918   5.154
36585W        W 8911  37.470  26.065  10.724
36586W        W 8912  36.117   9.098  11.276
36587W        W 8913   8.913  18.201   3.639
36588W        W 8914  37.826  35.400  12.894
36589W        W 8915  24.897  20.084   0.410
36590W        W 8916  12.231   2.209   3.585
36591W        W 8917  42.978  40.270  13.852
36592W        W 8918  13.781  40.750  11.908
36593W        W 8919  19.690  34.124   2.276
36594W        W 8920   5.377  14.181  11.094
36595W        W 8921  31.502  11.871   2.193
36596W        W 8922  16.519  16.710   4.564
36597W        W 8923  36.969  41.590  13.490
36598W        W 8924  11.138  22.676   0.463
36599W        W 8925  13.762  36.187   1.972
36600W        W 8926   5.500  18.781  11.655
36601W        W 8927  12.133  39.988   2.761
36602W        W 8928   9.544   7.901   3.164
36603W        W 8929  41.321  11.317   0.865
36604W        W 8930   5.286  15.698   3.160
36605W        W 8931   6.433  17.007   1.168
36606W        W 8932  20.219  25.388  12.834
36607W        W 8933  24.871   4.207   0.933
36608W        W 8934  33.537  27.113  13.421
36609W        W 8935  14.774  25.191   2.904
36610W        W 8936   2.344  20.629   0.822
36611W        W 8937   7.735  10.083   2.279
36612W        W 8938  36.441   4.718  10.682
36613W        W 8939  29.389  14.024   1.368
36614W        W 8940  23.023  10.861  11.462
36615W        W 8941  43.090   3.475  13.168
36616W        W 8942   2.642  12.255  10.608
36617W        W 8943  38.428   1.418  10.559
36618W        W 8944  17.254  19.539  12.823
36619W        W 8945   9.884  15.826   4.195
36620W        W 8946  25.208  20.690   1.472
36621W        W 8947  14.902  31.533  11.604
36622W        W 8948  10.427  14.349  10.692
36623W        W 8949  34.112  27.752   3.832
36624W        W 8950  26.317  18.755  12.966
36625W        W 8951   3.325   4.176   2.122
36626W        W 8952  15.908  22.048   1.692
36627W        W 8953  35.607   2.401  14.330
36628W        W 8954   9.825  11.270   2.893
36629W        W 8955  28.984  15.513  12.654
36630W        W 8956  25.750  22.959  13.960
36631W        W 8957  12.762  18.852  14.020
36632W        W 8958   4.470  17.990  13.633
36633W        W 8959  43.773  32.134  11.625
36634W        W 8960  18.877  24.761  10.949
36635W        W 8961  41.761  25.987   1.283
36636W        W 8962  27.550  10.801  14.077
36637W        W 8963  33.529  34.500  12.776
36638W        W 8964  12.749  25.295  10.615
36639W        W 8965  13.187  38.974  10.809
36640W        W 8966   9.259  35.018  11.984
36641W        W 8967   5.119   6.372  12.955
36642W        W 8968  40.288  13.090   3.212
36643W        W 8969  37.388   5.623   9.794
36644W        W 8970  32.680  20.785   1.892
36645W        W 8971  41.526  26.766  12.945
36646W        W 8972  20.001  11.386  13.741
36647W        W 8973  35.559  33.920   2.327
36648W        W 8974  27.615  19.387   0.336
36649W        W 8975  29.586   3.483  12.373
36650W        W 8976  42.094  10.745   4.152
36651W        W 8977  19.259  40.463  11.893
36652W        W 8978  41.811  39.293   3.658
36653W        W 8979  15.596  39.591  12.068
36654W        W 8980  40.475   1.984   2.133
36655W        W 8981  16.204  37.064  13.384
36656W        W 8982   6.910  11.936  13.512
36657W        W 8983  27.630  13.629   0.835
36658W        W 8984  10.855  25.563   3.927
36659W        W 8985   7.469  34.954   4.272
36660W        W 8986   9.644  23.232   1.292
36661W        W 8987  26.254  30.914   2.492
36662W        W 8988  44.933  20.206  12.321
36663W        W 8989  37.251  20.277  14.667
36664W        W 8990   7.410   1.814   1.441
36665W        W 8991  21.206  20.647   4.769
36666W        W 8992   0.486  30.835  13.718
36667W        W 8993   3.347   0.646   2.424
36668W        W 8994  24.451   4.434   0.698
36669W        W 8995   1.915   5.986  10.357
36670W        W 8996  10.767   0.871  12.486
36671W        W 8997  41.430  31.151  11.816
36672W        W 8998  16.240  41.424   3.887
36673W        W 8999  38.591  30.872  13.845
36674W        W 9000  36.023  28.019   3.780
36675W        W 9001  12.428  32.713   0.313
36676W        W 9002  37.148  36.242  14.767
36677W        W 9003  29.632   0.267   0.281
36678W        W 9004  23.626  39.564   3.110
36679W        W 9005   8.836  18.516  12.262
36680W        W 9006  14.781   0.995  12.315
36681W        W 9007  10.833  42.184   4.172
36682W        W 9008   6.399  41.613   0.283
36683W        W 9009  44.711  35.551   4.792
36684W        W 9010  32.770  14.167  13.151
36685W        W 9011  24.850  23.122   1.873
36686W        W 9012   7.756  27.356   3.195
36687W        W 9013  25.472  25.240   2.468
36688W        W 9014  31.478   9.186  13.842
36689W        W 9015  32.051   7.831   1.876
36690W        W 9016   8.782  40.444   2.624
36691W        W 9017  42.503  21.456  11.042
36692W        W 9018  23.948  44.005   2.750
36693W        W 9019  39.197  31.232   0.498
36694W        W 9020  14.134  18.784  10.634
36695W        W 9021  35.463  35.123  11.608
36696W        W 9022  23.016  21.982  14.121
36697W        W 9023   1.837  44.914  11.101
36698W        W 9024  11.686  34.432   4.821
36699W        W 9025  33.152  15.299   3.228
36700W        W 9026  21.402  28.622  14.218
36701W        W 9027  12.331   7.811  11.138
36702W        W 9028   4.143  13.233   4.535
36703W        W 9029  17.045  10.397   0.314
36704W        W 9030  13.321  27.562   1.487
36705W        W 9031   9.925   2.389  14.327
36706W        W 9032  21.495   5.675   2.697
36707W        W 9033  14.688   2.913   1.856
36708W        W 9034  18.356   0.237   2.404
36709W        W 9035  32.263  16.549   2.733
36710W        W 9036  21.101  41.037   2.360
36711W        W 9037  21.563  22.716   4.626
36712W        W 9038  10.371  29.535  14.786
36713W        W 9039  18.319  20.820  14.405
36714W        W 9040  33.357  12.283  11.928
36715W        W 9041   7.685   4.706   0.894
36716W        W 9042  36.490   1.770   0.857
36717W        W 9043  15.604  14.820  12.141
36718W        W 9044   6.416  30.698  13.621
36719W        W 9045   1.025  20.428   0.244
36720W        W 9046  23.919  44.934   0.801
36721W        W 9047  18.128  16.657  11.097
36722W        W 9048   4.514  21.392   4.841
36723W        W 9049  21.748  39.521  11.452
36724W        W 9050  15.250  14.656  13.947
36725W        W 9051  29.641  35.887   0.886
36726W        W 9052  31.434  30.473  11.640
36727W        W 9053  18.266  19.628   4.966
36728W        W 9054  31.511  11.609  13.952
36729W        W 9055   5.356   3.032  12.513
36730W        W 9056  19.083   5.888   1.219
36731W        W 9057  35.436  44.192  14.787
36732W        W 9058  34.899  26.572  11.530
36733W        W 9059  13.361  42.299  12.556
36734W        W 9060  30.713  33.906   2.958
36735W        W 9061  19.853   5.272   0.339
36736W        W 9062   1.060  25.819  11.483
36737W        W 9063  18.867   5.327   0.640
36738W        W 9064  14.771   5.733   0.969
36739W        W 9065  23.041   7.150   0.697
36740W        W 9066   6.683  29.022   2.717
36741W        W 9067  17.710   2.149  13.584
36742W        W 9068   8.867  21.257   4.040
36743W        W 9069   1.564   7.079  13.424
36744W        W 9070  34.267   7.827  14.835
36745W        W 9071  18.079  15.964   1.563
36746W        W 9072   3.781  44.362  12.000
36747W        W 9073  10.479  21.229   0.895
36748W        W 9074   5.317  33.638   2.908
36749W        W 9075   5.263  44.816   1.420
36750W        W 9076   5.267  40.406   2.206
36751W        W 9077  24.630  33.800  13.099
36752W        W 9078   9.882   7.099   3.698
36753W        W 9079  10.241  19.752  13.927
36754W        W 9080  42.504  10.234  12.911
36755W        W 9081  42.315  13.065  12.516
36756W        W 9082   5.139  22.105  13.067
36757W        W 9083   5.950   0.934  13.595
36758W        W 9084  40.944  40.802   3.425
36759W        W 9085  38.815  39.519   0.941
36760W        W 9086  38.764   2.001  13.071
36761W        W 9087  40.483  11.695  13.922
36762W        W 9088   3.609  29.097   1.866
36763W        W 9089   9.804  19.092   3.181
36764W        W 9090  13.319  10.144  13.920
36765W        W 9091  15.893  30.141   2.668
36766W        W 9092   9.676  10.328   5.002
36767W        W 9093   5.757  36.044   0.436
36768W        W 9094  20.591  41.725  11.076
36769W        W 9095  35.634  35.563  14.341
36770W        W 9096  34.344  35.554  12.940
36771W        W 9097  12.545  40.790  11.689
36772W        W 9098   9.810   4.886   2.378
36773W        W 9099   1.382  30.846   4.665
36774W        W 9100   1.105  41.863   4.115
36775W        W 9101  22.556  37.130   0.454
36776W        W 9102  31.640   4.581   2.729
36777W        W 9103  31.186   7.478   3.124
36778W        W 9104  35.618  40.327   3.206
36779W        W 9105  13.607   0.588   0.884
36780W        W 9106  24.920   6.716  12.483
36781W        W 9107  28.846  21.936  12.939
36782W        W 9108  20.010   1.078   4.258
36783W        W 9109  39.311  20.076   3.918
36784W        W 9110  25.518  21.945  14.763
36785W        W 9111  12.553  15.127  12.079
36786W        W 9112  10.635  43.251   0.040
36787W        W 9113  24.683   3.046   4.254
36788W        W 9114  44.035  16.612  13.299
36789W        W 9115  14.610  36.582  12.978
36790W        W 9116  26.916   0.458  13.951
36791W        W 9117  38.406  12.412   1.827
36792W        W 9118  11.230  19.660   4.768
36793W        W 9119  23.638   9.561  14.006
36794W        W 9120  23.459  25.854  12.103
36795W        W 9121  20.231   4.413   0.834
36796W        W 9122   4.062   2.405  11.681
36797W        W 9123   3.227  17.677  12.385
36798W        W 9124  36.395  18.577  14.380
36799W        W 9125  28.037  39.024   4.633
36800W        W 9126  11.907   4.927  13.530
36801W        W 9127   2.845  26.111   1.660
36802W        W 9128   7.506  26.348   4.137
36803W        W 9129   8.537  30.290  12.585
36804W        W 9130   1.268  41.194  12.602
36805W        W 9131   6.399   1.898   0.070
36806W        W 9132  22.505  26.157  13.741
36807W        W 9133  31.479   2.706   1.467
36808W        W 9134  38.972  13.986  11.072
36809W        W 9135  30.858  21.504  14.919
36810W        W 9136  25.126  32.136   1.783
36811W        W 9137  38.164  32.025   3.132
36812W        W 9138  37.589   8.858  11.355
36813W        W 9139  19.759  36.567   3.658
36814W        W 9140  29.368  33.900  13.933
36815W        W 9141  12.611  24.529  10.220
36816W        W 9142  14.999  18.749  13.834
36817W        W 9143  16.746   1.641   3.487
36818W        W 9144   0.416  34.132   0.256
36819W        W 9145  43.532   3.530  12.343
36820W        W 9146  26.783  26.719  14.456
36821W        W 9147  13.234  17.560  12.989
36822W        W 9148  25.461  24.538   2.863
36823W        W 9149   0.746  22.965  13.087
36824W        W 9150  14.465  34.210   1.352
36825W        W 9151  44.872  30.325  14.990
36826W        W 9152   8.221   7.977  14.247
36827W        W 9153   3.821   4.353   2.254
36828W        W 9154  44.706  28.085   5.183
36829W        W 9155   3.825  28.188   1.621
36830W        W 9156  10.740   7.237   4.471
36831W        W 9157  39.451   0.322  11.928
36832W        W 9158  41.030   6.359   1.863
36833W        W 9159  16.965   0.345   4.020
36834W        W 9160  29.978  12.161   0.513
36835W        W 9161  39.581  17.629   0.053
36836W        W 9162  24.541   5.098  13.964
36837W        W 9163   8.940  31.772   4.146
36838W        W 9164  40.499  16.970  11.639
36839W        W 9165  12.673  30.040   0.208
36840W        W 9166  28.581  44.847   1.623
36841W        W 9167   9.241  44.890   4.745
36842W        W 9168  17.040  44.314  14.052
36843W        W 9169  35.494  31.622   0.905
36844W        W 9170   0.402  10.032  13.905
36845W        W 9171   8.290  10.893   4.134
36846W        W 9172  32.065  21.335   0.239
36847W        W 9173  23.011  19.643   2.056
36848W        W 9174  29.531  23.848   3.693
36849W        W 9175  43.442  36.254  14.844
36850W        W 9176  39.626  28.133   3.731
36851W        W 9177  32.071  31.497   3.117
36852W        W 9178   9.612   9.842  10.438
36853W        W 9179  16.664  39.801   1.324
36854W        W 9180   4.334  38.859  14.734
36855W        W 9181  38.984  40.786   1.188
36856W        W 9182   4.932   3.215   3.746
36857W        W 9183  25.518  28.913   2.172
36858W        W 9184   8.244  39.017  12.016
36859W        W 9185  36.768   1.675  12.455
36860W        W 9186  22.830  33.246  14.237
36861W        W 9187  17.316  15.020   4.162
36862W        W 9188  42.064   7.459  14.903
36863W        W 9189  12.206  21.235   3.154
36864W        W 9190  10.418   1.304  13.355
36865W        W 9191  40.154  15.258  10.610
36866W        W 9192  42.209  22.162  13.899
36867W        W 9193  17.577  13.326  13.462
36868W        W 9194  17.257   3.186  14.916
36869W        W 9195   4.419  34.568   4.974
36870W        W 9196  31.180  21.747   1.343
36871W        W 9197  43.459  11.692   1.643
36872W        W 9198   6.427  21.048  14.603
36873W        W 9199  10.419  44.298   3.650
36874W        W 9200  12.752  28.146  14.248
36875W        W 9201  38.712  43.563   1.108
36876W        W 9202  10.725  41.549  10.517
36877W        W 9203   8.867  24.916  14.066
36878W        W 9204  14.755  31.441  10.706
36879W        W 9205  16.933   5.244   1.714
36880W        W 9206  28.190  15.703  12.798
36881W        W 9207  35.009  34.106  13.634
36882W        W 9208  22.645  19.637  11.671
36883W        W 9209   9.862  19.173   4.495
36884W        W 9210  42.874   3.930  11.972
36885W        W 9211  35.267  33.128  14.252
36886W        W 9212  39.505  42.278   1.396
36887W        W 9213  32.557  33.220  10.576
36888W        W 9214  43.910  30.872  12.161
36889W        W 9215  12.636   8.673   1.649
36890W        W 9216  44.905  41.367  13.417
36891W        W 9217  37.577   8.092  13.403
36892W        W 9218  18.729  26.627   3.725
36893W        W 9219  43.590  44.519  13.456
36894W        W 9220  37.188   6.502  12.896
36895W        W 9221   3.274  25.403   0.810
36896W        W 9222  43.808  23.398  11.443
36897W        W 9223  12.655  31.852   4.070
36898W        W 9224  13.316  14.295  12.684
36899W        W 9225  14.905  37.822   3.841
36900W        W 9226  20.886  39.816  10.114
36901W        W 9227  33.021  41.243  13.955
36902W        W 9228  15.678  15.797   0.803
36903W        W 9229  31.220   7.904  11.124
36904W        W 9230  40.053  29.100   3.732
36905W        W 9231  28.408  31.127  11.480
36906W        W 9232  31.112  30.926   1.442
36907W        W 9233  26.186  20.078   0.852
36908W        W 9234   9.871  29.735  13.472
36909W        W 9235  17.988  24.227   1.825
36910W        W 9236  12.113  44.374   0.882
36911W        W 9237   1.204  21.228   0.737
36912W        W 9238  31.226  22.961   1.848
36913W        W 9239   8.432   5.031   0.531
36914W        W 9240  12.612  38.525  14.895
36915W        W 9241  27.438  15.256  14.268
36916W        W 9242   0.269   3.683  10.556
36917W        W 9243  16.576   1.231   0.927
36918W        W 9244   6.918   1.914  12.783
36919W        W 9245   3.227  16.041  14.828
36920W        W 9246  42.051  32.422  10.763
36921W        W 9247  20.150   1.731  14.490
36922W        W 9248   7.440  36.913  13.139
36923W        W 9249   3.932   9.150   2.883
36924W        W 9250  10.325  15.676   5.142
36925W        W 9251  43.571  23.171  14.295
36926W        W 9252  15.006  37.590   4.314
36927W        W 9253  34.120   2.687  12.903
36928W        W 9254   9.232  18.824   2.522
36929W        W 9255   5.631  44.011  14.469
36930W        W 9256  10.303  10.317  13.015
36931W        W 9257  11.189  26.360   4.183
36932W        W 9258   9.209  11.851  14.365
36933W        W 9259  20.018  31.094  11.236
36934W        W 9260  38.520   8.173   2.889
36935W        W 9261  11.095   2.529   2.269
36936W        W 9262  16.558   4.882  10.888
36937W        W 9263  41.054  16.299   2.385
36938W        W 9264   8.150  10.859  14.019
36939W        W 9265  14.181  21.028   1.675
36940W        W 9266  18.889  29.957  14.869
36941W        W 9267   5.064  20.321   4.541
36942W        W 9268  17.584  23.685  11.732
36943W        W 9269  19.969  18.482   1.568
36944W        W 9270   5.451   5.970  12.955
36945W        W 9271   8.403  37.970  13.362
36946W        W 9272   6.498  33.519   3.881
36947W        W 9273  17.007  10.388  13.434
36948W        W 9274  20.635  17.646   1.042
36949W        W 9275  40.863  26.251  11.080
36950W        W 9276  26.138  17.355   9.848
36951W        W 9277  12.332  33.632   0.774
36952W        W 9278   3.760   4.438   0.361
36953W        W 9279  21.554  32.970  13.522
36954W        W 9280  16.788  40.846  14.094
36955W        W 9281  34.041   4.807  11.553
36956W        W 9282  31.430  30.167  12.629
36957W        W 9283   9.407   9.175   1.822
36958W        W 9284  25.008  44.441  13.519
36959W        W 9285  38.017  24.493  14.043
36960W        W 9286  21.786  39.917  11.100
36961W        W 9287   4.496  30.624  10.648
36962W        W 9288   5.041  10.557   3.650
36963W        W 9289  11.694  32.851   2.003
36964W        W 9290   8.281  32.090  14.544
36965W        W 9291  44.049  26.508  12.843
36966W        W 9292  41.596  18.601  10.844
36967W        W 9293   2.837  20.068   4.944
36968W        W 9294   6.374  14.771  13.594
36969W        W 9295  21.703  28.058   4.733
36970W        W 9296  18.163  11.020   4.402
36971W        W 9297   9.859  18.632  11.222
36972W        W 9298  33.374  15.859   4.226
36973W        W 9299   2.459  19.635  11.126
36974W        W 9300   9.117  29.398   2.122
36975W        W 9301  18.563  10.713  12.084
36976W        W 9302  10.672   1.440  11.533
36977W        W 9303  34.004  26.927  13.581
36978W        W 9304  28.476  20.483  14.644
36979W        W 9305  29.217  29.895   1.149
36980W        W 9306   5.745   4.678  11.682
36981W        W 9307   1.173  38.373  12.472
36982W        W 9308  35.917   9.598   1.136
36983W        W 9309  42.392   2.335   1.861
36984W        W 9310  12.204  10.378  11.170
36985W        W 9311  34.014   0.039  14.770
36986W        W 9312  44.073  27.709   2.817
36987W        W 9313   6.785  42.460  10.400
36988W        W 9314  15.609   5.495   2.292
36989W        W 9315  11.590   9.649  10.640
36990W        W 9316   7.706  10.600   2.173
36991W        W 9317  44.590  30.823  10.046
36992W        W 9318  43.357  16.988  11.578
36993W        W 9319  27.551  29.695   1.711
36994W        W 9320   4.362   1.501  11.427
36995W        W 9321   9.428   9.137  11.108
36996W        W 9322  35.089   7.200   0.550
36997W        W 9323  12.646  28.975  13.817
36998W        W 9324  38.030   8.875   3.688
36999W        W 9325  35.505  23.527   2.223
37000W        W 9326  35.119  11.194  11.090
37001W        W 9327  26.608   9.634  12.034
37002W        W 9328  24.501  38.293   3.200
37003W        W 9329  17.250  30.963   1.014
37004W        W 9330  39.919  27.381   0.932
37005W        W 9331   4.184  13.718  12.886
37006W        W 9332  18.639  29.345   3.593
37007W        W 9333  42.722  35.899  14.152
37008W        W 9334  31.173  27.220  11.795
37009W        W 9335  42.642  28.717  11.540
37010W        W 9336  27.966   2.709  11.237
37011W        W 9337  41.441  27.035   2.636
37012W        W 9338  28.373   0.277   0.743
37013W        W 9339  27.569  10.234   2.459
37014W        W 9340   5.915  12.571  12.157
37015W        W 9341   1.469  30.871  13.027
37016W        W 9342   0.983  39.351  14.469
37017W        W 9343  27.277   8.794   0.308
37018W        W 9344  38.219   7.473  12.117
37019W        W 9345   3.469  31.510   1.728
37020W        W 9346   7.884   1.341  14.214
37021W        W 9347  15.517   1.892   1.296
37022W        W 9348  27.034  19.608  14.976
37023W        W 9349   4.963  32.084   3.363
37024W        W 9350  11.393  26.453   9.528
37025W        W 9351   7.169   7.348  14.814
37026W        W 9352  20.853  29.138  12.528
37027W        W 9353   1.441  33.830  12.184
37028W        W 9354  36.396  26.290   1.129
37029W        W 9355  11.776   4.366  11.903
37030W        W 9356  39.148   4.886  14.291
37031W        W 9357  28.517  44.452   3.890
37032W        W 9358  20.170  27.112  14.974
37033W        W 9359   4.006  29.649   4.147
37034W        W 9360  32.827  38.034  13.019
37035W        W 9361   4.566  43.269   3.295
37036W        W 9362   0.465  40.944   1.354
37037W        W 9363  43.961   4.389   2.796
37038W        W 9364  23.575   4.627   1.375
37039W        W 9365  27.640   0.523   0.199
37040W        W 9366  14.307  40.131   3.367
37041W        W 9367  29.366  21.294  13.129
37042W        W 9368  12.674  13.326   3.248
37043W        W 9369   9.642   5.723  11.595
37044W        W 9370  15.183  15.010   3.624
37045W        W 9371  44.295  21.250  11.959
37046W        W 9372  25.542  29.619  11.735
37047W        W 9373  15.839  43.722   1.080
37048W        W 9374  43.989  28.125   4.090
37049W        W 9375  24.571  39.410   1.070
37050W        W 9376  19.764  12.829   3.497
37051W        W 9377  10.631  21.703  14.198
37052W        W 9378  34.072   0.750   3.686
37053W        W 9379  24.253   3.376  12.095
37054W        W 9380  27.111  40.585   1.212
37055W        W 9381   7.691   8.407   4.778
37056W        W 9382   9.542  38.373  12.463
37057W        W 9383   3.197  11.620   1.377
37058W        W 9384  20.449   0.933   1.283
37059W        W 9385  32.233  28.375  10.830
37060W        W 9386   3.916  15.591  14.823
37061W        W 9387   3.672  30.779  14.511
37062W        W 9388  24.691  11.397  13.956
37063W        W 9389   4.821  23.537  11.521
37064W        W 9390   6.898  11.822  12.108
37065W        W 9391  37.933  12.956   1.324
37066W        W 9392  19.518  36.046   4.259
37067W        W 9393  32.470  27.344   3.641
37068W        W 9394  34.661  14.936  12.116
37069W        W 9395   8.769  18.552  12.765
37070W        W 9396  26.518  15.264  11.243
37071W        W 9397  19.002   8.127   1.993
37072W        W 9398  30.875  38.867  10.597
37073W        W 9399   3.140   0.783  14.130
37074W        W 9400  27.037  37.116  12.394
37075W        W 9401  40.054  38.966  11.568
37076W        W 9402  18.676  33.869   3.379
37077W        W 9403  33.566   3.885   1.877
37078W        W 9404   4.070   1.341  10.583
37079W        W 9405  11.136  10.687   2.720
37080W        W 9406  22.624  27.951  12.486
37081W        W 9407  34.881  13.716  13.410
37082W        W 9408  20.261  16.526   2.342
37083W        W 9409  36.482  13.312  11.686
37084W        W 9410  32.746  27.267   0.013
37085W        W 9411  11.862  35.593   1.129
37086W        W 9412  14.748  43.632  14.538
37087W        W 9413  21.743  26.988   2.271
37088W        W 9414  15.901  29.540   3.206
37089W        W 9415  25.571  35.915  14.387
37090W        W 9416   9.147  32.192   5.062
37091W        W 9417  36.531   1.493  14.202
37092W        W 9418   2.161  39.500   2.359
37093W        W 9419  24.311  17.238   5.059
37094W        W 9420  34.852  36.518  14.917
37095W        W 9421  33.594   0.349  11.721
37096W        W 9422   7.128  27.712  10.540
37097W        W 9423   0.541  36.406  12.628
37098W        W 9424  10.122  32.612   4.921
37099W        W 9425  18.916  20.826   3.664
37100W        W 9426  19.860  21.598  10.740
37101W        W 9427  27.186  19.483  12.044
37102W        W 9428  10.162   6.962   2.363
37103W        W 9429  23.235  23.541   1.673
37104W        W 9430   4.186  12.845  13.152
37105W        W 9431  31.570  17.540   3.210
37106W        W 9432  41.950  25.880   1.767
37107W        W 9433  26.769   1.452   0.592
37108W        W 9434  39.587  37.308   0.516
37109W        W 9435  23.772  34.361   0.039
37110W        W 9436  15.251  42.489  10.364
37111W        W 9437   2.545  21.217  12.194
37112W        W 9438   2.787  26.594  13.807
37113W        W 9439  31.482   7.708   4.968
37114W        W 9440  23.999  27.450  12.497
37115W        W 9441  31.314  40.490   0.196
37116W        W 9442  40.405  39.267   1.908
37117W        W 9443  42.425  25.212  12.590
37118W        W 9444   3.274   2.352  12.042
37119W        W 9445   1.223  43.432  12.444
37120W        W 9446  18.861   5.770  10.296
37121W        W 9447  31.906  13.910  12.015
37122W        W 9448  22.597  40.078   5.564
37123W        W 9449  32.575   4.094   4.674
37124W        W 9450  18.869  29.548  11.078
37125W        W 9451  34.400  26.166  12.294
37126W        W 9452  18.925  20.089  12.106
37127W        W 9453  27.265  35.012   4.433
37128W        W 9454  42.233   5.654  13.896
37129W        W 9455   4.173  38.423  14.969
37130W        W 9456  10.853   7.574  14.889
37131W        W 9457  33.660  32.554   4.999
37132W        W 9458   8.242  17.394  14.608
37133W        W 9459  11.339  35.386   9.804
37134W        W 9460   1.381  29.578  11.151
37135W        W 9461   2.305   6.645  14.432
37136W        W 9462   5.648  42.361  11.602
37137W        W 9463  16.753  26.689  12.135
37138W        W 9464  12.730  13.881  13.968
37139W        W 9465  26.514  33.359   2.284
37140W        W 9466  41.903  35.212  12.862
37141W        W 9467  19.663  27.132  14.364
37142W        W 9468   3.826   6.591   3.210
37143W        W 9469  23.786  24.559  11.426
37144W        W 9470  15.727   2.282   1.886
37145W        W 9471  44.544  39.515  11.026
37146W        W 9472  20.088  13.134   4.726
37147W        W 9473  38.099   3.524   5.019
37148W        W 9474  42.543   3.847  13.929
37149W        W 9475   3.472  36.177  13.825
37150W        W 9476  37.169   3.870  14.447
37151W        W 9477  19.843  25.902  10.527
37152W        W 9478  36.718  21.656   2.301
37153W        W 9479   5.600  27.249  13.939
37154W        W 9480  31.865  29.630  13.394
37155W        W 9481   3.417  24.757  12.526
37156W        W 9482   7.028  12.644   3.740
37157W        W 9483  38.779  28.495   1.916
37158W        W 9484  30.680  16.247   1.903
37159W        W 9485   8.654   9.787   1.788
37160W        W 9486  38.327  41.161   2.346
37161W        W 9487  38.261  16.593  14.912
37162W        W 9488  11.428  15.149   4.517
37163W        W 9489  37.260  44.298   1.916
37164W        W 9490  23.277  43.623  11.255
37165W        W 9491  37.091  38.388  11.997
37166W        W 9492  20.494   8.749   4.019
37167W        W 9493  22.042  33.029  14.255
37168W        W 9494   7.064  30.590  13.852
37169W        W 9495  14.570  34.312  13.455
37170W        W 9496   1.933  25.587   2.340
37171W        W 9497   8.403  16.897  11.287
37172W        W 9498  16.486   5.919  14.374
37173W        W 9499   3.357  32.554   1.861
37174W        W 9500  38.963  18.543  11.058
37175W        W 9501  11.823   3.020  11.152
37176W        W 9502  23.998   4.935   4.687
37177W        W 9503   2.391  19.284   3.161
37178W        W 9504  37.674   5.522  11.390
37179W        W 9505  11.730  43.163   4.603
37180W        W 9506  32.665  17.274  12.900
37181W        W 9507   2.311  39.211  13.850
37182W        W 9508  42.899  41.509  14.576
37183W        W 9509  35.553   5.329  10.916
37184W        W 9510  29.784  23.610   0.347
37185W        W 9511  12.846  20.677   0.262
37186W        W 9512  13.186  42.152   2.669
37187W        W 9513  17.835   4.297  12.608
37188W        W 9514  14.456  39.868  12.744
37189W        W 9515  30.359  18.282   3.618
37190W        W 9516   3.870  14.668   1.691
37191W        W 9517  26.993  38.112  13.639
37192W        W 9518   0.896  17.181   4.296
37193W        W 9519  34.977  32.939  10.523
37194W        W 9520  36.112  18.594  13.961
37195W        W 9521   7.858  22.493   2.823
37196W        W 9522  33.048  16.393   2.016
37197W        W 9523  39.560  31.080  11.553
37198W        W 9524   5.267  11.298   2.822
37199W        W 9525  14.085  13.456   3.269
37200W        W 9526  14.784  31.706   2.382
37201W        W 9527  36.351  22.635   4.754
37202W        W 9528  25.204  10.618   2.591
37203W        W 9529  37.054   3.941  11.559
37204W        W 9530  12.378  15.203  13.546
37205W        W 9531   2.306  40.900  11.433
37206W        W 9532  33.900   8.340  13.462
37207W        W 9533  14.515  24.677   0.683
37208W        W 9534   0.351  34.061  14.316
37209W        W 9535  23.967  37.385  11.524
37210W        W 9536  20.605  19.794  13.065
37211W        W 9537   9.188   8.841   0.439
37212W        W 9538  35.452  16.160  14.831
37213W        W 9539   5.594  12.771  11.829
37214W        W 9540  17.037  23.971   2.716
37215W        W 9541   1.241  17.105   3.747
37216W        W 9542  11.564  24.561   5.248
37217W        W 9543  43.819  34.976   4.682
37218W        W 9544   1.950  43.234  10.567
37219W        W 9545  31.595   5.779   1.252
37220W        W 9546  36.659   3.900  10.335
37221W        W 9547  20.291  41.027   0.959
37222W        W 9548  22.238  34.393   2.184
37223W        W 9549   9.352  29.667   1.750
37224W        W 9550   8.188  32.664  11.544
37225W        W 9551  12.384  15.569  11.046
37226W        W 9552  26.510  19.160   1.141
37227W        W 9553  22.603  26.240  11.676
37228W        W 9554   6.896  38.976  13.604
37229W        W 9555   1.715  43.498   4.435
37230W        W 9556  18.655  41.296   3.249
37231W        W 9557  17.288  26.022  11.178
37232W        W 9558  22.002  44.364   0.393
37233W        W 9559  14.429  41.490   1.625
37234W        W 9560  24.844  16.612  10.227
37235W        W 9561  28.117  31.750   5.018
37236W        W 9562  39.011  44.749  13.465
37237W        W 9563   8.239  29.513   4.731
37238W        W 9564  22.263   8.346  11.225
37239W        W 9565  34.403   9.740  14.757
37240W        W 9566  33.166  11.693   0.763
37241W        W 9567  18.810  44.013   4.687
37242W        W 9568  27.512   5.358   0.974
37243W        W 9569  11.884  43.209  13.357
37244W        W 9570  11.855   4.900  11.171
37245W        W 9571  36.937  35.392  13.911
37246W        W 9572  14.774  14.741  14.964
37247W        W 9573  34.034  11.930   0.728
37248W        W 9574  25.699  44.647   3.540
37249W        W 9575  28.091   8.866   9.739
37250W        W 9576  13.588  39.018  11.145
37251W        W 9577  10.587  43.846   2.279
37252W        W 9578  25.028  20.748   4.264
37253W        W 9579  43.952   5.526   0.799
37254W        W 9580  13.293  33.177  13.861
37255W        W 9581  12.602  23.761  11.921
37256W        W 9582  22.558  18.633  12.887
37257W        W 9583   7.276  14.796  11.413
37258W        W 9584   2.754  24.952  12.572
37259W        W 9585   6.255  14.275  13.368
37260W        W 9586  43.998  15.054   3.833
37261W        W 9587  14.254  35.365   4.555
37262W        W 9588  23.245   4.337   0.428
37263W        W 9589   7.290  30.965  14.845
37264W        W 9590  16.125  20.670  13.219
37265W        W 9591  13.803   2.053  14.428
37266W        W 9592   8.004  30.615   3.992
37267W        W 9593  10.235  12.759   0.359
37268W        W 9594   4.450  20.834  13.156
37269W        W 9595   5.779  38.752  14.821
37270W        W 9596  39.519  15.050   1.900
37271W        W 9597  32.011  10.487   3.754
37272W        W 9598  10.709  38.375  12.168
37273W        W 9599   2.006  35.167   4.783
37274W        W 9600  10.593   2.009   3.756
37275W        W 9601   5.168  42.903  11.492
37276W        W 9602  38.819  16.965  13.867
37277W        W 9603  43.434  28.455   2.951
37278W        W 9604  30.806  43.147  13.211
37279W        W 9605  27.104  21.450  13.814
37280W        W 9606   7.859  42.815  13.633
37281W        W 9607   5.979  20.261  13.459
37282W        W 9608  35.076  27.225   0.778
37283W        W 9609  25.138  34.867   1.760
37284W        W 9610   4.966  21.986   4.060
37285W        W 9611  11.265  18.747  10.777
37286W        W 9612  29.551  12.355   0.761
37287W        W 9613  35.165   1.657   1.487
37288W        W 9614  39.009  10.617   3.200
37289W        W 9615  25.965  31.526  12.576
37290W        W 9616  39.978  10.835  14.777
37291W        W 9617   4.133  43.477   1.387
37292W        W 9618  35.651  23.218  11.806
37293W        W 9619  42.933  21.247  14.434
37294W        W 9620   0.872   3.534  11.682
37295W        W 9621  26.041  34.216  12.063
37296W        W 9622  25.667   9.228  10.708
37297W        W 9623  12.263  23.150  12.045
37298W        W 9624  20.268   7.687   3.696
37299W        W 9625   7.858   2.203  13.496
37300W        W 9626  43.423  12.552  11.914
37301W        W 9627   7.203  41.406  14.921
37302W        W 9628  33.006  42.896   3.250
37303W        W 9629  32.888   8.798  10.706
37304W        W 9630   4.893  38.901  14.692
37305W        W 9631  28.968  33.127  12.053
37306W        W 9632  35.822  33.926   3.765
37307W        W 9633  34.526  18.335   2.325
37308W        W 9634  42.558  18.550   3.417
37309W        W 9635   5.277  22.984  12.839
37310W        W 9636  17.834  39.863   4.592
37311W        W 9637   4.210   5.282  14.890
37312W        W 9638   3.471  30.556  13.548
37313W        W 9639  35.823   2.792   0.820
37314W        W 9640   5.532   9.566  13.944
37315W        W 9641  36.795  23.659  10.724
37316W        W 9642  38.125  20.530  13.926
37317W        W 9643  44.470  18.148   3.416
37318W        W 9644  38.677  34.884   2.718
37319W        W 9645  13.235  42.524  14.394
37320W        W 9646  15.171  13.809   2.522
37321W        W 9647   5.422  37.942  14.970
37322W        W 9648  12.336   1.815  14.580
37323W        W 9649  34.901  17.235  14.842
37324W        W 9650  28.597  41.226  13.801
37325W        W 9651  27.482  24.598   2.811
37326W        W 9652  34.179  18.286  13.579
37327W        W 9653  27.456  39.409   2.633
37328W        W 9654  19.776  24.403  13.347
37329W        W 9655  16.414  34.480   0.506
37330W        W 9656   1.356  38.543  10.923
37331W        W 9657   0.431  13.378  12.173
37332W        W 9658  14.005  36.655   2.378
37333W        W 9659   8.645  19.883   0.374
37334W        W 9660  37.157   1.217   3.298
37335W        W 9661  34.456  33.998  14.300
37336W        W 9662  13.078  40.426   1.853
37337W        W 9663   9.743   9.336   3.455
37338W        W 9664  42.862  33.510   3.793
37339W        W 9665   5.298  33.832  10.585
37340W        W 9666  25.583   6.261   0.702
37341W        W 9667   4.007  32.978  10.899
37342W        W 9668   1.526  29.097   4.824
37343W        W 9669  43.484  38.365   4.163
37344W        W 9670   8.080   3.315   3.283
37345W        W 9671  18.371  36.001   0.320
37346W        W 9672  17.349  24.607  12.040
37347W        W 9673  38.242  40.365   4.267
37348W        W 9674  33.442  35.284   5.543
37349W        W 9675  29.418  44.370   2.175
37350W        W 9676  12.297   2.463  10.713
37351W        W 9677  23.533  40.473   2.025
37352W        W 9678  26.578  22.138   2.307
37353W        W 9679  19.708  14.080  13.451
37354W        W 9680  42.602  26.027  11.667
37355W        W 9681  33.878  42.246  10.793
37356W        W 9682  28.826  19.974   1.922
37357W        W 9683   7.362   5.010  13.083
37358W        W 9684   1.150   4.119  10.251
37359W        W 9685  19.730   7.426   1.867
37360W        W 9686  29.040   8.727  13.036
37361W        W 9687  20.258  41.820   0.433
37362W        W 9688  39.949  43.776   4.485
37363W        W 9689  24.741  10.411   2.808
37364W        W 9690  15.810  11.273  12.269
37365W        W 9691   2.723  42.552   1.198
37366W        W 9692   2.522   5.833   3.768
37367W        W 9693   8.641  36.064   0.280
37368W        W 9694  30.369  14.296   1.409
37369W        W 9695  12.755  32.924   3.120
37370W        W 9696   4.904  43.077   4.114
37371W        W 9697  10.595  15.799  12.401
37372W        W 9698   7.346  21.697   4.662
37373W        W 9699  26.174  15.721   2.329
37374W        W 9700  41.744   4.837   1.936
37375W        W 9701   0.983  37.120   2.624
37376W        W 9702  32.109  33.509  12.382
37377W        W 9703  11.617  23.118   2.758
37378W        W 9704  32.839  31.557   4.848
37379W        W 9705  24.095   9.161   0.673
37380W        W 9706  33.344   5.208  11.168
37381W        W 9707  32.935  35.340   2.660
37382W        W 9708  41.009  25.986   3.339
37383W        W 9709  14.826  31.986  11.395
37384W        W 9710  35.019  18.983  12.012
37385W        W 9711   5.317  17.882   0.800
37386W        W 9712   6.774  37.509  11.631
37387W        W 9713  38.923  25.745   0.827
37388W        W 9714  12.308  36.125  12.858
37389W        W 9715  38.565  41.456   2.764
37390W        W 9716  29.409  10.216  14.764
37391W        W 9717   4.790  28.685   4.548
37392W        W 9718   8.241  34.374  11.138
37393W        W 9719  23.636  37.553   3.580
37394W        W 9720  10.799  14.070   1.206
37395W        W 9721  40.922  42.553  10.766
37396W        W 9722  41.362  35.373  12.409
37397W        W 9723  17.239  24.093  10.741
37398W        W 9724   6.334  28.620  12.965
37399W        W 9725  15.155  37.864  14.499
37400W        W 9726  14.132  29.019   0.865
37401W        W 9727  36.878  19.647  13.616
37402W        W 9728  23.968   1.378   3.719
37403W        W 9729  32.801   7.347  13.106
37404W        W 9730  20.243  11.741   3.848
37405W        W 9731  18.311  44.024   4.509
37406W        W 9732  40.169  37.894   4.925
37407W        W 9733  26.749  20.506   3.772
37408W        W 9734  37.342  43.752  11.972
37409W        W 9735  28.404  44.336   2.331
37410W        W 9736   1.965  32.309   1.363
37411W        W 9737  34.413  30.242   1.271
37412W        W 9738  18.293  42.622  13.154
37413W        W 9739  31.089  22.046   2.777
37414W        W 9740   0.250   3.865  11.773
37415W        W 9741  10.802  33.546  14.749
37416W        W 9742  25.775  11.101   2.335
37417W        W 9743   2.446  39.205  12.389
37418W        W 9744  13.562  36.526  14.203
37419W        W 9745  23.748   2.195   2.709
37420W        W 9746  30.071  19.254  14.537
37421W        W 9747  20.997  30.553   0.542
37422W        W 9748  15.296   9.595  13.388
37423W        W 9749  14.593  14.035   1.653
37424W        W 9750  24.101  19.057  10.429
37425W        W 9751  19.264  24.531  14.115
37426W        W 9752  35.148  39.015   4.115
37427W        W 9753  12.655  43.274   1.381
37428W        W 9754   2.870   0.786   3.294
37429W        W 9755  17.169  10.634  11.431
37430W        W 9756  39.935  36.817   3.174
37431W        W 9757  15.105  39.045   2.666
37432W        W 9758  41.317  19.615   0.948
37433W        W 9759  33.410   4.809  13.978
37434W        W 9760  10.117  43.554  13.392
37435W        W 9761  23.648  27.238   1.136
37436W        W 9762   5.360  30.423  11.119
37437W        W 9763  15.334  21.211   9.619
37438W        W 9764  34.770  34.041   4.617
37439W        W 9765  13.270  26.656  11.838
37440W        W 9766  19.126   8.941  13.476
37441W        W 9767  44.885  43.736  13.448
37442W        W 9768  37.637  12.792  12.449
37443W        W 9769  25.034   7.995   1.813
37444W        W 9770  18.725  19.025  11.140
37445W        W 9771  25.398  15.733  14.810
37446W        W 9772  16.176  19.859  11.583
37447W        W 9773   6.614  13.676  14.419
37448W        W 9774  35.058   7.712   2.692
37449W        W 9775  31.120  33.055  11.346
37450W        W 9776  20.248  29.916   3.730
37451W        W 9777  21.245  34.125   3.239
37452W        W 9778  34.348  25.741   0.400
37453W        W 9779  26.731   0.866  13.464
37454W        W 9780  38.479  31.389  13.895
37455W        W 9781  15.187  30.530  11.055
37456W        W 9782  20.527   7.381   9.839
37457W        W 9783   4.695  41.397  14.867
37458W        W 9784  22.618  14.005   0.719
37459W        W 9785  18.437  10.732   0.988
37460W        W 9786   0.863   5.598   2.327
37461W        W 9787  31.915  28.210  12.523
37462W        W 9788  37.532  29.947   0.555
37463W        W 9789  22.706   9.183   0.384
37464W        W 9790  13.779   2.714   1.546
37465W        W 9791   7.469  40.549   2.362
37466W        W 9792  15.327  14.784  12.587
37467W        W 9793  22.749  12.343   2.283
37468W        W 9794  33.327  27.587   0.891
37469W        W 9795  36.792  39.411  13.881
37470W        W 9796  35.512  27.700  12.670
37471W        W 9797  28.211  16.249   0.036
37472W        W 9798  20.166   0.279  12.393
37473W        W 9799  38.279  36.615  11.654
37474W        W 9800  29.481  13.602  14.250
37475W        W 9801   7.145  26.373  13.251
37476W        W 9802  28.983  22.104  10.659
37477W        W 9803  25.636  12.816  11.584
37478W        W 9804  25.344  21.687   1.824
37479W        W 9805  36.617  34.447   1.742
37480W        W 9806  39.534  31.097   3.210
37481W        W 9807  34.922  28.394  14.944
37482W        W 9808  37.934  23.618  14.321
37483W        W 9809  26.560   1.304   1.038
37484W        W 9810  42.982  13.238   0.592
37485W        W 9811   0.926  17.375  11.874
37486W        W 9812   1.244  18.648   3.077
37487W        W 9813  37.916  25.409  11.037
37488W        W 9814   5.858  30.902  10.680
37489W        W 9815  21.788  28.162   2.754
37490W        W 9816  32.851  44.953   1.357
37491W        W 9817  31.024  24.613  11.912
37492W        W 9818  29.634  11.712   2.308
37493W        W 9819  21.164  11.631  10.591
37494W        W 9820  36.543  31.353   1.843
37495W        W 9821  13.194  24.019   1.461
37496W        W 9822  16.704  20.314   2.163
37497W        W 9823  40.952   9.662   4.679
37498W        W 9824   1.224  27.889  13.231
37499W        W 9825  35.823  33.648  14.387
37500W        W 9826  32.635  37.013   4.674
37501W        W 9827  14.537   7.896  14.838
37502W        W 9828  15.564  17.168   2.178
37503W        W 9829   1.922   3.618   3.731
37504W        W 9830   3.765   6.924  11.153
37505W        W 9831  15.362  43.974  11.932
37506W        W 9832  42.962  17.389  14.803
37507W        W 9833  14.596  33.856  12.510
37508W        W 9834  21.177  11.288   1.845
37509W        W 9835  38.038  29.952   4.193
37510W        W 9836  11.897   5.647   0.244
37511W        W 9837  25.236  39.231  13.333
37512W        W 9838  40.695  22.427   1.311
37513W        W 9839  11.094   3.362   2.371
37514W        W 9840  43.787  16.606   0.740
37515W        W 9841   5.279  32.582  14.309
37516W        W 9842  30.146   3.375   0.809
37517W        W 9843  39.769  33.979  14.929
37518W        W 9844  36.087  11.291   1.195
37519W        W 9845  27.730  39.769   1.368
37520W        W 9846  29.105  34.156  10.669
37521W        W 9847  14.273   0.377   2.699
37522W        W 9848  17.152   1.930  11.544
37523W        W 9849  26.202  28.469  11.515
37524W        W 9850  13.332  25.051   1.872
37525W        W 9851  44.580  19.808   2.877
37526W        W 9852  34.716  32.677  11.681
37527W        W 9853  17.259  43.424   3.236
37528W        W 9854  25.403  13.382   2.218
37529W        W 9855  12.287   1.859   0.837
37530W        W 9856  15.046  24.058  12.445
37531W        W 9857  11.249  27.859  11.170
37532W        W 9858  30.675  43.509   0.530
37533W        W 9859  39.049  10.922  11.177
37534W        W 9860  25.870   3.299  13.403
37535W        W 9861  28.429  24.876  10.524
37536W        W 9862  19.469  19.264   3.893
37537W        W 9863  21.254   4.971  11.554
37538W        W 9864   2.493  31.538  13.421
37539W        W 9865  27.319   8.357   0.611
37540W        W 9866  42.716  42.003  11.100
37541W        W 9867  18.094  15.215  10.596
37542W        W 9868  19.941  27.481  11.067
37543W        W 9869   1.204  38.376   4.641
37544W        W 9870   8.689  44.312  10.629
37545W        W 9871  20.673   9.374   3.307
37546W        W 9872   3.723  35.969   4.983
37547W        W 9873  30.432  35.276   4.654
37548W        W 9874  17.102  34.993   2.899
37549W        W 9875  25.076   2.314  12.594
37550W        W 9876  19.975  22.055   2.337
37551W        W 9877   8.682  20.280  12.532
37552W        W 9878  12.318  10.725   1.907
37553W        W 9879  40.202  34.317  12.046
37554W        W 9880  10.906  42.543  13.503
37555W        W 9881  39.507  10.306  11.589
37556W        W 9882   4.758  41.465  12.639
37557W        W 9883  14.158  21.503   0.203
37558W        W 9884  20.547  27.455   0.722
37559W        W 9885  21.067  34.976  11.565
37560W        W 9886  33.091   4.753  14.466
37561W        W 9887   7.018   7.378   0.322
37562W        W 9888  20.026   0.236  11.183
37563W        W 9889  33.285  36.109   5.108
37564W        W 9890  41.197  12.114  14.359
37565W        W 9891  42.311  29.220   3.155
37566W        W 9892  13.396  33.811  11.141
37567W        W 9893   3.152  36.142  12.270
37568W        W 9894   9.897  35.004   3.065
37569W        W 9895   3.918  34.921  12.841
37570W        W 9896  39.635  36.473   1.654
37571W        W 9897  41.325   3.282   1.721
37572W        W 9898  35.870  38.418  11.909
37573W        W 9899  19.595   3.830  11.558
37574W        W 9900   9.822  39.112  12.074
37575W        W 9901  39.790  37.700  11.574
37576W        W 9902  24.551  40.045   0.442
37577W        W 9903  35.096  44.466   2.944
37578W        W 9904   1.183   0.140   2.205
37579W        W 9905  39.428  27.617   1.935
37580W        W 9906   7.671   0.019  10.667
37581W        W 9907  44.329  19.744  10.901
37582W        W 9908   7.198   5.093  13.688
37583W        W 9909   1.101   3.807  14.319
37584W        W 9910  26.394  40.898   1.432
37585W        W 9911   8.402   5.768  13.973
37586W        W 9912  30.242  39.881  12.862
37587W        W 9913  28.600  25.720   4.677
37588W        W 9914  43.854  21.622  13.078
37589W        W 9915  16.547  44.295  13.898
37590W        W 9916   3.129  32.372  13.108
37591W        W 9917  24.293  31.160   1.510
37592W        W 9918  34.396  32.106   0.410
37593W        W 9919  41.494   0.330  13.514
37594W        W 9920  39.470  29.076   4.595
37595W        W 9921  22.993  21.275  11.629
37596W        W 9922  11.875  35.620  14.101
37597W        W 9923  10.389  42.502   2.461
37598W        W 9924  39.441  17.118   2.203
37599W        W 9925   3.280  35.279   0.952
37600W        W 9926  30.631   0.888  10.285
37601W        W 9927  37.152  25.005  12.066
37602W        W 9928  23.540  29.286  13.106
37603W        W 9929  21.205  15.242  13.326
37604W        W 9930  28.248  38.454  11.700
37605W        W 9931  18.611  13.680  13.625
37606W        W 9932  30.680   3.305   4.404
37607W        W 9933  41.575   1.346   1.269
37608W        W 9934  25.303  22.325  14.274
37609W        W 9935  38.270  14.282   4.250
37610W        W 9936  11.781  41.142   4.212
37611W        W 9937  40.019  41.908   1.759
37612W        W 9938  22.479  38.468   2.633
37613W        W 9939  15.245  15.620  12.874
37614W        W 9940   4.686  20.066   0.730
37615W        W 9941  37.987  22.466  11.116
37616W        W 9942   2.286  41.070  14.407
37617W        W 9943  25.714  39.565   4.599
37618W        W 9944  33.345   5.227  14.473
37619W        W 9945  18.696  38.381   3.699
37620W        W 9946   2.363  42.463   2.333
37621W        W 9947  17.207  31.084  10.588
37622W        W 9948  44.306  30.221   4.512
37623W        W 9949   9.208  41.294   5.062
37624W        W 9950  17.017  33.963  11.583
37625W        W 9951  30.885  44.869  11.021
37626W        W 9952  29.956  43.274  14.513
37627W        W 9953  42.444  24.222  11.633
37628W        W 9954   3.078  31.145  14.062
37629W        W 9955  31.637  28.977   1.388
37630W        W 9956  31.616  22.191  14.079
37631W        W 9957  24.375  42.866   3.043
37632W        W 9958   8.673  22.478   1.324
37633W        W 9959  21.905  22.893   1.611
37634W        W 9960  30.541  20.081  11.038
37635W        W 9961   6.100  36.340  14.802
37636W        W 9962  31.217  21.031   3.412
37637W        W 9963  43.660   6.835   1.213
37638W        W 9964  42.964  19.541  14.061
37639W        W 9965  18.270  38.493   4.027
37640W        W 9966   1.069  15.891   0.927
37641W        W 9967   8.763  28.969  12.085
37642W        W 9968  21.531  24.042   4.317
37643W        W 9969   2.658  10.133   1.275
37644W        W 9970  21.618   8.436  14.959
37645W        W 9971  37.790  42.914  11.951
37646W        W 9972  20.501  35.330   0.674
37647W        W 9973  41.903  19.923   4.200
37648W        W 9974  35.854  21.215  14.967
37649W        W 9975  10.624  12.317   2.615
37650W        W 9976  42.226  17.153  12.065
37651W        W 9977  33.453  24.152   2.816
37652W        W 9978   7.267  24.501   3.152
37653W        W 9979  28.926   5.505  13.892
37654W        W 9980   1.726   7.130  10.453
37655W        W 9981  12.789  25.639   4.397
37656W        W 9982  35.202   2.753  10.645
37657W        W 9983   8.074   8.871  12.502
37658W        W 9984   4.272  41.719  11.692
37659W        W 9985  34.927  20.584   0.409
37660W        W 9986  21.074  39.585   4.638
37661W        W 9987  40.438  17.259   4.807
37662W        W 9988   2.511  29.230   0.245
37663W        W 9989  33.592  33.168  11.014
37664W        W 9990  44.939  27.512   1.684
37665W        W 9991  24.187  16.723   2.215
37666W        W 9992  13.601  38.912  12.408
37667W        W 9993  41.192  12.340   3.386
37668W        W 9994  40.372  26.201  13.594
37669W        W 9995  32.275  43.767  11.303
37670W        W 9996  15.899  37.492  14.322
37671W        W 9997  18.273  36.886  14.911
37672W        W 9998   6.761  12.751  12.320
37673W        W 9999  39.437  13.370  13.322
37674W        W10000  38.449  21.957   0.825
37675W        W10001   0.173  18.670   3.628
37676W        W10002  35.324  17.149  12.422
37677W        W10003  25.658   4.711  10.436
37678W        W10004  16.590  23.423  11.922
37679W        W10005  20.326   3.042  12.506
37680W        W10006   5.758  28.445  13.083
37681W        W10007  25.906  12.588  10.673
37682W        W10008  10.367  41.797   2.878
37683W        W10009   2.440  22.054   1.922
37684W        W10010  15.528  24.678  12.953
37685W        W10011  17.302  13.186   4.305
37686W        W10012  44.584  10.619   3.167
37687W        W10013  25.414  38.865  14.262
37688W        W10014  25.675   7.868  12.487
37689W        W10015  22.642  33.119   0.438
37690W        W10016  16.849  38.434  14.444
37691W        W10017  12.229   0.336  13.990
37692W        W10018  34.145  17.155  13.011
37693W        W10019   4.286  38.602  13.594
37694W        W10020  16.034  19.182   3.649
37695W        W10021  38.776   2.246   1.901
37696W        W10022  29.420  28.676   3.895
37697W        W10023  28.567  12.547  11.495
37698W        W10024  10.858  15.548  12.847
37699W        W10025  40.818   0.845  14.193
37700W        W10026  18.680   3.888   3.985
37701W        W10027  11.587   0.199   0.754
37702W        W10028  16.855   3.198   4.101
37703W        W10029   0.706  25.945   2.856
37704W        W10030  42.970   9.100   2.434
37705W        W10031   6.375  25.368   5.072
37706W        W10032  32.006  37.412   2.725
37707W        W10033  44.120   3.284   4.580
37708W        W10034  40.441  17.057   1.365
37709W        W10035  12.674  33.504   9.874
37710W        W10036  29.049  20.313   3.833
37711W        W10037  17.792  16.137   0.897
37712W        W10038  33.595   7.914   1.420
37713W        W10039  30.010   8.735  11.137
37714W        W10040   5.101  41.281  10.662
37715W        W10041  16.116  36.902  11.393
37716W        W10042  14.702   6.426  12.547
37717W        W10043  10.749  22.780   4.553
37718W        W10044  37.820  23.022   0.493
37719W        W10045  42.217  17.827  14.644
37720W        W10046  32.855  39.910  14.845
37721W        W10047  37.258  25.381  13.441
37722W        W10048  24.608  44.571   3.523
37723W        W10049  12.966   4.195  11.013
37724W        W10050  36.946   3.331  11.462
37725W        W10051  44.031   2.984  14.585
37726W        W10052  36.633  26.742   1.283
37727W        W10053  43.621  21.896   2.233
37728W        W10054  10.225   0.242   0.736
37729W        W10055  12.612  35.195  10.381
37730W        W10056  38.602  32.040   1.366
37731W        W10057  35.927  38.504  14.487
37732W        W10058   4.285   6.614  11.869
37733W        W10059  39.063  20.828   0.609
37734W        W10060  27.562   0.979   4.627
37735W        W10061  14.181   6.753   2.929
37736W        W10062   4.435  36.587  13.561
37737W        W10063  14.144  10.894   1.358
37738W        W10064   0.398   5.625  13.828
37739W        W10065  17.311  28.445   1.703
37740W        W10066  30.774  40.313  13.956
37741W        W10067  21.749   2.309   2.185
37742W        W10068  17.539  23.006  12.170
37743W        W10069  44.010  29.691   3.129
37744W        W10070   1.006  26.924   0.885
37745W        W10071  12.591  37.945  13.522
37746W        W10072  42.440  31.477   0.005
37747W        W10073  37.246  24.520   4.647
37748W        W10074  44.041   2.283  11.035
37749W        W10075  41.346  25.698   2.327
37750W        W10076   4.459  34.219  13.000
37751W        W10077  15.723   5.005  13.036
37752W        W10078  31.824  22.927   3.781
37753W        W10079  44.286  37.641   1.365
37754W        W10080  15.712  33.429  13.798
37755W        W10081  28.634  26.571  13.636
37756W        W10082  40.040  38.202  11.422
37757W        W10083  31.916  43.948   2.680
37758W        W10084  22.755  36.958  12.987
37759W        W10085  34.299  37.880   3.740
37760W        W10086  25.703  39.219  12.435
37761W        W10087  10.263  35.462  12.598
37762W        W10088  31.354  22.594  12.033
37763W        W10089  44.420  40.781   4.564
37764W        W10090  10.188  40.294   2.252
37765W        W10091  41.245  27.634  11.447
37766W        W10092  13.645   1.830  12.628
37767W        W10093  15.076  19.239  13.935
37768W        W10094  43.001   8.416   2.959
37769W        W10095  23.473  44.003   3.667
37770W        W10096   6.195  34.899   3.294
37771W        W10097  21.212  16.621  14.577
37772W        W10098  12.153  14.528  13.869
37773W        W10099  31.623  28.578   4.352
37774W        W10100  18.542  26.265   2.256
37775W        W10101  17.195   8.300  11.500
37776W        W10102  22.196  20.143   1.203
37777W        W10103  33.706  25.917  11.525
37778W        W10104  15.270  28.045  14.392
37779W        W10105   0.796  15.074  14.837
37780W        W10106  44.579   0.444   0.751
37781W        W10107  17.086   8.250  10.576
37782W        W10108   5.362  28.450  11.603
37783W        W10109  37.874   1.688  11.228
37784W        W10110   6.220  30.172  10.603
37785W        W10111   6.317   6.205   3.905
37786W        W10112  32.221   4.413  13.503
37787W        W10113  30.025  11.692  14.451
37788W        W10114  43.926   7.701  11.246
37789W        W10115  15.414  22.245   1.649
37790W        W10116  27.902   0.586  10.303
37791W        W10117  12.678  23.183   1.337
37792W        W10118  39.356  26.249  11.157
37793W        W10119  26.106   7.175  14.476
37794W        W10120  35.525  18.525   0.517
37795W        W10121   8.708  22.714   4.128
37796W        W10122  39.354  21.272   1.451
37797W        W10123  12.206  20.833   1.231
37798W        W10124  41.535   7.564   4.319
37799W        W10125  44.221  21.171   3.198
37800W        W10126  15.552   4.306   0.260
37801W        W10127  40.452  41.492  11.206
37802W        W10128  29.645  22.670   2.424
37803W        W10129   6.626  25.657   2.744
37804W        W10130  29.116   5.510   2.285
37805W        W10131  31.091  21.627   4.350
37806W        W10132   3.748  30.123   0.307
37807W        W10133  11.113  36.954  14.211
37808W        W10134  40.435   2.623  13.810
37809W        W10135  14.280   4.747  14.880
37810W        W10136  14.737   3.045   4.561
37811W        W10137  10.118   5.364   1.261
37812W        W10138  11.668   1.971   2.902
37813W        W10139   4.628  38.084  12.775
37814W        W10140  26.261   0.338   3.446
37815W        W10141  13.358  20.199  13.340
37816W        W10142  24.179  25.417  10.242
37817W        W10143  41.369  27.314  14.267
37818W        W10144  32.472  38.569   3.311
37819W        W10145  33.100  37.899   1.318
37820W        W10146  14.274  25.743   4.835
37821W        W10147  18.762  13.891   3.693
37822W        W10148  33.206  37.401  11.007
37823W        W10149   7.835   7.705  11.175
37824W        W10150  35.995   9.672   2.507
37825W        W10151   5.444  21.933   1.290
37826W        W10152  14.904  25.593   4.979
37827W        W10153  37.420   7.715  11.047
37828W        W10154   7.236   8.790   0.198
37829W        W10155  11.710  12.627  12.987
37830W        W10156  25.979  24.430   2.805
37831W        W10157  43.078   2.888   1.880
37832W        W10158  23.810  41.450  12.493
37833W        W10159  35.330  30.581  13.531
37834W        W10160  23.006  28.259   2.365
37835W        W10161  23.816  32.099  14.834
37836W        W10162  12.271   2.365  12.862
37837W        W10163  22.076  29.917  12.951
37838W        W10164  26.019  38.007  13.964
37839W        W10165   3.042  21.375   5.453
37840W        W10166   7.740  14.361  13.003
37841W        W10167  40.855  10.817   0.391
37842W        W10168  21.076  30.289   4.091
37843W        W10169  11.979  38.338   3.075
37844W        W10170  30.678  25.010  14.682
37845W        W10171  11.778   1.926  10.053
37846W        W10172  19.266  42.385  13.253
37847W        W10173   4.662  13.112  13.347
37848W        W10174  38.647  32.034  11.335
37849W        W10175  21.191  28.478   3.370
37850W        W10176  40.369  39.608   0.366
37851W        W10177  10.098  22.083  14.992
37852W        W10178   8.340  21.583  14.802
37853W        W10179   5.147  44.550   0.262
37854W        W10180  43.477   7.605  11.547
37855W        W10181  13.239   0.512   1.273
37856W        W10182   6.933  28.565  13.888
37857W        W10183  43.081   1.803   9.706
37858W        W10184  21.770   3.867  13.003
37859W        W10185  17.241  38.573  12.301
37860W        W10186   0.452  12.141  14.651
37861W        W10187   0.346  33.242  13.090
37862W        W10188  11.572  43.670   0.319
37863W        W10189  36.058   0.405   3.556
37864W        W10190  27.301  13.780   1.752
37865W        W10191  18.714   1.046   3.319
37866W        W10192   1.864   7.893  13.347
37867W        W10193  40.522  44.871   0.968
37868W        W10194  22.345  27.909  12.919
37869W        W10195   0.394  24.461   4.177
37870W        W10196  11.246   7.354   2.994
37871W        W10197   1.925  39.878  12.014
37872W        W10198  16.188   8.152  14.308
37873W        W10199  27.925  28.944  11.144
37874W        W10200  40.361  10.359  14.188
37875W        W10201   9.347  23.513  12.544
37876W        W10202   1.877  19.689  13.399
37877W        W10203  10.153  18.252   0.882
37878W        W10204  42.841  39.368  13.393
37879W        W10205  40.570  37.660   3.276
37880W        W10206   5.332  21.879   3.668
37881W        W10207   0.895  29.610   3.665
37882W        W10208  14.875  15.578  14.301
37883W        W10209  25.998  28.791   3.658
37884W        W10210  16.658   0.773   3.227
37885W        W10211   6.606  37.894  14.342
37886W        W10212  36.894  40.575   0.954
37887W        W10213  44.882  43.035  12.268
37888W        W10214  43.282  10.399   3.274
37889W        W10215   1.324   4.859   3.731
37890W        W10216  38.658   1.379  11.685
37891W        W10217  22.557  20.156  10.914
37892W        W10218  11.799   0.275  11.861
37893W        W10219   6.762   0.090  12.499
37894W        W10220  31.526  44.856  14.372
37895W        W10221   6.173  11.062   3.616
37896W        W10222  29.193  40.474   1.433
37897W        W10223  32.492  24.745  10.980
37898W        W10224  13.799  44.606  13.514
37899W        W10225   2.068  36.856  10.804
37900W        W10226   3.499  17.598   0.326
37901W        W10227  18.232  19.137   3.252
37902W        W10228  13.132  44.460   3.724
37903W        W10229  17.283  11.948   0.413
37904W        W10230   3.444   4.677   2.388
37905W        W10231   5.395  30.489   4.598
37906W        W10232   6.212  19.656   3.764
37907W        W10233  44.580   1.246  10.680
37908W        W10234  29.558  22.465  11.248
37909W        W10235   5.364  38.491   0.763
37910W        W10236  11.753  10.207   5.059
37911W        W10237  44.946  33.534  13.298
37912W        W10238  39.984  39.928   0.559
37913W        W10239  16.607   6.329  11.056
37914W        W10240  35.045  28.723   2.227
37915W        W10241  31.891  38.270  14.473
37916W        W10242   6.171  29.423   3.816
37917W        W10243  15.126   8.212   3.825
37918W        W10244  32.405   5.655  13.454
37919W        W10245   9.882  28.143   3.356
37920W        W10246  36.612  40.951   1.200
37921W        W10247  41.652  33.536  12.031
37922W        W10248  11.106   9.146   0.416
37923W        W10249   4.994  39.299   0.306
37924W        W10250  40.752  42.052   1.171
37925W        W10251  21.762   2.210   1.209
37926W        W10252   5.512  31.898  12.918
37927W        W10253  11.972  24.840  12.074
37928W        W10254  20.058  23.473   3.193
37929W        W10255   1.974  40.823   1.459
37930W        W10256  11.308  43.732  14.865
37931W        W10257   0.479   3.612   0.293
37932W        W10258  15.277  27.743   1.861
37933W        W10259  28.384  25.242   4.560
37934W        W10260  15.987  11.190   3.591
37935W        W10261  43.973  12.858  13.119
37936W        W10262  26.536   0.371  14.330
37937W        W10263  20.291  34.953  13.383
37938W        W10264  18.175   3.719   2.309
37939W        W10265  41.690  11.027  11.162
37940W        W10266  15.449   3.386  14.044
37941W        W10267  14.246  34.882  10.212
37942W        W10268  15.089  43.546   3.700
37943W        W10269  12.141   4.658  14.393
37944W        W10270  13.758   3.891   2.014
37945W        W10271  11.937  16.289  14.295
37946W        W10272  11.415  37.047   2.851
37947W        W10273  19.740   3.283   1.435
37948W        W10274  12.253  40.787   3.611
37949W        W10275  19.361  41.357   2.526
37950W        W10276  10.837  32.586  11.084
37951W        W10277   4.910  37.927   1.919
37952W        W10278  41.838  39.943  10.570
37953W        W10279  21.905  42.833   0.869
37954W        W10280  44.817  12.231   1.885
37955W        W10281  30.184  12.155   1.940
37956W        W10282  39.850  22.978  14.150
37957W        W10283  14.664  14.555   1.729
37958W        W10284   6.336   5.181  12.197
37959W        W10285   0.577  38.526  13.860
37960W        W10286  15.701   2.643  13.404
37961W        W10287   7.161  38.573  13.815
37962W        W10288  32.423  41.735  14.481
37963W        W10289  32.063  18.625   1.442
37964W        W10290   5.361  20.929   2.934
37965W        W10291  15.214  30.423   4.642
37966W        W10292  44.491  28.254   1.806
37967W        W10293  31.525  24.898  11.391
37968W        W10294  11.337  23.551  12.377
37969W        W10295   3.021   2.970  10.498
37970W        W10296   9.553  41.221   1.353
37971W        W10297  10.335  41.380  14.909
37972W        W10298  17.510  24.082  14.703
37973W        W10299  34.819  19.762  11.607
37974W        W10300  40.649  30.187  12.135
37975W        W10301  39.807  27.999  13.830
37976W        W10302  15.326  23.264  14.381
37977W        W10303  26.607  23.666  10.338
37978W        W10304  41.368   4.988  11.010
37979W        W10305  28.945  30.121   3.503
37980W        W10306  43.201   3.109  12.250
37981W        W10307  34.009  26.954   2.881
37982W        W10308  30.519  30.161   4.752
37983W        W10309  20.090  35.939  12.125
37984W        W10310  27.842  34.845   2.337
37985W        W10311  22.671  20.464   2.158
37986W        W10312  24.987  23.133   4.650
37987W        W10313  26.461  25.017   1.702
37988W        W10314  42.201  11.056   1.239
37989W        W10315  43.763  23.612   3.510
37990W        W10316  27.745   6.991   3.350
37991W        W10317  14.141  37.616   0.929
37992W        W10318  26.172  16.067   1.913
37993W        W10319   3.018  39.058  14.479
37994W        W10320  40.948  36.589  10.735
37995W        W10321  38.427  26.594  12.198
37996W        W10322   8.302   8.949   0.193
37997W        W10323  23.483  14.651   4.940
37998W        W10324  39.478  15.799   1.322
37999W        W10325   9.069  27.189  11.538
38000W        W10326  42.763  18.914  12.567
38001W        W10327  23.507  26.658   0.253
38002W        W10328  29.470  23.711   1.442
38003W        W10329   1.478  29.827   4.425
38004W        W10330  32.709  16.663  11.104
38005W        W10331   9.592  24.366   9.985
38006W        W10332   2.652  30.483  10.563
38007W        W10333  42.969  37.942  13.855
38008W        W10334  25.055  19.574   0.390
38009W        W10335  15.164  19.242  11.764
38010W        W10336  36.971  24.035   2.270
38011W        W10337  10.667  31.971  12.442
38012W        W10338   9.208   0.272  14.583
38013W        W10339   7.479  34.547   0.889
38014W        W10340  31.607   0.755   3.672
38015W        W10341  18.281  28.870  12.528
38016W        W10342   0.231  36.026  12.841
38017W        W10343  39.501  24.238   0.411
38018W        W10344  40.431  27.971   2.164
38019W        W10345  20.080   7.645   3.153
38020W        W10346   0.721  26.974  13.210
38021W        W10347  10.225  40.095  12.120
38022W        W10348  31.038   1.172  14.402
38023W        W10349   5.926   2.899  13.037
38024W        W10350  36.994  19.684   1.950
38025W        W10351  15.743  24.957   3.841
38026W        W10352  42.019  33.395  12.893
38027W        W10353  22.158  34.538  13.704
38028W        W10354  16.021   1.146   3.906
38029W        W10355  24.254  33.079  12.476
38030W        W10356  19.749  41.926  14.669
38031W        W10357  37.368  19.062  14.160
38032W        W10358  24.278  21.103   1.005
38033W        W10359  14.678  16.162   3.752
38034W        W10360  21.030   4.822  13.286
38035W        W10361  28.946  31.465   0.298
38036W        W10362  42.520  36.882   1.239
38037W        W10363  20.306  35.375  11.629
38038W        W10364  21.829  28.207   0.998
38039W        W10365  21.771  41.521   3.587
38040W        W10366  35.461  18.858   1.362
38041W        W10367  25.124  17.726   5.019
38042W        W10368   9.632  12.438  12.050
38043W        W10369  18.806   8.821   2.251
38044W        W10370  32.338  34.134  13.934
38045W        W10371  38.378   8.870  11.483
38046W        W10372  20.552  20.801  12.773
38047W        W10373  15.440  26.261  13.782
38048W        W10374  32.160  13.182   4.730
38049W        W10375  18.417  19.744  10.404
38050W        W10376  31.719  29.978  14.653
38051W        W10377   6.161   5.254   1.430
38052W        W10378  13.644  14.747  12.089
38053W        W10379   0.445  22.151  13.025
38054W        W10380   4.041   5.933   3.782
38055W        W10381  12.013  27.941   4.267
38056W        W10382   9.807  38.554  10.712
38057W        W10383  16.979  21.230  10.261
38058W        W10384   2.988  11.211  14.527
38059W        W10385   9.912  40.372   3.582
38060W        W10386  35.086  11.613   0.828
38061W        W10387  30.433  11.196  13.950
38062W        W10388  16.332   7.078   2.298
38063W        W10389   7.967  12.542  11.178
38064W        W10390   4.333  12.535  11.087
38065W        W10391  11.245  21.218  13.009
38066W        W10392  15.546  11.129  13.325
38067W        W10393   9.119  19.554   2.452
38068W        W10394  22.687  32.607  10.398
38069W        W10395   2.729  11.029   4.539
38070W        W10396  18.047  29.729  13.614
38071W        W10397  25.741  28.501   4.892
38072W        W10398  19.971  20.624   1.868
38073W        W10399  34.220  32.593  11.522
38074W        W10400  36.403  16.104  13.893
38075W        W10401  23.751  27.992  12.943
38076W        W10402  34.563  42.763  12.087
38077W        W10403  30.125   5.708  10.930
38078W        W10404  37.624  19.679  14.203
38079W        W10405  25.078  10.727   4.090
38080W        W10406  38.501  15.706   3.873
38081W        W10407   5.469   1.782  13.382
38082W        W10408  12.703  34.999   2.469
38083W        W10409  27.942  22.520  11.179
38084W        W10410  39.991   8.847   4.929
38085W        W10411   5.337   5.824   2.267
38086W        W10412  43.141  36.991  14.992
38087W        W10413  18.021  20.494  14.684
38088W        W10414   7.325  30.985  11.517
38089W        W10415   7.251  28.609   2.007
38090W        W10416  30.338  28.386  12.514
38091W        W10417  20.186  43.219  11.431
38092W        W10418   7.150   3.709  13.593
38093W        W10419  14.425  11.751  11.967
38094W        W10420   4.349  38.767   0.823
38095W        W10421  14.086   1.185  10.458
38096W        W10422   9.770  30.167  12.495
38097W        W10423   7.670  27.005  14.856
38098W        W10424  30.592  18.681   2.120
38099W        W10425  34.619  27.600  14.570
38100W        W10426   9.939  19.182   0.400
38101W        W10427  22.672   1.026   2.699
38102W        W10428  30.529  27.127  13.095
38103W        W10429  27.625  19.470   2.304
38104W        W10430   7.758  17.019   1.872
38105W        W10431  34.145   2.742   0.466
38106W        W10432  18.488   6.137   3.230
38107W        W10433  39.026  10.358   0.941
38108W        W10434  30.526   3.283  14.422
38109W        W10435  31.079  21.758  13.482
38110W        W10436  20.366   1.301  11.097
38111W        W10437  42.968  24.829  13.088
38112W        W10438  33.668  36.933  12.128
38113W        W10439  37.905  12.791   4.995
38114W        W10440  28.480  38.653   3.797
38115W        W10441  36.589   7.216  11.521
38116W        W10442  34.870  25.949  12.430
38117W        W10443  20.544  10.826  10.737
38118W        W10444  26.966  20.183   2.744
38119W        W10445  17.567  19.115  10.272
38120W        W10446  12.919  22.588  11.594
38121W        W10447  35.527  14.067   5.075
38122W        W10448  40.398  13.637  13.591
38123W        W10449  16.838  16.359   3.178
38124W        W10450  14.887  13.812   1.246
38125W        W10451  40.352  37.003   3.986
38126W        W10452   4.662   6.015  14.909
38127W        W10453   6.290  11.393  13.540
38128W        W10454   8.393  24.449   3.465
38129W        W10455  38.924   7.640   9.862
38130W        W10456  44.371  10.395   0.728
38131W        W10457  25.214   6.139   3.217
38132W        W10458  17.872  14.153   0.404
38133W        W10459  33.062   8.100   4.171
38134W        W10460  23.117  32.654  12.511
38135W        W10461  35.093  42.294   5.039
38136W        W10462  19.417  10.688  14.281
38137W        W10463  21.077  29.184  10.773
38138W        W10464   3.887  10.868  14.478
38139W        W10465   2.951  38.892  12.308
38140W        W10466  44.230  40.851   1.840
38141W        W10467  15.673  24.228  11.512
38142W        W10468  34.530  44.961  10.755
38143W        W10469  36.109   2.892  10.690
38144W        W10470  13.672  12.330  12.014
38145W        W10471   9.668  15.619   3.213
38146W        W10472   7.110  15.180   0.288
38147W        W10473   3.868  10.160  14.058
38148W        W10474  35.034  37.146   1.436
38149W        W10475  40.743  17.224  13.845
38150W        W10476  24.146   4.759  14.367
38151W        W10477   4.460   3.166   2.407
38152W        W10478  41.894  15.254  14.818
38153W        W10479  27.557  21.230  11.570
38154W        W10480  38.907  22.569  14.340
38155W        W10481  21.745  24.586  12.522
38156W        W10482  21.203  33.727  14.330
38157W        W10483   5.877  11.469   4.193
38158W        W10484   6.788  10.847  12.542
38159W        W10485  30.928   3.774  13.439
38160W        W10486  16.014  33.853  11.476
38161W        W10487  17.338  37.065   2.299
38162W        W10488  17.991  40.892  14.387
38163W        W10489  27.171  18.268  13.203
38164W        W10490  43.408  41.883   2.197
38165W        W10491  41.461  19.018  14.918
38166W        W10492   7.640  34.121  10.591
38167W        W10493  30.184   3.090  10.731
38168W        W10494  19.535  15.339   0.947
38169W        W10495  44.603  23.220  14.356
38170W        W10496  10.644  39.051  14.826
38171W        W10497  36.928  25.449  10.707
38172W        W10498  40.225  14.325   4.534
38173W        W10499  12.859   9.276   0.835
38174W        W10500  33.989   0.326   2.381
38175W        W10501  43.382  29.883   0.002
38176W        W10502  32.369  42.809   1.213
38177W        W10503   9.148  36.863  13.925
38178W        W10504  22.239   2.236   2.352
38179W        W10505  37.285  39.484  12.029
38180W        W10506  42.221  31.115  14.699
38181W        W10507  37.416  10.464   5.517
38182W        W10508  21.676  10.081   2.369
38183W        W10509  24.874  31.595   0.269
38184W        W10510  18.797  23.436  12.276
38185W        W10511   3.877  14.778  11.575
38186W        W10512  32.358   1.465   2.758
38187W        W10513  30.066  36.578   2.875
38188W        W10514  13.160  39.857   0.265
38189W        W10515  42.848  20.487   3.599
38190W        W10516  31.480  14.881   4.587
38191W        W10517   3.841   0.009   0.277
38192W        W10518  29.057   0.020  12.593
38193W        W10519  29.949   8.262  10.744
38194W        W10520  22.991   4.699   1.747
38195W        W10521  23.193   7.858   2.306
38196W        W10522   8.779  29.876  12.386
38197W        W10523  12.799  37.620  14.781
38198W        W10524  39.066  44.394   2.479
38199W        W10525   5.157   3.359  14.381
38200W        W10526  31.899  41.540  11.997
38201W        W10527   0.579   8.192  12.976
38202W        W10528  26.889  14.722   4.230
38203W        W10529  17.079  42.027  10.644
38204W        W10530  19.587   4.387   2.325
38205W        W10531  35.084  36.604   3.186
38206W        W10532  41.844  13.172  13.750
38207W        W10533  27.422  24.778   5.014
38208W        W10534  22.539  35.097   0.308
38209W        W10535  12.797  22.261  12.886
38210W        W10536  28.907   3.945  11.273
38211W        W10537  43.829   6.388   3.263
38212W        W10538  15.773  42.491  14.575
38213W        W10539  31.871   0.443   2.815
38214W        W10540  40.475  31.438  12.460
38215W        W10541  27.882   5.732  13.053
38216W        W10542  17.555   7.230   1.703
38217W        W10543  13.261  30.094  14.384
38218W        W10544  18.727  40.336   3.923
38219W        W10545  25.162  27.167  14.999
38220W        W10546   9.675  31.451   4.583
38221W        W10547  40.699   1.890  13.714
38222W        W10548   0.454  11.916   2.173
38223W        W10549  25.074  33.833  12.859
38224W        W10550  12.413  26.015  12.917
38225W        W10551   5.644  16.891  11.545
38226W        W10552  43.215  14.225   4.723
38227W        W10553   5.892  16.762  13.367
38228W        W10554  26.591  15.294  13.069
38229W        W10555  21.924  18.423   3.146
38230W        W10556  13.596  41.837  12.451
38231W        W10557  10.885  25.088   3.341
38232W        W10558  29.563  14.883   1.561
38233W        W10559   4.965  24.615  14.529
38234W        W10560   6.294  28.752  14.941
38235W        W10561  27.127  40.988  12.518
38236W        W10562   8.216  25.891  12.232
38237W        W10563  20.476   3.492  12.269
38238W        W10564  21.560  37.088   5.030
38239W        W10565  31.760  31.557  11.349
38240W        W10566  31.547   5.116  10.677
38241W        W10567  13.281   6.891  12.501
38242W        W10568  41.159   2.252  13.491
38243W        W10569   4.468  41.308   0.720
38244W        W10570  32.443   6.133  14.335
38245W        W10571  43.198   6.415  14.961
38246W        W10572  37.371  11.315  11.462
38247W        W10573  32.929  40.559   2.582
38248W        W10574  15.368  38.060   2.746
38249W        W10575   7.813   7.720  12.597
38250W        W10576   5.318  42.995   4.846
38251W        W10577  14.600  10.835   1.668
38252W        W10578   4.844  10.789  12.844
38253W        W10579  44.024  18.924  14.845
38254W        W10580  18.967  36.751   4.178
38255W        W10581  13.550  16.306   0.827
38256W        W10582   3.694  13.823   2.231
38257W        W10583  29.433  14.637   3.043
38258W        W10584   3.933  23.163  13.129
38259W        W10585  21.540   1.429   0.562
38260W        W10586  16.595   8.245  12.717
38261W        W10587  39.247   2.564   1.023
38262W        W10588  41.617  38.410   4.870
38263W        W10589  41.003  37.837   0.284
38264W        W10590   2.889  21.017   2.403
38265W        W10591  43.310  24.487  12.830
38266W        W10592  27.980  11.809  11.968
38267W        W10593  35.058  35.100   0.152
38268W        W10594  11.105   0.733   3.621
38269W        W10595   6.252  12.313  12.515
38270W        W10596  39.545   2.976  14.925
38271W        W10597  29.706  18.170   4.144
38272W        W10598  26.515  26.226  11.556
38273W        W10599  17.563  41.001   2.280
38274W        W10600   5.344   1.235  10.971
38275W        W10601  17.580  15.453   4.073
38276W        W10602   0.211   4.354   2.101
38277W        W10603   0.686   8.199  12.068
38278W        W10604   7.392  18.571  11.844
38279W        W10605  20.029  18.175   4.262
38280W        W10606  42.506  24.497   2.333
38281W        W10607  28.632  20.545   4.102
38282W        W10608  44.903  16.756   4.007
38283W        W10609   0.435  11.737   2.651
38284W        W10610  33.903   7.710   0.683
38285W        W10611   6.941   5.223   1.818
38286W        W10612  25.329  31.080   2.222
38287W        W10613   2.380  36.590   3.167
38288W        W10614   9.500  34.704  12.812
38289W        W10615  36.401  15.757  12.842
38290W        W10616  17.665  32.716   0.776
38291W        W10617  33.855  42.247  13.908
38292W        W10618  12.191  11.521  12.928
38293W        W10619   4.542   3.165   9.909
38294W        W10620  39.340  28.899  14.125
38295W        W10621  17.583   9.864   1.511
38296W        W10622  23.151  32.669  10.210
38297W        W10623  44.072  40.854   2.768
38298W        W10624  22.734   4.952   4.057
38299W        W10625  33.031   9.716  13.581
38300W        W10626  12.398  11.413  11.226
38301W        W10627  14.052  20.070   4.224
38302W        W10628  41.779  11.735  10.356
38303W        W10629  11.157  17.991  12.786
38304W        W10630  28.599  34.695  11.056
38305W        W10631   6.022  24.228   0.497
38306W        W10632  25.751   5.699  12.897
38307W        W10633  31.062  43.523  13.512
38308W        W10634   7.746  36.503  13.956
38309W        W10635  42.787  27.124  11.581
38310W        W10636   5.950  43.851  11.812
38311W        W10637  38.546  42.394  14.494
38312W        W10638  12.571  16.803  12.505
38313W        W10639  22.895  15.265   5.424
38314W        W10640  27.788   1.000  14.251
38315W        W10641  17.511   3.879  11.011
38316W        W10642   7.477  27.631   1.498
38317W        W10643  40.820   0.502   1.817
38318W        W10644  10.617  36.599   3.794
38319W        W10645  37.479   1.945   1.742
38320W        W10646   6.759   3.254  13.523
38321W        W10647   3.382   7.864  10.737
38322W        W10648  38.354  38.907   1.960
38323W        W10649  25.096  25.494   1.756
38324W        W10650  25.124  40.763   3.616
38325W        W10651  27.956  34.498  11.744
38326W        W10652  43.936  13.734  11.567
38327W        W10653  41.210  40.816  12.082
38328W        W10654  40.584   1.717   1.689
38329W        W10655   4.709   9.181  11.094
38330W        W10656  42.823  44.319  13.044
38331W        W10657  24.024  26.463   1.819
38332W        W10658  28.503  43.019  12.954
38333W        W10659  14.587  41.051  12.166
38334W        W10660  12.778   0.795   0.625
38335W        W10661  43.284  14.194  13.592
38336W        W10662  20.230  22.128   1.880
38337W        W10663  18.163   1.196   2.174
38338W        W10664  39.194  11.453  14.080
38339W        W10665  16.275   3.809   2.691
38340W        W10666  20.499   9.925  10.683
38341W        W10667  44.225  14.254  13.478
38342W        W10668  19.794  41.588   2.707
38343W        W10669   5.401  25.214   1.311
38344W        W10670  24.752  44.730  13.927
38345W        W10671  37.589  24.974  13.473
38346W        W10672  22.425  32.192  12.794
38347W        W10673  35.955  25.060   3.309
38348W        W10674  38.883   5.321  12.600
38349W        W10675  24.169   2.149  13.837
38350W        W10676  13.050  12.742   4.120
38351W        W10677  20.817  34.931  13.478
38352W        W10678  16.614  16.208  14.479
38353W        W10679  24.082  37.627   4.285
38354W        W10680  27.675   1.103   3.674
38355W        W10681   2.626  11.530  13.607
38356W        W10682  31.871  20.542  14.799
38357W        W10683  20.712  26.242  13.879
38358W        W10684  38.652  26.673  10.184
38359W        W10685  30.391  14.323  12.862
38360W        W10686  40.125  40.926   1.901
38361W        W10687  35.145   8.604   5.218
38362W        W10688  27.355  22.520   3.697
38363W        W10689  30.469  30.929   4.176
38364W        W10690  32.096  32.285  13.973
38365W        W10691  27.549  27.578   4.598
38366W        W10692   9.669   0.285   4.052
38367W        W10693  35.253  27.556   1.726
38368W        W10694  21.208  11.320   2.759
38369W        W10695  15.314  24.636   1.323
38370W        W10696  18.562   5.902  14.965
38371W        W10697  35.793  26.499  14.401
38372W        W10698  33.975  20.266   1.373
38373W        W10699   4.748  34.370  13.437
38374W        W10700   7.964  27.675   2.248
38375W        W10701  17.229  15.833  13.318
38376W        W10702  28.215  37.481   5.039
38377W        W10703   5.480   6.705   0.677
38378W        W10704  13.575   7.283  13.616
38379W        W10705  11.106   8.240  13.334
38380W        W10706   8.135  28.987  12.501
38381W        W10707  38.574  34.390   4.517
38382W        W10708   2.401  32.490   2.164
38383W        W10709   4.417   9.831   3.821
38384W        W10710  13.883   1.418   0.299
38385W        W10711  11.477   6.523   2.684
38386W        W10712  35.314  18.676   4.738
38387W        W10713  40.826  18.323   2.792
38388W        W10714  28.349  19.619  13.878
38389W        W10715  11.245  44.058  12.013
38390W        W10716  36.545  25.550   3.776
38391W        W10717  38.778  25.460  13.814
38392W        W10718   8.345  11.546  10.378
38393W        W10719  16.978  44.741  14.379
38394W        W10720  40.357  35.137  13.886
38395W        W10721  11.136  11.742   4.054
38396W        W10722  34.533   7.944   1.480
38397W        W10723  16.944  22.688  11.002
38398W        W10724  12.107   5.887  12.082
38399W        W10725  16.844  12.973   4.290
38400W        W10726   1.143  15.327  13.487
38401W        W10727  20.711  39.008   4.227
38402W        W10728   5.715  29.480   3.549
38403W        W10729   6.511  44.362  11.532
38404W        W10730  20.694  39.819  14.278
38405W        W10731  41.403  39.829   4.724
38406W        W10732  40.886  27.362  12.975
38407W        W10733  43.861  41.922   0.866
38408W        W10734  36.816   7.045   3.314
38409W        W10735  25.476   9.858  13.438
38410W        W10736  17.773  31.490  14.512
38411W        W10737  34.099  16.524  14.292
38412W        W10738   2.624   4.513  13.496
38413W        W10739   4.696  18.375   2.237
38414W        W10740   4.416  28.204  14.810
38415W        W10741   8.975  30.579  11.180
38416W        W10742  33.438  17.788   4.765
38417W        W10743  23.318  37.644  12.518
38418W        W10744  13.319  30.983  10.942
38419W        W10745  35.978  12.149   4.618
38420W        W10746  36.298  28.569   2.770
38421W        W10747  22.858  27.539  10.692
38422W        W10748  16.983  32.396   3.575
38423W        W10749  26.807  23.271   0.822
38424W        W10750   5.717  11.140   4.594
38425W        W10751   0.525   5.289  13.462
38426W        W10752  44.287  24.325   1.842
38427W        W10753  31.584  31.550   1.419
38428W        W10754  34.722  15.492  12.336
38429W        W10755   0.453  25.943   3.630
38430W        W10756  42.809  43.517  14.046
38431W        W10757   6.728  43.362  13.919
38432W        W10758  15.542  18.639   0.926
38433W        W10759  17.096   8.635   4.872
38434W        W10760   2.829   4.300   5.411
38435W        W10761  29.782   8.277   4.633
38436W        W10762  19.221  37.412  12.696
38437W        W10763  20.802  15.143   1.908
38438W        W10764   8.382  24.343  10.673
38439W        W10765  35.328  14.184  12.131
38440W        W10766  15.836  23.665  12.278
38441W        W10767   3.714  41.663   0.482
38442W        W10768  43.425  37.155   1.391
38443W        W10769   7.419  28.789  13.642
38444W        W10770  18.236  32.678   4.170
38445W        W10771  31.166   5.142   3.766
38446W        W10772  22.823  28.147  12.959
38447W        W10773  34.354  26.586  12.586
38448W        W10774  34.962   0.912   3.663
38449W        W10775   2.267   8.692  10.325
38450W        W10776  10.517  35.076  12.321
38451W        W10777  44.564  27.152   3.677
38452W        W10778  17.341  24.564  14.913
38453W        W10779  35.714  41.015  10.652
38454W        W10780   0.464   5.583   1.885
38455W        W10781   6.682  36.518   2.760
38456W        W10782   8.792  15.428  13.622
38457W        W10783  21.277  31.312   3.662
38458W        W10784   2.221  38.053  14.660
38459W        W10785  26.763  25.189   1.149
38460W        W10786   9.950  18.604   4.174
38461W        W10787  31.550  12.286  10.473
38462W        W10788  19.212   4.782  13.255
38463W        W10789  42.744  26.545   2.668
38464W        W10790  14.748  15.320  12.078
38465W        W10791  40.590  38.895  13.498
38466W        W10792  44.370   4.027  14.021
38467W        W10793  43.926  32.090   2.919
38468W        W10794  35.475   3.492   3.249
38469W        W10795   0.786  14.330   1.899
38470W        W10796   0.818  33.402   1.983
38471W        W10797   1.689   2.068  11.036
38472W        W10798  20.663  21.757   4.727
38473W        W10799  16.620  30.384  10.494
38474W        W10800  19.382  11.774   3.209
38475W        W10801  22.710  11.020   0.173
38476W        W10802   1.341  37.268  14.772
38477W        W10803  36.991  22.756  12.452
38478W        W10804  34.499  21.494   1.641
38479W        W10805  22.413  24.797   0.245
38480W        W10806  24.050  32.142  10.909
38481W        W10807  14.422  23.636   1.188
38482W        W10808  40.599   7.447   4.984
38483W        W10809  13.100  29.881  14.925
38484W        W10810   2.448  20.403  12.474
38485W        W10811  28.493  43.432   4.327
38486W        W10812  12.593   1.410   2.434
38487W        W10813  15.668   5.169  11.648
38488W        W10814  18.524  25.036   3.253
38489W        W10815  20.233  36.601   2.823
38490W        W10816   2.193  22.654  11.755
38491W        W10817  30.044  26.785   0.488
38492W        W10818   4.417  10.847  13.641
38493W        W10819   5.175   0.474   2.661
38494W        W10820  40.959  26.848   3.888
38495W        W10821  22.562  34.531  12.436
38496W        W10822  29.587   1.299   1.204
38497W        W10823   6.133  28.525   3.456
38498W        W10824  26.832  26.900   4.971
38499W        W10825  11.921  34.014   4.091
38500W        W10826   3.011   6.498   1.633
38501W        W10827  32.594  28.651   3.794
38502W        W10828   7.428  30.438  11.016
38503W        W10829  19.691  34.252   4.517
38504W        W10830   5.812  19.734  12.416
38505W        W10831  33.416   7.440  14.907
38506W        W10832   4.852  19.052   3.742
38507W        W10833  37.665   6.210   3.787
38508W        W10834  16.713  18.997  10.994
38509W        W10835  23.592  32.112  13.841
38510W        W10836  18.144  36.162  10.665
38511W        W10837  37.139  41.903   0.309
38512W        W10838  39.383  14.088   3.335
38513W        W10839  43.414  30.991  14.398
38514W        W10840   0.719  14.185  13.356
38515W        W10841  20.701  19.373  12.163
38516W        W10842  33.585  21.193   1.514
38517W        W10843  29.624   5.772  13.433
38518W        W10844  21.580  20.121  11.429
38519W        W10845   8.697   8.855   2.879
38520W        W10846  12.903  14.008  13.505
38521W        W10847  26.607  40.903   2.771
38522W        W10848  33.757  34.001   0.989
38523W        W10849   0.751  36.325   3.000
38524W        W10850   4.379  19.277   3.886
38525W        W10851  38.135  15.028  12.447
38526W        W10852  33.000  17.662   0.124
38527W        W10853  40.012  35.998  13.265
38528W        W10854  44.756  19.755  13.464
38529W        W10855  28.244  29.905  11.908
38530W        W10856  38.272  40.533  11.097
38531W        W10857  22.336  22.175   2.779
38532W        W10858  25.734  16.668  10.454
38533W        W10859  13.246  12.226  14.522
38534W        W10860   3.788  41.893   0.947
38535W        W10861   5.862  21.136  13.939
38536W        W10862  36.901  10.969  11.772
38537W        W10863   5.431   2.766   4.381
38538W        W10864  41.348  33.944  14.008
38539W        W10865  36.825  32.858   4.330
38540W        W10866  41.848  40.829  13.538
38541W        W10867  32.855  34.088  10.294
38542W        W10868  22.457  44.047   1.175
38543W        W10869  34.870  27.588  12.069
38544W        W10870  21.926   2.846   2.821
38545W        W10871  20.006  22.160   0.250
38546W        W10872   6.926  23.406   0.463
38547W        W10873   5.512  39.301   3.752
38548W        W10874   2.719  21.792  10.612
38549W        W10875  43.386  41.267   0.987
38550W        W10876  39.535  10.748   3.189
38551W        W10877   3.431   2.007  12.450
38552W        W10878  40.238  19.255  12.664
38553W        W10879   7.699  32.917   1.742
38554W        W10880   6.262  16.001   3.357
38555W        W10881   8.159   1.762   2.271
38556W        W10882  35.312   4.771  11.178
38557W        W10883   0.934   1.195   0.689
38558W        W10884  12.719   6.459   4.617
38559W        W10885  20.167  32.384   3.668
38560W        W10886  39.063  35.333  12.293
38561W        W10887  12.812   7.906   2.361
38562W        W10888  25.639  25.019   2.907
38563W        W10889  26.266  41.652  13.683
38564W        W10890  20.260  34.461  10.689
38565W        W10891   6.109  39.339  12.367
38566W        W10892  33.860  28.280   1.875
38567W        W10893  18.004  36.125  14.534
38568W        W10894  42.819  21.593   2.744
38569W        W10895  42.493  28.479  12.812
38570W        W10896  28.718  21.089  10.572
38571W        W10897  32.945  36.745  12.580
38572W        W10898  30.683   5.074   4.620
38573W        W10899   0.300  20.292   0.727
38574W        W10900  44.197  41.531  10.301
38575W        W10901  20.439   1.791  10.275
38576W        W10902  36.238  21.284   2.133
38577W        W10903  34.506  34.078   2.389
38578W        W10904  39.941  33.666  14.548
38579W        W10905  31.606  15.205   3.896
38580W        W10906   8.910  33.074  11.821
38581W        W10907  41.875  32.795  14.954
38582W        W10908   7.863   9.432  11.164
38583W        W10909  20.810   6.386  11.985
38584W        W10910  23.739   7.830   0.379
38585W        W10911   4.413  23.531  11.174
38586W        W10912  26.051  14.719   2.427
38587W        W10913  39.446  39.576  14.200
38588W        W10914  26.223   6.917  12.819
38589W        W10915  28.686   0.696   0.756
38590W        W10916  30.449   4.947   1.183
38591W        W10917  25.825  26.126  10.518
38592W        W10918  40.006  36.403  11.134
38593W        W10919  44.041  34.423  12.334
38594W        W10920   9.367  13.122  13.533
38595W        W10921  15.868  12.607   2.178
38596W        W10922  17.036   8.149   4.637
38597W        W10923  35.213  28.387  11.710
38598W        W10924   0.593  38.849   3.705
38599W        W10925  39.149  13.774   2.358
38600W        W10926   2.597  36.962   4.617
38601W        W10927   6.605   4.865   3.214
38602W        W10928  37.840   9.985  14.658
38603W        W10929  37.580  28.561  11.386
38604W        W10930  36.123  12.824   4.171
38605W        W10931   4.392  33.920  11.594
38606W        W10932   6.893  33.992   1.465
38607W        W10933  44.207  34.518   2.903
38608W        W10934  12.798  43.757  14.071
38609W        W10935  44.303   4.198   4.169
38610W        W10936  40.282   0.413  13.261
38611W        W10937  32.689  16.801   1.976
38612W        W10938  28.624   1.217   0.752
38613W        W10939  13.023   9.191  11.249
38614W        W10940  13.625  36.891  11.448
38615W        W10941  24.632  14.834  13.244
38616W        W10942  26.528  12.876  14.341
38617W        W10943  44.982  31.551   2.345
38618W        W10944  12.259  26.667  13.719
38619W        W10945  39.413  44.938   4.299
38620W        W10946  43.444  37.018  13.685
38621W        W10947   5.977  18.245  12.569
38622W        W10948  30.903  38.373  11.976
38623W        W10949  17.247  14.629  14.838
38624W        W10950   5.167  28.707   2.259
38625W        W10951  31.431  18.272  13.414
38626W        W10952  25.169  10.630   3.606
38627W        W10953  13.110  24.698  13.275
38628W        W10954  36.433  16.302   0.896
38629W        W10955   7.793  37.757   5.037
38630W        W10956  10.433  36.913  13.421
38631W        W10957   9.342  37.738   3.106
38632W        W10958   2.228  44.842   0.967
38633W        W10959  31.156  35.021  12.866
38634W        W10960   4.357  19.753   4.201
38635W        W10961   7.875   4.420   0.493
38636W        W10962  23.196  21.773   0.563
38637W        W10963  13.915  19.373  12.265
38638W        W10964   4.187  22.764   3.576
38639W        W10965  14.554  20.267  14.927
38640W        W10966   3.389  41.817   3.620
38641W        W10967   5.766  37.021  10.789
38642W        W10968  40.374  37.776  14.921
38643W        W10969  35.099   5.937   0.938
38644W        W10970  12.722  11.012  13.816
38645W        W10971  23.040   6.706   0.933
38646W        W10972  15.841   5.375   1.463
38647W        W10973  20.081   1.429  11.494
38648W        W10974   0.268   4.631  14.734
38649W        W10975  13.616  16.517   1.479
38650W        W10976  21.370  30.391  11.570
38651W        W10977  13.793  35.525  10.612
38652W        W10978   5.367   0.552  10.190
38653W        W10979  17.302  21.193   3.301
38654W        W10980  40.079   4.492   0.403
38655W        W10981   5.889  38.944  10.609
38656W        W10982  10.886  22.109  10.597
38657W        W10983  40.519  11.308   3.416
38658W        W10984  27.404  22.616  13.352
38659W        W10985  32.576  33.842   0.256
38660W        W10986  29.964  40.285  13.083
38661W        W10987  19.611  11.561  12.887
38662W        W10988  36.922  11.824   1.551
38663W        W10989  12.298  29.563   2.420
38664W        W10990   2.169   9.499  12.658
38665W        W10991   2.154  33.454   5.134
38666W        W10992  44.991  41.363   3.633
38667W        W10993  36.873  36.336  13.294
38668W        W10994  23.444  33.575  13.458
38669W        W10995  25.206  24.147   0.447
38670W        W10996  41.880  35.038   4.833
38671W        W10997  33.824  42.231   4.045
38672W        W10998  28.725  41.515   2.909
38673W        W10999   3.600  17.689  13.437
38674W        W11000  12.089  40.274   4.859
38675W        W11001  39.394  19.719   4.722
38676W        W11002   2.689   0.896  14.946
38677W        W11003  43.806  37.810   1.287
38678W        W11004  34.664  43.538  13.883
38679W        W11005  25.104  29.088   0.024
38680W        W11006  15.608  37.305  10.817
38681W        W11007   8.333  14.327   1.735
38682W        W11008  21.817  42.961  13.719
38683W        W11009  22.061  29.445   3.282
38684W        W11010  19.376  18.012  14.754
38685W        W11011  21.185   6.168   4.161
38686W        W11012  38.306  30.033   1.451
38687W        W11013  31.003  34.443  12.632
38688W        W11014  32.624   0.952  10.791
38689W        W11015  28.084   1.328  12.543
38690W        W11016  32.935  35.257  11.138
38691W        W11017  16.029  13.217   4.956
38692W        W11018  32.362  21.337  11.114
38693W        W11019   6.200  40.660  12.105
38694W        W11020   7.713  40.413   4.998
38695W        W11021   6.819   4.448   4.192
38696W        W11022  35.130  42.637  14.980
38697W        W11023  32.508   2.142   2.283
38698W        W11024  30.391  19.777  13.129
38699W        W11025   1.008   9.387   2.211
38700W        W11026   6.963  35.380  11.895
38701W        W11027  30.006  23.866  13.570
38702W        W11028  35.783  37.575  12.360
38703W        W11029  11.919   9.589   4.162
38704W        W11030   0.159   0.874  12.786
38705W        W11031  24.536  37.172  11.984
38706W        W11032  27.119  21.257   2.615
38707W        W11033  44.234  42.012  11.674
38708W        W11034  43.775  18.683   0.218
38709W        W11035  43.327  44.963   4.694
38710W        W11036  29.692  17.716   2.394
38711W        W11037  28.362  36.603  10.663
38712W        W11038   7.383  39.393  12.783
38713W        W11039  13.063  19.543   4.544
38714W        W11040  33.148   3.802   0.387
38715W        W11041  31.119  16.873   1.431
38716W        W11042   2.320  21.767  11.332
38717W        W11043   2.777   1.432   2.435
38718W        W11044   2.953   3.421   3.869
38719W        W11045  38.558  39.252   2.801
38720W        W11046  29.417  39.838  11.994
38721W        W11047  34.870  28.547   3.561
38722W        W11048  32.457  20.265   4.870
38723W        W11049  44.806   1.356  14.959
38724W        W11050  36.299  43.054   4.454
38725W        W11051  16.135   2.461   4.472
38726W        W11052   0.978  38.020   0.299
38727W        W11053  22.775  39.662   5.288
38728W        W11054  13.785  23.475   0.901
38729W        W11055  29.071  13.569   1.792
38730W        W11056  12.532  35.521  10.772
38731W        W11057  41.608  28.034   1.081
38732W        W11058  15.124   0.967   1.362
38733W        W11059  24.668  36.634   1.442
38734W        W11060  32.053  16.600  12.596
38735W        W11061  20.773  16.008  11.786
38736W        W11062   1.910  15.688  12.571
38737W        W11063  30.366   8.552  14.749
38738W        W11064  17.646  11.620  12.017
38739W        W11065   6.299  42.378  14.949
38740W        W11066  12.837   3.327  10.832
38741W        W11067  31.332  42.823  10.941
38742W        W11068  11.411  25.467   1.702
38743W        W11069  39.981   1.785   4.713
38744W        W11070  37.431   4.681   0.399
38745W        W11071  34.337   2.159  12.121
38746W        W11072  27.028  20.222   1.391
38747W        W11073  20.485  14.789  14.786
38748W        W11074   0.454  18.625  12.109
38749W        W11075  15.764  11.173   1.741
38750W        W11076  41.259   6.322  14.010
38751W        W11077  10.053   1.418   3.162
38752W        W11078  37.060   1.032  14.806
38753W        W11079   5.763  44.330   4.616
38754W        W11080   1.800  35.686  13.562
38755W        W11081  15.489  35.587  10.219
38756W        W11082  25.945  35.033  14.863
38757W        W11083  39.308   3.749  11.522
38758W        W11084  37.862   3.697  12.629
38759W        W11085  42.538  32.927  12.018
38760W        W11086   0.676  11.904  12.970
38761W        W11087   6.169  23.118   3.378
38762W        W11088   8.943  39.002   1.388
38763W        W11089   9.472  24.105  14.147
38764W        W11090  36.146   4.080   3.061
38765W        W11091  12.320  44.757   2.882
38766W        W11092   5.703  31.664  11.105
38767W        W11093  11.411   1.728  11.131
38768W        W11094  17.080  40.748  14.949
38769W        W11095  29.340  29.962  10.675
38770W        W11096  35.844  33.501  13.492
38771W        W11097   8.638  44.388   3.751
38772W        W11098  10.280   3.167   2.880
38773W        W11099   1.948  42.997  14.367
38774W        W11100   5.151  12.210   4.877
38775W        W11101  35.674  39.571  11.059
38776W        W11102  14.868   5.259   2.924
38777W        W11103  35.565  23.474  12.440
38778W        W11104  40.626   4.832  14.582
38779W        W11105  11.746  13.408   1.405
38780W        W11106   7.052  18.092   0.240
38781W        W11107  34.379  14.278  13.872
38782W        W11108  19.146  30.930  11.120
38783W        W11109  26.913  11.316  14.847
38784W        W11110  34.456   9.655   0.929
38785W        W11111  44.480  27.485  10.646
38786W        W11112   1.997  22.439  14.436
38787W        W11113   2.219  44.011  13.967
38788W        W11114   5.251   5.149   0.517
38789W        W11115  25.856  21.872  13.865
38790W        W11116  12.629  42.529  11.124
38791W        W11117  38.725   8.790  14.600
38792W        W11118  43.298  22.190  12.962
38793W        W11119  42.352  29.466  12.873
38794W        W11120  20.026  20.793  13.412
38795W        W11121  27.261  33.006  14.183
38796W        W11122   9.607   3.326   0.769
38797W        W11123  25.236  35.866  10.499
38798W        W11124  44.515  37.789   0.198
38799W        W11125  20.493  20.876   0.626
38800W        W11126  23.677   7.245   0.056
38801W        W11127  43.942  32.894   3.646
38802W        W11128  10.104  43.476   4.079
38803W        W11129   9.178   7.544   3.141
38804W        W11130  13.356  41.320  13.460
38805W        W11131  38.529  30.100   3.265
38806W        W11132  18.652  44.925  12.045
38807W        W11133  33.420  20.761   3.443
38808W        W11134  21.583  19.845   1.787
38809W        W11135  23.347   3.380   0.338
38810W        W11136  38.917   9.315  13.337
38811W        W11137  25.603  44.933  11.631
38812W        W11138  26.194  38.412   0.767
38813W        W11139  26.170  18.786  14.459
38814W        W11140  40.543  12.612  14.811
38815W        W11141  15.379  34.325   4.141
38816W        W11142  37.106  20.821   4.096
38817W        W11143  13.362  10.304  10.526
38818W        W11144  33.386   2.167  11.978
38819W        W11145  25.215  44.286  14.479
38820W        W11146  36.490  26.742   3.386
38821W        W11147  25.395  19.894   3.245
38822W        W11148  17.132  31.594  12.147
38823W        W11149  13.721  35.803   2.325
38824W        W11150  12.379   2.955  11.124
38825W        W11151  36.172  39.354  11.149
38826W        W11152   9.518   4.346   3.720
38827W        W11153   6.853  44.954   1.392
38828W        W11154  18.700  18.132   1.455
38829W        W11155  21.191  21.227  13.282
38830W        W11156  34.826  10.069  14.605
38831W        W11157   2.059  25.013   4.144
38832W        W11158   1.953  19.994   4.148
38833W        W11159  29.304  35.110  12.635
38834W        W11160  36.098  43.046  13.988
38835W        W11161  41.327  27.045  11.892
38836W        W11162   2.183  14.569   0.152
38837W        W11163  41.434   8.589  14.206
38838W        W11164   2.485  42.833  10.944
38839W        W11165  25.017  19.697  11.017
38840W        W11166   8.705  26.058   1.059
38841W        W11167  40.534  22.511   0.831
38842W        W11168  22.724  14.384  12.020
38843W        W11169  34.667  12.298   1.318
38844W        W11170  24.332  26.068  11.880
38845W        W11171  17.423  36.498   3.215
38846W        W11172  40.440  28.742  14.840
38847W        W11173   5.992  13.731  10.715
38848W        W11174  39.578   0.584   4.563
38849W        W11175   0.902   0.348  14.986
38850W        W11176   3.386  41.328  14.771
38851W        W11177  40.110  20.523  11.569
38852W        W11178   4.905   0.477  11.914
38853W        W11179  29.742  31.714   3.176
38854W        W11180   7.417  15.691  14.946
38855W        W11181  42.953  38.393  12.583
38856W        W11182  24.082  41.381  14.879
38857W        W11183  41.743  12.577  12.543
38858W        W11184  44.749  14.743  11.147
38859W        W11185  12.193   1.136   1.285
38860W        W11186  38.749  21.072  12.844
38861W        W11187  24.497  18.521   2.298
38862W        W11188  39.838   9.394  14.969
38863W        W11189  29.842  19.585  14.875
38864W        W11190  29.448  19.840   1.316
38865W        W11191  32.192  31.198  14.922
38866W        W11192   3.152  24.662  12.067
38867W        W11193  27.722  14.300   0.226
38868W        W11194  29.440  19.555  11.730
38869W        W11195  18.380  29.641  10.916
38870W        W11196  43.961  25.498  11.663
38871W        W11197  42.441  11.704   2.422
38872W        W11198   9.280   0.980  10.965
38873W        W11199  15.390  36.297  12.756
38874W        W11200  12.721   5.858  14.365
38875W        W11201  14.749  40.385   1.368
38876W        W11202  21.755   5.654   1.354
38877W        W11203  28.786  37.072   4.608
38878W        W11204   1.887  18.661   0.949
38879W        W11205  16.848  27.219   2.240
38880W        W11206   2.845   4.695   4.675
38881W        W11207  42.278   8.372   2.598
38882W        W11208  36.841  12.619  13.542
38883W        W11209  15.096  35.184   1.265
38884W        W11210  41.999  33.566   4.797
38885W        W11211  36.582   1.954   1.822
38886W        W11212   9.871   6.190   3.614
38887W        W11213  24.655   0.819  14.744
38888W        W11214  37.340   6.644  11.969
38889W        W11215  30.558  12.206  13.958
38890W        W11216  17.425  32.525   4.559
38891W        W11217  44.331  17.153   3.650
38892W        W11218  40.011  44.317  10.787
38893W        W11219   9.073  17.268   0.860
38894W        W11220  26.694   8.761  13.442
38895W        W11221  17.062   4.876   4.552
38896W        W11222  25.766  44.968   2.123
38897W        W11223  26.306  38.259  14.749
38898W        W11224  44.451  44.868  12.883
38899W        W11225  42.447   7.222  13.108
38900W        W11226  39.288  36.846   4.073
38901W        W11227   2.522  29.556   3.153
38902W        W11228  33.205   0.395  12.065
38903W        W11229  22.412   0.054  12.121
38904W        W11230  27.142   1.361   4.980
38905W        W11231  40.517  39.513  14.065
38906W        W11232  36.831  21.165   2.247
38907W        W11233   2.384  11.746   3.164
38908W        W11234  19.649  44.586  10.650
38909W        W11235  11.480  26.794  12.848
38910W        W11236   3.385  31.443   3.207
38911W        W11237  31.198   4.202  13.352
38912W        W11238  39.320   5.346   4.550
38913W        W11239  12.688  23.688  10.042
38914W        W11240   3.306  18.291   2.876
38915W        W11241  10.149  38.488   0.041
38916W        W11242   3.901  20.275  14.308
38917W        W11243  33.048  23.826   2.811
38918W        W11244   5.757   7.847  14.004
38919W        W11245   5.171  38.357   3.753
38920W        W11246  40.455  37.384   2.343
38921W        W11247  19.714  11.557   4.586
38922W        W11248  22.596  13.502  12.276
38923W        W11249   4.436   0.296   2.193
38924W        W11250   5.708  13.701   3.873
38925W        W11251   3.279  39.515   4.309
38926W        W11252  29.008  41.300   4.393
38927W        W11253  11.490   9.788  13.925
38928W        W11254   5.019  21.762   2.678
38929W        W11255  31.064  36.429   1.928
38930W        W11256  23.909  15.832  12.080
38931W        W11257  31.837  14.406  11.891
38932W        W11258  43.950  12.578  11.396
38933W        W11259  29.293  38.521  11.251
38934W        W11260   7.563  31.197  11.016
38935W        W11261  14.038  40.988   2.353
38936W        W11262  33.477  17.243  11.389
38937W        W11263  37.615  18.733  11.143
38938W        W11264   6.411  11.240   3.177
38939W        W11265  12.122  17.934  11.119
38940W        W11266  10.614  44.556  11.652
38941W        W11267  44.498   7.679  14.769
38942W        W11268   6.192  43.326  10.164
38943W        W11269  18.005  13.019  13.393
38944W        W11270  30.838  40.372   0.401
38945W        W11271   7.283  37.722  13.783
38946W        W11272   3.899  35.487   4.881
38947W        W11273  38.564  24.416   4.934
38948W        W11274  25.726  19.319   2.294
38949W        W11275  35.422  38.795  10.610
38950W        W11276   0.539  42.884   2.372
38951W        W11277   0.057   9.174   2.041
38952W        W11278  19.180  39.760   4.756
38953W        W11279  24.878  24.907  13.077
38954W        W11280  31.451  39.544  14.913
38955W        W11281   7.669   1.320  13.718
38956W        W11282  44.813   9.242  13.903
38957W        W11283   8.902   9.205   3.771
38958W        W11284  38.930  32.544  13.342
38959W        W11285  28.109  10.926   3.735
38960W        W11286  20.080   8.306   2.801
38961W        W11287  44.859  21.738  12.398
38962W        W11288  15.201   9.631   1.230
38963W        W11289  23.392  37.129   9.684
38964W        W11290  38.822  30.944   0.292
38965W        W11291  33.512  31.609   3.634
38966W        W11292  27.017  39.077  11.654
38967W        W11293  16.755   3.485  12.062
38968W        W11294  33.269  28.053   0.250
38969W        W11295  21.877  39.018  12.092
38970W        W11296  23.213   5.977  13.835
38971W        W11297  33.544  11.345  13.412
38972W        W11298  13.192  22.395   4.842
38973W        W11299  18.391  31.454  13.591
38974W        W11300  19.229  12.144  10.727
38975W        W11301  13.070  20.627  12.452
38976W        W11302  17.766  32.020  11.446
38977W        W11303  44.060  24.778  11.272
38978W        W11304  27.141  31.597   0.046
38979W        W11305  11.599   9.508   1.803
38980W        W11306  23.122  12.224  14.797
38981W        W11307  43.272  39.365   0.824
38982W        W11308  39.488  37.446  12.330
38983W        W11309  21.194  41.514  12.330
38984W        W11310  26.394  16.540  12.424
38985W        W11311  43.701  14.063   3.814
38986W        W11312  35.827  36.831   3.597
38987W        W11313  12.571  13.166  12.612
38988W        W11314   5.116  38.477  12.505
38989W        W11315  17.090  29.690  10.970
38990W        W11316   4.161  20.830   1.656
38991W        W11317  10.723  21.606  10.703
38992W        W11318  17.573  21.205   4.652
38993W        W11319  22.766  39.764  11.093
38994W        W11320  24.807  15.897   3.547
38995W        W11321   7.337  12.150  11.585
38996W        W11322  11.772  13.741   3.241
38997W        W11323  44.533   0.489  13.298
38998W        W11324   0.074  29.669  10.630
38999W        W11325   7.654  36.333   4.178
39000W        W11326  41.292  43.721  11.030
39001W        W11327  28.649   1.486   3.829
39002W        W11328  40.829   9.880  12.418
39003W        W11329  32.095   1.174   0.846
39004W        W11330  33.784  27.252  14.475
39005W        W11331  10.626   9.712   4.916
39006W        W11332   1.830   7.709   1.035
39007W        W11333  11.824  24.927   4.977
39008W        W11334  14.572  14.148   4.238
39009W        W11335  27.156   8.346  11.527
39010W        W11336  15.685  21.727  13.070
39011W        W11337  40.952  43.463  13.198
39012W        W11338  40.908   0.668  12.875
39013W        W11339  43.928  25.426   4.272
39014W        W11340  25.994  18.797  13.522
39015W        W11341  43.948   8.962  13.353
39016W        W11342  18.143  31.137  14.393
39017W        W11343  43.347  39.074  10.679
39018W        W11344  15.434  15.318   0.688
39019W        W11345  21.167  31.430   2.738
39020W        W11346  22.620  37.491  13.869
39021W        W11347  14.409  31.117   3.063
39022W        W11348  42.558  32.690   3.210
39023W        W11349  27.220   0.856   3.776
39024W        W11350  31.936  20.830  13.700
39025W        W11351  24.763  42.094   4.092
39026W        W11352  16.625   9.105   1.312
39027W        W11353  11.321   1.135  12.467
39028W        W11354  18.711  29.856   3.461
39029W        W11355   6.188   3.979   1.719
39030W        W11356  44.886  16.868   0.248
39031W        W11357  12.410   4.273  11.044
39032W        W11358   8.663  14.823  11.900
39033W        W11359  27.198  41.927   2.336
39034W        W11360  12.529  17.733   1.702
39035W        W11361  13.821  43.903  12.587
39036W        W11362  40.747  30.476   2.788
39037W        W11363  25.978   3.748   2.452
39038W        W11364  37.116  23.298  14.786
39039W        W11365  12.942  14.101   0.204
39040W        W11366  42.473  29.572   0.783
39041W        W11367  11.793  20.744   0.200
39042W        W11368  20.001   6.811   3.237
39043W        W11369  21.314  26.562  10.625
39044W        W11370  41.427   8.916  11.547
39045W        W11371   0.874  23.091   2.507
39046W        W11372  36.452   2.721  11.045
39047W        W11373  14.231  21.210  14.431
39048W        W11374  41.396  23.080  12.086
39049W        W11375  35.539  23.263   0.675
39050W        W11376   2.404  25.071   0.419
39051W        W11377  26.256   9.178   2.891
39052W        W11378  19.653  30.708   4.661
39053W        W11379  21.738   1.656   2.840
39054W        W11380   2.895  43.545  10.627
39055W        W11381  15.882  14.904   2.529
39056W        W11382  11.294   5.578  14.937
39057W        W11383   1.966  18.241  14.994
39058W        W11384  14.850  21.067  11.679
39059W        W11385   1.455  32.812   3.205
39060W        W11386   9.980  26.937  13.916
39061W        W11387   5.085  14.667   4.398
39062W        W11388  34.267  26.995  12.314
39063W        W11389  15.170  34.789  12.797
39064W        W11390  21.107   8.269   0.243
39065W        W11391  35.658  11.148  13.519
39066W        W11392  43.952  31.916   4.639
39067W        W11393  29.691  18.556  12.571
39068W        W11394  19.599  22.192   0.560
39069W        W11395   2.825  23.399  13.979
39070W        W11396  41.912  44.847  12.162
39071W        W11397   5.219  27.218  14.894
39072W        W11398  29.378  36.970   3.183
39073W        W11399   0.704   1.022  12.861
39074W        W11400   2.975   7.457  11.576
39075W        W11401   6.943  31.267   2.797
39076W        W11402  18.610  13.570   0.959
39077W        W11403  29.951   7.874  14.539
39078W        W11404  44.323  25.239  10.250
39079W        W11405  24.430  18.112   9.507
39080W        W11406   3.570   2.333  14.815
39081W        W11407   3.939  19.209  13.410
39082W        W11408  23.087  29.996   1.384
39083W        W11409  10.392  43.827   1.803
39084W        W11410  19.162  20.240   1.739
39085W        W11411  19.832  35.044   4.626
39086W        W11412  16.659   0.944  14.614
39087W        W11413   3.281  44.554   1.855
39088W        W11414  39.070  34.401   3.634
39089W        W11415  21.205  41.855  13.450
39090W        W11416  10.852  36.807   4.717
39091W        W11417  27.723  39.052  12.361
39092W        W11418   6.683   5.910  10.622
39093W        W11419  15.256   8.881  13.943
39094W        W11420   4.998  44.640  12.457
39095W        W11421  17.363  42.402   2.867
39096W        W11422  34.794   5.851  12.457
39097W        W11423  26.230  40.894   4.557
39098W        W11424  29.927  18.565   3.610
39099W        W11425  41.787  21.117   4.522
39100W        W11426  31.182  26.553   1.760
39101W        W11427  40.638  20.977   0.248
39102W        W11428  44.429  18.071   3.910
39103W        W11429  31.102  30.231  11.987
39104W        W11430   2.442  21.538   0.177
39105W        W11431  38.876  18.365   1.195
39106W        W11432  17.117  19.769   2.728
39107W        W11433   1.746  28.571  12.969
39108W        W11434  22.811  29.470  12.349
39109W        W11435  14.732  38.262   3.624
39110W        W11436  42.950  19.734  14.538
39111W        W11437  29.458  40.308  11.758
39112W        W11438  44.787  28.136  14.341
39113W        W11439  38.342   6.151   2.413
39114W        W11440   7.315   9.600   3.957
39115W        W11441  22.703  28.167   0.960
39116W        W11442  29.102  33.461   1.691
39117W        W11443  32.324  11.900   1.138
39118W        W11444  13.419  15.796   0.633
39119W        W11445  29.433  18.284  14.450
39120W        W11446   2.200  17.562  13.527
39121W        W11447   1.363  32.047  13.771
39122W        W11448  29.076  39.568   0.320
39123W        W11449  30.312  20.581   2.861
39124W        W11450  10.455  36.067   9.730
39125W        W11451  35.817  40.584   3.690
39126W        W11452   1.801   3.971   3.350
39127W        W11453   6.359   5.557  13.135
39128W        W11454  20.000  13.212  12.072
39129W        W11455  14.684  24.424  12.603
39130W        W11456   8.211  25.772   2.905
39131W        W11457  40.292  42.989  13.519
39132W        W11458  18.746  40.396  14.393
39133W        W11459   2.293  41.808   0.767
39134W        W11460  32.361  35.463   0.832
39135W        W11461  38.991  34.509   1.784
39136W        W11462   3.448  39.705   2.454
39137W        W11463  13.811  20.079   2.768
39138W        W11464   0.343  29.943  11.339
39139W        W11465  17.618  35.625  11.211
39140W        W11466  42.788  34.845   1.382
39141W        W11467  33.522  15.352  10.692
39142W        W11468  29.979   5.222  14.082
39143W        W11469  31.088  42.566  12.629
39144W        W11470  29.631  44.814  12.985
39145W        W11471  30.462  20.710   3.758
39146W        W11472  28.567  40.621   0.036
39147W        W11473  37.033   1.275   2.808
39148W        W11474  28.497  15.760   3.581
39149W        W11475   4.927  17.838  13.817
39150W        W11476  18.050  10.979   1.216
39151W        W11477  19.252  28.074  13.504
39152W        W11478  13.290  33.830  14.449
39153W        W11479  23.393  25.749   4.185
39154W        W11480  30.988  41.480  12.078
39155W        W11481  37.512  29.107  10.526
39156W        W11482  39.075   0.279  14.419
39157W        W11483  42.420  23.728   3.589
39158W        W11484   8.239  19.139   0.707
39159W        W11485  33.178  20.346   4.263
39160W        W11486   0.031  23.256   3.219
39161W        W11487  17.808  24.979   4.227
39162W        W11488  19.564  15.142  10.551
39163W        W11489   7.104   3.192  12.028
39164W        W11490  37.723  42.515   1.156
39165W        W11491  32.621  23.235  11.448
39166W        W11492  44.710  33.840  10.641
39167W        W11493  26.271   0.742  12.539
39168W        W11494  39.840  42.243   2.134
39169W        W11495  19.226  20.118  14.744
39170W        W11496  32.906  42.574   0.329
39171W        W11497  23.062   0.015   1.737
39172W        W11498   1.726   8.532  12.734
39173W        W11499  39.256  34.638   1.349
39174W        W11500   0.933  40.540  11.862
39175W        W11501   3.287  20.463   1.881
39176W        W11502  37.747  15.862  13.935
39177W        W11503  13.135  12.844  13.851
39178W        W11504  27.489  32.804  11.434
39179W        W11505  21.580  25.658  13.801
39180W        W11506  33.353  10.204   0.555
39181W        W11507  43.402  22.500   3.205
39182W        W11508  25.457   6.105   4.151
39183W        W11509  36.151  35.082   3.308
39184W        W11510  34.619  10.340  11.990
39185W        W11511  42.185   2.424  10.633
39186W        W11512  42.664  39.117  12.172
39187W        W11513  31.071  38.569   2.420
39188W        W11514  24.902  19.683   1.364
39189W        W11515   1.530  35.084   0.249
39190W        W11516  37.583  22.556   3.058
39191W        W11517  44.275  29.423   2.282
39192W        W11518  14.174   8.221  12.783
39193W        W11519   7.730  27.096  11.834
39194W        W11520   6.644   0.240   1.839
39195W        W11521   2.708  41.906   3.077
39196W        W11522  24.775  14.084   3.131
39197W        W11523  41.469  41.374   2.760
39198W        W11524   3.514  24.493   2.455
39199W        W11525   7.858  11.087   2.382
39200W        W11526  21.430   2.290  12.525
39201W        W11527  42.061  33.149  10.431
39202W        W11528  36.647  12.770   4.356
39203W        W11529  33.534   2.744  14.874
39204W        W11530  30.068  20.839  13.546
39205W        W11531  32.625  25.046  13.914
39206W        W11532   4.346  41.399  14.289
39207W        W11533  16.275  31.883  13.137
39208W        W11534  12.039  22.994  14.824
39209W        W11535   2.317  33.512  13.091
39210W        W11536  25.469  40.041   4.606
39211W        W11537   4.408  44.431   2.455
39212W        W11538   8.252  37.505  11.980
39213W        W11539   7.151  25.254   0.336
39214W        W11540  32.991   5.889   2.015
39215W        W11541   6.096  24.722   2.381
39216W        W11542   6.657  26.191   3.877
39217W        W11543  29.173  13.740   2.775
39218W        W11544  41.424   1.812  13.409
39219W        W11545  18.897  43.470  12.855
39220W        W11546  12.292  44.794  13.982
39221W        W11547  42.423  26.204  13.522
39222W        W11548   0.360  32.581   4.310
39223W        W11549  13.155  19.700   2.794
39224W        W11550  25.112  23.851   2.268
39225W        W11551  35.944   0.958  11.238
39226W        W11552  32.086   0.357  14.092
39227W        W11553  27.516   4.345   4.716
39228W        W11554  26.965  33.953   0.965
39229W        W11555  41.162  13.413   5.093
39230W        W11556   2.525  34.653  14.409
39231W        W11557  29.994   1.696   1.656
39232W        W11558  41.056  36.835  14.833
39233W        W11559   2.979  31.158  10.563
39234W        W11560  34.675  17.753  11.914
39235W        W11561   9.807  25.452   4.860
39236W        W11562   8.982   2.327  11.879
39237W        W11563  29.985  17.263   1.237
39238W        W11564  37.449  37.472   2.800
39239W        W11565  38.610   6.680  14.312
39240W        W11566  14.347  19.912   3.309
39241W        W11567  31.007  42.527   1.390
39242W        W11568   2.346  42.072  13.022
39243W        W11569  39.347   7.184   4.708
39244W        W11570  35.570   0.478   0.307
39245W        W11571   9.776   1.710   4.286
39246W        W11572  25.065  31.492   2.457
39247W        W11573  40.063  13.235   0.114
39248W        W11574  41.833  36.499   4.414
39249W        W11575  35.018  36.852   1.010
39250W        W11576  29.011  40.937  13.807
39251W        W11577   3.487  42.837   1.493
39252W        W11578  28.941  24.599  14.441
39253W        W11579  11.282  12.787   4.336
39254W        W11580  32.850   8.219  10.704
39255W        W11581   0.284  26.212   2.676
39256W        W11582   2.345  31.669  11.599
39257W        W11583  20.184   2.298   0.754
39258W        W11584  28.474  41.643  13.544
39259W        W11585  40.969  33.576  14.348
39260W        W11586   8.728  23.665  12.604
39261W        W11587  37.394  19.240   1.165
39262W        W11588   1.852   2.672   3.705
39263W        W11589  39.757  26.448  12.492
39264W        W11590  31.581  20.805   1.276
39265W        W11591  17.537  33.007   2.899
39266W        W11592  28.345   8.864   5.057
39267W        W11593  34.059  38.079  10.836
39268W        W11594  19.125  24.373  12.602
39269W        W11595  19.842  32.497   1.430
39270W        W11596   5.831  22.091   2.415
39271W        W11597  40.001   4.200  14.460
39272W        W11598  26.604  32.151  10.652
39273W        W11599  15.368  13.123   1.907
39274W        W11600  43.892   0.825  10.986
39275W        W11601  17.714  43.780   2.287
39276W        W11602  29.602  24.061   1.021
39277W        W11603  39.988  11.603   1.343
39278W        W11604   8.304  16.341   0.458
39279W        W11605  36.125  17.250   0.642
39280W        W11606   1.817  41.006  10.748
39281W        W11607  20.063  10.624  10.928
39282W        W11608  28.365   8.358  13.873
39283W        W11609  24.464  16.278   2.258
39284W        W11610  36.351  32.418  11.461
39285W        W11611  15.829  20.135   2.870
39286W        W11612  26.554  36.657   0.493
39287W        W11613  41.710  14.822  13.037
39288W        W11614  16.993  40.868   1.285
39289W        W11615   5.385  17.758   2.300
39290W        W11616   1.793  30.068  13.311
39291W        W11617  29.004  27.354  14.440
39292W        W11618  20.098  23.145  14.321
39293W        W11619  28.916   5.441  14.756
39294W        W11620  43.390  34.841  10.368
39295W        W11621  17.077   8.917  14.398
39296W        W11622  12.221  13.144  14.105
39297W        W11623  27.008  24.517   0.557
39298W        W11624  17.611  15.658  12.455
39299W        W11625  40.587  19.090   4.233
39300W        W11626  36.827   9.667  12.122
39301W        W11627  25.515   2.279   3.170
39302W        W11628  18.957  40.862  14.527
39303W        W11629  35.992  39.226   3.255
39304W        W11630  34.010   6.922  11.105
39305W        W11631  27.951  29.224  10.708
39306W        W11632  24.588   5.232   1.380
39307W        W11633  32.560   5.842   1.682
39308W        W11634  33.506   5.347   4.039
39309W        W11635  42.354  19.749  11.000
39310W        W11636  42.943   7.491   1.709
39311W        W11637   7.189  29.486   4.779
39312W        W11638  39.488   8.798   4.062
39313W        W11639  24.681  19.103   0.242
39314W        W11640  36.488  10.848   2.448
39315W        W11641  14.345  17.231  10.594
39316W        W11642  13.093  37.045   5.060
39317W        W11643  42.720  34.347  12.935
39318W        W11644  38.003  11.660  10.159
39319W        W11645  34.143   0.328   0.186
39320W        W11646  28.391  20.666  12.105
39321W        W11647  35.296  43.525   0.989
39322W        W11648   3.457  17.172  12.366
39323W        W11649  38.551  14.349  11.017
39324W        W11650  21.052  11.307  13.755
39325W        W11651   6.696  40.259  13.979
39326W        W11652   6.516  27.553  11.628
39327W        W11653  31.154  13.419   4.104
39328W        W11654  38.714  36.849   3.432
39329W        W11655  21.157  37.122  13.485
39330W        W11656  44.415  30.812  12.128
39331W        W11657  37.070  28.462   3.341
39332W        W11658  34.102  26.582  11.986
39333W        W11659  14.142  22.443   1.888
39334W        W11660  19.556  44.882  11.088
39335W        W11661   5.810  18.040   4.624
39336W        W11662  32.904   4.226   3.812
39337W        W11663  36.433  16.093  12.428
39338W        W11664  35.615  38.857   3.205
39339W        W11665  25.945  19.598   0.829
39340W        W11666  39.442  39.574  12.421
39341W        W11667  27.733  12.225  10.714
39342W        W11668  34.068  17.670  13.055
39343W        W11669  10.533  44.796   1.928
39344W        W11670  43.731  17.677  14.363
39345W        W11671  44.768  25.685  11.130
39346W        W11672  15.751  40.297   3.573
39347W        W11673   4.809  13.427  10.925
39348W        W11674  42.909  19.036   4.101
39349W        W11675   1.307  16.713   1.648
39350W        W11676   9.178  16.412   0.448
39351W        W11677  43.295  38.754   3.898
39352W        W11678  18.829  11.078   0.953
39353W        W11679  36.905   9.296  12.866
39354W        W11680  24.923  16.094  13.353
39355W        W11681  13.840  40.399   3.564
39356W        W11682  27.217  41.740   2.816
39357W        W11683   6.327  38.952  10.310
39358W        W11684  13.736  30.176  14.542
39359W        W11685  42.921   4.327   4.638
39360W        W11686  20.077  15.245  14.245
39361W        W11687   4.242  21.150  12.544
39362W        W11688  27.462  21.632   1.994
39363W        W11689  23.692  19.562  10.674
39364W        W11690  33.787  26.554   4.987
39365W        W11691  22.261  25.156  13.569
39366W        W11692  35.875  28.232   0.729
39367W        W11693  20.512  30.136   1.352
39368W        W11694  19.534  13.070  13.408
39369W        W11695  18.515   1.503  14.587
39370W        W11696  36.150  15.630  11.019
39371W        W11697  15.693   8.415  12.564
39372W        W11698  37.982  17.468   0.367
39373W        W11699  24.679   5.424   2.889
39374W        W11700   5.149  18.242  11.590
39375W        W11701  33.520  26.196   2.831
39376W        W11702  26.905  32.382   2.909
39377W        W11703   5.153  21.552   2.196
39378W        W11704  28.928  24.753  10.623
39379W        W11705  34.622  44.870   1.995
39380W        W11706  33.013   0.300   2.208
39381W        W11707  18.362   7.957  11.163
39382W        W11708  24.842  41.238  13.591
39383W        W11709  22.030  44.666   4.209
39384W        W11710  11.676  31.779  14.218
39385W        W11711  25.042  23.724   3.575
39386W        W11712  26.148  44.696   2.866
39387W        W11713  23.965  15.225  13.968
39388W        W11714  32.803   0.296  12.380
39389W        W11715  33.543  44.292   0.504
39390W        W11716   6.279  10.610  11.719
39391W        W11717   1.791  28.200   3.225
39392W        W11718  26.545  21.952   4.344
39393W        W11719   6.480  39.969   1.659
39394W        W11720  29.617  40.841  11.833
39395W        W11721   9.672   7.871  11.593
39396W        W11722  40.609  42.523   2.336
39397W        W11723  22.751  40.024   2.935
39398W        W11724  32.132   8.237   0.458
39399W        W11725   4.311  26.033   1.206
39400W        W11726  42.327  42.976   1.778
39401W        W11727   0.534   0.383  13.426
39402W        W11728  42.171  16.637   3.763
39403W        W11729  42.392  21.993   0.976
39404W        W11730  12.656  17.828   4.641
39405W        W11731  23.298  17.205   3.948
39406W        W11732   3.558   2.362  11.606
39407W        W11733  33.470   3.720  14.997
39408W        W11734   0.460  31.631   4.114
39409W        W11735  12.532  12.848   4.022
39410W        W11736  12.316  20.181  12.646
39411W        W11737   6.224  11.148   4.472
39412W        W11738   7.799  10.108   4.109
39413W        W11739   5.934  26.986  12.636
39414W        W11740  11.623   5.194   0.114
39415W        W11741  21.487  37.132   3.174
39416W        W11742  22.484  40.901   4.637
39417W        W11743  16.312  10.297   1.815
39418W        W11744  17.422  44.330   0.042
39419W        W11745  41.877  30.062   3.718
39420W        W11746  25.661  44.323  13.610
39421W        W11747  14.667   2.879   2.736
39422W        W11748   3.945  37.997  14.782
39423W        W11749  34.039  14.630  10.703
39424W        W11750   7.864  43.202   3.622
39425W        W11751  37.162   6.375  10.800
39426W        W11752  19.250   3.484   1.335
39427W        W11753  19.951  28.117  10.216
39428W        W11754  14.600  15.839   4.178
39429W        W11755  41.599  43.714  12.926
39430W        W11756  31.177  13.935  11.611
39431W        W11757  16.218   6.444  13.793
39432W        W11758  26.070  10.737   2.080
39433W        W11759  39.519  30.966   0.807
39434W        W11760  17.376  10.434  13.816
39435W        W11761   2.483  26.701   2.821
39436W        W11762   3.498  31.970  12.018
39437W        W11763  13.076  19.717  12.453
39438W        W11764  21.808  36.470  14.224
39439W        W11765   3.389  39.367  14.682
39440W        W11766  22.591  34.583   0.382
39441W        W11767  26.952  22.528   1.664
39442W        W11768  17.786  43.948   0.804
39443W        W11769  10.585  30.133  13.915
39444W        W11770  19.240  35.673   0.679
39445W        W11771  10.395   3.738  14.271
39446W        W11772  26.462  26.477   4.321
39447W        W11773  24.182  11.316  13.764
39448W        W11774  15.310   6.645   1.826
39449W        W11775   9.237  38.201  11.131
39450W        W11776  40.260  14.213  11.637
39451W        W11777  10.381   2.714  14.324
39452W        W11778  24.312  25.731   1.444
39453W        W11779  12.809  43.498   4.621
39454W        W11780  30.827  12.576  12.413
39455W        W11781  35.856  44.781  11.536
39456W        W11782  30.179  44.013  10.834
39457W        W11783  24.620  27.105  13.347
39458W        W11784  40.880  34.958  10.629
39459W        W11785  23.066   0.698  14.440
39460W        W11786  17.816  37.815  13.890
39461W        W11787  16.761  39.076  11.687
39462W        W11788  13.720  29.257   2.180
39463W        W11789   2.414  37.616   2.812
39464W        W11790  22.577  21.490   1.803
39465W        W11791   4.140   1.952   2.336
39466W        W11792  32.436  11.989   4.368
39467W        W11793  19.867  30.107  14.517
39468W        W11794  15.212  18.016  13.461
39469W        W11795  10.000  34.529  11.892
39470W        W11796   3.668  18.510  12.839
39471W        W11797  10.823   1.273   1.314
39472W        W11798   2.026  35.902  11.541
39473W        W11799   2.213  18.563  12.879
39474W        W11800   8.458   5.868   1.782
39475W        W11801  38.355  33.545  10.784
39476W        W11802  44.982  36.032   3.086
39477W        W11803  32.234  12.572  13.402
39478W        W11804  24.155  41.042   1.022
39479W        W11805  12.696  39.468   4.411
39480W        W11806   9.593   6.872   3.034
39481W        W11807  29.697  35.052   5.050
39482W        W11808  37.830  11.819   2.714
39483W        W11809  10.649  37.833  11.993
39484W        W11810  26.028  28.596  12.995
39485W        W11811  34.014  40.735   2.128
39486W        W11812  11.392  26.968   3.553
39487W        W11813  31.158  42.801   0.962
39488W        W11814   9.023   9.617  11.570
39489W        W11815  24.136  23.430   3.695
39490W        W11816  36.486  34.749   3.119
39491W        W11817  27.504   2.336   2.293
39492W        W11818  20.738   0.447   4.192
39493W        W11819  20.830  24.659   1.832
39494W        W11820  38.603  12.760   2.250
39495W        W11821  30.650  40.807  11.178
39496W        W11822  14.151  23.909   0.848
39497W        W11823  41.268  36.106   1.373
39498W        W11824   3.644  23.764  13.521
39499W        W11825  18.656  19.530  11.235
39500W        W11826   2.875  27.420  11.601
39501W        W11827  34.548   7.554  13.593
39502W        W11828  15.656  26.721  13.752
39503W        W11829  32.156  10.643   1.381
39504W        W11830  43.385  31.981   2.188
39505W        W11831  32.971  25.099   0.481
39506W        W11832   3.883  17.707   4.705
39507W        W11833  28.629  41.042   0.370
39508W        W11834  17.091  31.570   4.631
39509W        W11835  34.022   8.639  13.865
39510W        W11836  41.893  34.310   2.801
39511W        W11837  30.877  42.753  11.206
39512W        W11838  19.513  35.899  13.288
39513W        W11839   7.873  11.413   3.285
39514W        W11840   2.402  24.315   5.222
39515W        W11841  24.126  44.243   1.905
39516W        W11842  35.815  35.293   5.471
39517W        W11843  36.259  20.367  12.922
39518W        W11844  40.258   6.457  11.101
39519W        W11845  33.009  35.922   0.265
39520W        W11846  19.981   2.175  14.827
39521W        W11847   1.013  26.911  11.983
39522W        W11848  19.286  18.236  11.768
39523W        W11849  31.973  38.495  14.001
39524W        W11850  17.843  23.041   0.956
39525W        W11851  18.710   8.185  11.470
39526W        W11852  40.089  31.620   1.257
39527W        W11853  43.476  28.618   0.649
39528W        W11854  13.606  10.987  14.634
39529W        W11855  11.704   8.725   1.248
39530W        W11856  38.434   2.401  12.559
39531W        W11857  34.636   6.212   1.868
39532W        W11858  39.349   4.273  13.984
39533W        W11859  30.248  24.789   2.708
39534W        W11860  30.001  30.690  12.523
39535W        W11861   0.685  34.358   3.710
39536W        W11862   2.839  44.834   4.334
39537W        W11863  37.357   9.181  11.046
39538W        W11864  39.301  40.909  13.298
39539W        W11865  23.819  16.813  11.163
39540W        W11866  16.063   9.330   2.672
39541W        W11867  41.233  15.072   2.451
39542W        W11868  22.177  36.607   2.642
39543W        W11869   6.733  30.901  10.736
39544W        W11870  21.600  22.046  10.614
39545W        W11871  26.022  24.557  10.694
39546W        W11872  28.656  44.392   2.775
39547W        W11873  29.035  31.515   2.158
39548W        W11874  35.975  35.164   1.044
39549W        W11875  29.187  22.218  12.660
39550W        W11876  31.176  39.133   3.356
39551W        W11877   1.251  36.390  13.938
39552W        W11878  41.396  40.888   4.135
39553W        W11879  44.378  14.407   2.389
39554W        W11880  25.863  27.822  10.999
39555W        W11881   1.767  21.057  12.535
39556W        W11882   2.894   2.675  10.091
39557W        W11883  10.921  34.307  13.097
39558W        W11884  34.033  42.614  10.448
39559W        W11885  37.044  33.925  12.998
39560W        W11886  14.190  23.761   3.655
39561W        W11887  30.288  23.544  11.659
39562W        W11888  29.460  44.727  11.626
39563W        W11889  30.210   0.430   3.238
39564W        W11890   9.335   9.814  14.381
39565W        W11891  33.537  40.831   3.895
39566W        W11892  36.450  16.045   4.568
39567W        W11893   3.451   6.749  12.460
39568W        W11894  26.591  34.880  13.031
39569W        W11895  16.055  19.354  11.541
39570W        W11896  44.202   1.801  14.156
39571W        W11897  24.079  23.787  10.268
39572W        W11898  14.887  25.183   0.501
39573W        W11899  14.829  15.526   2.112
39574W        W11900  19.571  11.078  11.468
39575W        W11901  30.586  17.732   2.221
39576W        W11902   3.917  36.445   2.258
39577W        W11903   6.769  10.198  13.326
39578W        W11904  31.805  40.474  14.986
39579W        W11905  21.068  16.178   3.364
39580W        W11906  31.541  15.363  14.982
39581W        W11907  33.455   7.454  11.944
39582W        W11908  18.818  30.692   3.780
39583W        W11909  30.559  27.454  12.392
39584W        W11910   6.768   3.998   0.215
39585W        W11911  26.445   9.856  14.335
39586W        W11912  18.965  14.577  11.975
39587W        W11913  39.915   3.890   1.345
39588W        W11914   2.951  16.499  14.819
39589W        W11915  26.050  20.284   2.608
39590W        W11916  36.935   4.689   4.146
39591W        W11917  14.883   8.305   3.363
39592W        W11918  23.056  27.104  10.509
39593W        W11919  20.259  32.124  13.518
39594W        W11920   4.300  24.625   2.442
39595W        W11921  20.922  19.851   2.893
39596W        W11922  30.057  26.367  14.628
39597W        W11923  16.745  36.351  13.522
39598W        W11924  44.261  28.009  14.341
39599W        W11925  44.823  19.770   0.233
39600W        W11926   5.431  15.265  10.957
39601W        W11927  41.281  40.581   0.153
39602W        W11928  32.820  10.229  14.345
39603W        W11929  42.617   9.097  13.446
39604W        W11930  28.522  38.054  10.673
39605W        W11931  14.976   3.378  10.568
39606W        W11932  23.716  29.215  13.597
39607W        W11933   7.714   0.788   3.159
39608W        W11934  41.916  41.421   1.792
39609W        W11935  35.159  21.974   1.928
39610W        W11936  35.493  35.051  10.233
39611W        W11937  20.854  30.148  13.443
39612W        W11938  42.527  35.959   4.467
39613W        W11939  40.122   7.309   1.728
39614W        W11940  15.680  39.600  13.040
39615W        W11941  15.112  31.077  14.254
39616W        W11942   6.338   3.821  10.546
39617W        W11943  26.393  43.894  14.466
39618W        W11944  27.654   6.488   3.127
39619W        W11945  40.584   1.339  14.282
39620W        W11946   9.405   4.885  13.903
39621W        W11947   8.153  40.188  12.127
39622W        W11948  30.171  20.522   3.352
39623W        W11949  14.363   9.197   1.635
39624W        W11950  14.699  15.656   0.783
39625W        W11951  14.732   6.175   1.276
39626W        W11952  34.819  15.291   0.169
39627W        W11953   4.622  20.834   1.878
39628W        W11954  31.423  15.630  13.370
39629W        W11955  21.417  40.211   3.590
39630W        W11956   6.430  19.855   0.629
39631W        W11957  25.603  15.590  12.209
39632W        W11958  34.329  31.535   1.080
39633W        W11959  31.170  24.308   3.494
39634W        W11960  40.971  13.364   4.227
39635W        W11961  39.820  19.721   3.108
39636W        W11962   4.978  22.251   1.875
39637W        W11963   3.245   0.418  12.456
39638W        W11964  32.439   0.655  12.297
39639W        W11965  36.988  27.023  12.019
39640W        W11966  30.252  33.007   4.449
39641W        W11967   5.871  29.183   1.194
39642W        W11968  40.156   4.725   5.301
39643W        W11969  28.570  31.112   4.637
39644W        W11970  19.114  31.420   0.150
39645W        W11971   0.807  11.268   0.142
39646W        W11972  42.802  34.712  10.558
39647W        W11973   8.075  35.008  14.253
39648W        W11974  43.940  12.026  13.545
39649W        W11975  22.019   8.306   3.781
39650W        W11976  43.720   3.618   4.541
39651W        W11977  31.553  31.629  13.826
39652W        W11978  36.021  18.934   1.430
39653W        W11979  24.655  35.467   2.168
39654W        W11980   3.454  14.205  12.979
39655W        W11981  39.439   3.366   0.240
39656W        W11982   7.207  27.008   3.795
39657W        W11983   8.415  24.017  12.081
39658W        W11984  25.964  37.968  11.256
39659W        W11985   6.367   0.442  14.840
39660W        W11986   5.767  19.915  10.652
39661W        W11987  25.496  18.860   2.195
39662W        W11988   3.143   8.914   1.942
39663W        W11989  10.300  19.580   4.168
39664W        W11990  41.904  37.766  11.573
39665W        W11991   3.148  29.392   1.822
39666W        W11992  23.366  32.358  14.898
39667W        W11993  11.290   1.652  12.476
39668W        W11994  35.362  15.224  11.036
39669W        W11995  23.943  23.051  14.914
39670W        W11996   9.699  22.443   3.511
39671W        W11997  16.796  44.818  13.029
39672W        W11998   5.735  23.482   0.042
39673W        W11999  18.349   6.218   0.870
39674W        W12000  37.966  34.938  13.515
39675W        W12001  15.302  32.977   3.700
39676W        W12002   4.268  17.072  10.543
39677W        W12003  44.816  41.096  11.599
39678W        W12004   7.773  21.135  11.514
39679W        W12005  15.531   4.869  11.218
39680W        W12006  24.993  20.553  14.790
39681W        W12007  24.352  10.757   1.159
39682W        W12008  41.445  13.821   3.486
39683W        W12009  11.859  23.463  13.809
39684W        W12010  16.731   0.272  11.611
39685W        W12011   6.683   5.803  12.619
39686W        W12012   0.627  16.580   3.412
39687W        W12013   1.729  14.337  14.051
39688W        W12014  33.465  16.682   3.370
39689W        W12015   4.697   9.797   4.307
39690W        W12016  37.034  21.731   3.791
39691W        W12017  32.491  32.472   1.328
39692W        W12018   5.906  26.204   2.201
39693W        W12019  12.715  21.740  12.881
39694W        W12020   4.191   4.902  14.508
39695W        W12021  32.535  11.304  10.696
39696W        W12022  18.459  33.627  14.162
39697W        W12023  29.149  32.128  12.040
39698W        W12024   2.094  37.408   5.086
39699W        W12025  43.247  41.984   2.672
39700W        W12026  40.953  21.098   1.559
39701W        W12027  20.498   6.766  11.881
39702W        W12028  17.034  17.720  11.437
39703W        W12029  33.487  37.296  14.523
39704W        W12030  32.491  24.586   0.727
39705W        W12031  24.718  44.745   3.043
39706W        W12032  28.942  39.448  12.641
39707W        W12033  18.163  24.728   0.143
39708W        W12034  12.395  17.566   0.418
39709W        W12035   2.640  14.186  11.109
39710W        W12036  22.146   3.234  11.995
39711W        W12037  27.712  13.388   1.808
39712W        W12038  22.666   2.495  12.985
39713W        W12039  26.012  16.445   1.477
39714W        W12040   8.638  25.237   5.012
39715W        W12041  21.952   0.896  11.195
39716W        W12042   7.121  26.854  13.992
39717W        W12043  10.675   9.755  12.568
39718W        W12044  13.248  20.947   2.171
39719W        W12045  36.949  15.585  12.451
39720W        W12046  33.706  22.512   4.038
39721W        W12047   9.271  16.506   2.972
39722W        W12048  36.545  27.589   3.122
39723W        W12049  28.533  17.260  12.539
39724W        W12050  44.376  22.676   0.254
39725W        W12051  39.394  42.380  11.610
39726W        W12052   0.950  14.386   2.380
39727W        W12053  14.160   1.210  14.431
39728W        W12054   9.284  24.922  13.747
39729W        W12055  13.091  18.663   0.706
39730W        W12056   2.352  20.282   3.344
39731W        W12057  30.590  31.700  11.526
39732W        W12058   5.301  35.625   3.745
39733W        W12059  35.794  29.554   0.819
39734W        W12060  21.578  30.681  13.038
39735W        W12061   4.250   2.687   9.829
39736W        W12062  42.542  22.595   1.231
39737W        W12063   5.961   2.851   0.485
39738W        W12064   6.832  10.270  13.855
39739W        W12065  40.375  20.641  12.824
39740W        W12066  30.555   4.638   1.620
39741W        W12067   1.532  19.554   5.007
39742W        W12068  25.227   4.917   3.603
39743W        W12069  11.913  35.067   3.166
39744W        W12070   3.786   0.931  13.530
39745W        W12071  11.899  36.628   4.194
39746W        W12072  30.598  24.080   4.463
39747W        W12073  43.969   6.110   4.222
39748W        W12074  36.309  15.600  10.056
39749W        W12075  23.722   1.271  10.722
39750W        W12076  36.875   1.242   0.418
39751W        W12077  35.010  29.570   1.819
39752W        W12078   5.622   2.849  14.557
39753W        W12079  25.857  29.519  11.307
39754W        W12080  28.105   2.851  14.326
39755W        W12081  44.959   2.294   0.967
39756W        W12082  29.278   9.857   0.860
39757W        W12083   7.627  39.106  13.129
39758W        W12084  10.186   3.161   0.486
39759W        W12085  37.558  13.134   0.217
39760W        W12086   6.170  32.227  13.954
39761W        W12087  11.774  11.612   2.737
39762W        W12088  20.550  42.936   1.186
39763W        W12089   8.229   0.227   0.542
39764W        W12090   7.238  38.107  14.389
39765W        W12091  43.987  13.030   3.568
39766W        W12092  34.668  22.136   1.933
39767W        W12093   8.205  35.439  14.014
39768W        W12094  29.570  22.769  12.214
39769W        W12095  44.805  19.674   2.401
39770W        W12096   8.737   1.263   0.240
39771W        W12097  15.199  13.172  13.120
39772W        W12098  32.066  11.260  14.738
39773W        W12099   6.293   0.998  10.649
39774W        W12100   1.878   2.977   2.397
39775W        W12101  28.929  23.124  13.852
39776W        W12102  23.527   4.491  13.035
39777W        W12103   9.112   6.450  13.831
39778W        W12104  30.699  31.629  13.782
39779W        W12105  11.618   7.688   2.915
39780W        W12106   7.787   1.647  11.935
39781W        W12107  16.822  25.043   0.435
39782W        W12108   3.905  36.646  10.752
39783W        W12109  41.849  15.045  13.828
39784W        W12110  43.512  18.892   0.625
39785W        W12111   3.806   7.968   3.687
39786W        W12112   9.316  24.479   2.474
39787W        W12113  13.104   9.278  10.743
39788W        W12114   9.705  43.023   1.862
39789W        W12115  21.715  22.131  12.094
39790W        W12116  30.664  10.913   2.811
39791W        W12117  25.972  33.971   3.883
39792W        W12118  29.053  14.170  14.892
39793W        W12119  20.050  17.340   3.649
39794W        W12120  10.914   0.214   4.822
39795W        W12121  34.848  30.082   3.272
39796W        W12122  38.474  29.168  14.830
39797W        W12123   8.298  43.751  14.490
39798W        W12124   0.283  36.061  14.993
39799W        W12125   4.010  38.341   2.320
39800W        W12126  38.122  18.158  14.864
39801W        W12127  28.494   5.430   3.085
39802W        W12128   1.199  39.901  10.675
39803W        W12129  14.607  12.226  14.989
39804W        W12130  11.101  16.718   0.369
39805W        W12131  12.611  28.986   4.077
39806W        W12132   1.778  30.448   0.286
39807W        W12133  44.248  39.974  14.133
39808W        W12134  28.652  11.817   3.167
39809W        W12135  21.189  36.068  11.963
39810W        W12136  14.203   5.898  13.139
39811W        W12137  27.487   0.500   2.435
39812W        W12138  27.185   3.227  14.472
39813W        W12139  44.404  44.359   2.622
39814W        W12140   3.722   0.249   4.145
39815W        W12141  35.988   1.155   0.392
39816W        W12142  13.675  33.938   4.070
39817W        W12143  43.908  22.528  13.509
39818W        W12144  39.858  29.589  10.671
39819W        W12145  20.833  14.221  12.048
39820W        W12146  40.697  17.813  10.961
39821W        W12147  26.440  35.718  11.700
39822W        W12148  22.725  30.363  11.189
39823W        W12149  23.282   9.783  12.210
39824W        W12150  18.685  22.736  13.468
39825W        W12151   3.030  25.568   3.288
39826W        W12152  33.276   3.571   0.833
39827W        W12153   1.008   5.307   3.404
39828W        W12154  13.666  33.587   9.728
39829W        W12155  37.336  13.344  13.868
39830W        W12156  32.657  34.640   0.295
39831W        W12157  13.411  42.260  13.396
39832W        W12158  43.774  44.301  14.294
39833W        W12159   4.195  33.660   2.763
39834W        W12160  16.161   3.439  13.382
39835W        W12161  14.806  33.210   1.216
39836W        W12162  13.803  38.897  14.293
39837W        W12163   8.912  18.625   3.065
39838W        W12164  11.177  35.571   2.761
39839W        W12165  28.544  15.247   3.813
39840W        W12166   8.659  11.317   0.796
39841W        W12167   5.672  27.531   1.961
39842W        W12168  30.067   5.017  12.962
39843W        W12169  42.858  41.857   2.110
39844W        W12170   4.809  10.226  12.613
39845W        W12171  38.903  43.298   3.899
39846W        W12172  33.010  20.169  14.196
39847W        W12173   8.188  14.834   2.619
39848W        W12174  14.194  19.200   1.198
39849W        W12175  44.524  29.253   1.850
39850W        W12176   4.226  28.527   4.667
39851W        W12177  12.585   3.418   0.775
39852W        W12178  42.532  42.433   0.754
39853W        W12179  32.591  13.445   0.039
39854W        W12180  39.184  14.679  12.260
39855W        W12181  17.167  10.108  11.440
39856W        W12182   7.418  34.710   1.386
39857W        W12183  22.049  37.616  12.000
39858W        W12184  42.679  12.854   4.639
39859W        W12185  41.036   7.870   4.071
39860W        W12186   1.485  36.915   2.112
39861W        W12187  24.497  29.867   2.195
39862W        W12188  28.843  35.590  11.989
39863W        W12189  23.869  16.272   2.101
39864W        W12190  14.217  13.131   2.828
39865W        W12191  33.040  16.038  11.949
39866W        W12192  12.358  15.331   0.755
39867W        W12193  20.462  15.307   0.930
39868W        W12194  43.023   3.855   2.363
39869W        W12195  29.483  29.380  11.043
39870W        W12196  28.723  31.564  10.642
39871W        W12197  35.245  30.613   3.318
39872W        W12198  20.670  13.295   3.611
39873W        W12199  27.976  14.065  13.323
39874W        W12200  19.688  34.159  14.473
39875W        W12201  14.407  25.370  13.774
39876W        W12202   1.797  12.920   1.933
39877W        W12203  25.963   6.415   1.130
39878W        W12204   1.682  31.613   4.856
39879W        W12205  22.159  31.448   1.811
39880W        W12206   3.478  23.577  12.312
39881W        W12207   9.896  36.880  13.473
39882W        W12208   7.247  10.647   3.030
39883W        W12209  28.429  30.530   4.528
39884W        W12210   6.869  43.039  14.388
39885W        W12211  30.398   3.927  10.709
39886W        W12212  22.801  23.831  11.548
39887W        W12213  30.891  18.303  11.815
39888W        W12214   5.910  15.682  13.099
39889W        W12215  12.152  15.284   0.282
39890W        W12216  13.820   0.369  12.867
39891W        W12217   4.257  30.079   3.416
39892W        W12218  31.245  43.880   2.391
39893W        W12219  30.706   0.738   1.085
39894W        W12220   3.715  10.660   3.257
39895W        W12221  41.239   3.245   3.287
39896W        W12222  43.977  33.560  11.853
39897W        W12223  14.030  31.832  13.470
39898W        W12224  19.099  36.577  13.321
39899W        W12225  39.339   4.459  10.754
39900W        W12226  14.239  35.865   4.715
39901W        W12227  18.705  34.499  12.676
39902W        W12228  28.922  22.312   1.233
39903W        W12229  33.622  31.678  10.724
39904W        W12230  15.808  22.963   0.249
39905W        W12231   7.439  33.138   0.277
39906W        W12232  39.329  43.642   4.605
39907W        W12233  23.778  34.233   2.390
39908W        W12234  28.006  32.037   2.340
39909W        W12235  29.450  41.484  14.533
39910W        W12236   0.352  22.407   5.496
39911W        W12237   4.212  28.425   0.734
39912W        W12238  24.730   0.051  12.160
39913W        W12239   9.583  42.850   2.774
39914W        W12240   5.139  31.280   1.071
39915W        W12241  42.936   4.147   1.156
39916W        W12242  30.101  11.547   0.461
39917W        W12243  19.220  32.351  12.069
39918W        W12244   6.827   2.775  11.843
39919W        W12245  15.858   5.245  11.160
39920W        W12246  10.169  35.340   2.801
39921W        W12247   7.994  28.675   1.380
39922W        W12248  44.991  32.917   2.614
39923W        W12249  30.886   5.143  14.263
39924W        W12250   1.255  36.943   1.179
39925W        W12251   0.711  44.067   0.330
39926W        W12252  27.011   9.875   4.234
39927W        W12253   1.234  14.610  14.015
39928W        W12254   1.766  34.220  13.493
39929W        W12255   8.338  44.778  11.802
39930W        W12256  28.911  11.318   0.024
39931W        W12257  20.762  22.202   2.735
39932W        W12258  28.654  41.965  14.460
39933W        W12259  43.219  27.465  12.803
39934W        W12260  34.791   9.239   0.840
39935W        W12261  23.551  28.650  14.433
39936W        W12262   6.866  32.475   3.682
39937W        W12263  10.230  20.742  12.756
39938W        W12264  15.528  30.990   1.652
39939W        W12265   9.090   1.709  14.887
39940W        W12266   7.316  42.042   1.080
39941W        W12267  42.071  10.234   0.950
39942W        W12268  22.161   7.833  11.043
39943W        W12269  26.116  43.436   2.393
39944W        W12270  14.580  18.407   2.769
39945W        W12271  30.048  20.331  13.413
39946W        W12272   4.786  30.971   0.331
39947W        W12273  25.552   6.810   3.609
39948W        W12274  31.454  29.934  11.639
39949W        W12275  38.396  25.979  10.619
39950W        W12276  39.403  14.207  13.933
39951W        W12277  31.672  13.666  12.889
39952W        W12278  16.090  21.523   3.278
39953W        W12279  26.253   2.924   4.060
39954W        W12280  42.471  17.333   0.439
39955W        W12281  32.576  44.336   2.408
39956W        W12282  14.614  34.541   0.962
39957W        W12283  12.946  23.711  14.337
39958W        W12284  43.945   8.292  14.055
39959W        W12285  32.440  42.582   3.991
39960W        W12286  33.015  26.255  11.481
39961W        W12287  33.519  16.840   4.906
39962W        W12288   6.120   1.999  10.712
39963W        W12289  24.645  34.633   1.721
39964W        W12290  21.975  28.653  12.128
39965W        W12291  14.241  29.856  11.419
39966W        W12292  36.477   0.539  13.834
39967W        W12293  21.621  29.158  12.966
39968W        W12294  21.307  41.490   2.181
39969W        W12295   5.336  36.950  12.976
39970W        W12296  15.585   7.043   4.033
39971W        W12297   1.973  27.676  12.881
39972W        W12298  24.703  37.976  11.720
39973W        W12299   8.438  12.171   3.647
39974W        W12300  35.897   7.615   1.369
39975W        W12301  26.984  19.667   0.880
39976W        W12302   1.229  18.029   4.693
39977W        W12303  22.265  13.852  12.444
39978W        W12304   1.541  20.129  12.474
39979W        W12305  32.986  13.194  12.349
39980W        W12306   8.340  30.708   3.604
39981W        W12307  20.164   8.288   0.013
39982W        W12308  37.874   7.190  14.873
39983W        W12309   4.868   2.001  14.209
39984W        W12310  12.234   7.928   1.748
39985W        W12311  18.452  17.078   2.564
39986W        W12312  13.142  35.001  12.066
39987W        W12313  43.026  26.114   0.059
39988W        W12314  10.222  15.011  11.474
39989W        W12315  41.174  24.099   0.719
39990W        W12316  17.401  30.240   2.701
39991W        W12317   1.029   8.001   2.316
39992W        W12318  42.486  26.688  13.828
39993W        W12319  21.887  40.606   2.247
39994W        W12320  34.543  24.537  13.858
39995W        W12321  32.178  29.003   3.117
39996W        W12322  11.940  19.087  12.840
39997W        W12323  11.673  27.457   0.998
39998W        W12324  24.660  11.322   4.109
39999W        W12325  35.101   4.889  14.241
40000W        W12326  37.757  29.887   3.752
40001W        W12327  27.473  22.565  14.492
40002W        W12328  29.436  17.700   0.138
40003W        W12329  23.782   5.297   2.948
40004W        W12330  20.382  31.137  14.841
40005W        W12331   6.275   1.724   4.143
40006W        W12332   2.354  32.555  13.408
40007W        W12333  42.938  44.688   4.911
40008W        W12334  15.747  30.404   2.192
40009W        W12335  38.606  35.627  10.550
40010W        W12336  30.068  11.898   1.421
40011W        W12337  35.005  15.221   3.344
40012W        W12338  23.539  37.984   0.202
40013W        W12339  10.276   2.636   0.404
40014W        W12340  43.443  20.599   4.083
40015W        W12341  32.410  40.260  12.992
40016W        W12342  28.475   1.345   3.365
40017W        W12343  29.506  42.883  10.362
40018W        W12344   3.360  17.208  12.876
40019W        W12345  34.775  19.240  11.605
40020W        W12346  13.591  23.757   1.746
40021W        W12347   0.814  32.101   0.002
40022W        W12348  36.905  24.366   2.691
40023W        W12349  21.292  13.532  13.450
40024W        W12350  26.017  11.209   1.881
40025W        W12351  19.776  11.325   0.938
40026W        W12352   8.887  29.236  11.221
40027W        W12353  17.709   6.338  12.018
40028W        W12354   2.938  12.070   4.685
40029W        W12355  11.555  14.164  12.811
40030W        W12356   2.818   7.879  12.227
40031W        W12357  16.787  19.950   1.268
40032W        W12358  31.165  13.332   3.114
40033W        W12359  17.265  25.469  12.463
40034W        W12360  14.294  29.724  10.682
40035W        W12361  35.539  31.076   0.816
40036W        W12362  21.750  24.976  11.979
40037W        W12363  20.096  16.518   1.026
40038W        W12364  23.774   3.437  14.932
40039W        W12365  29.011  31.394   3.484
40040W        W12366  30.190  23.251  12.278
40041W        W12367  37.506   3.012  13.406
40042W        W12368   7.658  26.134   3.694
40043W        W12369  26.027   6.742   1.729
40044W        W12370  41.331   4.960  13.899
40045W        W12371   4.380  41.099  12.566
40046W        W12372   6.374  39.973  14.913
40047W        W12373   3.052  29.843   0.872
40048W        W12374  24.366  33.136  10.607
40049W        W12375  19.166  33.698   4.145
40050W        W12376  16.078  21.651   0.832
40051W        W12377  13.292  23.651   2.224
40052W        W12378  14.212  38.429  12.665
40053W        W12379   2.195   4.641  14.307
40054W        W12380  30.401  29.434   4.115
40055W        W12381  27.750  22.074   1.873
40056W        W12382  34.886  39.552   1.507
40057W        W12383  11.299  38.916   2.838
40058W        W12384   0.310  13.286  14.884
40059W        W12385  10.328  35.499  13.592
40060W        W12386  41.931   1.359  11.551
40061W        W12387  43.761  27.276   2.835
40062W        W12388  24.348  33.417  11.056
40063W        W12389  38.527  25.941  11.484
40064W        W12390  37.282  18.618   3.235
40065W        W12391  40.958   8.905  14.420
40066W        W12392  22.741  40.807  11.036
40067W        W12393  10.146  31.188  12.899
40068W        W12394  29.744   1.691  12.050
40069W        W12395   6.163  44.369   4.275
40070W        W12396  15.867   3.278  13.771
40071W        W12397  17.264  26.415   0.734
40072W        W12398  43.270   9.631   0.337
40073W        W12399   4.761   1.941  12.975
40074W        W12400  19.604  35.777  11.042
40075W        W12401  17.864  24.562  11.059
40076W        W12402  23.522  40.561   3.370
40077W        W12403  19.702  40.489  11.184
40078W        W12404  25.628   8.368  13.436
40079W        W12405   9.775  28.976   2.002
40080W        W12406  14.753   8.188  11.539
40081W        W12407  16.413  22.090   0.890
40082W        W12408  23.938  31.485   2.334
40083W        W12409  35.890  42.033   4.135
40084W        W12410  34.669  17.569  11.156
40085W        W12411  15.730  16.021  14.373
40086W        W12412  37.619  13.620  13.100
40087W        W12413   5.415  42.807   3.262
40088W        W12414  12.201  41.626  10.744
40089W        W12415  12.485  31.920  14.524
40090W        W12416  32.017  16.696   1.239
40091W        W12417  25.110  27.460   4.804
40092W        W12418  30.454  30.130  11.630
40093W        W12419  33.091  32.028   0.857
40094W        W12420   8.000   3.698   1.265
40095W        W12421  28.587  24.542  14.840
40096W        W12422  43.913   7.979  12.263
40097W        W12423  19.814  30.156   0.530
40098W        W12424  39.870  11.328  13.448
40099W        W12425  36.949  32.523  14.134
40100W        W12426  36.127  20.809   0.652
40101W        W12427   2.154   7.650  11.603
40102W        W12428  44.208  26.691  14.427
40103W        W12429  40.983  40.108   0.839
40104W        W12430  31.457  32.595  14.903
40105W        W12431  18.087   9.337   1.957
40106W        W12432  35.862  30.659   0.801
40107W        W12433   0.369  43.430  14.804
40108W        W12434  38.396  27.477  13.104
40109W        W12435  26.627  26.046   4.549
40110W        W12436  30.682   4.393  10.925
40111W        W12437  21.438  33.933   4.281
40112W        W12438  38.514   0.340  10.873
40113W        W12439  19.473  26.066   3.272
40114W        W12440  18.172  31.141   4.780
40115W        W12441  29.153  38.414   3.216
40116W        W12442   7.253   3.237  13.792
40117W        W12443   0.235  10.318  11.217
40118W        W12444  11.812  12.005  11.520
40119W        W12445  36.982  16.622  14.579
40120W        W12446   4.860  19.621   0.365
40121W        W12447  31.810   3.017   1.737
40122W        W12448  30.521  31.457   2.886
40123W        W12449   2.989   3.767  13.197
40124W        W12450  25.335  23.496   4.500
40125W        W12451  10.575  16.049   1.560
40126W        W12452   8.752  43.192   0.841
40127W        W12453   8.618  21.441   9.973
40128W        W12454  30.640   1.626  11.947
40129W        W12455  40.343   0.040  13.972
40130W        W12456  24.564  41.543  14.990
40131W        W12457  18.287  30.880  11.133
40132W        W12458  25.600  15.207  10.906
40133W        W12459  12.104  39.657   3.724
40134W        W12460  34.868  19.806   2.230
40135W        W12461  44.524  15.323   1.840
40136W        W12462   5.259  17.908  14.822
40137W        W12463  34.057   9.545  11.698
40138W        W12464  36.304  41.067   0.284
40139W        W12465  12.149  33.443   2.099
40140W        W12466  23.331  25.290   1.376
40141W        W12467  13.864   3.060  14.605
40142W        W12468  12.106   3.900  14.925
40143W        W12469   8.125  19.692  11.993
40144W        W12470  43.025  29.438   4.578
40145W        W12471  35.445   2.765   2.368
40146W        W12472   6.084  24.192  11.614
40147W        W12473  23.503   0.971  12.885
40148W        W12474   6.895   1.874  12.289
40149W        W12475  36.921  36.398  11.904
40150W        W12476  14.555  37.391   5.117
40151W        W12477  19.121  23.470   1.461
40152W        W12478  26.502   7.017   3.721
40153W        W12479  40.113   8.573  10.737
40154W        W12480  18.600   3.167   0.417
40155W        W12481  39.423  44.455   3.283
40156W        W12482   7.887   8.461   1.428
40157W        W12483  42.266  41.806  13.560
40158W        W12484  22.943  32.913   3.745
40159W        W12485  27.349  10.420   9.830
40160W        W12486  15.294  28.565  13.006
40161W        W12487   5.276  18.390   0.931
40162W        W12488  10.294  44.463   4.590
40163W        W12489  13.520  20.983   4.805
40164W        W12490  22.957  41.900   1.698
40165W        W12491  44.815  17.059  10.555
40166W        W12492  32.088  30.925   4.948
40167W        W12493   1.089  28.687  10.291
40168W        W12494  40.926   4.424   2.302
40169W        W12495   6.909  21.087  14.763
40170W        W12496  24.115  42.779  11.952
40171W        W12497  26.151  13.021   3.952
40172W        W12498  29.261  15.634   4.952
40173W        W12499  40.098  30.166   2.421
40174W        W12500  42.142  22.996   2.826
40175W        W12501  18.013  15.128   1.969
40176W        W12502  19.200   7.386  11.742
40177W        W12503  25.585  24.654   0.033
40178W        W12504  33.176  25.698  12.698
40179W        W12505  19.962  31.314  13.872
40180W        W12506  31.411  44.216  12.081
40181W        W12507   9.008  35.608   3.689
40182W        W12508  12.222  11.702   2.020
40183W        W12509  36.357  28.642   3.642
40184W        W12510  39.500   8.933   2.159
40185W        W12511   0.655   5.114   1.964
40186W        W12512  20.695  20.968   1.517
40187W        W12513   1.715  42.942  13.906
40188W        W12514  29.471  20.610   3.952
40189W        W12515  11.040  31.627   1.850
40190W        W12516   5.222   0.859   2.322
40191W        W12517  15.728   9.371   2.282
40192W        W12518  39.277  29.977   1.485
40193W        W12519  41.825  30.944  12.099
40194W        W12520   6.730  30.105  13.024
40195W        W12521  27.231  10.585  12.998
40196W        W12522  12.141  29.550  12.157
40197W        W12523  25.139  36.417   4.467
40198W        W12524  33.978  14.675   3.841
40199W        W12525  28.096   8.627   2.785
40200W        W12526  21.268   0.007  12.957
40201W        W12527  30.578   4.139   4.304
40202W        W12528  33.831  28.051   2.343
40203W        W12529  30.575  28.161  12.932
40204W        W12530  23.097   4.746  13.423
40205W        W12531  18.121  28.097  10.681
40206W        W12532  28.121  33.531   2.115
40207W        W12533   5.983  14.631  12.669
40208W        W12534  13.898  20.608   4.534
40209W        W12535  22.451  14.470   3.268
40210W        W12536   2.999  12.332   4.238
40211W        W12537  33.290  39.516  11.144
40212W        W12538  24.172  24.164   3.082
40213W        W12539  11.113  16.214   0.421
40214W        W12540   7.902  19.247  10.552
40215W        W12541  12.678   3.334  12.985
40216W        W12542  29.182  33.526   0.775
40217W        W12543  43.332   5.414  14.377
40218W        W12544  39.144  15.073  13.464
40219W        W12545  14.161  17.953  11.598
40220W        W12546  25.112  44.191   2.350
40221W        W12547   8.758  43.468   1.278
40222W        W12548  32.781  40.838   0.660
40223W        W12549  37.564  20.305   0.060
40224W        W12550  37.917   3.804   0.758
40225W        W12551   0.394  32.968  11.218
40226W        W12552  34.412  12.762   1.378
40227W        W12553  35.607  16.973   4.525
40228W        W12554  27.594  42.031   4.510
40229W        W12555  10.705  14.626   1.752
40230W        W12556  37.806  29.038   3.434
40231W        W12557  44.936  31.446   0.832
40232W        W12558   0.463  32.629  11.594
40233W        W12559  35.127  34.660  10.228
40234W        W12560  18.060   6.744   2.309
40235W        W12561   0.913  33.973  13.983
40236W        W12562  18.200  19.003  14.748
40237W        W12563  43.805  44.808   4.090
40238W        W12564  21.294  34.474   0.875
40239W        W12565  30.712  27.430   0.799
40240W        W12566   4.174  34.402   3.730
40241W        W12567   9.283  13.049   2.511
40242W        W12568  12.675  34.101   2.739
40243W        W12569  32.932   2.906   0.993
40244W        W12570   8.782  12.560  11.139
40245W        W12571  29.006  39.819  14.831
40246W        W12572   5.478  27.989   1.799
40247W        W12573  30.694  11.601   3.608
40248W        W12574  15.336  26.486  12.914
40249W        W12575   8.936  40.544  10.494
40250W        W12576  11.462  11.963  12.465
40251W        W12577   3.924  32.446   0.383
40252W        W12578   9.985  37.443   3.369
40253W        W12579  27.682  22.915  10.994
40254W        W12580  29.865  34.855  13.961
40255W        W12581   6.139  33.913   4.091
40256W        W12582   5.202   4.953   1.996
40257W        W12583  37.846  40.223  10.994
40258W        W12584  14.321  35.827  12.048
40259W        W12585  17.391  32.493  11.992
40260W        W12586  41.446  25.497  12.844
40261W        W12587  36.444  29.478   3.327
40262W        W12588   4.821  32.104  10.212
40263W        W12589   1.404  19.977   2.318
40264W        W12590  16.810  39.824  13.213
40265W        W12591  19.742  33.457  12.501
40266W        W12592  23.295  19.980   2.314
40267W        W12593   5.739  34.931   4.694
40268W        W12594  19.610  18.855   1.638
40269W        W12595  28.955  30.961  13.521
40270W        W12596  32.435   6.707  11.173
40271W        W12597  11.318  34.280   2.810
40272W        W12598  21.161   1.013  14.022
40273W        W12599  39.481  27.030  10.690
40274W        W12600  41.235  39.939  11.185
40275W        W12601  44.777  39.468  12.941
40276W        W12602  41.780  35.840   0.414
40277W        W12603  12.205   6.986   1.719
40278W        W12604   0.758  13.838   0.356
40279W        W12605  44.022  41.145   0.364
40280W        W12606  29.430  19.816   4.628
40281W        W12607  44.652  24.665  12.852
40282W        W12608  21.229   0.786  14.487
40283W        W12609   3.280  28.134   2.277
40284W        W12610  43.985  38.919  11.659
40285W        W12611  29.115  15.615   1.764
40286W        W12612  36.579  26.619  11.284
40287W        W12613   4.910  32.569  11.662
40288W        W12614   0.568  41.341  13.807
40289W        W12615  39.825  40.296   3.616
40290W        W12616  44.503  44.073   3.686
40291W        W12617  18.161   0.274  10.473
40292W        W12618  37.050  19.052   3.087
40293W        W12619  10.893  17.631   3.111
40294W        W12620  36.895  30.894  13.820
40295W        W12621  39.019  39.254  10.920
40296W        W12622  43.666  29.704  11.471
40297W        W12623  16.331  17.045  12.966
40298W        W12624  15.650   2.799   3.662
40299W        W12625  34.134  13.859  12.991
40300W        W12626  44.022  26.890  14.874
40301W        W12627  42.397  31.585  14.497
40302W        W12628  24.659  18.614   4.569
40303W        W12629  14.621   0.792   1.248
40304W        W12630  40.908  10.901  11.201
40305W        W12631  27.679   5.164   1.878
40306W        W12632   0.762  32.078   4.786
40307W        W12633  30.546   7.609  13.257
40308W        W12634  35.932   9.721   4.090
40309W        W12635  38.688   8.977   5.211
40310W        W12636  34.708  25.918  14.709
40311W        W12637   9.147  28.505   4.854
40312W        W12638  36.923  12.341  14.380
40313W        W12639  43.828  30.979   4.493
40314W        W12640  27.577   7.254  14.112
40315W        W12641  12.764  44.957   3.119
40316W        W12642  20.268  16.292   9.940
40317W        W12643  28.959  12.524  11.090
40318W        W12644   1.150  21.881   9.790
40319W        W12645  42.889  13.215   1.562
40320W        W12646  37.944  33.512  14.961
40321W        W12647  21.074   3.204   1.307
40322W        W12648  11.934  17.271   1.297
40323W        W12649  11.232  19.202   0.489
40324W        W12650   2.348  28.404  12.377
40325W        W12651   0.840  18.074   4.185
40326W        W12652  24.771   3.897   3.640
40327W        W12653  31.090  34.258   2.839
40328W        W12654   1.903  15.553  10.649
40329W        W12655   0.379   9.592  12.483
40330W        W12656   8.226  11.400  14.926
40331W        W12657  14.559  26.279  11.622
40332W        W12658  40.118  21.470   1.830
40333W        W12659  12.042   7.223  13.396
40334W        W12660  25.776  14.569   2.867
40335W        W12661  26.358  23.022   2.266
40336W        W12662   6.770  44.081   4.220
40337W        W12663  13.863  13.125  12.463
40338W        W12664  22.011  33.265  13.358
40339W        W12665  27.114  16.293  14.970
40340W        W12666  33.876  15.438  12.227
40341W        W12667  19.128  35.681   3.277
40342W        W12668  21.294   6.715  10.735
40343W        W12669  33.291   0.763  11.666
40344W        W12670  32.545   9.398   1.196
40345W        W12671  20.735   9.905  12.046
40346W        W12672  33.508  39.515  12.961
40347W        W12673   4.349  15.154   0.662
40348W        W12674  21.674  32.929  11.406
40349W        W12675   8.134  21.826   3.245
40350W        W12676  23.581  19.084  14.410
40351W        W12677  40.228  21.190   1.355
40352W        W12678   4.262  20.565  12.191
40353W        W12679  16.673  38.597  11.555
40354W        W12680  37.972  22.155  10.665
40355W        W12681  32.169  14.214   3.707
40356W        W12682  31.560  29.758  11.152
40357W        W12683  42.513   9.278  10.563
40358W        W12684   0.293  16.721  11.661
40359W        W12685   1.982  15.870  12.098
40360W        W12686  44.709   2.433  13.482
40361W        W12687   6.902   9.232   4.021
40362W        W12688  18.180   1.524   1.767
40363W        W12689  31.724  39.138  14.587
40364W        W12690   6.411  32.325   1.731
40365W        W12691   3.239  15.945   0.737
40366W        W12692  40.405  32.385  10.649
40367W        W12693  22.675  30.666  11.622
40368W        W12694  25.152  33.713  12.001
40369W        W12695  23.500  40.613   1.009
40370W        W12696  19.426  26.579  14.399
40371W        W12697   9.161  13.718  10.959
40372W        W12698  42.421  16.677   2.972
40373W        W12699   5.590  14.366   0.033
40374W        W12700  12.102  37.855   3.756
40375W        W12701   6.166  23.963  10.750
40376W        W12702   2.320   2.461   1.340
40377W        W12703   3.340   9.189  11.976
40378W        W12704   7.799  23.749   0.834
40379W        W12705  11.719   6.309  13.801
40380W        W12706  42.742  22.425  11.100
40381W        W12707  41.913   1.333  12.439
40382W        W12708   1.774  10.113   0.760
40383W        W12709  38.141   6.381   3.807
40384W        W12710   4.403  25.510   4.119
40385W        W12711  26.101   1.720   3.224
40386W        W12712  32.108  24.131   3.312
40387W        W12713  44.153  17.843   1.113
40388W        W12714   5.678  35.398   4.017
40389W        W12715  39.577  23.293  10.697
40390W        W12716  25.773  38.886   2.210
40391W        W12717  17.443  12.282  13.588
40392W        W12718   0.938  27.989   2.766
40393W        W12719  31.569  37.332   0.851
40394W        W12720  43.982  20.701  12.540
40395W        W12721  42.938  35.223   4.181
40396W        W12722  14.075   2.921   3.759
40397W        W12723  41.088  19.664   3.679
40398W        W12724   6.059   4.394   4.714
40399W        W12725   4.262  27.120   4.883
40400W        W12726  23.146  24.498   1.964
40401W        W12727   6.173  38.946   4.123
40402W        W12728  17.736  43.204  11.008
40403W        W12729  24.622  30.098  11.886
40404W        W12730   8.196   3.837   3.771
40405W        W12731   1.189   3.698  10.760
40406W        W12732  14.310  39.552   1.220
40407W        W12733  29.390  32.097  11.546
40408W        W12734  16.136  40.563   0.349
40409W        W12735   5.261   3.390   4.979
40410W        W12736  37.700  40.968   2.706
40411W        W12737  18.073  10.337  14.710
40412W        W12738  33.927  14.632  13.616
40413W        W12739  17.804  25.590  13.371
40414W        W12740  43.987  19.374   3.287
40415W        W12741  21.125  44.754  12.452
40416W        W12742  40.487  10.874  10.904
40417W        W12743  13.160  33.666  11.549
40418W        W12744  43.058  23.601  11.042
40419W        W12745  43.877  14.693  10.568
40420W        W12746  26.968  22.590   4.547
40421W        W12747   1.710  26.733   1.657
40422W        W12748  16.033   6.249   4.102
40423W        W12749  43.258  31.042   4.153
40424W        W12750  28.884  14.316  13.838
40425W        W12751  23.869  44.320   1.437
40426W        W12752  25.762   2.206   4.469
40427W        W12753  42.459   8.242   5.114
40428W        W12754   3.158  14.800   5.038
40429W        W12755  24.267  24.272   0.412
40430W        W12756  37.567  42.589   4.884
40431W        W12757  41.486   0.108   0.272
40432W        W12758   3.549  32.065   4.102
40433W        W12759  11.079  37.863  14.384
40434W        W12760  44.145  35.998   1.419
40435W        W12761  18.562   5.216   3.071
40436W        W12762  34.390  29.897   0.333
40437W        W12763  16.311  27.113   1.345
40438W        W12764  11.664  36.586   0.375
40439W        W12765  28.886  38.202  12.516
40440W        W12766   1.733  21.718   9.696
40441W        W12767   4.417  19.911   0.265
40442W        W12768  14.613  11.172  13.091
40443W        W12769  13.127  24.067  13.963
40444W        W12770  21.323   9.788  14.759
40445W        W12771  15.812  22.894   2.917
40446W        W12772  37.600  15.038   0.503
40447W        W12773  15.569  28.323  12.580
40448W        W12774  22.966  24.095  14.877
40449W        W12775  43.779   6.979  11.995
40450W        W12776  22.055   6.410  11.346
40451W        W12777  43.016   3.393   4.070
40452W        W12778  28.034  15.218   0.301
40453W        W12779  14.705  25.721   2.181
40454W        W12780  42.004  40.823   0.292
40455W        W12781  29.106  40.494   3.260
40456W        W12782   3.906  25.047  12.151
40457W        W12783  30.669  25.604  14.277
40458W        W12784  24.343  39.408   0.120
40459W        W12785  26.201  19.488  11.833
40460W        W12786  32.505  19.710   3.245
40461W        W12787  13.094   1.945  12.689
40462W        W12788   7.654   4.511  13.108
40463W        W12789  36.992  29.213   0.194
40464W        W12790  41.918  19.777   0.087
40465W        W12791   4.802  30.218  14.330
40466W        W12792   5.458  39.549  11.875
40467W        W12793   8.416  15.654  13.894
40468W        W12794  20.314  10.374   1.851
40469W        W12795  10.709   6.027  12.435
40470W        W12796  21.171  18.175   2.185
40471W        W12797  14.049  17.573   3.719
40472W        W12798  10.795  10.096  12.933
40473W        W12799  21.801  26.719   4.605
40474W        W12800  32.636  38.338  11.671
40475W        W12801  21.806  33.654  11.036
40476W        W12802  38.439  24.909   4.837
40477W        W12803  14.914   5.323  12.084
40478W        W12804  22.055  21.463   4.023
40479W        W12805  18.263   6.466   3.614
40480W        W12806  25.740  31.695  12.130
40481W        W12807   3.258  11.483   4.957
40482W        W12808  14.171  28.944   4.345
40483W        W12809   6.633   2.676   1.798
40484W        W12810  37.992  22.466  12.061
40485W        W12811  44.484  31.145  13.835
40486W        W12812  32.010  25.010   4.233
40487W        W12813  27.942  27.090  12.726
40488W        W12814   6.353  42.478  13.791
40489W        W12815  10.231   9.584   3.760
40490W        W12816  26.601  13.561   3.763
40491W        W12817  15.095  39.068   3.582
40492W        W12818  20.899  33.803   4.198
40493W        W12819  14.740  39.981  11.656
40494W        W12820  18.128  31.050   1.878
40495W        W12821  34.093  39.502  12.605
40496W        W12822  17.142  43.841  10.685
40497W        W12823  39.371   5.968   1.290
40498W        W12824  40.753   7.275  11.944
40499W        W12825  13.853  39.906   3.689
40500W        W12826  24.036  29.180  13.017
40501W        W12827  24.945  14.778   5.508
40502W        W12828  25.288  26.037   0.892
40503W        W12829  25.774  27.011   3.297
40504W        W12830  34.693  17.353  14.377
40505W        W12831  19.706  16.508  13.377
40506W        W12832   8.140  31.662  13.370
40507W        W12833   7.100  43.812   4.508
40508W        W12834   3.036  16.717   4.673
40509W        W12835  34.562  29.568   2.120
40510W        W12836  34.531  30.990   3.629
40511W        W12837   1.762  31.023  14.308
40512W        W12838  22.692   6.208   3.737
40513W        W12839  40.747  10.336  10.242
40514W        W12840   1.225  14.005  11.160
40515W        W12841  43.380  34.725   4.939
40516W        W12842  15.766  17.129   4.108
40517W        W12843  36.076  16.180  11.694
40518W        W12844  19.836   0.801  12.052
40519W        W12845  28.966  18.125   1.319
40520W        W12846  11.045  28.748  11.977
40521W        W12847  14.395  36.925  13.942
40522W        W12848  10.612  31.551  14.315
40523W        W12849  15.324  36.585  13.756
40524W        W12850  43.191  40.897  12.562
40525W        W12851  43.913  42.073   2.176
40526W        W12852  12.686   8.302   2.011
40527W        W12853  21.420   9.649   0.271
40528W        W12854  24.044  15.235   9.624
40529W        W12855  40.385  10.616   4.672
40530W        W12856  31.428  43.936   2.883
40531W        W12857  28.619  14.820  13.854
40532W        W12858   3.224  38.817  10.913
40533W        W12859  20.317  43.434   3.806
40534W        W12860  22.345  30.447   1.698
40535W        W12861  25.483  25.315   1.480
40536W        W12862  24.759  14.466  13.930
40537W        W12863  30.438   2.273   1.175
40538W        W12864  42.304  33.854   0.720
40539W        W12865  14.276  28.248  12.496
40540W        W12866  17.708  19.011  11.119
40541W        W12867  30.989  25.970  10.507
40542W        W12868  31.351  33.992   0.341
40543W        W12869   4.996  30.016  11.094
40544W        W12870  11.841  19.135   4.384
40545W        W12871  33.397  28.946   2.235
40546W        W12872  29.440  37.310  12.038
40547W        W12873  21.672  34.451  12.449
40548W        W12874  33.067  26.842  10.168
40549W        W12875  29.959  33.003  12.041
40550W        W12876  22.426  10.282   4.561
40551W        W12877  17.855  33.373   1.626
40552W        W12878  33.815  12.158   2.859
40553W        W12879   7.604  20.454   3.844
40554W        W12880   1.779  41.372   1.219
40555W        W12881  28.662  22.483  13.791
40556W        W12882  15.614  18.293  14.765
40557W        W12883  36.920   2.827   4.440
40558W        W12884  12.107  23.524  14.749
40559W        W12885  16.056  37.542  12.520
40560W        W12886  19.399   8.165  14.837
40561W        W12887  43.256  11.298  14.856
40562W        W12888  10.772   1.876  13.522
40563W        W12889  21.162  17.180  10.590
40564W        W12890  41.612   9.841   4.211
40565W        W12891  14.170  13.725   1.764
40566W        W12892  25.475   1.668   1.476
40567W        W12893  38.860  24.896   1.765
40568W        W12894   2.478   6.196   2.329
40569W        W12895   3.493  37.879   4.124
40570W        W12896  31.198  12.413  13.243
40571W        W12897  39.833   4.678   3.822
40572W        W12898  36.510   0.484  10.689
40573W        W12899  15.758  19.730   1.047
40574W        W12900  15.377   1.914  12.925
40575W        W12901   9.693  38.340   0.431
40576W        W12902   5.016  23.660  12.015
40577W        W12903  38.798   9.651  11.625
40578W        W12904  15.218  44.802  12.323
40579W        W12905  42.596  20.236   1.373
40580W        W12906  34.285   5.793   1.158
40581W        W12907  31.620  35.056  13.096
40582W        W12908  21.770  22.199  12.626
40583W        W12909  37.955  23.691  11.559
40584W        W12910  17.449  27.243  11.025
40585W        W12911  27.133  43.331  14.727
40586W        W12912  40.044  22.781   2.173
40587W        W12913  31.015  37.094   4.591
40588W        W12914   4.250  17.728  12.393
40589W        W12915   2.670  34.856  13.918
40590W        W12916  33.359   2.178  14.869
40591W        W12917   3.260  25.284   1.307
40592W        W12918  33.559  38.551  13.021
40593W        W12919  30.515  12.467   3.290
40594W        W12920  41.495  23.760  11.654
40595W        W12921  26.196  32.968  11.539
40596W        W12922  41.805  17.566   0.475
40597W        W12923  24.690  32.111   4.530
40598W        W12924   7.258  40.798   4.045
40599W        W12925  22.259  26.289   3.387
40600W        W12926  21.127  14.863  12.968
40601W        W12927   5.996  27.053   2.623
40602W        W12928  28.911  28.671   1.282
40603W        W12929   8.788  11.176   1.652
40604W        W12930  26.066   3.976   0.539
40605W        W12931  21.288  26.521   3.712
40606W        W12932  13.277  24.102  10.611
40607W        W12933  18.879  25.221  13.050
40608W        W12934  35.487  21.116  13.563
40609W        W12935  24.809   6.852  11.152
40610W        W12936  43.200  28.111   2.624
40611W        W12937  41.982  26.269  13.271
40612W        W12938   9.954   0.531   1.665
40613W        W12939   7.259   9.941  13.300
40614W        W12940  14.526  18.585  13.956
40615W        W12941  16.509   3.362   2.842
40616W        W12942  40.881  33.941  12.565
40617W        W12943  12.860   0.905   2.349
40618W        W12944   0.557  37.386  14.472
40619W        W12945   9.674  44.083  12.577
40620W        W12946  31.075  40.955  10.909
40621W        W12947  19.047  29.451   0.001
40622W        W12948  29.342  38.966  10.511
40623W        W12949  35.957   4.746   0.871
40624W        W12950  21.792  22.206   4.649
40625W        W12951   6.318  27.940   0.856
40626W        W12952  25.532  25.812   3.411
40627W        W12953  14.286  40.873  10.292
40628W        W12954  44.452  18.125   4.404
40629W        W12955  29.254  32.922   4.304
40630W        W12956  34.361  19.795   0.275
40631W        W12957  31.147  19.264  13.418
40632W        W12958  36.896   5.432   1.695
40633W        W12959  18.999  38.355  10.919
40634W        W12960  19.514  39.382   3.057
40635W        W12961  44.486  16.175  12.615
40636W        W12962  11.729   1.688   1.924
40637W        W12963  12.258   0.042  13.519
40638W        W12964  16.617  27.150  11.184
40639W        W12965   7.970  15.668   5.098
40640W        W12966  12.365  14.197   4.597
40641W        W12967  36.551  30.943   2.288
40642W        W12968  23.524   3.874  13.382
40643W        W12969  34.353  23.763  10.531
40644W        W12970  40.816   9.844   1.478
40645W        W12971   0.963   6.208   0.802
40646W        W12972  21.668  43.694   3.681
40647W        W12973  32.760  33.027  13.089
40648W        W12974   7.419  40.048   4.746
40649W        W12975   4.490   7.901   3.366
40650W        W12976   6.848  36.145   0.882
40651W        W12977  10.134  16.531  10.487
40652W        W12978   1.162  38.607  10.447
40653W        W12979  40.323  17.572   1.488
40654W        W12980  17.324  26.316   2.833
40655W        W12981  11.203   9.127   4.636
40656W        W12982  22.136  15.842   2.832
40657W        W12983  27.888  13.606   3.217
40658W        W12984  38.084   7.879  14.442
40659W        W12985   3.211  23.106   4.046
40660W        W12986   1.598  39.619  14.785
40661W        W12987   5.774  12.620  10.846
40662W        W12988   8.752  11.179  11.393
40663W        W12989   5.483  11.312  14.522
40664W        W12990  34.597  30.220  14.942
40665W        W12991  26.456  27.334   4.226
40666W        W12992  33.855  14.271   2.781
40667W        W12993  25.968   1.407  11.214
40668W        W12994   8.054  35.105  12.023
40669W        W12995  15.409   7.656  14.567
40670W        W12996  26.643   4.720   4.891
40671W        W12997  20.964   9.429  11.196
40672W        W12998  15.280  11.831   2.340
40673W        W12999  40.998  21.744  10.514
40674W        W13000   1.394  24.936  11.468
40675W        W13001  15.001  24.740  12.911
40676W        W13002  24.232  11.302  12.261
40677W        W13003  12.603  24.619  13.394
40678W        W13004  15.625  40.280  12.439
40679W        W13005  37.020   5.451   3.610
40680W        W13006  18.428  39.743   9.950
40681W        W13007  18.673  17.566   1.685
40682W        W13008  35.869  30.012   1.570
40683W        W13009  21.543  26.162   2.583
40684W        W13010  42.794  11.303  13.897
40685W        W13011  44.180   6.761   1.222
40686W        W13012   5.220   6.896   1.426
40687W        W13013   9.963   7.200   0.904
40688W        W13014  17.619  17.362   3.183
40689W        W13015  11.533  15.258   3.063
40690W        W13016  42.831  42.271   2.756
40691W        W13017  10.801  37.345   0.261
40692W        W13018  18.616   5.800  10.751
40693W        W13019  36.904  33.346   0.688
40694W        W13020   8.698  36.578  13.943
40695W        W13021  38.860  23.510  14.279
40696W        W13022   6.350  41.326  13.328
40697W        W13023  24.783   5.581   4.196
40698W        W13024   4.641  38.611  12.851
40699W        W13025   3.278  29.777  11.613
40700W        W13026  29.296  44.952  11.025
40701W        W13027   9.819  27.721  14.441
40702W        W13028  18.259  36.905   1.396
40703W        W13029  44.314  27.949   0.414
40704W        W13030  14.442  18.504   4.040
40705W        W13031  37.943  36.835  12.884
40706W        W13032  37.550   1.438   4.918
40707W        W13033  17.668  26.628  14.962
40708W        W13034  13.229  33.469  13.421
40709W        W13035   7.198  10.075  12.375
40710W        W13036  26.887  38.691   1.426
40711W        W13037  18.576  24.300  12.501
40712W        W13038  23.254   5.251  13.455
40713W        W13039  40.817   3.219  13.525
40714W        W13040  26.610  39.391  13.397
40715W        W13041   5.490   7.368  11.351
40716W        W13042  27.477  33.792  12.388
40717W        W13043   5.664  16.625  11.082
40718W        W13044  12.059   1.411   0.317
40719W        W13045  35.294  14.554   3.704
40720W        W13046  28.676  31.719   3.301
40721W        W13047  44.218  38.022  13.339
40722W        W13048   1.673  26.722  12.942
40723W        W13049   4.129  17.303  11.623
40724W        W13050  37.481  10.551  10.204
40725W        W13051  30.547   3.892  13.049
40726W        W13052  37.927   1.746   3.322
40727W        W13053  34.146   1.801  14.412
40728W        W13054   3.758  22.040  11.094
40729W        W13055  23.898  34.428   1.870
40730W        W13056  39.944  14.983   0.476
40731W        W13057  29.461  42.146  11.643
40732W        W13058  23.543   5.713   2.733
40733W        W13059   4.653  28.983   2.847
40734W        W13060  32.484  23.430   1.727
40735W        W13061  36.913  33.537   1.692
40736W        W13062  30.106  22.022   3.425
40737W        W13063   2.556  35.088   4.708
40738W        W13064   0.878  12.895  14.304
40739W        W13065  40.912  37.034   4.089
40740W        W13066  13.633  37.546   1.836
40741W        W13067  21.029  22.728   4.659
40742W        W13068  36.789  12.328   2.889
40743W        W13069   9.850  32.143   1.214
40744W        W13070  23.710  25.150  12.592
40745W        W13071  43.264  33.377   2.370
40746W        W13072  22.750  21.077   4.604
40747W        W13073  43.534  26.689  11.112
40748W        W13074  16.250  15.991   4.326
40749W        W13075  43.237   4.739  14.834
40750W        W13076  12.311   1.340  14.848
40751W        W13077  29.836   3.239  11.979
40752W        W13078  10.385  15.344  12.871
40753W        W13079  38.006   0.914   1.208
40754W        W13080  11.257  31.963  13.986
40755W        W13081  13.164   1.468  11.137
40756W        W13082  27.189  29.053  14.357
40757W        W13083  40.537   7.786  13.479
40758W        W13084  12.106  14.823  12.101
40759W        W13085  39.865   2.815  10.502
40760W        W13086  37.922   9.655   2.231
40761W        W13087  31.261  38.064   2.507
40762W        W13088  21.717  35.124  13.283
40763W        W13089  41.472   7.117  11.666
40764W        W13090  14.872  34.457  14.337
40765W        W13091  22.782  16.625  11.110
40766W        W13092   2.716  11.341   3.234
40767W        W13093  36.260  44.991  14.694
40768W        W13094  11.948   1.515  14.416
40769W        W13095  15.271  44.340  11.564
40770W        W13096  33.634  15.704   3.833
40771W        W13097  36.451  35.930   3.319
40772W        W13098  10.406  35.013  12.811
40773W        W13099  40.899  15.875  10.184
40774W        W13100  21.484  38.278  10.685
40775W        W13101  33.403   1.729  11.177
40776W        W13102   5.752  16.608   2.770
40777W        W13103  37.832  11.322   2.587
40778W        W13104  42.570  24.733   3.382
40779W        W13105  35.441  37.155   3.698
40780W        W13106   2.483  22.750  13.574
40781W        W13107  16.340   9.305   0.924
40782W        W13108  39.012  21.141   4.593
40783W        W13109  26.426   1.408  10.775
40784W        W13110  17.225   9.127  14.906
40785W        W13111  34.476  42.806   1.157
40786W        W13112  16.568   7.171  11.163
40787W        W13113  28.632  25.799   3.646
40788W        W13114  27.014   2.577  13.071
40789W        W13115   6.343  17.146  13.014
40790W        W13116  37.310  16.596  13.870
40791W        W13117   6.225  23.493  14.072
40792W        W13118  14.379  37.898   2.650
40793W        W13119  29.446  13.252   3.629
40794W        W13120  41.578  11.231   3.627
40795W        W13121  36.996  21.287   0.276
40796W        W13122   9.221  14.601   4.717
40797W        W13123  10.587  36.874   3.151
40798W        W13124  22.837  10.859   1.383
40799W        W13125   8.269  36.345   0.516
40800W        W13126  23.782  22.234  14.426
40801W        W13127  16.543  25.030   3.036
40802W        W13128   3.651   9.420   9.507
40803W        W13129  24.518  24.116  12.828
40804W        W13130  29.426  22.052  13.914
40805W        W13131  44.395  34.028  13.843
40806W        W13132  15.775   0.860  11.000
40807W        W13133  20.506   2.928   3.827
40808W        W13134   5.774  11.141   2.836
40809W        W13135  36.193  23.261   4.363
40810W        W13136  21.305  39.538  13.232
40811W        W13137  19.746  35.163  12.569
40812W        W13138   2.983  36.152  13.115
40813W        W13139  40.662  29.093  13.960
40814W        W13140  22.299   9.428   3.918
40815W        W13141   9.354  37.577  14.545
40816W        W13142   5.430  40.318   2.702
40817W        W13143   9.348  25.447  12.226
40818W        W13144   0.966  30.641   3.542
40819W        W13145  36.017  43.376   2.835
40820W        W13146  41.877   4.338  14.258
40821W        W13147  20.640  14.600  13.903
40822W        W13148  37.135  32.459  11.078
40823W        W13149  15.190  30.641   1.404
40824W        W13150  33.659  11.564   0.819
40825W        W13151  30.144  31.910   4.640
40826W        W13152  31.873  42.338   2.774
40827W        W13153  16.489   8.302  11.990
40828W        W13154   6.394   4.223  11.660
40829W        W13155  23.604  20.532   3.713
40830W        W13156  37.105  19.900  12.072
40831W        W13157   6.903  16.566   2.214
40832W        W13158  30.099  22.773  12.435
40833W        W13159   3.919  15.812  11.540
40834W        W13160  12.743   4.749  10.633
40835W        W13161   7.348  28.710  10.828
40836W        W13162  41.298  37.946  11.525
40837W        W13163  40.098  29.547   0.411
40838W        W13164  35.008  10.008  11.991
40839W        W13165  25.885  36.042   2.281
40840W        W13166  11.029  37.494   4.560
40841W        W13167  41.917  16.756   2.782
40842W        W13168  34.120  42.939  12.538
40843W        W13169  27.481  26.462  13.781
40844W        W13170  40.949  39.599   0.826
40845W        W13171  37.146   7.883   3.316
40846W        W13172  41.879  27.980  10.366
40847W        W13173   0.208  41.289  14.873
40848W        W13174  26.529  26.590  12.111
40849W        W13175  43.280  24.300  13.311
40850W        W13176  31.498  29.572  14.356
40851W        W13177  25.969   4.762  14.487
40852W        W13178  32.370   9.797  13.031
40853W        W13179  25.463  11.310   4.672
40854W        W13180  23.642  17.764   9.947
40855W        W13181   0.816  11.467  11.133
40856W        W13182   3.845   6.410  11.137
40857W        W13183  11.585  20.351  13.049
40858W        W13184  44.770  15.726   3.945
40859W        W13185  13.105  40.017   4.892
40860W        W13186   5.535  14.734   4.758
40861W        W13187  39.482  20.046   0.793
40862W        W13188  32.969  17.636   1.068
40863W        W13189  21.037   9.673   2.013
40864W        W13190  21.983  36.279  12.504
40865W        W13191  17.306  40.745   1.697
40866W        W13192   9.303  36.030   4.572
40867W        W13193  41.796   7.274  14.488
40868W        W13194  10.598  24.258  14.954
40869W        W13195  26.036  10.793   3.083
40870W        W13196  23.560  33.912   0.959
40871W        W13197  19.677  38.953  12.438
40872W        W13198  35.349   5.332  14.335
40873W        W13199  19.581  22.124  12.330
40874W        W13200  18.277  28.288   1.281
40875W        W13201   4.238  43.860   0.539
40876W        W13202  42.759  20.544  12.518
40877W        W13203   8.176   5.836  14.959
40878W        W13204  23.759   6.966  14.019
40879W        W13205   2.128  16.764  10.541
40880W        W13206  20.312  28.076  12.191
40881W        W13207  26.450  42.152  14.915
40882W        W13208  37.064  14.688  11.489
40883W        W13209  18.520  11.409  13.803
40884W        W13210   8.245  31.682  13.881
40885W        W13211  16.221  40.327  11.441
40886W        W13212  25.727  24.823   4.126
40887W        W13213   7.862  36.980  10.680
40888W        W13214   3.975  16.874   4.247
40889W        W13215  11.269  36.870   0.258
40890W        W13216   6.378  15.771   0.750
40891W        W13217  41.751  23.137  14.805
40892W        W13218  25.982  30.911  10.811
40893W        W13219  43.919  44.239   2.771
40894W        W13220  26.521   5.953   2.926
40895W        W13221  15.638  23.688  14.251
40896W        W13222   7.333  22.089  10.539
40897W        W13223   7.631   4.006   3.612
40898W        W13224  40.951  10.117  11.924
40899W        W13225   1.148   3.908  13.090
40900W        W13226  28.266  28.701  11.550
40901W        W13227  33.527  13.331  13.627
40902W        W13228  36.461   6.247   1.228
40903W        W13229  44.161  10.783   1.369
40904W        W13230  23.699  10.269  12.919
40905W        W13231  36.289   5.807   1.453
40906W        W13232  22.491  30.953  14.869
40907W        W13233  30.076  44.002   3.921
40908W        W13234  14.767  40.246   4.182
40909W        W13235  15.656  34.068   5.028
40910W        W13236   4.198  24.973  14.865
40911W        W13237  10.835  29.767  10.692
40912W        W13238   3.232  32.187  14.442
40913W        W13239  22.071  11.630  13.043
40914W        W13240   4.419  25.583  12.906
40915W        W13241  17.287  31.579   2.596
40916W        W13242  23.845  13.729   3.400
40917W        W13243  41.279   2.288   1.905
40918W        W13244  34.206  30.571   3.555
40919W        W13245  17.359   4.807  14.674
40920W        W13246  13.199  27.542   1.971
40921W        W13247  28.653  11.664  11.264
40922W        W13248  10.757  21.067  12.686
40923W        W13249  42.860  34.893   5.147
40924W        W13250  34.595  21.335   4.872
40925W        W13251   8.179  25.660  13.239
40926W        W13252   4.490  24.527  13.981
40927W        W13253  43.937  29.488   3.595
40928W        W13254  22.195   4.653  14.919
40929W        W13255   4.735  26.643  12.528
40930W        W13256  32.429  25.925   4.179
40931W        W13257   5.233  36.059   3.213
40932W        W13258  24.439  12.273   3.843
40933W        W13259  26.184  34.544  10.530
40934W        W13260  29.496  11.965   2.757
40935W        W13261  44.143   6.274  12.495
40936W        W13262  41.809  27.744  12.039
40937W        W13263  38.502   7.873  11.433
40938W        W13264  39.830  12.159   4.529
40939W        W13265  20.706  29.561  10.844
40940W        W13266  40.293  34.699  11.695
40941W        W13267   0.744  12.786  12.798
40942W        W13268  37.695  31.638   0.354
40943W        W13269  12.152  43.046   2.761
40944W        W13270  43.057  33.843   1.189
40945W        W13271  38.568  15.290  12.385
40946W        W13272  34.054  31.579  11.473
40947W        W13273   1.149   5.479  12.440
40948W        W13274  29.950  16.082   2.208
40949W        W13275  40.771  27.396   1.501
40950W        W13276  21.208  25.240  13.648
40951W        W13277   3.235   2.266   1.784
40952W        W13278  42.425  19.918   3.093
40953W        W13279  20.675  37.762   3.306
40954W        W13280   6.652   6.769   1.672
40955W        W13281  20.147  18.758   3.582
40956W        W13282  40.571  23.646   1.840
40957W        W13283  16.036  21.805  12.231
40958W        W13284  33.910  44.725  13.869
40959W        W13285  18.858  16.109  13.556
40960W        W13286  11.946  13.584  11.061
40961W        W13287  25.187  29.143   3.409
40962W        W13288  32.956  39.920  13.451
40963W        W13289  23.113  29.923  13.979
40964W        W13290  36.118  34.548  12.770
40965W        W13291  17.767  44.761  12.991
40966W        W13292  25.053   8.281   0.498
40967W        W13293   3.362  22.190  13.781
40968W        W13294   3.819  28.908   3.615
40969W        W13295  41.960  37.301  14.338
40970W        W13296  27.440  42.287  11.502
40971W        W13297  12.106  24.429   4.318
40972W        W13298  41.995  21.156   0.387
40973W        W13299   6.428  29.167  11.204
40974W        W13300  39.767  40.224   4.501
40975W        W13301  21.724  19.756  11.083
40976W        W13302   3.714   4.744  10.542
40977W        W13303  14.107  33.078   0.793
40978W        W13304   9.300  38.511   4.597
40979W        W13305  29.096  38.120  13.411
40980W        W13306  40.416  25.253  12.170
40981W        W13307  26.589  11.955  12.351
40982W        W13308   5.360   3.662  13.057
40983W        W13309  22.517  34.517  14.440
40984W        W13310  44.869  22.758  14.123
40985W        W13311  18.675  11.012  11.293
40986W        W13312  27.682  36.770  12.830
40987W        W13313   3.054  14.516  11.128
40988W        W13314  41.593  23.425   1.903
40989W        W13315  12.975  38.861   2.964
40990W        W13316   2.800   1.878  11.229
40991W        W13317  12.078  35.784   5.136
40992W        W13318  25.205  30.543  10.294
40993W        W13319  33.148   3.937  12.006
40994W        W13320  43.464  12.757   4.137
40995W        W13321   3.766  18.394   4.143
40996W        W13322  44.376  33.069  13.295
40997W        W13323  41.383  43.802   4.112
40998W        W13324  29.934  26.940   3.413
40999W        W13325  23.130   5.391   1.390
41000W        W13326  29.496  27.622   2.408
41001W        W13327   7.334  44.043   1.177
41002W        W13328   5.642  35.775  12.431
41003W        W13329   0.802  24.525   1.542
41004W        W13330  17.327  38.329  11.440
41005W        W13331   9.842  42.384  13.435
41006W        W13332  30.288  33.448  11.912
41007W        W13333   6.702   5.404   0.386
41008W        W13334   8.412   6.458   0.739
41009W        W13335  17.589   8.700  12.869
41010W        W13336  34.884   2.977  12.162
41011W        W13337   8.793   3.979  11.868
41012W        W13338  27.044  42.416   2.278
41013W        W13339  14.268  33.218  11.085
41014W        W13340  21.314  37.818   1.354
41015W        W13341  32.547  36.342  11.650
41016W        W13342  15.210   1.289  12.408
41017W        W13343  15.467  34.699  11.902
41018W        W13344  15.075  33.875   3.841
41019W        W13345  17.378  44.525  10.740
41020W        W13346  35.584  38.022  12.594
41021W        W13347  27.890   2.320   1.348
41022W        W13348  15.991  13.127  14.947
41023W        W13349  23.243  24.348  12.534
41024W        W13350  18.630  34.891  14.931
41025W        W13351  13.939  30.388   0.843
41026W        W13352  32.630  18.885   1.435
41027W        W13353   7.140  39.575   0.529
41028W        W13354  12.368   7.705  14.568
41029W        W13355   5.960  13.203   3.254
41030W        W13356  24.651   3.488   0.484
41031W        W13357  29.185  18.690  12.493
41032W        W13358  40.066  22.525   3.052
41033W        W13359  26.952  10.527   2.604
41034W        W13360  29.172  31.053   3.812
41035W        W13361   6.167  34.666  12.608
41036W        W13362  10.257  26.897  12.494
41037W        W13363  41.300  29.658   1.444
41038W        W13364  42.054  13.658  12.007
41039W        W13365  16.167   6.511   1.391
41040W        W13366  42.924  39.825   0.745
41041W        W13367  21.005   3.307   2.196
41042W        W13368  26.741  34.691  13.966
41043W        W13369  34.602  20.346  12.026
41044W        W13370   5.144  32.451  11.226
41045W        W13371  24.393  10.814   0.540
41046W        W13372   6.451  17.758   3.205
41047W        W13373  30.702  33.130   0.017
41048W        W13374  18.780  34.825   4.826
41049W        W13375  25.869  19.884   1.240
41050W        W13376  37.488  41.441  13.428
41051W        W13377   5.298  26.196  14.893
41052W        W13378  35.069  13.105   4.625
41053W        W13379  23.611  38.964   4.796
41054W        W13380  23.173  26.096   3.318
41055W        W13381  32.135  29.500   2.687
41056W        W13382  17.487  13.280  11.916
41057W        W13383  31.153  44.402   2.924
41058W        W13384  11.077  26.459  14.313
41059W        W13385   9.349   9.706   4.715
41060W        W13386   4.919  26.652   0.623
41061W        W13387   2.282   9.400   2.825
41062W        W13388  27.000   8.701  13.926
41063W        W13389  38.419  15.327  14.000
41064W        W13390  31.591  21.470   0.440
41065W        W13391   5.424  11.401   0.834
41066W        W13392  19.874  23.385  13.600
41067W        W13393  21.937  20.029   2.886
41068W        W13394   3.481  19.503   0.685
41069W        W13395   0.408  27.556  10.759
41070W        W13396  11.225  32.255   5.059
41071W        W13397  16.579  17.829   1.923
41072W        W13398  37.995   8.273   0.692
41073W        W13399  37.160  34.125  12.075
41074W        W13400  43.992   7.907  14.826
41075W        W13401  32.510  16.660   0.918
41076W        W13402  10.254  17.689  14.558
41077W        W13403  28.785  21.689   3.079
41078W        W13404  40.331  21.443   3.781
41079W        W13405   5.744   3.631   0.882
41080W        W13406   9.241  25.223   3.106
41081W        W13407  37.661  31.439  12.905
41082W        W13408   7.912  14.549   4.603
41083W        W13409  40.402  19.251   1.478
41084W        W13410   1.466  39.303   0.844
41085W        W13411   8.940  42.985   1.304
41086W        W13412  22.044  39.996  10.678
41087W        W13413  24.921  27.381  12.491
41088W        W13414  39.579  42.491  14.527
41089W        W13415  21.119  37.508   3.376
41090W        W13416  28.475  28.803  11.075
41091W        W13417  38.438  44.997   2.841
41092W        W13418  13.639  10.879   1.469
41093W        W13419  10.780   8.426   1.796
41094W        W13420  33.500  38.062  13.859
41095W        W13421  33.026  15.099  14.022
41096W        W13422  23.808  14.670  13.025
41097W        W13423  10.110  35.948  13.381
41098W        W13424  25.208  41.914   2.369
41099W        W13425  24.494   1.258  11.692
41100W        W13426  19.255   7.608  12.196
41101W        W13427  23.881  32.734   0.628
41102W        W13428  43.890  44.772  11.724
41103W        W13429  27.567  18.585  13.409
41104W        W13430   5.897  17.078   1.882
41105W        W13431  32.012  31.104   2.322
41106W        W13432  21.442  42.350  14.393
41107W        W13433  31.926   8.672   2.785
41108W        W13434   9.910   1.025  14.494
41109W        W13435  19.092  35.310   0.341
41110W        W13436  18.664  35.348   1.623
41111W        W13437  43.515  13.749   1.958
41112W        W13438  20.691  20.359   4.137
41113W        W13439  39.393  23.467   1.790
41114W        W13440  28.132  19.486   4.245
41115W        W13441  12.654  42.383  13.900
41116W        W13442  43.585  19.212  13.000
41117W        W13443  20.656   7.305   3.716
41118W        W13444  28.661  31.704   3.813
41119W        W13445  17.138  39.408   4.677
41120W        W13446  11.793  27.040   0.231
41121W        W13447  11.046  22.175  13.389
41122W        W13448  40.387  21.599   0.471
41123W        W13449  22.029  17.877   0.265
41124W        W13450   5.119  11.826   0.777
41125W        W13451  15.117   9.336  12.185
41126W        W13452  28.450  28.121   4.576
41127W        W13453  10.697  35.406  11.080
41128W        W13454  42.039  31.834  13.418
41129W        W13455  10.154   5.172   2.737
41130W        W13456  24.639   2.984   4.782
41131W        W13457  36.540  12.759  13.135
41132W        W13458  29.218  16.993   4.605
41133W        W13459   0.376  15.365  12.020
41134W        W13460  13.562  13.477   1.697
41135W        W13461  42.607  39.561  14.215
41136W        W13462  25.672   4.969   2.816
41137W        W13463  17.214   3.836   4.702
41138W        W13464  18.133  17.820   2.998
41139W        W13465   8.904  39.825   4.382
41140W        W13466   8.344  16.225   2.802
41141W        W13467  29.699  31.272  10.485
41142W        W13468   6.065  28.182  12.747
41143W        W13469  40.747  11.270  12.553
41144W        W13470   3.798  27.618   1.826
41145W        W13471  23.614  16.682  12.470
41146W        W13472  32.525   8.497   3.751
41147W        W13473  35.114  38.600   3.780
41148W        W13474  30.423  11.453  12.057
41149W        W13475   3.617  21.254  10.567
41150W        W13476  23.410   1.461   0.732
41151W        W13477  27.467  25.991   2.817
41152W        W13478   1.251  39.575   1.895
41153W        W13479   5.626  37.490   3.638
41154W        W13480  31.871  28.149   4.160
41155W        W13481  27.202  23.881   4.552
41156W        W13482   8.469  36.514   1.468
41157W        W13483  13.185  10.716  13.069
41158W        W13484   9.358  12.701  14.285
41159W        W13485  14.728  20.518  10.564
41160W        W13486  31.050   4.913  13.810
41161W        W13487  16.724   3.553   2.140
41162W        W13488  38.701  11.407   5.045
41163W        W13489  26.211   8.467  13.445
41164W        W13490  37.552  25.260  11.388
41165W        W13491   9.906  43.253   1.360
41166W        W13492  12.138  37.872  11.361
41167W        W13493  38.848  38.499  13.030
41168W        W13494   2.371  32.380   4.284
41169W        W13495  24.648  44.496   0.883
41170W        W13496  35.021  19.115   4.372
41171W        W13497  13.969  32.473   1.884
41172W        W13498  31.520   5.254  12.716
41173W        W13499  22.344   9.419  14.032
41174W        W13500   4.264   4.740   4.146
41175W        W13501  42.901  20.522  10.729
41176W        W13502  43.553  21.008  14.396
41177W        W13503  36.423  28.361   1.788
41178W        W13504  39.919  32.502   0.393
41179W        W13505  33.275  22.040   0.356
41180W        W13506  24.429  39.763   1.437
41181W        W13507  13.864  43.884  13.123
41182W        W13508   9.253  37.159  12.951
41183W        W13509  43.466   6.244  13.135
41184W        W13510   4.335  42.266   4.156
41185W        W13511  31.602   4.863  13.038
41186W        W13512  36.589  28.680   1.393
41187W        W13513  22.037  15.504  13.073
41188W        W13514   8.172  32.539   3.130
41189W        W13515  40.161   2.513  13.360
41190W        W13516  41.189  10.964  12.103
41191W        W13517  34.660  37.238   4.204
41192W        W13518   4.789  36.519   4.805
41193W        W13519  30.690   0.975   2.207
41194W        W13520  31.231  42.219  13.928
41195W        W13521  35.168  26.031  14.502
41196W        W13522  36.460  39.272  13.456
41197W        W13523  32.508  39.771  12.339
41198W        W13524  27.820  42.801  10.726
41199W        W13525  40.901  26.713  10.736
41200W        W13526   5.485  38.395   0.258
41201W        W13527  26.050  22.961  10.631
41202W        W13528   6.386  32.518  14.954
41203W        W13529  34.499   5.896   4.729
41204W        W13530  16.252   6.598   4.482
41205W        W13531  36.668  11.857  11.669
41206W        W13532   3.798  24.609   1.802
41207W        W13533   1.111   3.924  11.935
41208W        W13534  43.256  35.364  12.536
41209W        W13535  20.720   4.997   4.600
41210W        W13536  13.635   2.360  14.040
41211W        W13537  20.819  24.979   1.198
41212W        W13538  21.242   0.809  13.482
41213W        W13539  16.652  11.597  10.637
41214W        W13540   5.437  39.974   4.227
41215W        W13541  38.493  18.767  14.559
41216W        W13542  21.021   4.004  11.551
41217W        W13543   3.906  13.759   2.708
41218W        W13544  31.883  11.973   1.782
41219W        W13545  28.672  22.261  11.455
41220W        W13546  13.355   7.048   5.009
41221W        W13547  15.945  40.430  13.294
41222W        W13548  20.668   3.203   2.866
41223W        W13549  14.628  35.003   5.360
41224W        W13550  34.086  18.029  10.649
41225W        W13551  27.819  14.778  14.512
41226W        W13552   8.198  43.425   2.719
41227W        W13553  41.473  20.548  13.920
41228W        W13554  16.535  28.886   0.797
41229W        W13555   2.063  36.032   2.790
41230W        W13556  27.990  36.539   1.760
41231W        W13557   4.009  39.830   1.213
41232W        W13558  10.645  41.326   4.075
41233W        W13559  34.101  11.318   3.112
41234W        W13560  39.332   3.456   3.429
41235W        W13561  34.564   3.449  11.642
41236W        W13562   7.526  44.110  11.645
41237W        W13563  14.341  43.408   0.281
41238W        W13564  17.640  11.589   0.384
41239W        W13565  29.071  21.243   3.032
41240W        W13566  39.827   3.969  11.936
41241W        W13567  37.070  35.317  11.623
41242W        W13568  42.466  23.576   4.581
41243W        W13569  36.298   4.205  10.598
41244W        W13570  16.088  15.786   0.469
41245W        W13571  39.858  44.957  11.171
41246W        W13572   6.929   1.864  13.276
41247W        W13573  39.047  30.704   4.213
41248W        W13574  41.552   1.019  11.538
41249W        W13575  33.659  29.771   1.651
41250W        W13576  31.031   6.395   3.259
41251W        W13577   3.720  44.367   4.653
41252W        W13578  31.100  30.356   4.093
41253W        W13579  29.977  26.271   4.609
41254W        W13580  31.162  33.709   4.752
41255W        W13581  34.399  17.004  11.441
41256W        W13582  21.188  20.034  12.814
41257W        W13583  38.225  28.470   0.498
41258W        W13584  34.005  41.749  10.573
41259W        W13585   5.979  12.363  13.032
41260W        W13586  20.242  15.387  12.852
41261W        W13587  19.399  12.576  13.477
41262W        W13588  35.602  39.157   2.799
41263W        W13589  14.970  17.592   4.357
41264W        W13590   3.293  10.315  12.897
41265W        W13591   1.864   4.488  10.654
41266W        W13592  42.471  11.402   3.624
41267W        W13593  24.377   7.198  13.115
41268W        W13594   4.713  15.279  12.343
41269W        W13595  24.814  43.188   3.152
41270W        W13596  42.037   9.808  13.436
41271W        W13597  44.973  22.113  10.590
41272W        W13598   5.389   2.470  14.811
41273W        W13599   1.022  10.180   1.722
41274W        W13600  35.848  28.761  14.014
41275W        W13601  40.461  32.492   1.628
41276W        W13602  23.671  20.505  11.632
41277W        W13603  28.155  25.506  10.157
41278W        W13604  26.121  37.398   2.405
41279W        W13605  32.201   4.459   0.961
41280W        W13606  40.508  34.672  13.165
41281W        W13607  41.533  22.807   5.022
41282W        W13608  13.007  31.123  10.569
41283W        W13609   6.990  12.265  11.171
41284W        W13610   1.701  11.280   1.537
41285W        W13611  14.489  28.987  13.346
41286W        W13612  25.799   7.144  11.938
41287W        W13613  19.587  37.513  11.489
41288W        W13614  33.044  12.883   1.901
41289W        W13615  34.111  33.899  12.507
41290W        W13616  30.665  42.912   4.004
41291W        W13617  22.214  12.604  12.577
41292W        W13618  38.969  13.231   2.289
41293W        W13619  44.258  22.926  13.451
41294W        W13620   7.103   3.582  10.159
41295W        W13621  41.035  18.755  13.071
41296W        W13622  31.259  29.293   1.217
41297W        W13623  41.965  23.013   4.068
41298W        W13624  28.583  29.787  13.571
41299W        W13625  43.149  36.130  10.689
41300W        W13626  38.185  40.888   0.465
41301W        W13627  35.032  36.060   1.096
41302W        W13628  27.645  22.182  11.426
41303W        W13629  25.965  19.704  13.901
41304W        W13630  18.234   6.743  14.377
41305W        W13631  11.159  40.486   1.102
41306W        W13632   4.812  26.073  11.464
41307W        W13633   7.899  36.951  14.729
41308W        W13634  40.438  31.089  12.016
41309W        W13635  34.355  21.169   2.667
41310W        W13636  19.740  36.597   1.308
41311W        W13637  17.226  23.731   3.397
41312W        W13638   9.995  31.602   4.201
41313W        W13639  43.457  31.668   4.651
41314W        W13640  36.851  39.550  11.401
41315W        W13641  36.012   2.343  13.884
41316W        W13642   6.219  31.139   3.737
41317W        W13643  30.607  39.936  11.218
41318W        W13644  33.404  26.559  11.595
41319W        W13645   9.293   4.033   1.385
41320W        W13646  30.360  20.550   4.243
41321W        W13647   8.748  16.106   0.299
41322W        W13648  38.705  21.717  11.079
41323W        W13649  31.275  32.142  14.765
41324W        W13650  31.926   6.938   4.099
41325W        W13651  17.298  38.937   2.256
41326W        W13652   4.093   0.702   3.464
41327W        W13653  35.107   0.434   4.455
41328W        W13654  20.982  23.501  12.882
41329W        W13655  36.866  40.526   2.434
41330W        W13656  40.960  40.024   4.934
41331W        W13657   6.445  18.866  14.823
41332W        W13658   9.878  19.741   4.418
41333W        W13659  37.562  12.691  12.957
41334W        W13660  16.537  29.128  10.778
41335W        W13661   7.223  10.279   4.691
41336W        W13662  27.362  39.478   1.621
41337W        W13663  33.601  14.202  13.460
41338W        W13664  35.411  43.383   4.180
41339W        W13665  29.920  12.069   4.610
41340W        W13666  38.009  12.374   9.954
41341W        W13667  36.095  24.569   0.342
41342W        W13668  31.111  35.626  11.242
41343W        W13669  33.617  24.106   4.526
41344W        W13670  22.759   6.454   2.231
41345W        W13671   2.843   0.272   4.060
41346W        W13672   3.709  19.289   2.370
41347W        W13673  30.676  19.681   4.022
41348W        W13674  18.496   6.667   3.191
41349W        W13675  23.531   2.378  10.704
41350W        W13676  43.459  13.095   0.423
41351W        W13677  44.233  42.495   2.208
41352W        W13678  18.610  28.012  10.449
41353W        W13679   5.447  37.027   3.834
41354W        W13680  42.319  19.965   2.220
41355W        W13681   6.384  15.570   4.162
41356W        W13682  36.483   0.086   4.754
41357W        W13683  11.211  24.667  13.107
41358W        W13684  44.949   9.723   4.157
41359W        W13685  10.095   4.959   0.920
41360W        W13686   6.187  36.194  13.879
41361W        W13687  42.740  28.622   1.148
41362W        W13688  25.417  10.781  13.282
41363W        W13689  27.414  38.951  11.976
41364W        W13690   6.670  30.265   4.743
41365W        W13691  17.405   6.400   2.852
41366W        W13692   5.161  38.363  10.675
41367W        W13693   0.750  29.538   4.643
41368W        W13694  28.396  16.834   1.951
41369W        W13695  20.531  17.997  13.372
41370W        W13696  22.975   1.768   1.461
41371W        W13697   3.710   7.681  14.022
41372W        W13698  19.565  12.401   4.337
41373W        W13699  35.141  31.020  11.955
41374W        W13700  11.164  23.022  14.485
41375W        W13701   3.862  24.610   3.234
41376W        W13702   6.776  38.351  14.491
41377W        W13703  21.847  40.795  10.975
41378W        W13704   7.943   5.458  13.517
41379W        W13705  41.387  38.988   3.685
41380W        W13706   9.978  32.513   3.759
41381W        W13707  39.959  26.190   2.628
41382W        W13708  23.801  27.138   2.449
41383W        W13709  19.332  41.458  11.623
41384W        W13710  28.086  24.958  10.140
41385W        W13711  30.837  43.063   1.305
41386W        W13712  21.154   1.287   1.459
41387W        W13713  38.477  44.784   0.639
41388W        W13714   5.295  44.139   4.791
41389W        W13715  18.141  44.425   2.779
41390W        W13716   8.379  31.080   3.177
41391W        W13717   6.302  39.337  13.700
41392W        W13718   8.683   5.401   1.839
41393W        W13719  33.057  27.991  13.016
41394W        W13720  17.332  40.056  11.943
41395W        W13721  26.517  17.250   2.395
41396W        W13722  44.693  36.534   0.866
41397W        W13723  12.409   0.920   4.811
41398W        W13724  30.025  20.704   2.218
41399W        W13725  17.014  27.078  12.332
41400W        W13726  29.405  33.102   1.958
41401W        W13727  29.576  21.590  14.084
41402W        W13728   6.073  42.857  13.943
41403W        W13729  31.139  21.299  12.530
41404W        W13730  23.174  10.831  12.332
41405W        W13731  36.507  27.683   1.413
41406W        W13732  14.781  31.460   1.927
41407W        W13733  42.023  18.256  12.065
41408W        W13734  29.173  35.393   4.169
41409W        W13735   2.590  42.586  13.772
41410W        W13736   0.261  20.898  14.952
41411W        W13737  21.648  14.383   2.280
41412W        W13738   5.134   7.238  12.264
41413W        W13739   2.747  30.273  12.171
41414W        W13740  24.647  37.495   1.208
41415W        W13741  21.501  42.314  11.806
41416W        W13742   5.868  35.453   1.773
41417W        W13743   6.345  35.837   1.196
41418W        W13744  42.315  39.069  10.704
41419W        W13745   7.152  21.918   0.814
41420W        W13746  22.683  19.198  11.032
41421W        W13747  11.237  40.310   2.114
41422W        W13748  40.036  19.236  14.846
41423W        W13749  24.580  39.881  12.097
41424W        W13750  44.683   4.533  11.228
41425W        W13751   6.189  22.090   2.826
41426W        W13752  21.538  22.052   2.282
41427W        W13753   9.650  25.972   2.804
41428W        W13754   8.377  42.508   1.173
41429W        W13755   4.284  33.684  12.045
41430W        W13756  44.607  28.742   1.931
41431W        W13757  30.949  43.539   2.126
41432W        W13758  37.751  36.868   3.661
41433W        W13759  14.357  33.825   4.627
41434W        W13760  30.106  10.342  11.322
41435W        W13761  40.515  21.770  11.609
41436W        W13762   3.490  11.407  13.923
41437W        W13763  38.311  28.473   3.727
41438W        W13764  39.527  13.191  14.900
41439W        W13765  35.222  41.724  13.065
41440W        W13766  31.834  38.294  11.198
41441W        W13767  30.731   5.439   0.351
41442W        W13768   6.924  18.820   0.041
41443W        W13769  28.988  11.915  14.026
41444W        W13770  35.307  38.277  11.109
41445W        W13771   8.709  27.531   2.927
41446W        W13772  21.840  18.712   3.603
41447W        W13773  38.398  25.727  14.013
41448W        W13774  35.118   5.590  10.773
41449W        W13775  43.524  29.877   1.324
41450W        W13776   7.460  11.681  10.676
41451W        W13777  27.442  21.597  10.598
41452W        W13778   8.409  10.578   1.007
41453W        W13779  14.601  34.060  14.009
41454W        W13780  34.686   3.388  13.759
41455W        W13781  44.640  23.674  14.917
41456W        W13782  30.460  38.038   0.381
41457W        W13783   1.815  33.884  14.496
41458W        W13784  26.587  23.561  14.102
41459W        W13785  26.481  31.363   2.338
41460W        W13786  34.661  13.621  11.611
41461W        W13787  29.128  25.533   3.815
41462W        W13788  33.574  41.168  12.096
41463W        W13789  34.058  33.693   3.244
41464W        W13790  20.363  21.595  13.209
41465W        W13791  20.579  32.715  12.900
41466W        W13792  29.436  15.397  10.567
41467W        W13793   2.986   6.301  11.170
41468W        W13794  11.541  17.288  14.471
41469W        W13795  18.426  20.776  12.024
41470W        W13796  41.803  20.666  14.576
41471W        W13797  13.204   3.375  13.056
41472W        W13798  38.864  44.742  12.573
41473W        W13799  23.645   5.274  10.500
41474W        W13800  42.848   8.296   1.190
41475W        W13801  35.869  20.786   1.375
41476W        W13802  28.230  43.437  14.252
41477W        W13803  26.930  36.554  14.689
41478W        W13804   2.942  10.744   2.661
41479W        W13805  24.550   4.847   1.018
41480W        W13806  11.061   9.897   0.781
41481W        W13807  25.224   9.107  11.015
41482W        W13808   5.190  17.688  10.106
41483W        W13809  30.907   5.608   3.779
41484W        W13810  22.738  33.370   4.138
41485W        W13811   8.715  23.081  11.181
41486W        W13812   1.423  36.106  13.506
41487W        W13813  44.546  28.711  12.401
41488W        W13814  11.219   8.899  12.987
41489W        W13815  34.772  14.427   1.251
41490W        W13816  30.052  10.203  12.047
41491W        W13817   5.109   0.780   0.860
41492W        W13818  13.710  11.787  13.392
41493W        W13819  38.319  38.424   0.594
41494W        W13820  32.487   8.983   3.640
41495W        W13821  25.888  41.426  12.333
41496W        W13822  44.375  39.824  10.650
41497W        W13823  25.593  29.660  10.302
41498W        W13824  11.007  12.453   0.270
41499W        W13825  34.586   1.297  11.684
41500W        W13826   3.739  17.217  13.321
41501W        W13827   6.419  20.134  11.971
41502W        W13828  11.315  28.893   3.114
41503W        W13829  21.834  19.753   3.334
41504W        W13830  28.582   1.635   4.667
41505W        W13831  12.835   4.471  13.517
41506W        W13832  15.829  18.789   1.351
41507W        W13833  22.674  19.298  13.046
41508W        W13834  31.664  14.278   0.904
41509W        W13835  19.775  33.926  12.719
41510W        W13836  30.139  33.388  13.787
41511W        W13837  24.211  12.226   2.310
41512W        W13838  18.422  17.264   1.307
41513W        W13839   7.403  32.467   3.608
41514W        W13840   3.523   8.351   2.692
41515W        W13841  21.699  34.848   0.811
41516W        W13842   1.719  42.509   3.891
41517W        W13843  21.596  33.480   4.629
41518W        W13844  20.594  17.541  12.653
41519W        W13845  15.924  33.013   0.435
41520W        W13846  11.360   1.195  11.642
41521W        W13847  12.896  30.021  12.357
41522W        W13848  23.258   0.305   0.391
41523W        W13849  33.370  43.369   4.063
41524W        W13850  21.652   3.504   3.305
41525W        W13851   8.228   8.300   2.261
41526W        W13852  25.783   4.371  14.803
41527W        W13853  43.731  16.305   3.588
41528W        W13854   8.638   1.128   4.058
41529W        W13855  38.184  25.249   5.141
41530W        W13856  30.479  33.439   1.298
41531W        W13857  40.469  10.200   4.390
41532W        W13858  21.044  36.926   2.880
41533W        W13859  10.784  29.118   4.456
41534W        W13860  22.470   4.516   0.334
41535W        W13861   7.260  39.085  12.388
41536W        W13862  17.362  18.132  11.613
41537W        W13863  36.123  37.798   0.224
41538W        W13864  36.366  43.244   1.641
41539W        W13865  34.168  18.531  12.454
41540W        W13866  23.958   1.763   1.229
41541W        W13867  27.993   8.596   1.857
41542W        W13868  43.187   3.518  11.931
41543W        W13869  28.284  26.819  12.404
41544W        W13870   2.397  17.589  11.928
41545W        W13871  28.266  29.671   5.029
41546W        W13872  17.279   1.746   0.019
41547W        W13873  10.165  16.545  13.006
41548W        W13874  21.665   9.797   3.157
41549W        W13875   4.169  15.289   2.747
41550W        W13876  19.212  44.212  13.506
41551W        W13877  44.531  17.263   4.568
41552W        W13878  30.143  36.615   3.391
41553W        W13879  35.011  39.139  13.016
41554W        W13880  19.503  34.951  11.729
41555W        W13881   0.970  13.391  14.410
41556W        W13882   0.335  26.323  12.016
41557W        W13883  36.653  15.643  11.073
41558W        W13884  36.248  25.474   2.469
41559W        W13885  17.537   2.524   0.990
41560W        W13886  30.101  10.237   4.576
41561W        W13887  18.008  32.032   0.462
41562W        W13888  14.403   6.404   1.975
41563W        W13889  44.946  26.583   1.130
41564W        W13890   0.997   9.819   2.478
41565W        W13891  32.087  19.514   1.899
41566W        W13892  43.520  25.173   0.852
41567W        W13893  17.977   8.660   2.762
41568W        W13894  42.916  11.477  12.515
41569W        W13895   9.889   8.980  10.302
41570W        W13896   6.281  13.626   4.490
41571W        W13897  33.973  40.042  14.349
41572W        W13898  29.060  26.996   2.470
41573W        W13899  16.285  35.556  14.940
41574W        W13900  19.621  34.344   0.930
41575W        W13901  11.760  24.147   1.544
41576W        W13902   5.872  26.679  11.056
41577W        W13903  25.260  36.501  12.124
41578W        W13904  16.600  30.091   3.323
41579W        W13905   1.319  10.886  12.606
41580W        W13906  40.909  21.022  11.402
41581W        W13907  30.190   3.871   1.834
41582W        W13908  22.042  19.331  14.303
41583W        W13909  26.513   8.261   4.581
41584W        W13910  28.245  18.550  14.158
41585W        W13911  30.952   8.869   2.773
41586W        W13912  30.010  36.309  12.944
41587W        W13913  18.123  39.328   0.977
41588W        W13914  24.703  30.592  10.524
41589W        W13915  30.598   5.008  12.919
41590W        W13916  38.882  27.428  10.660
41591W        W13917   5.513   8.859  14.071
41592W        W13918  37.346  38.550  10.301
41593W        W13919  11.142  33.104   0.813
41594W        W13920  24.445   8.326   1.386
41595W        W13921   7.097   0.432  11.215
41596W        W13922  32.346   6.316   2.771
41597W        W13923  13.770  30.538   3.331
41598W        W13924  43.031  23.128   2.473
41599W        W13925  37.439   8.130   5.193
41600W        W13926  31.449  17.814   2.777
41601W        W13927  16.765  43.414  13.457
41602W        W13928  17.797  25.643  14.314
41603W        W13929  17.552  42.952  13.256
41604W        W13930  33.070  25.167  10.702
41605W        W13931  27.949  23.450   2.358
41606W        W13932  17.792  33.919   2.754
41607W        W13933   2.636  31.019  13.784
41608W        W13934  25.268   4.461   4.854
41609W        W13935  44.431  35.576   1.391
41610W        W13936  34.565  43.711   2.651
41611W        W13937  38.334  28.197   4.229
41612W        W13938  21.873  26.271   0.730
41613W        W13939  29.067  15.223   0.257
41614W        W13940  29.613   5.290  13.240
41615W        W13941  14.341   5.296   4.240
41616W        W13942  12.428  29.558  12.599
41617W        W13943  28.192  23.104   4.314
41618W        W13944  14.600   2.325  14.027
41619W        W13945  31.163  27.296  14.090
41620W        W13946   3.898  44.859   1.900
41621W        W13947  28.986  22.535  13.361
41622W        W13948  15.124  24.678  10.755
41623W        W13949  16.838  28.609  13.595
41624W        W13950   7.496  37.797  13.197
41625W        W13951  25.120  22.837   2.326
41626W        W13952  17.169  35.342  11.220
41627W        W13953  26.034  26.536  11.515
41628W        W13954  41.031  34.681  14.409
41629W        W13955   2.672  42.367  12.366
41630W        W13956   3.912  18.591  14.814
41631W        W13957  39.052  33.777   1.220
41632W        W13958  37.684   5.285  11.865
41633W        W13959  27.107  28.893   1.372
41634W        W13960  30.403  43.239  13.559
41635W        W13961  19.691  32.468  12.873
41636W        W13962  32.956   6.438   2.135
41637W        W13963  36.021  38.088  14.803
41638W        W13964  44.068  26.046   3.683
41639W        W13965  10.792  41.811  14.320
41640W        W13966  34.613  12.654  13.488
41641W        W13967  43.714  44.725  14.964
41642W        W13968  21.500   8.572   2.339
41643W        W13969  10.820  10.148  14.728
41644W        W13970   5.234  13.640  14.306
41645W        W13971  10.381  25.648   0.456
41646W        W13972   7.553  40.040  11.142
41647W        W13973  37.434  40.060  12.370
41648W        W13974  16.002  39.104   2.723
41649W        W13975  33.566  32.087  11.597
41650W        W13976  29.986  38.538   1.836
41651W        W13977  20.335  21.352   1.461
41652W        W13978  19.540  15.677   1.361
41653W        W13979  18.176   5.096  14.030
41654W        W13980  34.263   3.374   4.219
41655W        W13981  14.197  15.132  14.077
41656W        W13982   3.299  27.684  11.450
41657W        W13983  23.446  40.051  14.101
41658W        W13984  41.513  20.322   3.186
41659W        W13985  17.006  24.257  12.243
41660W        W13986  20.109  21.556   1.029
41661W        W13987   5.205  37.517   1.713
41662W        W13988  37.882   8.749   2.827
41663W        W13989  30.941   1.435  10.717
41664W        W13990  37.920  16.962  11.164
41665W        W13991  18.401   0.427  14.687
41666W        W13992  33.417  19.323   0.414
41667W        W13993   2.904  13.727  11.112
41668W        W13994  22.616  23.343   4.698
41669W        W13995  35.287   2.778   2.861
41670W        W13996   1.214  17.113  12.195
41671W        W13997  17.796  39.798  11.060
41672W        W13998  30.299  34.918  11.155
41673W        W13999  37.597  25.003  14.387
41674W        W14000  10.376  12.723  11.199
41675W        W14001  38.560   5.786   2.081
41676W        W14002   7.390  20.272   3.384
41677W        W14003  20.769  41.811   0.307
41678W        W14004  33.172  28.663   1.855
41679W        W14005  28.166  12.772  11.781
41680W        W14006  30.979  28.394   1.643
41681W        W14007  33.013  10.128   3.601
41682W        W14008  27.203   2.284   3.430
41683W        W14009  43.523  15.278  12.846
41684W        W14010  43.493   3.124   2.111
41685W        W14011  23.892   2.364  14.287
41686W        W14012  12.558  34.466   4.582
41687W        W14013  34.418   3.892   1.439
41688W        W14014  22.742  18.313   0.016
41689W        W14015  41.443  28.415   3.143
41690W        W14016   6.633  44.814  14.050
41691W        W14017   4.753  33.213  12.473
41692W        W14018  38.753  30.719   1.494
41693W        W14019  28.318   9.119   2.681
41694W        W14020  28.914  23.714  13.995
41695W        W14021  27.454  12.328  13.416
41696W        W14022  25.558  10.678  13.761
41697W        W14023  42.980  41.467  13.158
41698W        W14024   1.619  38.742  13.016
41699W        W14025  15.373  27.421   3.953
41700W        W14026  32.523  27.719   1.904
41701W        W14027  42.811  21.796   3.226
41702W        W14028  38.379  28.813  11.021
41703W        W14029  42.083  15.700   3.658
41704W        W14030   0.606   3.814  10.951
41705W        W14031  12.859  37.348   1.221
41706W        W14032   2.550  36.213   2.741
41707W        W14033   0.295  43.282   3.180
41708W        W14034  41.596  35.969   3.253
41709W        W14035   5.171  40.209   1.729
41710W        W14036  27.874  43.728   2.145
41711W        W14037  38.034  13.942   1.590
41712W        W14038   2.321  26.018  12.748
41713W        W14039   2.463  14.811   3.558
41714W        W14040  24.800  38.708   9.650
41715W        W14041  13.860  18.631   0.472
41716W        W14042  14.466   9.147  12.476
41717W        W14043  24.278  38.077   4.110
41718W        W14044  34.925  27.094   3.097
41719W        W14045  35.347  22.992   0.240
41720W        W14046  13.942  25.696   2.898
41721W        W14047  21.931  27.578   4.126
41722W        W14048  23.530  10.164   4.702
41723W        W14049  12.707   1.870   2.735
41724W        W14050  12.734   7.378   2.444
41725W        W14051  30.828  19.326  11.062
41726W        W14052   1.802  23.390  13.392
41727W        W14053  21.059  42.199  13.092
41728W        W14054  33.832  32.978   3.680
41729W        W14055   6.976  17.255   0.212
41730W        W14056  37.353  23.032   3.113
41731W        W14057   1.086   4.297  12.672
41732W        W14058  17.216  16.739  10.687
41733W        W14059  34.353  30.471  12.707
41734W        W14060  17.958   8.866   3.844
41735W        W14061  21.183  40.030   4.423
41736W        W14062  29.380   1.511  14.014
41737W        W14063  11.258   3.980   3.238
41738W        W14064  44.404  40.339   1.905
41739W        W14065  43.896  42.189  12.447
41740W        W14066  36.056  36.768   1.188
41741W        W14067  30.432  42.957   2.634
41742W        W14068  11.446  39.520   1.277
41743W        W14069  14.573   1.404   3.598
41744W        W14070   6.360   9.811  14.431
41745W        W14071  13.847  21.639   3.318
41746W        W14072  35.731  23.698   1.399
41747W        W14073  38.876  37.403  10.536
41748W        W14074  34.887  40.918   5.314
41749W        W14075  39.492  35.689  10.527
41750W        W14076  42.034   7.888   3.571
41751W        W14077  23.257  15.188   0.706
41752W        W14078  10.624  12.710  13.515
41753W        W14079  36.332  10.693   3.840
41754W        W14080  33.355  14.590  11.139
41755W        W14081  28.196   3.355  14.533
41756W        W14082   9.924  39.752  11.465
41757W        W14083   6.865  42.278   2.081
41758W        W14084  17.121   1.432   1.748
41759W        W14085   5.017  38.253   4.229
41760W        W14086   8.788  26.593  10.644
41761W        W14087  43.845  17.080   1.329
41762W        W14088  27.270   2.792   3.316
41763W        W14089   8.845  20.249  11.664
41764W        W14090  19.614  10.778  11.922
41765W        W14091   2.176  34.790   4.486
41766W        W14092  22.178  40.450   5.081
41767W        W14093   0.490  10.766  14.483
41768W        W14094  15.347  42.065  13.994
41769W        W14095  44.274  21.493   2.787
41770W        W14096   8.383   3.291   0.125
41771W        W14097   8.718  44.447  14.362
41772W        W14098  18.664  29.568  14.227
41773W        W14099  44.925  11.087   2.190
41774W        W14100  13.581  19.696  12.597
41775W        W14101  19.694  44.403   2.812
41776W        W14102  24.174  35.603  12.977
41777W        W14103  24.334  38.763   2.281
41778W        W14104  27.232  16.808  12.592
41779W        W14105   4.997   9.287  13.010
41780W        W14106  16.839   9.346  12.471
41781W        W14107  20.049  36.970  11.204
41782W        W14108  36.010  40.530   4.188
41783W        W14109  16.076  23.194  12.384
41784W        W14110  23.033  38.361  13.594
41785W        W14111  33.684   1.993  10.338
41786W        W14112  24.155  24.531  14.961
41787W        W14113  24.070   6.328  10.806
41788W        W14114  28.552  42.132  13.450
41789W        W14115  22.203  42.127  12.543
41790W        W14116  26.128  13.166   4.464
41791W        W14117  15.099  13.553  11.950
41792W        W14118  16.288  40.346  14.840
41793W        W14119   0.776   0.672  14.014
41794W        W14120   6.227   5.250   3.148
41795W        W14121   5.864  13.596  13.737
41796W        W14122  44.836  21.128  14.687
41797W        W14123   6.718  22.546   1.476
41798W        W14124  43.663  14.344   0.469
41799W        W14125  31.374  42.196  12.845
41800W        W14126   4.699   1.332  13.579
41801W        W14127  18.880  24.237  14.359
41802W        W14128  15.269  17.334  14.376
41803W        W14129   4.428   3.545  12.482
41804W        W14130  44.242  16.503  12.295
41805W        W14131  29.851  14.501  10.707
41806W        W14132  37.965  44.333  14.228
41807W        W14133   9.855  28.223   4.763
41808W        W14134  31.858  26.670  12.489
41809W        W14135  20.981  33.911   2.304
41810W        W14136  21.716  36.801   4.482
41811W        W14137   0.311  37.215  13.336
41812W        W14138  42.908  22.884   1.014
41813W        W14139  42.105  10.237   3.759
41814W        W14140  34.855  34.938   3.681
41815W        W14141  29.520   7.776  12.050
41816W        W14142  30.545  10.051  11.950
41817W        W14143  26.702   0.481  12.461
41818W        W14144  19.620   9.917  12.464
41819W        W14145  11.574  14.360   2.465
41820W        W14146   5.670  19.049   4.678
41821W        W14147  34.965  16.049  12.911
41822W        W14148  35.551  24.765  11.881
41823W        W14149  31.870  22.590  13.854
41824W        W14150  38.826  43.746   4.679
41825W        W14151  21.955  33.169  11.045
41826W        W14152  38.798  22.548  11.597
41827W        W14153   9.464  35.840   2.670
41828W        W14154  18.189   7.062  12.122
41829W        W14155  18.016  37.031   0.883
41830W        W14156  14.578  14.094   0.867
41831W        W14157  32.097  20.823   0.161
41832W        W14158  41.287   9.217  12.343
41833W        W14159   1.494   9.237   1.435
41834W        W14160  27.303  14.817  14.480
41835W        W14161  28.162  19.809   1.319
41836W        W14162   8.829   7.988  13.315
41837W        W14163  16.595  16.760   1.174
41838W        W14164  19.840  37.691  11.892
41839W        W14165  30.493  43.721  10.531
41840W        W14166  17.751   5.758  12.257
41841W        W14167  33.550  24.645   2.130
41842W        W14168   7.253  19.471   3.731
41843W        W14169  12.143  27.949   2.198
41844W        W14170  36.368  29.601  10.272
41845W        W14171  20.720  11.855   3.100
41846W        W14172   9.718  24.739   0.375
41847W        W14173  31.319   9.878   0.778
41848W        W14174   1.484  37.383   2.419
41849W        W14175  10.855  31.396   2.563
41850W        W14176   4.148   5.390  13.103
41851W        W14177  35.317   5.655  11.224
41852W        W14178  14.521  38.443   4.087
41853W        W14179  14.583  37.047   1.637
41854W        W14180  40.015  32.876   1.774
41855W        W14181  28.940  16.450  11.136
41856W        W14182  43.345  20.013   1.901
41857W        W14183  44.775  25.598  12.130
41858W        W14184   9.442  32.497   3.775
41859W        W14185  39.112  27.135  11.038
41860W        W14186  31.707   9.323  13.377
41861W        W14187  18.605  37.866   0.648
41862W        W14188  35.078  18.559  13.011
41863W        W14189  17.632  31.594   3.140
41864W        W14190  19.295  13.377  12.562
41865W        W14191  14.628   9.864  12.430
41866W        W14192  32.566  26.186   3.733
41867W        W14193  41.423   8.065  11.940
41868W        W14194   3.817  30.967   1.027
41869W        W14195   5.733  39.262  12.798
41870W        W14196  36.495  23.207  13.397
41871W        W14197  43.976  25.604  13.533
41872W        W14198   1.372  42.696   0.230
41873W        W14199  34.097  21.593  14.680
41874W        W14200  28.413  15.279  14.026
41875W        W14201  19.586  16.726   0.329
41876W        W14202  22.583   0.724   4.832
41877W        W14203  13.110  21.039  14.451
41878W        W14204   0.914  42.851  12.568
41879W        W14205  25.439  43.709   0.710
41880W        W14206  31.707  42.261  11.132
41881W        W14207  26.404  15.786   5.616
41882W        W14208  22.673  16.095   1.874
41883W        W14209  18.542  26.786   4.506
41884W        W14210  12.377   1.895  13.721
41885W        W14211   1.363  24.628   5.002
41886W        W14212  44.813  17.795  14.214
41887W        W14213  33.207  18.233   5.007
41888W        W14214  17.285  43.776   3.626
41889W        W14215   3.326   3.727   1.802
41890W        W14216  35.450   4.680   0.727
41891W        W14217  31.905  10.999  10.003
41892W        W14218  13.348   3.872  14.435
41893W        W14219  43.512   1.896  13.417
41894W        W14220  18.336  16.177  14.460
41895W        W14221  21.503  22.858  11.393
41896W        W14222  26.715  12.523   0.482
41897W        W14223   3.920   3.311  14.844
41898W        W14224  39.376   9.531  13.568
41899W        W14225  10.299  19.542   0.494
41900W        W14226  39.102  37.388  11.016
41901W        W14227  11.738  20.967   0.968
41902W        W14228  37.519  19.318   1.668
41903W        W14229  18.527  35.278   2.519
41904W        W14230  15.001  25.841   3.408
41905W        W14231   3.258  38.954   0.454
41906W        W14232  17.308  31.126  13.821
41907W        W14233   3.685  44.887   1.268
41908W        W14234  16.760  13.969   4.584
41909W        W14235   0.858  31.344   2.769
41910W        W14236  21.105  35.309   1.366
41911W        W14237   4.955  20.542  11.486
41912W        W14238  21.176  11.817   1.865
41913W        W14239  10.338  14.430   2.659
41914W        W14240  35.663  11.978   5.002
41915W        W14241  11.370  29.487  10.810
41916W        W14242  44.450   5.487  12.553
41917W        W14243  36.041   3.190  14.476
41918W        W14244   5.932  25.544  10.777
41919W        W14245  31.203   7.418  12.768
41920W        W14246  22.768   8.216  13.578
41921W        W14247  42.724  39.355  11.536
41922W        W14248  39.756  44.288   3.660
41923W        W14249  25.161   3.333   0.510
41924W        W14250   2.985  18.825   0.191
41925W        W14251  21.064  33.819  11.423
41926W        W14252  16.832  32.891   3.667
41927W        W14253  39.583  39.100   0.427
41928W        W14254  18.085  37.557  12.423
41929W        W14255   2.434  31.671   1.685
41930W        W14256   6.799  42.900  11.616
41931W        W14257  19.417  26.452  12.500
41932W        W14258  35.567   0.179  12.573
41933W        W14259  30.533  34.979   3.943
41934W        W14260  34.776  34.522  13.078
41935W        W14261  38.807  42.612   3.379
41936W        W14262   4.125  42.869   0.916
41937W        W14263   2.999  16.662   1.723
41938W        W14264  43.202  23.237  11.394
41939W        W14265  18.304  22.447  11.465
41940W        W14266  10.346  15.898   2.792
41941W        W14267  17.266  12.198   0.898
41942W        W14268   7.178   6.309  12.078
41943W        W14269  19.714  32.964  10.571
41944W        W14270  25.199  30.204   1.705
41945W        W14271  16.197   1.247  14.849
41946W        W14272  12.220  34.957  10.125
41947W        W14273  18.826  17.244   9.845
41948W        W14274  10.888  28.899  12.985
41949W        W14275  15.269  20.721   4.808
41950W        W14276  11.911  32.194  13.974
41951W        W14277  24.993  31.358  14.802
41952W        W14278   2.834  29.350   0.728
41953W        W14279  26.117  43.779  11.235
41954W        W14280  44.503   0.321   4.096
41955W        W14281  19.019   8.276   1.487
41956W        W14282  18.811  43.365   1.668
41957W        W14283  31.110  38.328  11.502
41958W        W14284  44.950  27.148   4.385
41959W        W14285  11.198  25.622  13.991
41960W        W14286   8.367  25.935   2.436
41961W        W14287  42.328  28.944  13.503
41962W        W14288  34.044   6.014   4.343
41963W        W14289  17.555  14.054   1.253
41964W        W14290  28.652  33.430   3.356
41965W        W14291  11.917   3.138  11.976
41966W        W14292   8.329  43.467   0.742
41967W        W14293   8.124  17.216   3.231
41968W        W14294  24.103  34.923  14.826
41969W        W14295  37.185   9.820  13.055
41970W        W14296  13.519  38.580   1.769
41971W        W14297  16.252  23.837  12.043
41972W        W14298  44.311  32.006  13.516
41973W        W14299  38.947  32.930  12.642
41974W        W14300  44.579  22.005   3.738
41975W        W14301  40.422  29.168   1.491
41976W        W14302   4.606  41.864   3.179
41977W        W14303  26.056  32.390   4.125
41978W        W14304  34.418  11.851  10.637
41979W        W14305   1.399  29.573   3.859
41980W        W14306  30.734   7.260  12.913
41981W        W14307   0.934  21.321   3.843
41982W        W14308   4.340  29.860   1.824
41983W        W14309  44.365  14.565   1.609
41984W        W14310   0.003  27.933  14.795
41985W        W14311  32.889   0.304  12.891
41986W        W14312   5.201  19.102   4.912
41987W        W14313  28.500   7.635   3.681
41988W        W14314  27.573  20.989   2.700
41989W        W14315  11.055   0.240   0.771
41990W        W14316  33.477  31.742   0.050
41991W        W14317  44.575  17.049  11.031
41992W        W14318   0.225  16.208  11.579
41993W        W14319  21.989  12.239   2.525
41994W        W14320  29.803  32.353   3.731
41995W        W14321  16.615  37.974   1.412
41996W        W14322   8.904  13.296   4.920
41997W        W14323  41.035  15.048  11.663
41998W        W14324  14.161  28.679   0.412
41999W        W14325  40.483  38.229   2.902
42000W        W14326  32.951  21.704   0.071
42001W        W14327  18.615  22.628  14.439
42002W        W14328  23.479  31.908   0.173
42003W        W14329  30.235   5.851   0.923
42004W        W14330  38.549  33.931  14.356
42005W        W14331   3.341  10.332  12.378
42006W        W14332  19.625  27.413   1.943
42007W        W14333  28.748  19.214  10.770
42008W        W14334  43.820  26.112   3.220
42009W        W14335  23.097  15.216   1.697
42010W        W14336  25.532  38.688   4.522
42011W        W14337  17.940   1.733  11.076
42012W        W14338  12.573  22.268   3.119
42013W        W14339   3.227  10.723   2.248
42014W        W14340  36.561  37.642  11.940
42015W        W14341  35.911  40.336   0.909
42016W        W14342  13.285  17.030  10.996
42017W        W14343   8.910  40.388   5.181
42018W        W14344  44.875   3.438  13.529
42019W        W14345  42.058  19.961  14.389
42020W        W14346   2.261  24.981   2.292
42021W        W14347  33.971   8.815   1.647
42022W        W14348  25.377  31.753   0.246
42023W        W14349   3.931   5.251   1.967
42024W        W14350  12.751   5.686   4.637
42025W        W14351  35.530  27.016   2.397
42026W        W14352  38.024  10.989  14.344
42027W        W14353  23.658  36.620  11.884
42028W        W14354  36.081   5.457   2.256
42029W        W14355  20.594   7.950   4.329
42030W        W14356  37.344  14.299  11.668
42031W        W14357  29.116  43.802   0.848
42032W        W14358   2.792  37.914  13.980
42033W        W14359  16.279  32.033  10.123
42034W        W14360  13.721  16.761   3.723
42035W        W14361  10.582  27.960  14.241
42036W        W14362   6.993  17.546  11.021
42037W        W14363  34.335  16.673  10.673
42038W        W14364   6.218  42.923   0.040
42039W        W14365   6.700  21.764   0.992
42040W        W14366  24.623  34.014   2.349
42041W        W14367  43.017  31.169   2.840
42042W        W14368  34.508  34.926  10.883
42043W        W14369  37.327  41.975  12.723
42044W        W14370  18.782  29.718   3.963
42045W        W14371  13.371  16.204  11.592
42046W        W14372   9.719   6.321   2.603
42047W        W14373   7.352  32.535   2.735
42048W        W14374   0.716   9.611   4.696
42049W        W14375  42.224  15.749  11.564
42050W        W14376   5.337  15.727  10.706
42051W        W14377  31.406  28.045  10.697
42052W        W14378  39.941   1.655  11.971
42053W        W14379  34.998  28.168   3.859
42054W        W14380  33.961  33.897  13.512
42055W        W14381  39.267  23.698  10.435
42056W        W14382  39.658  22.685  14.533
42057W        W14383  22.661   6.577  13.084
42058W        W14384   8.675   5.725   2.263
42059W        W14385  22.590  36.263   2.801
42060W        W14386  43.056  11.337  11.675
42061W        W14387  19.050  38.710  10.099
42062W        W14388   1.723  21.674  10.616
42063W        W14389  38.927   8.129  11.274
42064W        W14390  18.688  44.248   0.376
42065W        W14391  30.424   6.182   3.897
42066W        W14392  28.748  36.367  14.870
42067W        W14393  29.269  36.340   1.453
42068W        W14394  23.801  11.206   4.091
42069W        W14395  44.882  39.240  14.470
42070W        W14396   8.780  27.578  14.661
42071W        W14397  12.191   7.667   0.411
42072W        W14398  33.447   5.265  12.846
42073W        W14399  19.247  17.963   3.713
42074W        W14400  15.284  17.217  10.664
42075W        W14401  23.917  33.579  13.284
42076W        W14402  40.613  29.380  14.390
42077W        W14403  10.217  43.052   0.962
42078W        W14404  17.066  19.367   4.520
42079W        W14405  15.773   6.641  13.589
42080W        W14406  15.819  29.394   5.025
42081W        W14407  23.723  32.933   1.835
42082W        W14408  40.855  12.076  12.938
42083W        W14409  30.708  14.198   2.349
42084W        W14410  41.582   0.954   4.949
42085W        W14411  27.458  16.207   0.411
42086W        W14412  26.790   0.222   0.388
42087W        W14413  16.721   6.405  13.026
42088W        W14414  35.955  40.411  14.535
42089W        W14415  20.674  33.085   2.201
42090W        W14416   3.664  19.545  14.102
42091W        W14417  44.573  36.896  14.313
42092W        W14418  12.733  39.026  14.861
42093W        W14419  32.354  23.567   3.254
42094W        W14420  19.280   0.325   0.015
42095W        W14421  24.719  41.556   2.718
42096W        W14422  29.464  11.028  13.750
42097W        W14423  35.050  28.360   2.587
42098W        W14424   0.428  17.378  14.067
42099W        W14425  11.919  28.504  12.887
42100W        W14426  42.598  35.576   1.928
42101W        W14427  28.844  28.607  10.135
42102W        W14428  36.387   3.828  12.826
42103W        W14429  28.121  34.756  14.346
42104W        W14430  34.981  39.074   1.309
42105W        W14431  22.059  15.517   1.840
42106W        W14432  43.950  41.566  11.621
42107W        W14433  17.895  42.569  12.393
42108W        W14434  39.849  19.218   3.546
42109W        W14435  22.704  26.425   4.566
42110W        W14436   6.867  26.120   1.164
42111W        W14437  39.720  42.748  14.936
42112W        W14438  28.659  40.606   1.332
42113W        W14439   5.720  34.533  13.505
42114W        W14440   3.815  41.994  14.862
42115W        W14441   3.635  24.073   3.983
42116W        W14442  15.559  12.614  12.480
42117W        W14443  11.113  14.138   2.412
42118W        W14444  37.891  32.387  14.443
42119W        W14445   9.205  26.163   1.729
42120W        W14446  41.987  39.356   0.327
42121W        W14447  22.155  33.583   0.929
42122W        W14448  20.673  40.251   2.917
42123W        W14449   4.216  42.708  11.459
42124W        W14450   1.086  22.963   0.351
42125W        W14451  42.895  37.279  11.701
42126W        W14452  22.677  23.687  14.179
42127W        W14453  11.873   3.640  11.939
42128W        W14454   9.026  17.863  13.422
42129W        W14455   5.931   0.289   2.462
42130W        W14456  32.983   3.458  12.056
42131W        W14457  31.608   7.709  10.867
42132W        W14458   6.673   5.199  14.360
42133W        W14459  18.874   3.421   3.136
42134W        W14460  24.243  43.837  12.167
42135W        W14461  21.686  36.880  10.503
42136W        W14462  14.599   9.775   2.847
42137W        W14463  20.036   9.183  14.365
42138W        W14464  21.694  26.404   4.101
42139W        W14465  37.824   2.442   3.668
42140W        W14466  16.437  10.346  13.984
42141W        W14467  19.304  33.744  10.967
42142W        W14468  34.812  22.784  14.998
42143W        W14469  37.486  28.572  10.527
42144W        W14470  26.083  34.307  11.157
42145W        W14471  12.439  33.820   5.017
42146W        W14472  28.052  12.846  13.885
42147W        W14473   8.140  20.631   0.850
42148W        W14474  44.924  28.236   3.677
42149W        W14475  30.558  22.317   3.226
42150W        W14476  30.013  35.014   3.924
42151W        W14477   6.394   9.808  13.387
42152W        W14478   4.101  32.264   0.883
42153W        W14479  34.906  44.873  12.423
42154W        W14480   0.833   7.410   1.855
42155W        W14481   5.144   6.858  13.103
42156W        W14482  24.263  30.313  10.700
42157W        W14483  27.941  42.554   1.297
42158W        W14484  39.943  21.321   0.944
42159W        W14485   6.777  26.067   1.665
42160W        W14486   2.186  40.579   3.269
42161W        W14487  22.158   5.950   1.230
42162W        W14488  27.427  17.747   1.666
42163W        W14489  15.179  18.191   0.051
42164W        W14490  22.870   9.099  13.535
42165W        W14491  30.578  23.990  13.863
42166W        W14492  44.386  15.657  11.365
42167W        W14493  33.655  19.759  14.492
42168W        W14494  41.799   0.083   3.305
42169W        W14495   4.453  32.662   4.911
42170W        W14496  27.177  16.847   0.804
42171W        W14497  13.598  17.295   3.730
42172W        W14498  25.390  18.159  11.963
42173W        W14499  31.916  44.487   2.912
42174W        W14500  31.944  23.958   4.176
42175W        W14501  30.289  18.703   1.262
42176W        W14502  36.471  40.921   3.236
42177W        W14503  35.043  30.428  11.564
42178W        W14504  17.170   0.592  11.530
42179W        W14505  31.541   7.789  12.879
42180W        W14506  31.441  43.022   0.569
42181W        W14507   6.292  26.011   1.888
42182W        W14508  40.563  34.471  14.631
42183W        W14509  39.809  36.151   0.664
42184W        W14510   9.285  12.594   0.814
42185W        W14511  19.739  21.536  14.810
42186W        W14512   1.172  20.040  12.105
42187W        W14513   6.838  40.731  12.963
42188W        W14514  33.024   7.616  13.986
42189W        W14515  12.549  40.843  14.628
42190W        W14516  29.518   1.198   3.099
42191W        W14517  10.315   0.297   2.772
42192W        W14518  15.200   4.974  13.419
42193W        W14519  42.993   6.027  11.919
42194W        W14520  17.095   3.177   3.654
42195W        W14521  19.621  35.842   0.993
42196W        W14522   7.325   5.304  11.698
42197W        W14523   2.355  22.755   4.386
42198W        W14524  18.088  23.515   2.691
42199W        W14525  29.666  22.610   0.372
42200W        W14526  26.016  17.251   2.352
42201W        W14527  14.710  28.560  12.498
42202W        W14528  43.467  15.143   3.702
42203W        W14529  39.515   1.977   0.214
42204W        W14530   3.071  19.238   1.232
42205W        W14531  13.791  12.543   0.711
42206W        W14532   9.453   6.962   1.423
42207W        W14533  41.792   3.205   0.946
42208W        W14534  36.080   0.791  10.772
42209W        W14535  43.914  39.228  12.588
42210W        W14536  29.488   1.319   4.400
42211W        W14537  24.056  14.543   0.998
42212W        W14538  20.279  29.578  12.829
42213W        W14539   2.618  19.750  11.608
42214W        W14540  27.884  36.853   1.209
42215W        W14541  15.222  12.725   0.949
42216W        W14542   8.567   3.403  12.965
42217W        W14543  16.728  44.800   1.826
42218W        W14544  29.189  39.416  12.187
42219W        W14545  42.206   3.148   1.763
42220W        W14546   2.355  17.459   4.658
42221W        W14547   7.253  12.298  14.890
42222W        W14548  23.086  19.315   4.429
42223W        W14549  20.972  18.830  14.894
42224W        W14550  38.320  43.805   3.305
42225W        W14551   1.972  14.590  13.663
42226W        W14552  15.171  26.524   2.354
42227W        W14553  24.985  17.907   3.762
42228W        W14554   1.427   5.948   0.999
42229W        W14555  12.783  21.080   3.804
42230W        W14556  21.341  10.523  11.924
42231W        W14557  42.069  39.902   3.667
42232W        W14558  14.747  34.462  11.062
42233W        W14559  31.342  20.971   4.185
42234W        W14560  40.104  19.894  13.805
42235W        W14561  17.717   7.270  14.670
42236W        W14562  13.143  34.697   3.165
42237W        W14563  36.552  10.053   3.530
42238W        W14564   1.905  39.290   1.164
42239W        W14565  43.899  36.558   2.305
42240W        W14566   1.465  42.922   0.673
42241W        W14567  10.338   8.950   5.129
42242W        W14568  25.050  27.435   0.762
42243W        W14569  43.844   2.366   4.183
42244W        W14570  32.084  44.594  11.414
42245W        W14571   5.599  14.302   3.278
42246W        W14572  31.081  43.025   4.715
42247W        W14573  22.313  14.781   4.355
42248W        W14574  29.148   3.576   2.352
42249W        W14575  23.046  21.761  12.485
42250W        W14576  16.157  24.632   3.795
42251W        W14577  26.248  30.750   0.453
42252W        W14578   4.874  10.833  13.353
42253W        W14579  36.754   4.124   0.400
42254W        W14580   6.706  43.373  11.801
42255W        W14581  34.456  29.228  14.961
42256W        W14582   7.550  44.012   1.662
42257W        W14583   8.893  32.553  12.006
42258W        W14584  44.817  32.157  13.613
42259W        W14585  26.189  43.299  10.963
42260W        W14586   5.061  36.584   1.372
42261W        W14587  12.777  43.282  14.302
42262W        W14588  25.106  35.417  13.768
42263W        W14589  24.504   6.433   2.730
42264W        W14590   4.127  31.023  14.417
42265W        W14591  25.398   2.016  12.964
42266W        W14592  33.288  43.261  10.113
42267W        W14593  22.529  32.727   2.932
42268W        W14594  24.601  38.439   5.453
42269W        W14595  22.083  13.719  11.949
42270W        W14596  25.443  32.943  11.752
42271W        W14597  27.574  17.064  12.309
42272W        W14598  43.887   2.935   4.898
42273W        W14599  39.027  32.451   0.737
42274W        W14600  25.283  37.703  13.465
42275W        W14601  31.184  42.549   2.278
42276W        W14602  43.548  42.861   0.053
42277W        W14603   2.991  32.821  13.419
42278W        W14604  27.266   1.826  11.459
42279W        W14605  24.107  12.915   3.351
42280W        W14606  13.863  35.787   2.992
42281W        W14607   8.427  19.800  12.388
42282W        W14608  36.154  31.585  14.395
42283W        W14609   4.243  43.251  11.531
42284W        W14610  10.851  36.885   0.545
42285W        W14611  41.963   1.878   2.358
42286W        W14612   4.303  25.122   2.212
42287W        W14613  10.446  10.827  13.048
42288W        W14614  23.525  15.394  10.231
42289W        W14615  30.711   2.404   2.602
42290W        W14616  32.470  18.212   4.372
42291W        W14617  29.767  23.994  14.104
42292W        W14618  10.161  27.157  12.949
42293W        W14619  24.984   4.797   0.283
42294W        W14620  39.455  30.120  11.794
42295W        W14621  36.101  19.274   1.831
42296W        W14622  17.261  33.503  11.486
42297W        W14623  22.322  22.582  10.461
42298W        W14624  33.181  17.138   0.831
42299W        W14625  42.893  32.769  14.757
42300W        W14626  33.952  27.951  13.372
42301W        W14627   1.435   0.433   4.176
42302W        W14628  26.519  14.303   1.444
42303W        W14629  25.616  36.760  12.612
42304W        W14630  21.677   3.747  10.777
42305W        W14631  33.117  22.232  12.005
42306W        W14632   1.826   4.879   3.226
42307W        W14633   7.401   1.721   4.548
42308W        W14634  43.993  17.910  10.872
42309W        W14635  10.899   4.500   1.760
42310W        W14636  22.689  14.597   0.382
42311W        W14637  21.090  17.982   1.713
42312W        W14638  33.477  43.748   1.467
42313W        W14639  26.731  27.666  11.916
42314W        W14640  37.495  33.489   5.173
42315W        W14641  17.833  28.049   2.190
42316W        W14642  42.776  29.462  11.809
42317W        W14643   0.647  28.931   2.903
42318W        W14644   5.418  15.287   2.281
42319W        W14645  15.240  29.531  10.793
42320W        W14646  34.962  37.530  10.622
42321W        W14647   9.923  18.148   3.613
42322W        W14648  38.857   5.134   4.420
42323W        W14649  14.391   4.302   2.698
42324W        W14650  16.138  42.914   1.945
42325W        W14651   4.292  29.699  10.673
42326W        W14652   2.984  40.545   1.517
42327W        W14653  21.392  37.156   9.819
42328W        W14654  12.831   2.690   1.179
42329W        W14655  31.281   8.844   1.394
42330W        W14656  19.238  20.225   3.226
42331W        W14657   7.150  25.730  14.936
42332W        W14658  31.095  26.598   3.610
42333W        W14659  11.756  40.315   2.888
42334W        W14660  12.659  18.313  12.893
42335W        W14661  44.715  34.625   4.656
42336W        W14662  18.415   8.094  12.030
42337W        W14663  13.910  25.445   5.100
42338W        W14664  26.032  24.640  14.243
42339W        W14665  44.387  19.174   0.539
42340W        W14666   4.732  44.349  11.159
42341W        W14667  36.171  20.597  13.699
42342W        W14668  37.862   8.757   0.376
42343W        W14669  44.005  21.558   2.342
42344W        W14670  20.725  32.633   1.424
42345W        W14671   4.761  13.843  14.408
42346W        W14672  20.606  36.942   4.447
42347W        W14673  17.448  35.018  14.800
42348W        W14674   8.834  44.056  11.068
42349W        W14675  30.351  18.959   0.432
42350W        W14676  15.234  37.758   0.040
42351W        W14677  21.832  36.062  11.144
42352W        W14678  39.860  28.718   4.574
42353W        W14679  23.700  14.621  10.657
42354W        W14680  40.267   3.451  13.540
42355W        W14681  39.406  38.611  10.511
42356W        W14682  36.272  33.772   9.833
42357W        W14683  35.336  13.305   3.288
42358W        W14684  13.232  39.592  12.587
42359W        W14685   4.755  24.965  13.939
42360W        W14686  33.945  13.036  11.454
42361W        W14687  42.675   0.519   3.164
42362W        W14688   6.317   3.797   4.040
42363W        W14689  16.764  12.144   1.997
42364W        W14690   0.894  35.565   3.557
42365W        W14691  14.359  35.096   2.408
42366W        W14692  40.042  13.883  11.988
42367W        W14693  12.894   3.661   0.269
42368W        W14694   3.118   3.356   4.886
42369W        W14695   6.214  23.252   0.247
42370W        W14696  11.072  39.459   0.341
42371W        W14697  28.760  22.185   2.137
42372W        W14698  21.584   9.890  12.761
42373W        W14699  43.010  37.846   3.192
42374W        W14700  27.781  43.088  13.419
42375W        W14701  21.494  32.831   0.875
42376W        W14702  18.173  35.009   3.724
42377W        W14703  32.034  35.502   4.310
42378W        W14704  36.879  27.112   2.941
42379W        W14705  31.710   3.732  14.101
42380W        W14706  34.335  37.882   0.326
42381W        W14707  37.680   9.917  13.067
42382W        W14708  26.696  10.220  13.762
42383W        W14709  35.317   4.275   4.514
42384W        W14710   8.887   6.904  13.721
42385W        W14711  33.331  43.824   2.347
42386W        W14712  29.227  21.914  14.872
42387W        W14713   7.360   2.962  11.630
42388W        W14714   0.917  32.033  14.039
42389W        W14715  15.338   4.384   4.883
42390W        W14716   7.658   9.668  10.720
42391W        W14717  25.870   7.740  12.963
42392W        W14718  43.537  41.818  13.511
42393W        W14719  36.065  33.931   1.437
42394W        W14720  19.611  24.282   1.334
42395W        W14721   9.410  19.192   2.191
42396W        W14722  10.509  25.102  10.538
42397W        W14723  28.155  10.400   1.316
42398W        W14724  14.550  22.657   4.228
42399W        W14725   2.443   5.978   1.827
42400W        W14726  36.118   5.186   0.674
42401W        W14727  15.822   1.285   0.286
42402W        W14728  34.310  13.084  13.762
42403W        W14729   9.038  31.663  12.282
42404W        W14730  26.981   1.388  10.727
42405W        W14731  23.953  17.325  11.401
42406W        W14732  43.595  31.824  14.378
42407W        W14733  38.132  31.989  13.388
42408W        W14734  26.600  32.655  11.600
42409W        W14735  26.183  18.548  13.984
42410W        W14736  33.173  40.983  12.892
42411W        W14737  25.710  29.613  14.034
42412W        W14738  16.572  24.735   1.825
42413W        W14739  28.145  38.531  12.998
42414W        W14740  38.176  10.425   0.973
42415W        W14741  21.730  11.226  13.101
42416W        W14742  13.888  32.946   1.221
42417W        W14743  12.777  35.845  11.595
42418W        W14744  15.151  25.608   1.903
42419W        W14745  11.823  20.354  14.486
42420W        W14746   8.106  32.130  13.611
42421W        W14747  25.966  11.324   4.952
42422W        W14748  33.484  25.496  10.637
42423W        W14749  26.119   6.471  13.126
42424W        W14750  40.322  42.841  10.689
42425W        W14751  20.108  20.038   3.818
42426W        W14752   0.239  35.319   2.794
42427W        W14753  42.273  19.251  13.560
42428W        W14754  12.567   3.283   2.534
42429W        W14755  10.565   1.471   4.073
42430W        W14756   1.754  18.104   2.436
42431W        W14757  36.472   2.584   4.361
42432W        W14758  22.007  38.863   4.118
42433W        W14759  39.012  29.707   4.129
42434W        W14760  43.984   8.597   2.023
42435W        W14761  36.792  10.014   1.287
42436W        W14762   1.380  20.753   2.911
42437W        W14763   9.219  44.270  14.403
42438W        W14764  19.113  15.766   4.686
42439W        W14765  34.455  42.421  14.740
42440W        W14766  22.245   5.943  14.316
42441W        W14767  28.941  36.453  11.223
42442W        W14768   7.148  36.914   1.002
42443W        W14769  31.912  29.822   1.637
42444W        W14770  44.511  17.099   2.736
42445W        W14771  18.679  27.668  13.019
42446W        W14772  16.639  13.315  12.997
42447W        W14773  34.532   2.656   3.719
42448W        W14774  40.563  29.004   3.659
42449W        W14775  16.494  31.243  11.902
42450W        W14776  37.135  23.598   0.934
42451W        W14777   1.751  40.825   4.777
42452W        W14778   6.190  32.171   3.788
42453W        W14779   2.842  26.604   1.460
42454W        W14780  16.131   7.534  10.443
42455W        W14781  28.964  42.607   2.392
42456W        W14782  19.073  25.231  12.081
42457W        W14783  28.858  14.732  11.105
42458W        W14784  33.721  37.340  10.920
42459W        W14785  24.881  17.573  12.526
42460W        W14786  42.711  38.327   2.670
42461W        W14787  13.091  27.385   4.646
42462W        W14788   4.654  26.899   4.190
42463W        W14789  36.541  28.128   4.678
42464W        W14790  18.271  29.591  10.407
42465W        W14791  23.642  38.357   1.468
42466W        W14792  41.063  32.081  12.120
42467W        W14793  43.586   0.265   1.728
42468W        W14794  33.039  19.007  14.220
42469W        W14795   0.681  40.944   1.836
42470W        W14796   0.786  33.683   1.305
42471W        W14797  37.924  33.052   1.961
42472W        W14798  38.794  44.327   3.995
42473W        W14799  31.993  17.694   1.456
42474W        W14800  36.005  27.621   1.249
42475W        W14801  34.170  17.238  14.353
42476W        W14802   3.292  23.114  12.437
42477W        W14803  38.783  38.250   4.343
42478W        W14804  28.125  40.479  13.279
42479W        W14805  13.573  43.299   2.611
42480W        W14806  21.012  22.143   3.438
42481W        W14807  30.548   8.242  12.596
42482W        W14808  33.016  32.115   3.519
42483W        W14809  35.332  12.158  12.094
42484W        W14810   8.463  31.572  12.441
42485W        W14811  25.612   8.271  14.877
42486W        W14812  39.024  20.784  14.082
42487W        W14813   8.779  30.413   3.605
42488W        W14814  29.789   4.236   1.371
42489W        W14815   8.828   9.822   4.740
42490W        W14816  28.684  40.998  14.248
42491W        W14817  19.810  36.109  10.675
42492W        W14818  20.499  30.700   2.700
42493W        W14819   1.369  26.552   3.620
42494W        W14820  23.125  42.389   1.541
42495W        W14821  41.563   9.423   0.080
42496W        W14822  25.139  16.037  12.513
42497W        W14823  17.606  25.931   3.446
42498W        W14824  33.022  10.686   1.410
42499W        W14825   5.140  15.170   4.671
42500W        W14826   7.347  11.348  14.512
42501W        W14827  28.193   3.040   1.368
42502W        W14828   4.869  37.072  14.800
42503W        W14829  25.020  43.799  14.404
42504W        W14830  38.363   1.041   4.633
42505W        W14831  32.686  34.069  13.065
42506W        W14832  33.477  16.879  11.731
42507W        W14833  38.599  38.747   2.965
42508W        W14834  38.458  16.718  11.888
42509W        W14835  26.938   5.738   4.290
42510W        W14836   3.773  41.902  11.586
42511W        W14837  35.975   4.293  13.829
42512W        W14838  10.246   1.288  10.638
42513W        W14839  39.698  44.875  11.984
42514W        W14840   3.270   5.308   3.028
42515W        W14841  22.986  18.769  12.638
42516W        W14842  18.478   3.613  12.521
42517W        W14843  28.822  31.109   2.912
42518W        W14844  15.765  44.153  11.553
42519W        W14845   7.459   6.770   4.378
42520W        W14846  15.651   2.400  11.822
42521W        W14847   3.034  15.348   3.792
42522W        W14848   8.274  10.083   3.634
42523W        W14849  36.842   5.245  12.468
42524W        W14850  28.928  44.584   1.264
42525W        W14851  23.649  24.093  12.742
42526W        W14852  19.793  26.445   1.720
42527W        W14853  44.488  12.176   4.091
42528W        W14854   5.947  30.618  14.849
42529W        W14855  20.214   9.134   3.802
42530W        W14856  18.093  24.984  11.218
42531W        W14857  38.165  12.587  11.938
42532W        W14858   8.940   3.348   2.171
42533W        W14859  18.033  20.262   4.558
42534W        W14860  28.543  15.102  11.291
42535W        W14861  36.794  28.455   2.735
42536W        W14862  24.813   0.794  13.537
42537W        W14863  14.095   1.154  10.970
42538W        W14864  16.186  34.849   3.341
42539W        W14865  12.517  15.901  13.081
42540W        W14866  41.553  36.357   3.578
42541W        W14867  21.720  35.884   5.186
42542W        W14868  38.440  43.995   1.252
42543W        W14869  14.663   6.064   2.277
42544W        W14870  26.020   6.484  12.602
42545W        W14871  36.495   5.186   0.290
42546W        W14872  31.858  44.375  13.349
42547W        W14873  26.196  21.531  14.099
42548W        W14874  37.612   8.148  14.555
42549W        W14875  21.316   2.684  13.599
42550W        W14876   6.754  40.355   2.373
42551W        W14877  38.513  32.848  12.154
42552W        W14878  14.723  11.609  14.159
42553W        W14879   7.823  40.196  14.866
42554W        W14880   9.112  42.035   1.313
42555W        W14881  30.103  14.289  11.187
42556W        W14882  30.627  40.785  12.135
42557W        W14883  20.689  29.686  13.581
42558W        W14884  34.678   1.838  14.397
42559W        W14885  30.238  22.737   3.236
42560W        W14886   1.867  29.718  14.864
42561W        W14887  10.386  23.034  10.642
42562W        W14888  23.229  26.923   4.193
42563W        W14889  40.974   8.493  13.522
42564W        W14890   0.429  24.052   4.928
42565W        W14891  28.459  28.007   0.333
42566W        W14892   2.412   7.151  14.385
42567W        W14893  39.065  10.309   1.853
42568W        W14894  26.524  10.263  10.448
42569W        W14895  23.239  19.727  11.555
42570W        W14896   1.705  29.597  11.933
42571W        W14897  23.018  17.582  11.598
42572W        W14898  28.894  27.157  10.099
42573W        W14899  39.055  32.158   3.260
42574W        W14900  21.268  34.518  11.864
42575W        W14901  34.836  31.165  10.554
42576W        W14902  33.903  10.336   3.184
42577W        W14903  34.609   5.157  14.886
42578W        W14904  22.736  29.189  14.370
42579W        W14905   6.109  43.372  14.029
42580W        W14906  31.399   2.624   3.252
42581W        W14907  11.649   0.218   2.215
42582W        W14908  42.013  20.655   4.639
42583W        W14909  21.279   5.784  11.562
42584W        W14910  14.240  34.109   5.040
42585W        W14911  17.274  18.014  14.292
42586W        W14912  10.865  34.136   2.174
42587W        W14913  22.107  42.530   2.734
42588W        W14914   0.856  44.676   4.188
42589W        W14915  16.799   9.793   2.348
42590W        W14916  21.254  17.386   1.671
42591W        W14917   1.918  22.871   4.611
42592W        W14918  16.039   3.546   3.135
42593W        W14919  31.519   9.910  14.820
42594W        W14920   3.886  19.075   2.797
42595W        W14921  28.079   8.545   0.975
42596W        W14922   8.233  37.018   1.589
42597W        W14923   8.157  18.915  13.485
42598W        W14924  28.200  35.493   0.809
42599W        W14925  40.274  18.700  11.243
42600W        W14926  31.502   3.832   0.465
42601W        W14927  11.887  20.617   3.758
42602W        W14928  33.615   2.509   2.256
42603W        W14929   9.892  25.492  14.845
42604W        W14930  24.954  19.554   1.855
42605W        W14931  18.839  25.132  14.042
42606W        W14932   3.698  22.548  13.963
42607W        W14933  20.985  34.087   1.045
42608W        W14934   7.344  42.313  13.406
42609W        W14935   0.096   9.873   1.434
42610W        W14936  41.649   5.294   1.144
42611W        W14937  36.859  10.283   3.086
42612W        W14938  26.533   2.898   2.869
42613W        W14939  13.511   5.373   4.914
42614W        W14940  36.636   5.373  13.426
42615W        W14941  42.974   4.297  14.732
42616W        W14942   9.753  26.163  14.350
42617W        W14943   6.002  17.678  14.062
42618W        W14944  38.166  33.775  12.069
42619W        W14945   6.669  30.369  12.580
42620W        W14946  26.631  29.535   4.804
42621W        W14947   0.981   4.840   0.293
42622W        W14948  21.712  18.673   4.647
42623W        W14949  29.977  38.626  12.406
42624W        W14950  23.751  28.574  13.775
42625W        W14951  13.332  16.334  13.379
42626W        W14952   4.634  10.662  12.398
42627W        W14953  23.585  21.580  10.612
42628W        W14954  17.719  35.889  13.566
42629W        W14955   8.142  41.822   3.636
42630W        W14956  38.944  43.066   3.129
42631W        W14957  38.457  10.868  13.980
42632W        W14958   2.955  12.146  14.992
42633W        W14959  24.115  24.537   0.858
42634W        W14960   2.061  14.683   3.209
42635W        W14961  31.361   3.555   1.642
42636W        W14962  24.802  13.225  12.673
42637W        W14963  17.093  22.249  12.022
42638W        W14964  34.889  26.396  14.792
42639W        W14965  33.034  23.499   0.347
42640W        W14966  28.084  32.008  11.215
42641W        W14967   4.228  23.836   2.504
42642W        W14968  23.062  17.240  10.499
42643W        W14969  22.827  39.358   4.694
42644W        W14970  43.277  29.483  11.726
42645W        W14971  17.127  28.301   0.352
42646W        W14972  18.221  19.489  13.842
42647W        W14973  42.395  29.942   3.655
42648W        W14974  16.559   7.013   3.248
42649W        W14975  42.469  44.849   4.760
42650W        W14976  17.599  32.597   3.256
42651W        W14977  33.605  39.720  14.491
42652W        W14978  33.190  40.815  11.968
42653W        W14979  39.845  38.407  13.285
42654W        W14980  11.228   5.526   4.688
42655W        W14981  20.051  26.506   3.777
42656W        W14982  32.496   6.271  10.915
42657W        W14983  36.482  33.017   2.894
42658W        W14984  23.678  41.002   0.738
42659W        W14985  34.636   1.811  10.884
42660W        W14986   0.244   7.470  13.063
42661W        W14987  35.256   0.158  12.138
42662W        W14988  35.617  37.966  12.069
42663W        W14989  26.484  43.205  11.527
42664W        W14990  35.892   0.490   0.956
42665W        W14991   4.458   6.262   0.333
42666W        W14992  16.046   0.530  11.706
42667W        W14993  21.924   9.456  13.415
42668W        W14994  29.881  26.168  10.134
42669W        W14995  26.992  38.993  14.959
42670W        W14996  22.061  18.207  11.207
42671W        W14997   6.619  34.178   1.845
42672W        W14998  44.948  11.790  10.638
42673W        W14999   6.728  41.812   3.371
42674W        W15000  22.794  26.720   0.406
42675W        W15001   6.136  31.139   4.745
42676W        W15002  15.710  38.806  12.428
42677W        W15003   5.664   2.831  14.038
42678W        W15004  31.002  22.644   4.828
42679W        W15005  35.133  44.434   3.466
42680W        W15006  33.673   3.258  14.910
42681W        W15007  14.421  44.440   0.756
42682W        W15008  17.785  25.000   1.307
42683W        W15009  43.850   0.044   2.278
42684W        W15010  24.281  35.395  12.520
42685W        W15011  16.778  34.126  12.039
42686W        W15012   3.386  22.553   2.273
42687W        W15013  34.842  22.022   4.764
42688W        W15014  38.033  20.422  14.911
42689W        W15015  34.990  15.340   4.275
42690W        W15016  42.812   9.909  11.518
42691W        W15017   7.187  38.261  11.544
42692W        W15018   9.585  35.621  11.150
42693W        W15019  40.522  13.881   3.285
42694W        W15020  29.191  37.333  11.214
42695W        W15021  28.692   0.212  12.951
42696W        W15022  16.662   5.320   3.738
42697W        W15023  11.313   4.129  12.569
42698W        W15024  31.986  26.703   0.165
42699W        W15025   3.468   4.091  11.092
42700W        W15026  41.450  38.130  10.687
42701W        W15027   9.396  16.688   0.901
42702W        W15028  26.635  31.489   3.180
42703W        W15029  10.084  14.596  13.399
42704W        W15030  40.289  41.401   0.513
42705W        W15031   1.944  28.695   0.033
42706W        W15032  11.240   5.787   3.711
42707W        W15033   0.404  12.415   2.325
42708W        W15034  17.118  17.305  11.960
42709W        W15035  37.762  38.989  13.411
42710W        W15036  23.578   6.549  14.336
42711W        W15037  13.360  43.378  14.877
42712W        W15038  23.139  41.764   2.205
42713W        W15039  36.859  21.235   0.765
42714W        W15040   4.300  21.056  12.049
42715W        W15041  38.434   1.872  10.839
42716W        W15042  10.683  42.002   3.290
42717W        W15043  32.149  34.777  10.812
42718W        W15044   1.223  29.942   2.821
42719W        W15045  28.389  26.496   2.228
42720W        W15046   4.683  11.901   1.820
42721W        W15047   7.737  35.107  14.630
42722W        W15048  35.559   0.279  13.463
42723W        W15049  25.417   5.015   4.680
42724W        W15050  40.538  22.435   5.026
42725W        W15051  33.484  41.883   1.879
42726W        W15052  12.807  35.956  10.765
42727W        W15053  21.047  20.238  11.545
42728W        W15054  33.986   3.213  10.437
42729W        W15055  19.613  12.086  12.949
42730W        W15056  21.659  15.989   2.725
42731W        W15057   8.390  24.660   4.438
42732W        W15058  14.376  12.769  14.555
42733W        W15059   5.763  44.971   1.767
42734W        W15060  13.825  30.680   3.834
42735W        W15061  40.379  34.997   4.597
42736W        W15062  44.262   0.088  11.551
42737W        W15063  41.424  14.345   3.591
42738W        W15064  32.945  26.672  13.822
42739W        W15065  22.208   6.537  12.706
42740W        W15066   3.577  36.849  11.124
42741W        W15067   8.302  33.979   0.301
42742W        W15068  20.127   8.869   2.788
42743W        W15069   2.860   1.870  10.699
42744W        W15070  39.998  35.528  14.041
42745W        W15071   1.843  17.767  11.701
42746W        W15072  29.927  15.647  14.338
42747W        W15073  24.018  18.067   2.826
42748W        W15074  14.578  28.026  11.124
42749W        W15075  35.431  25.478  13.793
42750W        W15076  10.186  20.129   4.032
42751W        W15077  37.968  29.066  14.235
42752W        W15078  26.462  34.422   0.293
42753W        W15079   8.086  40.144   4.696
42754W        W15080   4.004   4.182  12.965
42755W        W15081  37.296  16.091  13.812
42756W        W15082  30.502  12.781   2.314
42757W        W15083  24.219   9.190   1.171
42758W        W15084  41.575  20.689   2.006
42759W        W15085  42.464  38.700  14.448
42760W        W15086  25.447  38.973  14.839
42761W        W15087  34.493  30.132  14.038
42762W        W15088  42.972  40.399  14.355
42763W        W15089   3.969  36.313   0.501
42764W        W15090   2.347  42.406  10.683
42765W        W15091  43.067  42.873  14.784
42766W        W15092  22.983  32.030  14.963
42767W        W15093  23.447   3.170   1.309
42768W        W15094  42.697   0.261  13.848
42769W        W15095   6.334  15.273   0.963
42770W        W15096  35.155  35.721   9.789
42771W        W15097  11.694  26.593   4.993
42772W        W15098   3.762  21.995  13.099
42773W        W15099  44.665  23.229  12.380
42774W        W15100  26.453  35.316  14.456
42775W        W15101  35.899  20.153  14.561
42776W        W15102   9.890  35.307  11.410
42777W        W15103  42.352  10.452   2.206
42778W        W15104  32.361  38.089   4.089
42779W        W15105  31.200  11.732  13.568
42780W        W15106   3.861  19.530   1.891
42781W        W15107   9.116  15.353   1.308
42782W        W15108  26.958   2.316   2.417
42783W        W15109   0.227  38.996  13.000
42784W        W15110  16.596  39.309   3.593
42785W        W15111  42.259   2.255  13.404
42786W        W15112  40.056  17.778   3.726
42787W        W15113  42.824   2.781  13.952
42788W        W15114   3.763  18.308  10.343
42789W        W15115  35.380  23.413   1.150
42790W        W15116  30.110  29.998   1.023
42791W        W15117  29.978  38.164   4.242
42792W        W15118   1.844   4.941  14.584
42793W        W15119  12.393   2.872  12.876
42794W        W15120  20.156  13.659   4.852
42795W        W15121  11.680  30.337  13.429
42796W        W15122  37.526  26.725   3.374
42797W        W15123  20.268  34.496   2.765
42798W        W15124  22.568  11.344  14.801
42799W        W15125  19.116  25.151   1.849
42800W        W15126  17.964  26.195  10.529
42801W        W15127  22.514  18.321   1.831
42802W        W15128  32.200  22.793   3.248
42803W        W15129  31.609  38.777  13.338
42804W        W15130  34.145  26.388  13.406
42805W        W15131   8.753  29.029  10.766
42806W        W15132  38.818  34.589   3.172
42807W        W15133  22.621   9.222   1.874
42808W        W15134  11.720  42.489   3.396
42809W        W15135  21.732  17.172   0.812
42810W        W15136  28.095  14.561   4.618
42811W        W15137  29.039  35.228  13.064
42812W        W15138  13.958  22.156  11.195
42813W        W15139  22.203  16.040   5.066
42814W        W15140   3.275  38.898  14.915
42815W        W15141  41.721  28.424  14.417
42816W        W15142  24.512  21.869   2.830
42817W        W15143  35.579   2.346   2.665
42818W        W15144  17.209  42.094   4.523
42819W        W15145  22.365  10.374   5.086
42820W        W15146  39.103  33.538   5.104
42821W        W15147  20.504  37.578  14.447
42822W        W15148  13.171  36.286  12.764
42823W        W15149   3.778  18.143   1.489
42824W        W15150  35.177  27.159   2.049
42825W        W15151  20.791  29.639  12.641
42826W        W15152  38.459  22.946  12.477
42827W        W15153   3.683  24.423  10.574
42828W        W15154  29.856  12.365   1.592
42829W        W15155   6.725  34.092  12.202
42830W        W15156   5.948  20.613  13.089
42831W        W15157  36.970  37.251   1.304
42832W        W15158  23.782  37.086   2.873
42833W        W15159  30.510  11.556  13.344
42834W        W15160  32.145  21.021   1.903
42835W        W15161  12.324  39.931   0.695
42836W        W15162  24.113  25.469   1.864
42837W        W15163  26.494  13.746   2.321
42838W        W15164  23.747  33.615  14.550
42839W        W15165   7.652   0.472  14.472
42840W        W15166   3.186  23.314  11.036
42841W        W15167  44.399  19.717   1.631
42842W        W15168   4.932  21.702   4.963
42843W        W15169  21.201  44.006   3.167
42844W        W15170  12.133  27.432  10.422
42845W        W15171  22.542  44.359  11.511
42846W        W15172  33.533  41.840  10.775
42847W        W15173   5.291   3.432   2.717
42848W        W15174  31.917  19.876   4.112
42849W        W15175  13.271  33.392   0.770
42850W        W15176   1.982  24.168   2.729
42851W        W15177  23.425   9.847   0.293
42852W        W15178  26.941  22.510  13.532
42853W        W15179  37.948   4.733  13.427
42854W        W15180  10.596   7.748   3.292
42855W        W15181  38.344  31.358   0.825
42856W        W15182  32.089  42.575  13.420
42857W        W15183   1.911  31.520  14.379
42858W        W15184  14.616   8.639   1.012
42859W        W15185  11.702  24.555   5.769
42860W        W15186  34.861   0.155  14.355
42861W        W15187  17.300  21.228   2.686
42862W        W15188  12.773  33.204  14.067
42863W        W15189   1.430  38.506   3.828
42864W        W15190  34.067   7.532  13.873
42865W        W15191  41.611  31.743  14.386
42866W        W15192   3.208  28.000  10.691
42867W        W15193   1.935   5.170   4.923
42868W        W15194  21.207  14.346   2.887
42869W        W15195  38.679  20.808  11.557
42870W        W15196  38.809  18.716   3.229
42871W        W15197  10.102  41.963  11.056
42872W        W15198  14.236  39.354   3.134
42873W        W15199  23.821  29.513  12.188
42874W        W15200  38.383  25.541  14.856
42875W        W15201  44.720  34.010   2.476
42876W        W15202  16.816  29.434  12.538
42877W        W15203  28.138  22.208   4.285
42878W        W15204  20.152  38.150   1.901
42879W        W15205  43.444  35.146  13.442
42880W        W15206  20.202  11.764   4.620
42881W        W15207  38.548  33.154  13.418
42882W        W15208  25.702  19.291  13.673
42883W        W15209  26.674  29.976   3.485
42884W        W15210  38.375   6.438  14.753
42885W        W15211   7.802  16.064   3.619
42886W        W15212  20.499  19.678   2.628
42887W        W15213  38.978  23.100   2.387
42888W        W15214  31.676  33.996  11.152
42889W        W15215   5.799   8.873   3.205
42890W        W15216  30.397  22.809  11.167
42891W        W15217  37.532  19.902  13.746
42892W        W15218  19.348  31.717   2.357
42893W        W15219  13.130  29.509  12.041
42894W        W15220   2.291  36.051  12.747
42895W        W15221  14.288  30.699   3.342
42896W        W15222  39.858  34.998   3.672
42897W        W15223  19.176  29.150  10.541
42898W        W15224   7.097  44.309  13.766
42899W        W15225  20.934   8.564   4.894
42900W        W15226  34.106  28.421  14.885
42901W        W15227  33.483  18.113  11.354
42902W        W15228   5.915  11.264  11.136
42903W        W15229  20.489  16.556   0.284
42904W        W15230  20.126  25.248   4.243
42905W        W15231  42.320  10.302   4.410
42906W        W15232  38.047   3.177   3.046
42907W        W15233  12.674  23.582  13.361
42908W        W15234  21.605  31.699  12.028
42909W        W15235  39.782  33.602  10.924
42910W        W15236  39.664   5.521   3.599
42911W        W15237  23.754  19.252  13.479
42912W        W15238   0.207  43.373   0.649
42913W        W15239  23.480  32.657   4.121
42914W        W15240   2.560   3.161  10.603
42915W        W15241   4.965  19.078  10.706
42916W        W15242  40.860  38.401   1.639
42917W        W15243   7.085   2.468   2.717
42918W        W15244  41.899  30.113  10.803
42919W        W15245   2.684  40.919  11.104
42920W        W15246  24.073  27.498  10.775
42921W        W15247  21.496  41.810  13.035
42922W        W15248   4.216  16.114  14.035
42923W        W15249  31.060  16.014   3.690
42924W        W15250   0.972  31.485   3.255
42925W        W15251  22.087  31.052   3.254
42926W        W15252   2.026  23.661   5.525
42927W        W15253  16.530  33.937   2.178
42928W        W15254  37.532  20.732  13.055
42929W        W15255  34.395  39.116   4.640
42930W        W15256  40.366  28.039   4.055
42931W        W15257  38.073  31.527  11.419
42932W        W15258  20.323  14.793   0.834
42933W        W15259  43.543   2.490   3.764
42934W        W15260  23.345  30.936   1.154
42935W        W15261  33.707   9.252   1.813
42936W        W15262  43.270   8.238   3.419
42937W        W15263  43.044   6.280   3.664
42938W        W15264  35.380  34.488   1.432
42939W        W15265  25.200  17.984  14.845
42940W        W15266  24.745  39.160   0.436
42941W        W15267  41.362  23.311  13.992
42942W        W15268   7.847  13.111  13.526
42943W        W15269  23.021  29.180   2.860
42944W        W15270  35.921  33.122  11.002
42945W        W15271  29.146   2.678   1.472
42946W        W15272   1.962  30.957   2.112
42947W        W15273   7.203  31.372   4.193
42948W        W15274  39.588   4.491  12.667
42949W        W15275  22.174  22.614   0.247
42950W        W15276  30.734  29.538   1.928
42951W        W15277  30.934  44.392  11.200
42952W        W15278  39.424   6.156  14.573
42953W        W15279  17.086  42.500  11.436
42954W        W15280   9.664  24.782   2.221
42955W        W15281  21.687  26.872  13.455
42956W        W15282  43.801  40.043   0.397
42957W        W15283  14.381  28.429  14.985
42958W        W15284  29.899   8.257   3.693
42959W        W15285  28.574  11.279  12.008
42960W        W15286  20.110  33.546  12.135
42961W        W15287   6.787  24.501  14.519
42962W        W15288   7.968  11.583  10.724
42963W        W15289  42.028  31.394   0.340
42964W        W15290  11.295  17.710  13.551
42965W        W15291   7.764  28.090  13.776
42966W        W15292  11.136  31.263  12.811
42967W        W15293  22.463  37.941  13.617
42968W        W15294   1.219  44.226   0.370
42969W        W15295  21.998  25.170   2.160
42970W        W15296  42.766  28.109  13.569
42971W        W15297  43.326  27.679   2.349
42972W        W15298   6.872  42.793   1.271
42973W        W15299  19.254   5.902  13.281
42974W        W15300  43.758   9.876  14.536
42975W        W15301  43.747   6.917   4.361
42976W        W15302  40.224  10.328   5.124
42977W        W15303  20.106  33.469   5.081
42978W        W15304  41.886  31.986  11.476
42979W        W15305  20.639   2.548   1.038
42980W        W15306  33.545  34.812  14.428
42981W        W15307  32.994   9.607   4.402
42982W        W15308  37.423  31.373   4.879
42983W        W15309   8.228  22.662   4.344
42984W        W15310  34.316  22.532   0.857
42985W        W15311   6.605  20.629   1.831
42986W        W15312  22.129  21.069   1.291
42987W        W15313  28.111  34.818   2.859
42988W        W15314   6.381  13.032  14.329
42989W        W15315  25.240  33.630  10.339
42990W        W15316  29.923  44.862   4.117
42991W        W15317  36.363  32.012  14.151
42992W        W15318  12.495  27.056   1.863
42993W        W15319  44.052  28.966   3.610
42994W        W15320  41.562  33.036   0.767
42995W        W15321   6.274  36.675   1.462
42996W        W15322  40.300  33.956  14.842
42997W        W15323   6.198  26.180  14.784
42998W        W15324  33.937  27.325   1.872
42999W        W15325  17.665  12.286   4.653
43000W        W15326   2.791  26.118  12.472
43001W        W15327  44.840  24.096   1.829
43002W        W15328   1.908  37.905   2.518
43003W        W15329  37.178   6.355   3.801
43004W        W15330  17.885  17.568   0.021
43005W        W15331   5.914  44.797   2.719
43006W        W15332  33.921   4.013  13.311
43007W        W15333   4.012  43.006   0.422
43008W        W15334  29.900  33.842  13.812
43009W        W15335  24.578  20.642   4.526
43010W        W15336   3.215  15.136   2.153
43011W        W15337   7.575  35.919   0.187
43012W        W15338  36.470  36.651  12.040
43013W        W15339  39.516  33.062  14.019
43014W        W15340  25.502  39.110   4.811
43015W        W15341   2.636  22.643  11.458
43016W        W15342   1.061  33.672   0.883
43017W        W15343   0.519  42.530  12.170
43018W        W15344  35.306  24.000   1.398
43019W        W15345  17.795  31.693  11.071
43020W        W15346  11.312  42.995  11.415
43021W        W15347  27.060  23.575  13.865
43022W        W15348  17.611  16.555  12.052
43023W        W15349  13.972  25.640   9.940
43024W        W15350  34.913  35.929   4.931
43025W        W15351  34.291  16.505  11.152
43026W        W15352  41.915  20.503  13.634
43027W        W15353  40.361  36.863   2.203
43028W        W15354  40.533  40.080  12.880
43029W        W15355  36.080  16.104  14.521
43030W        W15356   1.757  38.642   1.756
43031W        W15357  39.982  35.350   3.335
43032W        W15358  38.044   5.918   0.200
43033W        W15359  16.683  34.598   4.130
43034W        W15360  20.740  11.716  11.747
43035W        W15361  13.143  23.122   1.562
43036W        W15362  34.992  44.645  14.435
43037W        W15363   3.137   2.074   1.293
43038W        W15364   1.056  16.367  14.354
43039W        W15365  28.886  14.343  10.642
43040W        W15366  43.021  29.009  11.740
43041W        W15367  38.353   7.744  10.956
43042W        W15368  43.823  43.993  13.852
43043W        W15369  17.654  35.071   2.824
43044W        W15370  27.796  41.423  10.208
43045W        W15371  17.369  42.375  11.955
43046W        W15372  10.199  21.740   2.337
43047W        W15373   7.282  38.311  10.518
43048W        W15374  30.917  37.062  13.820
43049W        W15375  36.548  13.613   1.249
43050W        W15376  33.864  43.973  12.031
43051W        W15377  30.552  24.088  14.802
43052W        W15378  25.584  32.710   0.639
43053W        W15379  36.038  23.090   0.701
43054W        W15380  37.032  30.282  12.474
43055W        W15381  24.932  33.726  14.390
43056W        W15382  42.242  10.545   1.318
43057W        W15383  44.273  37.539  13.118
43058W        W15384   2.148  19.508  11.489
43059W        W15385  25.366   1.672  13.810
43060W        W15386  33.927  38.581  12.433
43061W        W15387   9.744  32.494  10.750
43062W        W15388  35.761   4.132  10.413
43063W        W15389  40.047  22.941   0.018
43064W        W15390  19.244  26.444  14.879
43065W        W15391   7.972  35.874   4.161
43066W        W15392  39.729  15.875   3.837
43067W        W15393  32.923  16.751  10.600
43068W        W15394  37.369  34.572  11.169
43069W        W15395  43.094  19.169   0.761
43070W        W15396   2.427  41.874   3.556
43071W        W15397  39.555  12.041  12.896
43072W        W15398   6.889  20.735  10.722
43073W        W15399  12.735  40.856   1.088
43074W        W15400   6.779  28.034  13.860
43075W        W15401   6.813   6.170   3.652
43076W        W15402  19.617  35.572  12.888
43077W        W15403  17.808  34.060  12.089
43078W        W15404  39.316  34.884   0.098
43079W        W15405  41.227  34.205  14.444
43080W        W15406  26.108  16.177  11.457
43081W        W15407   2.326   2.472   3.870
43082W        W15408  21.502  23.661  11.948
43083W        W15409  26.603  11.197  11.580
43084W        W15410  12.635  36.983   0.458
43085W        W15411  24.156   8.966   2.564
43086W        W15412  39.935  33.179   4.094
43087W        W15413  22.147  39.102   1.124
43088W        W15414  36.660  11.060  13.931
43089W        W15415   8.271  31.175   0.215
43090W        W15416  15.249   0.274   3.027
43091W        W15417  33.773  17.549   9.893
43092W        W15418  15.349  13.146   2.762
43093W        W15419  27.888  26.086  10.415
43094W        W15420  34.954   1.853   3.704
43095W        W15421   0.406  34.334   0.742
43096W        W15422  21.002   2.713   1.517
43097W        W15423  15.427  12.354  12.896
43098W        W15424  26.928  12.377  11.003
43099W        W15425  37.410  19.173   3.929
43100W        W15426  35.443   7.653   3.056
43101W        W15427  31.001  24.723   0.226
43102W        W15428  30.620  39.933   2.714
43103W        W15429  25.948  36.470   0.812
43104W        W15430   6.204  13.903  12.012
43105W        W15431  41.478  17.820   3.664
43106W        W15432  18.299  16.222   4.948
43107W        W15433  10.758   7.288  10.676
43108W        W15434   6.678  28.729   4.158
43109W        W15435  39.054  22.472   0.833
43110W        W15436  33.095  43.062   3.744
43111W        W15437  15.287  23.723   0.370
43112W        W15438  11.098  16.062   1.492
43113W        W15439  12.293   0.562  13.460
43114W        W15440  12.175  15.305  14.465
43115W        W15441   7.646  16.741  12.791
43116W        W15442  30.755  39.627   4.107
43117W        W15443  29.569  43.179  11.555
43118W        W15444  24.223  14.159   3.851
43119W        W15445  13.314  12.295  12.679
43120W        W15446  34.403  36.921  10.284
43121W        W15447   5.558   9.290   4.059
43122W        W15448  38.668  31.837   3.154
43123W        W15449   3.481  43.800   0.914
43124W        W15450  28.361  44.049   1.354
43125W        W15451   0.654  39.322  11.636
43126W        W15452   7.618  16.342   1.468
43127W        W15453  11.158  19.004   1.481
43128W        W15454   1.508   9.721   1.187
43129W        W15455  30.933   8.453   3.098
43130W        W15456  33.391  44.255   1.436
43131W        W15457   8.163  15.661  10.674
43132W        W15458  30.607  41.475  11.476
43133W        W15459  38.702  24.806   3.127
43134W        W15460  33.658  30.831   4.985
43135W        W15461  15.344   3.860   3.537
43136W        W15462  42.968  40.008  14.722
43137W        W15463  39.131  26.985  12.829
43138W        W15464  37.378  30.482   1.307
43139W        W15465  22.218   8.829  11.075
43140W        W15466  30.462  40.749   0.432
43141W        W15467  37.350   2.703   4.183
43142W        W15468  24.681  30.398  11.028
43143W        W15469  19.201   7.850   1.229
43144W        W15470  29.844   1.718   4.179
43145W        W15471  38.849  44.499   0.866
43146W        W15472  35.691   6.787  14.614
43147W        W15473   1.448  44.259  14.801
43148W        W15474  36.166  15.797  12.025
43149W        W15475   9.526  17.086  12.975
43150W        W15476  30.675  17.808   1.178
43151W        W15477  37.622   7.261   1.736
43152W        W15478  41.503  42.289  14.350
43153W        W15479  24.497  14.105   0.294
43154W        W15480   0.952  43.506   4.602
43155W        W15481  17.134  21.270  12.577
43156W        W15482   8.826  22.129  13.851
43157W        W15483  32.770  23.865  13.443
43158W        W15484   8.502  19.702  13.718
43159W        W15485  21.757  33.612   1.287
43160W        W15486   4.945  13.930  10.750
43161W        W15487   8.164  18.472  13.070
43162W        W15488  39.492  24.685  14.352
43163W        W15489   7.885  21.768  14.625
43164W        W15490  14.795  12.695   4.192
43165W        W15491  35.587  35.553   4.552
43166W        W15492   3.452   1.288  11.059
43167W        W15493  40.845  18.479  14.469
43168W        W15494  27.374  31.746  13.173
43169W        W15495  25.526   7.301   0.212
43170W        W15496   6.310   8.242  14.339
43171W        W15497  35.999   3.805   0.835
43172W        W15498  38.928   5.207  11.195
43173W        W15499  35.783  24.743   2.123
43174W        W15500  31.620  31.679  12.639
43175W        W15501   6.703  11.793  13.025
43176W        W15502  43.967  38.953   4.587
43177W        W15503   5.234  27.387  11.095
43178W        W15504  32.930  12.826   3.420
43179W        W15505   3.117  13.536  11.668
43180W        W15506  20.472   6.756   2.684
43181W        W15507  13.539  35.704  12.117
43182W        W15508   8.771  41.362   2.350
43183W        W15509   7.765  27.307  14.436
43184W        W15510  23.480   9.969   3.746
43185W        W15511  31.544  26.630   0.403
43186W        W15512   4.993  36.394  14.164
43187W        W15513  35.577   3.165   1.308
43188W        W15514  28.483   7.799   4.583
43189W        W15515   4.011   1.175  14.709
43190W        W15516  31.846   3.876  10.448
43191W        W15517  19.770  12.904  12.488
43192W        W15518  20.801  13.664   2.442
43193W        W15519  32.150  26.095   0.032
43194W        W15520  26.193  32.113  11.445
43195W        W15521   6.266   3.270   0.316
43196W        W15522  20.663  32.012   4.482
43197W        W15523  37.068  23.451  12.973
43198W        W15524  18.779  33.098  13.595
43199W        W15525  44.775  16.032  12.004
43200W        W15526  33.710   8.729   3.178
43201W        W15527  32.601  36.815  11.967
43202W        W15528  16.966   7.242   3.476
43203W        W15529  29.636  27.881   4.046
43204W        W15530  19.695  35.057   4.106
43205W        W15531  37.395   0.778  10.691
43206W        W15532  35.864   9.307  12.147
43207W        W15533  34.893  31.967   0.374
43208W        W15534  20.220   4.450  10.918
43209W        W15535  19.466  13.909  11.054
43210W        W15536  23.645   5.893   0.724
43211W        W15537  35.661  44.441   0.183
43212W        W15538  26.031  22.304   1.584
43213W        W15539  32.348   0.511  14.966
43214W        W15540  22.191  16.834  11.106
43215W        W15541   5.246   8.690  11.448
43216W        W15542  26.743   3.373   2.809
43217W        W15543  38.115  44.566  12.816
43218W        W15544  19.074  29.083   2.635
43219W        W15545  30.646  14.760  12.769
43220W        W15546  28.139  19.453  11.791
43221W        W15547  27.077  36.552  11.154
43222W        W15548  11.197  15.528  10.187
43223W        W15549  30.568  19.384   0.221
43224W        W15550  10.362   7.671   1.671
43225W        W15551  30.918  26.603  11.141
43226W        W15552  41.382  28.994   2.348
43227W        W15553  36.516  28.589  12.137
43228W        W15554  41.216   6.969   0.748
43229W        W15555  34.371  42.516  10.818
43230W        W15556  30.555  41.627   1.488
43231W        W15557  31.982  29.475   0.401
43232W        W15558  17.891   0.837  12.053
43233W        W15559  22.061  41.525  14.266
43234W        W15560  21.440   6.640   0.477
43235W        W15561  31.369  26.635   1.279
43236W        W15562  17.273   7.497   0.345
43237W        W15563  41.144  31.931  10.952
43238W        W15564   7.152  44.351   1.769
43239W        W15565  10.581  17.968   0.826
43240W        W15566  20.228  17.263   0.820
43241W        W15567  31.587   2.721  10.696
43242W        W15568  11.252  44.278  14.929
43243W        W15569   5.227   5.322   2.356
43244W        W15570  11.876  37.183  11.909
43245W        W15571  15.675  41.797   3.369
43246W        W15572  23.825  43.470   3.146
43247W        W15573  36.055  43.033   2.025
43248W        W15574   8.885  13.423  13.918
43249W        W15575  44.463  25.786   3.517
43250W        W15576  26.397   1.927   1.856
43251W        W15577  42.465  27.165  14.722
43252W        W15578  37.820  39.027   9.696
43253W        W15579  33.945  25.431   2.744
43254W        W15580  32.705  22.500  10.310
43255W        W15581  22.090  44.900   1.091
43256W        W15582  12.370   5.193  13.544
43257W        W15583  36.296   9.808   1.449
43258W        W15584   7.193  41.942  12.994
43259W        W15585  17.097  42.324  13.388
43260W        W15586   7.120   1.781  11.299
43261W        W15587  11.280   9.388  11.933
43262W        W15588   6.742  27.109   4.096
43263W        W15589  35.354  35.852  12.092
43264W        W15590   6.710  16.292  12.980
43265W        W15591  31.520  10.460   0.221
43266W        W15592  38.892  11.400  11.353
43267W        W15593   0.384  19.969  12.157
43268W        W15594  10.340  29.110   4.750
43269W        W15595  10.891  43.806   0.779
43270W        W15596  41.100  14.714   3.240
43271W        W15597  29.171  29.613   2.104
43272W        W15598  25.698   1.435  13.051
43273W        W15599   6.355  14.841  11.206
43274W        W15600  29.129  11.399   1.425
43275W        W15601   2.394   0.356   3.765
43276W        W15602  15.457  12.203  11.593
43277W        W15603  42.302  15.551  10.694
43278W        W15604   1.950  29.239   0.071
43279W        W15605  34.085  13.462   0.554
43280W        W15606  12.046  11.249   0.786
43281W        W15607   2.286   9.673  14.960
43282W        W15608  39.375  23.025   2.050
43283W        W15609  39.333  43.950   2.366
43284W        W15610  11.841  39.431  12.445
43285W        W15611  11.269  20.225  12.418
43286W        W15612  40.897  20.028   2.329
43287W        W15613   6.019  23.011  11.245
43288W        W15614   5.653  14.624  11.062
43289W        W15615  38.515  38.443   2.131
43290W        W15616  39.473  15.823  11.645
43291W        W15617  30.151   3.453  11.582
43292W        W15618   1.486   5.093  12.412
43293W        W15619   5.462  10.171   2.957
43294W        W15620  16.293  30.979   3.109
43295W        W15621   5.949  31.572   3.210
43296W        W15622   9.089  28.428   0.668
43297W        W15623  42.958   8.720  12.284
43298W        W15624   1.685  22.492   0.783
43299W        W15625  29.762   0.916   4.564
43300W        W15626  23.670  42.389  13.415
43301W        W15627  37.379   7.669   0.969
43302W        W15628   0.474  28.568  12.626
43303W        W15629  25.724  13.861  11.188
43304W        W15630  12.255  19.379  13.604
43305W        W15631  26.969   2.902  14.871
43306W        W15632  12.722   0.296  12.868
43307W        W15633  34.434   1.815  14.866
43308W        W15634  11.024  44.763  11.898
43309W        W15635  23.976  14.833  12.583
43310W        W15636   2.864  31.134   1.442
43311W        W15637  28.422  11.285   4.029
43312W        W15638  38.766  12.809   3.434
43313W        W15639  28.783  38.766   2.384
43314W        W15640  32.593   3.815  14.257
43315W        W15641  25.023  31.420  12.585
43316W        W15642  41.979  43.500   2.370
43317W        W15643   2.243  21.054  13.861
43318W        W15644  43.058  11.901   1.893
43319W        W15645  42.724   4.137  12.560
43320W        W15646   7.327  13.578  12.913
43321W        W15647  13.718   1.902   1.647
43322W        W15648  33.912  33.435  11.675
43323W        W15649  28.663  44.354  12.451
43324W        W15650  21.770   2.219   2.729
43325W        W15651  37.886   6.158  12.598
43326W        W15652  26.906  27.110  10.724
43327W        W15653  40.061  10.122   1.868
43328W        W15654  12.384  33.159  12.897
43329W        W15655   7.206  14.288   2.426
43330W        W15656  40.368   3.241   3.692
43331W        W15657  23.684  29.049   3.672
43332W        W15658  40.341   1.513  10.710
43333W        W15659  15.731  21.616  10.894
43334W        W15660  19.720  22.054   4.735
43335W        W15661   1.499  37.901   3.310
43336W        W15662  28.652  24.521   3.472
43337W        W15663  24.758   6.863  12.024
43338W        W15664  31.085  29.045  14.879
43339W        W15665  14.571  41.853   0.886
43340W        W15666  34.126   9.138  12.000
43341W        W15667  31.944  10.854  11.790
43342W        W15668  22.294   8.843   2.755
43343W        W15669  36.160  24.511  12.885
43344W        W15670   7.874  38.378   4.273
43345W        W15671  12.882   8.226   3.351
43346W        W15672  21.008  41.567  14.828
43347W        W15673  35.104  11.375  12.468
43348W        W15674  16.992  13.155   3.796
43349W        W15675   6.315   2.328  14.348
43350W        W15676   7.130  32.917   3.606
43351W        W15677  43.575  43.292  14.311
43352W        W15678  40.992  22.245  10.675
43353W        W15679  31.025  32.216   0.224
43354W        W15680  15.125   3.964  12.510
43355W        W15681  16.468  32.452   3.540
43356W        W15682  17.318  30.043  12.835
43357W        W15683  31.386  15.618  12.841
43358W        W15684  16.269  27.182   2.228
43359W        W15685  18.756  35.282  12.754
43360W        W15686  20.099  15.051  10.630
43361W        W15687  27.971  22.607   1.903
43362W        W15688   0.899   5.475  13.884
43363W        W15689  41.856  41.294  14.396
43364W        W15690  34.508  27.992   4.768
43365W        W15691  24.150  25.979   4.560
43366W        W15692  10.815  40.908  13.096
43367W        W15693   0.534  17.301   4.657
43368W        W15694   3.008  29.220  13.389
43369W        W15695  19.940   0.313   0.836
43370W        W15696  38.405  30.659   3.640
43371W        W15697  40.296  37.771  12.506
43372W        W15698  40.052  35.556  13.533
43373W        W15699  28.960  11.610  12.732
43374W        W15700  38.495  35.789  14.996
43375W        W15701  34.782  11.474  10.784
43376W        W15702   9.740  26.450  13.878
43377W        W15703  33.798  24.352   4.093
43378W        W15704  33.193  13.146  11.878
43379W        W15705  28.143  40.392  13.871
43380W        W15706   8.777  11.688  13.977
43381W        W15707  10.902  21.988  12.919
43382W        W15708  25.395  35.787   1.570
43383W        W15709   4.775  29.732  11.642
43384W        W15710  25.659  28.574   4.402
43385W        W15711   6.269  31.424  12.936
43386W        W15712  22.088  21.205  12.493
43387W        W15713   5.215  43.750  12.524
43388W        W15714  16.336   6.346  10.610
43389W        W15715  27.006  22.916  12.363
43390W        W15716  26.390  25.515   5.224
43391W        W15717  40.875  22.101   3.856
43392W        W15718  39.967  11.796  14.047
43393W        W15719   5.988  18.721   1.205
43394W        W15720  31.844  11.366  11.891
43395W        W15721  42.318  26.343  11.382
43396W        W15722   8.590  27.918   3.293
43397W        W15723  19.807  44.505  11.919
43398W        W15724   9.154  18.983  14.327
43399W        W15725  19.247  25.124  14.362
43400W        W15726  38.217  25.428  14.384
43401W        W15727   6.213  11.341  11.589
43402W        W15728   8.686  36.327   2.704
43403W        W15729  22.684  28.591   0.553
43404W        W15730   4.335  43.954  14.478
43405W        W15731  22.067  24.702  13.464
43406W        W15732   9.418  36.125   1.699
43407W        W15733  29.730   9.158   0.339
43408W        W15734  11.385  38.953  11.370
43409W        W15735  30.508  33.048  12.894
43410W        W15736  40.820  39.841  10.928
43411W        W15737  15.905  36.643   0.922
43412W        W15738  16.371  43.077  14.553
43413W        W15739  10.906   9.578  13.041
43414W        W15740  19.552  33.783   3.587
43415W        W15741  27.336  38.465  11.097
43416W        W15742  13.023  37.203   0.745
43417W        W15743  10.482  10.705   4.985
43418W        W15744   9.872  30.065  10.618
43419W        W15745  29.184  43.841   3.390
43420W        W15746   6.609   2.269  12.559
43421W        W15747  14.230  33.439  14.111
43422W        W15748  32.097  44.535   3.878
43423W        W15749  13.618   4.762  11.867
43424W        W15750  21.997  44.416  12.436
43425W        W15751  37.453   7.153  14.391
43426W        W15752   5.442   9.185  14.497
43427W        W15753  15.998   0.945  14.316
43428W        W15754   1.904   9.329   4.193
43429W        W15755  17.336  37.989   2.118
43430W        W15756  18.811  19.029   3.293
43431W        W15757  41.234  40.561   1.393
43432W        W15758   7.391  33.445   0.786
43433W        W15759  15.088  17.764  13.041
43434W        W15760   2.965  10.760  14.930
43435W        W15761  27.992   4.232   1.774
43436W        W15762  36.917   2.721   2.750
43437W        W15763  44.491  23.060   2.731
43438W        W15764  39.380   4.362  14.923
43439W        W15765  40.910  10.314   2.763
43440W        W15766   8.457  32.451  12.382
43441W        W15767  28.437  23.707   1.432
43442W        W15768  37.979  26.578   0.315
43443W        W15769  38.840  30.947  14.755
43444W        W15770  36.184  24.687  14.484
43445W        W15771  39.818  34.655  11.933
43446W        W15772   2.438   2.031  12.055
43447W        W15773  18.646  22.685   4.365
43448W        W15774  42.031  28.034   3.570
43449W        W15775  35.397  44.957  14.387
43450W        W15776  26.985   7.124   4.227
43451W        W15777  27.700   5.322   0.458
43452W        W15778  37.466  28.712  13.380
43453W        W15779  38.464  29.543   1.415
43454W        W15780  44.404   7.673   4.626
43455W        W15781  38.922  40.813  12.447
43456W        W15782  10.560  15.149  13.333
43457W        W15783  16.780   1.551  11.583
43458W        W15784  41.740  24.988  14.467
43459W        W15785  22.733  12.581   4.037
43460W        W15786  26.822  11.709   2.808
43461W        W15787  16.254  39.854  10.890
43462W        W15788   9.206  18.236   1.923
43463W        W15789   0.515  44.374   4.991
43464W        W15790  15.283   3.702   1.224
43465W        W15791  30.460  23.313   1.358
43466W        W15792  20.776  39.796  13.776
43467W        W15793  40.738  21.235   2.806
43468W        W15794  38.047  17.788   4.260
43469W        W15795   6.823  35.669   1.101
43470W        W15796  39.593  37.318  13.786
43471W        W15797  39.900  40.307   0.222
43472W        W15798   5.357  14.067   1.914
43473W        W15799   1.584  22.798   0.373
43474W        W15800  28.340  21.270   0.407
43475W        W15801  11.655  13.935   1.414
43476W        W15802  21.492   3.748  14.325
43477W        W15803  11.525  10.078  12.314
43478W        W15804  14.157  27.430   2.745
43479W        W15805  25.604   2.008  14.733
43480W        W15806   2.328  30.480   4.651
43481W        W15807  21.608  24.467  14.560
43482W        W15808  28.211  37.364  13.820
43483W        W15809   6.351  22.995   2.701
43484W        W15810  31.079  10.330   3.870
43485W        W15811  27.965  31.987   3.714
43486W        W15812  22.166  10.801   2.689
43487W        W15813  21.365  36.435  11.640
43488W        W15814  13.257   4.805  13.333
43489W        W15815  31.685   0.330  14.450
43490W        W15816  11.382  34.075  12.950
43491W        W15817   7.078   1.415   1.232
43492W        W15818  44.442  11.858  10.547
43493W        W15819  21.480  13.138  13.104
43494W        W15820  13.129  32.583  12.084
43495W        W15821  27.259  35.456  10.302
43496W        W15822  34.015  25.125   4.580
43497W        W15823  11.595   7.637  14.814
43498W        W15824   7.504  30.068  11.349
43499W        W15825   4.217  29.386  14.225
43500W        W15826  19.676   7.207   0.427
43501W        W15827  35.972  33.550   2.396
43502W        W15828   9.258  24.421   1.268
43503W        W15829  14.404  36.063   4.254
43504W        W15830  16.769   5.045   1.264
43505W        W15831  17.807  32.977   3.879
43506W        W15832  29.456  33.814  14.450
43507W        W15833  14.605  17.702  13.906
43508W        W15834  31.013  30.158   3.007
43509W        W15835  44.313   3.480  14.416
43510W        W15836   1.899  25.140  13.339
43511W        W15837  26.201  20.181  14.047
43512W        W15838  27.879  44.379  12.623
43513W        W15839   4.499   5.494  13.864
43514W        W15840   1.517   0.255   1.812
43515W        W15841  16.651  25.512   4.499
43516W        W15842  36.189  38.750  11.030
43517W        W15843  28.666  18.083   0.368
43518W        W15844   3.724  34.879  14.350
43519W        W15845   2.765  22.206   2.772
43520W        W15846  37.761  31.546  10.318
43521W        W15847   7.693  24.785   0.905
43522W        W15848  12.622  21.955   1.015
43523W        W15849  19.703  14.115  11.595
43524W        W15850  23.311  19.192  11.976
43525W        W15851  40.361  17.748  12.062
43526W        W15852  36.963  13.980   5.001
43527W        W15853  23.289  38.458  14.023
43528W        W15854  33.969  24.812   1.839
43529W        W15855  23.280   0.877  13.385
43530W        W15856  11.627  22.559  11.643
43531W        W15857   2.070  38.760  13.932
43532W        W15858  30.900  21.778  10.986
43533W        W15859  37.014   5.665  12.690
43534W        W15860  35.038   0.041   1.717
43535W        W15861  17.528  36.909  12.071
43536W        W15862  37.616   6.668  14.424
43537W        W15863  33.658  43.031  12.314
43538W        W15864  40.933  34.876  12.117
43539W        W15865  17.491  40.584   4.357
43540W        W15866   2.347   4.833   3.347
43541W        W15867  13.777  13.630  11.582
43542W        W15868   0.979  33.032   3.838
43543W        W15869  33.779  30.895   2.722
43544W        W15870  13.082  22.097  13.547
43545W        W15871   5.845  43.920  12.462
43546W        W15872  17.766  12.676   2.768
43547W        W15873   3.227  33.708  14.209
43548W        W15874  16.012  26.547  14.110
43549W        W15875  29.422   8.282  10.744
43550W        W15876  17.389  14.664  13.426
43551W        W15877  37.832   2.185  11.373
43552W        W15878  43.084  25.118   4.257
43553W        W15879  40.927  42.962   1.596
43554W        W15880   2.852   7.189  12.908
43555W        W15881  15.388  23.175   2.872
43556W        W15882  36.428  38.397  14.644
43557W        W15883   0.062  36.002  14.229
43558W        W15884  16.776   8.326   1.837
43559W        W15885  36.141  40.051  12.815
43560W        W15886  35.596   3.469   4.164
43561W        W15887  31.101  29.411   4.657
43562W        W15888  43.984  31.546   2.721
43563W        W15889  10.114  13.700   0.275
43564W        W15890  37.065  39.150   0.384
43565W        W15891  16.147  28.607   3.689
43566W        W15892  32.116   3.736   0.047
43567W        W15893   1.760  30.185   3.246
43568W        W15894   2.192  43.598   2.783
43569W        W15895  33.601  31.259  14.876
43570W        W15896  31.824   2.348   3.271
43571W        W15897   1.662  16.834  10.748
43572W        W15898  27.545  10.365  14.887
43573W        W15899  41.318  13.232   3.145
43574W        W15900   7.937  44.993   3.682
43575W        W15901   6.611   8.869  11.556
43576W        W15902  35.039   1.160  13.867
43577W        W15903  34.937   5.327   1.400
43578W        W15904   4.385  13.581   1.766
43579W        W15905   2.952  19.346  11.621
43580W        W15906  32.097  32.732  13.691
43581W        W15907  30.400  43.903   0.766
43582W        W15908  16.583   3.710  12.546
43583W        W15909  35.599  15.075  12.318
43584W        W15910  20.215   9.781   0.856
43585W        W15911   7.257  31.605   3.085
43586W        W15912  41.027  27.478  13.444
43587W        W15913  41.915  36.538  13.004
43588W        W15914  22.070  19.628   0.062
43589W        W15915   7.666  29.956   0.455
43590W        W15916  32.714  20.390  11.218
43591W        W15917   1.485  12.368  12.665
43592W        W15918   8.284   7.399  14.724
43593W        W15919  12.334  39.487  11.693
43594W        W15920  42.512  34.377   3.368
43595W        W15921  12.200  11.125  14.397
43596W        W15922   8.934  21.140   1.334
43597W        W15923  19.953  40.389   3.522
43598W        W15924   9.346  32.187  14.394
43599W        W15925  23.444  38.891   3.786
43600W        W15926   9.783  31.994  11.447
43601W        W15927   4.898  14.346  11.191
43602W        W15928  42.442  37.070  11.668
43603W        W15929  30.584  34.339   3.260
43604W        W15930  33.742  11.694  14.857
43605W        W15931   1.739  18.776   0.022
43606W        W15932  38.393  24.226   2.945
43607W        W15933  33.976  38.296   4.572
43608W        W15934  18.142   8.375  13.433
43609W        W15935  37.616   7.474  11.627
43610W        W15936  25.185  37.924   1.591
43611W        W15937  32.093  34.837  12.953
43612W        W15938  37.786  44.897   2.312
43613W        W15939  38.061  18.146   4.639
43614W        W15940  13.913   1.720  11.212
43615W        W15941   6.417  33.991  14.800
43616W        W15942   6.834   5.656   3.654
43617W        W15943  22.079   9.594  12.072
43618W        W15944  24.082  18.049   3.429
43619W        W15945  16.209  20.668  14.252
43620W        W15946  10.202   2.979   1.382
43621W        W15947  33.972  43.039  11.909
43622W        W15948  28.633   7.318  11.101
43623W        W15949  32.708  21.262   3.607
43624W        W15950  30.095  36.903  13.601
43625W        W15951   1.764  14.437   4.544
43626W        W15952  44.460  31.837  10.250
43627W        W15953  17.363  23.681   1.435
43628W        W15954   5.761  17.727   1.052
43629W        W15955   5.735  22.662   1.631
43630W        W15956  12.758  31.159  11.043
43631W        W15957  28.520  42.881   3.564
43632W        W15958  19.575  13.637  12.994
43633W        W15959   7.800  16.081  11.026
43634W        W15960  36.373  12.378   0.197
43635W        W15961  34.595   3.636   2.681
43636W        W15962   2.764  23.432  13.431
43637W        W15963  25.571  35.312  10.526
43638W        W15964  38.781  39.337   0.447
43639W        W15965  33.914  28.955   4.178
43640W        W15966   8.942  35.598  12.951
43641W        W15967   0.639  30.855   0.735
43642W        W15968  15.725  19.815   2.303
43643W        W15969  19.157  38.912   4.118
43644W        W15970  27.733  29.772  11.779
43645W        W15971   2.191  40.027   2.511
43646W        W15972  14.848  16.310   1.439
43647W        W15973  36.583   1.723   1.368
43648W        W15974  39.312   1.015   4.419
43649W        W15975  11.165  10.126  14.230
43650W        W15976  23.689  41.727  14.924
43651W        W15977  14.390  32.446  11.363
43652W        W15978  42.225  31.403  12.832
43653W        W15979  10.803  18.322   1.288
43654W        W15980  32.057  44.401  11.945
43655W        W15981   1.257   6.179  10.755
43656W        W15982  22.589  42.730   2.781
43657W        W15983  11.645  16.707  12.055
43658W        W15984  28.477  26.119   2.652
43659W        W15985  32.950  30.432  12.488
43660W        W15986   9.349  20.684   4.670
43661W        W15987  30.085  22.090  14.528
43662W        W15988   3.927  42.872  12.863
43663W        W15989  28.880   8.249  10.756
43664W        W15990  10.604  18.846  12.488
43665W        W15991   9.351  42.514   1.167
43666W        W15992  40.580  10.182   0.940
43667W        W15993  42.257   2.268   0.348
43668W        W15994   4.819   6.352   4.173
43669W        W15995   8.976   8.010   1.389
43670W        W15996  10.054  14.161   3.556
43671W        W15997  34.057  32.390  14.704
43672W        W15998  36.525  29.555  13.090
43673W        W15999  36.623  16.316  11.970
43674W        W16000  30.832   8.266  13.008
43675W        W16001   5.909  43.272  14.624
43676W        W16002   4.128  36.983  13.391
43677W        W16003  38.486   0.833   0.892
43678W        W16004  42.900  42.976  11.372
43679W        W16005  44.407  42.798  10.815
43680W        W16006   9.369  36.471   3.288
43681W        W16007  18.331  36.667  10.719
43682W        W16008  21.986  42.006   4.110
43683W        W16009  21.656  29.964  11.545
43684W        W16010  23.034  28.031  10.663
43685W        W16011  23.985   6.634   1.413
43686W        W16012   9.618  22.544  10.661
43687W        W16013   6.764   0.941  13.760
43688W        W16014  42.996  17.099   1.442
43689W        W16015   4.893   2.169   5.090
43690W        W16016  28.397  44.469  14.505
43691W        W16017   0.230  21.594   1.969
43692W        W16018  32.811  39.264  14.092
43693W        W16019   5.333  18.808  12.484
43694W        W16020  17.566  10.736   2.836
43695W        W16021   9.922  14.411  14.298
43696W        W16022  19.736  39.205  10.705
43697W        W16023  25.595  23.958  11.151
43698W        W16024  42.576   8.466  10.316
43699W        W16025  21.036  14.584  13.439
43700W        W16026   0.235  40.336  12.872
43701W        W16027  27.042  39.158   2.844
43702W        W16028  15.581  29.076  14.766
43703W        W16029  20.263   8.643   1.385
43704W        W16030  11.771  21.629   0.236
43705W        W16031  32.930  38.975  12.390
43706W        W16032  34.867  41.454  12.736
43707W        W16033  39.067  41.884  13.129
43708W        W16034  24.135   3.195  13.961
43709W        W16035   3.141  19.028   4.221
43710W        W16036  13.898   0.461  14.806
43711W        W16037   8.888  26.682   3.921
43712W        W16038  26.166  40.988  11.569
43713W        W16039  22.439  24.728  13.847
43714W        W16040  44.667   6.847  12.140
43715W        W16041  32.899  18.503  14.171
43716W        W16042  44.911  19.265   0.196
43717W        W16043  44.371  31.396  14.276
43718W        W16044  37.105  37.158  12.551
43719W        W16045  24.270  14.152  11.799
43720W        W16046  24.195  25.637   0.897
43721W        W16047  12.900  40.829  14.253
43722W        W16048  17.139  37.897   2.603
43723W        W16049  17.022   1.638   2.249
43724W        W16050  36.337  21.077  11.146
43725W        W16051  38.775  41.519   3.662
43726W        W16052   3.928   6.295   0.685
43727W        W16053  29.818  36.868   0.344
43728W        W16054   6.800  41.226   2.488
43729W        W16055  41.004  39.930   1.761
43730W        W16056   6.300  24.271  11.150
43731W        W16057   0.705  38.357  13.363
43732W        W16058   5.265  20.814   0.175
43733W        W16059  34.503  14.358  10.718
43734W        W16060   5.839  36.671   3.811
43735W        W16061  24.201  27.186  12.923
43736W        W16062   0.838   4.345  13.547
43737W        W16063  30.557   4.466   1.078
43738W        W16064  28.294  30.903  12.600
43739W        W16065  14.559   9.558  14.214
43740W        W16066   3.333  40.364   3.632
43741W        W16067  36.946  22.965  11.195
43742W        W16068  11.703   6.376   2.237
43743W        W16069   3.097  39.283  13.228
43744W        W16070  37.889  10.373  11.534
43745W        W16071  41.128   2.756  12.816
43746W        W16072  34.625   4.136  13.581
43747W        W16073  38.008   9.201  13.790
43748W        W16074   7.133  38.499   1.287
43749W        W16075  23.906  32.942   2.812
43750W        W16076   0.367  44.800  12.548
43751W        W16077  28.843   4.903  12.575
43752W        W16078   3.102   0.447   1.674
43753W        W16079  15.625  16.617  11.681
43754W        W16080  12.804  22.031  11.572
43755W        W16081  14.486  40.849  14.558
43756W        W16082   8.779  23.044   1.369
43757W        W16083   2.394  25.413  14.678
43758W        W16084  41.113  34.096  11.617
43759W        W16085  37.636  27.562  12.410
43760W        W16086  32.061  42.831  13.880
43761W        W16087  44.789  29.977  14.316
43762W        W16088  44.495  17.850   1.831
43763W        W16089  28.733  23.562   2.831
43764W        W16090  29.974   9.365   4.211
43765W        W16091  40.281  20.328  13.594
43766W        W16092  39.861  31.970  14.288
43767W        W16093  37.376  37.303   0.243
43768W        W16094   5.202  20.793  12.059
43769W        W16095  42.189  20.122  11.368
43770W        W16096  33.177  17.814   3.998
43771W        W16097  33.462  36.565  13.353
43772W        W16098   2.714   1.194   3.649
43773W        W16099  36.465  38.088   1.400
43774W        W16100  21.041  43.142  10.118
43775W        W16101  43.540   6.688  10.452
43776W        W16102  17.678  39.324  10.300
43777W        W16103  32.353  41.848   3.300
43778W        W16104  41.432  17.233  12.554
43779W        W16105   3.982  29.077   1.445
43780W        W16106   5.165   3.198   0.293
43781W        W16107   1.861  13.462  11.261
43782W        W16108  16.721  41.359   3.214
43783W        W16109  18.302   9.150   2.870
43784W        W16110  39.808  23.526  13.299
43785W        W16111  15.228   2.705   0.267
43786W        W16112  40.377   6.881  13.673
43787W        W16113  12.792  17.138  10.780
43788W        W16114   8.556  29.111  11.621
43789W        W16115   8.831  38.320  11.979
43790W        W16116  22.512  12.349  11.448
43791W        W16117  33.859   1.682  12.957
43792W        W16118   7.618   4.622  10.991
43793W        W16119  18.606  12.857   4.533
43794W        W16120  25.211  29.885  14.917
43795W        W16121  37.829  33.501   1.027
43796W        W16122  43.610  35.994   4.835
43797W        W16123  21.934  11.277   3.845
43798W        W16124   0.610  27.931   1.892
43799W        W16125  26.425  44.653   5.084
43800W        W16126  18.667   1.286   2.854
43801W        W16127   2.696  34.375   0.004
43802W        W16128  27.313  19.110  13.682
43803W        W16129   7.134   8.797  11.439
43804W        W16130  15.789  19.965   0.432
43805W        W16131  20.715  17.291  10.819
43806W        W16132   0.292   0.898  13.309
43807W        W16133  31.486  44.208   4.529
43808W        W16134  30.404  29.856  13.503
43809W        W16135  14.175  35.882  14.880
43810W        W16136  17.740  26.798   1.996
43811W        W16137  39.768   5.548  10.938
43812W        W16138   9.399  21.612   3.741
43813W        W16139  11.553   6.474  12.314
43814W        W16140  21.955  28.860   1.923
43815W        W16141  28.441  32.858  12.074
43816W        W16142   3.726  16.047  13.914
43817W        W16143  27.922  36.988   3.422
43818W        W16144  40.107   3.304   2.338
43819W        W16145  35.926  37.020   4.073
43820W        W16146  40.497  17.813   1.051
43821W        W16147   2.875   3.244  14.596
43822W        W16148  30.101  23.188  11.333
43823W        W16149  36.051   5.737  13.077
43824W        W16150  14.424  10.398  11.197
43825W        W16151  30.818  23.450   0.946
43826W        W16152  19.623  42.555   2.800
43827W        W16153  10.478  37.414  11.139
43828W        W16154  15.088  35.222   5.291
43829W        W16155  43.780  11.817   4.353
43830W        W16156  13.878   4.330  12.788
43831W        W16157  23.101  18.552  13.637
43832W        W16158   8.299  38.857  12.949
43833W        W16159  27.809   9.450  12.561
43834W        W16160  25.763  26.514   5.449
43835W        W16161  30.862  35.322   3.740
43836W        W16162  31.123   0.413   1.311
43837W        W16163   9.492  34.658   0.931
43838W        W16164  10.836  44.357  12.148
43839W        W16165  38.421   1.788  11.879
43840W        W16166  20.726  11.900   3.647
43841W        W16167  26.056   1.686   2.676
43842W        W16168  23.644  31.463  12.556
43843W        W16169  36.462  21.272  13.399
43844W        W16170  44.854  30.135  10.626
43845W        W16171  17.893   0.756   0.337
43846W        W16172  38.482  22.580  11.186
43847W        W16173  44.745  25.189  12.481
43848W        W16174  23.339  32.254   1.426
43849W        W16175  10.758  44.431   4.835
43850W        W16176  34.025  19.127  13.106
43851W        W16177  30.508  19.711   0.632
43852W        W16178   2.942  28.123  13.974
43853W        W16179  24.077  35.041  11.382
43854W        W16180   8.006   1.369   1.433
43855W        W16181   7.887  37.979   4.584
43856W        W16182  17.474  21.178   0.591
43857W        W16183  30.175   0.975   2.262
43858W        W16184  31.014  31.954  12.476
43859W        W16185  35.128   6.478  11.550
43860W        W16186  26.324  10.727   0.721
43861W        W16187  42.410  20.949   2.207
43862W        W16188  14.692   6.015  14.365
43863W        W16189  26.378  10.890  14.439
43864W        W16190  22.761  27.105  10.043
43865W        W16191  29.057  23.120  10.709
43866W        W16192  29.929  42.850  14.821
43867W        W16193  16.117  15.271   0.434
43868W        W16194  33.919  43.950   3.224
43869W        W16195  31.019   3.649  11.108
43870W        W16196  33.397   4.217   3.692
43871W        W16197  31.268  25.501   2.239
43872W        W16198  18.209  30.416  11.957
43873W        W16199  14.982  35.817   2.414
43874W        W16200  28.744  25.507   1.696
43875W        W16201  43.904   5.692   0.321
43876W        W16202  16.562  35.960  11.613
43877W        W16203  22.305  13.646  14.436
43878W        W16204  44.628   2.385  12.012
43879W        W16205  44.255   0.391   2.217
43880W        W16206   1.420  25.136  13.544
43881W        W16207   9.882  43.574  13.847
43882W        W16208  20.319  31.845   3.613
43883W        W16209  32.009  17.772   2.418
43884W        W16210  33.010  34.985   5.674
43885W        W16211  27.193  33.652   4.144
43886W        W16212  10.080   0.697  12.139
43887W        W16213  38.269  38.221   4.289
43888W        W16214  38.430  25.718   3.682
43889W        W16215  28.138  41.902  14.487
43890W        W16216  40.838  41.015  14.945
43891W        W16217  20.137  25.500  14.791
43892W        W16218  25.007   3.966  11.174
43893W        W16219  37.665   7.645   3.919
43894W        W16220  10.411  17.288   4.586
43895W        W16221  13.094  12.736  14.771
43896W        W16222  23.259   8.842  11.969
43897W        W16223  39.238   0.828   3.435
43898W        W16224  39.897  36.874  11.638
43899W        W16225  34.779  19.007  11.108
43900W        W16226   1.938  44.245  10.754
43901W        W16227  40.092  37.907  14.485
43902W        W16228  38.955  34.794  14.083
43903W        W16229  35.104  10.209   3.636
43904W        W16230  16.197  27.985  13.142
43905W        W16231  31.670  10.807   1.410
43906W        W16232  30.971   9.463   2.707
43907W        W16233   3.678  33.138  13.866
43908W        W16234   9.931  14.324  10.546
43909W        W16235  18.587  25.467   0.463
43910W        W16236  31.432  11.264   1.504
43911W        W16237  27.049  41.537   3.350
43912W        W16238  12.907   8.076  13.615
43913W        W16239  43.302  11.121   0.359
43914W        W16240  11.321   7.184   0.685
43915W        W16241  34.348  42.301  12.995
43916W        W16242   4.517  13.162   4.165
43917W        W16243  30.902  36.997  11.556
43918W        W16244  23.185   2.514  12.868
43919W        W16245  11.994   3.739   1.252
43920W        W16246  11.830  10.119   1.240
43921W        W16247  36.451  33.710   2.367
43922W        W16248  21.025  23.070  10.571
43923W        W16249   0.898   8.228  13.391
43924W        W16250  17.642   0.859   0.783
43925W        W16251   4.358  11.341  13.917
43926W        W16252  17.266  11.288   3.521
43927W        W16253  32.867  10.601  12.395
43928W        W16254   7.160  44.837   3.229
43929W        W16255  29.179  25.085   5.049
43930W        W16256  12.106   3.993  13.093
43931W        W16257   2.233  39.807  10.711
43932W        W16258  37.326   0.213  11.788
43933W        W16259   0.010   0.074  14.502
43934W        W16260  10.927   0.889  10.250
43935W        W16261  34.184  22.143   2.833
43936W        W16262  44.562   0.371  10.956
43937W        W16263   1.131  38.077  11.118
43938W        W16264   2.497  10.630  11.121
43939W        W16265  41.796  35.017   0.987
43940W        W16266   1.815  24.643  10.526
43941W        W16267  38.380   3.755   0.491
43942W        W16268   0.137  37.317   2.378
43943W        W16269  18.263  18.307   4.223
43944W        W16270   4.348  20.254  10.710
43945W        W16271  32.886  42.059   0.288
43946W        W16272   1.011  30.452  11.478
43947W        W16273  20.342  10.658  11.695
43948W        W16274  15.673  19.478   0.556
43949W        W16275  30.180   9.128   4.628
43950W        W16276  21.993  43.872   4.562
43951W        W16277  21.137  41.564  13.876
43952W        W16278  44.848  23.249  13.838
43953W        W16279  25.626  42.064  12.496
43954W        W16280  24.956  15.080  12.533
43955W        W16281  18.687  39.441   3.117
43956W        W16282  43.768  34.437  13.125
43957W        W16283  36.908   6.912  13.088
43958W        W16284   9.305  44.121  12.948
43959W        W16285  42.528  37.753  12.944
43960W        W16286   9.984  24.067  12.824
43961W        W16287  12.921   7.308   4.814
43962W        W16288   7.805  16.529  12.366
43963W        W16289  39.197  28.377  12.922
43964W        W16290  18.879  25.600   4.521
43965W        W16291  17.309  33.563   1.716
43966W        W16292  42.414  36.811   0.738
43967W        W16293  41.932  19.533  14.105
43968W        W16294   6.936   1.334   3.116
43969W        W16295  10.223  24.437  14.575
43970W        W16296  15.196  34.634  13.977
43971W        W16297  37.968  14.101  12.518
43972W        W16298  29.160  24.510  13.450
43973W        W16299  32.304   3.847  11.644
43974W        W16300   1.349  35.336   2.129
43975W        W16301  43.102  32.203  10.101
43976W        W16302  22.880  26.388   2.690
43977W        W16303  44.793  36.010   5.045
43978W        W16304  13.734   8.974  14.364
43979W        W16305  25.734  27.039   4.182
43980W        W16306   4.738  30.269   9.907
43981W        W16307   6.318  32.897  10.352
43982W        W16308   7.602  16.840  10.681
43983W        W16309   8.879  12.792  10.140
43984W        W16310   2.826  43.409   4.572
43985W        W16311  44.543  31.698   2.077
43986W        W16312   1.252  22.293   1.425
43987W        W16313  42.551  22.466   1.751
43988W        W16314  25.473  31.489  11.213
43989W        W16315  28.034  33.320   2.683
43990W        W16316  24.012   8.875  10.714
43991W        W16317  34.628  13.189   2.895
43992W        W16318  26.969   6.379   2.269
43993W        W16319  26.403  29.972   1.284
43994W        W16320  33.647  23.096  14.476
43995W        W16321  17.222  28.819   3.118
43996W        W16322  30.066  22.975   2.398
43997W        W16323  15.044  15.090   2.273
43998W        W16324  22.938  18.010   1.895
43999W        W16325  21.656  32.126   3.592
44000W        W16326  41.531   4.259   4.370
44001W        W16327  19.269  42.476   1.781
44002W        W16328  30.068  21.718  13.260
44003W        W16329  13.348  31.780  11.556
44004W        W16330  18.928  26.618  12.595
44005W        W16331  38.309  31.872   4.368
44006W        W16332   5.191  20.820  13.347
44007W        W16333   2.312  12.328   4.798
44008W        W16334  37.484  21.966   1.265
44009W        W16335  39.825   5.139   1.917
44010W        W16336  27.401  13.722  13.280
44011W        W16337   5.823  35.660   3.597
44012W        W16338   6.091  15.555  11.570
44013W        W16339  23.662   5.345   0.184
44014W        W16340  28.080  38.486   1.894
44015W        W16341  44.074  15.358   2.676
44016W        W16342   9.699  32.569   3.311
44017W        W16343  18.274  28.367  12.463
44018W        W16344   3.946  39.517   2.840
44019W        W16345  20.014   1.566  12.831
44020W        W16346  20.305   6.341  14.879
44021W        W16347   1.998  24.490  14.191
44022W        W16348  43.390  38.438  12.872
44023W        W16349   8.038  33.132  11.295
44024W        W16350  28.931  41.364  13.404
44025W        W16351  10.663  30.626   1.497
44026W        W16352  35.998  27.504   3.821
44027W        W16353  14.607  37.170  11.093
44028W        W16354   4.565   7.400   4.978
44029W        W16355   2.929   1.748   2.823
44030W        W16356  25.584  13.962  12.405
44031W        W16357   0.312  40.030  14.083
44032W        W16358   1.633  26.984   2.623
44033W        W16359  13.839  33.857   4.548
44034W        W16360  24.286   4.964  10.504
44035W        W16361   4.964  18.253  12.433
44036W        W16362  29.172  14.231   4.096
44037W        W16363   8.723  30.346   1.117
44038W        W16364  19.149   7.907  13.437
44039W        W16365   3.833  36.175   1.793
44040W        W16366  35.900  42.807   4.645
44041W        W16367  11.631  11.058  12.390
44042W        W16368  36.707  30.419  13.800
44043W        W16369  20.674  39.975   4.628
44044W        W16370  13.839  25.274   1.281
44045W        W16371  27.915  26.706   0.532
44046W        W16372  34.400  24.525  14.782
44047W        W16373  31.077  14.129  10.902
44048W        W16374  29.385   3.509   1.823
44049W        W16375   5.402  40.962   4.592
44050W        W16376  37.459  17.186   3.646
44051W        W16377  36.551  14.679  11.494
44052W        W16378   0.751  37.449  10.171
44053W        W16379  34.486  27.526  13.044
44054W        W16380  43.048  34.480  13.914
44055W        W16381  13.523  13.536  12.439
44056W        W16382  10.109  40.046   2.716
44057W        W16383  31.365  22.734  11.168
44058W        W16384  28.124   3.093   0.533
44059W        W16385  27.432   8.614   4.273
44060W        W16386  36.676  28.573  11.655
44061W        W16387  12.323  37.470  14.014
44062W        W16388  14.694  26.664   5.528
44063W        W16389  31.619  22.957   0.492
44064W        W16390  28.645  39.815  13.914
44065W        W16391  39.788  25.921   4.563
44066W        W16392  20.284   0.661  13.532
44067W        W16393  42.385   6.325   3.401
44068W        W16394  18.592  24.970  14.988
44069W        W16395  38.100  14.160   0.821
44070W        W16396  33.967  35.939  10.323
44071W        W16397  10.784  17.420   0.918
44072W        W16398  24.101  29.976  13.359
44073W        W16399   8.021  33.380   5.045
44074W        W16400  30.232  22.080   0.016
44075W        W16401  38.073  44.451  10.545
44076W        W16402   0.932  23.801   3.276
44077W        W16403   6.857  11.572   2.339
44078W        W16404  26.629   3.278   4.083
44079W        W16405  26.733  44.462  13.860
44080W        W16406  36.887  38.167  13.247
44081W        W16407   0.829  43.131  14.947
44082W        W16408   2.931  26.162   0.649
44083W        W16409  27.443  26.570   4.528
44084W        W16410  36.583   1.850  13.551
44085W        W16411  32.084  24.768  14.520
44086W        W16412  14.705   5.980   0.209
44087W        W16413  34.568   0.756   4.984
44088W        W16414  33.318   0.539  13.030
44089W        W16415  28.514  21.159  11.395
44090W        W16416  30.416  30.488   1.843
44091W        W16417  30.472  37.364  13.433
44092W        W16418  20.791  32.345  11.171
44093W        W16419   9.829  39.823  13.384
44094W        W16420  20.812  44.298  13.512
44095W        W16421  36.483  10.019  11.938
44096W        W16422  19.086  16.279  11.717
44097W        W16423  42.456   7.745  13.035
44098W        W16424  30.043   6.463   2.701
44099W        W16425  40.651  40.574  14.301
44100W        W16426   4.754  11.032  14.010
44101W        W16427   7.700  41.275   0.858
44102W        W16428  13.343  27.827  10.722
44103W        W16429  15.495  27.411   2.215
44104W        W16430  25.453  14.862  14.947
44105W        W16431  28.169  34.867   1.436
44106W        W16432  26.105   4.943   2.205
44107W        W16433   3.243  22.056   3.828
44108W        W16434  35.642  24.584  12.859
44109W        W16435   0.506  14.100  12.871
44110W        W16436   1.999   5.184  12.485
44111W        W16437  37.922  36.080  11.036
44112W        W16438   1.811  11.653   2.930
44113W        W16439  23.147  25.891  12.504
44114W        W16440  16.507  18.230  14.460
44115W        W16441   5.069  21.430  12.550
44116W        W16442   9.189   6.739  11.027
44117W        W16443  30.245  18.423  12.565
44118W        W16444  31.016   3.899   1.810
44119W        W16445  36.192  35.455  14.479
44120W        W16446  29.701  33.041  12.494
44121W        W16447   4.265  36.289  14.519
44122W        W16448  41.909   8.962   2.075
44123W        W16449  11.438  12.140   1.030
44124W        W16450  32.021  16.744   3.164
44125W        W16451  16.916   7.169   1.559
44126W        W16452   6.446  15.154   1.469
44127W        W16453  44.730  39.007  12.125
44128W        W16454  22.846   8.752   0.634
44129W        W16455  30.074  44.000  13.469
44130W        W16456  35.334  12.014   1.915
44131W        W16457   1.752  16.961   4.177
44132W        W16458  35.152  29.167   4.323
44133W        W16459  13.607  19.703  11.551
44134W        W16460  29.490  15.388   0.015
44135W        W16461  40.306   8.338   0.785
44136W        W16462  21.593  25.440   1.437
44137W        W16463  39.481  34.304  13.355
44138W        W16464  16.581  43.354   0.695
44139W        W16465  42.607  10.209   0.239
44140W        W16466   6.313  20.130   3.517
44141W        W16467  20.910  39.443   0.763
44142W        W16468  24.215  28.075  14.279
44143W        W16469  20.132   2.215  14.322
44144W        W16470  44.458  19.666  13.045
44145W        W16471  15.396   4.752   3.672
44146W        W16472  15.839   1.947  11.111
44147W        W16473  25.795   2.991  10.467
44148W        W16474  30.224  42.069  14.216
44149W        W16475  28.967  38.404  14.822
44150W        W16476  17.924  11.458  12.910
44151W        W16477  16.530   4.270   1.784
44152W        W16478  15.188   0.167   4.127
44153W        W16479   4.130  32.631  11.287
44154W        W16480   3.865  34.993   0.724
44155W        W16481  23.941  33.897  11.434
44156W        W16482  30.575  36.792  11.185
44157W        W16483  17.848  35.777   4.874
44158W        W16484  32.848   5.379   2.788
44159W        W16485  30.101  15.003  10.593
44160W        W16486   4.349  30.611  11.559
44161W        W16487  38.497  14.137  10.455
44162W        W16488  11.216  43.573  12.151
44163W        W16489  27.687  30.914  13.106
44164W        W16490  25.546  10.911   3.843
44165W        W16491  13.740  33.018  11.897
44166W        W16492  26.764   9.352  13.420
44167W        W16493   6.821  21.546   0.003
44168W        W16494  42.464   5.006   0.299
44169W        W16495   4.451   4.973   3.683
44170W        W16496  15.535  38.319   4.322
44171W        W16497  30.484  30.361  13.424
44172W        W16498   2.287  17.132  12.170
44173W        W16499  34.434  17.727   0.340
44174W        W16500  28.479   2.244  12.975
44175W        W16501   4.868  12.812   0.258
44176W        W16502  25.562  31.428   3.446
44177W        W16503  42.815  19.763   1.401
44178W        W16504   5.453  35.449  14.006
44179W        W16505  32.117  36.073   0.221
44180W        W16506   1.470  44.774   4.848
44181W        W16507  15.247  41.923   3.071
44182W        W16508  20.678   1.637   1.804
44183W        W16509  11.820  42.105  11.078
44184W        W16510  24.664   9.699  11.585
44185W        W16511  28.021   8.903  14.619
44186W        W16512   1.488   9.800  10.050
44187W        W16513  44.196   9.744  14.939
44188W        W16514  28.055  34.373   1.280
44189W        W16515  31.333  34.058  12.558
44190W        W16516   1.856  28.564  11.288
44191W        W16517  13.887  28.451  13.368
44192W        W16518   8.704  13.233   3.339
44193W        W16519  36.251  14.281   0.442
44194W        W16520  11.282  29.885   3.262
44195W        W16521  12.432  21.408  11.080
44196W        W16522  11.731  43.728  13.407
44197W        W16523  41.877  44.315  14.462
44198W        W16524   7.964  43.318   2.248
44199W        W16525  17.066  41.582  12.838
44200W        W16526  40.032  34.544   3.545
44201W        W16527  10.226  28.435  12.416
44202W        W16528  13.151  18.708   3.928
44203W        W16529  24.006   8.791   3.817
44204W        W16530   1.227  15.241   3.250
44205W        W16531  23.199   1.194  14.326
44206W        W16532  35.082   7.791  10.948
44207W        W16533  12.641   9.783  13.015
44208W        W16534  17.301  19.074  14.538
44209W        W16535   5.186  19.744   1.428
44210W        W16536  27.902   9.263  10.564
44211W        W16537   2.354  39.563   3.334
44212W        W16538  31.155  32.812   2.205
44213W        W16539  27.282  41.980  12.862
44214W        W16540   3.323   4.677  11.928
44215W        W16541   2.880  44.377   2.102
44216W        W16542   3.276  42.013   1.873
44217W        W16543  33.519  25.237   4.584
44218W        W16544  17.054   9.671  11.698
44219W        W16545  27.094  40.375   2.391
44220W        W16546  18.776  29.223   4.073
44221W        W16547   7.397  44.379  11.237
44222W        W16548  38.354  19.543  13.343
44223W        W16549  33.494  40.429  13.801
44224W        W16550   6.821  18.195  10.545
44225W        W16551  35.846  31.826   3.291
44226W        W16552   9.345   4.385  12.517
44227W        W16553   1.964  37.963   1.998
44228W        W16554  40.471  43.250  13.112
44229W        W16555  18.926   1.727  14.339
44230W        W16556   7.224   8.176   4.801
44231W        W16557  17.757  35.404   4.522
44232W        W16558  28.189  13.062   2.018
44233W        W16559  18.174  16.802   1.572
44234W        W16560  13.766  44.596  12.202
44235W        W16561  15.095   7.176  12.049
44236W        W16562  20.760  26.444   1.430
44237W        W16563  40.209  41.286  10.805
44238W        W16564  11.174   9.222   1.787
44239W        W16565  42.426  39.132  12.660
44240W        W16566   7.683  24.621  13.454
44241W        W16567  35.391  40.724   4.138
44242W        W16568  12.901   3.354  13.471
44243W        W16569  30.642   5.299  10.640
44244W        W16570  38.881   4.656  12.117
44245W        W16571  21.656  18.022  14.317
44246W        W16572   6.109  42.054   0.311
44247W        W16573  32.476  21.460   4.186
44248W        W16574  43.323  15.247   4.554
44249W        W16575  17.042  10.865   3.716
44250W        W16576   0.953  21.967  13.060
44251W        W16577  31.650  19.276   2.374
44252W        W16578  24.221  12.419   3.196
44253W        W16579  29.007  21.201   1.274
44254W        W16580  15.417  18.203  13.002
44255W        W16581   8.015   4.512   9.749
44256W        W16582  38.669  14.766  12.309
44257W        W16583  21.775  43.253  14.522
44258W        W16584  32.631  34.382  13.539
44259W        W16585  17.593  30.228  13.278
44260W        W16586  32.641  32.248   0.895
44261W        W16587  28.062  36.056  10.386
44262W        W16588  16.171  29.661   2.710
44263W        W16589  19.011  37.634   1.796
44264W        W16590   1.850   1.261  14.142
44265W        W16591  28.011   2.677   1.727
44266W        W16592  32.360  33.695   4.160
44267W        W16593  21.008  17.238  12.606
44268W        W16594   5.152  42.298  11.720
44269W        W16595  14.242   1.395  14.935
44270W        W16596  41.282  31.960  14.795
44271W        W16597  30.531  20.555  13.461
44272W        W16598  16.748  44.202  12.450
44273W        W16599  16.369  44.316   0.017
44274W        W16600  11.404  26.091   3.339
44275W        W16601   8.792  29.174  13.079
44276W        W16602  37.401  37.306   3.640
44277W        W16603   5.463  13.849   4.755
44278W        W16604  34.561   8.991  11.214
44279W        W16605   6.726  38.508   2.326
44280W        W16606   6.694  44.433   0.424
44281W        W16607   8.646  33.101   3.854
44282W        W16608  22.288  27.234   0.698
44283W        W16609   8.387  44.825   3.850
44284W        W16610  18.812  31.640   3.730
44285W        W16611  18.356  24.645  10.945
44286W        W16612  19.120  36.902   3.731
44287W        W16613  43.101  28.196  12.183
44288W        W16614  14.440   4.787   1.213
44289W        W16615   7.132   4.937   3.331
44290W        W16616  14.166  16.117   2.371
44291W        W16617  19.676  22.147   2.739
44292W        W16618  41.520  34.173   4.797
44293W        W16619  42.429  24.146   4.486
44294W        W16620   5.748   9.382   3.257
44295W        W16621  23.739  15.246   3.283
44296W        W16622  38.320  36.661   1.231
44297W        W16623  14.334  25.998   2.745
44298W        W16624  18.525  38.981   0.835
44299W        W16625  21.219   1.830  12.464
44300W        W16626   1.336  30.463  10.951
44301W        W16627  33.108  44.844  14.780
44302W        W16628  39.866  42.325  11.855
44303W        W16629  39.293  21.937  12.106
44304W        W16630  37.374  44.913   1.405
44305W        W16631  35.998   4.519   1.358
44306W        W16632   2.385  36.026   4.994
44307W        W16633   3.497  26.769   2.847
44308W        W16634  15.836   0.500  10.621
44309W        W16635  16.375  41.924   1.201
44310W        W16636  20.085  31.096  14.339
44311W        W16637   3.372  40.647  12.114
44312W        W16638  26.296  27.564  13.777
44313W        W16639  32.007  22.943  12.542
44314W        W16640  36.485   9.214  11.590
44315W        W16641  14.758  29.139  10.111
44316W        W16642  38.373  27.983   0.384
44317W        W16643  11.387  24.440   1.803
44318W        W16644  18.513  22.729   2.778
44319W        W16645  28.696   0.477   4.088
44320W        W16646  31.033   8.825  13.454
44321W        W16647  33.969  31.518   3.864
44322W        W16648  25.211  13.570   4.226
44323W        W16649  20.158  18.949  13.879
44324W        W16650  43.346  12.169   2.741
44325W        W16651   3.303  39.127   3.294
44326W        W16652  29.881  36.779   0.844
44327W        W16653   4.823  22.285  12.365
44328W        W16654   0.380  38.130  12.128
44329W        W16655  31.968  33.859   2.409
44330W        W16656  32.766  34.779  10.994
44331W        W16657  36.441  34.154  12.631
44332W        W16658   1.291  44.811   2.955
44333W        W16659  23.521  32.190  11.201
44334W        W16660  14.222  12.343  10.426
44335W        W16661  43.730   6.428   1.790
44336W        W16662  26.406  18.324   3.806
44337W        W16663  34.820  40.109  12.906
44338W        W16664  17.505   4.171   2.754
44339W        W16665  20.521  14.579  13.385
44340W        W16666  36.826  14.838   0.880
44341W        W16667   4.949  14.321   1.680
44342W        W16668  32.861  11.191   4.780
44343W        W16669  39.837  24.698  13.942
44344W        W16670  20.566   3.154  14.103
44345W        W16671  37.032  41.029   0.707
44346W        W16672  13.620  32.571   4.891
44347W        W16673  33.156  27.522   2.801
44348W        W16674  22.936   7.280  14.329
44349W        W16675  12.378  10.039  10.824
44350W        W16676  13.667   2.169   0.805
44351W        W16677  35.562  40.172  12.085
44352W        W16678  31.490   5.352  12.208
44353W        W16679  31.591  15.103  13.461
44354W        W16680   3.896  11.324  10.930
44355W        W16681  12.312  19.129  13.165
44356W        W16682  18.476  34.019  12.845
44357W        W16683  27.486  31.359   0.817
44358W        W16684  23.679  20.804   0.314
44359W        W16685  24.056  13.657  12.056
44360W        W16686   7.925  26.122   4.399
44361W        W16687  44.417   6.699   1.715
44362W        W16688  18.584  26.047  13.371
44363W        W16689   9.716  39.271  10.479
44364W        W16690  44.402  12.909   3.935
44365W        W16691  13.551  29.450  13.733
44366W        W16692  40.630  21.752   4.207
44367W        W16693   6.837   4.585  10.317
44368W        W16694  40.585  37.592  12.907
44369W        W16695  14.842   3.540  13.903
44370W        W16696  29.370  39.340   1.802
44371W        W16697   3.961  11.063   0.629
44372W        W16698  24.916   8.949  10.583
44373W        W16699   1.163  44.297   2.981
44374W        W16700   9.179  25.191   4.317
44375W        W16701  43.296   0.454   4.569
44376W        W16702   7.722  19.766   1.749
44377W        W16703   1.959  27.071   0.851
44378W        W16704  43.370  38.678  14.274
44379W        W16705   2.386  24.237  13.948
44380W        W16706  30.528  29.351  13.515
44381W        W16707  35.666  13.239   1.406
44382W        W16708  24.023  30.493  12.578
44383W        W16709   5.206   1.099   3.756
44384W        W16710  12.606  35.729  13.385
44385W        W16711  36.838  32.747  13.175
44386W        W16712  37.531   3.743   3.425
44387W        W16713   4.828   1.652  11.615
44388W        W16714   8.665  26.679  14.797
44389W        W16715  34.257   8.118  14.423
44390W        W16716  34.056  43.552   3.704
44391W        W16717  33.078  43.914  12.450
44392W        W16718  43.723  33.014   1.586
44393W        W16719   4.743  39.778   0.262
44394W        W16720  41.859   3.819  14.411
44395W        W16721   2.873  14.863  13.355
44396W        W16722  38.300  34.506   4.085
44397W        W16723  26.276  31.551   2.790
44398W        W16724  35.411  41.236   4.137
44399W        W16725  11.803  28.090  13.157
44400W        W16726   2.441  43.294  10.710
44401W        W16727  43.024  13.751  13.509
44402W        W16728   1.033  24.910   3.471
44403W        W16729  38.478   3.170  10.536
44404W        W16730  43.038  23.707  12.342
44405W        W16731  26.583  24.576   4.929
44406W        W16732  16.596   3.398  11.553
44407W        W16733   2.545  11.553  12.884
44408W        W16734   7.227   6.879   1.948
44409W        W16735   8.202  21.710   4.436
44410W        W16736  26.155  39.582   3.636
44411W        W16737  30.053  38.515  14.762
44412W        W16738  38.122   1.898   0.268
44413W        W16739   9.417  16.686   1.451
44414W        W16740  23.231  16.173   4.233
44415W        W16741  22.663   3.363  12.052
44416W        W16742  37.489  18.545   0.498
44417W        W16743  24.005  34.991  11.880
44418W        W16744  13.697  33.572  11.504
44419W        W16745  27.969  26.221   9.587
44420W        W16746  15.435  13.117  10.718
44421W        W16747  11.268  30.010  13.420
44422W        W16748  43.470   2.110  14.898
44423W        W16749  29.467  43.808  14.098
44424W        W16750  36.786  31.059   4.214
44425W        W16751  25.247   8.891   4.826
44426W        W16752  37.176   8.819  11.653
44427W        W16753  37.756  32.950  10.662
44428W        W16754  34.416  14.140  12.447
44429W        W16755  15.793  28.114  14.500
44430W        W16756   3.969  28.543  12.149
44431W        W16757  37.848  42.661   0.667
44432W        W16758  12.850  27.441   1.085
44433W        W16759  39.839  40.875   2.372
44434W        W16760  43.375   1.048   3.700
44435W        W16761   9.751  37.772  13.572
44436W        W16762  24.999  19.215   4.582
44437W        W16763   4.774  13.462   3.620
44438W        W16764  35.446   0.373   1.668
44439W        W16765  18.284  16.995  12.450
44440W        W16766  39.417  16.130   2.198
44441W        W16767  26.928  42.962  13.032
44442W        W16768  31.824  35.199   0.405
44443W        W16769   7.846  21.058   4.182
44444W        W16770  35.841   1.784  13.961
44445W        W16771  11.667  19.607   2.670
44446W        W16772   7.108  13.113  12.429
44447W        W16773  34.615   1.839   0.782
44448W        W16774  12.616  37.020   1.528
44449W        W16775   6.715  13.129   0.533
44450W        W16776  38.914  12.426  14.426
44451W        W16777  13.543   5.889  10.400
44452W        W16778  21.660   2.818  14.535
44453W        W16779  27.460  21.981   3.022
44454W        W16780  19.692  43.343   3.806
44455W        W16781  24.935  30.167   3.077
44456W        W16782  22.169  40.492  12.287
44457W        W16783   7.455  34.638  12.016
44458W        W16784   8.945  26.662   4.470
44459W        W16785  31.357  44.436  13.512
44460W        W16786  15.776  31.596   0.364
44461W        W16787  15.857  22.756  12.092
44462W        W16788  11.043  12.055   3.309
44463W        W16789  27.578   9.623   2.794
44464W        W16790  17.584   7.790   4.682
44465W        W16791  20.228  35.362   1.448
44466W        W16792  37.064  19.166  13.348
44467W        W16793  25.262  25.062  12.211
44468W        W16794  40.885  24.970   1.432
44469W        W16795  40.906  18.205  12.888
44470W        W16796  39.584  38.091  10.612
44471W        W16797  35.063  14.694  10.639
44472W        W16798  21.108  35.123   1.895
44473W        W16799  26.792  39.183  10.474
44474W        W16800  35.648   5.502   1.977
44475W        W16801  26.174  42.546  14.334
44476W        W16802   6.667   2.706   4.602
44477W        W16803  28.534  31.069  13.837
44478W        W16804  17.461  33.792  14.411
44479W        W16805   4.846   8.267   3.208
44480W        W16806  10.135   1.080   0.377
44481W        W16807  22.377  25.924  12.023
44482W        W16808  17.334  39.043  10.038
44483W        W16809  40.274  35.624   0.823
44484W        W16810  10.936   5.355  14.494
44485W        W16811   5.712  23.366  13.053
44486W        W16812  20.698   9.891   3.436
44487W        W16813  10.910  37.555   2.258
44488W        W16814   8.849  41.868  12.518
44489W        W16815  37.983  35.588  13.764
44490W        W16816   0.550  30.709   1.235
44491W        W16817   5.202  23.920  10.756
44492W        W16818  16.799   5.789  11.221
44493W        W16819  31.640   1.838   3.717
44494W        W16820   7.284  36.699   2.030
44495W        W16821  31.388  12.319  14.512
44496W        W16822   1.025  10.369   4.339
44497W        W16823  33.684  21.165   0.445
44498W        W16824  18.260  42.539  11.139
44499W        W16825  42.982  29.134  14.923
44500W        W16826   8.668  30.007  13.871
44501W        W16827   6.216  28.079   1.358
44502W        W16828   8.244  41.260   1.688
44503W        W16829  31.593   4.168  10.976
44504W        W16830   6.218  39.431   4.349
44505W        W16831   8.962  31.841   0.068
44506W        W16832  13.171   2.958   0.863
44507W        W16833  16.663  33.907   4.327
44508W        W16834  27.786  25.583   2.768
44509W        W16835  30.896  44.551  12.595
44510W        W16836  33.076  37.930   3.814
44511W        W16837  29.482  33.575   4.537
44512W        W16838  39.330  29.585  11.907
44513W        W16839   5.793  33.511   3.128
44514W        W16840  41.717   3.811  12.601
44515W        W16841  37.783   3.260   1.617
44516W        W16842  30.301  37.081   0.427
44517W        W16843  23.117  42.803   2.482
44518W        W16844   8.890  10.268  10.600
44519W        W16845  27.288   1.729  10.955
44520W        W16846  29.584   2.489   1.789
44521W        W16847   8.339  34.624   3.718
44522W        W16848  32.035  40.370   1.984
44523W        W16849   5.297  32.934  13.867
44524W        W16850  29.506   4.960   0.329
44525W        W16851  25.659  38.305   0.775
44526W        W16852  10.922  43.444   1.584
44527W        W16853  13.087  11.741   5.100
44528W        W16854  30.475  33.989   4.450
44529W        W16855  33.341  33.897  12.342
44530W        W16856  12.817   9.288  12.990
44531W        W16857   7.285  29.537   2.891
44532W        W16858  41.840  27.224   0.911
44533W        W16859  10.764  16.987  13.616
44534W        W16860  31.081  19.311  11.524
44535W        W16861  41.818  14.570  14.019
44536W        W16862   8.734  35.407   0.713
44537W        W16863  10.104  36.058   2.143
44538W        W16864  18.019  31.045   3.846
44539W        W16865  38.854  40.041   3.357
44540W        W16866   0.871   8.416   2.020
44541W        W16867  38.069  41.290  14.795
44542W        W16868  39.870  27.898   4.140
44543W        W16869  26.562   6.360   0.406
44544W        W16870   8.251  22.706  12.437
44545W        W16871   5.951   7.925   3.058
44546W        W16872  21.080   2.348   2.908
44547W        W16873   3.854  34.479   2.641
44548W        W16874  22.984  22.271   0.277
44549W        W16875  24.826  30.504  14.445
44550W        W16876  30.996  24.672  14.356
44551W        W16877  38.951  20.782  12.046
44552W        W16878  40.785  42.974  12.442
44553W        W16879  14.594   0.950  14.315
44554W        W16880  32.844   9.093   3.104
44555W        W16881  32.979  40.000  12.481
44556W        W16882  10.078  11.768   1.784
44557W        W16883  18.930   4.453  14.041
44558W        W16884  14.048  44.367  13.002
44559W        W16885  17.215   6.230  12.933
44560W        W16886   5.042  35.617  13.756
44561W        W16887  13.712  29.366  12.761
44562W        W16888  23.655   3.709  11.247
44563W        W16889  43.049   8.600   5.177
44564W        W16890   4.702   1.811  11.138
44565W        W16891  13.318  33.921   2.234
44566W        W16892  16.151  30.995  14.452
44567W        W16893  39.802   7.663   0.836
44568W        W16894  22.834  19.617  12.674
44569W        W16895  40.583  29.239  11.960
44570W        W16896  20.123  38.222   0.880
44571W        W16897  17.665   5.365   2.260
44572W        W16898   6.231  40.094  11.179
44573W        W16899   0.277  21.552  13.526
44574W        W16900   8.907   4.695   4.529
44575W        W16901  24.273  41.740  12.935
44576W        W16902   6.759  17.140  14.752
44577W        W16903  29.561  20.851   1.415
44578W        W16904  18.834  11.823   4.596
44579W        W16905  22.510  20.229   0.562
44580W        W16906  16.587  42.530  11.772
44581W        W16907  36.123  19.025   4.164
44582W        W16908  44.887  38.700   1.786
44583W        W16909  22.054  42.023   2.586
44584W        W16910  44.546  35.104  14.376
44585W        W16911  10.573   3.630  11.566
44586W        W16912   0.898  31.714  11.086
44587W        W16913   1.236  15.619  11.701
44588W        W16914  16.325  37.491   4.245
44589W        W16915  39.806  30.634   1.071
44590W        W16916  23.499  14.560  11.573
44591W        W16917  34.693  36.928  12.091
44592W        W16918  15.129  43.690  12.314
44593W        W16919  10.756  12.543  13.045
44594W        W16920  27.945  44.997  11.494
44595W        W16921  29.538  13.319   1.753
44596W        W16922  31.520  25.999  10.724
44597W        W16923  30.659  12.793  14.843
44598W        W16924   6.965  38.126  13.960
44599W        W16925  31.210  39.850   1.890
44600W        W16926   8.286   4.301   4.052
44601W        W16927  37.907  36.641  11.027
44602W        W16928  26.723  13.285   2.227
44603W        W16929   7.349  20.774   4.172
44604W        W16930  41.833  22.155  11.942
44605W        W16931  28.822  13.000  10.860
44606W        W16932  19.570  21.050   3.156
44607W        W16933  31.492   2.962  14.072
44608W        W16934  10.849   1.394  12.472
44609W        W16935  37.955  28.684  13.546
44610W        W16936  26.638   1.577   3.731
44611W        W16937  25.556  16.684   2.713
44612W        W16938  10.443  27.158  13.830
44613W        W16939  34.593   2.873  14.998
44614W        W16940  17.807  36.535   0.882
44615W        W16941  23.301  36.634  11.500
44616W        W16942   6.335   7.420  11.785
44617W        W16943  18.671  12.585   4.120
44618W        W16944  42.778  31.764   1.062
44619W        W16945   9.867  13.119   0.242
44620W        W16946   4.753  35.116  12.920
44621W        W16947  32.654  28.158   1.256
44622W        W16948  37.915  43.932  12.828
44623W        W16949  35.994  24.273   2.678
44624W        W16950  20.621   8.769   2.648
44625W        W16951  21.310  11.793   0.021
44626W        W16952  41.784  26.778   1.848
44627W        W16953  35.576  41.871   2.443
44628W        W16954  38.051  30.553   0.019
44629W        W16955  20.642  27.629  14.164
44630W        W16956  36.109  41.294  14.839
44631W        W16957  25.808   6.335   4.439
44632W        W16958   1.379  15.202   4.092
44633W        W16959  40.087  42.522   4.063
44634W        W16960   5.071  41.613  13.597
44635W        W16961   1.478  10.417  14.894
44636W        W16962  40.920   5.420  11.783
44637W        W16963  18.289  19.097   1.222
44638W        W16964  13.997   4.558  13.985
44639W        W16965  16.175   5.614  10.993
44640W        W16966  40.112  35.383   1.832
44641W        W16967  27.690  23.720  11.554
44642W        W16968  19.938  22.581   2.713
44643W        W16969  23.129  18.836   4.618
44644W        W16970  43.725  29.515   1.619
44645W        W16971  43.389  12.321   1.837
44646W        W16972   6.339   7.690   3.786
44647W        W16973  21.129  26.461  13.142
44648W        W16974  11.120  13.299   4.331
44649W        W16975  34.281   4.290   2.279
44650W        W16976  18.351  18.040  11.549
44651W        W16977  21.258  37.317  12.143
44652W        W16978  41.052  12.193  11.361
44653W        W16979  21.664  11.664   4.049
44654W        W16980  19.588  35.452   0.312
44655W        W16981  22.792  17.081   0.703
44656W        W16982  39.227  40.082   2.319
44657W        W16983  11.886  39.076  13.938
44658W        W16984   3.584  21.396   4.557
44659W        W16985  22.633  36.342  12.825
44660W        W16986  35.387  37.830  11.373
44661W        W16987   3.824   1.923  11.679
44662W        W16988  30.124  22.410  11.003
44663W        W16989  43.359   2.444  14.510
44664W        W16990  32.238  44.876  10.787
44665W        W16991   0.233   9.813   4.640
44666W        W16992  29.591  20.689   0.456
44667W        W16993  28.353  42.939  12.076
44668W        W16994   8.586   8.880  12.485
44669W        W16995  44.106  29.451  14.317
44670W        W16996  23.577  16.541  14.334
44671W        W16997  30.111  44.885  10.845
44672W        W16998  18.166  35.071   2.844
44673W        W16999  28.215  10.710  10.456
44674W        W17000  26.203  27.563   1.456
44675W        W17001  44.379  37.503  11.148
44676W        W17002  35.821  35.655  14.821
44677W        W17003  30.566   7.539  13.794
44678W        W17004  29.165  21.809  14.345
44679W        W17005  39.313  42.341  13.135
44680W        W17006  39.619  34.602   4.494
44681W        W17007  30.929  19.132  12.001
44682W        W17008  33.093  26.507   1.687
44683W        W17009  18.291   6.203  14.351
44684W        W17010  34.802  12.035   1.747
44685W        W17011  16.063  25.936  12.372
44686W        W17012  44.561   4.016   1.804
44687W        W17013   9.625   2.828  12.240
44688W        W17014   6.392  19.197   3.529
44689W        W17015  13.683  12.607  12.491
44690W        W17016  25.045   8.757   3.762
44691W        W17017  32.539  43.279   0.041
44692W        W17018  16.191  26.925  11.062
44693W        W17019  42.053  42.714   3.718
44694W        W17020   6.950  18.600  12.120
44695W        W17021  27.995  33.159  12.999
44696W        W17022   1.104  14.508  11.230
44697W        W17023   3.314   4.418   1.158
44698W        W17024  24.085  31.950   4.524
44699W        W17025  38.641  21.621  11.576
44700W        W17026  12.790   9.779  11.587
44701W        W17027   2.295  20.773   5.048
44702W        W17028  21.694  22.067  13.114
44703W        W17029  18.440  30.052  11.673
44704W        W17030  38.755   2.856   2.416
44705W        W17031   4.715  36.402  13.160
44706W        W17032  43.350  21.104   1.849
44707W        W17033   3.243   6.953   3.253
44708W        W17034  27.901  20.800   1.486
44709W        W17035  42.248  12.258   1.797
44710W        W17036  23.453  20.863   0.785
44711W        W17037  37.967  34.281   1.353
44712W        W17038  20.955  13.103  14.450
44713W        W17039   6.981  27.097   2.594
44714W        W17040  23.075   5.695   0.905
44715W        W17041  33.059  12.261   4.661
44716W        W17042   9.144  31.061  11.119
44717W        W17043   9.617   8.211   4.126
44718W        W17044  26.597  12.120  11.846
44719W        W17045  37.994  44.943   0.524
44720W        W17046   0.549  19.210   3.231
44721W        W17047  27.046  36.468   1.406
44722W        W17048  32.963  18.791  13.754
44723W        W17049  22.527  31.004  12.862
44724W        W17050  16.087  34.014   3.575
44725W        W17051   5.533  23.917  13.074
44726W        W17052  16.854  24.751   2.742
44727W        W17053  36.951  39.804   4.334
44728W        W17054  16.659  41.375  14.069
44729W        W17055  17.575  11.161   1.236
44730W        W17056  20.642  17.640  14.161
44731W        W17057   6.391  31.963  12.085
44732W        W17058  37.257  31.380  11.659
44733W        W17059  40.594  15.833  13.935
44734W        W17060  42.320  30.444   0.371
44735W        W17061  15.636   7.836   1.918
44736W        W17062   0.793   9.712  11.693
44737W        W17063  43.790   9.683  12.915
44738W        W17064  29.950  22.688   4.592
44739W        W17065  33.012  44.299  13.796
44740W        W17066   3.964   8.485   3.600
44741W        W17067  41.757  23.682   1.122
44742W        W17068  44.393  38.966   0.166
44743W        W17069  37.878   5.006   1.394
44744W        W17070  41.883  32.209   5.000
44745W        W17071   2.194  40.817   2.796
44746W        W17072  42.014   5.990  14.882
44747W        W17073  39.633  13.694   4.525
44748W        W17074   5.422  21.160   4.411
44749W        W17075   2.209  21.992   0.321
44750W        W17076   6.927  19.177  12.812
44751W        W17077   6.650   6.192   2.824
44752W        W17078   2.520   1.881  12.971
44753W        W17079  12.049   3.233   1.159
44754W        W17080   0.686   2.408  12.053
44755W        W17081  33.251  30.055  11.863
44756W        W17082  42.090  18.654   5.015
44757W        W17083  41.936  32.080   4.058
44758W        W17084  12.732   5.988  10.993
44759W        W17085   3.718   2.506   1.730
44760W        W17086  20.045  23.916   1.781
44761W        W17087   0.837  29.272  13.187
44762W        W17088  33.864   5.695  14.411
44763W        W17089  17.560  21.593  12.782
44764W        W17090   1.753   2.369   9.781
44765W        W17091  30.674  18.215   0.034
44766W        W17092  39.438  42.965  12.339
44767W        W17093  19.017  35.926   4.189
44768W        W17094  44.746  39.770  11.427
44769W        W17095  19.245   8.399   4.083
44770W        W17096  14.335   9.888   1.329
44771W        W17097  39.485  30.410   5.040
44772W        W17098  40.627  15.536   3.659
44773W        W17099  38.342  25.035  14.908
44774W        W17100  26.554  22.099   0.370
44775W        W17101  26.455  44.875  11.696
44776W        W17102  31.075  35.602  14.996
44777W        W17103  41.002  22.570   4.054
44778W        W17104   5.702  21.025   0.382
44779W        W17105   8.397  31.966  10.843
44780W        W17106   5.174  22.132  14.796
44781W        W17107  27.712  26.627   4.094
44782W        W17108  39.278  29.438  12.390
44783W        W17109   9.156  41.847   2.124
44784W        W17110  13.237   5.021  10.318
44785W        W17111  20.695  13.769  12.312
44786W        W17112  23.997  21.652   3.953
44787W        W17113  28.932  38.571   4.691
44788W        W17114  20.533  30.177   2.689
44789W        W17115   7.218  32.982  13.392
44790W        W17116  32.726  16.793   2.814
44791W        W17117  42.878  33.988  11.698
44792W        W17118   9.641  43.538   1.728
44793W        W17119  40.390  13.217  10.924
44794W        W17120  13.562  34.592   0.882
44795W        W17121  41.457  16.588   1.399
44796W        W17122  21.881  21.296  14.413
44797W        W17123  30.471   1.338   4.521
44798W        W17124  20.631  17.663  11.620
44799W        W17125  24.228   7.634   2.258
44800W        W17126  32.408   8.214  14.962
44801W        W17127  27.879  13.082  13.426
44802W        W17128   4.575  36.486   1.462
44803W        W17129  32.171  24.106  11.607
44804W        W17130   5.492  22.589  14.916
44805W        W17131  30.925   1.190  11.592
44806W        W17132  17.793  18.490  11.027
44807W        W17133  29.616  19.851   2.837
44808W        W17134   7.830  19.142   3.884
44809W        W17135  20.305  26.349  12.668
44810W        W17136  12.036  19.825  13.537
44811W        W17137   2.026  26.423   1.916
44812W        W17138   1.422  40.486  14.803
44813W        W17139  12.404  39.048  13.927
44814W        W17140  40.330  43.812   2.761
44815W        W17141   5.352   4.824   4.819
44816W        W17142  30.887  18.088   1.954
44817W        W17143  40.411  34.804  12.173
44818W        W17144  38.389   1.632   1.335
44819W        W17145   7.665   7.869   4.728
44820W        W17146  32.720  17.587  14.380
44821W        W17147  28.436  43.812  11.965
44822W        W17148  13.433  35.949   2.772
44823W        W17149  31.544  17.436  12.704
44824W        W17150   6.646  25.754   4.174
44825W        W17151  14.190  11.428   4.093
44826W        W17152  24.465  44.581  12.374
44827W        W17153  18.075  24.262  10.651
44828W        W17154  22.759  39.504  12.865
44829W        W17155  10.871  13.724   2.070
44830W        W17156   0.180  43.808   2.212
44831W        W17157  39.330  23.795  13.945
44832W        W17158  20.989  19.166   2.392
44833W        W17159  11.733  21.979  10.785
44834W        W17160  38.371  33.670   0.284
44835W        W17161  22.988  44.965  13.523
44836W        W17162  28.962  29.610   3.322
44837W        W17163   8.449  30.036   0.797
44838W        W17164  10.702  24.104   4.086
44839W        W17165   2.383  22.755   3.173
44840W        W17166  38.332  42.867  14.529
44841W        W17167  13.936  21.678  12.830
44842W        W17168  33.199  13.206   4.829
44843W        W17169  37.385   1.436  14.711
44844W        W17170   7.909   7.756  13.614
44845W        W17171  25.919   8.830  10.512
44846W        W17172  23.455  11.210  12.711
44847W        W17173  32.403  10.274  10.561
44848W        W17174  22.490  19.625   1.701
44849W        W17175  25.560  10.622   2.229
44850W        W17176  11.832   0.777   1.234
44851W        W17177   0.734   5.789   1.492
44852W        W17178  24.518  32.587   4.094
44853W        W17179   9.741  35.106   0.650
44854W        W17180  10.262   3.436   1.940
44855W        W17181  12.371  26.675  11.827
44856W        W17182   6.833  18.343   3.150
44857W        W17183   3.269  37.810   3.647
44858W        W17184  36.930   1.503   3.667
44859W        W17185  26.685   0.066   1.202
44860W        W17186  30.516  19.343  12.911
44861W        W17187  35.649  37.982  14.420
44862W        W17188   7.838  35.395   0.417
44863W        W17189  27.560  30.724  14.747
44864W        W17190   4.525   8.047   1.437
44865W        W17191  11.741  21.774  12.047
44866W        W17192  29.618  44.458   4.222
44867W        W17193  34.581  20.075  13.869
44868W        W17194  43.020  31.441   0.012
44869W        W17195  22.656  39.331   3.805
44870W        W17196  22.743  38.123   0.679
44871W        W17197  35.009  32.468   0.318
44872W        W17198  37.000  19.986  13.208
44873W        W17199   4.184  17.920   3.423
44874W        W17200  28.620   8.690   0.935
44875W        W17201  25.410  12.157  11.030
44876W        W17202   9.385  23.662  13.407
44877W        W17203  38.919  44.830   1.710
44878W        W17204   6.197  30.456   2.700
44879W        W17205  29.847  10.468   2.660
44880W        W17206  13.401  13.682   2.629
44881W        W17207  27.476  24.930  14.931
44882W        W17208  17.023  33.681  13.482
44883W        W17209  11.854   9.924   3.775
44884W        W17210  14.308  29.718  12.452
44885W        W17211   5.298  30.134  11.531
44886W        W17212  32.926  11.415  12.782
44887W        W17213  15.794  11.365   3.137
44888W        W17214  33.062  16.782   2.365
44889W        W17215  41.573  26.519   3.331
44890W        W17216  20.516  17.625   0.510
44891W        W17217   4.501  24.486  14.922
44892W        W17218  37.351   4.375  14.066
44893W        W17219  15.631  15.605  11.706
44894W        W17220   0.910   7.958  14.859
44895W        W17221   8.163  31.182  14.669
44896W        W17222  14.288  26.159  12.883
44897W        W17223  41.655   1.358   3.199
44898W        W17224  30.212  29.664  12.025
44899W        W17225  20.701  36.476  11.583
44900W        W17226  33.555  36.501   4.158
44901W        W17227   2.174  11.046  14.973
44902W        W17228   9.348  23.487   4.178
44903W        W17229   1.863  25.162   0.632
44904W        W17230   9.221  30.133   3.631
44905W        W17231  17.629   9.248   2.196
44906W        W17232  43.046  25.351  11.903
44907W        W17233  12.665  34.908  11.896
44908W        W17234  27.982  38.262   0.989
44909W        W17235  20.521  39.763  11.130
44910W        W17236   8.352  18.734  14.472
44911W        W17237   4.519  23.122   9.951
44912W        W17238  25.160  26.401   4.728
44913W        W17239   3.499  25.668   2.363
44914W        W17240  12.818  25.835  13.826
44915W        W17241  23.610   3.761  10.748
44916W        W17242  30.227  21.199   3.726
44917W        W17243  10.191  15.577   0.819
44918W        W17244  23.173   7.796   1.339
44919W        W17245  17.154  10.757  12.817
44920W        W17246  38.122  37.321  14.121
44921W        W17247  35.908  25.984   3.377
44922W        W17248   2.513  29.262  10.514
44923W        W17249  29.051   9.789   4.035
44924W        W17250  22.229  30.950   1.384
44925W        W17251   2.070  28.310  14.067
44926W        W17252  38.460  35.109   0.481
44927W        W17253   0.681  14.737  11.022
44928W        W17254  20.151  17.255  12.615
44929W        W17255  36.367  37.902  11.542
44930W        W17256   9.661  12.479   2.207
44931W        W17257  35.107  34.938   2.410
44932W        W17258  24.085  17.760  10.229
44933W        W17259  25.290  43.667  13.025
44934W        W17260   2.887   1.506  12.029
44935W        W17261  34.657   3.277  12.525
44936W        W17262  29.887  15.085   3.595
44937W        W17263  40.634   9.122   3.493
44938W        W17264   3.272  33.424  10.519
44939W        W17265  22.309  12.806  13.975
44940W        W17266   8.922  32.654   3.787
44941W        W17267  22.442   3.639   4.442
44942W        W17268  42.336  24.502   1.821
44943W        W17269  28.565  16.445  11.492
44944W        W17270  40.732  33.275  10.691
44945W        W17271  30.765   2.672  12.607
44946W        W17272  14.569  19.249   2.305
44947W        W17273  21.770  16.088  10.882
44948W        W17274  13.564  24.525  13.050
44949W        W17275   4.362  29.559   4.527
44950W        W17276  27.533  10.442   4.617
44951W        W17277  11.352  36.860   0.770
44952W        W17278  41.298   9.684   2.465
44953W        W17279   2.469  17.871   1.338
44954W        W17280  42.955  21.646  11.712
44955W        W17281  37.364  37.842   1.998
44956W        W17282  23.100  19.302  14.295
44957W        W17283  19.721   6.930  10.876
44958W        W17284  28.724  34.874   1.779
44959W        W17285  30.779  13.050  13.726
44960W        W17286   3.971   7.177   4.143
44961W        W17287  27.980  21.564   0.695
44962W        W17288   1.461  34.568   0.274
44963W        W17289  41.921  37.417  11.170
44964W        W17290  26.215  17.663  12.543
44965W        W17291  34.022  40.537  11.594
44966W        W17292  25.685   4.492   0.303
44967W        W17293  27.022  15.291  13.995
44968W        W17294  31.944   2.871   2.236
44969W        W17295   8.162  17.704   0.833
44970W        W17296  28.193  23.215  14.963
44971W        W17297  20.119  32.885  11.608
44972W        W17298  20.839   1.466  12.388
44973W        W17299  15.183  18.526  13.409
44974W        W17300  36.491   6.721   3.617
44975W        W17301  34.431  14.788  11.669
44976W        W17302  14.521  33.039  12.936
44977W        W17303   8.680  24.066  14.007
44978W        W17304  38.393  36.158   1.330
44979W        W17305  14.474   1.927   2.170
44980W        W17306   5.385  20.605  11.198
44981W        W17307  15.253  16.253   1.742
44982W        W17308  42.169  14.190   4.754
44983W        W17309   2.947  15.147   0.426
44984W        W17310  39.929  20.863  12.977
44985W        W17311  19.952  22.420  13.995
44986W        W17312  43.218   9.551  11.579
44987W        W17313  41.044  10.090  10.606
44988W        W17314   7.202   5.924   3.910
44989W        W17315  32.989  28.537  12.909
44990W        W17316  44.941   8.969  12.931
44991W        W17317  35.061   5.408  13.855
44992W        W17318  31.182  26.372  10.776
44993W        W17319  30.871  19.201   2.852
44994W        W17320  14.368   1.644  12.164
44995W        W17321  28.089   5.721  12.510
44996W        W17322  32.349   2.364   1.835
44997W        W17323   1.535  23.128  11.418
44998W        W17324  14.357  18.671   3.200
44999W        W17325  38.756  38.362  12.042
45000W        W17326  44.906  18.246   0.694
45001W        W17327  25.100  28.279  14.281
45002W        W17328  22.430   7.161  14.282
45003W        W17329   8.195   7.001  12.585
45004W        W17330   2.420  28.544   2.485
45005W        W17331  25.045  30.690   3.260
45006W        W17332  42.071  23.710  11.957
45007W        W17333  38.673  16.235  14.006
45008W        W17334  37.836  42.244   4.230
45009W        W17335  11.706  23.770   0.011
45010W        W17336  36.656  27.158   1.663
45011W        W17337  21.120  34.227  12.296
45012W        W17338   6.267  28.540   4.398
45013W        W17339   1.366   1.329   0.396
45014W        W17340   5.775  43.449  12.189
45015W        W17341  31.895  30.220  11.607
45016W        W17342  44.235   9.651   4.836
45017W        W17343  39.495  33.057  12.888
45018W        W17344   9.144   9.837  10.668
45019W        W17345  37.599  10.213   4.306
45020W        W17346  41.787  21.634   0.678
45021W        W17347  44.494   0.106   0.352
45022W        W17348  28.132  35.576   1.791
45023W        W17349  33.211  27.222   3.283
45024W        W17350  28.400  11.692   2.711
45025W        W17351  16.547  15.429   3.132
45026W        W17352  31.142   5.245   2.159
45027W        W17353  31.437  39.503  12.593
45028W        W17354  19.443  15.029  13.253
45029W        W17355  37.798  43.232  13.116
45030W        W17356  35.407  28.478  14.137
45031W        W17357  26.190   2.007  13.147
45032W        W17358  30.192  25.297   2.767
45033W        W17359   0.288  10.480   4.614
45034W        W17360   6.786  40.525  11.397
45035W        W17361  44.897  33.017  11.031
45036W        W17362  18.584  28.864  10.682
45037W        W17363  10.321  22.134  10.043
45038W        W17364   8.824  32.734  10.548
45039W        W17365  43.426  11.220   1.414
45040W        W17366  30.634  30.526   2.472
45041W        W17367   1.957  37.032   1.923
45042W        W17368  14.844  38.146  11.204
45043W        W17369  17.583  19.094  12.989
45044W        W17370  29.521  25.915   3.781
45045W        W17371  39.063  34.905  12.612
45046W        W17372  40.914  36.695   3.382
45047W        W17373  29.058   3.411  13.020
45048W        W17374   6.813  43.319  14.826
45049W        W17375  31.417  44.026   0.016
45050W        W17376  23.662   5.622  11.486
45051W        W17377  13.962  19.264   1.666
45052W        W17378  16.683   5.155  14.286
45053W        W17379  16.088   8.785   3.328
45054W        W17380  40.908  17.740  13.171
45055W        W17381   9.700  44.699   1.236
45056W        W17382   7.774  44.354  12.033
45057W        W17383  35.650  36.043   0.924
45058W        W17384  26.427  16.453  14.345
45059W        W17385  30.826  28.759   3.243
45060W        W17386  24.475  13.969   9.912
45061W        W17387  29.330  43.946   2.511
45062W        W17388  12.071  16.898  12.327
45063W        W17389  25.465  39.751   4.181
45064W        W17390  21.512  11.634  11.079
45065W        W17391  30.376  20.545   1.804
45066W        W17392  17.366  38.394   2.430
45067W        W17393  39.743  40.050   2.298
45068W        W17394  44.755   0.327   2.221
45069W        W17395  44.839  11.247   2.688
45070W        W17396  34.336  43.241   3.387
45071W        W17397   9.905   0.255  13.352
45072W        W17398  32.091   6.410   1.446
45073W        W17399  27.502  34.038   2.855
45074W        W17400  20.498  41.927   4.232
45075W        W17401  18.025  29.481  13.109
45076W        W17402  16.085  21.484  13.284
45077W        W17403  41.423  43.286  13.912
45078W        W17404  44.891  31.408  14.193
45079W        W17405  41.875  37.341   2.615
45080W        W17406  20.671  24.450   4.220
45081W        W17407  32.380  43.849   3.663
45082W        W17408  44.969  14.346  14.797
45083W        W17409  26.641  11.562  10.208
45084W        W17410  29.996  34.851  14.827
45085W        W17411  18.099  23.419   0.252
45086W        W17412   6.478  24.952  14.427
45087W        W17413  10.475  26.587   4.553
45088W        W17414  44.443   5.797  13.491
45089W        W17415  44.930  15.112   2.128
45090W        W17416  21.497  34.811   4.209
45091W        W17417  27.950  30.642   2.868
45092W        W17418  36.453  40.293  11.128
45093W        W17419   2.273  31.003   3.323
45094W        W17420  37.989  44.257  13.248
45095W        W17421  15.776  14.681  10.369
45096W        W17422  26.267  42.934   4.600
45097W        W17423   0.592  42.907   1.290
45098W        W17424  43.477  44.980  14.582
45099W        W17425   9.635  34.046  14.080
45100W        W17426  36.536  33.358  11.604
45101W        W17427  26.032  41.840  14.962
45102W        W17428  12.255  19.321   3.818
45103W        W17429  18.580  37.096  10.872
45104W        W17430  41.065  39.100   4.216
45105W        W17431  39.602  39.977   0.940
45106W        W17432   9.111  31.565   1.243
45107W        W17433  18.300  20.705   4.637
45108W        W17434  35.203  34.529  13.388
45109W        W17435   8.117  18.267  14.489
45110W        W17436  44.905  18.819   3.187
45111W        W17437   8.721  16.120   3.167
45112W        W17438  15.642  22.745   3.712
45113W        W17439  27.544  40.504   2.633
45114W        W17440  44.324  35.064  13.318
45115W        W17441   0.886  21.601   4.782
45116W        W17442  25.003   3.903   1.791
45117W        W17443  10.767  29.584   1.338
45118W        W17444   3.327  13.295  14.499
45119W        W17445  39.092  14.718   3.174
45120W        W17446  29.893  36.884   1.742
45121W        W17447  42.383   2.734   3.267
45122W        W17448  11.870  23.566   4.617
45123W        W17449  38.065  30.178   0.954
45124W        W17450  17.333  10.775  13.364
45125W        W17451  11.245  22.196   2.668
45126W        W17452  39.929  26.042   1.101
45127W        W17453  27.803   9.146   2.703
45128W        W17454  15.580  10.472   0.402
45129W        W17455  19.158  30.668   3.056
45130W        W17456   9.260  11.698  14.866
45131W        W17457  10.309  39.834  11.145
45132W        W17458   8.760  14.045  11.038
45133W        W17459   8.159  19.424  13.425
45134W        W17460   2.171  35.950   1.335
45135W        W17461  13.083   6.405  12.459
45136W        W17462  34.015  19.061  11.732
45137W        W17463  40.775  19.562  14.476
45138W        W17464  37.831   3.207  12.475
45139W        W17465  39.273  16.632   3.787
45140W        W17466  21.644  42.946   2.133
45141W        W17467  16.841  15.841   3.143
45142W        W17468   1.420   5.158  10.557
45143W        W17469  24.316  43.216   4.339
45144W        W17470  36.456  21.518  14.449
45145W        W17471  17.198   4.516  14.269
45146W        W17472   8.640  27.206  11.880
45147W        W17473  18.829  15.187  11.085
45148W        W17474  25.704   2.239  11.534
45149W        W17475   3.248  11.250  12.544
45150W        W17476  23.315  27.690   3.180
45151W        W17477  29.193  41.736   3.752
45152W        W17478  35.042  26.507   3.183
45153W        W17479  29.081  16.791   0.437
45154W        W17480  10.778  25.085  14.273
45155W        W17481  35.360   5.976   4.120
45156W        W17482   9.577  17.295  13.470
45157W        W17483  38.018  26.929   4.044
45158W        W17484  20.567  37.374  12.468
45159W        W17485   4.183  11.890   5.587
45160W        W17486   8.238  36.178  14.620
45161W        W17487  40.419  23.374  10.077
45162W        W17488   8.312   4.864  12.574
45163W        W17489  29.275  34.402   4.161
45164W        W17490  23.054   5.385  10.707
45165W        W17491   5.305   9.080   4.452
45166W        W17492  31.729  41.538   1.899
45167W        W17493  43.348  34.898   2.082
45168W        W17494  30.338  11.074   0.500
45169W        W17495  38.591  33.609  11.708
45170W        W17496  35.204  33.152   3.833
45171W        W17497  13.296  35.477   1.607
45172W        W17498  39.801  16.346   0.691
45173W        W17499  24.647  26.925   2.743
45174W        W17500   3.627   0.304  11.994
45175W        W17501  23.035  18.031   0.817
45176W        W17502  23.615  30.572   1.431
45177W        W17503  38.493  23.268  13.077
45178W        W17504  21.174  38.115  12.500
45179W        W17505  26.418  17.657  11.572
45180W        W17506   5.190  16.383   0.896
45181W        W17507  21.958  27.734   3.588
45182W        W17508  16.856  10.256   2.670
45183W        W17509  25.505  41.487   1.169
45184W        W17510  23.047   8.674   4.212
45185W        W17511  30.667  42.943   0.800
45186W        W17512  22.733  35.585  13.553
45187W        W17513  39.946  19.315   0.817
45188W        W17514   0.746  26.196   2.385
45189W        W17515  18.657  32.911   1.517
45190W        W17516  15.302  42.081   2.086
45191W        W17517  35.356  36.833  13.807
45192W        W17518  16.616   3.190  13.421
45193W        W17519   6.242  18.673  12.333
45194W        W17520  12.221  17.824  14.438
45195W        W17521  33.684  40.939  12.928
45196W        W17522  16.141  41.376   2.901
45197W        W17523  36.311   4.498   2.821
45198W        W17524  24.339  11.948  11.568
45199W        W17525  13.208  27.084  11.386
45200W        W17526   2.315  38.495   0.365
45201W        W17527  15.249  24.739   3.611
45202W        W17528  26.218  43.084  14.607
45203W        W17529  22.575  27.055  14.584
45204W        W17530  38.744  23.604   4.168
45205W        W17531  15.802   3.830  11.548
45206W        W17532  21.793  12.614   0.916
45207W        W17533   5.737  32.421  10.729
45208W        W17534  16.094  44.402   4.605
45209W        W17535  27.943   1.436   5.086
45210W        W17536  30.876  23.660  10.506
45211W        W17537  23.091  24.585  10.800
45212W        W17538  23.479   9.349  12.006
45213W        W17539  44.393  15.195  12.126
45214W        W17540  18.281  42.322  12.683
45215W        W17541  19.657  19.776  12.548
45216W        W17542  15.351  22.692   4.559
45217W        W17543  19.217  41.894  12.344
45218W        W17544  11.441  37.607  12.040
45219W        W17545  40.328  34.071  12.842
45220W        W17546  36.449  36.416  13.609
45221W        W17547   3.896  25.738   4.177
45222W        W17548  35.076  14.332   5.180
45223W        W17549  12.801  40.990   2.658
45224W        W17550  17.994  22.952   3.920
45225W        W17551  21.681  27.954  14.460
45226W        W17552  26.614  40.961  12.559
45227W        W17553  43.935   4.290   3.808
45228W        W17554  23.985  37.117   4.213
45229W        W17555  41.006   8.803  13.933
45230W        W17556  15.760   6.265  13.976
45231W        W17557  28.886  39.429  13.524
45232W        W17558  33.385  15.245   2.685
45233W        W17559  39.359   8.446   0.868
45234W        W17560  16.210   3.888   4.537
45235W        W17561  10.588  40.403  14.810
45236W        W17562  37.338   5.473   1.940
45237W        W17563   8.646   4.354  13.877
45238W        W17564   0.471  30.850  11.105
45239W        W17565  12.059  43.058   0.736
45240W        W17566  41.903  41.277  11.304
45241W        W17567   5.409  21.738   0.193
45242W        W17568  26.973  35.036   1.328
45243W        W17569   9.248  11.840  12.905
45244W        W17570  11.348  17.530  14.037
45245W        W17571  19.006  38.243   2.704
45246W        W17572  24.286  30.104  14.736
45247W        W17573   1.305  24.697   1.364
45248W        W17574  23.192   3.133   1.760
45249W        W17575  25.557   5.812  10.664
45250W        W17576   7.191   1.256   4.323
45251W        W17577   7.485   6.914  14.862
45252W        W17578  12.074  27.409  13.036
45253W        W17579  25.758  33.625  10.274
45254W        W17580  27.531  20.197  14.543
45255W        W17581   7.623   5.624   4.161
45256W        W17582  32.375  31.011  11.529
45257W        W17583  42.015  14.804   0.779
45258W        W17584  36.980  19.807   2.842
45259W        W17585  44.899   0.672  14.123
45260W        W17586   1.053  10.295  11.546
45261W        W17587  21.063  30.430   1.493
45262W        W17588  24.209  27.121   3.977
45263W        W17589  15.173   5.768  12.916
45264W        W17590  13.128  31.207   4.306
45265W        W17591   3.201  30.776   2.665
45266W        W17592  33.458  42.790   3.469
45267W        W17593  41.707   2.272  13.447
45268W        W17594   8.886  33.518   4.091
45269W        W17595  35.471   6.752   2.578
45270W        W17596  34.081  26.026   0.886
45271W        W17597  19.290   8.649  10.786
45272W        W17598   4.105  18.795   4.105
45273W        W17599  17.494  43.922  14.745
45274W        W17600   9.347  26.395   1.306
45275W        W17601  38.523  36.083  13.400
45276W        W17602  29.635  21.691   2.395
45277W        W17603  25.227   9.680   0.229
45278W        W17604  25.013  22.527   1.293
45279W        W17605  44.903  43.847  12.550
45280W        W17606   1.809   4.119   3.874
45281W        W17607  36.282  33.386  12.604
45282W        W17608   8.674  33.375  14.048
45283W        W17609   1.277  22.630  10.566
45284W        W17610  29.331  10.134   0.251
45285W        W17611   8.180  16.776  13.481
45286W        W17612   4.380   4.992  13.943
45287W        W17613   4.698  17.935   4.153
45288W        W17614  13.046   6.866  12.982
45289W        W17615  41.351  42.816  10.974
45290W        W17616  40.274  25.201   1.789
45291W        W17617   6.451  30.570  14.971
45292W        W17618  31.652   4.679   3.223
45293W        W17619  22.062  35.315  14.545
45294W        W17620  40.596   6.822   0.565
45295W        W17621  34.122  21.174   1.348
45296W        W17622   7.265  43.295  11.109
45297W        W17623  31.009   2.879   0.969
45298W        W17624  40.862   9.148   4.873
45299W        W17625  18.233  38.370   0.746
45300W        W17626   3.384  29.611  13.424
45301W        W17627  13.272   2.259  13.412
45302W        W17628  18.459  27.487   1.464
45303W        W17629  35.949   2.171  11.404
45304W        W17630   4.018  37.719   0.226
45305W        W17631  18.313  33.120  13.384
45306W        W17632  16.971  35.627  13.974
45307W        W17633  39.101   7.447   1.695
45308W        W17634   1.995  41.484  10.730
45309W        W17635   4.332  16.863   3.738
45310W        W17636   4.748  15.208   4.332
45311W        W17637  13.769  22.533  12.574
45312W        W17638  28.957   8.921   1.288
45313W        W17639  38.343  15.102  13.017
45314W        W17640  13.770  20.257   1.869
45315W        W17641   1.358   3.802   0.336
45316W        W17642  24.591  13.344  10.674
45317W        W17643   3.910  28.157   3.031
45318W        W17644   6.129  20.135  13.933
45319W        W17645  30.066  13.290   1.220
45320W        W17646  31.049  23.201   4.796
45321W        W17647  14.391  22.584  10.592
45322W        W17648  28.685  19.468  12.512
45323W        W17649  21.783  10.899  11.831
45324W        W17650  18.221  28.746  14.327
45325W        W17651  13.103   7.379  11.173
45326W        W17652  29.737   6.194   1.204
45327W        W17653   3.773   8.368  11.635
45328W        W17654  17.338   5.048   4.075
45329W        W17655   8.735  11.555  12.579
45330W        W17656   4.259   2.432   2.457
45331W        W17657  27.583  32.545  11.882
45332W        W17658  18.066   6.798  13.862
45333W        W17659  29.196  26.650   0.028
45334W        W17660  14.751  34.023   5.166
45335W        W17661  40.424  15.810   3.259
45336W        W17662  17.752  25.349  12.553
45337W        W17663  26.006  20.965   1.817
45338W        W17664  22.694  28.443  12.563
45339W        W17665  31.812  39.552  14.296
45340W        W17666  16.199  23.171  10.839
45341W        W17667   8.307   1.849  13.972
45342W        W17668  25.106  15.017  11.223
45343W        W17669  42.492   5.122   0.806
45344W        W17670  11.092  44.342  13.055
45345W        W17671  25.232  24.053  13.524
45346W        W17672  13.753  28.926  12.464
45347W        W17673   8.511  27.070  13.853
45348W        W17674  13.581   5.419   1.777
45349W        W17675   5.717  14.471  13.189
45350W        W17676  43.275   2.309   4.980
45351W        W17677  44.215   3.663   1.716
45352W        W17678   0.334  20.940  11.216
45353W        W17679  17.220  12.334  12.110
45354W        W17680  23.034  19.314   4.952
45355W        W17681  34.110  39.103  14.861
45356W        W17682  35.488   9.367  13.219
45357W        W17683   1.956  39.390  10.621
45358W        W17684  41.912  12.420  14.530
45359W        W17685  27.134  33.493  14.069
45360W        W17686   4.185   2.236   0.378
45361W        W17687  26.048  30.274  11.634
45362W        W17688   0.905   7.468  10.718
45363W        W17689  41.527   1.807   4.690
45364W        W17690  43.115  41.438   2.373
45365W        W17691   4.953  28.924   0.030
45366W        W17692  11.531  23.823  10.188
45367W        W17693  29.538  30.784  10.056
45368W        W17694  19.713  44.793   1.914
45369W        W17695  10.184  30.108   1.780
45370W        W17696  24.079  23.787  11.153
45371W        W17697  30.626   2.878   0.228
45372W        W17698   1.980  23.117  11.644
45373W        W17699   1.229  26.988  13.006
45374W        W17700  16.674  38.336   1.798
45375W        W17701  15.311  25.201   4.625
45376W        W17702  41.391  15.071   4.182
45377W        W17703   1.969  43.971  12.633
45378W        W17704  10.871  30.978   2.264
45379W        W17705   3.320  36.268   4.915
45380W        W17706  13.406   1.608   0.388
45381W        W17707  39.435  23.469   3.324
45382W        W17708  41.843  27.224  13.528
45383W        W17709  37.129  33.944   1.419
45384W        W17710  36.553  40.886  12.381
45385W        W17711  26.518   9.860   4.422
45386W        W17712  28.074  38.308  13.546
45387W        W17713  42.820  30.570   0.267
45388W        W17714  15.955   7.769  14.747
45389W        W17715  41.711  42.447  11.080
45390W        W17716  31.254  34.325  14.498
45391W        W17717  10.085  44.438  13.972
45392W        W17718  30.452  25.073  11.323
45393W        W17719  38.259  39.472  10.382
45394W        W17720  33.467  21.230   2.429
45395W        W17721  34.968  41.409   2.899
45396W        W17722  23.049  33.754   4.916
45397W        W17723  44.422  30.366   3.584
45398W        W17724  14.768   1.803   3.846
45399W        W17725  36.043  23.264  12.491
45400W        W17726  12.024   6.793   0.474
45401W        W17727   9.534  43.948  10.712
45402W        W17728  34.006  11.125  12.524
45403W        W17729  22.961  32.932  13.822
45404W        W17730  25.001  38.343   0.337
45405W        W17731  18.344  28.113   3.345
45406W        W17732   8.150  36.564   1.863
45407W        W17733  17.276  35.665   3.669
45408W        W17734  37.124  18.751   0.891
45409W        W17735   2.682  34.661   3.261
45410W        W17736  27.782  30.981  12.608
45411W        W17737   6.711  22.745  11.439
45412W        W17738  32.744  30.669   0.713
45413W        W17739  33.366  11.681   3.046
45414W        W17740  25.919  36.988   2.162
45415W        W17741  18.113   5.702  11.616
45416W        W17742  16.038  44.716  12.129
45417W        W17743   9.879  37.937  14.930
45418W        W17744  15.224  26.825   1.507
45419W        W17745  44.221  25.079  12.522
45420W        W17746  39.130  33.405  13.944
45421W        W17747   9.690  33.878   3.598
45422W        W17748  44.918   3.303  12.463
45423W        W17749  10.031  25.723  11.187
45424W        W17750  19.038  36.926  11.619
45425W        W17751  36.852  37.453   4.631
45426W        W17752  24.684  17.791  14.828
45427W        W17753  18.085  17.238   3.383
45428W        W17754   6.401  35.425  11.237
45429W        W17755   2.534   3.910  12.944
45430W        W17756  39.995  15.495  14.129
45431W        W17757  14.762  20.590  11.873
45432W        W17758  28.385  28.838   5.073
45433W        W17759  40.844  34.487  11.419
45434W        W17760  12.888  44.064   3.071
45435W        W17761   8.432   8.014  10.551
45436W        W17762  34.347  25.435  13.519
45437W        W17763  39.412  18.811  11.092
45438W        W17764  41.841  43.780   0.331
45439W        W17765  41.966  21.709   1.164
45440W        W17766   2.453  36.847  12.484
45441W        W17767  42.924  40.309   1.702
45442W        W17768  31.637  37.522  13.969
45443W        W17769   0.447  39.132   2.360
45444W        W17770  37.081  19.284   2.635
45445W        W17771  26.584   4.961  12.540
45446W        W17772  33.148  12.225   1.424
45447W        W17773  16.162  27.611  10.508
45448W        W17774  13.800  40.803  10.551
45449W        W17775  19.564  16.535   2.917
45450W        W17776  17.662  33.522   3.070
45451W        W17777  22.966  17.509  13.524
45452W        W17778   3.699  11.364   2.758
45453W        W17779  37.764  12.870  14.498
45454W        W17780  27.964  24.937  11.589
45455W        W17781  16.378  39.921   4.660
45456W        W17782   2.965   8.151   2.462
45457W        W17783  41.878  43.560  13.948
45458W        W17784  41.454  22.605  14.154
45459W        W17785  17.864   0.518   4.260
45460W        W17786  36.348  42.421  12.478
45461W        W17787  13.535  33.815   3.065
45462W        W17788  31.085   1.472   1.381
45463W        W17789   5.384  39.501  13.959
45464W        W17790  43.447  38.508   1.033
45465W        W17791  44.627  31.874  14.449
45466W        W17792  36.980   3.997  14.930
45467W        W17793  18.711  11.277   4.566
45468W        W17794   0.331  39.046  14.992
45469W        W17795  10.262  39.134   4.496
45470W        W17796  36.362  38.408  12.664
45471W        W17797  33.956  35.934   1.013
45472W        W17798  10.265  12.115   2.164
45473W        W17799  41.907   9.749   0.890
45474W        W17800   7.090   5.012  12.645
45475W        W17801  27.605  17.059  10.602
45476W        W17802   6.494  44.746   4.382
45477W        W17803  22.780   7.161  13.437
45478W        W17804  22.245   4.902  11.623
45479W        W17805  16.852  11.905   0.686
45480W        W17806  20.005  36.833  11.705
45481W        W17807  10.030  34.270   0.802
45482W        W17808   3.313  43.313   1.306
45483W        W17809   6.187  26.231  12.959
45484W        W17810  22.225   4.233   1.911
45485W        W17811  19.012  30.672  11.551
45486W        W17812  32.938  12.717   1.388
45487W        W17813   6.589  24.116  11.575
45488W        W17814  36.377  38.281  11.183
45489W        W17815  28.272  40.881  10.502
45490W        W17816  21.703  32.462  12.631
45491W        W17817  41.848  27.617   1.277
45492W        W17818  28.174  42.736  13.224
45493W        W17819   9.771  18.561  14.765
45494W        W17820  30.084  11.041  11.931
45495W        W17821  22.827  19.836  13.903
45496W        W17822  14.155  11.159   0.387
45497W        W17823  29.776  30.416   3.610
45498W        W17824  29.103  13.260   0.808
45499W        W17825  16.345   5.170  11.265
45500W        W17826   6.677   1.778   3.210
45501W        W17827  37.093  26.391   1.352
45502W        W17828   9.872  30.583  10.528
45503W        W17829   4.673  29.934   1.345
45504W        W17830  28.237  37.764   2.777
45505W        W17831  13.220  24.959  11.367
45506W        W17832  15.862   4.881   1.376
45507W        W17833  18.170  16.521  13.304
45508W        W17834  13.219   5.059  12.434
45509W        W17835  29.615  25.171   3.122
45510W        W17836  32.847  19.565   1.750
45511W        W17837  31.176  36.535   3.327
45512W        W17838  27.145  30.716   0.315
45513W        W17839  21.143  44.473  10.673
45514W        W17840  34.838  39.399   4.686
45515W        W17841  30.554  30.167  13.915
45516W        W17842   6.889  16.137   4.901
45517W        W17843  15.736  16.146  12.578
45518W        W17844  13.608  41.790  13.380
45519W        W17845  27.131  17.762   3.059
45520W        W17846  11.805  26.593  14.982
45521W        W17847  30.814  20.641  12.939
45522W        W17848  31.180  14.154   0.966
45523W        W17849  44.082  33.085   2.599
45524W        W17850  38.841  12.080   1.706
45525W        W17851  32.522   1.944   5.236
45526W        W17852  44.797  25.289  10.761
45527W        W17853  42.819  10.903  13.321
45528W        W17854  43.368   8.806  10.847
45529W        W17855  41.057  39.423  14.068
45530W        W17856  28.364   8.789   3.278
45531W        W17857  15.574  37.178   0.880
45532W        W17858  41.452  12.554   1.235
45533W        W17859  14.406   5.982   3.561
45534W        W17860  10.962  19.135  12.228
45535W        W17861  13.647  19.900  13.049
45536W        W17862  31.893  28.350   0.009
45537W        W17863  24.789   4.665  12.417
45538W        W17864   5.480  40.886   4.085
45539W        W17865  14.659  39.094   3.287
45540W        W17866  28.147  39.822   1.984
45541W        W17867   6.846  26.881   1.839
45542W        W17868  44.473  32.001   1.234
45543W        W17869  37.462  39.109   1.497
45544W        W17870  35.121  24.736  12.975
45545W        W17871  41.470  38.098   0.256
45546W        W17872  42.026   4.132   3.683
45547W        W17873  28.134   3.255   0.041
45548W        W17874  41.381  26.149  14.377
45549W        W17875  36.617  26.899   2.097
45550W        W17876  43.469   4.142  14.937
45551W        W17877  20.456  13.270  14.388
45552W        W17878  41.429  35.018   1.443
45553W        W17879  29.961  24.659   1.363
45554W        W17880  25.883  13.869   4.932
45555W        W17881  34.703   0.395  11.046
45556W        W17882   0.737  39.307   3.159
45557W        W17883  32.636  22.284  13.807
45558W        W17884  41.176   7.942  11.508
45559W        W17885   2.416  27.719  13.182
45560W        W17886  38.790  30.229  13.274
45561W        W17887  40.411   9.824  11.111
45562W        W17888  36.943  26.785  12.522
45563W        W17889   6.971   9.609   4.383
45564W        W17890  21.937  16.677   0.816
45565W        W17891  23.574  40.422  10.086
45566W        W17892  41.131   1.439  13.566
45567W        W17893  41.479  11.153   2.289
45568W        W17894  33.436  15.129  14.808
45569W        W17895  41.472  32.046  12.859
45570W        W17896  25.870  24.936  11.046
45571W        W17897  31.910   2.441  13.502
45572W        W17898  22.284  24.710   4.151
45573W        W17899  15.308  35.923   2.028
45574W        W17900   6.176  43.961   3.071
45575W        W17901   9.047  40.739  14.051
45576W        W17902  34.621   5.333  11.840
45577W        W17903   3.478  23.305  13.327
45578W        W17904   8.942  19.977  13.788
45579W        W17905   2.228  28.642  14.432
45580W        W17906  10.756   3.742  12.993
45581W        W17907  19.771  33.036   1.242
45582W        W17908  21.933  27.866  14.007
45583W        W17909  34.517  26.555  13.083
45584W        W17910  32.158  30.046   2.601
45585W        W17911   2.725  29.399  12.942
45586W        W17912  28.412  28.053  11.942
45587W        W17913  43.177   2.890   4.370
45588W        W17914  37.487  37.621  14.832
45589W        W17915  20.676  34.813  12.466
45590W        W17916  43.552  19.509   1.914
45591W        W17917  25.532  26.711  11.605
45592W        W17918   9.648  20.225  12.472
45593W        W17919  41.044  17.289  13.366
45594W        W17920  11.112   4.862  14.329
45595W        W17921  27.598  30.063   0.981
45596W        W17922   3.406  18.008   3.336
45597W        W17923  16.300  28.170   3.969
45598W        W17924   3.184  30.998  13.516
45599W        W17925  11.369  39.914  13.839
45600W        W17926  35.910  12.693   4.640
45601W        W17927  30.531  40.363  10.934
45602W        W17928  10.149  29.092   3.208
45603W        W17929  17.491  16.316  13.469
45604W        W17930  16.754  30.664  14.813
45605W        W17931  18.737   0.231   1.746
45606W        W17932   7.325  10.885  11.898
45607W        W17933   4.467  26.425  12.118
45608W        W17934  21.153  26.919   2.755
45609W        W17935  34.430   5.341   1.365
45610W        W17936  29.040   4.223   2.900
45611W        W17937  32.022  12.194   0.207
45612W        W17938   0.313   4.872   2.799
45613W        W17939   6.355  27.461  14.428
45614W        W17940  34.900  32.716   2.358
45615W        W17941  44.374  24.595  12.410
45616W        W17942  21.073   4.104   3.833
45617W        W17943   4.617  35.918  13.330
45618W        W17944  15.341  39.218  13.366
45619W        W17945  37.373  39.778  13.326
45620W        W17946   3.494  31.446  13.977
45621W        W17947   2.559  19.360   1.232
45622W        W17948  10.587  13.536  12.875
45623W        W17949  41.456   1.268  14.838
45624W        W17950  39.595  36.808   3.593
45625W        W17951  20.929  39.891   0.509
45626W        W17952  38.931   9.492  11.093
45627W        W17953  41.884  18.725   2.796
45628W        W17954  16.187  30.635  10.635
45629W        W17955   5.172  11.821  12.044
45630W        W17956  24.118  20.192   4.185
45631W        W17957   3.809  38.451  13.022
45632W        W17958  28.549  17.662   4.763
45633W        W17959  42.079  12.713   3.246
45634W        W17960  27.616  18.609   0.831
45635W        W17961   5.351  21.090  13.826
45636W        W17962  17.793  43.054  12.602
45637W        W17963   8.285  37.157  14.467
45638W        W17964  36.165   3.761   1.797
45639W        W17965  12.749  23.769   2.222
45640W        W17966  25.257  40.407  14.352
45641W        W17967  10.213  21.960  11.560
45642W        W17968   9.209  36.931   3.460
45643W        W17969  17.933  12.759  12.959
45644W        W17970   5.640  37.531   4.947
45645W        W17971  42.938  18.087  12.428
45646W        W17972   3.467   4.885   1.291
45647W        W17973  21.619  41.496  11.689
45648W        W17974  14.706   2.235  14.966
45649W        W17975  21.200  14.124  11.612
45650W        W17976   5.216  39.906  10.849
45651W        W17977   2.051   3.232  10.620
45652W        W17978  30.512   6.284   3.411
45653W        W17979   2.803   8.245  14.500
45654W        W17980  42.712  41.134   0.442
45655W        W17981  17.564   7.819  12.846
45656W        W17982  12.140   3.194  12.517
45657W        W17983   1.258  24.024   2.723
45658W        W17984  28.303  11.382   0.472
45659W        W17985   1.564  16.209  14.265
45660W        W17986  28.425   5.715  12.085
45661W        W17987   0.504  27.735   2.892
45662W        W17988  42.325  37.675   3.329
45663W        W17989   6.502  11.613   4.433
45664W        W17990  28.691  27.245   1.770
45665W        W17991  26.195   0.947  11.205
45666W        W17992  17.793   7.261  14.148
45667W        W17993  11.686  12.185  14.860
45668W        W17994  23.599  36.390   1.314
45669W        W17995   1.299   1.773   4.718
45670W        W17996  29.988  33.901  12.060
45671W        W17997   0.201  30.132   3.551
45672W        W17998  21.266  42.991  12.009
45673W        W17999  10.249  14.204  11.962
45674W        W18000  15.612   9.769   1.918
45675W        W18001  38.854  25.696  11.976
45676W        W18002  38.311  34.035  13.915
45677W        W18003  40.003  33.150   2.705
45678W        W18004  43.176  44.750  13.755
45679W        W18005   9.547  36.697  11.170
45680W        W18006   3.596  31.438  10.951
45681W        W18007  34.560  40.827  10.894
45682W        W18008  22.105  18.621  11.557
45683W        W18009  16.325  40.690  13.508
45684W        W18010  27.402   1.728   4.273
45685W        W18011  37.602  20.490   4.054
45686W        W18012  11.601   9.998   1.687
45687W        W18013  40.420  28.048  14.058
45688W        W18014  10.254  39.995  10.664
45689W        W18015  11.789   8.909  13.543
45690W        W18016  13.787   1.007   2.440
45691W        W18017   3.395   1.112  13.816
45692W        W18018  43.953  16.393  11.197
45693W        W18019  10.064   7.777  12.892
45694W        W18020   4.627  34.112  12.006
45695W        W18021  27.671  37.938   1.780
45696W        W18022  36.998   3.810   2.831
45697W        W18023   9.983   9.249  11.485
45698W        W18024  23.948  28.122  14.720
45699W        W18025   6.334  42.331   4.320
45700W        W18026  28.876   8.768  13.535
45701W        W18027  15.218  25.124   2.185
45702W        W18028  21.576  13.338  10.804
45703W        W18029   2.584  29.202  11.621
45704W        W18030   3.555   9.315   3.697
45705W        W18031  25.094  29.609   3.196
45706W        W18032  14.596  36.958   2.811
45707W        W18033  39.264  15.675  13.057
45708W        W18034   9.974   2.098  12.584
45709W        W18035  20.829   8.024  14.434
45710W        W18036  22.110  15.292   1.349
45711W        W18037  34.000  12.234   3.432
45712W        W18038  28.564   9.057  11.600
45713W        W18039  21.668  21.128   4.029
45714W        W18040  21.598  27.983  15.000
45715W        W18041  33.551  34.578   4.336
45716W        W18042  25.483  39.648  12.617
45717W        W18043  36.354  34.499  10.201
45718W        W18044  33.980  26.813   1.766
45719W        W18045  13.830  35.342  12.877
45720W        W18046  36.558   4.920  11.628
45721W        W18047  39.026  25.972  12.907
45722W        W18048  17.678  29.524  11.621
45723W        W18049   9.827  17.730   4.397
45724W        W18050   9.867  42.305  12.485
45725W        W18051   0.730  35.112  14.995
45726W        W18052  37.466  11.293   1.486
45727W        W18053  13.939  17.691   0.402
45728W        W18054  26.853  42.384  10.656
45729W        W18055  27.118  38.302   0.680
45730W        W18056  40.388  35.032   0.761
45731W        W18057  38.354   3.257   4.651
45732W        W18058  18.603  32.644  10.590
45733W        W18059  24.022  27.978   1.814
45734W        W18060  33.441  39.748  12.375
45735W        W18061  23.535  18.121  13.804
45736W        W18062  29.362  39.375   0.765
45737W        W18063  24.588   5.433   0.416
45738W        W18064  41.925  34.449  11.875
45739W        W18065  11.233  35.833  10.073
45740W        W18066   5.168  28.690  10.637
45741W        W18067   2.259   1.830  10.244
45742W        W18068  24.762  19.293   3.855
45743W        W18069  31.958  28.469  11.266
45744W        W18070   7.194  28.358  13.495
45745W        W18071   1.551  34.013   1.967
45746W        W18072  41.332   9.803  12.473
45747W        W18073   4.444  31.497  12.441
45748W        W18074  19.560  38.929   2.762
45749W        W18075  19.269   0.842   3.912
45750W        W18076  19.595  11.217   1.447
45751W        W18077  36.646  26.089   4.454
45752W        W18078   6.343  32.539  13.528
45753W        W18079  10.919  15.771   0.075
45754W        W18080  26.105  19.137   3.264
45755W        W18081  15.017  33.934   1.418
45756W        W18082  23.593  30.923  12.012
45757W        W18083  31.414  29.557  12.452
45758W        W18084  37.293  28.415   2.848
45759W        W18085   9.813  14.601   0.239
45760W        W18086  24.482   4.388   3.593
45761W        W18087  35.056   2.117   3.269
45762W        W18088   2.377   6.919  12.470
45763W        W18089  13.645   2.547   2.319
45764W        W18090  40.526   5.807   2.344
45765W        W18091  19.519  22.713  11.113
45766W        W18092  18.698  39.695  13.823
45767W        W18093  42.733   6.414  13.467
45768W        W18094   2.910  14.647   0.726
45769W        W18095  39.944  29.050   0.264
45770W        W18096   6.024  43.792   0.900
45771W        W18097  29.720  39.834  12.937
45772W        W18098  18.749  27.360  13.947
45773W        W18099  25.901  34.554  14.273
45774W        W18100  13.138  24.057  11.117
45775W        W18101  14.771  38.618  11.621
45776W        W18102  42.838   5.215   3.638
45777W        W18103  12.670  37.161  14.959
45778W        W18104  16.666   7.421  12.050
45779W        W18105   5.879  14.088   1.811
45780W        W18106  42.246  17.675  14.154
45781W        W18107  44.323   5.659   3.272
45782W        W18108   4.285  30.826  11.088
45783W        W18109  10.327   4.878   1.405
45784W        W18110   9.803  24.629   2.687
45785W        W18111  31.421  21.070  13.494
45786W        W18112  27.482  28.687  11.037
45787W        W18113   1.316  28.891  13.869
45788W        W18114  28.152  44.842   0.926
45789W        W18115  32.962   2.807   4.060
45790W        W18116  37.799  29.542   0.733
45791W        W18117  15.857  37.460   2.198
45792W        W18118  41.223  34.519  11.882
45793W        W18119  40.105   8.713   1.960
45794W        W18120  29.224   7.174   3.277
45795W        W18121  31.714  22.653   3.107
45796W        W18122  19.152  31.919   2.865
45797W        W18123   4.137  30.583   4.109
45798W        W18124   6.231  37.568   1.926
45799W        W18125   1.071  41.639  13.829
45800W        W18126   0.487  40.217   2.598
45801W        W18127  41.484  37.374  12.591
45802W        W18128  17.894  15.494   1.561
45803W        W18129  42.734  27.189   2.362
45804W        W18130  40.581  12.726  11.105
45805W        W18131   6.830  25.606  11.888
45806W        W18132  29.503  34.076   1.948
45807W        W18133  24.722  13.582   3.197
45808W        W18134  41.833   4.487  14.739
45809W        W18135   6.996  39.944  14.283
45810W        W18136  12.214  44.756  14.902
45811W        W18137  25.647   1.354   2.748
45812W        W18138  29.136  17.647  13.383
45813W        W18139  35.089  30.079  14.898
45814W        W18140  43.351  32.269  14.509
45815W        W18141   1.466  30.599   3.326
45816W        W18142  14.834  20.084  12.026
45817W        W18143  40.495  34.440   1.843
45818W        W18144  31.588   6.274   1.404
45819W        W18145   1.004  27.752   2.256
45820W        W18146   8.943  39.553   3.246
45821W        W18147  13.157  26.597   3.323
45822W        W18148   8.135   9.748   1.331
45823W        W18149  14.304  10.640   4.575
45824W        W18150  35.932  36.889  10.669
45825W        W18151  26.892  17.831   0.754
45826W        W18152  38.110  42.326   0.328
45827W        W18153  44.908  13.884  14.513
45828W        W18154  24.140  29.139   0.393
45829W        W18155  35.359  21.224   0.821
45830W        W18156   5.997   0.338   4.715
45831W        W18157  38.346   5.126   0.481
45832W        W18158  10.600   8.902  12.543
45833W        W18159  25.744  27.150   1.777
45834W        W18160  25.613  38.001   3.351
45835W        W18161  32.463  12.666   1.644
45836W        W18162  16.030  41.104   0.401
45837W        W18163  23.423  44.244   0.704
45838W        W18164   9.297  25.276  10.922
45839W        W18165   1.415  30.168  12.550
45840W        W18166  28.373  21.640   2.754
45841W        W18167  18.031  40.524   2.967
45842W        W18168  13.020  19.901   3.297
45843W        W18169  14.065   4.940  11.059
45844W        W18170  41.488  42.967   0.297
45845W        W18171  12.915  18.146  13.449
45846W        W18172   8.237  29.150   4.339
45847W        W18173  37.307   0.544  14.726
45848W        W18174   4.778  36.395   4.292
45849W        W18175  42.777  37.334  14.778
45850W        W18176  28.577   1.991   3.777
45851W        W18177  17.766  36.901   3.206
45852W        W18178  23.770  37.368  10.378
45853W        W18179  30.483  34.339   2.211
45854W        W18180  40.106  12.819   1.020
45855W        W18181   1.365  29.129   2.255
45856W        W18182   2.715  23.131   1.968
45857W        W18183   3.935  41.321  11.625
45858W        W18184  16.142  27.028   0.869
45859W        W18185  33.168  36.392  10.497
45860W        W18186  41.102   4.558  11.023
45861W        W18187  36.427  10.942  11.542
45862W        W18188  27.441  10.351  14.316
45863W        W18189  19.219  37.873  10.707
45864W        W18190   5.454  21.261   0.883
45865W        W18191  31.911  28.547   0.493
45866W        W18192  33.414  40.413   2.692
45867W        W18193   4.919  29.260  12.559
45868W        W18194  22.498  10.020  10.069
45869W        W18195  22.467  19.770  13.143
45870W        W18196  38.134  33.996   0.938
45871W        W18197  21.575  18.313  11.423
45872W        W18198  19.530   4.594  14.468
45873W        W18199  21.426  35.087  11.940
45874W        W18200   8.515  35.041   4.800
45875W        W18201  11.566  30.118   2.836
45876W        W18202   1.788  34.870  12.852
45877W        W18203  10.176   2.499  13.869
45878W        W18204  44.381   8.678  13.333
45879W        W18205  15.645  16.269   3.601
45880W        W18206  17.870  34.384  11.687
45881W        W18207  14.612   5.152   3.381
45882W        W18208  16.315  34.895  13.932
45883W        W18209  41.851  10.414   2.869
45884W        W18210   7.143  35.425   4.145
45885W        W18211  25.154   3.386  13.143
45886W        W18212  10.146  32.838   0.808
45887W        W18213  36.019  12.867   1.771
45888W        W18214  21.415   2.825   2.786
45889W        W18215  34.108  33.104   5.492
45890W        W18216  33.072  10.007   2.113
45891W        W18217   8.423  33.931  13.320
45892W        W18218  12.192  38.552   4.353
45893W        W18219  43.119   7.436  12.488
45894W        W18220  10.672  44.088   4.470
45895W        W18221  33.390  39.994  10.989
45896W        W18222  23.183  15.696   1.485
45897W        W18223  12.352  19.708   2.294
45898W        W18224  37.989  18.317   1.231
45899W        W18225  28.792  25.668   2.659
45900W        W18226  34.917  35.489   5.684
45901W        W18227  10.104  11.815   5.077
45902W        W18228   2.922  28.138  14.822
45903W        W18229   3.946  10.001   1.512
45904W        W18230  35.020  12.531  13.848
45905W        W18231  21.935  36.783   1.781
45906W        W18232  27.450   9.459   1.280
45907W        W18233   5.803   1.523   4.253
45908W        W18234   8.212   1.644  10.183
45909W        W18235  31.183  39.251   3.859
45910W        W18236  12.116   6.401   3.209
45911W        W18237  36.233  12.894   0.233
45912W        W18238  13.880  11.347   1.415
45913W        W18239  34.153  29.667  13.364
45914W        W18240  27.979  18.984  11.958
45915W        W18241  40.847   5.371   1.782
45916W        W18242  32.280  43.999  10.497
45917W        W18243  18.892   1.565   0.765
45918W        W18244  14.412   1.405   2.801
45919W        W18245  33.954  33.818   0.544
45920W        W18246  11.410  24.631   3.599
45921W        W18247  12.059  28.479  14.822
45922W        W18248   7.222   5.945  14.835
45923W        W18249  42.848   5.648   3.381
45924W        W18250  37.978   2.915  10.624
45925W        W18251  39.623  33.500   0.500
45926W        W18252   2.383  35.767   4.135
45927W        W18253  32.288  18.516  10.422
45928W        W18254   9.263   3.649   3.658
45929W        W18255  26.130  39.286  14.702
45930W        W18256  38.770  10.102   1.396
45931W        W18257  32.670  10.760   2.710
45932W        W18258  15.669   0.354   4.860
45933W        W18259   7.116  25.431  12.279
45934W        W18260  40.825  43.968  13.379
45935W        W18261   5.768   7.757  13.457
45936W        W18262   8.402   4.722   4.569
45937W        W18263  26.531  22.818  13.592
45938W        W18264  12.305  27.067   5.289
45939W        W18265  32.468  39.004   0.284
45940W        W18266  14.919   8.149  10.835
45941W        W18267  20.037  28.433  11.010
45942W        W18268  20.943  15.359   2.875
45943W        W18269  39.942  42.444   1.674
45944W        W18270  39.739   2.446  11.455
45945W        W18271  21.123  31.930   2.841
45946W        W18272   0.724  23.115  13.589
45947W        W18273  16.618   1.857  13.212
45948W        W18274  11.133  13.799   4.091
45949W        W18275  36.948  12.772   3.147
45950W        W18276  23.135  14.784  13.902
45951W        W18277   8.353   2.517   0.837
45952W        W18278  44.087  32.750  14.383
45953W        W18279  36.796  29.886  11.553
45954W        W18280  32.011  29.204   0.844
45955W        W18281  15.089  19.723  10.719
45956W        W18282  22.136   2.959  14.763
45957W        W18283  30.840  27.902  13.313
45958W        W18284  41.779  23.158  12.804
45959W        W18285  39.441  14.274  10.916
45960W        W18286  41.782   7.445   4.765
45961W        W18287  43.362  25.984   1.911
45962W        W18288  17.519  17.072  12.378
45963W        W18289   2.958  39.016   3.672
45964W        W18290  12.118  35.342  10.500
45965W        W18291  36.672   2.030  10.743
45966W        W18292  13.382  33.127   1.290
45967W        W18293  44.777  37.599   4.598
45968W        W18294  39.833  12.381   1.790
45969W        W18295   6.182  44.846   2.234
45970W        W18296   3.627  13.368   0.393
45971W        W18297  34.953  43.168  11.622
45972W        W18298  43.163  41.991  13.865
45973W        W18299  11.733   0.945   2.784
45974W        W18300  12.875  38.606   3.403
45975W        W18301  34.821  12.407  14.738
45976W        W18302  27.708  17.270  13.891
45977W        W18303  35.323  39.943  12.902
45978W        W18304  10.000  27.452   4.429
45979W        W18305  31.677  11.995  12.405
45980W        W18306  26.083  14.128   3.194
45981W        W18307  25.672   0.848   2.708
45982W        W18308   3.881  37.363   3.076
45983W        W18309  18.510   3.209  11.919
45984W        W18310  21.025  20.760   4.282
45985W        W18311   5.373  36.318  13.367
45986W        W18312  30.603  36.579  12.078
45987W        W18313  43.442  20.654  13.290
45988W        W18314  35.623  40.527  10.812
45989W        W18315  16.304  21.092   1.926
45990W        W18316   4.405  12.243   5.913
45991W        W18317  14.033   2.970   1.149
45992W        W18318  30.063  18.807  12.295
45993W        W18319  14.791   8.908   4.990
45994W        W18320   5.183  42.446  14.087
45995W        W18321  37.827  23.958   2.818
45996W        W18322  40.248  40.568   1.447
45997W        W18323  20.783   5.843  12.500
45998W        W18324  24.819  43.549   1.740
45999W        W18325  29.039   3.254  14.093
46000W        W18326  32.861  20.308  12.808
46001W        W18327   9.153  11.241  12.064
46002W        W18328  31.525   3.684   3.051
46003W        W18329  10.321   5.467   3.231
46004W        W18330  37.609  34.520  13.012
46005W        W18331  27.098  30.107   2.426
46006W        W18332   9.652  32.059  10.473
46007W        W18333  39.158   9.312  14.410
46008W        W18334  30.069  28.188   0.280
46009W        W18335   4.446  24.728  14.459
46010W        W18336  23.634  24.493  14.039
46011W        W18337   0.186  18.870  11.061
46012W        W18338  21.665  19.429  12.952
46013W        W18339   0.484   9.920  13.409
46014W        W18340  29.540   5.338   0.662
46015W        W18341  20.274   8.731  14.319
46016W        W18342  39.509   1.293  14.653
46017W        W18343  38.039  10.534  10.689
46018W        W18344   3.371  19.220   3.783
46019W        W18345  39.312   4.330  13.058
46020W        W18346  27.077  38.517   4.864
46021W        W18347  26.014  27.271  13.293
46022W        W18348  27.087   8.212  11.014
46023W        W18349   1.768  23.875  13.559
46024W        W18350  35.280  27.911  10.313
46025W        W18351  17.154  25.929   0.410
46026W        W18352  23.976  37.002   1.734
46027W        W18353  33.729  25.291   4.123
46028W        W18354  17.817  35.189  12.155
46029W        W18355   2.427  40.521  11.730
46030W        W18356  27.846  38.989   0.368
46031W        W18357  24.764   0.980   1.684
46032W        W18358  32.131   3.687  14.440
46033W        W18359  42.874  13.701   0.760
46034W        W18360  20.332   1.307   3.383
46035W        W18361  20.311  23.181  11.082
46036W        W18362  19.039  44.414  13.976
46037W        W18363  22.246  27.235   4.387
46038W        W18364  10.235   3.218   5.143
46039W        W18365  19.585  44.421   3.697
46040W        W18366  33.376  38.597  14.413
46041W        W18367  31.739  44.350   0.300
46042W        W18368  25.616  22.114   1.848
46043W        W18369  36.656  42.291   3.345
46044W        W18370  17.070   9.084   2.719
46045W        W18371  36.481  37.098   4.194
46046W        W18372  33.362   8.462   3.925
46047W        W18373   8.339  37.317  12.524
46048W        W18374   8.476  10.620  13.583
46049W        W18375  12.403  24.942   1.849
46050W        W18376  23.942   1.440   0.830
46051W        W18377  11.857  33.852   0.793
46052W        W18378  42.903   0.926   3.454
46053W        W18379  12.239  13.074   2.032
46054W        W18380  16.849  18.016  10.958
46055W        W18381  40.548   3.400   4.157
46056W        W18382  26.208  27.887   2.670
46057W        W18383  24.749  44.962   4.806
46058W        W18384   3.366  33.087   1.769
46059W        W18385  15.387  28.257   1.938
46060W        W18386  13.038  30.471  12.106
46061W        W18387  28.578   3.411   1.462
46062W        W18388  28.388  39.324   3.134
46063W        W18389   8.648  32.910   2.944
46064W        W18390  24.160  28.354   9.933
46065W        W18391  14.430  34.875  10.701
46066W        W18392   2.229  28.312   3.498
46067W        W18393   4.758   9.814   3.234
46068W        W18394   4.817  33.529  14.008
46069W        W18395   3.385  19.727  12.995
46070W        W18396   5.945  24.448   0.029
46071W        W18397  30.567   3.374   1.219
46072W        W18398   6.247  27.715   0.402
46073W        W18399  33.445  30.576  12.579
46074W        W18400  38.007   4.858   2.784
46075W        W18401  25.557  15.229  10.373
46076W        W18402   2.050  42.016   2.300
46077W        W18403  15.318  20.252   3.604
46078W        W18404  43.648  13.938  11.169
46079W        W18405  42.499  25.436  14.385
46080W        W18406   0.033   0.657   0.958
46081W        W18407  13.507  10.363   4.534
46082W        W18408  40.525  31.725   4.316
46083W        W18409  11.959  34.510  13.860
46084W        W18410  25.264  21.856  11.950
46085W        W18411  29.029  19.817   0.679
46086W        W18412   7.637  36.952  13.731
46087W        W18413   4.976  34.126  11.545
46088W        W18414  19.756   0.888   3.696
46089W        W18415  16.670  22.958   0.387
46090W        W18416   1.147  27.443  14.413
46091W        W18417  35.581  33.984   0.785
46092W        W18418   6.520  13.501  13.911
46093W        W18419  23.958  17.433   4.736
46094W        W18420  16.912  18.208   5.012
46095W        W18421   1.989   2.479  11.264
46096W        W18422  22.980  19.244  11.546
46097W        W18423  31.921  29.693  11.541
46098W        W18424  24.341   6.754  12.809
46099W        W18425  22.122  34.732  12.605
46100W        W18426  40.586  13.626  11.667
46101W        W18427  23.741   0.367   1.304
46102W        W18428  28.610  19.012  14.874
46103W        W18429  29.461  12.353   3.089
46104W        W18430  19.500  11.116   4.830
46105W        W18431   7.382  20.500  13.605
46106W        W18432  11.687  30.684   3.154
46107W        W18433  25.126  26.575  10.738
46108W        W18434   8.956  17.960   2.284
46109W        W18435  23.510   8.809  10.679
46110W        W18436  42.921   2.564   4.059
46111W        W18437  10.299  14.259   1.776
46112W        W18438   3.331  43.938   3.618
46113W        W18439  15.671  38.062  14.989
46114W        W18440  26.592  39.313  14.453
46115W        W18441  11.191  10.311  13.197
46116W        W18442   2.507  24.127   2.778
46117W        W18443  34.144  27.647  14.326
46118W        W18444  16.377  37.918   1.930
46119W        W18445  43.940  36.898   4.687
46120W        W18446  43.243  17.116   2.406
46121W        W18447   0.361   2.374  10.794
46122W        W18448  25.655  33.157   4.360
46123W        W18449  44.665   2.819  12.346
46124W        W18450  18.059  43.784  13.323
46125W        W18451   9.339  38.225   2.726
46126W        W18452  22.019  10.051  11.846
46127W        W18453  11.896  38.622  11.486
46128W        W18454  29.633  24.359   3.668
46129W        W18455   1.485  32.003   2.782
46130W        W18456  13.887  11.883  11.113
46131W        W18457  16.571  28.516  12.601
46132W        W18458   7.355  16.082   0.764
46133W        W18459   0.758  10.268   5.076
46134W        W18460  39.952  35.109   2.242
46135W        W18461   3.385  33.537  11.026
46136W        W18462  37.093  12.254   4.980
46137W        W18463  11.893  42.505  14.858
46138W        W18464  29.215  35.550   0.880
46139W        W18465  38.231  34.323  14.496
46140W        W18466   3.618  19.057   1.931
46141W        W18467  11.175   2.150   2.818
46142W        W18468  29.083  39.780   2.901
46143W        W18469   1.354   6.661  14.726
46144W        W18470  29.177  11.256   0.917
46145W        W18471   0.011  20.730   3.272
46146W        W18472  23.187  33.114  11.562
46147W        W18473  42.025  29.185  13.152
46148W        W18474  10.246  14.864  12.965
46149W        W18475  27.548  10.808  11.666
46150W        W18476   6.706  26.483  12.615
46151W        W18477  18.455  29.535   2.304
46152W        W18478  35.023  20.776  14.900
46153W        W18479   9.807  27.115   4.757
46154W        W18480  20.802  21.307   0.559
46155W        W18481  24.981   0.551   2.901
46156W        W18482  35.051  20.064  14.158
46157W        W18483  11.494   0.549  12.207
46158W        W18484  30.668   2.861   3.695
46159W        W18485  14.055  24.056   1.340
46160W        W18486  27.636  33.975  10.676
46161W        W18487   4.002   4.194   3.443
46162W        W18488  42.886  43.480  11.148
46163W        W18489  40.896  36.736   4.605
46164W        W18490  15.390  37.846  10.662
46165W        W18491  16.902  27.601  13.668
46166W        W18492  37.397  12.367   3.725
46167W        W18493  14.619  24.330  10.049
46168W        W18494  32.509   8.620   0.785
46169W        W18495  19.169  18.137   0.695
46170W        W18496  44.952   8.870   4.710
46171W        W18497  44.658  13.268  13.352
46172W        W18498   5.860   8.492  14.482
46173W        W18499  21.629  28.929   2.310
46174W        W18500  21.131  32.299   5.096
46175W        W18501   9.778   0.227  12.014
46176W        W18502  23.018  28.963  14.952
46177W        W18503  10.506  34.782  11.498
46178W        W18504  22.798  24.269  12.891
46179W        W18505  42.960  33.436   1.933
46180W        W18506  18.174  29.713  14.471
46181W        W18507  32.433   7.811  14.602
46182W        W18508  27.174  26.449  14.818
46183W        W18509  25.676  18.933  11.053
46184W        W18510   5.202  35.860  14.283
46185W        W18511  29.550  10.754   3.305
46186W        W18512  32.939  44.045   1.655
46187W        W18513  12.283  42.878   3.247
46188W        W18514  10.709  42.708  11.930
46189W        W18515  40.002  13.163  14.608
46190W        W18516  31.577  37.121   2.106
46191W        W18517  23.069  37.800   1.891
46192W        W18518  37.618   6.836   1.212
46193W        W18519  16.323  14.830   2.258
46194W        W18520  24.512  12.344   2.746
46195W        W18521   2.966  13.230  11.245
46196W        W18522  21.249  23.538  10.672
46197W        W18523   2.375   1.033   4.011
46198W        W18524  42.970  40.778  13.942
46199W        W18525  12.467  22.182   2.346
46200W        W18526  21.215   0.488   4.428
46201W        W18527  32.673  25.675  11.468
46202W        W18528  44.568  25.295   4.136
46203W        W18529  35.786   0.747  13.424
46204W        W18530   9.704  13.354   2.697
46205W        W18531  15.729   2.164  13.215
46206W        W18532  13.228  23.721   4.310
46207W        W18533  24.540  29.552   3.934
46208W        W18534  34.710  36.075  13.678
46209W        W18535   4.768  33.879  13.271
46210W        W18536  38.045  32.561   2.334
46211W        W18537   4.853  40.123  11.207
46212W        W18538  43.926   8.998  12.052
46213W        W18539  16.698  42.966   2.874
46214W        W18540  11.377   9.396  12.867
46215W        W18541  19.810  23.879  13.401
46216W        W18542  31.141   5.041  12.433
46217W        W18543   3.848  18.266   3.210
46218W        W18544   7.665   9.885  12.524
46219W        W18545  12.075  25.902   2.826
46220W        W18546  41.790  10.270   5.000
46221W        W18547  23.078  17.370   4.967
46222W        W18548  43.244  43.713   4.208
46223W        W18549  40.965  32.957   0.047
46224W        W18550  17.940  21.567  14.003
46225W        W18551   3.739  40.517   3.324
46226W        W18552  12.382  27.608  12.350
46227W        W18553  36.959  40.148   4.730
46228W        W18554  16.059  37.876  11.754
46229W        W18555  19.894  20.590   3.744
46230W        W18556  31.304  33.587  12.003
46231W        W18557   9.866  33.148  14.427
46232W        W18558  23.052  29.609   3.272
46233W        W18559  19.882  31.003   5.076
46234W        W18560  38.066  22.059   3.737
46235W        W18561  44.040  12.210  12.340
46236W        W18562   3.264  29.698   2.239
46237W        W18563   7.741  18.615  11.423
46238W        W18564   0.287  43.337  10.738
46239W        W18565  25.297  33.027  12.485
46240W        W18566  11.365  31.998   0.540
46241W        W18567   9.405  21.629  14.869
46242W        W18568  16.979   5.904  14.258
46243W        W18569  17.798  37.492   0.974
46244W        W18570   4.998   9.949   2.807
46245W        W18571   1.518  40.519   4.434
46246W        W18572  29.965  30.958  13.846
46247W        W18573  28.123  11.167  13.026
46248W        W18574  35.504   8.620   4.590
46249W        W18575   4.239   2.888  11.170
46250W        W18576   9.756   6.384   3.135
46251W        W18577   9.863  41.852  13.358
46252W        W18578  41.943   7.198   4.300
46253W        W18579  31.494  10.821   4.622
46254W        W18580  13.850   1.118  13.399
46255W        W18581   2.508   7.823  12.621
46256W        W18582  18.339  25.617  14.290
46257W        W18583  25.719  35.224   5.058
46258W        W18584   3.039  30.649   1.394
46259W        W18585  15.699  23.705  11.798
46260W        W18586  16.583   8.082  10.670
46261W        W18587  29.512  37.826   1.794
46262W        W18588  38.277  34.095   2.246
46263W        W18589  29.949   6.114  11.735
46264W        W18590  20.233   5.427  14.378
46265W        W18591  44.347  27.712  12.607
46266W        W18592  15.852  24.262  12.889
46267W        W18593  29.397   9.853   3.092
46268W        W18594  17.793  16.188   4.859
46269W        W18595  36.908  11.758   4.888
46270W        W18596  33.441  28.681  10.311
46271W        W18597  17.706  38.314  12.447
46272W        W18598  39.460  20.934   3.689
46273W        W18599   8.631  26.751  12.182
46274W        W18600  27.879  32.633  13.878
46275W        W18601   2.927  31.677   3.122
46276W        W18602  27.034  21.039  10.225
46277W        W18603  44.666   7.923   1.414
46278W        W18604  33.444  18.841  14.488
46279W        W18605  26.689  19.776   2.261
46280W        W18606  23.937  42.996  14.229
46281W        W18607  41.400  29.915  10.766
46282W        W18608  17.206  31.619  10.761
46283W        W18609  21.616  18.576   4.138
46284W        W18610  17.802   0.753   3.194
46285W        W18611   2.768  31.859  12.422
46286W        W18612  18.525  13.283   0.542
46287W        W18613  32.580  12.818  11.618
46288W        W18614  21.495  15.330   0.050
46289W        W18615  25.107  39.413   2.044
46290W        W18616  36.022  26.977  12.070
46291W        W18617  35.551  19.306   3.186
46292W        W18618  13.406  32.515  13.874
46293W        W18619   2.969  30.498  14.162
46294W        W18620  29.403  30.796   5.036
46295W        W18621   0.822  42.406   3.149
46296W        W18622  24.899  28.085   1.905
46297W        W18623  23.098   7.455  11.648
46298W        W18624   1.772   9.640   0.025
46299W        W18625  43.854  29.071  11.158
46300W        W18626  34.826  17.563   3.250
46301W        W18627  11.562  28.045   4.566
46302W        W18628  25.659  27.491   3.438
46303W        W18629  20.095  10.064   2.196
46304W        W18630  29.151  29.445  14.911
46305W        W18631  24.696  34.024   2.836
46306W        W18632  25.937  11.688  11.574
46307W        W18633  40.433  40.204   2.875
46308W        W18634   5.817  30.369  14.409
46309W        W18635   9.355  37.686  11.354
46310W        W18636  24.932  21.666  12.384
46311W        W18637   4.906   2.743  12.504
46312W        W18638  41.816  28.596   2.331
46313W        W18639   6.626  19.663   4.202
46314W        W18640  27.708  44.741  14.776
46315W        W18641   3.619  27.936  12.431
46316W        W18642  13.771  10.879   0.587
46317W        W18643  27.609  41.846  10.561
46318W        W18644   4.459  32.556   1.095
46319W        W18645   8.768   9.663  14.498
46320W        W18646  20.141  20.531   0.951
46321W        W18647  32.879   5.895   0.727
46322W        W18648   0.939   6.376  13.776
46323W        W18649   9.815  21.154  11.655
46324W        W18650  29.606  29.613   3.629
46325W        W18651  15.182  40.788  12.993
46326W        W18652  34.951   5.494   4.323
46327W        W18653  40.476  32.044   1.939
46328W        W18654  10.223  24.776  10.913
46329W        W18655  41.300  21.820   3.960
46330W        W18656  31.606  41.781  12.661
46331W        W18657   6.175  21.714  11.130
46332W        W18658  29.242   0.431  13.947
46333W        W18659  19.996  31.322   2.885
46334W        W18660  27.021  40.628   1.955
46335W        W18661  20.123  34.978   3.453
46336W        W18662  15.335  28.127  10.616
46337W        W18663  27.398  44.377  12.868
46338W        W18664   7.206  28.665   4.144
46339W        W18665  39.437  14.545   2.391
46340W        W18666   7.646   0.880   1.905
46341W        W18667  38.407   3.213  13.822
46342W        W18668  27.009  30.575   2.578
46343W        W18669  13.329  31.663   0.314
46344W        W18670  40.421   3.943   1.181
46345W        W18671   8.138  29.755   0.492
46346W        W18672  25.759  24.775   2.450
46347W        W18673  37.789   6.471   2.419
46348W        W18674  25.199  43.887   1.449
46349W        W18675  43.487  20.223   2.380
46350W        W18676   8.603  44.772   0.031
46351W        W18677  22.564  38.768   2.129
46352W        W18678  41.843  20.571  13.118
46353W        W18679  28.937   2.822  13.796
46354W        W18680  44.558  41.303   4.567
46355W        W18681  23.987   9.802   0.341
46356W        W18682   6.850  12.073   1.239
46357W        W18683  24.361  11.856   3.560
46358W        W18684   9.862  42.545   3.185
46359W        W18685   6.227  31.644   4.627
46360W        W18686  30.233  41.373  14.846
46361W        W18687  34.829  21.778   4.287
46362W        W18688  37.326  41.651   4.616
46363W        W18689  10.983  25.908  11.983
46364W        W18690  31.449   0.271  11.154
46365W        W18691  36.548   4.260   4.649
46366W        W18692   0.258  39.939  12.040
46367W        W18693   4.735  27.648  11.759
46368W        W18694   8.857  43.189  11.337
46369W        W18695  26.539  22.116  10.580
46370W        W18696  35.788  44.971   3.675
46371W        W18697  19.775   9.807   2.507
46372W        W18698  23.003  14.355   3.238
46373W        W18699  16.214  31.039   4.626
46374W        W18700  44.478  16.488   5.188
46375W        W18701  34.804   2.452  14.759
46376W        W18702  27.826  11.151  12.577
46377W        W18703  13.549   7.779   3.118
46378W        W18704  19.070  32.586   3.698
46379W        W18705   7.073  27.622  13.450
46380W        W18706  43.555  26.092   0.082
46381W        W18707   5.657  39.496  11.404
46382W        W18708   3.570  19.225   1.140
46383W        W18709  24.263   0.794  11.684
46384W        W18710  44.031  10.310   2.837
46385W        W18711   2.321  41.119   4.228
46386W        W18712  17.557   8.215  14.127
46387W        W18713  34.544  29.921   1.692
46388W        W18714  33.417  22.582   0.920
46389W        W18715  10.767  17.178  10.644
46390W        W18716  25.590   6.706   1.470
46391W        W18717  23.023  25.013  10.431
46392W        W18718  33.115  29.568  14.609
46393W        W18719  33.583  11.291   2.298
46394W        W18720  28.755  26.660   2.735
46395W        W18721  38.964   7.171   2.116
46396W        W18722   1.333  35.614   3.252
46397W        W18723  41.489   2.093   2.348
46398W        W18724   4.873  27.924   2.499
46399W        W18725   5.337   9.401   3.591
46400W        W18726  16.659  19.653  14.418
46401W        W18727  41.264  11.352   1.773
46402W        W18728  11.512  13.162   4.647
46403W        W18729   4.170  28.174   0.284
46404W        W18730   6.754  26.526   0.508
46405W        W18731  26.582  13.508   4.663
46406W        W18732  14.237  10.686   0.813
46407W        W18733   7.242   9.889   2.950
46408W        W18734  36.441  10.194   4.797
46409W        W18735  37.379  41.954   4.178
46410W        W18736  32.442   8.338   2.493
46411W        W18737  22.634  38.965   0.353
46412W        W18738  32.936  44.800   3.132
46413W        W18739  28.839  42.407  11.494
46414W        W18740  42.086  18.473  10.941
46415W        W18741  37.920  25.316  10.340
46416W        W18742  37.249  22.527   0.436
46417W        W18743  11.680  38.892   2.133
46418W        W18744  20.548  22.058  13.406
46419W        W18745   2.882  24.519   5.121
46420W        W18746  12.670  15.812  13.841
46421W        W18747  23.503   0.770   0.388
46422W        W18748  33.369  12.476   0.623
46423W        W18749  37.087  29.984   0.853
46424W        W18750  10.101   7.605  11.572
46425W        W18751  25.867  31.612   0.075
46426W        W18752  26.233   8.379   2.682
46427W        W18753   9.306  24.943  12.275
46428W        W18754  31.095  31.016   0.378
46429W        W18755  11.596  32.024   3.239
46430W        W18756  37.860   5.637  14.757
46431W        W18757  23.048  32.600  11.643
46432W        W18758  11.857   4.874  11.675
46433W        W18759  39.344  12.892   4.671
46434W        W18760  29.271   9.349   2.932
46435W        W18761  36.902  42.987  13.377
46436W        W18762   1.921  13.652  14.930
46437W        W18763  44.785  27.001   2.912
46438W        W18764   9.211  14.155   0.900
46439W        W18765  12.808  12.333   1.191
46440W        W18766  23.161   2.250   2.204
46441W        W18767   4.187  39.228   0.065
46442W        W18768  36.662  39.263  11.026
46443W        W18769   2.811   2.206   2.577
46444W        W18770  44.267  44.990  13.941
46445W        W18771  32.632  14.352  11.532
46446W        W18772  15.077  38.564   0.886
46447W        W18773  25.624  31.331  14.290
46448W        W18774  14.537  11.748   4.834
46449W        W18775  16.154  43.035   0.552
46450W        W18776  30.968  27.103   2.442
46451W        W18777  21.478  25.253  11.619
46452W        W18778  15.199  32.665   3.300
46453W        W18779  35.540  16.191  10.978
46454W        W18780   1.758  29.092  13.057
46455W        W18781  10.997  39.803  13.499
46456W        W18782  18.574  34.021  13.821
46457W        W18783  23.522  42.583  11.978
46458W        W18784   5.744  26.616   0.492
46459W        W18785  39.014   1.543  13.046
46460W        W18786  38.988  19.938   2.350
46461W        W18787  19.468  30.821  11.708
46462W        W18788  20.641  17.353   2.389
46463W        W18789  14.353  12.357   2.368
46464W        W18790   6.785  34.386  13.757
46465W        W18791  20.928  26.005  13.291
46466W        W18792   6.322   6.371  14.935
46467W        W18793   2.008  31.607   2.899
46468W        W18794   0.324  44.568  13.011
46469W        W18795   3.917  15.694   2.924
46470W        W18796  42.212   8.753  13.588
46471W        W18797   1.088  34.506   2.537
46472W        W18798  26.530  26.465   4.839
46473W        W18799  14.717   6.943   4.746
46474W        W18800  16.223  32.074   1.043
46475W        W18801  16.836   4.383   0.904
46476W        W18802  27.606  26.677  13.338
46477W        W18803  37.865  13.429   4.184
46478W        W18804  11.273  18.327   2.820
46479W        W18805  22.046   6.000  13.320
46480W        W18806  19.774   2.818  11.563
46481W        W18807  42.957  13.811  11.055
46482W        W18808   9.095  43.874   1.422
46483W        W18809  23.677  35.285  13.936
46484W        W18810  25.867  26.244   4.984
46485W        W18811  11.013   8.981   0.921
46486W        W18812  18.060  28.157   0.395
46487W        W18813  36.444  21.352   2.618
46488W        W18814  34.204  18.775  13.438
46489W        W18815  11.163  30.027  12.852
46490W        W18816  14.285  14.877   4.165
46491W        W18817   8.702   8.391  13.013
46492W        W18818  44.273  42.272  13.796
46493W        W18819  30.078  27.069   1.953
46494W        W18820  16.253  31.413   0.307
46495W        W18821  29.634  15.560   2.556
46496W        W18822  10.742  27.566  14.545
46497W        W18823  10.638   2.262  13.928
46498W        W18824  17.136  24.206   2.147
46499W        W18825   3.145  10.678   4.442
46500W        W18826  44.939   7.899  12.320
46501W        W18827  26.436  33.914   4.642
46502W        W18828  40.903  14.621   0.805
46503W        W18829  35.553  27.651  11.431
46504W        W18830  30.928  35.335  12.051
46505W        W18831  20.817  23.217   3.339
46506W        W18832  31.190  39.350  12.180
46507W        W18833   3.402  44.928   4.633
46508W        W18834   4.716   7.750  12.391
46509W        W18835  13.089  38.410   0.137
46510W        W18836  34.846  41.921   0.782
46511W        W18837   3.934   9.329   2.359
46512W        W18838  30.935  18.613   2.730
46513W        W18839  34.745  23.441   1.840
46514W        W18840  19.332  31.967  14.819
46515W        W18841  42.694  19.291  14.599
46516W        W18842  23.336  39.471   4.597
46517W        W18843  18.772  38.333  13.289
46518W        W18844  11.443  10.445   1.500
46519W        W18845   7.854  43.444  14.296
46520W        W18846  33.392  16.348   1.164
46521W        W18847   2.998  15.330  10.564
46522W        W18848  10.097  37.425   1.906
46523W        W18849  43.961  21.181  13.324
46524W        W18850  39.302  16.136  10.555
46525W        W18851  31.541  42.290   3.189
46526W        W18852   4.824  40.077  13.383
46527W        W18853   1.779  15.381  12.135
46528W        W18854  13.829   7.133   4.796
46529W        W18855  28.898  20.193   3.363
46530W        W18856   4.275   8.171   0.277
46531W        W18857  43.991  44.919   0.342
46532W        W18858   6.199  28.785   0.447
46533W        W18859  25.564  37.812  14.801
46534W        W18860  36.489  44.571   4.719
46535W        W18861   4.825   2.166  11.651
46536W        W18862  31.793   8.811  13.655
46537W        W18863   6.226  36.981  14.281
46538W        W18864  37.125  14.572  10.648
46539W        W18865  43.582  33.480  13.870
46540W        W18866   5.454  23.714   3.009
46541W        W18867  11.839   0.827  13.336
46542W        W18868  41.028  43.736  14.176
46543W        W18869  16.166  18.253  12.518
46544W        W18870  24.556  12.377   1.805
46545W        W18871  20.155  11.529   2.419
46546W        W18872  42.137  19.546   3.942
46547W        W18873   0.307  10.922  12.984
46548W        W18874  38.152  27.413   2.264
46549W        W18875  40.004   9.750   1.456
46550W        W18876   6.172  34.939  11.960
46551W        W18877  13.744   0.023   0.835
46552W        W18878  28.248   4.756   0.819
46553W        W18879  18.082  26.554   4.627
46554W        W18880  13.071  19.737  13.833
46555W        W18881  23.699  36.306  11.439
46556W        W18882  34.339  42.083  13.869
46557W        W18883  20.715  37.113  12.957
46558W        W18884  43.479   5.128  13.973
46559W        W18885  38.950  21.527   1.261
46560W        W18886  37.487   8.918  14.955
46561W        W18887  21.989   8.800  11.531
46562W        W18888  34.564  15.326  13.849
46563W        W18889  27.368  21.028  13.549
46564W        W18890  25.761  23.536   2.775
46565W        W18891  17.834  10.753  11.595
46566W        W18892  18.784   4.912  11.226
46567W        W18893  20.005  19.751  14.891
46568W        W18894  15.869   8.795  12.954
46569W        W18895  19.569   1.627   0.776
46570W        W18896  40.439  18.341   3.272
46571W        W18897  39.995   1.486   3.529
46572W        W18898  28.827   1.888   4.269
46573W        W18899   8.955  34.924  11.585
46574W        W18900   0.866  34.156   1.532
46575W        W18901  18.739  21.969   0.974
46576W        W18902   1.757  25.869  13.932
46577W        W18903   3.203  14.269  14.011
46578W        W18904  25.191  12.777   2.789
46579W        W18905  21.256  16.335   2.296
46580W        W18906   4.370   3.911  11.273
46581W        W18907  44.641  13.818  11.003
46582W        W18908  29.092  30.869   0.911
46583W        W18909  41.439  32.424   0.569
46584W        W18910  14.504  36.544   1.488
46585W        W18911  13.018  28.648  14.601
46586W        W18912  26.913  30.586   4.509
46587W        W18913  41.938  36.314   1.811
46588W        W18914  18.229  42.885  10.744
46589W        W18915   7.628  15.665  10.763
46590W        W18916  11.557   4.676   5.312
46591W        W18917  23.724  38.799   3.319
46592W        W18918  34.633  14.754   0.245
46593W        W18919  19.178  38.003   3.116
46594W        W18920  19.684  23.898  12.038
46595W        W18921  12.818  15.315  11.253
46596W        W18922   8.257   5.211  10.750
46597W        W18923  35.313  22.930  11.566
46598W        W18924  34.274  33.567   4.568
46599W        W18925  19.498  38.302  10.826
46600W        W18926  34.376   8.586   0.781
46601W        W18927  20.770  41.337   1.297
46602W        W18928  11.190  17.205  11.596
46603W        W18929  10.113  38.774   1.604
46604W        W18930  31.342  38.288  11.051
46605W        W18931  29.485  34.440  13.086
46606W        W18932  27.348  16.648  13.430
46607W        W18933  19.265  31.050  12.430
46608W        W18934   7.955  21.516  13.829
46609W        W18935  22.690  17.630   3.337
46610W        W18936  29.521  14.641   4.071
46611W        W18937   2.623  19.593   4.753
46612W        W18938   0.523  21.668   3.898
46613W        W18939   0.747  16.672   4.436
46614W        W18940  29.936  37.562  12.892
46615W        W18941   9.089  36.239  13.957
46616W        W18942  25.227   0.354   3.335
46617W        W18943   1.733  33.672   1.165
46618W        W18944  14.502  20.663  14.592
46619W        W18945  35.935  39.406   0.063
46620W        W18946  38.059  15.170   0.245
46621W        W18947   1.963  17.229  10.870
46622W        W18948  38.547  40.492  10.648
46623W        W18949  17.798   3.773  10.584
46624W        W18950  28.699  11.170  13.393
46625W        W18951  30.930  40.343   0.968
46626W        W18952  37.795  19.431  14.868
46627W        W18953   1.528   6.380  11.993
46628W        W18954  26.606  24.058   5.036
46629W        W18955   2.395  34.879   0.517
46630W        W18956  34.442  42.595   1.662
46631W        W18957   1.183   4.262   0.509
46632W        W18958  40.271  33.254  13.503
46633W        W18959   7.950  23.777  14.497
46634W        W18960  41.326  33.397   3.353
46635W        W18961  42.522   0.904  13.813
46636W        W18962   2.996  13.770  14.052
46637W        W18963  28.732  12.471   3.755
46638W        W18964  44.831  19.754  13.978
46639W        W18965  39.797   5.356   0.513
46640W        W18966   8.256   0.006   4.299
46641W        W18967  25.569  32.674   4.094
46642W        W18968   2.819  32.349  13.520
46643W        W18969   6.605  22.987  12.508
46644W        W18970  26.237   5.755   3.307
46645W        W18971  41.892   7.809   0.935
46646W        W18972  35.041  16.008  14.530
46647W        W18973  43.767  36.546   4.348
46648W        W18974  19.188  37.427   2.265
46649W        W18975  27.938  21.035   2.239
46650W        W18976  25.553   4.000   0.386
46651W        W18977  31.931  37.933   3.364
46652W        W18978  37.997   6.327  14.254
46653W        W18979  37.486  33.891  11.766
46654W        W18980  12.504  27.035  12.663
46655W        W18981  20.001  11.355   2.884
46656W        W18982  17.947  26.687   5.158
46657W        W18983  37.288  30.482   4.090
46658W        W18984  20.704  35.459   4.690
46659W        W18985  20.643  22.272   1.405
46660W        W18986  25.631  33.913  12.084
46661W        W18987  34.131  42.897   4.577
46662W        W18988  17.305  33.663   4.025
46663W        W18989   3.908   6.167   1.706
46664W        W18990   1.329  21.751  10.248
46665W        W18991  29.942  30.588   1.653
46666W        W18992  21.360  36.575   5.209
46667W        W18993  41.796  28.861  13.496
46668W        W18994  26.392  36.010   2.416
46669W        W18995   1.875   6.226   1.067
46670W        W18996  33.950  43.984  14.947
46671W        W18997  19.488  15.988  14.824
46672W        W18998   4.313  12.909  14.018
46673W        W18999  34.946  15.313  10.670
46674W        W19000   3.500   4.358  10.216
46675W        W19001  38.338   7.949  12.851
46676W        W19002  29.856   9.145   3.751
46677W        W19003  26.300   8.433   4.005
46678W        W19004  26.147  43.213   0.442
46679W        W19005  40.085   7.831   3.167
46680W        W19006  17.147  35.916   4.119
46681W        W19007  40.433  10.773  11.414
46682W        W19008   9.826  33.087  13.228
46683W        W19009  22.975  19.082   2.784
46684W        W19010  34.177  21.630  13.275
46685W        W19011   2.371  24.126   5.698
46686W        W19012  29.031  32.076   3.810
46687W        W19013   8.961  27.681  12.372
46688W        W19014  30.980  13.870  12.111
46689W        W19015  39.289  25.755  11.036
46690W        W19016   7.331  16.619  14.512
46691W        W19017  33.302  26.716   4.098
46692W        W19018  17.337  18.118   0.788
46693W        W19019  32.164  21.621   1.305
46694W        W19020  42.325  17.219   4.565
46695W        W19021   2.000  21.238   2.356
46696W        W19022  32.625  22.712  11.578
46697W        W19023  21.073  24.527   1.310
46698W        W19024  17.087   2.192  14.803
46699W        W19025  31.971  16.795  10.371
46700W        W19026  12.256  34.147  14.984
46701W        W19027   3.442  40.423   2.874
46702W        W19028  12.153  35.201   0.932
46703W        W19029  28.567   2.560  14.411
46704W        W19030  43.059  13.335   1.097
46705W        W19031  42.956   1.669   4.155
46706W        W19032   5.549   1.817  12.012
46707W        W19033  36.798  16.243  14.873
46708W        W19034  27.105  17.269  12.334
46709W        W19035   7.266  31.072   3.790
46710W        W19036  38.368  18.383  10.566
46711W        W19037  37.401  36.038   3.425
46712W        W19038  18.378  25.144  13.091
46713W        W19039  42.819  17.674  14.028
46714W        W19040  34.425  33.423   3.513
46715W        W19041  24.197   9.643  14.748
46716W        W19042  32.649  34.480   4.979
46717W        W19043  17.312  25.040  12.756
46718W        W19044  42.516  40.474  14.039
46719W        W19045  27.194  10.826   0.507
46720W        W19046  10.768  41.898  11.853
46721W        W19047   0.388   8.071  14.929
46722W        W19048  44.507  15.074  14.357
46723W        W19049   8.579  11.113   3.707
46724W        W19050  16.648  15.171  13.804
46725W        W19051   9.622  44.976  12.530
46726W        W19052  38.464  41.096  12.520
46727W        W19053   9.920  29.103   4.434
46728W        W19054  33.375  33.121   2.766
46729W        W19055  30.494  23.103   0.001
46730W        W19056  24.817  42.927  13.038
46731W        W19057  38.907  26.403   3.264
46732W        W19058   5.354  23.044  11.049
46733W        W19059  39.881   3.202  11.310
46734W        W19060  40.798  37.875  11.689
46735W        W19061  25.871  16.393  13.495
46736W        W19062  44.178  30.589  10.315
46737W        W19063  29.728  32.125   0.439
46738W        W19064  30.738  14.846   3.081
46739W        W19065  39.270   2.038  13.199
46740W        W19066   8.235  33.579  11.661
46741W        W19067  28.428   6.458   0.207
46742W        W19068  27.529  12.234   2.952
46743W        W19069  29.172  40.536   2.216
46744W        W19070  30.837   3.421   5.009
46745W        W19071  44.199  43.953   2.360
46746W        W19072   8.207   8.598  12.961
46747W        W19073   1.470  10.139   1.464
46748W        W19074  10.627  12.423   4.102
46749W        W19075  41.828  11.791   3.880
46750W        W19076  27.840  34.285   4.115
46751W        W19077  44.234  23.076  12.581
46752W        W19078   7.407  33.995  12.363
46753W        W19079   9.171  37.309   4.597
46754W        W19080  43.512  39.590  12.564
46755W        W19081  21.849  14.546  11.890
46756W        W19082  41.971   7.876  13.558
46757W        W19083   3.388  27.904   1.815
46758W        W19084  15.675  20.384   4.619
46759W        W19085  28.216  13.758  12.915
46760W        W19086   5.154  38.862   1.063
46761W        W19087  38.105  37.527   4.919
46762W        W19088   9.082  19.410  13.385
46763W        W19089  17.613  23.276   2.696
46764W        W19090  41.612  31.938   3.660
46765W        W19091  21.806  33.734   0.584
46766W        W19092  34.573  26.079  13.410
46767W        W19093  12.824  17.596   4.197
46768W        W19094  29.832  42.660   4.209
46769W        W19095  14.556  44.224   3.830
46770W        W19096  16.273  36.280  12.938
46771W        W19097   6.405  33.162   3.181
46772W        W19098  35.037   8.704  11.987
46773W        W19099  18.521   9.237  14.426
46774W        W19100  42.024  12.314   2.407
46775W        W19101  29.837  10.461  13.571
46776W        W19102  22.732  32.215   3.662
46777W        W19103   5.211   5.780  13.406
46778W        W19104  39.958  21.768   0.239
46779W        W19105  19.245   7.332  12.613
46780W        W19106   9.948  15.131   3.639
46781W        W19107  36.373  33.207   2.440
46782W        W19108   8.506  40.848  11.614
46783W        W19109  21.720   5.126   2.171
46784W        W19110  31.533  20.556  10.705
46785W        W19111  17.384  31.656   1.699
46786W        W19112  10.219  28.938   1.179
46787W        W19113   3.319  29.672   1.399
46788W        W19114  15.677  15.334  13.018
46789W        W19115  38.796  26.376  11.499
46790W        W19116  23.246  43.207   1.533
46791W        W19117  40.229  20.223   4.692
46792W        W19118  15.481  40.630  13.366
46793W        W19119   6.025  36.279  11.201
46794W        W19120  36.138  36.236  12.102
46795W        W19121  32.802  28.633  14.871
46796W        W19122  28.994  41.003   3.115
46797W        W19123  38.716   2.446  11.570
46798W        W19124  20.190   3.271   1.147
46799W        W19125  37.099   9.307   3.975
46800W        W19126  39.212  24.671   3.145
46801W        W19127  14.306  36.881  12.006
46802W        W19128  11.838  22.280  12.023
46803W        W19129  11.587  23.767  11.995
46804W        W19130   8.580  43.505   3.214
46805W        W19131   1.984  11.616   2.356
46806W        W19132   7.614  27.790  14.654
46807W        W19133  11.702  35.091   3.653
46808W        W19134   6.832  42.578  12.640
46809W        W19135  39.076  40.934   1.876
46810W        W19136   5.219  25.386   3.035
46811W        W19137  41.464  32.528  12.076
46812W        W19138  13.300  24.697  12.257
46813W        W19139  39.975   9.958  13.344
46814W        W19140  30.403   4.947  14.267
46815W        W19141  39.271  30.633   3.751
46816W        W19142  20.613  11.214  11.104
46817W        W19143  21.733   5.472   0.034
46818W        W19144   8.137   5.662  12.215
46819W        W19145   1.743  21.535   0.739
46820W        W19146  16.716  25.522   3.130
46821W        W19147  21.775  28.816  10.892
46822W        W19148  40.861  12.275  12.377
46823W        W19149  15.070  31.586  11.100
46824W        W19150  33.537   7.663  12.410
46825W        W19151  41.988   7.877   1.448
46826W        W19152  14.841  24.815   3.291
46827W        W19153  20.984  13.696   0.712
46828W        W19154  30.879  19.813  13.808
46829W        W19155  24.181   2.025  10.559
46830W        W19156  18.602   7.916   0.625
46831W        W19157   1.980  16.266  12.609
46832W        W19158  18.668  18.532  13.090
46833W        W19159  36.075  43.434  14.791
46834W        W19160  38.825  14.119   2.619
46835W        W19161  20.748  24.243  14.051
46836W        W19162  32.567  42.275  13.544
46837W        W19163   2.760  42.043   0.909
46838W        W19164  19.839  39.791   4.211
46839W        W19165   6.094   1.032  13.026
46840W        W19166  11.175  36.903   3.888
46841W        W19167  33.594   9.757  10.795
46842W        W19168  29.178  35.602  14.599
46843W        W19169  32.347  18.334   2.842
46844W        W19170  11.232  12.076  13.931
46845W        W19171  41.077  17.471   3.687
46846W        W19172  17.681  35.221   0.840
46847W        W19173  31.434  37.363  14.466
46848W        W19174   7.241  19.613  13.537
46849W        W19175  29.845   0.451  10.159
46850W        W19176  36.483  26.717  11.768
46851W        W19177   3.627  24.269  12.520
46852W        W19178  37.300  44.682   3.256
46853W        W19179  30.924  13.731  11.188
46854W        W19180   8.847  16.830  11.583
46855W        W19181  12.563  41.808  12.528
46856W        W19182   7.275   5.958  14.310
46857W        W19183  22.770  38.413  14.863
46858W        W19184  29.031  32.441   1.365
46859W        W19185  21.542   0.296   1.701
46860W        W19186  30.895   7.517   0.476
46861W        W19187  38.422  16.676   4.377
46862W        W19188  12.767  34.986  13.862
46863W        W19189  31.000  36.855   4.136
46864W        W19190  32.258  44.212  11.080
46865W        W19191  14.056  39.561  13.151
46866W        W19192  13.643  19.023  13.854
46867W        W19193   8.893  23.106  10.698
46868W        W19194  38.890  10.356   0.268
46869W        W19195  38.042   7.215  11.431
46870W        W19196  21.165   5.492  14.541
46871W        W19197  14.052  33.502  14.607
46872W        W19198  32.684  20.253  11.704
46873W        W19199  15.597   2.530   4.157
46874W        W19200  28.678  13.575   2.803
46875W        W19201  35.915  35.506  12.671
46876W        W19202  38.127  18.328   2.683
46877W        W19203  25.515  22.135  10.679
46878W        W19204  38.484  19.707  10.439
46879W        W19205   3.388  39.041  12.576
46880W        W19206   1.829  36.880  12.937
46881W        W19207  22.285  40.840   4.161
46882W        W19208  37.179  43.957   3.874
46883W        W19209  11.845  44.732   0.635
46884W        W19210  42.068  19.020  14.008
46885W        W19211  44.493  15.724  12.368
46886W        W19212  19.764   4.862  14.999
46887W        W19213  19.836  10.345  12.163
46888W        W19214   4.882   3.840  11.555
46889W        W19215  18.351  29.954  14.912
46890W        W19216  10.216   5.216  12.386
46891W        W19217  21.560  10.854  12.290
46892W        W19218   4.354  33.793  10.755
46893W        W19219  35.111  12.237   0.131
46894W        W19220   0.358  35.585   0.390
46895W        W19221  35.289  39.830   1.673
46896W        W19222  28.185  17.826   3.270
46897W        W19223  32.850  27.031  11.872
46898W        W19224  24.461   5.727   2.235
46899W        W19225  36.479  43.865   0.250
46900W        W19226   1.962  18.307   1.862
46901W        W19227  24.678  42.557  13.365
46902W        W19228  41.099  30.847  11.586
46903W        W19229  44.786   7.516   4.949
46904W        W19230  14.256  16.163  11.242
46905W        W19231  29.867   4.137   0.487
46906W        W19232  11.774  20.067   0.392
46907W        W19233  14.168  31.725  12.087
46908W        W19234  11.692  30.501  12.563
46909W        W19235  12.698  18.597   1.687
46910W        W19236   1.863   9.753   3.660
46911W        W19237  38.640  37.838  11.323
46912W        W19238  14.700  37.331  12.440
46913W        W19239  14.867   8.347   0.086
46914W        W19240  21.699  20.115   1.360
46915W        W19241  43.415   8.325  10.607
46916W        W19242  30.973  32.929   2.686
46917W        W19243  33.183  11.841  12.592
46918W        W19244  26.966   5.297  12.469
46919W        W19245  17.720  37.142   4.396
46920W        W19246  30.391  11.141  11.055
46921W        W19247   3.730  17.158   3.349
46922W        W19248  36.890  27.235  14.009
46923W        W19249  24.158  22.226   2.924
46924W        W19250  19.221  31.053   4.621
46925W        W19251  32.623  29.448   3.834
46926W        W19252  41.543  44.273  14.866
46927W        W19253   1.761  40.303   2.340
46928W        W19254  17.292  10.865  12.328
46929W        W19255  33.105  14.786   3.370
46930W        W19256  13.552   5.486  13.846
46931W        W19257  11.808  12.217   4.652
46932W        W19258  41.517  14.891  14.942
46933W        W19259  32.572  16.565  12.522
46934W        W19260  16.053  17.525   1.596
46935W        W19261   9.153  34.486  13.505
46936W        W19262   9.173   6.525   0.368
46937W        W19263  16.607  28.620  14.498
46938W        W19264  32.421  21.271   2.700
46939W        W19265  29.947  29.499   0.220
46940W        W19266  21.517  29.207   1.711
46941W        W19267   5.687  10.969   0.615
46942W        W19268  25.017  25.066   2.685
46943W        W19269   4.108   5.669   1.672
46944W        W19270  44.959  42.277   4.536
46945W        W19271  24.474  37.053  10.690
46946W        W19272  11.841  11.279  14.971
46947W        W19273   2.814   0.342  11.660
46948W        W19274  16.324  34.556  13.351
46949W        W19275  25.441  25.970   4.847
46950W        W19276   0.477  27.031  10.891
46951W        W19277  18.746  39.324  12.727
46952W        W19278   9.686  11.060   3.467
46953W        W19279   0.767  37.429  12.594
46954W        W19280  22.475  37.433  14.383
46955W        W19281   3.178  30.144   0.398
46956W        W19282  40.736  27.896   1.342
46957W        W19283  37.658  13.940   3.830
46958W        W19284  13.751  16.775   1.962
46959W        W19285   3.874  17.311   1.479
46960W        W19286  10.682  10.377   4.198
46961W        W19287   8.149  32.426   2.256
46962W        W19288  37.056  43.319  13.005
46963W        W19289   9.348  29.954   4.106
46964W        W19290  37.486  10.015   2.765
46965W        W19291  39.614  39.105  12.615
46966W        W19292   0.356   1.907  14.819
46967W        W19293  37.889  20.569   1.176
46968W        W19294  20.525   7.112  11.511
46969W        W19295  31.351  42.915   0.045
46970W        W19296  39.989  38.019   1.849
46971W        W19297   4.948   0.557  10.524
46972W        W19298  31.383  13.425   3.646
46973W        W19299  37.748  14.025   2.516
46974W        W19300  12.204  30.156   0.411
46975W        W19301  40.560   2.301  12.073
46976W        W19302  25.180  40.526   0.750
46977W        W19303  19.446  30.414  14.334
46978W        W19304  37.784  23.460  10.206
46979W        W19305  16.826  20.262  12.990
46980W        W19306  24.989  13.932   0.312
46981W        W19307  24.117  15.865   1.371
46982W        W19308   7.258  17.456  12.426
46983W        W19309  25.196  10.136   3.792
46984W        W19310  43.673  17.926   3.219
46985W        W19311   4.352  27.015   2.954
46986W        W19312  20.547   1.285  12.892
46987W        W19313  12.858  40.757   3.700
46988W        W19314  15.586  37.521  12.823
46989W        W19315  37.222  25.459   0.374
46990W        W19316  23.319  19.640  12.425
46991W        W19317  23.777  43.732  11.210
46992W        W19318  20.102   3.282   0.633
46993W        W19319  22.072   7.961  12.534
46994W        W19320   8.718  12.201  14.027
46995W        W19321   5.554  30.558   0.221
46996W        W19322  43.919  31.063   2.952
46997W        W19323  16.555  33.661  12.023
46998W        W19324  27.038  11.184   4.641
46999W        W19325  10.402   3.961  13.769
47000W        W19326  38.400   9.589  13.531
47001W        W19327  37.155  13.180   2.861
47002W        W19328   1.729  10.622   4.674
47003W        W19329  40.773   1.126  12.022
47004W        W19330  42.319  38.878  14.927
47005W        W19331  33.328  23.457   1.836
47006W        W19332  20.292  28.143  14.941
47007W        W19333  44.042  35.118  14.349
47008W        W19334  28.928  39.632   1.712
47009W        W19335  29.097  12.703   2.396
47010W        W19336  16.154   6.220   0.908
47011W        W19337  15.697   2.776   2.782
47012W        W19338  39.438  32.750  14.468
47013W        W19339  37.141  36.545   1.922
47014W        W19340   8.775  19.070   0.836
47015W        W19341  13.524  16.553   3.288
47016W        W19342  40.916  21.192  11.875
47017W        W19343  36.876  34.571   2.203
47018W        W19344   4.745  19.019  12.960
47019W        W19345  10.970  24.719   5.172
47020W        W19346  26.235  20.084   2.171
47021W        W19347  41.300  15.861   0.854
47022W        W19348  26.855   8.121  14.745
47023W        W19349  38.715  11.319  10.867
47024W        W19350   4.662  14.366  12.560
47025W        W19351  41.953  24.806  10.541
47026W        W19352  36.581  30.193   0.369
47027W        W19353   9.549  30.946  14.762
47028W        W19354  37.455  21.503   0.289
47029W        W19355  31.533  24.378  11.248
47030W        W19356  31.590  19.630   1.980
47031W        W19357   9.374  37.286  14.120
47032W        W19358  40.536  38.314   0.830
47033W        W19359   0.796  14.797   2.137
47034W        W19360  16.190  33.794   4.135
47035W        W19361  14.263  43.897  12.282
47036W        W19362  21.703   0.702   1.946
47037W        W19363  35.922  37.950   2.631
47038W        W19364  34.423  38.605   4.475
47039W        W19365  21.657   0.187   0.430
47040W        W19366  36.849  10.561  12.072
47041W        W19367  19.062   5.344  14.479
47042W        W19368  35.527  44.769   1.329
47043W        W19369   1.540  15.377   3.644
47044W        W19370   4.616  20.145  11.608
47045W        W19371  10.647  17.715  10.751
47046W        W19372  29.479  16.862   2.067
47047W        W19373  25.794   4.475  11.451
47048W        W19374   3.925  18.965  12.929
47049W        W19375   5.511   8.702  13.581
47050W        W19376   3.910  23.631  11.055
47051W        W19377  27.179  34.370  14.055
47052W        W19378  42.460  26.564   0.768
47053W        W19379  43.015  35.443  11.235
47054W        W19380  28.689  25.688  14.035
47055W        W19381  41.296  19.614  11.110
47056W        W19382  33.869  17.388   2.965
47057W        W19383  36.469  29.418   1.817
47058W        W19384  30.491  13.817   0.717
47059W        W19385   7.461  27.179   1.267
47060W        W19386  13.817  38.564   2.291
47061W        W19387   8.991  24.125  14.416
47062W        W19388  36.376   5.682  13.784
47063W        W19389  24.487  22.583   1.144
47064W        W19390  19.329   7.130  13.953
47065W        W19391  25.034  22.303   2.183
47066W        W19392   5.786  42.034   2.216
47067W        W19393  23.736  39.397  12.483
47068W        W19394  44.986  40.748  12.648
47069W        W19395   2.100  13.915   1.766
47070W        W19396  32.590  35.318  11.545
47071W        W19397  14.769   2.754   0.937
47072W        W19398  18.638  42.853   1.577
47073W        W19399  13.886  41.997  11.166
47074W        W19400  41.541  18.192   0.275
47075W        W19401  32.194   5.422   3.631
47076W        W19402  14.097  28.654  14.430
47077W        W19403  18.960  37.380  12.240
47078W        W19404   7.879   3.010  13.131
47079W        W19405  42.307  19.284   3.541
47080W        W19406  18.905  21.527  14.267
47081W        W19407   5.072  29.730  10.532
47082W        W19408  42.868   3.742  11.440
47083W        W19409  31.361  19.645  12.867
47084W        W19410  28.088  11.920   3.541
47085W        W19411  18.106  32.053  14.186
47086W        W19412  18.092  35.324  11.172
47087W        W19413  27.583   4.701   3.497
47088W        W19414   9.148   5.212   0.062
47089W        W19415  25.754  35.021  12.482
47090W        W19416   8.182  13.254  11.151
47091W        W19417   3.543  34.082  12.486
47092W        W19418  44.316   8.934  11.661
47093W        W19419  44.761  31.981   3.122
47094W        W19420  29.533  14.146   2.869
47095W        W19421   6.146  43.248   1.882
47096W        W19422   1.049   6.727  13.307
47097W        W19423  28.190   4.472   1.289
47098W        W19424  42.790  40.430   3.961
47099W        W19425  33.519  25.511  13.902
47100W        W19426  39.382  12.522   5.057
47101W        W19427  12.115   1.295   0.815
47102W        W19428  15.141   2.983   3.637
47103W        W19429  12.664   8.813  10.555
47104W        W19430  41.526  42.255  11.516
47105W        W19431   1.417  17.824   4.216
47106W        W19432  42.371  35.447   0.345
47107W        W19433  20.399  40.116  13.372
47108W        W19434  23.752  37.042   2.345
47109W        W19435  19.991  39.142  11.206
47110W        W19436  22.231   4.219   3.225
47111W        W19437  21.964  37.786  11.515
47112W        W19438  32.278  12.665  13.912
47113W        W19439  41.875  38.553   2.132
47114W        W19440  39.965  28.098  14.334
47115W        W19441  36.086   2.312  11.864
47116W        W19442  24.190  24.114   4.637
47117W        W19443   7.879  19.215  13.879
47118W        W19444  22.140  41.507   2.641
47119W        W19445  22.062   0.862  12.120
47120W        W19446  34.402  34.044  10.154
47121W        W19447  19.635  17.833   0.203
47122W        W19448   9.276  39.516   0.710
47123W        W19449  32.499   0.064  11.173
47124W        W19450  17.676  40.348   1.644
47125W        W19451  36.065  43.478   0.305
47126W        W19452  32.461   0.306   4.702
47127W        W19453  33.553  43.103   2.602
47128W        W19454  29.649  14.151   3.871
47129W        W19455  14.295  15.813   3.729
47130W        W19456   5.326  16.319   4.080
47131W        W19457  15.136  36.405  10.809
47132W        W19458  44.831  18.555   2.721
47133W        W19459  44.226  11.343  12.382
47134W        W19460   4.173  25.959   1.751
47135W        W19461  18.013  19.294   4.598
47136W        W19462   9.176  43.982  14.872
47137W        W19463  42.384  42.609   0.280
47138W        W19464  22.731  32.938   1.933
47139W        W19465  30.942  20.372  12.506
47140W        W19466  13.597   6.872   0.861
47141W        W19467  44.291   5.254  11.112
47142W        W19468  19.536  13.383  14.600
47143W        W19469  33.093  14.597  10.666
47144W        W19470  24.308   2.803   0.684
47145W        W19471  40.401  40.192  14.561
47146W        W19472  26.738   7.191  13.876
47147W        W19473  10.118  15.716  10.713
47148W        W19474  22.486  13.738  11.482
47149W        W19475  26.083  40.940  12.481
47150W        W19476  13.371   7.761   0.385
47151W        W19477   4.803  19.386   4.170
47152W        W19478  38.933  36.053   1.852
47153W        W19479   8.302  17.063   4.597
47154W        W19480  18.864  38.138   1.605
47155W        W19481   9.802  32.847  12.006
47156W        W19482  23.182   3.460  14.828
47157W        W19483   9.636  15.297  14.344
47158W        W19484  22.926  37.529  11.996
47159W        W19485  42.224  13.978   5.390
47160W        W19486  34.934  27.052  11.379
47161W        W19487  31.637  31.107  13.878
47162W        W19488   8.876  17.170  14.018
47163W        W19489  16.610  19.655   0.434
47164W        W19490   6.188  28.197  13.267
47165W        W19491  43.378  18.608   1.808
47166W        W19492  16.296  23.798  13.473
47167W        W19493  15.590  39.309  10.643
47168W        W19494  27.747   9.914  10.748
47169W        W19495  34.639  32.256  11.405
47170W        W19496  19.148  27.663   2.630
47171W        W19497  42.361   9.685  12.925
47172W        W19498  31.147  42.034   1.452
47173W        W19499   6.430  39.977   3.176
47174W        W19500  26.738  38.346  14.469
47175W        W19501  24.632  17.677   2.211
47176W        W19502  12.532  20.196  14.997
47177W        W19503  28.982  36.396   2.371
47178W        W19504  35.866  39.213   1.589
47179W        W19505  14.311  13.146   1.845
47180W        W19506  37.163  36.094   0.738
47181W        W19507  10.174  14.706  13.901
47182W        W19508  11.104  39.787  12.378
47183W        W19509   8.076  30.638   3.166
47184W        W19510   3.897  36.371   4.297
47185W        W19511  27.826  20.283   4.164
47186W        W19512  37.110  30.890   3.857
47187W        W19513  34.399  43.698   0.157
47188W        W19514  20.543  26.529   3.645
47189W        W19515  38.488   2.727   0.523
47190W        W19516  23.305   4.847  14.268
47191W        W19517  12.640  30.174  12.819
47192W        W19518  29.411  39.340  13.961
47193W        W19519  16.540  44.422  11.146
47194W        W19520  14.323  34.918  14.886
47195W        W19521   4.636  29.986   2.245
47196W        W19522  13.129  34.677   1.201
47197W        W19523  35.472  32.875  14.955
47198W        W19524  29.537  13.950  14.912
47199W        W19525  34.980  20.801   2.563
47200W        W19526  28.351  38.172  12.569
47201W        W19527  33.849   9.374   3.862
47202W        W19528  36.979  29.080   0.758
47203W        W19529  30.175  43.061   3.118
47204W        W19530  43.068  26.259  11.684
47205W        W19531   7.905   8.635   0.385
47206W        W19532  19.349   3.428   3.331
47207W        W19533   7.316  13.378   1.349
47208W        W19534  12.919  35.953   2.860
47209W        W19535  43.266   3.417  14.425
47210W        W19536   0.798  25.308  12.790
47211W        W19537  44.007  40.316   2.863
47212W        W19538   7.368  36.365  11.106
47213W        W19539  40.302  11.041   4.359
47214W        W19540  20.500  20.559   2.874
47215W        W19541  35.069  30.155  12.447
47216W        W19542  37.462  38.817   1.922
47217W        W19543  20.335  16.433  11.253
47218W        W19544  10.203  28.757  14.387
47219W        W19545   2.601   4.544  10.152
47220W        W19546  25.107   5.625  12.364
47221W        W19547   2.499   8.492   3.775
47222W        W19548  21.438  11.323   3.652
47223W        W19549  29.360  31.670  11.969
47224W        W19550  37.411  27.910  13.919
47225W        W19551  38.454   5.657   0.432
47226W        W19552  10.662   2.666  14.836
47227W        W19553  33.121   8.001   3.241
47228W        W19554  23.035   6.127  11.037
47229W        W19555  17.370   4.467   1.207
47230W        W19556  28.157   6.898  11.257
47231W        W19557  36.885  35.499   2.162
47232W        W19558   3.938  27.703   0.305
47233W        W19559  14.825  41.234   0.746
47234W        W19560  35.001  25.938   0.966
47235W        W19561   4.382   9.787   1.309
47236W        W19562  18.670  29.879  10.583
47237W        W19563  10.571  41.861  14.844
47238W        W19564  24.818   8.902   1.783
47239W        W19565  26.155  15.848   2.843
47240W        W19566  13.079  14.559   2.890
47241W        W19567  30.997   3.371  12.447
47242W        W19568  15.158  15.187   0.249
47243W        W19569   3.801  18.502   2.741
47244W        W19570  29.653  18.513   1.882
47245W        W19571  32.200  24.259  14.481
47246W        W19572  25.648  30.030   0.790
47247W        W19573  30.539   7.747   0.174
47248W        W19574  14.376  14.166   4.717
47249W        W19575  28.999   6.813  11.686
47250W        W19576   5.428  12.231   2.353
47251W        W19577   0.249  15.360  13.859
47252W        W19578   6.379   1.410  14.911
47253W        W19579  10.416  25.962   3.241
47254W        W19580  24.697  44.363  14.482
47255W        W19581  41.083  29.124  11.095
47256W        W19582  11.495  34.447   1.997
47257W        W19583  28.070  19.147  13.238
47258W        W19584  15.773  38.818  11.542
47259W        W19585  28.438  22.231   0.261
47260W        W19586  17.250  33.856  11.111
47261W        W19587  16.056   0.343   0.701
47262W        W19588  10.626  21.200   3.683
47263W        W19589   4.957  44.241  11.612
47264W        W19590  32.208  19.107  11.992
47265W        W19591  33.714  16.447   2.950
47266W        W19592  28.944   7.814  13.537
47267W        W19593  12.727  21.525   2.855
47268W        W19594  35.422  43.056   3.746
47269W        W19595  41.308  10.346  13.391
47270W        W19596  38.598  17.819  14.218
47271W        W19597  43.913   4.856  14.085
47272W        W19598  29.554  43.472   2.447
47273W        W19599  37.487   3.081  10.570
47274W        W19600  11.106  27.397   3.662
47275W        W19601  44.272   4.052  14.537
47276W        W19602  37.830  33.490  10.690
47277W        W19603  11.827   9.168   2.720
47278W        W19604  15.084  42.088  10.673
47279W        W19605  18.466  40.231   4.357
47280W        W19606   7.626   3.242   0.565
47281W        W19607  24.076  20.243   0.915
47282W        W19608   7.730  39.803   3.779
47283W        W19609  44.943  36.906  14.731
47284W        W19610   8.272   1.825  12.914
47285W        W19611  24.453   2.932   1.160
47286W        W19612  40.769   6.561  12.493
47287W        W19613  25.068  36.602   2.320
47288W        W19614  35.884  43.631   4.085
47289W        W19615  42.751  10.789  14.504
47290W        W19616  36.777  43.043   4.609
47291W        W19617  12.856   2.812  12.035
47292W        W19618  30.109  26.754   3.847
47293W        W19619   3.801   2.827   4.049
47294W        W19620  34.089   1.448  12.532
47295W        W19621   7.824  44.929  14.045
47296W        W19622  19.160   3.193  14.627
47297W        W19623  26.947   3.627  11.015
47298W        W19624  12.937  33.746   5.023
47299W        W19625  30.608  41.292  10.943
47300W        W19626  28.282  43.604  11.505
47301W        W19627  32.096  15.117  11.726
47302W        W19628  20.164   6.425   2.941
47303W        W19629  43.443  43.517   1.993
47304W        W19630  33.498  41.026   3.084
47305W        W19631  35.841  14.258   3.263
47306W        W19632  19.062  29.109   0.801
47307W        W19633  16.556   8.340   4.811
47308W        W19634  24.934  18.496  12.473
47309W        W19635  17.311  30.713  14.618
47310W        W19636  34.815  18.053   1.772
47311W        W19637  38.991   4.237   4.287
47312W        W19638  39.431   0.335   2.158
47313W        W19639  40.327  39.626  14.530
47314W        W19640  24.520  40.562   0.382
47315W        W19641   6.674  42.421  11.409
47316W        W19642  44.445  39.085   2.190
47317W        W19643  37.035  32.320  14.640
47318W        W19644  17.745  12.745  11.101
47319W        W19645  18.397  30.563  10.251
47320W        W19646  10.227  27.966  13.345
47321W        W19647  27.818   3.303   3.264
47322W        W19648  20.066  37.653   5.026
47323W        W19649   4.296  31.072  13.407
47324W        W19650  19.819   5.289   2.301
47325W        W19651  36.295   7.218  12.371
47326W        W19652  30.192   7.746   2.215
47327W        W19653  14.523  22.143   4.215
47328W        W19654   4.224   9.292  13.693
47329W        W19655   1.381  20.102  14.324
47330W        W19656  23.461  36.582   0.342
47331W        W19657  18.642  15.514   0.925
47332W        W19658  43.726  14.594   3.925
47333W        W19659  44.669   4.225  12.718
47334W        W19660   8.931  36.321   1.608
47335W        W19661  34.981   1.291   1.171
47336W        W19662  29.952  35.831  13.111
47337W        W19663   0.752   2.291  11.110
47338W        W19664  29.940  34.352  14.849
47339W        W19665  42.866   4.789   4.396
47340W        W19666  40.121  16.581  13.088
47341W        W19667  18.068  35.863  11.173
47342W        W19668   0.244  24.221   1.191
47343W        W19669  17.162   5.255   3.447
47344W        W19670  24.472  22.216  12.990
47345W        W19671  24.643  25.619   0.005
47346W        W19672  33.983  27.669   4.391
47347W        W19673  13.083  22.258   3.110
47348W        W19674  26.711  33.492   1.828
47349W        W19675  23.315  28.416   2.893
47350W        W19676   8.862  31.558   1.989
47351W        W19677   1.248   2.258  13.409
47352W        W19678  37.308   9.381   0.671
47353W        W19679  17.772  44.456   4.055
47354W        W19680   6.387  14.239   2.769
47355W        W19681   0.229   7.709  11.671
47356W        W19682  28.515  44.407  13.347
47357W        W19683  29.330  27.933  14.962
47358W        W19684  12.079  36.015  13.305
47359W        W19685   5.316  23.993   4.264
47360W        W19686  17.060  21.733  11.386
47361W        W19687   3.292   5.861  14.927
47362W        W19688  35.265   5.213   3.674
47363W        W19689  13.237  22.933  13.124
47364W        W19690   8.377  28.684   4.143
47365W        W19691  44.786  11.218  13.488
47366W        W19692  31.532  30.167   1.759
47367W        W19693   5.340  33.156  12.411
47368W        W19694  26.580  23.971  10.776
47369W        W19695  23.157  31.075   0.675
47370W        W19696  40.288  16.618   2.852
47371W        W19697  17.335   1.680   3.757
47372W        W19698  40.436  33.631   0.684
47373W        W19699  33.624  13.811  12.952
47374W        W19700  24.102   0.906   2.914
47375W        W19701  40.702  36.035  13.079
47376W        W19702  26.318  24.988   0.252
47377W        W19703   9.742  30.516   1.747
47378W        W19704  12.296  24.946   9.923
47379W        W19705   7.338   5.966   2.404
47380W        W19706  18.675   3.446  11.498
47381W        W19707  39.473  18.808   4.029
47382W        W19708  44.004  38.714  11.180
47383W        W19709   3.481  28.240   2.752
47384W        W19710  25.453   6.893  12.502
47385W        W19711  28.196  13.582   1.931
47386W        W19712  38.479  37.087  10.421
47387W        W19713  15.852  28.045  10.543
47388W        W19714  33.574   9.264  14.948
47389W        W19715  38.301  10.603  12.384
47390W        W19716   0.639  13.056   0.695
47391W        W19717   2.508  21.544  13.832
47392W        W19718   3.929  26.942  10.841
47393W        W19719  20.821   8.194   1.278
47394W        W19720  21.176  14.585   2.393
47395W        W19721  20.773  33.737  13.980
47396W        W19722  33.842   0.311  10.516
47397W        W19723  19.222  44.952   3.812
47398W        W19724  40.235  20.048  11.715
47399W        W19725  14.236  16.865   3.684
47400W        W19726  42.207  41.242   0.492
47401W        W19727  22.522  32.155  12.133
47402W        W19728  36.059   5.506   1.082
47403W        W19729  26.157  41.743   4.594
47404W        W19730  32.409  31.691  14.358
47405W        W19731  22.724  17.893   3.885
47406W        W19732  18.148  19.103   2.249
47407W        W19733   0.849  21.093   4.648
47408W        W19734  16.857  15.663  13.913
47409W        W19735  38.896  18.287   3.516
47410W        W19736  34.456  30.970  14.509
47411W        W19737  26.804  15.719  12.866
47412W        W19738  32.415  11.711  13.931
47413W        W19739  29.364  15.990   2.604
47414W        W19740   1.579  28.440  13.895
47415W        W19741  33.250  35.438  14.983
47416W        W19742  36.807  13.248  14.834
47417W        W19743  11.182  37.516  11.559
47418W        W19744   4.072  21.246   4.600
47419W        W19745  12.697  18.828  14.907
47420W        W19746   3.321   1.454   3.705
47421W        W19747  10.478  17.365  13.833
47422W        W19748  38.625  28.689   3.240
47423W        W19749  21.322  12.336   4.511
47424W        W19750  27.929  43.363   4.124
47425W        W19751  42.800   4.555  11.130
47426W        W19752  41.074  20.770   1.943
47427W        W19753  25.654  40.949   1.735
47428W        W19754   3.010  18.857   3.691
47429W        W19755   4.801   4.602   3.332
47430W        W19756  18.098  14.809   3.076
47431W        W19757  44.985  23.514   2.768
47432W        W19758  24.118  14.871   0.532
47433W        W19759   8.926  19.784  12.411
47434W        W19760  35.775   6.308  14.356
47435W        W19761  33.742  21.587   4.506
47436W        W19762   6.801  37.839  13.495
47437W        W19763   6.959  44.955   0.425
47438W        W19764  43.883  31.906   5.167
47439W        W19765  38.550   1.573  12.815
47440W        W19766   0.956  14.653   4.043
47441W        W19767  33.632  43.050  14.843
47442W        W19768  24.999  17.734  14.413
47443W        W19769  40.155  40.484  14.173
47444W        W19770  42.965  20.160  12.839
47445W        W19771   5.757  30.061  11.979
47446W        W19772  11.844  24.529   1.177
47447W        W19773  10.551  41.308  12.408
47448W        W19774  40.741  17.114   3.521
47449W        W19775   4.682  39.518   2.279
47450W        W19776  32.421   3.644   2.423
47451W        W19777   2.779  34.103   1.880
47452W        W19778   1.826  17.656  11.131
47453W        W19779  43.717  38.459   3.708
47454W        W19780  34.881   5.748   1.851
47455W        W19781  35.112  10.262  13.667
47456W        W19782   1.964  40.268   0.910
47457W        W19783  26.720  32.470  11.118
47458W        W19784  38.484  37.756   3.271
47459W        W19785  25.163  15.576   3.331
47460W        W19786  10.117  44.981  12.353
47461W        W19787   1.276  41.913   2.755
47462W        W19788  20.774  21.063  12.375
47463W        W19789  24.257  39.628  11.155
47464W        W19790  14.544   3.121  13.972
47465W        W19791   0.919  43.310   1.246
47466W        W19792  11.535   2.036  13.950
47467W        W19793   9.813  13.963  14.856
47468W        W19794  31.949   3.304   0.880
47469W        W19795  32.109  22.793   0.567
47470W        W19796  41.826  22.804   4.564
47471W        W19797  35.044   0.383   3.952
47472W        W19798  13.282  21.519  14.414
47473W        W19799  15.894   3.923   0.280
47474W        W19800  16.452  26.090  13.655
47475W        W19801  34.630   0.496   0.266
47476W        W19802  44.280   9.230  11.188
47477W        W19803   8.297  10.234   1.381
47478W        W19804  38.605  21.484   4.554
47479W        W19805   2.801  30.154   0.017
47480W        W19806   9.188  34.564  12.428
47481W        W19807  34.441  38.455   3.191
47482W        W19808  33.235  28.532   0.865
47483W        W19809  25.722  30.983   1.346
47484W        W19810   8.024  17.750  11.201
47485W        W19811  32.093  37.288  13.067
47486W        W19812  39.008   6.199   2.604
47487W        W19813  40.163  30.622  12.371
47488W        W19814  27.856  38.932  14.411
47489W        W19815  13.189  36.253   5.462
47490W        W19816   1.067  19.174  12.141
47491W        W19817  40.905   4.323   4.578
47492W        W19818  35.408  32.050  13.324
47493W        W19819  36.219  12.579  12.368
47494W        W19820  30.751  34.289  14.321
47495W        W19821  10.147   0.989   1.862
47496W        W19822  12.741   0.533  12.129
47497W        W19823  15.107  17.677  10.864
47498W        W19824  44.846  35.282   2.462
47499W        W19825   2.039  15.392   1.839
47500W        W19826  41.960  21.516  10.580
47501W        W19827   5.288  37.074   3.345
47502W        W19828  18.147  30.214   1.242
47503W        W19829   2.724   3.373   2.851
47504W        W19830  14.205   0.874  14.860
47505W        W19831   3.299  25.168  14.831
47506W        W19832  13.354  20.183  12.365
47507W        W19833  39.761  14.110  10.542
47508W        W19834  42.466   8.106   3.758
47509W        W19835  10.659  35.439   0.386
47510W        W19836  18.626  22.545  12.470
47511W        W19837  13.371  41.464   1.024
47512W        W19838  11.692   8.474   1.738
47513W        W19839   7.889   4.549  12.590
47514W        W19840  25.718  42.786  13.926
47515W        W19841  31.984  23.046   0.121
47516W        W19842  38.399  18.668  13.079
47517W        W19843  39.417  43.837   0.985
47518W        W19844  44.477  39.892   1.618
47519W        W19845  28.061   3.320  14.041
47520W        W19846  20.090  31.922   4.149
47521W        W19847  24.224  43.803   1.205
47522W        W19848  24.611  36.816  12.364
47523W        W19849   4.963   4.092   3.300
47524W        W19850  25.133  34.384   3.637
47525W        W19851   5.348  34.085   2.623
47526W        W19852  22.626  24.133   0.934
47527W        W19853   2.680  18.690  14.367
47528W        W19854  11.700  14.837  12.446
47529W        W19855   4.429  32.286  14.877
47530W        W19856  11.806  24.466   4.752
47531W        W19857  38.030  26.192  12.818
47532W        W19858  38.911  33.234   3.207
47533W        W19859  40.444   1.995  13.092
47534W        W19860  24.977   0.571  12.072
47535W        W19861  29.716  41.075  14.378
47536W        W19862  30.513  36.305   0.828
47537W        W19863   6.733   7.247  12.063
47538W        W19864  14.646  15.301   0.375
47539W        W19865   1.428   4.365  14.661
47540W        W19866  20.242   0.300  12.897
47541W        W19867  13.939  29.473   1.762
47542W        W19868  23.164  38.089   1.438
47543W        W19869   9.762  44.934  10.998
47544W        W19870  10.303  29.144   0.401
47545W        W19871  31.622  25.589   2.640
47546W        W19872  21.890  30.403   4.326
47547W        W19873   8.823  40.863   3.910
47548W        W19874   0.915   2.850   1.299
47549W        W19875  37.951   8.191   4.901
47550W        W19876  32.448  11.622  12.910
47551W        W19877   8.780  15.431  10.045
47552W        W19878  40.863  31.491  11.008
47553W        W19879  21.163  31.216  10.751
47554W        W19880  14.101   4.824   4.266
47555W        W19881  35.494  14.002  13.044
47556W        W19882   9.630  28.481   2.323
47557W        W19883  19.032  31.516  12.460
47558W        W19884  15.243  23.695   4.512
47559W        W19885   9.623  25.666   2.303
47560W        W19886  17.228  32.477  11.000
47561W        W19887  30.881   2.095  12.008
47562W        W19888  17.610   3.436   0.650
47563W        W19889  37.169  23.917   1.362
47564W        W19890  40.790  20.281  10.379
47565W        W19891   7.932  36.097   2.346
47566W        W19892   6.146  21.675  12.442
47567W        W19893  13.327  41.060   3.411
47568W        W19894  34.959  40.632  11.596
47569W        W19895  35.403   7.292  10.503
47570W        W19896   1.410  35.095  11.975
47571W        W19897   6.308  10.920   1.808
47572W        W19898  23.772  44.850  12.580
47573W        W19899   1.350  20.056   0.425
47574W        W19900  36.278  30.733  13.859
47575W        W19901  34.910  32.026  13.487
47576W        W19902  37.930  25.613   4.863
47577W        W19903  40.929  22.056   3.361
47578W        W19904  34.013  20.475  11.653
47579W        W19905  42.419   3.937  11.665
47580W        W19906   8.356  12.076   1.916
47581W        W19907  24.002  20.603  13.841
47582W        W19908   5.732  23.435  11.281
47583W        W19909   8.883  41.938  13.404
47584W        W19910  11.785  41.342   0.171
47585W        W19911   9.596   8.186   0.736
47586W        W19912  28.230  26.593   4.132
47587W        W19913  12.241  37.857   1.828
47588W        W19914  14.713  42.734   2.741
47589W        W19915  14.166  19.899  10.788
47590W        W19916   0.933  19.114   2.119
47591W        W19917  23.200  41.034   0.511
47592W        W19918  16.547  32.340  12.419
47593W        W19919  40.341  21.311   3.255
47594W        W19920  37.383  37.100  11.198
47595W        W19921  12.199   8.412  12.134
47596W        W19922  42.815  26.081  13.197
47597W        W19923  28.599  33.662  14.897
47598W        W19924   0.318   0.537   0.307
47599W        W19925  12.628  31.802  12.405
47600W        W19926  26.445  30.543   3.786
47601W        W19927  40.763   2.366   0.934
47602W        W19928  18.267  27.747  13.389
47603W        W19929  22.855  35.550   3.298
47604W        W19930   8.303   0.420  14.442
47605W        W19931  11.296  41.690   1.708
47606W        W19932  17.442  10.349  14.963
47607W        W19933  30.467  15.530  13.464
47608W        W19934  12.289  31.655   3.336
47609W        W19935  11.633  23.053   3.867
47610W        W19936  44.695  32.656  13.500
47611W        W19937  38.402  38.891  13.966
47612W        W19938   0.801  39.367   2.661
47613W        W19939  22.218  13.268  11.462
47614W        W19940  22.093   1.018   1.838
47615W        W19941  42.092  32.973   3.599
47616W        W19942   9.284  32.031  10.867
47617W        W19943   9.861  30.875   2.128
47618W        W19944  38.919  30.028   1.928
47619W        W19945  33.923  38.237  11.315
47620W        W19946   0.882  20.212  11.465
47621W        W19947  38.640  21.995   4.609
47622W        W19948  24.154  12.571  10.600
47623W        W19949   2.917   1.852   0.746
47624W        W19950  42.527  13.373   0.972
47625W        W19951  21.480  10.216  14.092
47626W        W19952  26.692  44.799  10.862
47627W        W19953  12.564  31.330  12.995
47628W        W19954  25.663  37.361  13.458
47629W        W19955  40.663  27.227   2.551
47630W        W19956  30.238  22.667   4.163
47631W        W19957  38.453  35.636   3.598
47632W        W19958   5.922   3.235   2.214
47633W        W19959  34.208  36.096  13.526
47634W        W19960  32.658  13.311   2.786
47635W        W19961  18.617  22.877  11.504
47636W        W19962  10.620   9.786   2.624
47637W        W19963  36.819  38.749  14.569
47638W        W19964  11.727  41.050  12.106
47639W        W19965  43.879  42.841   3.664
47640W        W19966  24.165  16.274  12.224
47641W        W19967  30.615  14.826   0.023
47642W        W19968  24.283  14.694   2.755
47643W        W19969  21.614  14.135  14.029
47644W        W19970  27.767   2.788   3.215
47645W        W19971  16.409  40.925  13.048
47646W        W19972   1.344  43.585   1.314
47647W        W19973  41.474  28.083   0.576
47648W        W19974  35.622  33.743  11.505
47649W        W19975  10.352  33.825   1.864
47650W        W19976  32.685   3.334   1.450
47651W        W19977  18.595  22.122   0.255
47652W        W19978  13.421   4.749   3.717
47653W        W19979  32.368  28.034   2.829
47654W        W19980  25.698  10.021   2.961
47655W        W19981  15.289  17.219  13.014
47656W        W19982  27.900  24.984  13.658
47657W        W19983  37.965  35.811   4.138
47658W        W19984  38.462  23.775  13.024
47659W        W19985   6.693  32.092   0.027
47660W        W19986  43.924  13.848   4.694
47661W        W19987   6.138  36.624   2.879
47662W        W19988  39.360  41.013  14.526
47663W        W19989  24.513  14.420  11.193
47664W        W19990  24.426  37.428   4.633
47665W        W19991  40.886  12.402   2.093
47666W        W19992  24.622  31.125   4.132
47667W        W19993  19.226   6.374  13.520
47668W        W19994  25.172  36.319  13.432
47669W        W19995  21.813  15.856   3.287
47670W        W19996  24.515  11.184   0.892
47671W        W19997  37.076  29.261   2.679
47672W        W19998   6.726  17.325   0.868
47673W        W19999  19.857  42.765   2.391
47674W        W20000  42.033   2.754   0.797
47675W        W20001  13.841  37.083  11.876
47676W        W20002  33.459  40.804  12.476
47677W        W20003   8.573   3.765   1.171
47678W        W20004  39.872   6.766  13.443
47679W        W20005   3.284   7.996  13.868
47680W        W20006   8.926  20.210  10.763
47681W        W20007  22.771  21.366   2.287
47682W        W20008  21.784  26.762  11.803
47683W        W20009  31.970  34.000  13.572
47684W        W20010  32.963  18.773   4.198
47685W        W20011  33.628  31.902  12.053
47686W        W20012  37.136  11.336   4.674
47687W        W20013  41.284  14.133  10.877
47688W        W20014   4.500  39.725   4.272
47689W        W20015  15.784  33.903   1.834
47690W        W20016  34.450  44.717  12.686
47691W        W20017  36.096  29.255  14.876
47692W        W20018  26.301  43.845   4.605
47693W        W20019  18.751  17.971   2.003
47694W        W20020  34.484  27.940  12.167
47695W        W20021  19.489  30.576  12.509
47696W        W20022  39.081  12.426   5.854
47697W        W20023  41.655  14.121   4.726
47698W        W20024  19.241  13.105   3.736
47699W        W20025  11.966   7.549   4.448
47700W        W20026  42.484   4.736   4.755
47701W        W20027  19.076  40.492  13.632
47702W        W20028   1.068   1.251   1.431
47703W        W20029  15.132  36.939  13.358
47704W        W20030   8.286  29.678  11.717
47705W        W20031  38.469  26.066  13.426
47706W        W20032  43.747  31.475   3.224
47707W        W20033  27.175  19.010   4.397
47708W        W20034  23.642  37.504  13.796
47709W        W20035  19.188   0.098   2.738
47710W        W20036  38.434   9.650  14.854
47711W        W20037  40.958  26.122   0.886
47712W        W20038   9.943   2.855  14.558
47713W        W20039  26.558  36.223  12.571
47714W        W20040   4.960  18.721  11.644
47715W        W20041  16.345  28.473   2.017
47716W        W20042   8.425  28.498  13.818
47717W        W20043  13.370  21.100  13.463
47718W        W20044  31.903  23.206  14.606
47719W        W20045   5.161   6.951   4.888
47720W        W20046   1.234  35.433  13.961
47721W        W20047   6.445  43.797  14.032
47722W        W20048  11.266  11.638   0.468
47723W        W20049  11.831  29.003  13.007
47724W        W20050  34.092  10.012  12.622
47725W        W20051  10.460  40.745   2.221
47726W        W20052  21.690  21.078  13.068
47727W        W20053  34.130  20.726  13.370
47728W        W20054  40.498   5.177  11.606
47729W        W20055  19.167  32.436   2.779
47730W        W20056   7.715  35.821  11.620
47731W        W20057  44.198  27.969   2.334
47732W        W20058  32.466  16.486   3.218
47733W        W20059  19.141  18.134   1.696
47734W        W20060   1.699  15.833  13.912
47735W        W20061  20.646  37.713   5.087
47736W        W20062   6.389   2.513  11.851
47737W        W20063  44.471   9.723  12.088
47738W        W20064   6.830  17.778  12.509
47739W        W20065  27.036  42.044   0.467
47740W        W20066  20.109  38.273   3.185
47741W        W20067  25.696  43.352  11.940
47742W        W20068  29.414   8.055   4.339
47743W        W20069  15.641  12.383   3.334
47744W        W20070  15.220  27.179   1.149
47745W        W20071  27.182  23.893   3.257
47746W        W20072  12.389  35.989   2.853
47747W        W20073  18.478  37.408   2.869
47748W        W20074  12.361   7.792  13.032
47749W        W20075  37.422  22.233   1.746
47750W        W20076  32.481  11.909  10.789
47751W        W20077  42.943  16.321  14.850
47752W        W20078   4.184  10.461   4.577
47753W        W20079  42.508   7.505   9.846
47754W        W20080  42.261  20.453  14.902
47755W        W20081  33.730  34.259  12.355
47756W        W20082  24.245  27.433   3.242
47757W        W20083   3.993  30.635   1.827
47758W        W20084  11.838  34.034  13.686
47759W        W20085  14.956  23.444   4.111
47760W        W20086  34.959  23.573   2.297
47761W        W20087  16.069  43.303   3.778
47762W        W20088  13.095  42.546   3.601
47763W        W20089  11.781  16.750   1.344
47764W        W20090  44.582  39.041   1.135
47765W        W20091  12.205   3.148  14.684
47766W        W20092  17.304   4.810  11.101
47767W        W20093  15.154  27.637   1.385
47768W        W20094  25.747   8.893  12.632
47769W        W20095  21.324  15.594   0.904
47770W        W20096  33.408  21.270  11.618
47771W        W20097  33.569   0.781   2.649
47772W        W20098   5.404   1.354   2.228
47773W        W20099  44.382   7.247   1.011
47774W        W20100  39.877   6.868  11.404
47775W        W20101   0.781  10.146   3.538
47776W        W20102  12.250  16.455   4.774
47777W        W20103  37.564  36.929   0.660
47778W        W20104  27.713  24.016   3.281
47779W        W20105  15.302  30.191   0.505
47780W        W20106  35.044  43.997   3.739
47781W        W20107   5.177  31.468  12.933
47782W        W20108   0.762  17.693  13.173
47783W        W20109  13.784  16.112   4.112
47784W        W20110  38.127  30.596  13.598
47785W        W20111   8.816   3.720  10.457
47786W        W20112  29.538  26.314   5.074
47787W        W20113  31.431  26.583  13.851
47788W        W20114  14.054   8.891  10.266
47789W        W20115  30.549  11.048  13.447
47790W        W20116  39.519  29.366  14.564
47791W        W20117  30.648   9.917  14.442
47792W        W20118  13.736  22.107  14.143
47793W        W20119  22.488  11.321   4.663
47794W        W20120  19.110  43.772   4.330
47795W        W20121   8.550  33.397   5.041
47796W        W20122  16.643  31.650   2.890
47797W        W20123  20.447  35.611   2.810
47798W        W20124  43.503  38.994   2.576
47799W        W20125  39.289   5.334  14.489
47800W        W20126  20.061  43.243   2.400
47801W        W20127   7.927  23.997  11.991
47802W        W20128  18.034  44.400  12.697
47803W        W20129  18.384  27.205   2.475
47804W        W20130  16.800  43.866  13.759
47805W        W20131  29.450  19.021   2.739
47806W        W20132   3.841  33.575   3.131
47807W        W20133   5.467  24.784  13.255
47808W        W20134  41.275  22.710   3.274
47809W        W20135   1.495  28.252  14.738
47810W        W20136  16.005  33.292   4.169
47811W        W20137  24.505   7.759  12.442
47812W        W20138  11.891  34.334   1.679
47813W        W20139  28.045  26.775  11.953
47814W        W20140   7.681  39.086   1.760
47815W        W20141   4.713  34.819   0.729
47816W        W20142  15.276  23.687  11.102
47817W        W20143  32.949  24.914   3.842
47818W        W20144  22.185  21.035  14.737
47819W        W20145   5.400   9.460   1.242
47820W        W20146  24.972   3.426   4.718
47821W        W20147  15.750  31.824  12.901
47822W        W20148  15.063  36.832  11.520
47823W        W20149  40.989   2.057  11.845
47824W        W20150  40.016  41.833  10.741
47825W        W20151   6.529  43.461   3.683
47826W        W20152  14.536  20.190   2.348
47827W        W20153  42.018  24.605   3.375
47828W        W20154   6.277  31.241  13.826
47829W        W20155  40.756  30.156   4.587
47830W        W20156   8.139  21.010   3.658
47831W        W20157  28.627  33.905  12.999
47832W        W20158  29.681  42.351   1.643
47833W        W20159  33.376   0.581   4.131
47834W        W20160  12.174  37.282   1.703
47835W        W20161  29.552  26.530  10.867
47836W        W20162  28.021  18.547  14.903
47837W        W20163  13.103  23.537  11.118
47838W        W20164  31.514  29.088   0.806
47839W        W20165  29.213  16.827   1.337
47840W        W20166  30.349  30.961  14.232
47841W        W20167  39.263  42.760   4.995
47842W        W20168  33.168  38.254  12.551
47843W        W20169  22.711  18.097  12.803
47844W        W20170  25.049  35.406   3.886
47845W        W20171   9.711  10.647   1.658
47846W        W20172  30.617   1.273   0.256
47847W        W20173  28.286  23.815   2.840
47848W        W20174  40.130   8.447   0.313
47849W        W20175   3.157  22.286   4.867
47850W        W20176  30.719  38.946   2.373
47851W        W20177  43.008  18.684   2.365
47852W        W20178  38.875  31.465  11.956
47853W        W20179  24.644  10.411   1.912
47854W        W20180   1.701  34.930  11.527
47855W        W20181  27.185  27.586  13.043
47856W        W20182  15.626  19.588  10.757
47857W        W20183  39.049  10.164  13.835
47858W        W20184  10.760  19.620  13.049
47859W        W20185  27.385  33.066   3.056
47860W        W20186  10.873  32.551   1.422
47861W        W20187  40.492  37.931   1.220
47862W        W20188  34.639  20.416   0.018
47863W        W20189   6.242  13.814  11.175
47864W        W20190  33.618   9.297  12.880
47865W        W20191  18.112  13.294   2.674
47866W        W20192  40.975  18.273   4.739
47867W        W20193  10.252   7.445   3.066
47868W        W20194  43.439  17.076   2.889
47869W        W20195  14.651   4.539   1.891
47870W        W20196  28.581  33.392   1.668
47871W        W20197  27.257  35.161  10.995
47872W        W20198  12.491  11.281  13.323
47873W        W20199  12.298   9.152  13.119
47874W        W20200  29.468   5.869  12.932
47875W        W20201  34.886  30.664  10.633
47876W        W20202  16.054  10.076  10.122
47877W        W20203   5.321  23.590   1.974
47878W        W20204  13.717  42.820   2.885
47879W        W20205  33.508  31.697  13.473
47880W        W20206  12.156   5.835   3.693
47881W        W20207  24.650  10.371  14.189
47882W        W20208  33.495  33.060   4.092
47883W        W20209  33.269  18.482   2.728
47884W        W20210  21.010  37.276  11.667
47885W        W20211  14.722   0.138   2.886
47886W        W20212  37.038  38.503  13.743
47887W        W20213   0.917  42.740  13.705
47888W        W20214  14.691   6.589   2.346
47889W        W20215  13.754  39.750  10.567
47890W        W20216  37.395  39.075  10.519
47891W        W20217  13.206  23.503  12.570
47892W        W20218  28.995   2.424  12.875
47893W        W20219   9.251   5.471   1.287
47894W        W20220  29.598  27.569   4.883
47895W        W20221  31.151  44.963   3.650
47896W        W20222  38.456  33.150   0.452
47897W        W20223  17.539  27.744  12.991
47898W        W20224   9.758  22.172   1.471
47899W        W20225  40.050  38.052   0.417
47900W        W20226   9.583  36.447   4.913
47901W        W20227  18.187  32.908   4.635
47902W        W20228   1.025   2.130  10.269
47903W        W20229  23.555  43.797  10.732
47904W        W20230   9.376   6.160  14.164
47905W        W20231  18.054  18.603   2.437
47906W        W20232  31.429   6.867  11.154
47907W        W20233  22.441  25.702   4.167
47908W        W20234   6.445   1.842  13.515
47909W        W20235  23.089  20.081   1.382
47910W        W20236   9.727  23.745   0.660
47911W        W20237  37.412  26.522  13.327
47912W        W20238  42.514   8.700  11.453
47913W        W20239  42.735  43.816   1.271
47914W        W20240   7.357  16.549  14.016
47915W        W20241   1.474  19.948   3.213
47916W        W20242   6.315  31.684  10.454
47917W        W20243  36.044  11.415  11.118
47918W        W20244   0.714  35.384  13.825
47919W        W20245  14.575  21.115   4.175
47920W        W20246  40.833  37.854  10.604
47921W        W20247  39.679  11.386  13.915
47922W        W20248  16.518  33.397   0.345
47923W        W20249   6.702  13.575  11.165
47924W        W20250  44.986  36.914   3.606
47925W        W20251   2.008  10.865   1.362
47926W        W20252  15.342  40.638   2.582
47927W        W20253   8.379  27.023   0.980
47928W        W20254  27.534  16.290   4.561
47929W        W20255  26.488  42.583  13.916
47930W        W20256  41.903  27.095   2.912
47931W        W20257  15.277  19.525   0.914
47932W        W20258  26.994  14.666  11.073
47933W        W20259   0.539  30.470   2.812
47934W        W20260  15.829  44.787   3.698
47935W        W20261   2.411  23.651  14.545
47936W        W20262   2.528  43.584   4.168
47937W        W20263   5.799  11.449   0.482
47938W        W20264  20.768   8.945   4.574
47939W        W20265  26.899  43.383   3.447
47940W        W20266  32.976  25.640  13.164
47941W        W20267  30.558  21.797   3.234
47942W        W20268  34.219  30.722   1.222
47943W        W20269   4.975   0.334   2.206
47944W        W20270  42.956  36.608   2.085
47945W        W20271  33.984  22.758   1.794
47946W        W20272  23.641  20.311   3.207
47947W        W20273  37.922  33.540  10.165
47948W        W20274  23.164  41.541  10.797
47949W        W20275  21.309  39.764   0.883
47950W        W20276   2.222  29.180  14.318
47951W        W20277   4.476  22.048  12.073
47952W        W20278  21.126  15.140  14.725
47953W        W20279  21.277  39.864  13.623
47954W        W20280  36.623  12.043   3.276
47955W        W20281   3.643  35.944  12.092
47956W        W20282  27.205   4.970   2.692
47957W        W20283   4.720  11.378   4.637
47958W        W20284   6.865  32.595   0.887
47959W        W20285  37.134  40.527  14.321
47960W        W20286  33.959  40.666   3.686
47961W        W20287  16.586  16.589   2.790
47962W        W20288  15.329   7.803  13.474
47963W        W20289   2.384   7.633  13.551
47964W        W20290   2.990  43.963   1.805
47965W        W20291  28.503  21.532  13.103
47966W        W20292  33.174  27.065   0.282
47967W        W20293  21.620  13.565   2.754
47968W        W20294   1.848  24.752  12.885
47969W        W20295   2.910  41.556   2.731
47970W        W20296  12.122  41.229   1.136
47971W        W20297  14.276  25.912  14.425
47972W        W20298  41.460  20.294  11.975
47973W        W20299  18.007   6.323   4.051
47974W        W20300   7.371  40.349   0.882
47975W        W20301  16.060  34.379   2.321
47976W        W20302  30.947  43.992  11.990
47977W        W20303  20.606  31.816   1.602
47978W        W20304  19.112  20.753  10.930
47979W        W20305  33.043  20.037   3.818
47980W        W20306   0.933   5.380  14.722
47981W        W20307  34.912  11.007  10.631
47982W        W20308  20.168  36.890  14.277
47983W        W20309  32.560  21.357  14.889
47984W        W20310  25.139  11.563  14.690
47985W        W20311  29.131   8.783   0.806
47986W        W20312  19.611  40.022   4.624
47987W        W20313  41.916  18.718  12.306
47988W        W20314   6.727   3.168   0.882
47989W        W20315  40.263   0.440  11.595
47990W        W20316  32.029  29.316   1.745
47991W        W20317   3.265  42.301   2.903
47992W        W20318  28.262   3.948   3.730
47993W        W20319   1.203   5.352   3.884
47994W        W20320  30.099  16.198  12.433
47995W        W20321  39.702  15.710  11.188
47996W        W20322  19.184  34.130  10.627
47997W        W20323  20.022  26.259   4.236
47998W        W20324  18.979   2.423  13.439
47999W        W20325  18.253  18.823  13.260
48000W        W20326  39.469  37.327  12.851
48001W        W20327  11.711  37.434  14.792
48002W        W20328  19.840  34.117  12.252
48003W        W20329  38.782  40.900   3.566
48004W        W20330  38.774  37.789   2.335
48005W        W20331  35.540  27.531   2.180
48006W        W20332  40.453   9.193  13.435
48007W        W20333  14.841  15.652  12.456
48008W        W20334  25.107   4.425   1.946
48009W        W20335  14.268  26.008   4.114
48010W        W20336  26.744  33.500   0.327
48011W        W20337  36.306  31.163   4.055
48012W        W20338  26.184  25.435   0.021
48013W        W20339  43.685  10.983  13.361
48014W        W20340  38.463  19.206   0.820
48015W        W20341  35.974   6.836   1.799
48016W        W20342  25.944  20.001  13.062
48017W        W20343  13.835  33.884   2.082
48018W        W20344  10.586  37.775  14.479
48019W        W20345   1.357  42.762   3.563
48020W        W20346  19.647  23.972   2.671
48021W        W20347   7.186  39.846  10.678
48022W        W20348  28.087   2.451  11.691
48023W        W20349  29.492  38.562  12.586
48024W        W20350  39.812   0.461  14.948
48025W        W20351  17.443  42.028  13.630
48026W        W20352  40.785  32.459   3.740
48027W        W20353  14.608  10.286  13.243
48028W        W20354  28.886  25.211   2.412
48029W        W20355  42.902  29.658   3.650
48030W        W20356   8.100  40.087  13.877
48031W        W20357  14.092  30.273  11.785
48032W        W20358   4.225  21.754   2.080
48033W        W20359  30.926  13.981   2.768
48034W        W20360  19.969  24.437  12.876
48035W        W20361  20.121  14.481   5.021
48036W        W20362   1.334  26.586  13.342
48037W        W20363  35.848   0.244   1.964
48038W        W20364  23.659   3.621   1.387
48039W        W20365  13.131  15.413   3.765
48040W        W20366  41.895  43.264   3.750
48041W        W20367  36.082   7.303   2.774
48042W        W20368  10.466   9.343  12.324
48043W        W20369   5.853  16.667  12.349
48044W        W20370   7.689  28.591   4.763
48045W        W20371  18.619  33.845   0.961
48046W        W20372  30.982  33.564   3.420
48047W        W20373  14.801   0.489  12.374
48048W        W20374  32.869  12.496  10.716
48049W        W20375   5.243  27.185  10.635
48050W        W20376   4.283   7.348   4.562
48051W        W20377  22.569  22.290  12.019
48052W        W20378  31.084  27.634  10.602
48053W        W20379  32.667   7.335  14.335
48054W        W20380  42.015   1.480  14.088
48055W        W20381  16.975  41.833   3.178
48056W        W20382  14.877  21.135  10.699
48057W        W20383  39.082   2.047   3.036
48058W        W20384   7.874   9.749   3.186
48059W        W20385  35.070  30.196  10.581
48060W        W20386  40.415  30.356  11.477
48061W        W20387  29.952  18.208  12.102
48062W        W20388  29.100   1.742  12.652
48063W        W20389  38.758  34.406  14.355
48064W        W20390  14.715  38.386  12.498
48065W        W20391  33.447  26.213  11.204
48066W        W20392   9.218   8.698   5.001
48067W        W20393  44.470   8.238  10.547
48068W        W20394  27.638   7.337   4.772
48069W        W20395  26.182   4.828   4.170
48070W        W20396  25.702   9.183  11.211
48071W        W20397  10.084  31.619  14.326
48072W        W20398  31.030  17.608   3.670
48073W        W20399  28.419  14.803   4.085
48074W        W20400  31.040  30.833  11.791
48075W        W20401  21.070  25.660  12.903
48076W        W20402  12.659  27.106   4.535
48077W        W20403  14.611  39.067  14.928
48078W        W20404  34.869  14.670  13.375
48079W        W20405  15.606  17.728  11.039
48080W        W20406  17.283  33.803   2.742
48081W        W20407  10.258   9.144   1.787
48082W        W20408  40.408  11.116   0.501
48083W        W20409   3.215  10.333  10.705
48084W        W20410  10.188  20.307  14.835
48085W        W20411  17.441  33.830   9.817
48086W        W20412   7.382  23.714   0.480
48087W        W20413   6.195  38.530   2.326
48088W        W20414  32.275  40.494   0.253
48089W        W20415   9.977   4.960  13.031
48090W        W20416  32.037  19.186  14.846
48091W        W20417   0.228  26.434  11.030
48092W        W20418  25.978  39.292   4.949
48093W        W20419   8.388   2.914   3.325
48094W        W20420  35.830  14.771   3.121
48095W        W20421   0.316  32.406   0.893
48096W        W20422  28.673  11.170  12.509
48097W        W20423  17.811   2.086  14.337
48098W        W20424  37.347  12.980   2.417
48099W        W20425  39.980  44.198  11.639
48100W        W20426   2.305  15.431   0.870
48101W        W20427  19.747   7.253   3.303
48102W        W20428  35.328   8.916   1.981
48103W        W20429  38.961  24.682  13.475
48104W        W20430   0.487   8.695  11.501
48105W        W20431  20.799  15.567  12.620
48106W        W20432  32.490  41.227  14.477
48107W        W20433  30.458   3.986  14.406
48108W        W20434   8.659  38.764   1.784
48109W        W20435  38.096  24.884  14.406
48110W        W20436  41.043  24.617  12.481
48111W        W20437  43.294  26.018  14.621
48112W        W20438  12.235  42.860   2.225
48113W        W20439  35.151   9.741  14.321
48114W        W20440  11.717  30.556   4.611
48115W        W20441  18.049  13.322  12.062
48116W        W20442  13.165  24.908  14.001
48117W        W20443  22.002   2.236  13.352
48118W        W20444  15.311  31.721  10.657
48119W        W20445   5.917  41.828  13.081
48120W        W20446  34.288  40.043  14.775
48121W        W20447  18.444  10.560  11.101
48122W        W20448   2.987  26.684   2.816
48123W        W20449  26.193  22.324  12.325
48124W        W20450   9.767  14.820  10.677
48125W        W20451  24.735  19.122  13.262
48126W        W20452  24.483  38.424  11.901
48127W        W20453  10.155   8.324  13.091
48128W        W20454   1.688   3.151   3.795
48129W        W20455  19.741  30.493  12.962
48130W        W20456  22.091   2.447  14.524
48131W        W20457  15.842   1.374  12.510
48132W        W20458  30.476  11.100   1.230
48133W        W20459  31.605  40.821   1.237
48134W        W20460  16.432  31.787   4.215
48135W        W20461  31.234  27.882  14.193
48136W        W20462  23.428  12.759  11.097
48137W        W20463  31.547  12.400   4.779
48138W        W20464  18.059  30.209  14.445
48139W        W20465  34.292  18.668  14.812
48140W        W20466  39.165  17.853  14.838
48141W        W20467  26.485   5.400  12.830
48142W        W20468  44.895  31.454  12.455
48143W        W20469  16.174  30.014   0.528
48144W        W20470   1.732  27.845   2.315
48145W        W20471  26.873  41.343  14.460
48146W        W20472  25.751  16.025   2.240
48147W        W20473  22.112  26.830   3.420
48148W        W20474  16.417  27.409  13.737
48149W        W20475  25.726  22.241  12.614
48150W        W20476  40.305  22.620   2.592
48151W        W20477  32.607  25.149   1.473
48152W        W20478  38.882   6.470   4.797
48153W        W20479  37.009  37.464  12.085
48154W        W20480  39.553  19.667   3.678
48155W        W20481  38.331  28.449  10.672
48156W        W20482  11.398  44.896   3.824
48157W        W20483  21.470  22.204   3.674
48158W        W20484  12.830  23.577   5.083
48159W        W20485  42.347  29.681   4.081
48160W        W20486   2.911   7.800  14.718
48161W        W20487  17.650   0.299   3.481
48162W        W20488  44.066  13.719  12.075
48163W        W20489  14.123  44.013  11.161
48164W        W20490  24.506  30.545   3.934
48165W        W20491   4.272  31.014   0.343
48166W        W20492  17.821  22.326   3.856
48167W        W20493  25.107  32.703  12.085
48168W        W20494   8.742  37.329  11.891
48169W        W20495  20.722  11.860  10.768
48170W        W20496  44.098  42.708   2.678
48171W        W20497  28.980   7.428  13.914
48172W        W20498   4.331  27.988   2.784
48173W        W20499  15.712   3.274  12.265
48174W        W20500   4.647  33.993  11.156
48175W        W20501  41.945  18.040  11.598
48176W        W20502   6.843   9.963  14.632
48177W        W20503  10.368   0.476   4.750
48178W        W20504   6.755  31.402  12.652
48179W        W20505  21.568  38.346   2.642
48180W        W20506   0.579   0.972   0.351
48181W        W20507  10.653  42.769   2.806
48182W        W20508  24.529  44.944  14.385
48183W        W20509  25.916   0.476   3.814
48184W        W20510  29.590   6.191   4.664
48185W        W20511  39.748   1.911   1.361
48186W        W20512   1.877   2.767  10.419
48187W        W20513  20.517  32.927  12.409
48188W        W20514   2.074   5.086   4.170
48189W        W20515   7.870   7.700  13.115
48190W        W20516  14.871  38.820  10.662
48191W        W20517  28.001  15.890  13.693
48192W        W20518  26.500  32.694   4.187
48193W        W20519  16.153  24.473   2.071
48194W        W20520   4.196  38.812  13.011
48195W        W20521  13.174   7.363  10.237
48196W        W20522  42.509  38.601   1.251
48197W        W20523   7.999  18.175   2.383
48198W        W20524  28.508   5.964   0.266
48199W        W20525  12.853  38.542  12.364
48200W        W20526  20.510  21.207   3.161
48201W        W20527  38.362   8.346   3.338
48202W        W20528  19.526  20.016   4.477
48203W        W20529  36.486  22.093   1.688
48204W        W20530  31.726  40.585   2.427
48205W        W20531   0.671  13.612  14.045
48206W        W20532  37.521   0.884   1.488
48207W        W20533   9.669  40.847   0.866
48208W        W20534  20.744  39.392  14.580
48209W        W20535  17.496  40.917  14.349
48210W        W20536   1.078  13.809   3.170
48211W        W20537  31.663  18.417   0.570
48212W        W20538   0.217  26.162   1.665
48213W        W20539  11.851  16.238  10.670
48214W        W20540  41.451  44.979   4.657
48215W        W20541  35.421  22.976   3.419
48216W        W20542   1.667  24.692  13.377
48217W        W20543  10.276  42.581  12.360
48218W        W20544   1.097  27.618  11.869
48219W        W20545  28.959   0.580  12.686
48220W        W20546  27.306   1.335   2.025
48221W        W20547  31.093  12.713   5.186
48222W        W20548  12.089  38.514   0.029
48223W        W20549  32.585  34.184  14.388
48224W        W20550   7.189   1.231  10.629
48225W        W20551  21.891  10.076  10.580
48226W        W20552  36.357  42.715   0.833
48227W        W20553  10.797  11.071  12.750
48228W        W20554   8.002  21.711   3.965
48229W        W20555  16.237  37.552  11.071
48230W        W20556  15.173  20.483  14.883
48231W        W20557  38.916   4.840   2.619
48232W        W20558  25.709  12.709   2.794
48233W        W20559   5.682  25.707   0.214
48234W        W20560   5.362  32.870   4.345
48235W        W20561   8.255   0.594   4.895
48236W        W20562  12.830  21.788  14.448
48237W        W20563   0.303  33.707  12.835
48238W        W20564  23.366  13.145   3.902
48239W        W20565  36.958  30.157   1.408
48240W        W20566  22.022   6.434   2.654
48241W        W20567  27.179  22.550  14.986
48242W        W20568  27.467  13.122  11.190
48243W        W20569  36.489  21.120   3.085
48244W        W20570  38.542  12.850  14.069
48245W        W20571  24.431  39.561   0.597
48246W        W20572  28.231  25.970   0.672
48247W        W20573  12.711  31.675  14.932
48248W        W20574  30.110  39.979   4.569
48249W        W20575  24.058   0.521  12.093
48250W        W20576  35.377  36.659  12.446
48251W        W20577  39.517  39.537  13.230
48252W        W20578  21.931  36.944  13.978
48253W        W20579  42.854  37.957  14.364
48254W        W20580  21.115  15.739   3.629
48255W        W20581   6.835  18.303   1.747
48256W        W20582   3.899  18.088  14.921
48257W        W20583   9.120  36.079   2.113
48258W        W20584   2.917  30.643   3.394
48259W        W20585  30.446  25.570  11.124
48260W        W20586  23.322  15.322  11.119
48261W        W20587  32.624  14.561  13.561
48262W        W20588  28.880   2.963   4.273
48263W        W20589  38.945  43.801  11.117
48264W        W20590  38.569  12.324  13.034
48265W        W20591   9.878  10.876   0.336
48266W        W20592   8.737   3.401  11.180
48267W        W20593   4.165  22.147   4.133
48268W        W20594  17.313  26.658   3.720
48269W        W20595  28.504  38.834   1.946
48270W        W20596  28.991  29.979  13.228
48271W        W20597  20.115  11.337  12.922
48272W        W20598  15.815  15.264   2.901
48273W        W20599  42.361  43.289  13.331
48274W        W20600   4.224   7.263   3.655
48275W        W20601  33.606  35.285   0.342
48276W        W20602  42.455  41.541   2.926
48277W        W20603  41.471  14.369  14.923
48278W        W20604  13.346   2.449  10.680
48279W        W20605  24.792  33.850   1.896
48280W        W20606   1.011  11.095  12.027
48281W        W20607  33.380  35.816   4.691
48282W        W20608  43.502  44.563   2.789
48283W        W20609   7.943  39.533   3.381
48284W        W20610  38.788  12.751   0.403
48285W        W20611  18.925  29.823  13.407
48286W        W20612  24.104  39.084  10.575
48287W        W20613  23.102   3.660   2.805
48288W        W20614  13.510  20.687  14.374
48289W        W20615  25.208  35.084  11.517
48290W        W20616  20.275  19.900   9.514
48291W        W20617   9.582   0.717  11.974
48292W        W20618  15.173  16.320  11.194
48293W        W20619  21.016  18.636   3.118
48294W        W20620  13.658  43.829   0.542
48295W        W20621  41.934   3.996   4.657
48296W        W20622  39.946  21.649   1.353
48297W        W20623  25.822  39.965  12.849
48298W        W20624  42.116  28.035  10.812
48299W        W20625  11.814   7.401  13.826
48300W        W20626  14.785  41.081   1.505
48301W        W20627   0.160  28.668   3.505
48302W        W20628  28.612   3.542   3.711
48303W        W20629  43.816  13.461  11.136
48304W        W20630  43.105   0.268   2.900
48305W        W20631   3.400  17.007  14.834
48306W        W20632   7.328  16.241  11.166
48307W        W20633  40.425  11.110  14.821
48308W        W20634  39.927  12.534  10.692
48309W        W20635  29.221   0.825  11.932
48310W        W20636  36.127  40.067  13.326
48311W        W20637  31.593  22.948  10.748
48312W        W20638  12.801  28.246   2.483
48313W        W20639   2.666  25.370   3.606
48314W        W20640  40.438  35.973   2.400
48315W        W20641   2.508  27.545  12.395
48316W        W20642  44.465  35.898   3.171
48317W        W20643  31.519   0.513   4.671
48318W        W20644  27.097   0.962  11.646
48319W        W20645  35.827   3.331  10.782
48320W        W20646  28.047  24.183  14.771
48321W        W20647   9.811  18.232   2.161
48322W        W20648  34.442   3.164   2.839
48323W        W20649   5.322   9.285  10.665
48324W        W20650  25.577  32.156  10.596
48325W        W20651   3.293  17.203   4.696
48326W        W20652   8.843  35.028   3.111
48327W        W20653  20.050  28.930  10.782
48328W        W20654   1.633   0.357  14.313
48329W        W20655   1.224   3.857   2.764
48330W        W20656  33.675  38.906   3.243
48331W        W20657  43.553  27.441   3.668
48332W        W20658  21.369  26.139   0.818
48333W        W20659  25.225   5.385  10.713
48334W        W20660   8.236   4.157   1.392
48335W        W20661  44.400  34.531  14.042
48336W        W20662  14.903   7.304  14.092
48337W        W20663  42.881  18.140  13.292
48338W        W20664  30.630  30.461  12.015
48339W        W20665  44.840   6.351   2.745
48340W        W20666  29.946  32.871   0.905
48341W        W20667  20.835   9.312   1.374
48342W        W20668  12.256   5.957  10.775
48343W        W20669  22.451   8.313   4.818
48344W        W20670   7.294   0.670  12.994
48345W        W20671   5.957  39.219  14.998
48346W        W20672  30.190  31.437   3.324
48347W        W20673   1.344   1.698  11.183
48348W        W20674   9.745  11.553   3.351
48349W        W20675  40.429  26.128   1.014
48350W        W20676  42.944  32.407   1.698
48351W        W20677   8.475  25.618   1.220
48352W        W20678  40.453  36.592   4.291
48353W        W20679  28.884  26.663   0.481
48354W        W20680  11.371  44.403   4.008
48355W        W20681   0.485  41.393  11.596
48356W        W20682  16.300  14.826  14.714
48357W        W20683   8.412  15.856  14.691
48358W        W20684  27.137  41.510  12.675
48359W        W20685  30.105   4.650   3.148
48360W        W20686  38.019   8.631  10.649
48361W        W20687   1.804  34.062   1.509
48362W        W20688   1.477  31.559  11.632
48363W        W20689  16.144  16.245   3.759
48364W        W20690  35.049  31.074  13.342
48365W        W20691   3.469  15.629  14.015
48366W        W20692  14.347   8.335  14.598
48367W        W20693  41.562  28.611  13.061
48368W        W20694   4.349  13.572   3.887
48369W        W20695  32.393   1.293   3.649
48370W        W20696  44.370  12.363  10.613
48371W        W20697   3.971   5.454   0.345
48372W        W20698  44.197   0.493  12.533
48373W        W20699  21.461  32.570   1.821
48374W        W20700  27.421  26.413   3.678
48375W        W20701  19.008  18.453  13.846
48376W        W20702  20.427  23.414  10.300
48377W        W20703  39.861  22.080  13.989
48378W        W20704  44.442   2.576   3.188
48379W        W20705  43.047  38.032   1.660
48380W        W20706   8.662   9.234  11.673
48381W        W20707  21.025  38.600  12.429
48382W        W20708  35.618   1.478  13.594
48383W        W20709  14.783  24.976   1.459
48384W        W20710  30.704  39.372  12.074
48385W        W20711  14.663  37.421   3.531
48386W        W20712  44.444  36.617  11.931
48387W        W20713  24.443  12.956  10.971
48388W        W20714  26.289  14.020   0.524
48389W        W20715   6.320  40.063   2.159
48390W        W20716  24.928  19.453   2.803
48391W        W20717  10.562  30.922   3.727
48392W        W20718   6.144  16.225   0.509
48393W        W20719  12.816  21.014   2.847
48394W        W20720  16.020  41.767  10.648
48395W        W20721  28.653  30.871  14.301
48396W        W20722  29.396   8.357  12.987
48397W        W20723  13.360  18.164  10.750
48398W        W20724  32.046  26.053  10.709
48399W        W20725   1.320   7.801  10.971
48400W        W20726  21.084  20.592   0.000
48401W        W20727  35.503  28.153  12.936
48402W        W20728  10.117  24.181   0.895
48403W        W20729  21.322  23.178   4.608
48404W        W20730   9.399   6.928   3.861
48405W        W20731  21.575  15.198   4.062
48406W        W20732  16.900  15.879   2.257
48407W        W20733  44.278  40.658   2.327
48408W        W20734  31.431  42.899  12.428
48409W        W20735  25.051  29.011   3.897
48410W        W20736   0.799   9.112   4.901
48411W        W20737  26.095   4.340   4.374
48412W        W20738  39.799   9.258   4.098
48413W        W20739  27.857  23.526  10.384
48414W        W20740  36.609  25.541  12.981
48415W        W20741  15.761   1.471   1.153
48416W        W20742  43.844  27.740   0.323
48417W        W20743  10.743   6.751  14.519
48418W        W20744  20.241  28.091   2.195
48419W        W20745  40.982  16.903   1.305
48420W        W20746   1.915   8.345  11.502
48421W        W20747  27.527  32.669  13.425
48422W        W20748   0.504   8.716  14.136
48423W        W20749   2.960  10.178   0.848
48424W        W20750  19.357  38.378   4.301
48425W        W20751  27.740   1.259   1.746
48426W        W20752  33.939  25.257   0.400
48427W        W20753  26.383  31.591   1.860
48428W        W20754  19.533  43.289  11.280
48429W        W20755  42.080  17.213   1.276
48430W        W20756  11.884  25.728   4.515
48431W        W20757  42.909   0.923   3.956
48432W        W20758  20.133  19.685  12.331
48433W        W20759  24.228   4.808   3.822
48434W        W20760  27.266  40.883   2.335
48435W        W20761   9.602  28.527   0.829
48436W        W20762  32.387   4.295  13.017
48437W        W20763  23.528   0.468  12.074
48438W        W20764  23.525   7.168  11.658
48439W        W20765  41.478  41.911  13.990
48440W        W20766   9.315  21.015  12.600
48441W        W20767  13.229  27.678   3.379
48442W        W20768  13.364  28.248   0.872
48443W        W20769   7.810   2.767   4.132
48444W        W20770  44.153  24.285  12.055
48445W        W20771  26.180  41.034   0.955
48446W        W20772  27.521  29.217  10.974
48447W        W20773  20.013   8.156   3.294
48448W        W20774  19.609  40.527   4.696
48449W        W20775  17.993   2.486   0.721
48450W        W20776  37.641  18.679   1.003
48451W        W20777  23.066  42.904   4.566
48452W        W20778  11.629   0.763   2.280
48453W        W20779  23.698  38.772  10.681
48454W        W20780  42.360  17.720  13.650
48455W        W20781   6.770  20.628   0.971
48456W        W20782  29.362  44.412   3.373
48457W        W20783  40.882  28.464   0.779
48458W        W20784   3.465  36.926  10.637
48459W        W20785  17.685   0.346   0.949
48460W        W20786   5.475   1.102   0.566
48461W        W20787   6.347  21.515  12.880
48462W        W20788  22.505  40.437  14.504
48463W        W20789  20.109  10.062   3.180
48464W        W20790  26.003   2.152  14.411
48465W        W20791  33.395   2.919   3.148
48466W        W20792  13.557  36.089  10.014
48467W        W20793  26.656   1.535   1.483
48468W        W20794  44.943   7.699  13.443
48469W        W20795  13.374  15.310  13.388
48470W        W20796  18.515   6.771   0.190
48471W        W20797  13.552  38.310   0.389
48472W        W20798   7.874  33.030  12.847
48473W        W20799  12.654   5.656   2.793
48474W        W20800  43.745  37.453   3.812
48475W        W20801  20.081  43.895   0.258
48476W        W20802  23.607  34.349  11.223
48477W        W20803  25.575   3.478   0.195
48478W        W20804  37.619   1.373  11.558
48479W        W20805  13.474  15.366  14.746
48480W        W20806  19.459  40.736  14.557
48481W        W20807  39.107  28.054   2.814
48482W        W20808  24.214  44.768  14.005
48483W        W20809  26.439   4.339   1.653
48484W        W20810  24.517  23.428  11.161
48485W        W20811   3.753   6.999   4.572
48486W        W20812  11.100  18.575   2.390
48487W        W20813   8.426  17.846  14.355
48488W        W20814  21.392  30.958   5.106
48489W        W20815  16.317   7.208   0.366
48490W        W20816  26.722  28.474  11.534
48491W        W20817  31.586   3.269  10.544
48492W        W20818  34.122   0.294   4.735
48493W        W20819  31.109  17.301   4.556
48494W        W20820  22.752  34.827  13.015
48495W        W20821   7.714  41.032  11.184
48496W        W20822  23.875  33.095  10.740
48497W        W20823  40.439   0.203  11.131
48498W        W20824  32.164   6.394  12.227
48499W        W20825  30.361  35.979   4.077
48500W        W20826  23.567  17.717  12.081
48501W        W20827  23.842  29.241   3.212
48502W        W20828  44.241  22.731  10.731
48503W        W20829  36.953  24.593  14.878
48504W        W20830  28.237  26.594   2.723
48505W        W20831   4.912  31.888   1.899
48506W        W20832   0.772  39.819  14.246
48507W        W20833  28.982  19.182  13.480
48508W        W20834  41.916  17.538  13.279
48509W        W20835  10.261  35.013  11.892
48510W        W20836  34.720   1.711   3.283
48511W        W20837   7.029   0.712   0.900
48512W        W20838  15.246  17.733   3.162
48513W        W20839   0.251  33.897  11.523
48514W        W20840  10.780  35.560   3.723
48515W        W20841  12.771  38.407  13.366
48516W        W20842  41.396  35.512   4.154
48517W        W20843   1.542   2.005   0.411
48518W        W20844  14.267  44.789  12.771
48519W        W20845  34.077  24.003  11.750
48520W        W20846  16.645  30.600  13.019
48521W        W20847  27.071  41.993   4.286
48522W        W20848  32.132   5.940   3.278
48523W        W20849   6.383  26.949  14.422
48524W        W20850  25.216  35.614   3.344
48525W        W20851  19.108  10.905   4.517
48526W        W20852   0.943  22.606  13.539
48527W        W20853  40.031   8.866   3.844
48528W        W20854  33.741  38.241  14.309
48529W        W20855  34.945   9.674   1.120
48530W        W20856  12.109  24.130  14.426
48531W        W20857  24.233  29.563  11.240
48532W        W20858   8.270  35.119   1.396
48533W        W20859  28.467   0.420  12.505
48534W        W20860  44.379  15.281  12.642
48535W        W20861   3.981  27.980  12.854
48536W        W20862  20.232  18.687   4.570
48537W        W20863  28.059  34.006   3.714
48538W        W20864  35.411   0.661  12.035
48539W        W20865  26.021  40.366   2.245
48540W        W20866  43.804  18.530   2.764
48541W        W20867  35.519   6.692   1.212
48542W        W20868  21.178  15.844  13.526
48543W        W20869  29.455  10.141   2.660
48544W        W20870  41.822  33.676  13.896
48545W        W20871   1.418   0.824   0.372
48546W        W20872  15.630   1.700  10.704
48547W        W20873  34.679  33.358  10.639
48548W        W20874   9.869  29.093   4.999
48549W        W20875   5.802  18.861  13.536
48550W        W20876  17.824   1.828  13.059
48551W        W20877  41.980  36.855  13.416
48552W        W20878  43.648  22.572  13.035
48553W        W20879   2.632  12.226   0.987
48554W        W20880  29.076  25.562  12.998
48555W        W20881  27.586  31.545   0.327
48556W        W20882  33.663  43.626   4.395
48557W        W20883   2.508  25.093  10.908
48558W        W20884  40.554  20.640  11.332
48559W        W20885  23.911  36.421   0.860
48560W        W20886  25.779   2.675  12.429
48561W        W20887  31.880  10.036   4.729
48562W        W20888  42.743  14.523   0.324
48563W        W20889  43.297  23.216  12.317
48564W        W20890  14.065  27.102  11.963
48565W        W20891  44.330  21.591  13.272
48566W        W20892  10.639  22.270   1.349
48567W        W20893  12.333  22.522  12.877
48568W        W20894   5.926  27.610  14.172
48569W        W20895   8.112  28.437  11.014
48570W        W20896  33.348  20.770  13.864
48571W        W20897  30.785   7.753   1.295
48572W        W20898   9.241  18.109   1.439
48573W        W20899  20.617  21.588  12.291
48574W        W20900   8.613  35.319  10.467
48575W        W20901  33.189  19.052   3.365
48576W        W20902  15.015  41.533   1.151
48577W        W20903  26.994   6.318  12.511
48578W        W20904  28.659  41.849  10.730
48579W        W20905  31.726  40.863  12.955
48580W        W20906   3.805  24.038  14.870
48581W        W20907  16.267  14.852  11.555
48582W        W20908  28.593  38.431  14.441
48583W        W20909  44.217  31.748   1.667
48584W        W20910  21.661  34.728  12.909
48585W        W20911  13.783  10.226  14.169
48586W        W20912  19.707  31.213   4.489
48587W        W20913  35.445  15.838   0.748
48588W        W20914   9.773  30.671   2.619
48589W        W20915  27.557  37.902   4.569
48590W        W20916  17.335  12.627   1.823
48591W        W20917   8.777  13.038  11.642
48592W        W20918   0.996  22.014  10.558
48593W        W20919  26.140   2.551  11.264
48594W        W20920  29.943  22.201   0.424
48595W        W20921   3.530  42.455  12.042
48596W        W20922  44.827  44.540  12.018
48597W        W20923   2.421  23.227   2.861
48598W        W20924  19.248  21.776  13.512
48599W        W20925  25.140  42.553   1.823
48600W        W20926  30.384  42.924   1.583
48601W        W20927  39.406  14.712   4.064
48602W        W20928   3.952  28.492  14.935
48603W        W20929  14.613  28.944   0.715
48604W        W20930  10.100   8.238   3.655
48605W        W20931  10.156  44.715  11.205
48606W        W20932  14.610   5.507   3.748
48607W        W20933  23.752  34.075  13.349
48608W        W20934  19.764  28.046  12.145
48609W        W20935  35.341   2.809  11.443
48610W        W20936  27.749  29.675  10.977
48611W        W20937  41.430  42.984   1.227
48612W        W20938  25.387  42.798   2.800
48613W        W20939  39.561  19.531  11.998
48614W        W20940  33.521  14.711   2.669
48615W        W20941  20.359  28.124   1.299
48616W        W20942  37.619  15.279   4.095
48617W        W20943  20.047   9.671   4.042
48618W        W20944  24.422  29.367  13.862
48619W        W20945  30.055  17.820  13.620
48620W        W20946  23.259  17.295   0.786
48621W        W20947  18.094   3.384  11.607
48622W        W20948  35.553   5.878  10.828
48623W        W20949  41.454  35.476  14.744
48624W        W20950  32.696  13.238   4.667
48625W        W20951  22.041  23.791   0.187
48626W        W20952  19.192  22.216   3.808
48627W        W20953  10.012  35.051  12.420
48628W        W20954  11.598  19.792  11.528
48629W        W20955  30.014   4.236  14.524
48630W        W20956  17.139  21.601  14.445
48631W        W20957  11.311  17.658  11.814
48632W        W20958  41.965  37.254  11.640
48633W        W20959  36.499  43.516  13.974
48634W        W20960  44.472   2.940  13.730
48635W        W20961   1.598  27.860  11.857
48636W        W20962  16.714  15.430   2.103
48637W        W20963  12.574  28.637   3.718
48638W        W20964   7.807  27.992   1.643
48639W        W20965  34.993  23.923  14.261
48640W        W20966   8.265  39.916   1.941
48641W        W20967  21.642   5.424   0.892
48642W        W20968   2.393   2.429   3.360
48643W        W20969  31.185  14.829   2.198
48644W        W20970   9.700   8.872   0.301
48645W        W20971  41.317  24.154   3.334
48646W        W20972  25.101  27.156  13.167
48647W        W20973  44.608  16.090  10.151
48648W        W20974  19.862  22.447   0.980
48649W        W20975  27.218  32.945   1.832
48650W        W20976  27.513  33.962  14.043
48651W        W20977   7.695   9.795   2.706
48652W        W20978  39.421  30.289   1.875
48653W        W20979  36.955  22.250  12.487
48654W        W20980  14.250  13.338   0.466
48655W        W20981  26.945  28.912  11.368
48656W        W20982  18.240   9.843   1.703
48657W        W20983  44.291  37.984  14.239
48658W        W20984  19.498  35.395  13.460
48659W        W20985  15.800  19.183   0.971
48660W        W20986  25.954  36.015   4.241
48661W        W20987  39.454  28.955   0.501
48662W        W20988   0.270  14.567  12.954
48663W        W20989  43.692  32.492  12.339
48664W        W20990  22.058  36.504  12.970
48665W        W20991  13.241   4.594  12.191
48666W        W20992  32.164   4.596   0.304
48667W        W20993  10.106  44.374  10.529
48668W        W20994  40.399  38.366   4.148
48669W        W20995  22.653  34.457   0.889
48670W        W20996   3.699  38.916  12.162
48671W        W20997   5.369   0.863  10.608
48672W        W20998   1.843  32.135  13.953
48673W        W20999  14.920  18.883   2.266
48674W        W21000  35.329  40.427   3.674
48675W        W21001  18.258  10.866  13.790
48676W        W21002   8.885   6.658  11.468
48677W        W21003  28.155  16.741  11.222
48678W        W21004  30.564  13.419   4.832
48679W        W21005  39.815  30.662   0.113
48680W        W21006  18.203  22.653  10.581
48681W        W21007  12.630  23.036   2.574
48682W        W21008  28.643  12.237  12.369
48683W        W21009  15.263  12.063  12.073
48684W        W21010  20.622  29.156  13.633
48685W        W21011  37.618   6.178   0.514
48686W        W21012  21.546  26.609   3.248
48687W        W21013   1.475  24.294  11.130
48688W        W21014  16.862  25.913  14.817
48689W        W21015  37.839  11.378   3.092
48690W        W21016  18.076  10.071   1.254
48691W        W21017  10.920  38.269   3.223
48692W        W21018  34.383  18.651   1.653
48693W        W21019  11.528  42.031   0.805
48694W        W21020  15.665  39.614  14.430
48695W        W21021  41.198  10.582  10.252
48696W        W21022  27.928  12.177   4.808
48697W        W21023  23.486   1.993   3.182
48698W        W21024  42.013   0.000  10.638
48699W        W21025  40.482  17.381   1.975
48700W        W21026  21.721  23.612   4.100
48701W        W21027  42.321  27.223  13.299
48702W        W21028  16.708  29.503   3.660
48703W        W21029  32.133  36.545  11.902
48704W        W21030   6.790   5.839  11.642
48705W        W21031  16.169   6.871  14.062
48706W        W21032  44.186  26.997   2.281
48707W        W21033   3.360  18.775   2.462
48708W        W21034  20.599  40.553   0.700
48709W        W21035  40.823  36.120  12.113
48710W        W21036  12.791  33.847   4.048
48711W        W21037   6.431  15.095   3.933
48712W        W21038  18.059  15.820   3.864
48713W        W21039   4.654  34.945  14.825
48714W        W21040   8.294  28.910  10.957
48715W        W21041  17.483  37.456   4.737
48716W        W21042  28.727  12.416  14.727
48717W        W21043  23.607   9.823   0.766
48718W        W21044   7.745   5.709  12.564
48719W        W21045   9.572  18.133  12.098
48720W        W21046  27.180  11.458   2.026
48721W        W21047  36.371  19.846  12.969
48722W        W21048   6.779  24.019  12.036
48723W        W21049  38.359  17.015   3.187
48724W        W21050  34.554  25.768  13.854
48725W        W21051   4.671  37.728  11.882
48726W        W21052   0.883   7.183   0.432
48727W        W21053  42.794   1.910   4.943
48728W        W21054  13.167  10.241  13.416
48729W        W21055  41.058  23.913   3.730
48730W        W21056  22.308  33.549  11.040
48731W        W21057  37.480  21.468  12.529
48732W        W21058  34.628  22.693   4.126
48733W        W21059   1.919  10.385   4.261
48734W        W21060   5.843   2.312  14.592
48735W        W21061  15.406  28.516  11.201
48736W        W21062  17.794   1.625  13.557
48737W        W21063  40.286  43.765  10.789
48738W        W21064   4.771  20.591   1.454
48739W        W21065  29.918  34.177   1.263
48740W        W21066   9.112   4.944   0.960
48741W        W21067  35.690  41.166   0.911
48742W        W21068  11.257   2.643   3.719
48743W        W21069   0.875   2.786  11.057
48744W        W21070  23.645  19.472   0.250
48745W        W21071  16.555  44.371  12.920
48746W        W21072  16.495  43.852   2.212
48747W        W21073  33.117  25.518   0.760
48748W        W21074  39.289  13.498   1.930
48749W        W21075  25.567  28.094  11.718
48750W        W21076  43.902  43.051   5.091
48751W        W21077  33.440  34.097   4.079
48752W        W21078  37.453  25.623   2.711
48753W        W21079  26.534   5.370  11.226
48754W        W21080  10.686   5.491  12.391
48755W        W21081  31.505   4.716  13.956
48756W        W21082  34.086  38.537  14.962
48757W        W21083  18.576  10.934   1.863
48758W        W21084  42.997  29.189   2.797
48759W        W21085   1.282  20.787   4.737
48760W        W21086  19.646  15.124   1.403
48761W        W21087  32.837  10.865  13.482
48762W        W21088   9.912  15.717  12.058
48763W        W21089   7.513  42.478   1.290
48764W        W21090  32.033  31.425  13.814
48765W        W21091  33.717  31.347  13.156
48766W        W21092  23.714  14.391  13.446
48767W        W21093  33.822  10.359   0.384
48768W        W21094  28.353  26.670  14.075
48769W        W21095  41.495  17.206   3.988
48770W        W21096  44.467  33.859  14.910
48771W        W21097  37.808  24.555  10.748
48772W        W21098  39.353  10.333   2.921
48773W        W21099  13.941  35.752  10.173
48774W        W21100  23.424  26.843  10.766
48775W        W21101   5.893  10.428   3.145
48776W        W21102  32.424  32.561  14.503
48777W        W21103   1.381  19.327   4.210
48778W        W21104  38.417   4.525  14.782
48779W        W21105   4.403  11.777   9.855
48780W        W21106  40.398  23.626   0.418
48781W        W21107  35.762  23.643  10.743
48782W        W21108  41.988   9.403   4.118
48783W        W21109   1.616  29.863   1.780
48784W        W21110  23.659  38.474   2.868
48785W        W21111  33.594  39.191   1.864
48786W        W21112  44.186   2.484  13.484
48787W        W21113  30.440  26.607   4.892
48788W        W21114  20.670  41.326  12.310
48789W        W21115   8.589  15.795  10.392
48790W        W21116   6.650  42.686   1.781
48791W        W21117  21.826  19.770  10.563
48792W        W21118  28.677  26.524  12.611
48793W        W21119   9.889  21.646  14.691
48794W        W21120  41.119  37.552  12.943
48795W        W21121  41.310  26.595   4.437
48796W        W21122   8.204  10.876  13.177
48797W        W21123  29.673  13.167  12.921
48798W        W21124   9.618  13.495  11.100
48799W        W21125  16.150  40.048   2.729
48800W        W21126  35.339  14.798   3.255
48801W        W21127  15.571   5.546  14.217
48802W        W21128  27.398   9.909   4.574
48803W        W21129  12.068  40.327   0.900
48804W        W21130  25.840   4.420   0.820
48805W        W21131  19.828  24.285  14.360
48806W        W21132  43.680   0.398  12.617
48807W        W21133  36.348   3.354  10.655
48808W        W21134  10.702  15.505   0.910
48809W        W21135  35.014   2.538  11.113
48810W        W21136  10.783  11.540  12.959
48811W        W21137   2.000  13.656  14.419
48812W        W21138   5.394   3.270   2.220
48813W        W21139  32.955  13.289   3.198
48814W        W21140  43.434  39.464   2.371
48815W        W21141  23.414  37.635  10.706
48816W        W21142  38.225  10.713   1.479
48817W        W21143  41.327  11.813  10.653
48818W        W21144  26.200   1.263   2.956
48819W        W21145  12.140  18.805  13.575
48820W        W21146  24.149  26.582   1.329
48821W        W21147  33.483  36.592  13.869
48822W        W21148  40.321  12.294   3.755
48823W        W21149  35.361  23.504   1.702
48824W        W21150  23.563  44.254  10.463
48825W        W21151  10.609  32.474  14.148
48826W        W21152  41.891  30.923  14.358
48827W        W21153  27.351  36.018   1.332
48828W        W21154  37.485  22.199   2.633
48829W        W21155   1.209  17.613  12.427
48830W        W21156  18.028  39.352  14.876
48831W        W21157  15.797  26.986   2.215
48832W        W21158  32.885  26.236  12.357
48833W        W21159  14.730  19.734   2.190
48834W        W21160  22.130   2.145   4.549
48835W        W21161  17.625   6.704   0.480
48836W        W21162  28.443  14.635  11.451
48837W        W21163  32.803  15.089  12.814
48838W        W21164   1.457  15.807  12.119
48839W        W21165  34.525   1.809   2.825
48840W        W21166  26.102  35.581   2.404
48841W        W21167   6.475  25.912  13.255
48842W        W21168  19.541  38.594  13.947
48843W        W21169  23.032   2.246  13.279
48844W        W21170  11.839   4.088  11.010
48845W        W21171  35.358  11.134   1.780
48846W        W21172  36.675  22.706  13.355
48847W        W21173  37.645  19.788   1.157
48848W        W21174  44.743  33.430  14.874
48849W        W21175   6.656  14.108   2.336
48850W        W21176   0.914   6.257   3.429
48851W        W21177  18.073  19.599   1.186
48852W        W21178  15.761   8.325  13.585
48853W        W21179  38.649  14.235  12.544
48854W        W21180  25.520  22.590   2.062
48855W        W21181  10.059   9.972   0.847
48856W        W21182  44.914  29.592   1.206
48857W        W21183   1.242  36.371   3.695
48858W        W21184  30.903  14.556  10.607
48859W        W21185  38.104  16.045   2.232
48860W        W21186  34.187  33.534  10.653
48861W        W21187  33.594  23.624   2.709
48862W        W21188  15.785   4.766   0.487
48863W        W21189   9.134  37.420  14.982
48864W        W21190  44.562  37.792   1.761
48865W        W21191  30.982  32.438  13.400
48866W        W21192  24.660  42.023  14.821
48867W        W21193  26.521  20.317  12.297
48868W        W21194  39.563  44.433   4.264
48869W        W21195  39.302  29.978   2.841
48870W        W21196  10.671  10.179  11.233
48871W        W21197  19.707  14.829  10.918
48872W        W21198  25.424  11.173  11.602
48873W        W21199  27.397  22.637   2.782
48874W        W21200  16.769  17.330  13.056
48875W        W21201   6.839  17.041   4.354
48876W        W21202  13.756   6.264   0.733
48877W        W21203  13.290  17.343   4.212
48878W        W21204  30.154  32.439   1.793
48879W        W21205  27.945   6.682   4.264
48880W        W21206  31.121  20.549   1.306
48881W        W21207  24.229   5.291   2.634
48882W        W21208   6.208  34.980  11.050
48883W        W21209   5.031  30.493   0.210
48884W        W21210  40.340  41.979   4.148
48885W        W21211   6.863  17.521   3.486
48886W        W21212  13.343  21.365  11.347
48887W        W21213  20.287  19.288  13.046
48888W        W21214  42.466  43.126   0.295
48889W        W21215  42.427  10.859   4.538
48890W        W21216  27.137  31.226  13.082
48891W        W21217  11.464   0.749   3.212
48892W        W21218   4.135  22.902  13.817
48893W        W21219  28.523  25.496   9.687
48894W        W21220  17.632  30.988  11.531
48895W        W21221   2.426  21.478   3.725
48896W        W21222  28.676  32.400  10.977
48897W        W21223   7.615   2.326  12.584
48898W        W21224  12.178  42.035   1.012
48899W        W21225  21.655  38.845   2.537
48900W        W21226  29.822  13.474  14.957
48901W        W21227  29.452  12.574  11.262
48902W        W21228  22.761  36.119  13.330
48903W        W21229   5.677  21.634  11.101
48904W        W21230  21.057  34.148   5.128
48905W        W21231  38.346  13.382  10.951
48906W        W21232  37.845  13.178  12.961
48907W        W21233  25.289  28.557   4.070
48908W        W21234   1.351  42.350   2.241
48909W        W21235   3.481  24.462  14.867
48910W        W21236  11.094   1.093   0.875
48911W        W21237  31.386  11.104  14.050
48912W        W21238  26.909   1.825   4.148
48913W        W21239  13.645  11.858   0.048
48914W        W21240  39.397  40.965   1.467
48915W        W21241  16.473  15.480  11.493
48916W        W21242  19.035  44.271  14.928
48917W        W21243  23.217  17.200  11.860
48918W        W21244  39.086  30.132   2.398
48919W        W21245  26.018  38.889   1.049
48920W        W21246  21.999  28.898  13.871
48921W        W21247   5.147  21.337  12.035
48922W        W21248   3.889  17.279   0.520
48923W        W21249  33.360  38.202   3.469
48924W        W21250  19.382  20.314   1.276
48925W        W21251   1.364  34.885  14.000
48926W        W21252  17.798   6.274   1.117
48927W        W21253   8.053  35.594   4.972
48928W        W21254  27.979  41.323  13.321
48929W        W21255   1.553  31.983   1.300
48930W        W21256   2.784  20.574   5.126
48931W        W21257  25.229  23.575   1.822
48932W        W21258  23.946  28.015  13.847
48933W        W21259  33.871  32.417  11.884
48934W        W21260  34.873  25.489  13.532
48935W        W21261  10.586  33.921  11.478
48936W        W21262  34.039   8.194   2.300
48937W        W21263  44.721  14.082   4.615
48938W        W21264   3.821   3.273  12.896
48939W        W21265  34.945  39.390  12.566
48940W        W21266  40.017  17.715  14.781
48941W        W21267  33.817  30.919  14.519
48942W        W21268  41.481  21.619   1.901
48943W        W21269  27.708   0.246  13.908
48944W        W21270  15.298   3.187   1.208
48945W        W21271  35.855   2.320   1.024
48946W        W21272  24.723  20.616   0.240
48947W        W21273  39.583   0.668  11.562
48948W        W21274   6.932  25.633   0.954
48949W        W21275  11.218   6.796  13.478
48950W        W21276  23.064  31.090   3.100
48951W        W21277   0.338  28.870   4.119
48952W        W21278   3.725  44.492   1.599
48953W        W21279  38.318   4.254   3.085
48954W        W21280  41.264  31.397   1.762
48955W        W21281  11.246  28.753   0.265
48956W        W21282  27.579   7.974  12.531
48957W        W21283  24.271  13.894   1.721
48958W        W21284   3.356  16.195  10.977
48959W        W21285   3.036  42.873   4.121
48960W        W21286  18.130  44.569   1.902
48961W        W21287  30.452   6.719  13.228
48962W        W21288  38.879  11.980  14.715
48963W        W21289  20.306  27.123  12.086
48964W        W21290  24.883   8.765   0.290
48965W        W21291  12.644  18.274   4.950
48966W        W21292   3.774   0.550  12.433
48967W        W21293  16.841  27.676   4.123
48968W        W21294  23.502   7.437   3.413
48969W        W21295  27.572   5.283   4.633
48970W        W21296  35.152  43.336   0.287
48971W        W21297  14.720   8.195  14.061
48972W        W21298  22.625  11.569  14.350
48973W        W21299   3.500  15.808  12.576
48974W        W21300   9.446  11.386  13.038
48975W        W21301  15.576  36.441   2.223
48976W        W21302   1.814   8.707   3.340
48977W        W21303  21.280   9.502   1.588
48978W        W21304  23.601  43.043   2.415
48979W        W21305  30.506  22.224   2.275
48980W        W21306  16.690  20.663  13.306
48981W        W21307  42.737   7.497   2.908
48982W        W21308  44.975   7.254  11.611
48983W        W21309  42.846  39.903   0.230
48984W        W21310   3.260  33.359   1.349
48985W        W21311   2.233   9.716   9.555
48986W        W21312  23.135  36.426   3.448
48987W        W21313  12.031   7.944   0.815
48988W        W21314  20.727  40.484  11.969
48989W        W21315  36.890  42.927  14.673
48990W        W21316   5.992  17.261  13.414
48991W        W21317  37.305  39.326  14.955
48992W        W21318  31.609  20.790   3.134
48993W        W21319   4.669  38.566  11.398
48994W        W21320  21.842  13.121  11.768
48995W        W21321  15.426  20.147  12.652
48996W        W21322   8.762  38.831   0.914
48997W        W21323  28.638   2.454   1.674
48998W        W21324   3.696  29.732   2.751
48999W        W21325  25.053   2.589   3.790
49000W        W21326  32.894  14.080  14.138
49001W        W21327  22.521  31.899  14.815
49002W        W21328  20.736  11.815   4.556
49003W        W21329  33.407  36.037   2.809
49004W        W21330  21.782  30.336   2.456
49005W        W21331  30.845  38.444  13.009
49006W        W21332  29.245   2.377  14.047
49007W        W21333  11.675  35.862   2.299
49008W        W21334  15.265   6.002   3.204
49009W        W21335  25.498  19.137  14.214
49010W        W21336  42.717  33.581   0.887
49011W        W21337  35.113  24.208   3.810
49012W        W21338   3.222  23.056   2.236
49013W        W21339  29.484   6.967   2.139
49014W        W21340  31.952  11.929  14.037
49015W        W21341   0.812  28.285  12.901
49016W        W21342  12.932  28.627   4.801
49017W        W21343  44.910  17.317  13.852
49018W        W21344  21.718  42.096  13.460
49019W        W21345  36.904  13.407   0.882
49020W        W21346  14.122  26.442  11.355
49021W        W21347  14.503  25.466   9.755
49022W        W21348   1.986  11.134  12.108
49023W        W21349   2.932  32.998   4.475
49024W        W21350   3.899  11.748  11.654
49025W        W21351  39.799   1.893   4.228
49026W        W21352  18.518  27.575  14.882
49027W        W21353   4.036  36.515   2.853
49028W        W21354  25.490  27.948   3.242
49029W        W21355  36.965  31.081  10.375
49030W        W21356  36.803  39.448  12.750
49031W        W21357  39.852  30.756   2.974
49032W        W21358  26.719   6.953  11.136
49033W        W21359  14.135   5.976  11.092
49034W        W21360  12.174  13.113   2.835
49035W        W21361   0.064   3.931   1.808
49036W        W21362  10.061  37.906  11.622
49037W        W21363   1.419  12.861  13.463
49038W        W21364  38.371   4.421   4.066
49039W        W21365  25.103  28.474  13.315
49040W        W21366  32.266   3.451  12.750
49041W        W21367  38.544  38.019  10.457
49042W        W21368  22.949  25.651  13.979
49043W        W21369  26.150  43.964   2.468
49044W        W21370  11.540  29.592  11.300
49045W        W21371  22.026  13.400  12.354
49046W        W21372   7.722  10.195  13.363
49047W        W21373   7.124  28.127   0.269
49048W        W21374  30.292  17.608   0.326
49049W        W21375  11.926  14.326  10.704
49050W        W21376   9.739  10.329   1.205
49051W        W21377  30.923   5.642  13.305
49052W        W21378   2.963  42.743  12.540
49053W        W21379   7.685  35.820  13.381
49054W        W21380  43.210  41.361   0.450
49055W        W21381  27.922  13.645  14.600
49056W        W21382  12.887  17.306  13.266
49057W        W21383  18.821  14.827  14.727
49058W        W21384  29.220  22.071  13.436
49059W        W21385  15.423  41.127  13.873
49060W        W21386   8.284  10.800  10.292
49061W        W21387  12.679  21.216  12.879
49062W        W21388  39.078  27.156   0.804
49063W        W21389  30.683  21.111  12.704
49064W        W21390  42.763   6.465   0.977
49065W        W21391  20.050  32.372  10.798
49066W        W21392  21.013  32.860   2.513
49067W        W21393  20.783  42.859  13.940
49068W        W21394  32.091  23.061  10.758
49069W        W21395  28.621   9.698  14.937
49070W        W21396  21.392   9.021  12.812
49071W        W21397  41.893  27.601  14.953
49072W        W21398  12.767  37.322   2.764
49073W        W21399  30.900  44.023  10.157
49074W        W21400  41.436  22.806   4.236
49075W        W21401  12.285   1.593  12.442
49076W        W21402  43.590   2.590   4.592
49077W        W21403  33.278  25.894   3.364
49078W        W21404   8.267  10.038   2.281
49079W        W21405  33.374  35.454   0.789
49080W        W21406  33.127  22.662   2.287
49081W        W21407  31.959  31.851   3.455
49082W        W21408  14.305   8.741  11.761
49083W        W21409  35.610  17.190  12.006
49084W        W21410  26.163  12.169  10.532
49085W        W21411  12.791  16.275   0.022
49086W        W21412  30.167  17.560  10.388
49087W        W21413  39.009  19.364   4.629
49088W        W21414  38.631  37.985   2.817
49089W        W21415  25.078  13.135  13.525
49090W        W21416   5.658  16.183   0.293
49091W        W21417  24.245   0.886  12.578
49092W        W21418   2.838  32.553   3.657
49093W        W21419  11.254   5.284  11.715
49094W        W21420  34.925  23.272   0.034
49095W        W21421  17.147   5.488  14.004
49096W        W21422  35.157   6.439   0.940
49097W        W21423  19.690  11.061  14.500
49098W        W21424  43.518  16.145   0.739
49099W        W21425   7.651   5.853   4.633
49100W        W21426  29.579  13.184   0.341
49101W        W21427  18.492  38.409   4.502
49102W        W21428  38.915   4.432   0.823
49103W        W21429   5.727  15.115   1.773
49104W        W21430  13.319  26.055   0.393
49105W        W21431  25.649  31.867  14.348
49106W        W21432  40.326  14.825  13.040
49107W        W21433  35.102  17.063   4.653
49108W        W21434  18.973  16.179   4.114
49109W        W21435  11.229  37.110  10.691
49110W        W21436  38.783  16.884   3.708
49111W        W21437  41.273  30.370  12.558
49112W        W21438  35.123  35.288   2.800
49113W        W21439  22.045   6.264   1.814
49114W        W21440  12.598   4.750   2.688
49115W        W21441  22.075  28.048  11.541
49116W        W21442  30.911  15.993   2.814
49117W        W21443  13.301  21.794  13.937
49118W        W21444  22.590  44.823   1.790
49119W        W21445  19.244  28.605   0.845
49120W        W21446  16.126  43.588   0.531
49121W        W21447  16.726  40.545  13.153
49122W        W21448   8.871  28.670   0.260
49123W        W21449  40.864  44.198   4.911
49124W        W21450   1.661  26.659   3.227
49125W        W21451  18.651  26.467  13.988
49126W        W21452  19.924   0.455   1.832
49127W        W21453  18.290   4.199  11.560
49128W        W21454  42.429  29.913  13.889
49129W        W21455   5.339  43.783   3.239
49130W        W21456  20.216  39.060   2.692
49131W        W21457  32.309   7.642  10.303
49132W        W21458  33.065  13.675  14.418
49133W        W21459   1.601  44.372  12.450
49134W        W21460   7.398   4.946   3.796
49135W        W21461  16.868  17.256   1.436
49136W        W21462   3.781  27.116  10.379
49137W        W21463  36.060   8.830   2.629
49138W        W21464  22.003   9.385   0.934
49139W        W21465  14.804  31.838   0.578
49140W        W21466  12.949  20.291  12.024
49141W        W21467  25.120  36.132  14.606
49142W        W21468  42.716  12.645  14.036
49143W        W21469  24.026  26.300  10.008
49144W        W21470  19.622   1.260  12.009
49145W        W21471  31.877  30.442  14.467
49146W        W21472   4.331  42.777  13.180
49147W        W21473  44.935  40.357   3.639
49148W        W21474  13.700  28.968   3.268
49149W        W21475   3.805  27.520   3.664
49150W        W21476  28.056  27.464   3.386
49151W        W21477   4.994  24.903  13.044
49152W        W21478   5.168  39.362  14.816
49153W        W21479  20.094  19.459   5.129
49154W        W21480  42.729  40.428   2.706
49155W        W21481  26.012  28.701   2.217
49156W        W21482  40.558   6.790  11.917
49157W        W21483  10.842  35.915   0.235
49158W        W21484  36.881  20.289   0.630
49159W        W21485  21.289  31.618  11.638
49160W        W21486  11.756  39.912   0.035
49161W        W21487  25.889  39.792   0.900
49162W        W21488  12.204  20.782   4.420
49163W        W21489  25.896  17.082  10.218
49164W        W21490  23.778   1.975  10.907
49165W        W21491  17.802  29.691   3.689
49166W        W21492  14.373   3.903   3.864
49167W        W21493  35.929  29.922   0.378
49168W        W21494  28.394  38.433  11.043
49169W        W21495  19.198  37.572  14.079
49170W        W21496   5.638  37.074  13.784
49171W        W21497  31.449   1.042  14.944
49172W        W21498  44.253   3.873  13.518
49173W        W21499  41.339  27.640   0.298
49174W        W21500  19.912  42.255  14.322
49175W        W21501  43.029  32.085  13.399
49176W        W21502  16.641  17.762  11.805
49177W        W21503  14.769   9.847  11.503
49178W        W21504  17.556  43.264   3.659
49179W        W21505  25.959  42.764   1.111
49180W        W21506  28.026  33.024   2.257
49181W        W21507  41.978   9.973  10.517
49182W        W21508  41.095   3.850   4.693
49183W        W21509  11.828  36.906  11.486
49184W        W21510  16.708  28.642  10.751
49185W        W21511  44.358  44.266  11.970
49186W        W21512   3.653  22.320   4.717
49187W        W21513   7.784  10.573  13.018
49188W        W21514   2.941  30.559  13.643
49189W        W21515  32.335  42.830  14.758
49190W        W21516   7.111  20.550   3.743
49191W        W21517   7.858  26.668   2.209
49192W        W21518  44.307  14.325   3.255
49193W        W21519  16.491   4.457  11.153
49194W        W21520  35.423  25.277   4.241
49195W        W21521   8.207   0.952   1.145
49196W        W21522   0.333   1.966  11.994
49197W        W21523  15.217  19.629   2.413
49198W        W21524  33.118  24.204   2.378
49199W        W21525   9.405  30.335  10.661
49200W        W21526  26.629  38.062   4.438
49201W        W21527  22.207  20.352  12.826
49202W        W21528  17.314   9.784   2.233
49203W        W21529  37.967  14.095  14.519
49204W        W21530  41.050  34.349   3.022
49205W        W21531   4.478  27.106  12.474
49206W        W21532  33.068  43.534  14.470
49207W        W21533  38.201   8.211   1.931
49208W        W21534  44.976   7.411  14.708
49209W        W21535   6.727  37.481   1.757
49210W        W21536  38.163  31.557   2.939
49211W        W21537  13.216   2.487   4.169
49212W        W21538  29.545  27.159   2.142
49213W        W21539  33.376  40.392   4.668
49214W        W21540  11.416  19.146   3.779
49215W        W21541  23.720  33.181   3.255
49216W        W21542  39.844   3.880   4.215
49217W        W21543  13.587  36.490  12.491
49218W        W21544  17.251  43.668   0.113
49219W        W21545   1.760  20.057  11.080
49220W        W21546  18.537  26.212   1.176
49221W        W21547  12.488  35.859  11.172
49222W        W21548   1.001   8.839  11.333
49223W        W21549   8.402  12.196  11.283
49224W        W21550  27.671  44.307   4.966
49225W        W21551  40.795  12.430  13.325
49226W        W21552  42.530  10.844   0.022
49227W        W21553   9.130  30.120  13.703
49228W        W21554   6.639  10.857   1.007
49229W        W21555  10.307  40.775  13.971
49230W        W21556  33.889  26.949   3.393
49231W        W21557  27.314   3.327   3.417
49232W        W21558  22.564  13.336  14.864
49233W        W21559  17.484  21.001  14.348
49234W        W21560   8.655   0.449  12.992
49235W        W21561   5.449  30.650  14.661
49236W        W21562  25.279   1.827   0.744
49237W        W21563  31.549   0.742   0.405
49238W        W21564  42.861  40.971   2.172
49239W        W21565  11.262  30.406   3.262
49240W        W21566  16.731  22.000  14.914
49241W        W21567  35.975  39.129  13.666
49242W        W21568  28.380  15.552   3.111
49243W        W21569  36.838  13.144  10.561
49244W        W21570  26.412  15.736  13.822
49245W        W21571  38.032  10.224  12.843
49246W        W21572  31.507  26.086   2.767
49247W        W21573   9.624  33.516   1.413
49248W        W21574  40.499  20.095  12.140
49249W        W21575  17.435  31.071   2.659
49250W        W21576   5.107   9.277  13.532
49251W        W21577  24.405  40.731   2.427
49252W        W21578  24.425  42.958  14.385
49253W        W21579  28.405  18.159   4.553
49254W        W21580  36.040  43.493  14.268
49255W        W21581  33.396   4.643   2.893
49256W        W21582  17.631  15.546   2.557
49257W        W21583  37.794   6.999   2.250
49258W        W21584  28.013  17.172  11.556
49259W        W21585   2.008  27.414   2.221
49260W        W21586  11.089  38.302   1.867
49261W        W21587  38.165  18.747  11.411
49262W        W21588  30.259  43.228   0.649
49263W        W21589  22.021  21.207   2.493
49264W        W21590   2.996  44.366  12.888
49265W        W21591  28.868  21.598  10.686
49266W        W21592  26.279  28.497  12.526
49267W        W21593  37.075  16.361   3.155
49268W        W21594  18.827  14.592   0.803
49269W        W21595  28.219  38.090  12.061
49270W        W21596   3.279   7.150   3.739
49271W        W21597  35.278  33.109  11.966
49272W        W21598  43.821  15.333   3.194
49273W        W21599  15.273  38.056   3.581
49274W        W21600  23.630  42.726   4.204
49275W        W21601  37.960  27.555   0.589
49276W        W21602  12.875   9.780  14.478
49277W        W21603  23.063  12.669  13.477
49278W        W21604  34.910  14.550   0.686
49279W        W21605  34.911  14.309  12.395
49280W        W21606  40.850   9.946   2.400
49281W        W21607  25.421  19.506   0.755
49282W        W21608   4.057   4.339  13.457
49283W        W21609  26.019  11.850  14.431
49284W        W21610   6.832  16.782  14.388
49285W        W21611  17.196  17.817   4.821
49286W        W21612   0.236  21.019  11.985
49287W        W21613  44.523  26.591  12.168
49288W        W21614  26.267  33.201   1.844
49289W        W21615  10.755  40.410  11.585
49290W        W21616  27.539  24.047  11.945
49291W        W21617  27.992  16.750  14.927
49292W        W21618  15.696   1.508   3.186
49293W        W21619  25.650   9.402   0.316
49294W        W21620  19.220  41.914   1.959
49295W        W21621  29.163  18.326  10.341
49296W        W21622  33.442  39.003   3.718
49297W        W21623  34.259   2.612   4.234
49298W        W21624  39.700  43.319   0.101
49299W        W21625  43.863  26.783   2.672
49300W        W21626   4.307  37.520   4.926
49301W        W21627  41.069  22.448   2.143
49302W        W21628   9.163  16.007  11.135
49303W        W21629  30.032  12.266  13.098
49304W        W21630  26.398  21.201   2.070
49305W        W21631   4.615  22.295  13.359
49306W        W21632  44.392  23.829   1.864
49307W        W21633  17.301   1.427  12.427
49308W        W21634  14.432  38.445  14.600
49309W        W21635  33.025   6.694   0.378
49310W        W21636  21.842  16.265   2.317
49311W        W21637  42.397  25.733  12.553
49312W        W21638  33.741  28.171  11.554
49313W        W21639   2.241  29.226  12.856
49314W        W21640   4.454  33.597   1.933
49315W        W21641  35.006  40.050   1.298
49316W        W21642  32.117  29.996   0.395
49317W        W21643   1.749  17.867   1.654
49318W        W21644  22.795   9.419  13.093
49319W        W21645  29.394   5.640   1.878
49320W        W21646   0.508   0.835   0.849
49321W        W21647   3.253  22.216   4.342
49322W        W21648  27.760  34.985   1.846
49323W        W21649   7.235   3.057  14.826
49324W        W21650  25.115  35.119   3.432
49325W        W21651  33.421  23.571  13.106
49326W        W21652  32.501  30.757  11.949
49327W        W21653  16.205  19.700   4.082
49328W        W21654  10.938  27.519   0.028
49329W        W21655  17.527  19.807  11.566
49330W        W21656  43.248  31.603  11.978
49331W        W21657  10.189  19.052   4.135
49332W        W21658  21.693  10.832   3.679
49333W        W21659  15.071  12.153   2.692
49334W        W21660   5.223  30.139  12.831
49335W        W21661  32.608  39.040  14.791
49336W        W21662  18.682  19.241   0.863
49337W        W21663  43.975  39.889  13.043
49338W        W21664   6.955  22.061  12.609
49339W        W21665  17.751  17.195  13.713
49340W        W21666   8.928  28.581  13.894
49341W        W21667  23.595  40.350   4.217
49342W        W21668  11.080   1.322  11.220
49343W        W21669   7.362   4.447   1.669
49344W        W21670  38.043  34.344   4.512
49345W        W21671  17.105  39.207  10.925
49346W        W21672  43.712  24.157  13.595
49347W        W21673   3.200  41.410   1.337
49348W        W21674  40.958  28.008  12.486
49349W        W21675  29.401   8.722  13.513
49350W        W21676  21.524  39.294   5.317
49351W        W21677  19.767  42.100   4.723
49352W        W21678   4.006  12.686   4.141
49353W        W21679  22.596  29.945   4.420
49354W        W21680  27.469  38.875   3.598
49355W        W21681   8.252  31.009  11.170
49356W        W21682   6.827  23.199  13.808
49357W        W21683  26.589  31.049   4.204
49358W        W21684  15.948  14.528  11.873
49359W        W21685  17.808   7.619   0.310
49360W        W21686  10.163   3.517  13.870
49361W        W21687  10.291  25.641  10.741
49362W        W21688  37.517  35.440  14.947
49363W        W21689  23.319  20.523   1.517
49364W        W21690  19.621  43.168   2.138
49365W        W21691  11.620  15.191   2.081
49366W        W21692  35.219  33.619   0.612
49367W        W21693  39.009  22.086  11.602
49368W        W21694  24.181  28.665   2.455
49369W        W21695  40.967   2.300  13.006
49370W        W21696  23.549  30.866   2.189
49371W        W21697  21.790   3.337  14.546
49372W        W21698  14.644  40.935   3.849
49373W        W21699  12.678  12.597   4.449
49374W        W21700  26.814   0.138   3.688
49375W        W21701  42.487  16.866  14.458
49376W        W21702  24.977  32.984  13.849
49377W        W21703  28.337   6.183  14.785
49378W        W21704  25.906  19.177  12.108
49379W        W21705   7.738  39.861  12.106
49380W        W21706  38.813  41.840  12.081
49381W        W21707  39.973  12.120  13.163
49382W        W21708  14.791  25.892  12.573
49383W        W21709  19.511   4.349   4.620
49384W        W21710   2.878  24.308   1.443
49385W        W21711  44.749  14.665  13.018
49386W        W21712   0.474  14.165   0.636
49387W        W21713  28.333  31.396  11.930
49388W        W21714  38.007  35.532   0.175
49389W        W21715   7.346  29.460   1.726
49390W        W21716  32.385  36.673  13.115
49391W        W21717   2.989  28.186  12.054
49392W        W21718  13.222  34.946   4.269
49393W        W21719  18.954  14.807  13.278
49394W        W21720   9.687  42.037  13.821
49395W        W21721   3.872  20.253  12.517
49396W        W21722  24.216   9.629  10.862
49397W        W21723  40.541  27.067  13.975
49398W        W21724   1.470  11.371  10.250
49399W        W21725  25.207  42.597  12.302
49400W        W21726  11.406  31.538  12.438
49401W        W21727  25.057   1.795   1.733
49402W        W21728  19.779  40.327   3.031
49403W        W21729   7.421  10.047   0.777
49404W        W21730  14.828  23.725   2.317
49405W        W21731  22.373   7.946   2.679
49406W        W21732   2.553  17.883  13.841
49407W        W21733  44.610  31.431  12.918
49408W        W21734  37.169   2.206  10.671
49409W        W21735   9.019  33.147  14.413
49410W        W21736  21.178   1.350   3.823
49411W        W21737  11.233  36.499  10.642
49412W        W21738  33.670   1.965   2.985
49413W        W21739  14.860  13.248   1.222
49414W        W21740  39.509  18.550  14.287
49415W        W21741  14.292   2.769  14.801
49416W        W21742  13.317  33.008   4.843
49417W        W21743  22.690  26.564  14.491
49418W        W21744  26.901  36.672  13.276
49419W        W21745  18.708   1.733   4.635
49420W        W21746  13.628  41.560  11.106
49421W        W21747   8.284  34.095   3.697
49422W        W21748  29.226  18.192   2.863
49423W        W21749  14.835  37.191  13.802
49424W        W21750  17.330  27.550   4.240
49425W        W21751  34.641  32.627   9.939
49426W        W21752  10.692  10.148  12.058
49427W        W21753  15.822   2.968  11.574
49428W        W21754  26.727  20.069  14.955
49429W        W21755   5.894  20.228   4.137
49430W        W21756  39.327  23.727   3.752
49431W        W21757  38.356  44.035  10.641
49432W        W21758  10.696  33.594   0.704
49433W        W21759  32.655  27.537  11.496
49434W        W21760   4.480  36.209   2.763
49435W        W21761   3.199  20.548   2.401
49436W        W21762  20.576  40.545   1.974
49437W        W21763  30.427  16.742  11.007
49438W        W21764   5.037   6.957  14.755
49439W        W21765  14.383   6.811  13.374
49440W        W21766  44.332  15.151   0.906
49441W        W21767  18.567  23.230  10.327
49442W        W21768  10.283  19.826   0.953
49443W        W21769  31.278  17.045  12.492
49444W        W21770  24.962  26.112  11.191
49445W        W21771  30.547  36.289  11.124
49446W        W21772  28.010  29.932   1.755
49447W        W21773  44.863   6.458   3.878
49448W        W21774   7.538  26.856   3.234
49449W        W21775   2.107  38.787  12.474
49450W        W21776  23.228   3.183  11.269
49451W        W21777  39.982  21.648  12.273
49452W        W21778  26.512  44.551  11.288
49453W        W21779  37.913  18.744  12.367
49454W        W21780   8.652  20.490   1.859
49455W        W21781  24.035  10.788   2.382
49456W        W21782  40.309  15.162   1.309
49457W        W21783  29.950   8.291  13.874
49458W        W21784   7.207  29.503  14.717
49459W        W21785   8.515   2.521   1.697
49460W        W21786  12.143  16.541  14.681
49461W        W21787  30.676  37.059   2.091
49462W        W21788  30.050  43.988   4.940
49463W        W21789  25.096  23.794  11.143
49464W        W21790  26.944  39.623   1.897
49465W        W21791  25.569   9.974  11.830
49466W        W21792   9.769  39.375  14.868
49467W        W21793  21.867  34.350   4.816
49468W        W21794   7.859  24.455   3.238
49469W        W21795  41.812  25.866  12.981
49470W        W21796  27.721   7.367   2.994
49471W        W21797  14.237  13.602  13.893
49472W        W21798  19.103  44.812  12.338
49473W        W21799  29.691  37.213   4.511
49474W        W21800   7.765   8.876   1.764
49475W        W21801  23.240  29.636  14.386
49476W        W21802  39.784  34.612  14.477
49477W        W21803  39.856   8.394  11.385
49478W        W21804   2.004  13.107   3.700
49479W        W21805  24.798  39.528   3.578
49480W        W21806   7.561  40.392   3.968
49481W        W21807  35.619  43.309  14.525
49482W        W21808  31.010  39.982   2.349
49483W        W21809  17.484  41.027   1.294
49484W        W21810  37.821  29.392  12.207
49485W        W21811  43.060   9.214  12.005
49486W        W21812  33.165   7.825   1.725
49487W        W21813  16.761  35.017  12.011
49488W        W21814   4.974  26.188  12.644
49489W        W21815  17.057  20.695   2.625
49490W        W21816  42.923   5.960  13.205
49491W        W21817  17.185  26.137   3.648
49492W        W21818  11.828  28.304   1.560
49493W        W21819  33.594  22.187  12.866
49494W        W21820  24.715  35.486   3.309
49495W        W21821  38.502  41.243  13.037
49496W        W21822  24.087  27.415   1.915
49497W        W21823   6.977   2.198  11.057
49498W        W21824  40.945  38.216   1.149
49499W        W21825  10.258  19.656  12.914
49500W        W21826  25.926  16.613   3.268
49501W        W21827  43.087  33.725  10.699
49502W        W21828  36.580  21.757   4.112
49503W        W21829  20.253   6.413  12.141
49504W        W21830   0.851  41.784  10.997
49505W        W21831   1.966  33.926   2.811
49506W        W21832  24.624  29.261   0.629
49507W        W21833  13.508  36.853  13.784
49508W        W21834   7.594  35.495   3.276
49509W        W21835  39.868   9.395  12.253
49510W        W21836  24.384  21.220  13.611
49511W        W21837  42.740  20.971  11.080
49512W        W21838   0.819  17.069   1.529
49513W        W21839  20.828  37.310   3.763
49514W        W21840  32.446   7.670   1.071
49515W        W21841  18.265  34.642  14.256
49516W        W21842  12.061  35.622   0.568
49517W        W21843  36.927  36.803   0.379
49518W        W21844  30.082  25.948  13.269
49519W        W21845  14.688  39.423  12.540
49520W        W21846  12.139  32.471  10.687
49521W        W21847   0.864  10.425  14.264
49522W        W21848  20.661  14.315  10.662
49523W        W21849  16.007  17.775  12.599
49524W        W21850  17.134  23.776  14.466
49525W        W21851  21.569  29.407   2.170
49526W        W21852  17.095   7.801  11.479
49527W        W21853  25.183   3.474  11.123
49528W        W21854   1.503  27.250  12.593
49529W        W21855  12.585  25.310  13.903
49530W        W21856  38.877  38.978  13.776
49531W        W21857  39.545  17.135   0.209
49532W        W21858  15.325  18.899  14.241
49533W        W21859  41.437   2.395   2.751
49534W        W21860  21.128  10.752   0.951
49535W        W21861  37.332  10.135   1.345
49536W        W21862  30.786  36.536  13.839
49537W        W21863  33.630  36.311   0.291
49538W        W21864  20.218  26.707   1.924
49539W        W21865  40.892  42.908   2.113
49540W        W21866  14.422  17.234  10.084
49541W        W21867  16.788  23.017  11.645
49542W        W21868   8.728  26.819  13.433
49543W        W21869  31.725  40.976   3.602
49544W        W21870  23.427  30.619   4.671
49545W        W21871  28.889  25.206   4.636
49546W        W21872  29.479  37.196  10.388
49547W        W21873  36.532  24.094  10.719
49548W        W21874  31.625  10.370   1.814
49549W        W21875  32.841  21.685   3.315
49550W        W21876  28.078   4.319  12.449
49551W        W21877  35.684  25.230   2.881
49552W        W21878  39.873  14.040  11.359
49553W        W21879  15.756   5.738  13.767
49554W        W21880  16.318  26.625   4.585
49555W        W21881  30.497  26.035  12.273
49556W        W21882  17.737  40.917   0.806
49557W        W21883   9.121  42.769   4.598
49558W        W21884  36.838  38.243  11.451
49559W        W21885  15.111  31.146   2.183
49560W        W21886  33.420  32.725  11.921
49561W        W21887  15.618  21.030   0.412
49562W        W21888  33.569  34.434  11.449
49563W        W21889  16.259  39.758   4.152
49564W        W21890  19.018  31.929   0.241
49565W        W21891  26.571  26.818   0.313
49566W        W21892  16.308  39.589   0.408
49567W        W21893   8.033  42.493  14.682
49568W        W21894  18.503   8.724   0.449
49569W        W21895  23.630  20.717   4.738
49570W        W21896  21.324  37.914   2.792
49571W        W21897  32.539  31.244   3.686
49572W        W21898  37.511   5.797   4.058
49573W        W21899  24.127  14.297  10.475
49574W        W21900  41.266  44.502   4.753
49575W        W21901  38.873  22.148   2.440
49576W        W21902  33.120  21.368  13.192
49577W        W21903   9.875   9.563   4.598
49578W        W21904  14.190  19.050   5.081
49579W        W21905  20.701  14.783  10.884
49580W        W21906   7.297  42.042   1.866
49581W        W21907   0.784  16.664   3.919
49582W        W21908  34.776  14.869   4.332
49583W        W21909  34.942   5.946  13.734
49584W        W21910  21.471  19.613   0.205
49585W        W21911  17.354  33.129   4.100
49586W        W21912  20.995   7.875   2.892
49587W        W21913  12.609  41.745   1.256
49588W        W21914  13.682  40.908   4.291
49589W        W21915  44.378   6.489   4.959
49590W        W21916   0.770  39.356   4.551
49591W        W21917   9.672  21.663  13.323
49592W        W21918  22.964   7.178   3.718
49593W        W21919   0.881   5.898  14.956
49594W        W21920   3.698   5.253   3.299
49595W        W21921  26.658  16.966   0.806
49596W        W21922  18.740  21.597   4.306
49597W        W21923  32.098  25.144   1.242
49598W        W21924  41.434  34.979   2.445
49599W        W21925  20.792  29.881   3.667
49600W        W21926  26.774  40.354   5.060
49601W        W21927  17.142  16.515  11.139
49602W        W21928  25.543   6.342   0.194
49603W        W21929  37.270  38.857   3.680
49604W        W21930  25.553  10.586  12.818
49605W        W21931  43.387   9.744  13.257
49606W        W21932   2.220  26.578   2.382
49607W        W21933   5.823  29.035  14.225
49608W        W21934   2.214   3.886   1.216
49609W        W21935  22.240  21.522  12.112
49610W        W21936  17.192  10.395  10.665
49611W        W21937  41.305  35.181   2.899
49612W        W21938   8.313  44.789  14.273
49613W        W21939  35.362   1.580  14.939
49614W        W21940  38.378  22.102   4.158
49615W        W21941   8.238  41.548   0.205
49616W        W21942  22.442  10.390   2.837
49617W        W21943  12.613  28.676  14.263
49618W        W21944  44.196  38.331   5.092
49619W        W21945   6.461  40.791   3.326
49620W        W21946  28.065  32.482   1.009
49621W        W21947  32.167  15.303   1.162
49622W        W21948  27.602  21.529  13.580
49623W        W21949  42.953  24.750   2.292
49624W        W21950  15.554  27.978  12.190
49625W        W21951   9.550   8.656   4.611
49626W        W21952  43.480  27.876  12.328
49627W        W21953  24.658  22.699   2.132
49628W        W21954  11.306  37.371  13.301
49629W        W21955  42.116  32.973   1.817
49630W        W21956  40.782  23.732   0.773
49631W        W21957  37.852   2.302   0.860
49632W        W21958  31.195  26.174   3.889
49633W        W21959   9.253  21.247  10.055
49634W        W21960  25.948  23.274  11.521
49635W        W21961   9.721  10.658   4.300
49636W        W21962  22.569  30.657  13.969
49637W        W21963  30.350  10.563  11.776
49638W        W21964  14.354  42.782  13.672
49639W        W21965  29.300   6.771  12.125
49640W        W21966   8.714  17.140   2.365
49641W        W21967  41.777  10.781   1.355
49642W        W21968  28.919   6.142   1.491
49643W        W21969  26.180  20.070  13.534
49644W        W21970  37.406   2.360  11.626
49645W        W21971  42.516  43.894   0.800
49646W        W21972   1.494  13.186   3.836
49647W        W21973  15.569  16.086  10.950
49648W        W21974  11.744  19.476  13.772
49649W        W21975  25.047  10.168  12.515
49650W        W21976  36.853   1.379   4.668
49651W        W21977  38.937   9.295   0.876
49652W        W21978  42.487   7.844  14.604
49653W        W21979  41.715  34.844  11.632
49654W        W21980  38.501   7.289   4.887
49655W        W21981  11.744   5.342  12.477
49656W        W21982  37.629  31.228  13.927
49657W        W21983  32.858  14.584  11.140
49658W        W21984   7.279  26.521   0.539
49659W        W21985   2.998   6.766   2.844
49660W        W21986  38.034  33.547   4.977
49661W        W21987  21.584  13.611  11.841
49662W        W21988  11.327  15.351  13.459
49663W        W21989  17.831   0.542  12.480
49664W        W21990  29.207  32.559   3.139
49665W        W21991  28.559  25.181  10.097
49666W        W21992  12.747  24.235   1.309
49667W        W21993  11.692  35.113   2.695
49668W        W21994   2.252  14.303  13.313
49669W        W21995  19.564   3.582  12.013
49670W        W21996  14.301  10.197   0.499
49671W        W21997  34.244   4.433  13.334
49672W        W21998  26.004  34.085   1.973
49673W        W21999  20.136  18.969   1.716
49674W        W22000  15.183  16.051   3.686
49675W        W22001   2.201  39.827   0.721
49676W        W22002  14.907   9.106   4.225
49677W        W22003  17.831   4.863  13.293
49678W        W22004   2.740   7.187   2.339
49679W        W22005  37.799  38.024  11.114
49680W        W22006  44.445  32.948   3.783
49681W        W22007  18.672  16.157   2.130
49682W        W22008  43.639  31.622  13.820
49683W        W22009  28.551  20.152   3.758
49684W        W22010  11.860   1.098  14.703
49685W        W22011  22.917   6.385  13.753
49686W        W22012  22.667  11.188   3.284
49687W        W22013  25.714   8.757  14.255
49688W        W22014  38.561  10.950   4.188
49689W        W22015  20.613  25.015  10.938
49690W        W22016  10.395  25.343   0.008
49691W        W22017  29.419  24.589   1.393
49692W        W22018   7.316  30.569  13.338
49693W        W22019  36.134  20.047  12.138
49694W        W22020   9.559   3.459   4.032
49695W        W22021  15.900  27.522  13.776
49696W        W22022   9.967  30.038  11.636
49697W        W22023  44.896  26.245  13.848
49698W        W22024  29.665  22.479   0.883
49699W        W22025  43.858  18.002   0.710
49700W        W22026  25.681   7.781   2.348
49701W        W22027   5.272  31.628  11.550
49702W        W22028  32.573  35.322   4.649
49703W        W22029  26.115  14.489  13.432
49704W        W22030  35.907  42.811  12.630
49705W        W22031   9.135   4.776  11.075
49706W        W22032   8.114  24.949   0.420
49707W        W22033  10.741  35.124  13.408
49708W        W22034  16.059  28.030   2.930
49709W        W22035  37.996  12.523   5.450
49710W        W22036   3.329  12.047   5.023
49711W        W22037  16.655  32.357   1.285
49712W        W22038   5.525  17.234  12.501
49713W        W22039  42.458  18.684  11.217
49714W        W22040  20.512  26.831   3.207
49715W        W22041  25.153  18.719   4.603
49716W        W22042  28.078  17.755   4.553
49717W        W22043  42.513   3.856   3.750
49718W        W22044  43.425  22.723   1.843
49719W        W22045  27.670  20.636  13.350
49720W        W22046  43.749   4.212  11.539
49721W        W22047  12.647   4.727  14.480
49722W        W22048  26.573   3.390  11.475
49723W        W22049  23.970  14.836   1.433
49724W        W22050  12.213   5.679  14.439
49725W        W22051  11.828  41.470  13.350
49726W        W22052  10.786  42.953   0.834
49727W        W22053  32.329  10.967  13.514
49728W        W22054  23.570   4.429   3.867
49729W        W22055  15.485  40.335   1.773
49730W        W22056  42.351  44.584  13.046
49731W        W22057  27.471   8.976  10.693
49732W        W22058  32.534  15.056   2.646
49733W        W22059  11.481  14.452   0.429
49734W        W22060  44.869  44.820   2.313
49735W        W22061  22.618  12.740   4.943
49736W        W22062  11.013  31.438  13.277
49737W        W22063  13.166   9.694   0.958
49738W        W22064  29.036  44.393   0.532
49739W        W22065  44.462  34.562  11.602
49740W        W22066  35.747  19.506   0.752
49741W        W22067  42.828   2.115  11.625
49742W        W22068  27.796  36.767   0.012
49743W        W22069  19.306  20.536   4.555
49744W        W22070  28.410  28.796   0.131
49745W        W22071  21.211  13.388   0.274
49746W        W22072   9.364   0.400   4.625
49747W        W22073  22.863   7.788   0.262
49748W        W22074  29.248  34.588   4.736
49749W        W22075  16.154   0.865   1.354
49750W        W22076  26.486  30.578  11.614
49751W        W22077  28.116  43.032   0.493
49752W        W22078  43.523   1.208  13.921
49753W        W22079  43.192  20.089   2.791
49754W        W22080   2.905  12.659  11.509
49755W        W22081  12.650  32.201  14.974
49756W        W22082  17.669  30.655   0.853
49757W        W22083  19.645   5.973  10.105
49758W        W22084  42.996  41.958  12.475
49759W        W22085   2.487   2.652  12.313
49760W        W22086  17.992  18.728   3.477
49761W        W22087  30.052  27.523   4.609
49762W        W22088  16.626  12.672  14.628
49763W        W22089   8.885  14.528  11.097
49764W        W22090   3.776  11.676   4.185
49765W        W22091  38.828  17.249   3.278
49766W        W22092  28.905  13.151   4.557
49767W        W22093  40.557   8.392   2.778
49768W        W22094  27.023  40.576  10.698
49769W        W22095  37.023  20.768  12.940
49770W        W22096  40.538  27.101   3.628
49771W        W22097  41.268   8.279   3.819
49772W        W22098   1.332  12.832  13.975
49773W        W22099  34.137  21.247   3.637
49774W        W22100  26.499  37.656  10.535
49775W        W22101  40.817   0.334   5.006
49776W        W22102   5.196  27.710  10.711
49777W        W22103   8.747   6.449   4.066
49778W        W22104  31.443  41.776  12.173
49779W        W22105  14.619  34.687   1.932
49780W        W22106  29.682  17.694   3.339
49781W        W22107  35.574  34.938  12.071
49782W        W22108   4.756  35.405   4.453
49783W        W22109  11.823  15.570  11.069
49784W        W22110  41.410  36.584  13.118
49785W        W22111   1.251   8.117   0.344
49786W        W22112   8.130   6.759  13.026
49787W        W22113   4.169   0.767  12.775
49788W        W22114  44.203  24.731   2.319
49789W        W22115  21.923  10.831   3.175
49790W        W22116  29.894  43.055   3.557
49791W        W22117   2.904   4.230   4.420
49792W        W22118  13.699  35.089   0.860
49793W        W22119   0.206  39.520  14.788
49794W        W22120  32.698  33.017  12.015
49795W        W22121   8.376  10.355  10.538
49796W        W22122  13.178  21.496   3.580
49797W        W22123  37.401  14.909   2.891
49798W        W22124  14.051  30.231  10.678
49799W        W22125  12.864  25.169  11.667
49800W        W22126  24.009  34.963  12.387
49801W        W22127  34.510  26.441   1.476
49802W        W22128  40.866  22.034  14.428
49803W        W22129  29.205  17.210  14.907
49804W        W22130  18.246   9.136   1.507
49805W        W22131  11.358  36.585   4.254
49806W        W22132  14.624  24.586   1.173
49807W        W22133  11.875   9.863  13.590
49808W        W22134   1.532   4.041   5.560
49809W        W22135  15.664  12.231   2.823
49810W        W22136  22.203   5.327   0.380
49811W        W22137  24.606  33.619  13.999
49812W        W22138  10.443  19.143   2.341
49813W        W22139  43.953  18.060   3.661
49814W        W22140   2.050  44.491  10.259
49815W        W22141  37.467  39.832  14.983
49816W        W22142  22.978  25.233   2.156
49817W        W22143  27.558   2.247  12.895
49818W        W22144   0.018  37.828   0.293
49819W        W22145  43.366  12.926  12.595
49820W        W22146   0.375  19.651   3.425
49821W        W22147  13.395  39.798   1.311
49822W        W22148   9.217  18.955  11.694
49823W        W22149  16.098  25.728   0.463
49824W        W22150  32.958  14.572  13.966
49825W        W22151  42.731   8.112  10.703
49826W        W22152  21.626  23.611   0.523
49827W        W22153   5.835  24.862  13.986
49828W        W22154  22.249  33.895  12.958
49829W        W22155  32.970  33.432   2.333
49830W        W22156  19.528   7.695   0.516
49831W        W22157  42.375  35.630  13.833
49832W        W22158  32.403   0.548  11.005
49833W        W22159  24.512  44.862   2.585
49834W        W22160  28.027   3.787   3.286
49835W        W22161  19.117   1.325  12.876
49836W        W22162  17.799  18.180   1.483
49837W        W22163  38.052  13.052  10.648
49838W        W22164  27.575  25.160   4.187
49839W        W22165  31.599  13.721  13.801
49840W        W22166  21.334   5.937   3.190
49841W        W22167  36.769  17.177  13.333
49842W        W22168   7.916  13.443   0.878
49843W        W22169  21.104  37.191   0.537
49844W        W22170   8.108   2.448   4.427
49845W        W22171  26.986  13.733   2.156
49846W        W22172  15.623  31.804  14.880
49847W        W22173  31.375  29.574   3.148
49848W        W22174  22.567  17.498  14.398
49849W        W22175   1.808  30.684  14.771
49850W        W22176   8.257  39.495   0.672
49851W        W22177   2.679  41.032  12.674
49852W        W22178  28.621  25.187  11.385
49853W        W22179  32.887   6.453  13.091
49854W        W22180  22.751  30.794   1.784
49855W        W22181  21.765  19.575   4.774
49856W        W22182  43.363  37.712   2.830
49857W        W22183  11.979   6.673  12.097
49858W        W22184  43.846   0.970   1.283
49859W        W22185   6.575  41.324   1.567
49860W        W22186   9.541  16.364  11.033
49861W        W22187  40.362  39.070  13.014
49862W        W22188  24.109  38.052   2.850
49863W        W22189  44.849  34.188   3.342
49864W        W22190  20.792  37.278  11.162
49865W        W22191  36.608  30.905  10.742
49866W        W22192  36.328  33.895   3.675
49867W        W22193  18.591  29.180   4.621
49868W        W22194  43.997  18.999   0.812
49869W        W22195   4.185  28.363  11.726
49870W        W22196  21.216  18.271   1.297
49871W        W22197   8.809  15.590   1.643
49872W        W22198  39.689  35.975  11.164
49873W        W22199  30.072  36.361   4.345
49874W        W22200  16.283  27.000   3.146
49875W        W22201  40.755  25.895   1.325
49876W        W22202  11.900  38.919   1.189
49877W        W22203  42.932  38.370   3.209
49878W        W22204  33.752   7.699  11.087
49879W        W22205  39.756   1.513  11.064
49880W        W22206  30.000  34.363   0.766
49881W        W22207  17.186  19.159  12.171
49882W        W22208  10.406  10.757  11.114
49883W        W22209  37.318  12.222  13.500
49884W        W22210  34.786  21.748   2.259
49885W        W22211   8.819  40.235   4.693
49886W        W22212   5.010  41.596   4.140
49887W        W22213  33.954  44.814   4.592
49888W        W22214   4.231   7.194  11.179
49889W        W22215  20.936   8.657  10.889
49890W        W22216  32.109  40.441   4.358
49891W        W22217  37.120  36.885   2.374
49892W        W22218  11.394  33.872   4.114
49893W        W22219  25.991  35.630  10.670
49894W        W22220  36.534  14.671  13.755
49895W        W22221  18.830   6.769   1.170
49896W        W22222   6.907  37.407   3.192
49897W        W22223  18.810  25.665  10.938
49898W        W22224  11.609  25.657  14.292
49899W        W22225   4.173  16.899   3.247
49900W        W22226  44.344  19.809   5.008
49901W        W22227   8.500  39.620  13.371
49902W        W22228  20.810  40.547  10.487
49903W        W22229  16.662   4.230  13.487
49904W        W22230   9.918  40.810   1.331
49905W        W22231  24.860  29.645  11.140
49906W        W22232  24.496  23.102  14.958
49907W        W22233  30.389   3.679  14.823
49908W        W22234  30.504  17.277   1.191
49909W        W22235  20.135   1.700   0.786
49910W        W22236  43.182   8.779  13.988
49911W        W22237  17.540  43.904   3.194
49912W        W22238   5.350  25.702   1.594
49913W        W22239  18.514  31.104   0.293
49914W        W22240  25.649  28.476   1.887
49915W        W22241  35.794  29.967   3.333
49916W        W22242  21.296  38.327  12.019
49917W        W22243  39.346  33.836  11.164
49918W        W22244  33.337  42.020  12.992
49919W        W22245  22.678   4.267  12.525
49920W        W22246  27.616  28.459  12.337
49921W        W22247   6.397  38.956   3.649
49922W        W22248  31.392  36.933  11.436
49923W        W22249  26.456  33.145   1.347
49924W        W22250  39.067   6.473  10.552
49925W        W22251  39.150  36.343   2.272
49926W        W22252   4.399  28.245  13.015
49927W        W22253  13.226   6.843   2.625
49928W        W22254  15.191   2.805   4.502
49929W        W22255   9.658   2.980   1.761
49930W        W22256  11.930  32.620   3.008
49931W        W22257   9.585  10.106   0.741
49932W        W22258  39.557  31.664   2.378
49933W        W22259  15.094  30.182  14.550
49934W        W22260   6.818  24.772   0.880
49935W        W22261  33.417  28.551   1.394
49936W        W22262  20.247  23.238   4.658
49937W        W22263  12.033  17.140  13.362
49938W        W22264  33.166  20.572   1.898
49939W        W22265  31.626  12.096   4.341
49940W        W22266  26.675  44.607  14.918
49941W        W22267  14.027  34.565  13.400
49942W        W22268  26.347  29.439  10.428
49943W        W22269  19.941  22.523   4.627
49944W        W22270  13.780  38.329   1.375
49945W        W22271  41.813   9.498   4.584
49946W        W22272  22.639  12.821   1.184
49947W        W22273   2.287  42.785   0.258
49948W        W22274  18.286  10.334  12.325
49949W        W22275   0.909  14.340   0.921
49950W        W22276  33.398   0.802  13.454
49951W        W22277  35.407  16.186  13.811
49952W        W22278  24.622  34.626   3.625
49953W        W22279  31.750   5.455   0.312
49954W        W22280  11.388  29.007  14.310
49955W        W22281  10.585  30.451  12.461
49956W        W22282  41.001  35.678   1.538
49957W        W22283  31.042  24.738   4.414
49958W        W22284  30.989  30.653   2.847
49959W        W22285  37.428  17.750  14.442
49960W        W22286   4.013   3.899   2.438
49961W        W22287  41.250  37.500   1.572
49962W        W22288  14.788  17.576   3.331
49963W        W22289  34.377  16.087   1.903
49964W        W22290  22.659  26.408  13.101
49965W        W22291  18.808   7.696  11.000
49966W        W22292  23.845  27.537   4.140
49967W        W22293   5.043   0.829   5.181
49968W        W22294  19.649  30.950  14.092
49969W        W22295  10.710  41.686   3.706
49970W        W22296  44.893  32.931  10.531
49971W        W22297  25.198  26.020   2.758
49972W        W22298  26.651  21.698  13.947
49973W        W22299  17.694  16.053   3.543
49974W        W22300  12.924  31.645  14.362
49975W        W22301  34.506  16.606   1.887
49976W        W22302  37.156  32.967   0.942
49977W        W22303   2.267   6.307   3.714
49978W        W22304  25.080  42.104  12.448
49979W        W22305  33.402  19.556  14.949
49980W        W22306  22.632  16.053   4.769
49981W        W22307  19.334  17.383  10.668
49982W        W22308  17.029  11.623  13.335
49983W        W22309  29.247  37.330  13.925
49984W        W22310   1.655  26.054  12.085
49985W        W22311  28.264   2.875   3.169
49986W        W22312  36.330  30.050  13.013
49987W        W22313  28.692  24.681  13.331
49988W        W22314   3.228   9.306   0.184
49989W        W22315  33.835  31.427  11.921
49990W        W22316  30.653   1.113  12.025
49991W        W22317  10.093  26.515  11.094
49992W        W22318   9.788  30.740  13.444
49993W        W22319  38.544  25.761   2.806
49994W        W22320  16.588   9.368   0.466
49995W        W22321  36.010  34.142  10.088
49996W        W22322  17.333  39.382   1.379
49997W        W22323  23.286  29.974  11.557
49998W        W22324  39.238  12.252  11.229
49999W        W22325  33.419  40.579   2.219
50000W        W22326   3.911   9.763   9.792
50001W        W22327  34.370  42.201  12.130
50002W        W22328  40.553  37.658  13.968
50003W        W22329  36.253   2.133   0.220
50004W        W22330  21.713  43.798  13.460
50005W        W22331  44.786   0.169  14.062
50006W        W22332  14.154  16.992   0.846
50007W        W22333  32.612  29.233  12.026
50008W        W22334  34.871  18.620   4.476
50009W        W22335  40.383   2.974  13.356
50010W        W22336  42.885   6.214   1.420
50011W        W22337  41.779  17.119  13.819
50012W        W22338  23.241  23.026  12.932
50013W        W22339  36.013  40.518  13.569
50014W        W22340  41.797   7.965   3.126
50015W        W22341  25.867  29.734  14.957
50016W        W22342   6.732  15.674  10.975
50017W        W22343  39.838  34.876   3.147
50018W        W22344  37.540  12.065  11.324
50019W        W22345  40.696   8.418  11.453
50020W        W22346  41.499  34.598  13.716
50021W        W22347  21.201  23.675  13.339
50022W        W22348  11.354  24.208   3.280
50023W        W22349  12.764  30.103  13.317
50024W        W22350  11.334  29.636   2.822
50025W        W22351  30.572  12.107  11.822
50026W        W22352   4.948  10.387  12.070
50027W        W22353  18.205  35.121  11.838
50028W        W22354  15.852   6.848  12.217
50029W        W22355  23.686  39.302  10.886
50030W        W22356  36.073   9.438   1.813
50031W        W22357  40.988  26.294  13.963
50032W        W22358  21.092  20.576  12.074
50033W        W22359  10.592  27.918  10.731
50034W        W22360  40.153  43.087   0.862
50035W        W22361  17.526  24.582   2.206
50036W        W22362   9.175  12.719  14.775
50037W        W22363  11.751  19.078   2.681
50038W        W22364  17.619  23.880  13.568
50039W        W22365  30.799  33.476  11.991
50040W        W22366  21.645   8.226  10.762
50041W        W22367   7.805   0.690  13.131
50042W        W22368  30.238  13.199  13.820
50043W        W22369  24.971  37.312  12.951
50044W        W22370  34.518  33.415   5.442
50045W        W22371  25.264  12.888  13.945
50046W        W22372  42.737  16.702  12.575
50047W        W22373  20.602   9.152  14.422
50048W        W22374   1.046  33.988   4.576
50049W        W22375   6.198   2.446  12.314
50050W        W22376  43.485   0.266   4.120
50051W        W22377  25.925  29.452   0.384
50052W        W22378  24.498   7.415   1.437
50053W        W22379  27.309  20.039  11.158
50054W        W22380  29.037  42.320  13.262
50055W        W22381  19.663  16.365   1.663
50056W        W22382  21.835  11.246  11.130
50057W        W22383  29.075  42.582   0.301
50058W        W22384  37.433  43.953  11.487
50059W        W22385  16.501  14.341  13.136
50060W        W22386  20.825   6.464  10.711
50061W        W22387  12.252  17.701   3.152
50062W        W22388  31.060  10.316  13.839
50063W        W22389  18.252  41.033  11.007
50064W        W22390  37.962   6.855   3.968
50065W        W22391  34.521  14.378  11.995
50066W        W22392  21.152  40.141  10.468
50067W        W22393   8.710  12.055   4.051
50068W        W22394   1.809  11.392  13.558
50069W        W22395   0.577  42.601   0.882
50070W        W22396  24.608  24.445   4.127
50071W        W22397   6.690  27.963  10.709
50072W        W22398  39.580  27.440  14.546
50073W        W22399  23.587  11.341  10.768
50074W        W22400  17.289  40.958   2.692
50075W        W22401  12.144   8.119   4.151
50076W        W22402  20.163  41.646  10.074
50077W        W22403  16.081  28.609  14.463
50078W        W22404  25.660  10.734  10.505
50079W        W22405  18.063  20.123   0.908
50080W        W22406  39.933  42.856   3.239
50081W        W22407   8.536  25.589   4.214
50082W        W22408  35.240  16.005   3.733
50083W        W22409   9.337  20.505  14.334
50084W        W22410  26.921   0.431   4.093
50085W        W22411   4.925  11.721  13.438
50086W        W22412   2.892   9.283   4.299
50087W        W22413  15.298   9.118   0.354
50088W        W22414  23.027   2.614  14.183
50089W        W22415  19.690  15.046  11.387
50090W        W22416  11.804  18.612   0.222
50091W        W22417  16.362  29.579   0.276
50092W        W22418   4.186  38.355  12.676
50093W        W22419  11.108  34.566   2.309
50094W        W22420  26.568  37.565   2.204
50095W        W22421  44.446  13.195   0.913
50096W        W22422  24.987  40.982  11.056
50097W        W22423  21.751  30.042  10.687
50098W        W22424   0.955  24.161  13.970
50099W        W22425  14.896  23.073   2.797
50100W        W22426  22.567  26.086  11.181
50101W        W22427   2.344   8.141  13.426
50102W        W22428   4.260   1.458   1.563
50103W        W22429   5.382  10.006   2.056
50104W        W22430  43.413  17.502  11.541
50105W        W22431  33.180  12.674  11.106
50106W        W22432  13.320  37.304  11.634
50107W        W22433  24.092  26.207  11.075
50108W        W22434  29.520  19.291   2.288
50109W        W22435  32.821  19.822  11.144
50110W        W22436  13.774  41.330  14.487
50111W        W22437  44.755  39.350  14.953
50112W        W22438  31.518  39.577  11.590
50113W        W22439   1.793  23.603  11.557
50114W        W22440  34.373  30.052   2.165
50115W        W22441  21.474  22.603  12.763
50116W        W22442  15.933  13.053  10.883
50117W        W22443  14.145  13.530  14.979
50118W        W22444  15.259  22.198  14.482
50119W        W22445  36.348  34.482   2.195
50120W        W22446  16.177  34.471  10.710
50121W        W22447  24.208  32.921   4.306
50122W        W22448  43.942  41.367   1.858
50123W        W22449  36.512  40.794   2.141
50124W        W22450  10.240   7.960   2.849
50125W        W22451  41.843   8.441   4.419
50126W        W22452  42.936  39.494  14.927
50127W        W22453   3.022   2.953   1.171
50128W        W22454  26.207  33.960  12.507
50129W        W22455  19.589  23.719  14.766
50130W        W22456  16.377  37.960  12.156
50131W        W22457  42.234  39.198  14.265
50132W        W22458  27.343  30.919  13.485
50133W        W22459  23.950  38.847  14.750
50134W        W22460  42.475  24.144   2.729
50135W        W22461  40.447  11.998  11.964
50136W        W22462  23.040   0.614   3.659
50137W        W22463  40.596  28.446   4.283
50138W        W22464  20.407  38.373   2.692
50139W        W22465  33.926  11.601  13.694
50140W        W22466  11.336   7.013   2.629
50141W        W22467  34.591  35.541   4.861
50142W        W22468  35.885  31.324   3.439
50143W        W22469  40.278  33.033   4.449
50144W        W22470  43.041  30.828   1.446
50145W        W22471  39.529  30.990   2.638
50146W        W22472   9.791  29.005  12.026
50147W        W22473  32.232  36.999  11.644
50148W        W22474   5.353  30.663  11.562
50149W        W22475  15.590  44.303   0.367
50150W        W22476  39.825  23.005  11.439
50151W        W22477  27.100  31.921  14.335
50152W        W22478  12.759  39.556  11.397
50153W        W22479  39.353   4.796   4.080
50154W        W22480  41.944  30.643  10.878
50155W        W22481   4.210  12.124  11.445
50156W        W22482  43.471   4.267   4.752
50157W        W22483   9.302  32.054   1.220
50158W        W22484  12.198   2.305  14.487
50159W        W22485  15.448   1.238  10.907
50160W        W22486   9.747  14.074   0.382
50161W        W22487  12.879  37.572  13.300
50162W        W22488  31.756  18.362  12.517
50163W        W22489  41.230  28.791   1.462
50164W        W22490  43.626  42.742   0.985
50165W        W22491  12.371  26.552  12.815
50166W        W22492   8.750   8.115  11.580
50167W        W22493  36.317  20.746   2.691
50168W        W22494  14.972  22.935   4.178
50169W        W22495  30.124  15.630   0.405
50170W        W22496  14.633  29.782   2.774
50171W        W22497  31.060  44.925  12.886
50172W        W22498  40.746  29.633  14.832
50173W        W22499   7.197  40.508   4.863
50174W        W22500  31.333   4.876   0.902
50175W        W22501  43.538  24.129  14.542
50176W        W22502  12.481   6.134   2.786
50177W        W22503  14.608  31.403   0.825
50178W        W22504  44.541  31.414  11.582
50179W        W22505  26.205   5.272  14.524
50180W        W22506   8.840   2.756   0.381
50181W        W22507  22.512  22.117  14.262
50182W        W22508   7.282   7.750   0.944
50183W        W22509   4.302  33.183  12.143
50184W        W22510   1.933  36.389   3.286
50185W        W22511   4.773  17.505   2.647
50186W        W22512   3.745  27.947  10.670
50187W        W22513  24.398   6.450   5.139
50188W        W22514  16.266  33.097   0.033
50189W        W22515  23.563  18.898  14.912
50190W        W22516   0.850  31.085   1.418
50191W        W22517   1.946  19.676   3.514
50192W        W22518   3.419  31.584   4.764
50193W        W22519  26.747  38.303  11.940
50194W        W22520  33.796  23.381  10.921
50195W        W22521  22.711  21.780  12.931
50196W        W22522  23.475  25.482   2.208
50197W        W22523  33.486  26.155   3.764
50198W        W22524  32.493  30.923   2.209
50199W        W22525  29.591  27.493   0.859
50200W        W22526  30.191  31.184   0.147
50201W        W22527  15.548  32.829   0.775
50202W        W22528  16.695   8.602  10.546
50203W        W22529  23.990   3.171  11.687
50204W        W22530  11.820  25.808  10.539
50205W        W22531  18.699  21.517   0.714
50206W        W22532  39.553  30.596   4.565
50207W        W22533   4.563  10.690  11.897
50208W        W22534  22.503  24.696   4.963
50209W        W22535  22.795   7.497  11.228
50210W        W22536   6.747  33.023   1.297
50211W        W22537   1.511   2.340  12.355
50212W        W22538  21.662  41.230   2.790
50213W        W22539   9.716  11.869  14.064
50214W        W22540  35.378  44.258   1.175
50215W        W22541  29.530  18.843   4.494
50216W        W22542  17.803  22.976   2.285
50217W        W22543  21.520  21.134   3.178
50218W        W22544  21.580  29.715   1.739
50219W        W22545  26.049  11.736   4.046
50220W        W22546  23.990   7.747  13.928
50221W        W22547  42.024  29.392   0.368
50222W        W22548  28.520  40.241  13.530
50223W        W22549   8.580  37.033   1.200
50224W        W22550  27.642  17.516  12.073
50225W        W22551  18.363   0.573   4.314
50226W        W22552  21.021  11.151  10.732
50227W        W22553  17.737  14.784  13.032
50228W        W22554   7.095  21.924  14.704
50229W        W22555  16.339   7.289   0.950
50230W        W22556  11.180   2.590   4.565
50231W        W22557   4.191  17.314   0.947
50232W        W22558  30.487   9.901  13.591
50233W        W22559  41.107  36.983  12.500
50234W        W22560   3.383  24.477   4.213
50235W        W22561  35.960  41.542   1.159
50236W        W22562   6.289   0.468  14.334
50237W        W22563  39.018  44.154  12.093
50238W        W22564  14.515  20.839   0.975
50239W        W22565  37.930  21.202  13.394
50240W        W22566  37.881  26.556  12.461
50241W        W22567  18.891   8.804   5.057
50242W        W22568   3.243   3.521   0.370
50243W        W22569  26.851  38.911   0.458
50244W        W22570  39.269  13.410   4.769
50245W        W22571   1.717  38.425  12.478
50246W        W22572  12.180  29.209  13.925
50247W        W22573   0.792  13.796   0.905
50248W        W22574  19.154  32.492  11.207
50249W        W22575  20.696  33.419   3.232
50250W        W22576  27.527   4.265  13.375
50251W        W22577   3.151  41.737  11.597
50252W        W22578   5.399  21.197  11.156
50253W        W22579  37.903   5.967  11.177
50254W        W22580  39.796   2.371   1.889
50255W        W22581  15.635  27.847   4.080
50256W        W22582  22.277   9.641   4.379
50257W        W22583  39.312  31.604   0.858
50258W        W22584  26.179  34.609   1.650
50259W        W22585  43.797   5.420   1.728
50260W        W22586  11.248  42.447   3.632
50261W        W22587  16.125  32.776   4.245
50262W        W22588  40.077  15.995  13.942
50263W        W22589  10.349   9.403   1.324
50264W        W22590   6.843  41.753   1.861
50265W        W22591   4.942  42.042  13.893
50266W        W22592  29.931  25.710  11.081
50267W        W22593  38.493  23.724   1.256
50268W        W22594  16.202   8.160  12.402
50269W        W22595  43.404   0.689  10.795
50270W        W22596  21.944  26.525  14.427
50271W        W22597  29.026   6.688   3.255
50272W        W22598  42.792   9.963  14.602
50273W        W22599  11.284   7.386  14.424
50274W        W22600  34.599  36.560   9.983
50275W        W22601  22.775   6.762   3.250
50276W        W22602  24.551  29.129  12.887
50277W        W22603  14.099  34.440  14.898
50278W        W22604  21.772   5.973  14.077
50279W        W22605  19.503  13.661  11.517
50280W        W22606   7.511  18.110   1.144
50281W        W22607  25.139  28.533   2.124
50282W        W22608  26.646  28.126  10.186
50283W        W22609  44.890   3.434  14.976
50284W        W22610  27.170  26.496   4.975
50285W        W22611  32.476  29.739  11.999
50286W        W22612  35.456  19.514  11.201
50287W        W22613  40.898   7.677  11.163
50288W        W22614   4.432  24.825   0.300
50289W        W22615  12.030  31.579   1.724
50290W        W22616  26.647   8.193  13.346
50291W        W22617  20.236  30.596   2.254
50292W        W22618  24.093  17.236  14.403
50293W        W22619  14.235   3.212   4.651
50294W        W22620  33.425  22.185  13.342
50295W        W22621  14.871  26.373  10.044
50296W        W22622  42.956  21.580  12.852
50297W        W22623   4.872  32.473   3.713
50298W        W22624  12.580  21.505   1.911
50299W        W22625  28.517  11.659   0.079
50300W        W22626   5.309  22.666  11.848
50301W        W22627  12.561  22.956  13.892
50302W        W22628  43.824  25.150  10.711
50303W        W22629  42.520   3.452   0.450
50304W        W22630  31.491  35.571   0.306
50305W        W22631   7.364  35.842  11.068
50306W        W22632  13.899   8.107  11.795
50307W        W22633  44.055  33.675  14.088
50308W        W22634  19.564   2.856   4.679
50309W        W22635  19.502   2.995  11.103
50310W        W22636  12.010  24.794  10.715
50311W        W22637   3.935  17.581  13.842
50312W        W22638  41.086   1.358  14.090
50313W        W22639   4.252  15.526   1.359
50314W        W22640   8.258  21.122   0.068
50315W        W22641  44.220  10.331   2.352
50316W        W22642  37.286  34.445   9.955
50317W        W22643  20.161  12.719   0.825
50318W        W22644   0.387   1.767  13.296
50319W        W22645  39.210  31.371  12.427
50320W        W22646   0.882  23.647  14.064
50321W        W22647  30.994  36.245   3.730
50322W        W22648  23.821  29.498  10.944
50323W        W22649  44.880  36.061   0.750
50324W        W22650  24.644  27.501  10.665
50325W        W22651  13.886  27.146  14.331
50326W        W22652  22.620  19.332   4.203
50327W        W22653  39.182  41.196   3.737
50328W        W22654  23.489  32.901   3.650
50329W        W22655  21.635  12.701  11.520
50330W        W22656  28.553  24.980   1.127
50331W        W22657  28.529  32.426   1.240
50332W        W22658   3.252  21.000   4.607
50333W        W22659   2.859   7.341  13.441
50334W        W22660  42.275  44.373   4.591
50335W        W22661  17.152  38.559  12.810
50336W        W22662  28.065  17.559   5.020
50337W        W22663  35.901  23.613   4.603
50338W        W22664   1.962  31.832   1.584
50339W        W22665  39.917  37.678   0.742
50340W        W22666  30.020  32.132   3.330
50341W        W22667  32.174   2.815   2.706
50342W        W22668   7.026  21.610   3.129
50343W        W22669  25.126  33.091   3.229
50344W        W22670   4.576  24.427  11.151
50345W        W22671  11.299  24.007  14.765
50346W        W22672  43.268   8.132   2.396
50347W        W22673   6.196  23.301  12.616
50348W        W22674  44.360  35.902  11.217
50349W        W22675  10.245  42.506   1.976
50350W        W22676  21.686  43.427   1.930
50351W        W22677  39.822  26.503   1.635
50352W        W22678  29.003  28.209   5.048
50353W        W22679  20.652  39.980  12.125
50354W        W22680  29.910  10.080   5.064
50355W        W22681   0.761  37.252  13.601
50356W        W22682  24.596   4.109  12.563
50357W        W22683   4.624  31.295   2.889
50358W        W22684  15.849  43.642  11.459
50359W        W22685  39.330   7.892   4.589
50360W        W22686  27.054  10.757  11.886
50361W        W22687   5.945  19.572  11.447
50362W        W22688  42.378  16.648  13.420
50363W        W22689  13.032   2.733   4.600
50364W        W22690  44.488  33.471  12.007
50365W        W22691  13.599  16.745  12.473
50366W        W22692  29.194  12.308   3.567
50367W        W22693   7.876  16.035   1.879
50368W        W22694  21.478   3.779  12.553
50369W        W22695  43.519  26.188  11.433
50370W        W22696  40.008   6.459   3.668
50371W        W22697   5.652   2.471  12.891
50372W        W22698  32.129  20.191   2.479
50373W        W22699  28.237  27.837  14.900
50374W        W22700  11.777  20.267  12.349
50375W        W22701  27.185  28.572  10.573
50376W        W22702  33.071  33.107   0.029
50377W        W22703  42.508  20.098  12.609
50378W        W22704  40.088   5.459   0.012
50379W        W22705  35.453   7.154   2.236
50380W        W22706  27.899  39.767  14.480
50381W        W22707  39.124   5.236   2.373
50382W        W22708   3.385  41.158  12.778
50383W        W22709  33.632  18.974  10.811
50384W        W22710  20.311  15.323   3.608
50385W        W22711  24.121  42.563   3.606
50386W        W22712  40.334  16.547  11.858
50387W        W22713  40.290   6.559   3.260
50388W        W22714   9.665  43.002   3.265
50389W        W22715   3.772  27.672   3.160
50390W        W22716  44.854  24.792  11.561
50391W        W22717  13.138  28.156   0.391
50392W        W22718  41.289  31.445  10.705
50393W        W22719  36.308  43.744  11.967
50394W        W22720  15.950  24.162   5.058
50395W        W22721  13.738  16.182  10.615
50396W        W22722  36.262  44.390   5.136
50397W        W22723   1.958   0.735   3.868
50398W        W22724  22.712  34.130   4.698
50399W        W22725  16.464  34.997   1.631
50400W        W22726   3.790  22.561  10.241
50401W        W22727  15.661  24.170   0.813
50402W        W22728  32.441  25.539  13.520
50403W        W22729  43.003  27.995  11.170
50404W        W22730  36.936   3.851  13.499
50405W        W22731  13.658  29.931   1.820
50406W        W22732  20.714  39.724   3.104
50407W        W22733  38.474  18.735  10.982
50408W        W22734   4.079  37.684  10.367
50409W        W22735   6.364   7.045  11.453
50410W        W22736  32.073   5.447   3.125
50411W        W22737  13.550  23.298   4.372
50412W        W22738  31.049  15.961  14.540
50413W        W22739  39.517   4.736   3.106
50414W        W22740  27.403   3.927  13.801
50415W        W22741  30.298  31.600  12.934
50416W        W22742  39.111  37.107   3.640
50417W        W22743  36.572  19.033   3.342
50418W        W22744  24.274   6.253   3.619
50419W        W22745  10.141  16.804  11.380
50420W        W22746  31.072  28.411   2.880
50421W        W22747  11.760   5.814  14.749
50422W        W22748   9.814  16.355   0.828
50423W        W22749   4.168   4.222   4.175
50424W        W22750  34.973   8.184  14.977
50425W        W22751  13.296  34.478  12.066
50426W        W22752  32.494  10.309   3.630
50427W        W22753  44.215  44.799  14.867
50428W        W22754   0.074  42.951  11.401
50429W        W22755  42.675  34.388   3.847
50430W        W22756   6.292  23.685  11.487
50431W        W22757  18.296  37.888   2.307
50432W        W22758  19.547   7.785  14.444
50433W        W22759  14.511  19.020   1.808
50434W        W22760  37.801  14.724  11.091
50435W        W22761  10.140  38.542   0.567
50436W        W22762  14.670  33.001   1.649
50437W        W22763   6.113  44.044   2.557
50438W        W22764  29.474   6.628   1.098
50439W        W22765   4.713   0.458   1.779
50440W        W22766   7.886  13.189  14.978
50441W        W22767   9.405   8.486   1.857
50442W        W22768  18.735   2.785  12.863
50443W        W22769  22.201  12.628  14.833
50444W        W22770   2.902  15.013   1.743
50445W        W22771  11.426  19.128  10.458
50446W        W22772  20.983  21.459  14.397
50447W        W22773  15.085   4.783   4.094
50448W        W22774  21.157   3.550   0.902
50449W        W22775  36.053  12.901  10.209
50450W        W22776   0.910  31.109  13.880
50451W        W22777  30.130  44.504  13.520
50452W        W22778  10.422  13.130  12.598
50453W        W22779  12.129  35.151   1.827
50454W        W22780  34.343   6.641  14.318
50455W        W22781   4.914  18.088  11.123
50456W        W22782  23.805  32.719   4.536
50457W        W22783   5.447  37.527  10.690
50458W        W22784  35.000  15.111  13.634
50459W        W22785  11.700   9.608  12.155
50460W        W22786  16.798  33.606   3.913
50461W        W22787  40.451  19.275   2.338
50462W        W22788  25.404   8.795  10.537
50463W        W22789  32.963  12.303  12.886
50464W        W22790  37.773  34.607  10.860
50465W        W22791  24.683  22.856   3.161
50466W        W22792  40.537  24.798  11.296
50467W        W22793  10.260  15.715   1.853
50468W        W22794  29.134  42.882   2.863
50469W        W22795  19.654  33.207  11.964
50470W        W22796  20.605  29.895   0.906
50471W        W22797  17.522  33.651  13.119
50472W        W22798  17.317  16.874   2.389
50473W        W22799  16.808  35.305  10.856
50474W        W22800  23.354  33.876  12.119
50475W        W22801  15.616  39.227   1.385
50476W        W22802  23.272  12.736  11.579
50477W        W22803  12.817  18.297   2.985
50478W        W22804   5.894  24.929  11.162
50479W        W22805  44.174  29.598  12.348
50480W        W22806  25.700  15.260   0.248
50481W        W22807  29.991  44.037  11.689
50482W        W22808  22.614  15.296   2.994
50483W        W22809   0.283   4.975   3.658
50484W        W22810  43.252  34.932  11.261
50485W        W22811  24.699  18.281   5.178
50486W        W22812  18.764   3.712  13.782
50487W        W22813  32.232  10.151   5.081
50488W        W22814  42.955  41.386   2.903
50489W        W22815  20.293  23.036  12.007
50490W        W22816  32.171  39.187   2.446
50491W        W22817  10.417  11.200  12.414
50492W        W22818   6.444   8.875  13.519
50493W        W22819  39.338  36.199  11.873
50494W        W22820   5.304   1.347  14.299
50495W        W22821  15.290  11.272   1.468
50496W        W22822  33.356  19.815   4.204
50497W        W22823  37.110  11.607   0.355
50498W        W22824   8.829   0.242  12.505
50499W        W22825  28.312  31.489  14.028
50500W        W22826  28.984  23.592  11.646
50501W        W22827  30.883  37.548  14.899
50502W        W22828   0.449   7.839  14.205
50503W        W22829  27.091  12.534  12.944
50504W        W22830   1.321  17.930   0.213
50505W        W22831  33.987  25.368  12.562
50506W        W22832  14.076  12.137   1.003
50507W        W22833  37.793   5.747   3.155
50508W        W22834   3.911   4.959   1.542
50509W        W22835  17.453  37.979  14.729
50510W        W22836  34.394  43.512   0.654
50511W        W22837   6.068  30.583   0.345
50512W        W22838  11.309  15.536  11.137
50513W        W22839  42.927  37.616  13.243
50514W        W22840  14.133   0.149  14.438
50515W        W22841  43.986  44.276   3.625
50516W        W22842  39.378  38.192   1.447
50517W        W22843  23.983  23.485   0.874
50518W        W22844  10.607   2.710   2.149
50519W        W22845  38.502   6.905  11.470
50520W        W22846  15.665  40.432  14.074
50521W        W22847   7.343  14.885  14.539
50522W        W22848  14.125  15.859  10.377
50523W        W22849   8.534   4.216  10.555
50524W        W22850  37.970   2.418  13.077
50525W        W22851  44.793  23.714  11.526
50526W        W22852  10.312   8.491  13.591
50527W        W22853  12.899  28.430  12.395
50528W        W22854  19.047  16.601  12.886
50529W        W22855   3.288  26.222   3.673
50530W        W22856   6.295  22.086  10.387
50531W        W22857  11.705  41.803  14.565
50532W        W22858  16.067  44.903   3.247
50533W        W22859  40.219  21.212   4.950
50534W        W22860  36.404  34.287   9.687
50535W        W22861  39.093  38.032  13.900
50536W        W22862  44.769  25.569   2.672
50537W        W22863  42.569  34.335  11.471
50538W        W22864  10.903   0.842  13.009
50539W        W22865  27.276  32.152   0.875
50540W        W22866  17.208   1.245  11.926
50541W        W22867  18.162  31.355  14.881
50542W        W22868   0.966   8.719   4.573
50543W        W22869  24.705  34.282  12.910
50544W        W22870  17.840  15.977  11.161
50545W        W22871  24.907  16.698  14.204
50546W        W22872  10.760  39.456   2.870
50547W        W22873  30.029  33.119  10.673
50548W        W22874  28.524  12.764   3.306
50549W        W22875   3.192  24.465  10.436
50550W        W22876  11.192  32.856  14.865
50551W        W22877  13.398  10.400  11.021
50552W        W22878   8.406  10.734  14.489
50553W        W22879  33.078  14.121  11.424
50554W        W22880  24.975   6.434  14.091
50555W        W22881  18.155  14.224   2.005
50556W        W22882  14.938  14.035   3.754
50557W        W22883  35.181   5.295   1.869
50558W        W22884  16.534  27.684  14.548
50559W        W22885  23.437  41.767   1.786
50560W        W22886  31.126  22.206  13.252
50561W        W22887  22.960  40.247  14.361
50562W        W22888  44.626  34.704  13.060
50563W        W22889   2.038  15.051   0.025
50564W        W22890  13.517  27.117  11.803
50565W        W22891  27.069  26.187   9.718
50566W        W22892  16.116  19.571   0.199
50567W        W22893   0.660  38.383   0.476
50568W        W22894   2.870  34.897   2.837
50569W        W22895  43.242  25.633  13.946
50570W        W22896  29.173  16.131   1.777
50571W        W22897   2.793  10.324   4.312
50572W        W22898   9.354  17.587   1.494
50573W        W22899  32.215  15.491   4.615
50574W        W22900  39.498  41.489  14.707
50575W        W22901  29.236  31.486  10.588
50576W        W22902  28.032  27.424   1.765
50577W        W22903  19.442  20.243  12.345
50578W        W22904  12.063  27.507  14.852
50579W        W22905  13.903   3.450   0.267
50580W        W22906  25.521  20.070   4.563
50581W        W22907  20.131  37.461   1.044
50582W        W22908  30.880  38.859   3.701
50583W        W22909  35.417  18.051   0.324
50584W        W22910  15.305  29.050  14.321
50585W        W22911  32.354  37.412   2.184
50586W        W22912  36.555  30.791  13.427
50587W        W22913  18.563  23.831  11.204
50588W        W22914  29.888  16.291   3.626
50589W        W22915  35.589  29.398  14.531
50590W        W22916  22.105  17.237   3.637
50591W        W22917  16.418  20.117  14.464
50592W        W22918  39.898  43.517   4.031
50593W        W22919  26.073   3.174   2.855
50594W        W22920  34.330   5.474  14.443
50595W        W22921  27.646  40.144   4.035
50596W        W22922  13.664  40.028  12.368
50597W        W22923  25.600  33.269   3.220
50598W        W22924  41.026  39.717   3.567
50599W        W22925  10.450  33.043   2.214
50600W        W22926   7.604  38.476   0.018
50601W        W22927  11.216  42.569   4.130
50602W        W22928  24.429  13.435  11.172
50603W        W22929  30.172   3.782   2.338
50604W        W22930  22.119  24.106  11.565
50605W        W22931  39.859  35.513   3.809
50606W        W22932   3.132  31.419  13.122
50607W        W22933  35.850  11.413   4.021
50608W        W22934  21.252  38.403  14.924
50609W        W22935  11.514  30.640   1.091
50610W        W22936  23.960  15.657   1.849
50611W        W22937  33.966   3.902   1.198
50612W        W22938   3.994  28.955  13.314
50613W        W22939   9.280   2.706  11.634
50614W        W22940  32.418  40.786  10.571
50615W        W22941  22.117   0.391  12.401
50616W        W22942   5.399   0.921  13.556
50617W        W22943  36.351   2.211   1.175
50618W        W22944  36.711   0.508   1.426
50619W        W22945  37.526   9.290  13.985
50620W        W22946   1.487  34.668   2.850
50621W        W22947   2.684  15.306  12.547
50622W        W22948  31.401  35.791  13.823
50623W        W22949   3.807  38.073   3.764
50624W        W22950  19.772  35.307  10.984
50625W        W22951  12.351  30.946   0.787
50626W        W22952  44.612   8.558  12.899
50627W        W22953   6.797  16.808   0.474
50628W        W22954  20.595  35.141   2.632
50629W        W22955  18.718   9.720  13.459
50630W        W22956  34.619  43.121   4.692
50631W        W22957  44.014  38.355   4.141
50632W        W22958  39.699   9.298   1.366
50633W        W22959  19.544  42.432  13.975
50634W        W22960   7.481  31.855  10.336
50635W        W22961  22.631   0.381  13.086
50636W        W22962  11.227  33.233   2.049
50637W        W22963  13.836  13.090  12.979
50638W        W22964  28.265  38.360   1.412
50639W        W22965  24.221   5.740   3.408
50640W        W22966  25.209  12.411  12.957
50641W        W22967  13.189  42.538   0.281
50642W        W22968   2.416  12.760   3.238
50643W        W22969   5.475  17.581  12.998
50644W        W22970  37.111  16.161  14.307
50645W        W22971  44.794  25.308  11.713
50646W        W22972   7.188   5.353   1.338
50647W        W22973  33.376  17.652   3.168
50648W        W22974   3.639   8.463   4.567
50649W        W22975  29.916  21.741   4.960
50650W        W22976  28.426   4.306   2.404
50651W        W22977  37.822  26.656  12.976
50652W        W22978  13.812  43.225   1.618
50653W        W22979  27.029  34.093  12.354
50654W        W22980   2.845   9.196   1.029
50655W        W22981  22.126  13.862  12.967
50656W        W22982  42.924  15.979   0.232
50657W        W22983  17.123  27.356   3.178
50658W        W22984  19.553  23.538   3.282
50659W        W22985   9.676  16.042   5.034
50660W        W22986  18.995  17.682  11.461
50661W        W22987  40.773  34.830  13.898
50662W        W22988  44.850  32.612  12.602
50663W        W22989   0.295   9.059   4.132
50664W        W22990  21.546  33.475  12.617
50665W        W22991  31.089   4.394  13.824
50666W        W22992  32.530   2.930   3.777
50667W        W22993  30.625  23.719  14.310
50668W        W22994  43.038   4.920  13.812
50669W        W22995   9.445  33.630  14.353
50670W        W22996  26.439  40.527  12.381
50671W        W22997  38.892   7.159   0.791
50672W        W22998  19.130  33.867   0.318
50673W        W22999  37.916  36.300   3.261
50674W        W23000  44.325  34.667   0.144
50675W        W23001  39.211   3.398   1.259
50676W        W23002  12.549  20.606  12.350
50677W        W23003  16.829  10.600   4.350
50678W        W23004  35.806  28.213  14.871
50679W        W23005  18.088  30.122   4.581
50680W        W23006  29.582  43.697  11.641
50681W        W23007  16.474   9.345  13.339
50682W        W23008  15.182  31.477  14.933
50683W        W23009  40.654  19.266  11.620
50684W        W23010  42.890  38.418  13.588
50685W        W23011  23.693   4.948   3.833
50686W        W23012  17.186  27.086  14.320
50687W        W23013  44.548   8.759  13.830
50688W        W23014  36.713   5.995  14.038
50689W        W23015  30.083  25.944   9.706
50690W        W23016  36.714  36.472  14.580
50691W        W23017   6.448  17.996  11.695
50692W        W23018  17.001  13.976  10.942
50693W        W23019  12.547  33.439   4.676
50694W        W23020   2.955   9.853  14.527
50695W        W23021  43.251   6.895   3.235
50696W        W23022  12.198  37.179   0.233
50697W        W23023   7.962   3.001   0.242
50698W        W23024   0.514   6.086  14.020
50699W        W23025   3.505  34.541  11.569
50700W        W23026  11.534  17.046  14.010
50701W        W23027  38.709  40.179   4.196
50702W        W23028   6.863   8.408   2.849
50703W        W23029   7.374   1.875  12.523
50704W        W23030  44.217  33.206   0.679
50705W        W23031   5.958  26.382   1.717
50706W        W23032  36.588  24.971  10.043
50707W        W23033  34.445  37.413   1.262
50708W        W23034  17.249  16.109   0.957
50709W        W23035  36.044  12.322   5.094
50710W        W23036   6.567  16.260  13.946
50711W        W23037  18.651   3.330  14.509
50712W        W23038  31.955  21.577   3.768
50713W        W23039  30.933   9.859   4.036
50714W        W23040  39.433  33.757  10.201
50715W        W23041  34.433   8.912   1.409
50716W        W23042  16.826  18.774   0.212
50717W        W23043  15.809   7.019   2.268
50718W        W23044  18.498  43.843  13.553
50719W        W23045  10.144  23.027   1.289
50720W        W23046  25.697   3.854  10.886
50721W        W23047  21.530   8.848  13.890
50722W        W23048  38.981  10.861   0.284
50723W        W23049  11.076  37.902   3.924
50724W        W23050   4.108  42.021   0.342
50725W        W23051  33.802  28.076   4.112
50726W        W23052  24.006  40.895  14.521
50727W        W23053  23.370  35.638   3.317
50728W        W23054   6.713  13.787   2.763
50729W        W23055  26.406  41.886  12.018
50730W        W23056  36.374  10.294  14.420
50731W        W23057  14.675   3.775  10.762
50732W        W23058  42.368  39.939  13.932
50733W        W23059   4.022  39.594   0.420
50734W        W23060   4.021   2.320  11.165
50735W        W23061  17.655  37.945   4.787
50736W        W23062  14.710  43.196   4.726
50737W        W23063  14.230   0.914   3.231
50738W        W23064  13.827   1.341   1.137
50739W        W23065  19.082  26.218   3.871
50740W        W23066  13.075  15.177   1.236
50741W        W23067  31.868  39.954  14.832
50742W        W23068  35.585  40.070   1.327
50743W        W23069  10.300  38.696  12.146
50744W        W23070  27.079  24.533  14.970
50745W        W23071  32.505  14.082   0.949
50746W        W23072  28.499  11.775   4.323
50747W        W23073  34.946  37.297   3.779
50748W        W23074  16.659  18.409  12.433
50749W        W23075  41.444   2.751   1.750
50750W        W23076  17.111  13.745  14.341
50751W        W23077  23.678   6.490   3.792
50752W        W23078   2.449  27.511  10.710
50753W        W23079  21.424  12.004   4.895
50754W        W23080  13.377   3.123  13.475
50755W        W23081   3.721  12.664  14.998
50756W        W23082  23.549  10.137   3.265
50757W        W23083  10.636   6.619   0.547
50758W        W23084  12.323  35.353  13.939
50759W        W23085  44.729  20.647  13.401
50760W        W23086  20.580  35.393  13.493
50761W        W23087  21.259  17.816   4.666
50762W        W23088  36.591  35.389  10.742
50763W        W23089   1.984  40.555  14.946
50764W        W23090  40.488  40.576   3.363
50765W        W23091   1.349   5.880  12.674
50766W        W23092  26.589  36.291   1.609
50767W        W23093  44.820  26.038   2.939
50768W        W23094  24.427  22.052  11.137
50769W        W23095  28.718  41.151  11.207
50770W        W23096  10.712   1.899   2.838
50771W        W23097  26.520  18.145   2.561
50772W        W23098   0.744  15.557  13.924
50773W        W23099  36.885  14.619   2.865
50774W        W23100  41.761  15.821  14.793
50775W        W23101   2.477  14.216  11.576
50776W        W23102  17.131  37.266   5.068
50777W        W23103  16.317  34.496   1.420
50778W        W23104   4.866   0.434   3.104
50779W        W23105   0.767  10.650   4.677
50780W        W23106   9.864  20.663  13.594
50781W        W23107  15.705   8.633  14.685
50782W        W23108  26.668  21.036   1.170
50783W        W23109   8.216  30.523  10.735
50784W        W23110  32.606  37.609   4.123
50785W        W23111  31.348  16.267   2.661
50786W        W23112  17.761  26.265   3.816
50787W        W23113  10.945  25.771  10.167
50788W        W23114  18.990  30.331  13.402
50789W        W23115   4.435  24.241   1.691
50790W        W23116  39.634   4.239   3.230
50791W        W23117  37.068  12.635  10.573
50792W        W23118  24.081  40.625   4.677
50793W        W23119  30.030  39.517  11.458
50794W        W23120  10.778   1.222   2.251
50795W        W23121  23.104  15.374  12.426
50796W        W23122  22.757  23.161  12.037
50797W        W23123   5.636  43.857   3.735
50798W        W23124  20.160  11.168   1.242
50799W        W23125  36.731  16.294  13.413
50800W        W23126  18.156  17.139   4.362
50801W        W23127  39.505  32.517   3.567
50802W        W23128  39.532  26.452   0.762
50803W        W23129  42.527  24.926   0.789
50804W        W23130   6.397  35.399  14.399
50805W        W23131  19.891   5.236   4.074
50806W        W23132  19.390  40.361   2.670
50807W        W23133   1.432  22.743   1.165
50808W        W23134   5.930   6.558  13.469
50809W        W23135  11.985  14.368   0.460
50810W        W23136   6.851   7.445   3.285
50811W        W23137  40.558  20.110  13.973
50812W        W23138   4.758  39.881  14.741
50813W        W23139  25.662  20.441   2.314
50814W        W23140   7.781  30.181   3.779
50815W        W23141  41.607  13.784  10.662
50816W        W23142  21.199  18.787   1.345
50817W        W23143  27.012  12.926   3.273
50818W        W23144  38.586  14.567   1.894
50819W        W23145   3.958  11.627  13.841
50820W        W23146  20.052  13.316   2.629
50821W        W23147  41.795  34.186  13.883
50822W        W23148  30.147  44.716   0.693
50823W        W23149   9.907  17.441  13.093
50824W        W23150  31.025   7.678  13.600
50825W        W23151  12.847  37.588  12.379
50826W        W23152  31.138   2.859   4.372
50827W        W23153   0.228  28.209   3.253
50828W        W23154  22.571  28.628  13.042
50829W        W23155  30.601  34.758  12.559
50830W        W23156  22.896   2.979   4.605
50831W        W23157  24.144  25.487  12.614
50832W        W23158  18.655  21.764  12.090
50833W        W23159   5.888  16.832   2.333
50834W        W23160   5.357  34.119   4.711
50835W        W23161  29.813  31.669  10.127
50836W        W23162  29.428   6.111   1.644
50837W        W23163  15.624  19.676   2.810
50838W        W23164  31.432  18.776   2.621
50839W        W23165  11.043  15.464   4.652
50840W        W23166   6.335  22.940  12.970
50841W        W23167   6.457  13.341   3.210
50842W        W23168  11.777  31.164   4.378
50843W        W23169  31.850  16.575   4.057
50844W        W23170  27.722  32.887   1.864
50845W        W23171   4.634  13.973   3.633
50846W        W23172  40.389  27.723   0.375
50847W        W23173   6.729   4.675  11.643
50848W        W23174  43.542  41.320   3.682
50849W        W23175  12.377  30.099   3.986
50850W        W23176  39.880  21.276   0.414
50851W        W23177  21.861  28.972   3.270
50852W        W23178   7.782  19.709  14.371
50853W        W23179   1.564  33.989   4.681
50854W        W23180  37.294   2.416   3.728
50855W        W23181  15.826   7.771  12.165
50856W        W23182   5.106  38.468  13.892
50857W        W23183   0.994  41.987   2.307
50858W        W23184  35.658  25.683  10.745
50859W        W23185  16.370  19.301   1.832
50860W        W23186  19.056  29.537   0.504
50861W        W23187  34.034  29.215  13.046
50862W        W23188  16.335  13.354  10.744
50863W        W23189   3.658  37.464   2.135
50864W        W23190  42.426  25.441   4.533
50865W        W23191   1.765  18.639   4.087
50866W        W23192  34.462  10.919   1.279
50867W        W23193   8.817  40.491  14.444
50868W        W23194   0.774  32.206   3.207
50869W        W23195  11.533  12.185   3.271
50870W        W23196  20.160  26.375  13.552
50871W        W23197  43.334   9.138   4.124
50872W        W23198   8.548  44.694   1.754
50873W        W23199  44.928  41.349  14.372
50874W        W23200   0.366   0.878   1.399
50875W        W23201  21.214  43.182   1.953
50876W        W23202  28.956  13.585  13.311
50877W        W23203  34.614  42.131   4.863
50878W        W23204   4.795  36.840   3.319
50879W        W23205  33.928   9.512  11.187
50880W        W23206  39.263  37.718   0.779
50881W        W23207  30.893  24.564  10.483
50882W        W23208  40.276   1.437   0.779
50883W        W23209   9.292   1.006   0.318
50884W        W23210   5.966  35.039   4.229
50885W        W23211  18.652  20.600   0.370
50886W        W23212  32.614  44.343  10.730
50887W        W23213  26.191  25.026  11.441
50888W        W23214  43.968   4.377  11.975
50889W        W23215  43.491   7.255   1.832
50890W        W23216  10.339  33.487   3.118
50891W        W23217  34.487  12.142  13.268
50892W        W23218  33.143  38.788  11.099
50893W        W23219   5.673  37.824   2.282
50894W        W23220  22.988  43.976   4.731
50895W        W23221  10.091  43.742   1.399
50896W        W23222  22.377   4.194  12.090
50897W        W23223  15.255   5.290  13.851
50898W        W23224  33.532   8.447  11.922
50899W        W23225  34.298  37.522  11.892
50900W        W23226  40.100  26.052  10.803
50901W        W23227  41.455  29.236  12.803
50902W        W23228  25.566  34.012  13.581
50903W        W23229  24.900  44.956   0.818
50904W        W23230  27.503  41.352  10.678
50905W        W23231  43.934  31.959   2.405
50906W        W23232   4.203  40.000   2.635
50907W        W23233   9.771  21.230  12.510
50908W        W23234  16.934  12.157  13.550
50909W        W23235   4.957  26.605   4.491
50910W        W23236  29.375  43.602   2.919
50911W        W23237  19.032  31.556   4.620
50912W        W23238   3.353   2.768   0.793
50913W        W23239  39.387  39.849   4.566
50914W        W23240  11.205  21.590   2.071
50915W        W23241  41.804  11.758  11.728
50916W        W23242  23.882  40.795   2.244
50917W        W23243   5.904  16.632  12.858
50918W        W23244   9.404  43.561  13.006
50919W        W23245   4.461   9.999  12.964
50920W        W23246  29.103  32.535  10.686
50921W        W23247  11.573  38.570  12.884
50922W        W23248  26.008  36.974  12.921
50923W        W23249   0.364  26.007  13.771
50924W        W23250  33.347  15.704  14.472
50925W        W23251  12.769  14.320   4.052
50926W        W23252   1.346  44.693   1.941
50927W        W23253  31.767   9.988   3.211
50928W        W23254   0.757  18.242   2.268
50929W        W23255   6.849  39.421   1.939
50930W        W23256  16.306  38.491   1.308
50931W        W23257  37.624  32.427   4.114
50932W        W23258  27.537  44.981   2.237
50933W        W23259  15.858  18.236   0.824
50934W        W23260  32.547  24.678   2.812
50935W        W23261  23.451  28.523   2.334
50936W        W23262   7.883  34.813   3.973
50937W        W23263  23.114  21.458   3.411
50938W        W23264  20.551   9.179   0.375
50939W        W23265  26.196  13.222  10.661
50940W        W23266  38.277  32.034  14.501
50941W        W23267   2.212  38.438   4.279
50942W        W23268  42.580  36.451  12.198
50943W        W23269  12.158  43.418   4.481
50944W        W23270  20.690  19.507   1.752
50945W        W23271  18.057  36.398   1.369
50946W        W23272   6.366  28.351   3.002
50947W        W23273   7.137   2.186  13.977
50948W        W23274  20.454  27.019   0.427
50949W        W23275  21.702  14.522  12.371
50950W        W23276  12.716  29.893   3.627
50951W        W23277   4.670  41.963   1.736
50952W        W23278   4.187   7.970  13.800
50953W        W23279  31.905  43.512   2.365
50954W        W23280  10.804  35.016   2.159
50955W        W23281  29.655  44.517   0.766
50956W        W23282   8.505  43.834  10.671
50957W        W23283   7.331  32.876   3.132
50958W        W23284  10.551  39.395   0.309
50959W        W23285  16.615  19.466   4.829
50960W        W23286  25.668  32.072  11.484
50961W        W23287  20.005  28.646  13.738
50962W        W23288  10.565  22.744   1.131
50963W        W23289  38.290  27.160   3.079
50964W        W23290   1.439   4.728   0.512
50965W        W23291  30.004  38.751   0.242
50966W        W23292  37.872  44.532   0.865
50967W        W23293  34.860  39.505   0.125
50968W        W23294  35.555   4.509  14.720
50969W        W23295  14.028  22.511  14.326
50970W        W23296  18.651  40.826   0.318
50971W        W23297  18.021   6.638   0.820
50972W        W23298  20.330  22.511  10.497
50973W        W23299  34.565  36.897   3.687
50974W        W23300  26.203  25.187   3.278
50975W        W23301  10.005   8.288  12.119
50976W        W23302  14.348   0.992  13.516
50977W        W23303  10.615  18.591   2.216
50978W        W23304   8.282  43.703  13.552
50979W        W23305  27.984  31.218   0.371
50980W        W23306  36.127  36.529  11.217
50981W        W23307  36.669  30.440  12.947
50982W        W23308  41.570   6.806  12.853
50983W        W23309  10.587   6.426  12.098
50984W        W23310  25.572  12.246   0.066
50985W        W23311   6.134  35.529   4.429
50986W        W23312  26.526  43.690   3.710
50987W        W23313  40.805  35.968   4.007
50988W        W23314   3.842  36.421   4.803
50989W        W23315   6.229   3.399  12.336
50990W        W23316  10.646   8.599   0.027
50991W        W23317  40.346  30.269  13.512
50992W        W23318  44.018  14.889   1.887
50993W        W23319  14.586  32.469  14.934
50994W        W23320  37.599  29.357   2.628
50995W        W23321  31.426  28.674  12.110
50996W        W23322  12.788  11.936   3.801
50997W        W23323  22.331  29.847   5.094
50998W        W23324  11.655  20.007  10.630
50999W        W23325  30.597  31.576   1.844
51000W        W23326   3.767  20.454  14.771
51001W        W23327  25.001  20.675   0.992
51002W        W23328  11.179   1.196   3.804
51003W        W23329  44.154  36.584  13.211
51004W        W23330   0.711  20.169  14.028
51005W        W23331   1.330  18.775   0.990
51006W        W23332  15.930  36.398   4.984
51007W        W23333  34.149  32.153  10.184
51008W        W23334   9.334  28.061  13.889
51009W        W23335  41.972  21.775  12.348
51010W        W23336  26.871  29.532  14.427
51011W        W23337  27.231  17.252  14.951
51012W        W23338  39.850  19.544   4.581
51013W        W23339   0.949  32.486  11.852
51014W        W23340  24.711  23.821  10.817
51015W        W23341  22.387  20.021  13.611
51016W        W23342  16.702   5.411   3.240
51017W        W23343  10.752  36.148  11.573
51018W        W23344  32.150  20.582  10.694
51019W        W23345  44.229   2.323   2.778
51020W        W23346  20.563  35.156   3.644
51021W        W23347  15.674  41.810  12.355
51022W        W23348  18.107  10.408  12.822
51023W        W23349  32.389   4.252   1.457
51024W        W23350  11.983  15.683   0.883
51025W        W23351  42.746  38.425  11.221
51026W        W23352  27.091   1.743   1.229
51027W        W23353  42.373  28.808   2.300
51028W        W23354  24.216  21.076   2.358
51029W        W23355  23.027   6.446  11.426
51030W        W23356  24.090  30.465  13.514
51031W        W23357  41.253  41.434   1.305
51032W        W23358  22.652   5.328   4.694
51033W        W23359  31.912   5.051  14.032
51034W        W23360   0.784   4.742   2.662
51035W        W23361  36.836  23.242   4.164
51036W        W23362  16.003   5.246   0.512
51037W        W23363   8.945  24.269  12.962
51038W        W23364  14.566  39.484  13.074
51039W        W23365  37.554  28.523  11.903
51040W        W23366  43.806   6.770  13.977
51041W        W23367  27.098  29.497   1.879
51042W        W23368  15.197   6.793  12.878
51043W        W23369  39.945  19.374  13.072
51044W        W23370  24.148  28.944  13.483
51045W        W23371   4.280  13.433  12.458
51046W        W23372  18.437  14.816  11.908
51047W        W23373  27.510   0.001   0.207
51048W        W23374  23.157  31.702   2.257
51049W        W23375  10.232  25.218  14.174
51050W        W23376  15.270  14.782  14.661
51051W        W23377   9.854  31.379   2.246
51052W        W23378  40.441   9.799   4.737
51053W        W23379   7.242   3.901   1.042
51054W        W23380  10.391  13.246   3.106
51055W        W23381  15.594   6.157  13.512
51056W        W23382  32.629  27.506  10.501
51057W        W23383   4.923  39.062   2.072
51058W        W23384  35.824  30.165  12.942
51059W        W23385  10.457  11.227   0.697
51060W        W23386   2.778  33.674  12.894
51061W        W23387  39.573  44.730   3.835
51062W        W23388   2.497  18.371   1.484
51063W        W23389  25.118   1.636   4.635
51064W        W23390  30.669   1.943   9.965
51065W        W23391  24.454  17.199   2.288
51066W        W23392  14.824  20.989  12.670
51067W        W23393  30.422  43.000   2.111
51068W        W23394  26.986  21.960  14.749
51069W        W23395  28.642  35.085   1.249
51070W        W23396  11.818  28.133   3.791
51071W        W23397  11.149  28.990  11.541
51072W        W23398  36.378  22.920   3.018
51073W        W23399  12.384  36.373  11.107
51074W        W23400  40.234  43.462  14.810
51075W        W23401  26.568  25.523   3.393
51076W        W23402  16.646  11.322  12.407
51077W        W23403  40.588   9.405  12.998
51078W        W23404   4.243  24.175   1.201
51079W        W23405  23.260  32.354  14.395
51080W        W23406   0.397  14.459   1.382
51081W        W23407  33.902  35.335  13.687
51082W        W23408  22.078  29.181  12.074
51083W        W23409   8.686  10.740  10.653
51084W        W23410  42.297  39.896   4.635
51085W        W23411   6.659  29.418  10.613
51086W        W23412  30.125  27.391   5.627
51087W        W23413  16.596   2.688  13.418
51088W        W23414   4.336  26.161  12.988
51089W        W23415  21.242   7.694  13.372
51090W        W23416  44.851  12.255  10.904
51091W        W23417  25.817   2.660   4.140
51092W        W23418  42.923  26.889  14.084
51093W        W23419   6.186  33.116  14.961
51094W        W23420  26.225  24.567  11.691
51095W        W23421  21.305  38.538  11.114
51096W        W23422  43.778  14.314   3.379
51097W        W23423  10.654  10.445  10.792
51098W        W23424   0.358  22.348  10.152
51099W        W23425  33.407  21.559   0.240
51100W        W23426   9.974   1.920   0.903
51101W        W23427  23.591   6.490  12.417
51102W        W23428  10.369  26.749   2.766
51103W        W23429  17.719  15.540   3.596
51104W        W23430  27.166   6.940  14.879
51105W        W23431  25.569  35.276   1.701
51106W        W23432   9.366  36.035   5.174
51107W        W23433   8.112   5.343  12.652
51108W        W23434   5.855  18.167  14.003
51109W        W23435   1.464  35.663   1.307
51110W        W23436  34.053  27.752  11.588
51111W        W23437  14.495  30.570   4.252
51112W        W23438  36.583  35.933  13.034
51113W        W23439  27.203  42.522   0.933
51114W        W23440  33.164  43.637   1.884
51115W        W23441  24.844  22.110  13.370
51116W        W23442  41.814   0.414  12.824
51117W        W23443  26.940  20.106   4.152
51118W        W23444  21.189   5.925   3.690
51119W        W23445  38.818  33.501  14.333
51120W        W23446   0.178  18.633   0.311
51121W        W23447  16.117   4.161  13.890
51122W        W23448  35.940   5.060   1.313
51123W        W23449  22.330  15.767   0.969
51124W        W23450  37.083   8.959   0.932
51125W        W23451   8.155   5.468   4.161
51126W        W23452  11.648  41.368  14.203
51127W        W23453  42.611   9.593   4.184
51128W        W23454   1.945  25.836   1.247
51129W        W23455  41.108  44.428   2.912
51130W        W23456   9.924   5.767  10.740
51131W        W23457   2.483  13.655   0.851
51132W        W23458   8.947  38.865   4.735
51133W        W23459  42.845  42.030   0.771
51134W        W23460  29.763  23.197  12.022
51135W        W23461  32.683  42.772  12.537
51136W        W23462  18.713  39.413  14.315
51137W        W23463  27.619  37.808  11.630
51138W        W23464  12.391  21.658   2.371
51139W        W23465  39.994  14.739   1.904
51140W        W23466  44.889  32.923  14.883
51141W        W23467   1.499  40.526   1.673
51142W        W23468  41.257  26.907  10.390
51143W        W23469  33.106  28.667   3.857
51144W        W23470   7.148   6.414   4.116
51145W        W23471  21.262  31.415   0.134
51146W        W23472  22.835  34.498  14.840
51147W        W23473   8.831  43.523   3.664
51148W        W23474  27.831   0.267   0.697
51149W        W23475  24.220  41.820  14.631
51150W        W23476  14.703  35.089   2.820
51151W        W23477  28.424   2.718  12.019
51152W        W23478  10.595  38.414   2.830
51153W        W23479  24.027  33.934   1.192
51154W        W23480  42.829  18.181  10.938
51155W        W23481  29.158  38.887   0.745
51156W        W23482  33.691   3.384  12.372
51157W        W23483   6.171  33.188   2.707
51158W        W23484  36.167   9.786  14.400
51159W        W23485  26.228   9.001  13.489
51160W        W23486  17.876   8.679   4.313
51161W        W23487  26.011  26.539  12.416
51162W        W23488   6.324  30.185   0.548
51163W        W23489   6.876  23.287   0.966
51164W        W23490   5.163  10.140   4.475
51165W        W23491  33.280  29.559  13.693
51166W        W23492  35.665  27.149  13.364
51167W        W23493  15.683  41.470  13.111
51168W        W23494  44.556  16.618  14.314
51169W        W23495  43.950  32.492  14.836
51170W        W23496  23.067  23.583  12.077
51171W        W23497  31.440   7.893  14.328
51172W        W23498  23.792  36.902  11.486
51173W        W23499  17.558  17.030  11.878
51174W        W23500  44.447  19.380   3.840
51175W        W23501  26.549   3.299  10.981
51176W        W23502  39.944  31.921   2.140
51177W        W23503  43.900  30.139   3.370
51178W        W23504  31.283  12.863  13.783
51179W        W23505  16.314  43.407   1.957
51180W        W23506  42.505  22.640  14.763
51181W        W23507   8.711  12.846  13.053
51182W        W23508  41.880   5.272  14.270
51183W        W23509  40.770   2.888   2.415
51184W        W23510  27.965  43.007  12.860
51185W        W23511  22.083  26.697  14.915
51186W        W23512  28.684  14.914   1.665
51187W        W23513   4.291   2.345   1.960
51188W        W23514  43.612   6.477   4.126
51189W        W23515  42.045  37.945  12.840
51190W        W23516  17.701  13.100  11.462
51191W        W23517   9.753  40.779   4.759
51192W        W23518  26.470  34.718   4.587
51193W        W23519  37.273  43.262   0.832
51194W        W23520  39.967  44.985   4.359
51195W        W23521  43.945  39.423   0.209
51196W        W23522  37.583  30.177  11.242
51197W        W23523  44.811  20.925   2.356
51198W        W23524   1.418  41.034   4.383
51199W        W23525  40.772  25.412  11.067
51200W        W23526  43.378   5.581   3.582
51201W        W23527  38.360  42.371   3.329
51202W        W23528  35.433  29.192  11.888
51203W        W23529  37.893  17.164   3.352
51204W        W23530  41.508   7.254  13.102
51205W        W23531  30.969   1.520   3.539
51206W        W23532  25.345  22.782   3.696
51207W        W23533  38.510  26.024   1.013
51208W        W23534  25.824  24.265   0.748
51209W        W23535  34.443  10.837   3.966
51210W        W23536  12.792   8.572   1.133
51211W        W23537  44.647  16.689   2.442
51212W        W23538  12.122  22.248  13.287
51213W        W23539   7.595  15.256   0.458
51214W        W23540  24.076   6.795   3.620
51215W        W23541  12.388  32.048  10.437
51216W        W23542  21.082  22.635  11.175
51217W        W23543  10.913  33.913  12.733
51218W        W23544  44.738   7.911  11.850
51219W        W23545  17.482   9.256  14.423
51220W        W23546   4.208   5.775  10.573
51221W        W23547   3.425  22.196   1.909
51222W        W23548  26.786  14.176   2.298
51223W        W23549  11.337  32.866   2.420
51224W        W23550  22.189  28.741  11.181
51225W        W23551  36.157   4.288   1.804
51226W        W23552  37.768  29.646  13.031
51227W        W23553  24.193   0.259   2.389
51228W        W23554  14.277  43.241  10.615
51229W        W23555   0.111  11.002   4.197
51230W        W23556  21.281   6.895   3.837
51231W        W23557  25.453  25.503  12.058
51232W        W23558  23.144  43.935  12.967
51233W        W23559  31.594  37.841   0.722
51234W        W23560  22.521   3.810  14.388
51235W        W23561   9.730  23.667   2.868
51236W        W23562   6.942  42.820   0.698
51237W        W23563  11.908  31.503  12.469
51238W        W23564   8.988  32.166   3.323
51239W        W23565  25.019   0.973  11.187
51240W        W23566   6.370  21.200  14.109
51241W        W23567  36.578   7.771   4.646
51242W        W23568   8.634  41.928   0.172
51243W        W23569  28.045  11.176   0.868
51244W        W23570  26.444  14.623  10.787
51245W        W23571  27.489  11.535  14.038
51246W        W23572  22.983  15.368   9.616
51247W        W23573  31.170  22.305   3.863
51248W        W23574   3.764  24.774   4.026
51249W        W23575  25.118   9.715  14.716
51250W        W23576  33.678  23.174  11.387
51251W        W23577  30.039  13.138   1.717
51252W        W23578   9.254  30.939   0.946
51253W        W23579  29.408  41.790  14.973
51254W        W23580  15.280  23.886  11.567
51255W        W23581  42.550   1.802   0.218
51256W        W23582  43.560  25.994   3.685
51257W        W23583  43.829  34.556   1.087
51258W        W23584  31.854  15.200   4.376
51259W        W23585   5.435  21.306   1.797
51260W        W23586   6.291  30.683  10.511
51261W        W23587  25.971  33.808  14.437
51262W        W23588  23.771  34.524  10.759
51263W        W23589  41.331   3.238  14.402
51264W        W23590   8.214  21.660  10.703
51265W        W23591  42.718   2.013  13.419
51266W        W23592   5.111  41.902  11.263
51267W        W23593  19.811  26.763   1.299
51268W        W23594  27.555   8.700   0.938
51269W        W23595   8.665  28.948  12.587
51270W        W23596  34.122  25.515   0.806
51271W        W23597  30.736  15.197  11.256
51272W        W23598  17.484  25.837  11.678
51273W        W23599  36.897  39.233   3.594
51274W        W23600  28.455   3.744   2.405
51275W        W23601  19.774   1.006  14.909
51276W        W23602  37.847  32.123  13.801
51277W        W23603  38.106  25.076  13.459
51278W        W23604   8.785   0.736  13.466
51279W        W23605  28.734   4.810   0.912
51280W        W23606  28.538  25.603  12.148
51281W        W23607   8.234  34.509   0.410
51282W        W23608  19.157   3.824  13.402
51283W        W23609  12.831  29.074   0.761
51284W        W23610  33.523   9.185  13.539
51285W        W23611   0.007  41.575  11.552
51286W        W23612  41.622  42.834  13.706
51287W        W23613  10.874   7.226   2.652
51288W        W23614  41.411  34.046   4.304
51289W        W23615  38.942  38.893  11.382
51290W        W23616  15.171  34.824   2.799
51291W        W23617  20.265  33.050   1.875
51292W        W23618  20.671  36.589  12.957
51293W        W23619   1.211   2.899  10.653
51294W        W23620   1.280  16.761  13.008
51295W        W23621  22.955  12.214   3.680
51296W        W23622  14.108  14.424   4.323
51297W        W23623  42.015  29.469   2.795
51298W        W23624  21.740  25.573  12.566
51299W        W23625  26.548  28.091  14.530
51300W        W23626  21.726  32.411   4.557
51301W        W23627  15.076  14.056   4.255
51302W        W23628   4.276  44.737   4.240
51303W        W23629  40.655   2.331  13.445
51304W        W23630  14.628  17.389  12.355
51305W        W23631  33.431  43.538  13.810
51306W        W23632  18.922  20.637   1.979
51307W        W23633  40.898   4.876  13.065
51308W        W23634  16.590   9.860   1.886
51309W        W23635  26.082  34.136   1.466
51310W        W23636  26.103   6.135  14.765
51311W        W23637   5.481   5.380   3.651
51312W        W23638  30.307  28.902  11.396
51313W        W23639   4.232  21.752   0.658
51314W        W23640  23.184  36.632  12.058
51315W        W23641  31.637  38.027   2.115
51316W        W23642   1.946   4.328  14.677
51317W        W23643  43.171  37.492  10.778
51318W        W23644   5.290  32.159   3.780
51319W        W23645  29.965  31.980  14.529
51320W        W23646  37.492  44.761   0.450
51321W        W23647  20.643  15.594  13.525
51322W        W23648  33.915  25.235  10.852
51323W        W23649  26.394   6.525   1.428
51324W        W23650  28.251   8.818   0.561
51325W        W23651  25.609  28.398   2.398
51326W        W23652  39.995  29.952   0.748
51327W        W23653  23.066  23.972   0.746
51328W        W23654  38.876   7.949  14.090
51329W        W23655  33.564  44.063  12.943
51330W        W23656  30.394  17.016   0.282
51331W        W23657  22.553   5.310  11.603
51332W        W23658  12.636  18.290   4.426
51333W        W23659  34.614  39.270   2.779
51334W        W23660  31.973  33.404   2.145
51335W        W23661  32.174  31.621  11.034
51336W        W23662  14.678  28.092   4.572
51337W        W23663  17.165  43.054   4.597
51338W        W23664  24.377  25.554  11.719
51339W        W23665   9.890  26.760  11.834
51340W        W23666   8.395  41.870   4.089
51341W        W23667  33.559   9.873  13.639
51342W        W23668  13.044  21.268   0.761
51343W        W23669  16.121   3.956   1.650
51344W        W23670  30.847   5.278   4.168
51345W        W23671  39.163   0.325   4.762
51346W        W23672  23.155  26.733   2.383
51347W        W23673  14.745  35.595  13.804
51348W        W23674  33.990  13.346   0.044
51349W        W23675   7.809  17.290   1.396
51350W        W23676  34.223  43.492   1.466
51351W        W23677   7.034  11.078   2.352
51352W        W23678  37.880  26.692  11.612
51353W        W23679  24.944  34.866  12.300
51354W        W23680   7.412  17.685  14.391
51355W        W23681   0.316  14.121   1.804
51356W        W23682  15.240   8.885   0.897
51357W        W23683   5.329  39.013   2.383
51358W        W23684  20.076   3.252   2.604
51359W        W23685  16.143  44.038   1.352
51360W        W23686   3.178   8.823   0.419
51361W        W23687  13.207  31.133   1.417
51362W        W23688  35.178   3.866  11.181
51363W        W23689  10.720  28.153  10.294
51364W        W23690  24.182  41.407   2.749
51365W        W23691  39.474  28.241  10.728
51366W        W23692  10.722  11.928  14.001
51367W        W23693  18.760  12.873  14.035
51368W        W23694  22.258  29.418   0.168
51369W        W23695  10.404  38.605  14.598
51370W        W23696  29.723   8.895   5.122
51371W        W23697  39.527  41.713  11.502
51372W        W23698  14.627  40.989  13.613
51373W        W23699   3.516  23.455   2.328
51374W        W23700   1.386  37.058   4.053
51375W        W23701   2.832  27.017  10.747
51376W        W23702  24.007  10.722  12.952
51377W        W23703  33.625  40.215  11.455
51378W        W23704  41.912  28.665  14.852
51379W        W23705  13.480  27.644   1.015
51380W        W23706  29.205  35.057  13.519
51381W        W23707  35.822  23.214   0.229
51382W        W23708  35.971  22.974  14.329
51383W        W23709  31.493  13.155   4.381
51384W        W23710  25.084   4.217  12.465
51385W        W23711  29.355  20.500   1.768
51386W        W23712   3.732   4.164   0.898
51387W        W23713  44.256  26.142  14.446
51388W        W23714  34.141  22.519   2.244
51389W        W23715  25.062  25.741   4.561
51390W        W23716   7.591  23.250  14.417
51391W        W23717  36.512  37.496   1.257
51392W        W23718  15.118  44.564   1.585
51393W        W23719  15.187  38.012   4.544
51394W        W23720  36.467  31.222   4.629
51395W        W23721   4.174  28.608  14.471
51396W        W23722  10.281  36.002   4.376
51397W        W23723  12.042  31.076  12.999
51398W        W23724  30.996   7.677  14.981
51399W        W23725  11.133   3.170   2.824
51400W        W23726  13.661  23.003  10.946
51401W        W23727  37.065   6.219  14.770
51402W        W23728   6.256  43.032   3.609
51403W        W23729  19.184   0.285  14.002
51404W        W23730  38.599  43.085   3.520
51405W        W23731   3.034  25.099   1.761
51406W        W23732   1.360  31.778  10.362
51407W        W23733  15.725  15.600  12.589
51408W        W23734  19.207  39.566  12.628
51409W        W23735  13.997   4.772  11.535
51410W        W23736  19.748  44.220  13.446
51411W        W23737  44.950  39.293   0.843
51412W        W23738  24.672  22.460  11.418
51413W        W23739   8.719  16.620  12.034
51414W        W23740  34.111  34.042  13.020
51415W        W23741  31.130  25.745   3.526
51416W        W23742  42.180  37.846  11.144
51417W        W23743  43.178  21.184  11.486
51418W        W23744  25.970   3.770  13.551
51419W        W23745  42.651  21.293  11.499
51420W        W23746  22.718  17.793   2.369
51421W        W23747  18.663  10.471  10.638
51422W        W23748  43.262  14.968  11.887
51423W        W23749  11.963   8.247   1.347
51424W        W23750  26.058  16.666   0.582
51425W        W23751  41.940  43.012  11.203
51426W        W23752  38.942   5.690  12.062
51427W        W23753  29.191  23.735   0.984
51428W        W23754  38.317   5.444   3.600
51429W        W23755  44.745  28.987   2.393
51430W        W23756  13.616   9.471  14.509
51431W        W23757  34.929   8.192  14.018
51432W        W23758  18.706  18.495  11.130
51433W        W23759  27.493  41.810   3.223
51434W        W23760  25.110   9.379   4.952
51435W        W23761  23.827   3.171   0.386
51436W        W23762  36.553  21.028   0.239
51437W        W23763   2.868  11.135   0.463
51438W        W23764  21.097  13.420  12.128
51439W        W23765  19.550  13.288   0.469
51440W        W23766  33.876   9.721   1.638
51441W        W23767  26.147   4.062   1.082
51442W        W23768  30.530  44.918  12.654
51443W        W23769  29.870  29.491   4.100
51444W        W23770  11.232  12.284  13.100
51445W        W23771  18.355   4.430   0.723
51446W        W23772   1.852  15.142  14.540
51447W        W23773  33.586  28.554   4.134
51448W        W23774  34.826  21.288   2.497
51449W        W23775  24.063  26.390  13.285
51450W        W23776  36.838  14.612  12.876
51451W        W23777   9.806  24.550  12.849
51452W        W23778  29.011   2.226   3.063
51453W        W23779  43.523  33.556   4.170
51454W        W23780  20.296  14.757  14.295
51455W        W23781  25.165  30.621  12.821
51456W        W23782  37.875  28.159   2.290
51457W        W23783  15.035  31.953  13.385
51458W        W23784  41.074  20.566  13.271
51459W        W23785  35.501  41.943  10.673
51460W        W23786  15.758  42.722  11.574
51461W        W23787   7.272  17.040   4.637
51462W        W23788  11.892  37.569   1.332
51463W        W23789  18.535  36.467  13.913
51464W        W23790  44.275  32.827  11.736
51465W        W23791   5.857  25.857  13.864
51466W        W23792  40.984  37.476  12.448
51467W        W23793  43.539   2.930  10.825
51468W        W23794   5.723  11.266   3.735
51469W        W23795  27.605   6.796   3.895
51470W        W23796   6.865  41.121   4.140
51471W        W23797  43.078   4.272   2.645
51472W        W23798  33.906  14.188  12.646
51473W        W23799   1.795  21.568  13.418
51474W        W23800  19.550   0.963  13.004
51475W        W23801  11.153  28.111  12.990
51476W        W23802   3.487   9.302   3.168
51477W        W23803   8.634   4.909  11.099
51478W        W23804  13.448  32.560   2.038
51479W        W23805  32.802  16.370   2.491
51480W        W23806  24.466   1.331  14.902
51481W        W23807  15.726  23.481   0.207
51482W        W23808   4.652   8.550   1.384
51483W        W23809  17.352   0.251   3.070
51484W        W23810  14.696  26.817  10.240
51485W        W23811  42.188  16.784   4.792
51486W        W23812  28.551  28.170  12.864
51487W        W23813  33.581  13.033   2.912
51488W        W23814  28.707   9.783   4.792
51489W        W23815  33.926   3.149   4.807
51490W        W23816  18.236  29.592   1.824
51491W        W23817   3.986  33.963  12.777
51492W        W23818   6.471   4.458   1.817
51493W        W23819   1.975  37.980  12.349
51494W        W23820  21.513  16.496   2.689
51495W        W23821  24.524   7.839  14.306
51496W        W23822  35.112  24.444  14.297
51497W        W23823  33.368  41.926   3.219
51498W        W23824   3.511  26.697  10.603
51499W        W23825  37.609  22.196  13.546
51500W        W23826   0.913  16.232   3.669
51501W        W23827  43.886  23.901  11.600
51502W        W23828  16.965   1.868  13.966
51503W        W23829  25.606  41.506  10.008
51504W        W23830  25.614  11.812  14.787
51505W        W23831  40.443   0.662  12.036
51506W        W23832  26.972  17.616   4.071
51507W        W23833  32.526  29.692  11.161
51508W        W23834  44.520  32.883   2.838
51509W        W23835  41.753  14.171  13.552
51510W        W23836   8.476  35.602   1.208
51511W        W23837   5.685  20.854  13.487
51512W        W23838   6.473  25.279  13.327
51513W        W23839  17.764   1.570  12.577
51514W        W23840  32.988  28.067  10.821
51515W        W23841  12.560  39.467   3.905
51516W        W23842  16.200  18.249   4.574
51517W        W23843  25.054  34.112   3.180
51518W        W23844   7.415  15.847   3.323
51519W        W23845  24.369  40.301   3.746
51520W        W23846  40.726  19.282  12.520
51521W        W23847  23.093   6.923  11.568
51522W        W23848  42.589  15.634  11.107
51523W        W23849  32.480  14.598   0.929
51524W        W23850  19.871   1.612  14.062
51525W        W23851  42.507  38.629  12.505
51526W        W23852   8.735   3.326  13.475
51527W        W23853  44.312   1.744   2.780
51528W        W23854  10.844  44.987  14.483
51529W        W23855   3.251  35.942   1.188
51530W        W23856   0.337  38.667   4.153
51531W        W23857  22.050  11.069  12.245
51532W        W23858  21.598  24.482  13.381
51533W        W23859   9.690   7.866   0.357
51534W        W23860  19.335  21.184   1.409
51535W        W23861  37.305  21.208  12.992
51536W        W23862   9.064   4.095   3.843
51537W        W23863  24.195  22.500   0.724
51538W        W23864  15.234  10.958  11.023
51539W        W23865  19.117  19.500   1.337
51540W        W23866  31.701  12.712  14.710
51541W        W23867  40.866  18.176   1.023
51542W        W23868   4.262  31.143   4.655
51543W        W23869   8.311   0.351   2.464
51544W        W23870   7.539   5.167   2.298
51545W        W23871  26.967  37.325  11.909
51546W        W23872  33.838  30.566  13.416
51547W        W23873  27.759  31.238  10.790
51548W        W23874   2.337  42.116  14.457
51549W        W23875  23.653  34.999  10.578
51550W        W23876  32.034  28.682  14.076
51551W        W23877  34.780  43.119  13.397
51552W        W23878  44.965  12.637   2.163
51553W        W23879  15.069  16.248   2.761
51554W        W23880   8.130  35.588   1.634
51555W        W23881  18.298  35.426  12.966
51556W        W23882  11.759  16.245   4.672
51557W        W23883  21.519  40.403   4.953
51558W        W23884  11.822  17.633   0.183
51559W        W23885   4.309  31.160   3.739
51560W        W23886  29.585  22.198   2.725
51561W        W23887  32.455  33.496  11.413
51562W        W23888  42.788  44.090   0.257
51563W        W23889  11.405  15.443   1.637
51564W        W23890  18.135  20.217  13.379
51565W        W23891  19.045  43.646   3.356
51566W        W23892  18.633   8.952  13.038
51567W        W23893  33.660  22.756   1.378
51568W        W23894   0.994   3.869   4.071
51569W        W23895  12.708   0.004   2.602
51570W        W23896  14.820  42.923   3.314
51571W        W23897  36.588  23.411  14.864
51572W        W23898  36.026  34.496  10.590
51573W        W23899  29.854  44.452   3.731
51574W        W23900  16.442  30.117   2.693
51575W        W23901  29.912  28.624   3.720
51576W        W23902   7.137  19.514   2.843
51577W        W23903  13.230   1.596   3.637
51578W        W23904  44.393   1.440   4.676
51579W        W23905  39.223   0.941   1.931
51580W        W23906  11.646  10.259  14.075
51581W        W23907   8.101  39.940  13.375
51582W        W23908   1.224   2.796  12.576
51583W        W23909  20.930  40.292   3.372
51584W        W23910  25.146  40.057   1.685
51585W        W23911  22.930  26.908   2.843
51586W        W23912  33.068   2.610   2.870
51587W        W23913  22.769  13.040   0.303
51588W        W23914  10.851  35.958   2.623
51589W        W23915   6.440   1.147  11.701
51590W        W23916  19.724  16.881   0.799
51591W        W23917  28.224  32.559  11.243
51592W        W23918  26.683   4.059  10.631
51593W        W23919  29.124  19.994  12.069
51594W        W23920  39.593  40.014  14.900
51595W        W23921  33.388  25.496   0.275
51596W        W23922  32.363  21.067  10.675
51597W        W23923  17.225   4.502  11.563
51598W        W23924  40.752  41.311   3.287
51599W        W23925  29.774  28.638   0.270
51600W        W23926   6.310   7.438  12.326
51601W        W23927   4.618  31.177  14.521
51602W        W23928  13.956  17.547   1.656
51603W        W23929  12.792  28.682  12.831
51604W        W23930   1.770   6.852   2.303
51605W        W23931   7.340  11.293  13.555
51606W        W23932  24.545   5.488  11.482
51607W        W23933  42.958  20.574   0.161
51608W        W23934   3.685  10.603  12.034
51609W        W23935  21.698  22.471   1.400
51610W        W23936  13.960  43.114   5.074
51611W        W23937  26.488  34.694   3.214
51612W        W23938  43.892  42.409   3.940
51613W        W23939  13.849  22.848   1.884
51614W        W23940  15.744  41.249  11.454
51615W        W23941  30.036  11.821   2.875
51616W        W23942  16.260  41.143   1.769
51617W        W23943  13.642  10.836  11.110
51618W        W23944   5.680  13.596   1.861
51619W        W23945  34.533  14.630  12.497
51620W        W23946  34.517  31.556  11.216
51621W        W23947  44.454   8.196   0.589
51622W        W23948  22.088  17.238  13.686
51623W        W23949  28.642  36.588   0.373
51624W        W23950   5.170  34.795   3.357
51625W        W23951   4.405   9.778   9.639
51626W        W23952   8.414  18.316  14.065
51627W        W23953  13.742   6.919   1.799
51628W        W23954   8.782   7.740   2.818
51629W        W23955   7.460  12.424  11.155
51630W        W23956  41.073  20.100  12.359
51631W        W23957   4.177  15.836   1.805
51632W        W23958  38.277  39.076  13.489
51633W        W23959  14.135   1.043   3.750
51634W        W23960  22.240  19.448   3.873
51635W        W23961   5.326  32.151   2.094
51636W        W23962  12.164  24.412   5.119
51637W        W23963  12.778  37.134  13.046
51638W        W23964  24.828  44.649   2.212
51639W        W23965  43.390  11.867   0.672
51640W        W23966   9.439  37.098  12.049
51641W        W23967  43.177  37.956   4.189
51642W        W23968  34.795  24.412   4.158
51643W        W23969  19.090  16.293   3.233
51644W        W23970  30.923  18.636   1.222
51645W        W23971  18.712   8.672  12.615
51646W        W23972  30.868   0.286  12.534
51647W        W23973  12.290  18.438   0.302
51648W        W23974  19.600  15.732  13.973
51649W        W23975   4.857  22.144  10.229
51650W        W23976  29.047  17.735   0.474
51651W        W23977  40.763  22.105   2.881
51652W        W23978  22.485  20.614  14.846
51653W        W23979  23.022   0.967   4.047
51654W        W23980  20.210  25.489  11.293
51655W        W23981  33.969   4.218  10.872
51656W        W23982  36.959  40.873   3.062
51657W        W23983  17.436  42.992   4.150
51658W        W23984  19.805  40.840   3.276
51659W        W23985  36.436  35.263  11.556
51660W        W23986  26.992   7.724   0.453
51661W        W23987  16.259   1.438   4.253
51662W        W23988  24.076   1.050  12.111
51663W        W23989  25.502  43.216   0.778
51664W        W23990  38.396  20.557   4.506
51665W        W23991  34.541  27.599   4.445
51666W        W23992  31.397  23.564  12.692
51667W        W23993   9.544   0.561  10.706
51668W        W23994   4.852  21.294  13.797
51669W        W23995  43.289   8.524  14.442
51670W        W23996  30.760  24.201  14.319
51671W        W23997  20.544  15.682   4.766
51672W        W23998  16.339  26.249   3.672
51673W        W23999  12.859  43.237  12.495
51674W        W24000   0.956  11.698   2.705
51675W        W24001  28.406  23.984   4.096
51676W        W24002   2.271  13.202   1.016
51677W        W24003  40.469  36.462  12.881
51678W        W24004   2.643  15.602   4.585
51679W        W24005  30.751   5.025   2.477
51680W        W24006  17.212  41.404   2.361
51681W        W24007  37.704  38.875   3.362
51682W        W24008  39.917  10.890  12.531
51683W        W24009  11.166   7.711   3.346
51684W        W24010   3.826   6.121  13.043
51685W        W24011  20.553  21.528   3.892
51686W        W24012  42.872   0.944  11.863
51687W        W24013  19.111  28.342  12.630
51688W        W24014   4.197   9.134  10.417
51689W        W24015   1.519  35.981  11.587
51690W        W24016  24.262   3.358  11.071
51691W        W24017  21.315  35.425  10.663
51692W        W24018  18.133   8.217   1.801
51693W        W24019  25.230   8.459   1.906
51694W        W24020   9.228   1.162   3.019
51695W        W24021   3.789  25.193  13.520
51696W        W24022  41.052   3.230  13.052
51697W        W24023  20.103  29.129  13.462
51698W        W24024  42.431   6.693  13.110
51699W        W24025   3.874  41.393  14.053
51700W        W24026  23.886  11.101  11.936
51701W        W24027  40.108  27.381  12.895
51702W        W24028  18.538  21.994   4.669
51703W        W24029   6.815  34.879  10.425
51704W        W24030  35.269  43.465  11.880
51705W        W24031  31.658  23.426   3.677
51706W        W24032  15.250  21.010  14.854
51707W        W24033   5.921   7.956   0.831
51708W        W24034   6.562  35.390   3.000
51709W        W24035  21.807  30.898   4.239
51710W        W24036   4.877  30.423   1.953
51711W        W24037  35.448  19.178   4.684
51712W        W24038  13.136   9.161   0.389
51713W        W24039  38.961   7.027   4.407
51714W        W24040  18.117  23.422   4.082
51715W        W24041   3.046  33.409   4.160
51716W        W24042  20.598  35.504  10.889
51717W        W24043  23.703  34.764  13.891
51718W        W24044  12.219   8.813   2.846
51719W        W24045  33.775  12.888  13.786
51720W        W24046  16.811   6.759   1.903
51721W        W24047  29.275  35.310   1.358
51722W        W24048  32.672   8.258  11.518
51723W        W24049  35.099  26.883   3.539
51724W        W24050  42.443  13.139   3.506
51725W        W24051  11.090  27.767   1.795
51726W        W24052  35.637   2.847   1.796
51727W        W24053  12.424  41.551   1.813
51728W        W24054  20.468  13.669   0.648
51729W        W24055  22.600  26.679  10.318
51730W        W24056  26.881  28.181   5.381
51731W        W24057  39.658   5.810  12.547
51732W        W24058   7.215  27.650   0.485
51733W        W24059  35.434  10.747   5.456
51734W        W24060  32.685  19.580  12.516
51735W        W24061  28.974  11.433   3.316
51736W        W24062  36.076   4.240  11.982
51737W        W24063  12.256  32.019   1.845
51738W        W24064  23.542   0.354  14.476
51739W        W24065  22.894   7.201   4.264
51740W        W24066   2.422  38.071   4.001
51741W        W24067  16.051   1.298   2.890
51742W        W24068  26.267  44.959  11.103
51743W        W24069   0.916  25.718   3.812
51744W        W24070  23.589  40.317   0.085
51745W        W24071  42.963  15.780   1.512
51746W        W24072   0.780  14.576  12.813
51747W        W24073  11.702  30.054  12.863
51748W        W24074   1.433  33.110   0.354
51749W        W24075  21.537  30.947   0.018
51750W        W24076  12.348  44.069   1.664
51751W        W24077  11.715  36.669  14.530
51752W        W24078  13.664  11.557  11.612
51753W        W24079  32.870   6.836  14.483
51754W        W24080  40.447  26.183  11.716
51755W        W24081   2.885   6.205   2.027
51756W        W24082  10.921  42.798  11.162
51757W        W24083  34.362  19.292  14.442
51758W        W24084  40.422   3.707  14.858
51759W        W24085  25.456  26.972  14.615
51760W        W24086   1.223  11.195   5.109
51761W        W24087   1.723  38.406  13.418
51762W        W24088  22.476  43.666  12.942
51763W        W24089   3.030  22.731  12.883
51764W        W24090   0.428  19.791   0.956
51765W        W24091  31.056  11.424  14.927
51766W        W24092  27.989  44.707   2.394
51767W        W24093   5.838  21.826   4.249
51768W        W24094   8.720   6.814   3.087
51769W        W24095   9.550  25.227   0.136
51770W        W24096  24.060   3.535   3.693
51771W        W24097  19.077  18.443   3.629
51772W        W24098  39.904   4.373   0.881
51773W        W24099  42.456   8.222  12.838
51774W        W24100  20.059  42.722  14.475
51775W        W24101  24.637  38.831   2.862
51776W        W24102  20.193  14.021   1.474
51777W        W24103   8.673  26.972  10.314
51778W        W24104  33.096  40.979  13.501
51779W        W24105   7.582  16.065  12.410
51780W        W24106  44.512  19.171   1.546
51781W        W24107  12.838   3.827  13.674
51782W        W24108  33.479  22.158  10.888
51783W        W24109   5.425  12.595   4.614
51784W        W24110  33.481  22.254  11.418
51785W        W24111   8.710  15.883   3.634
51786W        W24112   3.096  20.751  14.048
51787W        W24113  26.897   5.419   2.655
51788W        W24114  27.088  28.691   0.433
51789W        W24115  37.955   6.824   1.751
51790W        W24116  29.111  24.727  13.958
51791W        W24117  17.360   8.620  14.729
51792W        W24118  22.574  44.712   0.343
51793W        W24119   2.865  36.715   3.088
51794W        W24120  25.247  26.131  12.062
51795W        W24121  40.883  27.992  11.436
51796W        W24122  10.265  28.970  13.314
51797W        W24123  44.838  29.546   4.641
51798W        W24124  43.805   1.880  11.726
51799W        W24125   0.044  32.558  11.271
51800W        W24126  18.107  40.994   3.743
51801W        W24127  18.596   9.062  11.675
51802W        W24128  14.611  30.178   3.124
51803W        W24129  20.793  41.000  13.530
51804W        W24130   5.618   9.808   4.118
51805W        W24131  10.593  14.044  12.888
51806W        W24132  11.711  32.903   0.018
51807W        W24133   8.734  11.596  14.897
51808W        W24134  11.297  30.564  11.642
51809W        W24135  14.142  33.083   3.276
51810W        W24136  40.290  23.812   3.430
51811W        W24137  17.047  38.613   3.344
51812W        W24138   8.378  23.138  10.649
51813W        W24139  27.969  44.891   2.892
51814W        W24140  13.177  41.081   0.731
51815W        W24141   0.468  36.525   1.342
51816W        W24142  43.738  18.601  14.296
51817W        W24143  11.599   3.446   2.300
51818W        W24144   5.464  21.672  14.678
51819W        W24145  25.021  12.296   4.693
51820W        W24146  41.909  41.823   2.586
51821W        W24147  15.568  14.281  12.123
51822W        W24148  44.333   9.390   3.818
51823W        W24149  23.322  32.844   3.148
51824W        W24150   8.891  24.145  12.099
51825W        W24151  30.670  21.671   1.416
51826W        W24152  15.542  12.839  12.954
51827W        W24153   6.806   7.835   3.622
51828W        W24154  11.325  33.191   2.842
51829W        W24155  44.110  21.174   4.167
51830W        W24156   7.593  43.866   3.093
51831W        W24157  37.540  39.079  11.060
51832W        W24158  43.326  28.534  14.341
51833W        W24159  34.128  42.339   4.455
51834W        W24160  25.098  39.712  12.284
51835W        W24161  10.237  29.850   1.320
51836W        W24162  37.832  36.774   4.163
51837W        W24163  17.200   1.065   4.590
51838W        W24164  17.169  20.762  14.725
51839W        W24165   9.835  27.175  13.443
51840W        W24166  32.531  20.734   0.956
51841W        W24167  13.613  36.755   2.750
51842W        W24168  16.997  40.236   5.055
51843W        W24169  27.671  38.803  13.809
51844W        W24170  19.261  26.978  14.677
51845W        W24171  35.079  31.900   1.731
51846W        W24172  38.842  17.404   3.761
51847W        W24173  25.565  18.201  13.850
51848W        W24174  31.008  30.438  12.702
51849W        W24175  17.598   3.239   3.726
51850W        W24176  16.264  17.562   3.085
51851W        W24177  23.734  15.889   0.870
51852W        W24178  30.141  36.563  14.357
51853W        W24179  39.017   6.863   0.376
51854W        W24180  44.317  36.536   2.628
51855W        W24181  29.224  19.180  10.585
51856W        W24182  21.995  16.197  10.294
51857W        W24183  44.913  12.131  14.519
51858W        W24184  37.456  29.649   4.460
51859W        W24185   4.320  26.657  13.407
51860W        W24186   5.622  13.789   3.367
51861W        W24187   5.940  13.797  12.444
51862W        W24188   5.685  23.690   4.039
51863W        W24189  17.382   8.316  11.986
51864W        W24190  37.836  43.817   4.339
51865W        W24191  24.712   9.743   0.066
51866W        W24192   4.453  18.229  12.440
51867W        W24193  30.892  10.449  11.063
51868W        W24194  16.518  30.443  12.546
51869W        W24195  25.059  20.503   2.832
51870W        W24196  31.445  19.201  11.965
51871W        W24197  15.194  38.612  12.548
51872W        W24198   7.964  31.569   0.111
51873W        W24199  38.482  25.256   1.379
51874W        W24200  35.900  24.215  13.780
51875W        W24201  33.462   3.712  13.327
51876W        W24202  39.443  24.988  12.422
51877W        W24203   5.646   6.710   4.872
51878W        W24204  23.643   9.085  12.912
51879W        W24205  25.626  20.695  10.067
51880W        W24206  10.910  10.593   4.625
51881W        W24207  22.988  16.592  11.665
51882W        W24208  28.722  23.627   1.894
51883W        W24209   7.183  24.120   4.671
51884W        W24210  36.312   4.857   2.283
51885W        W24211   8.723  15.216   4.119
51886W        W24212  17.665  29.502   1.014
51887W        W24213  41.273   7.173   1.361
51888W        W24214   0.402  29.050  12.418
51889W        W24215   6.781   8.278   3.875
51890W        W24216   7.161  10.393  11.045
51891W        W24217   9.696  17.315  12.533
51892W        W24218  22.324  22.501   2.307
51893W        W24219  35.627  18.840  13.949
51894W        W24220  33.679  24.997   3.294
51895W        W24221  23.738   5.051  14.454
51896W        W24222  38.847   7.376   1.259
51897W        W24223  11.726   6.915  12.527
51898W        W24224  27.713   0.662  10.891
51899W        W24225  38.736  42.414  10.822
51900W        W24226  36.357  28.607  14.427
51901W        W24227  27.378  28.570  14.666
51902W        W24228  24.946  31.660   1.944
51903W        W24229  43.294  26.510  14.885
51904W        W24230   3.532   3.011   1.215
51905W        W24231  13.699   8.341   4.374
51906W        W24232   5.171  44.295   3.271
51907W        W24233  29.063  34.298   0.165
51908W        W24234  11.393  39.043   0.375
51909W        W24235   8.258   8.309   3.179
51910W        W24236   2.671  40.730   2.548
51911W        W24237   4.535  44.797   4.684
51912W        W24238   1.026  35.808  11.501
51913W        W24239  11.592  40.379  13.934
51914W        W24240  27.672  32.915   4.026
51915W        W24241  22.915  22.674  12.004
51916W        W24242  32.923  34.169   0.529
51917W        W24243   0.038  25.198   0.747
51918W        W24244  37.554   6.756   3.663
51919W        W24245  44.240  13.998  13.032
51920W        W24246  35.043  43.477   1.821
51921W        W24247  39.310  36.637   1.250
51922W        W24248  20.237   0.416   0.417
51923W        W24249  21.343  20.614   0.442
51924W        W24250  39.199  41.310  10.761
51925W        W24251  17.698  26.590   4.240
51926W        W24252  28.402  12.186  13.373
51927W        W24253  37.903  15.803   2.657
51928W        W24254  27.647  32.598   3.137
51929W        W24255  32.597  18.939   3.111
51930W        W24256  28.553  24.716  12.041
51931W        W24257  31.565  23.603  14.238
51932W        W24258  43.298  37.928   2.360
51933W        W24259  43.950  27.633  13.395
51934W        W24260   8.906  31.076   3.224
51935W        W24261  24.071  39.591  10.676
51936W        W24262  39.917  10.653   4.449
51937W        W24263  21.284   1.308  13.393
51938W        W24264  25.622  19.246   0.289
51939W        W24265  33.406  44.349  12.507
51940W        W24266   8.750  18.586   0.682
51941W        W24267  10.700  13.051   4.686
51942W        W24268  35.032  19.187   3.146
51943W        W24269   7.331  32.467  14.525
51944W        W24270  16.194  26.123  11.897
51945W        W24271  40.825  19.689  12.184
51946W        W24272  13.571   3.099  12.428
51947W        W24273   6.622  40.033   1.176
51948W        W24274  36.982  34.585   4.566
51949W        W24275  27.150   5.815   2.406
51950W        W24276  26.108   3.771   1.532
51951W        W24277  37.804  35.600  11.195
51952W        W24278  40.298  28.977  14.369
51953W        W24279  30.191  43.967   2.342
51954W        W24280  22.078  34.586   2.632
51955W        W24281  17.406   1.735  11.979
51956W        W24282  19.769  20.686   2.358
51957W        W24283  17.665  23.356  13.571
51958W        W24284  23.538  17.155   4.819
51959W        W24285   3.823   2.809  11.504
51960W        W24286  38.488  38.928  12.047
51961W        W24287   1.364  25.521  13.917
51962W        W24288   7.995  20.173   1.000
51963W        W24289   0.072  11.845  11.142
51964W        W24290  40.526  22.468  10.787
51965W        W24291   2.653   5.991   0.980
51966W        W24292  27.022  18.670  14.806
51967W        W24293  15.600   9.819   3.867
51968W        W24294  17.177  15.246  11.182
51969W        W24295  27.368   7.393   0.554
51970W        W24296  36.637  37.577   4.083
51971W        W24297   2.658  15.527  10.138
51972W        W24298   3.082   4.884  12.362
51973W        W24299  30.151  17.978   2.395
51974W        W24300   9.137  35.326  14.119
51975W        W24301  19.706  12.519   1.734
51976W        W24302  24.172  12.005   1.850
51977W        W24303  35.312  34.410   0.918
51978W        W24304  18.078  14.791  14.437
51979W        W24305  10.342  36.033  12.909
51980W        W24306  19.064  19.394   3.588
51981W        W24307  12.665  31.736  11.172
51982W        W24308  39.815  38.984   4.519
51983W        W24309  24.159  33.935   4.094
51984W        W24310  25.526  25.976  14.460
51985W        W24311  27.068  12.732   3.749
51986W        W24312  15.974   8.233  11.957
51987W        W24313  38.687   7.716   2.192
51988W        W24314   6.986  29.886  13.453
51989W        W24315  20.681  26.178   4.228
51990W        W24316  13.550   2.215  14.867
51991W        W24317   8.406  30.909   4.079
51992W        W24318  34.711  17.641   4.124
51993W        W24319  17.150  34.500   4.352
51994W        W24320  36.058  38.673   3.397
51995W        W24321  10.802  43.986   3.112
51996W        W24322  36.426  35.317  13.983
51997W        W24323  38.130  28.188   4.718
51998W        W24324  37.325   1.427  14.197
51999W        W24325  43.446  32.529   1.991
52000W        W24326  44.384  28.167  11.516
52001W        W24327  40.545  24.132  13.559
52002W        W24328   7.728  17.615  11.617
52003W        W24329   8.765  36.078  12.899
52004W        W24330  11.260   3.127  11.391
52005W        W24331  21.858   8.079   0.264
52006W        W24332  31.969  36.466  14.906
52007W        W24333   6.535  24.471  10.740
52008W        W24334   8.632  10.320  14.308
52009W        W24335   5.709  20.306   0.878
52010W        W24336  42.966  21.099   2.837
52011W        W24337  10.186  16.370  14.949
52012W        W24338  13.746   5.874   0.358
52013W        W24339  10.181  33.637   1.422
52014W        W24340  26.906  18.875  11.550
52015W        W24341  37.543  44.404  11.696
52016W        W24342   0.397  33.053  10.714
52017W        W24343  37.777  29.478   4.085
52018W        W24344  39.414   1.783  11.964
52019W        W24345   3.557  36.355   0.193
52020W        W24346  38.939   6.147  11.831
52021W        W24347  34.028   7.659  12.112
52022W        W24348  36.191  23.043   1.226
52023W        W24349   5.290  10.148  12.866
52024W        W24350   3.065  35.072   4.531
52025W        W24351  34.659  24.032   0.658
52026W        W24352  30.375   4.762   2.109
52027W        W24353  34.194  28.689   1.852
52028W        W24354  29.659  25.413   3.944
52029W        W24355  28.180  41.711  12.997
52030W        W24356   7.320   3.713  11.116
52031W        W24357  22.843   3.932   2.011
52032W        W24358   6.562  10.733  14.018
52033W        W24359   1.734  36.092   2.407
52034W        W24360  21.111  39.825   3.402
52035W        W24361  29.314  36.351  10.479
52036W        W24362  17.299  10.663   2.395
52037W        W24363   4.198  21.731  14.423
52038W        W24364  28.926   4.479  11.291
52039W        W24365  16.813  11.119   4.519
52040W        W24366  31.197  16.229   3.203
52041W        W24367  15.825  43.792  11.949
52042W        W24368  34.431  18.099   4.167
52043W        W24369  30.597   1.873   3.705
52044W        W24370  25.575  17.451  10.994
52045W        W24371  23.079  32.803  11.165
52046W        W24372  19.529   9.250   4.423
52047W        W24373  23.499  15.614  14.765
52048W        W24374  36.889  35.565   0.746
52049W        W24375  41.680  43.369  10.885
52050W        W24376  28.229   0.802  10.870
52051W        W24377  12.140  38.105  12.230
52052W        W24378  31.937  31.047  10.649
52053W        W24379  44.946  39.737   1.768
52054W        W24380  11.734   2.688   4.285
52055W        W24381  27.163  14.692  13.443
52056W        W24382  44.327  25.130  11.580
52057W        W24383  12.129   1.354   1.744
52058W        W24384  33.197  27.566   3.679
52059W        W24385  38.056  26.466  13.931
52060W        W24386  36.598   6.954   4.054
52061W        W24387  30.077  10.540   2.196
52062W        W24388  33.433  36.522   1.701
52063W        W24389   7.111  12.831  11.090
52064W        W24390   1.182  27.942   4.213
52065W        W24391  35.898  20.656   4.917
52066W        W24392  37.922  29.654   1.679
52067W        W24393   7.835  36.127  11.205
52068W        W24394   2.759  27.784   4.016
52069W        W24395  15.866   1.964   0.887
52070W        W24396  28.231  20.163   0.931
52071W        W24397   5.278  32.658   0.790
52072W        W24398  36.047  35.462   5.043
52073W        W24399  24.331  33.550   1.058
52074W        W24400  12.747  11.074  11.566
52075W        W24401   4.318  14.169  14.562
52076W        W24402   2.576  44.224   0.247
52077W        W24403  39.057  35.526  10.775
52078W        W24404  34.979  22.070  11.956
52079W        W24405   9.227   2.510   2.336
52080W        W24406   5.837  10.841  14.765
52081W        W24407  39.618  37.480  11.065
52082W        W24408  36.011  26.442   2.215
52083W        W24409  37.363   1.295   3.835
52084W        W24410  44.547  43.610  14.468
52085W        W24411  21.045  38.982   1.644
52086W        W24412   4.770  17.738  12.413
52087W        W24413  32.640  16.460  13.896
52088W        W24414  15.607   7.374  13.387
52089W        W24415  44.389  18.101  11.131
52090W        W24416   7.971  22.245   1.971
52091W        W24417  36.954  34.033  14.403
52092W        W24418  41.437  31.116  11.286
52093W        W24419   3.371  27.241   3.608
52094W        W24420   1.089   1.473  10.773
52095W        W24421  29.558  22.160   1.705
52096W        W24422  19.755   8.784   4.513
52097W        W24423  33.934  19.551   2.134
52098W        W24424  25.748  15.298   4.650
52099W        W24425  43.243  11.242   3.669
52100W        W24426   4.947  39.942   2.109
52101W        W24427  38.421  29.018  10.553
52102W        W24428  16.756   0.752   0.999
52103W        W24429  13.681   8.196  14.046
52104W        W24430  45.000  20.977   1.189
52105W        W24431  42.236   4.722  14.939
52106W        W24432  42.797   6.919   4.162
52107W        W24433  18.631  20.598  11.070
52108W        W24434  12.275  15.457   4.671
52109W        W24435   3.183  11.107  10.236
52110W        W24436  11.144  42.731  14.802
52111W        W24437  26.720  29.038  12.075
52112W        W24438   7.915  40.815   4.743
52113W        W24439   0.919  22.755   3.446
52114W        W24440  25.928   8.369   1.281
52115W        W24441  10.347  26.790   3.631
52116W        W24442   4.992   1.104  12.682
52117W        W24443  23.367  17.356   2.694
52118W        W24444  27.875  26.520  12.390
52119W        W24445  24.157  35.961   0.766
52120W        W24446  30.924  41.343   3.717
52121W        W24447  21.151  30.066   4.598
52122W        W24448   3.905  24.141   1.595
52123W        W24449  22.520   0.883  12.990
52124W        W24450  27.193  31.985   1.753
52125W        W24451  24.178  26.545  10.702
52126W        W24452  10.306  44.568   3.221
52127W        W24453  16.889   6.770  11.047
52128W        W24454  10.630   1.753  10.773
52129W        W24455  25.945   8.992  14.677
52130W        W24456   3.044  27.458   2.317
52131W        W24457  27.749   4.885   0.822
52132W        W24458  11.212  40.035  14.336
52133W        W24459  28.702   1.935  13.322
52134W        W24460   8.864  24.634  11.374
52135W        W24461  33.982   1.693   2.674
52136W        W24462  21.702  16.638   0.319
52137W        W24463  30.468   4.310   2.822
52138W        W24464  34.466  15.083  14.836
52139W        W24465  31.421   1.165   2.695
52140W        W24466  11.204  35.432  14.425
52141W        W24467  22.548  33.055  12.946
52142W        W24468  39.968  42.400   3.003
52143W        W24469  42.539  43.614  10.817
52144W        W24470  30.033  39.501   4.376
52145W        W24471  16.252  30.622   2.197
52146W        W24472  35.619  34.431   3.748
52147W        W24473  34.430  25.840  11.047
52148W        W24474  26.983  41.521   0.975
52149W        W24475  34.508  31.819  11.657
52150W        W24476  42.263  30.721   2.381
52151W        W24477  22.598  21.979   2.089
52152W        W24478  20.530   3.804  13.659
52153W        W24479  26.210  33.420   0.279
52154W        W24480  40.426  20.310   2.296
52155W        W24481  12.094  10.242   2.084
52156W        W24482  21.617  27.409  12.505
52157W        W24483  16.751  41.906   0.289
52158W        W24484  32.990  28.622   2.339
52159W        W24485  41.986   3.190  13.829
52160W        W24486  13.058   3.466   3.241
52161W        W24487   5.820  38.600  11.532
52162W        W24488  27.402  39.866  12.041
52163W        W24489   1.283   1.177  11.169
52164W        W24490  17.198  16.278  12.082
52165W        W24491  36.464  22.472   2.648
52166W        W24492  32.916   7.106   4.296
52167W        W24493  15.361  22.461  14.915
52168W        W24494  33.615  29.015   1.402
52169W        W24495  31.506  34.885  11.419
52170W        W24496  26.746  13.588   2.730
52171W        W24497  21.471   9.426  11.149
52172W        W24498  20.669  26.472  13.414
52173W        W24499  16.825  28.097  14.492
52174W        W24500  28.440   5.674  14.806
52175W        W24501   2.548  31.562   0.446
52176W        W24502  13.903  32.580  11.501
52177W        W24503  28.668  28.451   3.228
52178W        W24504  12.371  23.381  11.606
52179W        W24505  14.728   5.244   1.193
52180W        W24506   6.165  43.025  13.045
52181W        W24507  36.558  17.794   4.162
52182W        W24508  33.850  32.819   0.498
52183W        W24509  34.433  44.398  11.403
52184W        W24510  22.576  40.395  11.968
52185W        W24511  40.940  32.336   0.667
52186W        W24512  44.296   0.287   4.606
52187W        W24513  11.630  27.097  12.414
52188W        W24514  44.392   5.473  13.934
52189W        W24515  29.050  24.481   3.110
52190W        W24516   4.871  23.836  13.495
52191W        W24517  37.991  25.806   0.771
52192W        W24518  26.153  29.879   4.159
52193W        W24519  36.823  26.700  14.412
52194W        W24520  38.649  41.665  14.940
52195W        W24521  31.131   3.333   1.224
52196W        W24522   9.298   6.767  14.885
52197W        W24523  40.993  44.796   2.448
52198W        W24524  37.234   9.108   2.262
52199W        W24525  39.461  38.178   4.145
52200W        W24526   4.626  22.446   2.775
52201W        W24527  40.524  13.719  10.776
52202W        W24528  25.171  17.268  13.446
52203W        W24529   5.962  11.424   3.293
52204W        W24530   2.971   6.912  10.721
52205W        W24531   7.737   7.589   3.246
52206W        W24532  43.289   3.972   0.406
52207W        W24533  33.368  17.667  10.636
52208W        W24534   3.388  18.320  14.058
52209W        W24535  27.240  11.138  13.083
52210W        W24536  24.096   8.448   2.688
52211W        W24537  15.121   0.629  13.501
52212W        W24538   6.272  44.967   0.014
52213W        W24539  22.557  27.882  11.554
52214W        W24540  22.963  25.083  10.935
52215W        W24541  34.580  34.655   1.993
52216W        W24542  44.252   1.332   1.749
52217W        W24543  23.221  13.537   2.250
52218W        W24544  21.455  19.151   1.120
52219W        W24545  41.587  16.724  12.828
52220W        W24546  17.070  15.315  11.667
52221W        W24547  12.742  36.823   2.824
52222W        W24548   1.774  30.180  10.675
52223W        W24549  10.696  42.324  11.595
52224W        W24550   4.793   1.370   4.003
52225W        W24551  32.547   4.701  14.450
52226W        W24552  10.320   1.436   1.628
52227W        W24553  40.764  29.655  13.938
52228W        W24554  43.916   2.826   3.924
52229W        W24555  37.849  34.862   4.484
52230W        W24556   3.345   5.404  13.070
52231W        W24557  29.042   4.390  14.799
52232W        W24558  32.220  14.121   4.635
52233W        W24559   5.460   2.689  13.336
52234W        W24560   7.806  26.469   1.332
52235W        W24561  19.964  17.068   1.233
52236W        W24562  28.038  11.264  10.696
52237W        W24563  25.702  18.796   3.077
52238W        W24564  33.909  41.370   0.152
52239W        W24565  18.863  41.788   3.144
52240W        W24566   7.178   5.327  14.182
52241W        W24567  42.427   6.162  13.126
52242W        W24568   4.959   4.312  13.462
52243W        W24569   7.691  26.710   5.045
52244W        W24570  44.555  10.806   4.124
52245W        W24571  37.137  26.245   0.812
52246W        W24572   0.250  17.820   3.148
52247W        W24573  42.753  22.459   4.295
52248W        W24574  17.263  35.604  13.452
52249W        W24575   0.632   1.248   1.137
52250W        W24576  27.996   0.062   0.073
52251W        W24577   6.245   4.673  11.455
52252W        W24578  13.132   6.413   0.025
52253W        W24579  37.427   4.846   4.064
52254W        W24580  30.379  39.475   1.855
52255W        W24581  42.729  37.953  12.497
52256W        W24582  17.125  18.584   3.375
52257W        W24583  41.340  25.454   4.118
52258W        W24584  27.264  20.654  11.585
52259W        W24585  15.246   1.018  13.811
52260W        W24586  20.092  10.811  12.085
52261W        W24587  43.959  14.286  14.372
52262W        W24588   2.809  12.389   3.277
52263W        W24589  19.176  40.807   0.018
52264W        W24590  35.141  32.522   2.792
52265W        W24591  40.315  33.338  10.253
52266W        W24592  24.606  18.992  14.341
52267W        W24593  10.390  34.986   0.752
52268W        W24594   0.441  18.613  14.372
52269W        W24595   9.369  22.762  11.982
52270W        W24596  25.219  29.939  10.509
52271W        W24597  37.971  39.585  11.645
52272W        W24598  19.264  43.133  12.796
52273W        W24599   7.116  40.426  12.016
52274W        W24600  22.731  31.435   2.368
52275W        W24601  37.258  16.783   2.893
52276W        W24602  31.417  10.852  12.670
52277W        W24603  36.788  31.707  13.329
52278W        W24604   1.669   5.571  12.340
52279W        W24605  18.706  43.731   0.333
52280W        W24606   3.552  36.799   3.575
52281W        W24607   0.531   1.713  11.558
52282W        W24608  30.218  23.150  12.792
52283W        W24609  16.839  20.452   1.470
52284W        W24610   5.704  13.142  11.214
52285W        W24611  18.486   2.391  11.503
52286W        W24612  13.637   4.283   3.653
52287W        W24613  43.492  13.588  14.384
52288W        W24614  13.366  37.924   2.751
52289W        W24615  27.981  26.572  13.719
52290W        W24616  29.474  27.154  12.864
52291W        W24617  38.849  44.026  14.032
52292W        W24618  24.319  30.977   4.541
52293W        W24619   3.506   2.936  10.260
52294W        W24620  33.056  35.146   5.194
52295W        W24621  41.300  28.253   1.447
52296W        W24622  15.091  28.194  12.434
52297W        W24623   7.160  39.310  10.581
52298W        W24624   0.146  40.267   4.523
52299W        W24625  35.535  44.726   3.305
52300W        W24626   2.182  37.037   2.931
52301W        W24627  35.107   9.141  12.934
52302W        W24628  12.872  16.758  11.137
52303W        W24629  26.605   9.244  11.723
52304W        W24630  39.922  30.357  14.674
52305W        W24631  12.162   2.680  12.456
52306W        W24632  11.883  29.181  14.406
52307W        W24633  32.665  33.482   3.786
52308W        W24634   3.331  35.889   1.697
52309W        W24635  37.781  25.127  12.559
52310W        W24636  34.575  14.017   4.078
52311W        W24637  10.381  43.109  13.508
52312W        W24638  41.694   2.477   4.591
52313W        W24639   0.412  22.992  11.441
52314W        W24640  10.182  26.290   3.581
52315W        W24641  11.286  37.784   1.837
52316W        W24642  18.544  18.221  10.696
52317W        W24643  27.885  34.111   0.704
52318W        W24644   1.648   7.448   1.467
52319W        W24645  44.561  30.449  12.479
52320W        W24646   0.505  10.650   4.193
52321W        W24647  31.043   7.124   2.721
52322W        W24648  22.151   0.688   4.176
52323W        W24649   2.733   4.783   5.191
52324W        W24650  22.449  28.615   4.833
52325W        W24651  25.946  19.445   4.686
52326W        W24652  11.771  20.163   1.866
52327W        W24653   8.917   6.100  13.468
52328W        W24654   7.349  25.017   3.165
52329W        W24655  28.491  24.182  11.677
52330W        W24656   7.988  22.716   3.283
52331W        W24657   0.834  18.493   3.339
52332W        W24658  20.265  39.564   2.884
52333W        W24659   2.959   8.927  11.453
52334W        W24660  39.445  18.093  11.668
52335W        W24661   4.498  22.342   0.429
52336W        W24662   6.687   9.339  13.458
52337W        W24663   9.922   8.981  11.054
52338W        W24664  36.023  13.584  12.458
52339W        W24665  34.977  30.539  12.070
52340W        W24666   0.287  31.640   1.632
52341W        W24667  22.705  24.772   1.912
52342W        W24668  39.130  11.666   1.740
52343W        W24669  29.898   6.344   1.678
52344W        W24670  21.254  37.456  10.242
52345W        W24671  34.025  35.703   5.524
52346W        W24672  18.321  34.835   2.393
52347W        W24673   3.174  16.656   3.286
52348W        W24674   7.825  43.248   1.458
52349W        W24675  13.353   6.780   3.122
52350W        W24676  21.423  37.258   3.686
52351W        W24677  23.174  37.151  12.245
52352W        W24678  16.040   2.173   0.155
52353W        W24679  42.469  17.926  11.680
52354W        W24680  14.296  25.006   4.209
52355W        W24681  19.789  31.505   4.029
52356W        W24682  34.893  42.947   3.834
52357W        W24683  26.452  30.592  13.399
52358W        W24684   0.032  20.504   4.106
52359W        W24685  44.312  31.202   3.269
52360W        W24686  26.268  23.274   0.799
52361W        W24687  37.792  14.597   0.822
52362W        W24688  25.650  44.322   3.133
52363W        W24689  26.635  17.603  12.208
52364W        W24690   9.622  20.983   3.613
52365W        W24691  20.540  16.183   2.660
52366W        W24692   2.336  17.068   1.684
52367W        W24693  14.866  16.655  12.906
52368W        W24694  37.258  20.603  12.510
52369W        W24695   7.748  33.458  13.995
52370W        W24696  15.610  43.999   4.504
52371W        W24697  40.954  40.546  13.569
52372W        W24698  11.844   8.151  11.859
52373W        W24699  30.679  21.704   2.318
52374W        W24700  16.227  14.305  11.483
52375W        W24701   1.306  14.877  14.834
52376W        W24702  17.597  33.495  10.796
52377W        W24703   8.164   8.941  10.712
52378W        W24704  40.914  33.544   1.979
52379W        W24705  42.473  34.552   1.044
52380W        W24706  41.712  10.663   3.835
52381W        W24707   3.618   6.284  12.602
52382W        W24708  39.254  37.993   2.226
52383W        W24709   7.437  18.041  11.643
52384W        W24710  26.874  14.726  11.591
52385W        W24711  25.488  31.723   0.916
52386W        W24712   2.588  21.134   2.843
52387W        W24713  20.090  14.493  14.935
52388W        W24714   3.231  39.702   4.804
52389W        W24715  35.844  19.322  14.403
52390W        W24716  29.026  25.540  13.541
52391W        W24717  39.386  34.108   1.429
52392W        W24718  21.579  32.381  14.360
52393W        W24719  26.763  42.534   2.699
52394W        W24720  17.538  21.352   3.776
52395W        W24721  40.062  43.604  13.076
52396W        W24722  19.661  30.759   0.313
52397W        W24723  37.010  33.617  10.506
52398W        W24724  25.011  40.693   1.229
52399W        W24725  14.712  12.476   0.480
52400W        W24726  15.614  35.071  12.862
52401W        W24727  42.712  31.059  14.831
52402W        W24728   5.383   3.901   4.325
52403W        W24729  41.325  25.006   1.116
52404W        W24730  42.817   4.160  14.261
52405W        W24731   3.676   5.745   4.606
52406W        W24732   8.241  20.735   4.098
52407W        W24733  29.423  18.197  10.767
52408W        W24734   3.573  29.167   0.470
52409W        W24735   0.865  28.749  13.164
52410W        W24736   2.670  29.120   4.135
52411W        W24737   7.867  32.409   2.687
52412W        W24738  38.305  32.993   2.401
52413W        W24739  32.970  44.908   4.049
52414W        W24740  33.228  29.020   1.054
52415W        W24741  30.110  15.747  12.142
52416W        W24742  20.927  19.307  11.697
52417W        W24743   1.980  16.858  11.226
52418W        W24744  30.174   6.477  12.877
52419W        W24745  35.985   4.863   4.336
52420W        W24746  20.671  38.945  12.533
52421W        W24747  39.091  13.181   1.220
52422W        W24748  21.577   3.097   1.390
52423W        W24749   5.343   0.550   1.314
52424W        W24750  34.326  23.786  12.573
52425W        W24751  40.534  37.767   2.691
52426W        W24752  40.096  29.974  11.411
52427W        W24753  41.031  21.836   2.152
52428W        W24754  34.267  28.584  14.432
52429W        W24755  14.657  11.142   2.104
52430W        W24756  29.452   1.723  11.601
52431W        W24757   9.117  28.506   2.165
52432W        W24758  41.559  29.735   2.788
52433W        W24759  27.480  33.974   1.043
52434W        W24760  22.695  20.765   3.381
52435W        W24761  37.977  12.950  14.971
52436W        W24762   4.212  11.750   2.031
52437W        W24763  43.294  42.763   1.856
52438W        W24764  16.861   1.027  11.577
52439W        W24765  17.792  44.658  13.505
52440W        W24766  24.490  27.680  12.519
52441W        W24767  35.806  11.165  14.393
52442W        W24768   9.931  25.632  10.340
52443W        W24769   3.889  42.524  12.425
52444W        W24770  27.807  32.118  10.575
52445W        W24771  39.397  23.397  14.943
52446W        W24772  20.094  34.150  11.048
52447W        W24773  23.981  38.340   3.281
52448W        W24774  20.341  11.305  12.080
52449W        W24775  34.571  24.479   1.295
52450W        W24776  40.765  23.728  11.043
52451W        W24777   4.927  21.166   0.016
52452W        W24778  20.157  20.808  12.411
52453W        W24779  15.795  16.111   4.107
52454W        W24780   3.628  14.404  12.500
52455W        W24781  27.947  37.934  13.954
52456W        W24782   0.143  38.333  14.363
52457W        W24783  31.352  14.158  13.583
52458W        W24784  42.165  24.665   1.305
52459W        W24785  42.521  13.764  11.349
52460W        W24786  11.686  22.918   2.285
52461W        W24787  44.682   2.759  10.677
52462W        W24788  42.817   3.285  14.226
52463W        W24789   7.959  28.547  12.266
52464W        W24790  21.447  33.461   1.737
52465W        W24791  17.242  30.906   3.176
52466W        W24792   8.258   5.751  11.262
52467W        W24793  26.013   2.644   2.837
52468W        W24794  33.980  42.791  11.462
52469W        W24795   9.190  38.592   1.626
52470W        W24796  12.134  23.174   2.671
52471W        W24797  22.290  38.148   1.487
52472W        W24798  38.861  21.086   1.533
52473W        W24799  40.509   8.779   3.138
52474W        W24800   3.987  29.873  11.113
52475W        W24801  15.742  12.209   1.869
52476W        W24802  42.296  41.961   0.784
52477W        W24803  13.127  36.969   1.639
52478W        W24804  37.946  35.135  14.042
52479W        W24805   7.871  19.092   1.373
52480W        W24806  27.025  11.657  12.367
52481W        W24807  17.122  23.150   4.658
52482W        W24808  36.616  36.429   5.233
52483W        W24809  40.448  22.968  10.871
52484W        W24810  43.981  32.955   2.081
52485W        W24811  17.584   7.921  11.407
52486W        W24812  38.685  13.313  13.239
52487W        W24813  19.156  27.704  13.867
52488W        W24814  23.735   5.968  11.106
52489W        W24815  34.319   1.969   2.380
52490W        W24816   4.192  27.033   0.177
52491W        W24817   0.016   2.528  12.585
52492W        W24818  29.381  14.298  10.825
52493W        W24819  36.105  24.046  11.012
52494W        W24820  12.920  39.755  14.409
52495W        W24821  35.829  15.079   3.717
52496W        W24822  20.675  18.061   1.405
52497W        W24823  23.058  23.748   1.218
52498W        W24824  23.233   0.722  12.475
52499W        W24825  39.304   9.189   4.361
52500W        W24826   7.937   9.352   1.068
52501W        W24827  13.016   4.262   0.300
52502W        W24828  35.288  10.835  14.922
52503W        W24829  20.622  33.234  12.907
52504W        W24830  26.777  39.983  11.645
52505W        W24831  27.481  20.508   1.324
52506W        W24832  32.205  26.579  10.839
52507W        W24833  34.522  30.373   4.361
52508W        W24834  12.862  38.851   4.549
52509W        W24835  23.506  42.568  12.895
52510W        W24836  19.970   4.976  14.405
52511W        W24837   5.134  19.983   2.896
52512W        W24838  17.189  16.734  13.057
52513W        W24839  37.138  25.568  12.894
52514W        W24840  33.183  11.741   4.631
52515W        W24841  43.299  26.181  12.606
52516W        W24842   9.624   4.929   4.130
52517W        W24843   0.745   3.302  10.047
52518W        W24844  12.379  31.655   0.391
52519W        W24845  18.510  42.910  13.542
52520W        W24846  29.969  43.479  12.893
52521W        W24847   1.392  33.368   3.186
52522W        W24848  28.077  16.301   2.801
52523W        W24849  22.608   2.929  14.458
52524W        W24850  26.515   6.158   2.446
52525W        W24851  36.569  30.473  11.585
52526W        W24852  43.406  36.955   4.443
52527W        W24853  38.609  11.950   4.159
52528W        W24854  34.377  24.681   3.828
52529W        W24855   2.234   1.167  14.871
52530W        W24856  25.427  21.117  12.030
52531W        W24857  26.742  30.580   3.352
52532W        W24858  13.817  18.288   3.940
52533W        W24859  23.165  33.992   4.481
52534W        W24860  39.408   8.699   2.615
52535W        W24861  30.434  16.646  14.274
52536W        W24862  20.456   5.782  11.200
52537W        W24863  29.071  40.906   1.134
52538W        W24864  30.226  31.015   0.922
52539W        W24865  19.874  31.092  14.982
52540W        W24866  26.828  18.644   3.670
52541W        W24867  13.827   6.876   3.289
52542W        W24868   5.304  28.500   4.469
52543W        W24869  43.531  12.130  11.605
52544W        W24870  14.149  23.152   1.179
52545W        W24871  21.071  13.791  13.873
52546W        W24872   9.026  16.690  10.670
52547W        W24873  23.706  15.363  11.994
52548W        W24874   9.958  14.082  13.367
52549W        W24875  25.244  17.301   4.679
52550W        W24876  39.393  18.640   0.199
52551W        W24877   9.211  40.366   2.899
52552W        W24878   4.343   7.858   0.708
52553W        W24879  44.024  24.416   0.497
52554W        W24880  19.291   7.617   2.643
52555W        W24881   0.372  28.023  10.521
52556W        W24882  33.479  10.432   1.475
52557W        W24883  30.094  25.546   0.969
52558W        W24884  26.736  41.241  11.327
52559W        W24885   5.257  30.649   2.330
52560W        W24886  36.380  21.206   0.867
52561W        W24887   8.713   0.766  10.715
52562W        W24888  39.808  15.069  13.038
52563W        W24889  43.102  17.777   1.877
52564W        W24890  14.991  13.298  14.906
52565W        W24891  16.716  36.470  14.916
52566W        W24892  20.667  37.310  13.441
52567W        W24893   3.346  35.540  14.777
52568W        W24894  22.558  14.247   1.611
52569W        W24895  37.321  42.163   4.682
52570W        W24896  28.102  24.949  14.152
52571W        W24897  35.262  15.862   2.048
52572W        W24898  13.942  37.868  13.089
52573W        W24899  34.116  23.017   1.317
52574W        W24900  30.142  36.473  11.448
52575W        W24901   2.668   8.329   1.585
52576W        W24902  21.115  23.960   3.974
52577W        W24903  15.230   3.854   1.719
52578W        W24904   3.413  20.569   3.366
52579W        W24905   2.810   0.865   0.483
52580W        W24906   3.783  10.179  14.560
52581W        W24907  41.058  25.719   4.946
52582W        W24908  10.131  12.359   4.231
52583W        W24909   8.985  10.395   1.946
52584W        W24910   2.338   3.678  10.582
52585W        W24911  38.419   5.375   4.592
52586W        W24912   9.470  21.245   2.240
52587W        W24913   7.751  42.927  11.186
52588W        W24914  11.301   4.244  14.534
52589W        W24915  44.134  22.058  12.961
52590W        W24916  38.559   3.581  12.909
52591W        W24917  33.148  20.621   4.761
52592W        W24918  43.417  30.568   3.437
52593W        W24919   6.723  36.946   1.337
52594W        W24920   4.467  28.879   0.758
52595W        W24921  35.048  32.917  10.030
52596W        W24922   8.885  22.657   5.040
52597W        W24923  36.821  36.587   4.187
52598W        W24924  12.129  35.917   1.448
52599W        W24925  39.593  31.495   1.286
52600W        W24926  38.847   4.942  12.962
52601W        W24927  28.922  15.642   2.273
52602W        W24928  15.102  30.653  13.827
52603W        W24929  44.186  18.655  12.258
52604W        W24930  40.286  14.293   3.054
52605W        W24931  30.798  40.143  11.644
52606W        W24932  21.015  17.092  13.096
52607W        W24933  26.124  24.075  11.973
52608W        W24934  31.984  41.257   4.661
52609W        W24935  30.930   3.808  14.799
52610W        W24936  23.254  21.016   3.657
52611W        W24937  32.363  37.780   3.681
52612W        W24938   8.817  22.021   1.045
52613W        W24939  14.556   6.482  11.147
52614W        W24940  25.302  44.706  14.821
52615W        W24941  35.158  27.708   3.749
52616W        W24942  12.227  37.561  14.846
52617W        W24943  43.198  19.339  13.349
52618W        W24944  23.221  40.541  11.127
52619W        W24945  11.718  17.747  13.273
52620W        W24946  25.141  10.700   0.285
52621W        W24947  33.580  16.269   4.543
52622W        W24948   1.891  26.888  12.491
52623W        W24949  13.345  41.369  12.570
52624W        W24950  35.518  21.088   5.002
52625W        W24951  27.031  15.787  14.780
52626W        W24952  11.720  20.681   3.272
52627W        W24953  33.488  33.951  14.230
52628W        W24954  18.421  34.796  11.076
52629W        W24955  25.725  10.548   1.739
52630W        W24956  42.902   6.180   2.320
52631W        W24957  43.891  27.541  12.411
52632W        W24958  31.391  24.413   0.427
52633W        W24959   6.907  35.047  13.080
52634W        W24960  14.259  43.195  11.480
52635W        W24961  22.094  34.350   0.365
52636W        W24962   5.226  43.589   4.922
52637W        W24963   5.933  23.911  11.209
52638W        W24964  10.531  38.533  12.631
52639W        W24965  40.056  14.621  11.412
52640W        W24966  29.962  26.746  11.180
52641W        W24967  22.594  43.695  13.796
52642W        W24968  19.485  19.653   2.869
52643W        W24969  21.144   9.588   3.484
52644W        W24970  38.370  29.421  13.864
52645W        W24971  29.234  28.219   1.893
52646W        W24972  42.757  11.598   2.830
52647W        W24973  37.863  18.772  11.836
52648W        W24974  36.194  27.473  11.186
52649W        W24975  19.057  39.540  12.141
52650W        W24976  16.056  11.164   2.263
52651W        W24977  21.184   2.304   3.397
52652W        W24978  11.751  22.286   1.049
52653W        W24979  11.541  20.764  14.714
52654W        W24980   1.390  26.066  11.162
52655W        W24981  11.619  34.846  14.829
52656W        W24982   6.167  29.619   1.281
52657W        W24983   7.843  20.807   0.003
52658W        W24984  26.483  25.129   3.710
52659W        W24985  13.692  15.247   3.177
52660W        W24986  31.919  11.866  11.989
52661W        W24987   4.496   1.770  11.997
52662W        W24988  18.027  20.787  12.960
52663W        W24989  42.355  28.264   4.309
52664W        W24990  31.448  43.937  11.627
52665W        W24991  28.488  21.998   1.271
52666W        W24992   4.415  19.223  11.561
52667W        W24993  38.234  28.003  10.962
52668W        W24994  39.034  37.602  14.821
52669W        W24995  10.352  14.109   4.584
52670W        W24996  42.509  19.349   1.296
52671W        W24997  14.221  39.153  13.442
52672W        W24998  17.711   4.001   2.323
52673W        W24999  14.723  16.682  13.473
52674W        W25000   2.502  32.017  14.917
52675W        W25001   0.469  23.777  11.074
52676W        W25002  41.964  32.686  12.157
52677W        W25003  34.420  29.396   4.626
52678W        W25004  42.742   0.926  12.852
52679W        W25005   6.297  18.142  10.673
52680W        W25006  35.903   9.454  14.776
52681W        W25007  18.766   8.324   2.767
52682W        W25008   6.663  40.955  11.126
52683W        W25009   3.057   5.890   0.566
52684W        W25010  12.478  27.824  10.307
52685W        W25011  30.026  25.085   0.272
52686W        W25012  36.035  31.586  12.020
52687W        W25013  39.690  37.119  10.659
52688W        W25014  33.830   8.658  11.550
52689W        W25015   3.852  15.237  13.351
52690W        W25016   9.830  29.526  11.664
52691W        W25017  26.240   7.894  11.900
52692W        W25018  11.892   7.929  14.511
52693W        W25019  35.679   4.015  14.831
52694W        W25020  12.236   5.238  12.663
52695W        W25021  25.992  23.190   0.339
52696W        W25022  42.024  39.916   1.343
52697W        W25023  17.604  37.900   1.263
52698W        W25024  19.731   7.913   2.817
52699W        W25025  20.497  20.597  11.504
52700W        W25026  17.619  42.462  13.400
52701W        W25027  25.672  41.938   1.334
52702W        W25028   3.633  33.656  13.878
52703W        W25029  14.769  42.971  13.407
52704W        W25030  38.029  15.784   9.904
52705W        W25031  43.698  43.951   2.372
52706W        W25032  30.632  37.590   2.647
52707W        W25033  17.783  29.491  12.160
52708W        W25034   2.940  31.604   1.713
52709W        W25035  41.396  11.118  12.706
52710W        W25036  16.020  11.719   4.226
52711W        W25037  23.433   1.975  11.335
52712W        W25038   6.024  21.117  14.952
52713W        W25039  42.397  44.284   3.204
52714W        W25040  25.034   6.861   4.012
52715W        W25041  16.079  33.083   1.441
52716W        W25042  42.885  26.392  13.996
52717W        W25043  35.959  44.000  10.492
52718W        W25044  27.619  23.409  11.137
52719W        W25045  26.536  40.502  10.901
52720W        W25046   9.959  24.858  13.219
52721W        W25047  22.084  33.389  13.864
52722W        W25048  29.155   6.312  12.842
52723W        W25049   1.168  13.313  13.443
52724W        W25050  30.672  43.312   3.385
52725W        W25051  14.193  19.254   3.659
52726W        W25052   4.714  29.891  14.814
52727W        W25053  37.785  22.733  14.350
52728W        W25054   7.788  33.372   3.654
52729W        W25055  29.714  12.802   3.790
52730W        W25056  25.984  30.369   4.079
52731W        W25057  29.040  38.785  10.888
52732W        W25058  31.344  22.628  13.937
52733W        W25059  37.454  44.492   2.365
52734W        W25060  33.808  11.243   1.758
52735W        W25061  31.044  27.919   4.425
52736W        W25062  20.408   5.453   1.660
52737W        W25063  36.873   9.322   2.563
52738W        W25064  36.006   9.829  12.060
52739W        W25065  19.596  32.408   3.412
52740W        W25066  12.567  28.697   0.999
52741W        W25067   7.449  40.490   2.943
52742W        W25068  25.937  38.377   1.226
52743W        W25069  16.653  41.766   3.592
52744W        W25070  13.023  32.345  12.580
52745W        W25071  36.946   4.686  12.911
52746W        W25072  25.595  23.541   1.046
52747W        W25073  18.748   6.928   4.687
52748W        W25074   8.246  38.315   2.491
52749W        W25075  21.703  13.030   2.738
52750W        W25076  23.312  17.190  13.253
52751W        W25077  33.768  35.495  14.867
52752W        W25078  38.958   8.074   3.137
52753W        W25079  32.334   5.289   4.119
52754W        W25080  43.428  37.102   0.866
52755W        W25081  44.575  10.284   2.758
52756W        W25082  27.344  13.266   4.510
52757W        W25083   7.592   0.808   4.985
52758W        W25084  25.005   2.327   3.325
52759W        W25085  38.467   9.186   4.355
52760W        W25086  38.922  31.070   1.844
52761W        W25087   6.650  33.322  13.406
52762W        W25088  38.569  28.049   3.733
52763W        W25089  25.544  43.879  11.901
52764W        W25090  12.830   7.373  13.012
52765W        W25091  41.053  18.676   0.961
52766W        W25092  38.435   9.748   4.635
52767W        W25093  11.398  43.861   0.844
52768W        W25094  42.787   0.561   2.642
52769W        W25095  23.061  25.736  12.998
52770W        W25096  34.405  41.271   0.327
52771W        W25097  39.862   1.239   0.534
52772W        W25098  33.625  34.204   5.232
52773W        W25099   9.825   3.495   2.766
52774W        W25100  31.440   4.197  10.432
52775W        W25101   9.780  27.963  13.049
52776W        W25102  19.644  25.418   4.180
52777W        W25103  38.995  25.070   0.315
52778W        W25104  38.509   9.685  10.747
52779W        W25105  17.252  31.843  11.593
52780W        W25106  36.789   0.952  13.270
52781W        W25107  20.861  30.523  14.582
52782W        W25108  18.578   0.291   0.254
52783W        W25109  27.952   4.685   3.162
52784W        W25110   4.802  16.109   2.602
52785W        W25111  12.561  10.738  12.014
52786W        W25112   1.345   9.357  14.999
52787W        W25113  32.650   9.347  12.088
52788W        W25114  17.791   4.439   0.377
52789W        W25115  34.926  44.140  11.237
52790W        W25116  39.908  14.066   3.328
52791W        W25117   5.665   1.950  12.900
52792W        W25118  17.210  14.224   1.634
52793W        W25119   2.954  11.590   4.552
52794W        W25120  17.709  41.753  13.976
52795W        W25121  24.552  32.603  12.522
52796W        W25122  30.450  18.168  12.035
52797W        W25123   2.380  26.275  11.118
52798W        W25124  12.404  18.645  11.614
52799W        W25125  15.262  42.547   4.635
52800W        W25126  16.052  15.807  11.489
52801W        W25127   6.884  11.444  13.354
52802W        W25128   5.102  15.069  13.110
52803W        W25129  26.414  21.213   0.223
52804W        W25130  25.263  33.485   3.587
52805W        W25131  23.963  26.427   2.889
52806W        W25132   6.874   5.877   0.488
52807W        W25133   2.876  20.759   1.802
52808W        W25134  17.651  40.684  12.613
52809W        W25135  34.664  25.191   1.676
52810W        W25136  37.790  27.556   3.569
52811W        W25137  14.262  10.412  11.985
52812W        W25138  42.533  33.686  11.506
52813W        W25139  21.148  25.602   3.674
52814W        W25140  37.632   3.934   4.311
52815W        W25141  36.827  13.053  11.961
52816W        W25142  36.470  40.763  13.273
52817W        W25143  26.397   9.011   5.106
52818W        W25144  34.168  43.245  12.981
52819W        W25145  14.666  27.944  12.270
52820W        W25146   7.805  29.642   3.339
52821W        W25147  38.757  34.873   0.055
52822W        W25148  13.012  10.265   4.807
52823W        W25149  44.850  19.206   0.714
52824W        W25150  18.288  15.140   1.554
52825W        W25151  11.382   4.845  11.441
52826W        W25152  12.553  12.861   3.457
52827W        W25153  33.063   2.753  12.774
52828W        W25154  19.265  11.790  14.764
52829W        W25155  27.214  38.789  13.052
52830W        W25156   8.711  19.162   3.702
52831W        W25157  22.638  44.888  11.268
52832W        W25158  19.286   1.838  14.812
52833W        W25159   2.553   3.162  12.348
52834W        W25160  26.920  40.791  12.071
52835W        W25161  23.608  28.630   0.953
52836W        W25162   3.461  18.047  11.268
52837W        W25163  27.209  40.651  13.412
52838W        W25164  17.747  12.441   0.975
52839W        W25165  34.628   8.322  13.127
52840W        W25166  18.953  15.574  14.789
52841W        W25167  29.905  36.449  10.993
52842W        W25168  17.280   4.936   5.041
52843W        W25169  10.456  42.045   0.696
52844W        W25170  26.900  13.837   0.222
52845W        W25171   8.535  22.815  12.886
52846W        W25172  42.737  18.067   2.139
52847W        W25173  18.460  37.545  10.664
52848W        W25174  33.197  29.408  10.613
52849W        W25175  25.149   5.698   2.925
52850W        W25176  35.406  31.545   0.010
52851W        W25177  16.937  20.620  12.071
52852W        W25178  35.600  37.052   4.467
52853W        W25179  20.249  28.356   5.005
52854W        W25180   9.183   9.792   1.380
52855W        W25181  11.508  12.410  11.620
52856W        W25182   1.580  22.220   1.814
52857W        W25183   5.924  13.261  13.129
52858W        W25184  36.632   4.879  14.373
52859W        W25185  14.286  16.692  11.211
52860W        W25186  10.070  24.010   4.090
52861W        W25187  33.984  18.215   2.345
52862W        W25188  24.992  44.296  14.957
52863W        W25189  34.138  36.532  14.338
52864W        W25190  28.633   3.777   1.031
52865W        W25191   0.790  34.611   0.005
52866W        W25192   4.133  39.720  12.345
52867W        W25193  20.107  34.151   4.213
52868W        W25194  14.089  20.956   4.093
52869W        W25195   0.662  26.655  11.185
52870W        W25196  22.080   7.411   3.615
52871W        W25197  42.940   4.987  12.934
52872W        W25198  39.335  34.114   1.931
52873W        W25199  15.228  13.648   0.235
52874W        W25200  15.715  13.789  12.996
52875W        W25201  33.635  27.556  14.866
52876W        W25202  33.604  19.675   4.647
52877W        W25203  44.252  18.885  13.491
52878W        W25204  38.878   3.696   4.041
52879W        W25205   5.858  14.094   2.768
52880W        W25206  39.936  30.430  14.130
52881W        W25207   8.985  19.543   4.482
52882W        W25208  16.186  33.175  10.812
52883W        W25209  10.320   9.757   2.215
52884W        W25210   1.346  13.544  10.905
52885W        W25211  25.939  44.854  10.719
52886W        W25212   3.377  14.584   4.190
52887W        W25213  23.062   3.460   3.603
52888W        W25214  17.294  18.228   3.056
52889W        W25215  28.598  22.955  14.744
52890W        W25216  27.165  21.549  11.920
52891W        W25217  20.689   6.187  14.535
52892W        W25218  21.743  29.077   2.778
52893W        W25219  44.210  15.603  10.858
52894W        W25220  30.713  29.248  12.008
52895W        W25221   3.119  14.410  12.594
52896W        W25222  26.068  32.037   1.053
52897W        W25223  29.090  27.985   0.888
52898W        W25224  11.178  40.791   0.683
52899W        W25225   3.277   6.480   2.201
52900W        W25226   6.596  32.157   0.881
52901W        W25227  37.583  41.533  10.425
52902W        W25228  38.511  38.518  14.309
52903W        W25229  24.500  26.677   1.743
52904W        W25230  22.594   2.515   4.579
52905W        W25231   9.197  10.726   4.331
52906W        W25232  35.803  12.369   9.838
52907W        W25233  19.698  16.551   2.420
52908W        W25234  28.104  14.710   2.353
52909W        W25235  36.993   3.815   4.708
52910W        W25236   7.732   9.300   3.760
52911W        W25237  28.042   0.913   1.325
52912W        W25238  32.051  27.716  13.760
52913W        W25239   1.014  38.921   4.681
52914W        W25240  24.082  44.795   1.287
52915W        W25241  14.306  20.037   1.904
52916W        W25242   7.120  34.184  14.090
52917W        W25243  29.453   0.366  12.564
52918W        W25244  13.060   1.369   1.833
52919W        W25245  42.363  32.039  11.647
52920W        W25246  37.890  26.485   3.694
52921W        W25247   4.660  10.206  14.556
52922W        W25248   8.242  30.304  12.005
52923W        W25249  22.538  21.829  13.826
52924W        W25250   2.659   6.976   1.805
52925W        W25251  44.625  34.380   3.773
52926W        W25252  28.753  30.004  12.779
52927W        W25253  37.066  35.036   2.352
52928W        W25254  25.564  37.011   1.324
52929W        W25255  35.025  28.660   0.899
52930W        W25256  20.221  40.253  11.982
52931W        W25257  11.886  28.363   3.335
52932W        W25258  33.968   7.678  14.359
52933W        W25259  43.050  18.655  10.709
52934W        W25260   0.457  44.992   4.149
52935W        W25261   0.583  14.768   4.497
52936W        W25262   0.655  31.602  13.839
52937W        W25263  43.111  27.994   1.457
52938W        W25264  17.954   6.208  12.466
52939W        W25265  42.734   2.124   4.217
52940W        W25266  38.104  18.214  13.944
52941W        W25267  18.389  11.601   3.463
52942W        W25268  40.116  37.400  13.768
52943W        W25269  11.196   5.529   1.433
52944W        W25270   7.139  42.306   4.610
52945W        W25271   9.344   3.868  10.609
52946W        W25272   0.026  16.548  13.438
52947W        W25273   8.081  41.254   1.200
52948W        W25274  10.084  29.670  14.371
52949W        W25275   2.959  21.996  14.595
52950W        W25276  39.099  28.404   4.122
52951W        W25277   1.014   6.523   2.124
52952W        W25278  29.603  21.764   4.158
52953W        W25279  27.584  33.018   0.032
52954W        W25280  10.482  22.803   3.345
52955W        W25281   5.055  27.410  13.210
52956W        W25282  10.824  31.840   2.858
52957W        W25283  33.947  28.575   1.404
52958W        W25284  15.589  44.437  12.003
52959W        W25285  27.688  36.488  12.061
52960W        W25286  44.752  31.140   3.536
52961W        W25287  43.433  28.176  11.420
52962W        W25288  13.986  18.218   4.722
52963W        W25289  32.076  41.828  12.829
52964W        W25290  35.922  31.890   0.364
52965W        W25291   8.873   2.935   2.457
52966W        W25292   2.790   9.824   4.484
52967W        W25293   3.501  15.364   4.652
52968W        W25294  12.045  28.653   3.762
52969W        W25295   6.672  37.987   2.269
52970W        W25296  30.537  31.486  14.250
52971W        W25297  17.762   2.334   4.762
52972W        W25298  17.287  44.025   2.730
52973W        W25299  35.658  11.402   1.464
52974W        W25300  42.782  13.346  10.887
52975W        W25301   1.198   1.815   3.683
52976W        W25302   5.813  20.856  11.073
52977W        W25303  26.767  14.801  12.565
52978W        W25304  43.524   4.265  10.373
52979W        W25305  41.781  11.317   1.464
52980W        W25306  33.240  37.027  13.556
52981W        W25307   8.265  17.854   1.727
52982W        W25308  25.473  21.748   3.571
52983W        W25309  38.125  37.783  14.417
52984W        W25310   2.442  12.007  13.936
52985W        W25311  11.921  21.315  12.178
52986W        W25312  14.416  21.283   1.274
52987W        W25313  36.118   2.164   1.966
52988W        W25314  44.024  20.541   0.704
52989W        W25315   7.806  11.578   1.251
52990W        W25316  20.295  13.058  10.271
52991W        W25317  21.019  26.039  14.320
52992W        W25318  37.244  32.942   3.971
52993W        W25319  38.494   7.284  11.129
52994W        W25320  34.921   7.759  13.282
52995W        W25321  27.222  25.060  14.273
52996W        W25322  27.997  28.129   3.722
52997W        W25323  32.663  10.659   4.589
52998W        W25324  37.426  31.394   0.740
52999W        W25325  13.806  43.359   4.206
53000W        W25326  10.114  33.829  12.766
53001W        W25327  33.476  20.727   0.686
53002W        W25328  32.649  10.624  11.050
53003W        W25329   8.761  30.508  11.638
53004W        W25330  41.333  11.679   2.740
53005W        W25331  44.938  13.625  12.576
53006W        W25332  10.351   8.229   4.607
53007W        W25333  25.392   3.040  14.845
53008W        W25334  18.149  18.477  14.615
53009W        W25335  12.293  17.234   4.245
53010W        W25336   3.191  25.174  12.835
53011W        W25337  10.690  15.247  12.435
53012W        W25338  16.249  24.769   0.347
53013W        W25339  33.185  12.163  13.325
53014W        W25340  18.622  40.067   2.631
53015W        W25341  16.037  27.887   4.388
53016W        W25342   6.918  43.970   0.520
53017W        W25343   9.307  31.668   1.741
53018W        W25344  13.848  37.166  10.068
53019W        W25345  13.218  20.346  10.955
53020W        W25346  33.986  20.921  13.838
53021W        W25347   9.394  16.175   1.762
53022W        W25348  22.294  37.519   4.073
53023W        W25349  20.887  10.615   3.153
53024W        W25350  42.262  29.930   1.750
53025W        W25351  29.566  21.255   3.217
53026W        W25352  32.154  12.764  11.880
53027W        W25353  11.048  17.929  11.020
53028W        W25354   3.811  33.507  12.969
53029W        W25355   3.508  25.130  10.977
53030W        W25356  33.515  23.761   4.040
53031W        W25357  32.060  44.255   1.871
53032W        W25358  28.846  33.791  13.852
53033W        W25359   6.316  26.440  13.526
53034W        W25360  16.169  16.578   1.713
53035W        W25361  15.792  15.832  12.144
53036W        W25362  32.861  33.946   2.359
53037W        W25363  34.567  11.427   2.875
53038W        W25364  18.064  32.421  13.509
53039W        W25365   0.670  36.786  10.979
53040W        W25366  16.310  31.920   3.357
53041W        W25367  18.872  30.363   3.382
53042W        W25368  24.244  30.940   3.633
53043W        W25369   1.497   5.312  14.746
53044W        W25370  18.299  27.955   4.224
53045W        W25371   3.643  25.016   0.788
53046W        W25372  42.763   8.182  13.268
53047W        W25373  18.466  24.695   2.186
53048W        W25374  42.844  12.132   0.971
53049W        W25375  34.539  41.961   3.344
53050W        W25376  34.076  17.738   3.732
53051W        W25377  36.988  15.819  14.666
53052W        W25378   3.724  40.005   0.224
53053W        W25379  40.856  28.961  12.361
53054W        W25380  23.035   7.116  12.488
53055W        W25381  24.988  36.905  11.987
53056W        W25382  27.032  36.865   0.470
53057W        W25383  16.383  23.437   2.289
53058W        W25384  23.336  39.488  14.976
53059W        W25385  39.786  36.763   0.447
53060W        W25386  40.276  19.264   3.839
53061W        W25387  20.459  22.635   2.733
53062W        W25388  40.355   9.908  13.903
53063W        W25389  31.269  12.304  12.408
53064W        W25390  12.182  33.622   0.249
53065W        W25391   5.876   0.528  14.018
53066W        W25392  19.338  41.371  13.446
53067W        W25393  28.720  25.376   0.536
53068W        W25394   0.671   7.893   4.019
53069W        W25395  22.784  30.984   1.278
53070W        W25396  23.007  30.453  13.498
53071W        W25397  20.237  31.031  12.630
53072W        W25398  38.555  21.883   3.699
53073W        W25399  11.392  18.704   0.532
53074W        W25400  40.498  14.687   4.866
53075W        W25401   8.702  14.189   3.674
53076W        W25402  36.331  42.911   3.956
53077W        W25403  39.097  18.994  13.640
53078W        W25404  32.059   7.278   0.357
53079W        W25405   4.784  11.787  12.947
53080W        W25406  44.071  44.513   3.171
53081W        W25407  42.874  37.635   2.200
53082W        W25408  43.342  38.064   1.229
53083W        W25409   9.769  44.855   2.438
53084W        W25410   9.667  44.550   4.794
53085W        W25411  14.241  32.795   4.509
53086W        W25412  23.060  20.498  12.033
53087W        W25413  17.093  12.841  13.921
53088W        W25414  24.552  29.254   3.087
53089W        W25415  23.232  35.198  11.134
53090W        W25416  29.730  39.028  12.663
53091W        W25417   8.154  43.341   0.280
53092W        W25418  25.105  19.794   4.343
53093W        W25419  28.151  29.900  14.784
53094W        W25420  28.541   4.860   1.387
53095W        W25421  19.813  40.903   1.915
53096W        W25422  11.330  25.337   5.633
53097W        W25423   2.413  25.936   1.444
53098W        W25424  33.125   1.024  12.986
53099W        W25425  33.464   3.528   4.945
53100W        W25426  38.543  31.059  10.357
53101W        W25427  18.826  19.716   2.200
53102W        W25428  28.244  33.488  11.244
53103W        W25429  34.044   8.388   4.090
53104W        W25430  18.257   0.995   2.999
53105W        W25431  12.781  33.639  14.377
53106W        W25432  16.263   8.784  11.990
53107W        W25433  32.493  21.765   2.922
53108W        W25434  40.595  14.328   1.310
53109W        W25435   1.311  33.555   4.547
53110W        W25436  13.585  19.772  14.924
53111W        W25437  30.551  14.512  13.779
53112W        W25438  32.677  42.031   2.406
53113W        W25439   2.186   4.181   0.773
53114W        W25440  11.590  24.317   0.769
53115W        W25441  19.544  32.131   2.609
53116W        W25442  10.582  17.024  14.412
53117W        W25443  36.300  16.650  11.761
53118W        W25444   7.907  41.529  12.442
53119W        W25445   7.440  28.206  10.688
53120W        W25446   5.836  40.363  11.890
53121W        W25447  19.560   8.850   0.470
53122W        W25448  37.522  41.967   3.156
53123W        W25449   3.505   9.932   2.788
53124W        W25450   3.985  37.921   0.859
53125W        W25451  33.053  25.193  14.950
53126W        W25452   8.248  36.492   2.399
53127W        W25453  24.598  37.033   0.005
53128W        W25454   3.840  37.056  11.945
53129W        W25455   5.445   6.255   0.062
53130W        W25456  40.955  21.706  11.970
53131W        W25457   3.535  31.603  10.462
53132W        W25458  29.486  16.532   1.648
53133W        W25459  11.619  17.023   3.301
53134W        W25460  37.681   3.763   4.806
53135W        W25461  25.858  36.152   3.235
53136W        W25462  30.602  28.195   4.548
53137W        W25463   2.898  35.390   2.750
53138W        W25464  25.125   2.286   2.449
53139W        W25465  18.261   0.508   2.826
53140W        W25466  41.260  17.664   3.230
53141W        W25467  25.913   9.881   0.887
53142W        W25468  37.598  28.170   4.624
53143W        W25469  39.632  11.574   4.002
53144W        W25470  40.808  19.767  11.163
53145W        W25471  13.340   9.649   3.086
53146W        W25472  26.698   4.914   3.876
53147W        W25473  20.697  13.292   0.956
53148W        W25474  26.451   0.039   1.701
53149W        W25475  36.582  30.391  10.715
53150W        W25476  41.839   9.669  12.523
53151W        W25477  12.570  21.021  14.459
53152W        W25478  44.669  28.528   4.910
53153W        W25479  35.123  29.917  11.553
53154W        W25480  25.179   9.201   0.450
53155W        W25481  14.355  14.849  13.165
53156W        W25482   5.644  43.967   2.369
53157W        W25483   3.198  38.099  14.282
53158W        W25484  25.375  40.961  12.002
53159W        W25485  40.008  11.286   0.897
53160W        W25486  32.144  37.834  14.273
53161W        W25487  20.353  22.195   4.627
53162W        W25488  18.326  16.440  12.403
53163W        W25489  43.157  26.716   0.889
53164W        W25490  18.092   8.697  13.012
53165W        W25491  34.852   1.898  12.092
53166W        W25492  14.683  27.110   5.221
53167W        W25493  41.275  13.521   0.346
53168W        W25494  23.063  28.997   0.490
53169W        W25495  38.286   6.699  12.362
53170W        W25496  25.562  32.524  12.303
53171W        W25497   8.368  31.729   1.272
53172W        W25498   8.115  11.769  11.175
53173W        W25499  35.449  24.623   0.247
53174W        W25500  12.802  33.589   0.335
53175W        W25501  30.278  32.493   4.567
53176W        W25502  37.642   2.930  12.895
53177W        W25503   8.242  21.548  14.285
53178W        W25504  10.855   8.340  10.727
53179W        W25505  23.302  41.972   4.180
53180W        W25506  44.304  29.019  10.549
53181W        W25507   1.338   1.713  11.732
53182W        W25508  26.584  36.926  13.635
53183W        W25509  22.475  39.768   2.226
53184W        W25510  32.887  34.899   4.771
53185W        W25511  30.906   9.672   0.558
53186W        W25512   4.416  32.269   2.494
53187W        W25513  40.487  40.773  13.816
53188W        W25514  36.540  42.991  13.007
53189W        W25515  31.275   2.521   0.203
53190W        W25516  28.072   3.170   1.854
53191W        W25517  43.268  31.835  14.786
53192W        W25518  14.580  13.894  14.157
53193W        W25519  42.459  42.277  13.412
53194W        W25520  20.224  13.340  11.236
53195W        W25521   6.360  26.415   2.412
53196W        W25522  34.569   8.781   2.849
53197W        W25523  28.053  40.482   2.221
53198W        W25524   1.358  30.660   0.050
53199W        W25525   4.882   0.850  13.520
53200W        W25526  15.649  33.408  11.780
53201W        W25527  37.380  26.457   1.912
53202W        W25528   0.349   0.456  14.283
53203W        W25529  29.359  34.273  11.466
53204W        W25530   3.773  40.004  10.866
53205W        W25531  26.074   1.480  12.061
53206W        W25532  29.869  27.217  12.018
53207W        W25533  42.323  34.532   4.207
53208W        W25534  34.155   7.271   4.591
53209W        W25535  12.061  31.171   3.337
53210W        W25536   1.854  10.583  14.065
53211W        W25537   3.534  38.479   4.670
53212W        W25538  25.742  33.085  13.562
53213W        W25539  24.120  14.206  13.188
53214W        W25540  44.012  15.304  11.304
53215W        W25541   6.450  16.172  10.868
53216W        W25542   6.447   2.268  11.024
53217W        W25543  38.538  40.530  11.592
53218W        W25544  41.936  37.543  13.865
53219W        W25545  22.719  26.583  11.287
53220W        W25546  30.620  42.850   4.498
53221W        W25547  34.451  12.728   2.727
53222W        W25548  10.919  43.267  13.043
53223W        W25549  30.911  24.718   3.239
53224W        W25550  43.903  14.775   1.401
53225W        W25551  10.546   1.375   0.472
53226W        W25552  31.013  20.688   4.796
53227W        W25553  30.610   6.240   4.366
53228W        W25554  34.401  20.662   0.399
53229W        W25555  11.694  38.622   2.714
53230W        W25556  32.519  12.329   0.828
53231W        W25557  31.992  37.373  12.473
53232W        W25558  16.701   2.915  14.793
53233W        W25559  11.283  11.100  13.878
53234W        W25560  11.198  36.998  11.540
53235W        W25561  37.618  16.336  11.541
53236W        W25562  40.977  11.791  11.036
53237W        W25563  41.971  43.039  10.298
53238W        W25564  37.026   2.965  14.159
53239W        W25565  16.981  31.091  12.005
53240W        W25566  23.558  27.720  12.531
53241W        W25567  14.878   6.415  13.048
53242W        W25568   9.864  28.398   4.263
53243W        W25569  27.923  24.581   0.570
53244W        W25570   7.343  39.819   1.999
53245W        W25571  11.854   0.947   0.197
53246W        W25572  18.866  19.327  13.548
53247W        W25573  30.557  28.952  14.868
53248W        W25574   2.525  41.375  11.513
53249W        W25575   7.640   0.970  10.762
53250W        W25576   5.889  36.403   1.913
53251W        W25577  23.005  41.006   2.848
53252W        W25578  41.209   1.844  13.874
53253W        W25579  34.467  26.663  10.632
53254W        W25580   0.984  43.627   0.441
53255W        W25581  34.219  11.355  12.068
53256W        W25582  19.605  35.009  14.977
53257W        W25583  20.548  10.216  12.858
53258W        W25584  16.601  26.073   0.224
53259W        W25585  31.132  30.872  14.762
53260W        W25586   4.303  34.018  14.509
53261W        W25587  11.148  25.516  12.980
53262W        W25588  17.234   2.686   2.188
53263W        W25589  25.200  31.209   1.350
53264W        W25590   6.620  18.682  10.687
53265W        W25591   4.384   2.218  14.386
53266W        W25592  12.859   0.073  11.219
53267W        W25593  31.049  18.584   1.822
53268W        W25594  19.146  44.512   0.363
53269W        W25595  44.570  24.311   3.819
53270W        W25596  16.225  25.188  13.684
53271W        W25597  29.373  41.817  12.683
53272W        W25598   4.737  18.107   1.766
53273W        W25599  29.104  36.966   3.663
53274W        W25600  39.628  43.236  11.455
53275W        W25601  29.571  22.141  14.435
53276W        W25602   4.736  30.063   0.323
53277W        W25603   1.347  30.823  14.006
53278W        W25604  38.396  16.826  10.905
53279W        W25605  19.954  31.895  13.888
53280W        W25606  34.906  36.840  12.551
53281W        W25607  32.567   0.848   3.372
53282W        W25608   6.267  19.296  13.622
53283W        W25609  20.450   4.122   1.663
53284W        W25610  41.944  37.847   0.247
53285W        W25611   6.059  18.966  14.402
53286W        W25612  19.359  33.580  13.969
53287W        W25613  22.933  15.271  13.915
53288W        W25614  29.607   2.878   3.694
53289W        W25615  44.399  18.460  10.766
53290W        W25616   0.700  28.205  12.352
53291W        W25617  14.288  43.931  12.811
53292W        W25618  27.845   9.614  13.497
53293W        W25619  25.073   0.439  14.996
53294W        W25620   4.068  41.934   2.272
53295W        W25621  15.710  30.899   3.734
53296W        W25622  10.613  30.704  13.295
53297W        W25623  16.995  36.919   0.752
53298W        W25624   5.041  18.709   1.287
53299W        W25625  19.370  13.323   4.170
53300W        W25626   3.477  38.488   1.108
53301W        W25627  14.772  33.594   4.882
53302W        W25628  34.849   7.512   2.257
53303W        W25629  22.800   4.882   2.235
53304W        W25630  43.390  22.697   0.863
53305W        W25631  18.714  30.598  12.855
53306W        W25632  21.002  15.270  14.254
53307W        W25633   5.817  33.956   3.431
53308W        W25634   4.647  14.106  11.631
53309W        W25635  40.451  14.245   4.074
53310W        W25636  26.501  13.641  10.696
53311W        W25637  19.031   1.117  11.394
53312W        W25638  39.649  19.324   2.727
53313W        W25639   5.280  31.614   0.039
53314W        W25640   8.551  30.540  13.899
53315W        W25641  37.341  18.085   0.298
53316W        W25642  22.333  20.819   2.338
53317W        W25643  37.367  21.730  13.575
53318W        W25644  25.050  39.289   1.226
53319W        W25645  35.629  32.151   0.813
53320W        W25646  18.153  34.545   4.585
53321W        W25647  44.893  32.348   4.774
53322W        W25648   6.921  41.829   4.720
53323W        W25649  26.075  15.147  13.015
53324W        W25650  20.196   4.460  10.403
53325W        W25651  28.781   9.377   2.668
53326W        W25652   5.665  27.511  10.800
53327W        W25653  14.172  22.549   2.420
53328W        W25654  17.583  36.054   2.378
53329W        W25655  38.015  24.153   2.058
53330W        W25656   0.169  14.845  12.129
53331W        W25657  13.851  43.519  10.713
53332W        W25658  23.989  43.892   3.707
53333W        W25659  37.368  40.894  11.246
53334W        W25660   0.736   6.321  13.301
53335W        W25661  44.787  11.813  12.707
53336W        W25662  14.378  21.291   4.868
53337W        W25663   1.684  15.491  13.051
53338W        W25664  31.400  20.273  11.631
53339W        W25665   4.017   8.710  10.751
53340W        W25666  12.805  25.693  11.507
53341W        W25667  11.824  27.487  13.506
53342W        W25668   7.271  26.665  10.522
53343W        W25669  37.901  11.176  12.907
53344W        W25670  10.826  29.524   2.689
53345W        W25671  11.808  22.147   4.411
53346W        W25672  23.571   0.209  11.620
53347W        W25673  31.137  35.602  13.416
53348W        W25674  25.522  29.188   0.868
53349W        W25675   1.500  23.303   0.276
53350W        W25676  24.738   1.353  12.875
53351W        W25677  21.982   3.386   0.552
53352W        W25678   5.865  18.676  11.300
53353W        W25679   5.380  14.153  14.326
53354W        W25680  37.524  39.864   3.851
53355W        W25681  31.932  26.704  13.829
53356W        W25682   8.357  40.753  14.534
53357W        W25683  16.226  21.118   2.434
53358W        W25684  27.455  28.948  12.921
53359W        W25685  11.674  18.528  11.045
53360W        W25686  37.596   4.030  11.397
53361W        W25687   7.853  20.466   1.429
53362W        W25688  39.553  10.163  14.528
53363W        W25689  23.019  44.889  10.918
53364W        W25690  30.599  28.319   3.137
53365W        W25691  29.440  32.619   0.151
53366W        W25692  27.281  13.084   1.504
53367W        W25693  15.163   9.207   2.766
53368W        W25694  18.266  21.123   4.078
53369W        W25695  32.489  31.964  13.404
53370W        W25696  16.683  13.460   4.508
53371W        W25697   4.331  38.314  13.174
53372W        W25698  18.538  12.850  14.945
53373W        W25699  26.091  25.568   0.527
53374W        W25700  44.555  44.812   1.850
53375W        W25701   6.761  35.620   3.810
53376W        W25702  39.999   5.254  11.561
53377W        W25703  22.235  36.010  12.928
53378W        W25704  21.045  10.647  10.640
53379W        W25705  28.523  16.787  13.454
53380W        W25706   8.861  38.990   4.213
53381W        W25707  32.000  27.196  13.961
53382W        W25708  37.820  32.957  11.469
53383W        W25709  32.876  16.655  12.954
53384W        W25710  13.191  34.048   2.734
53385W        W25711   1.918  35.848   3.239
53386W        W25712  30.075  25.652  11.981
53387W        W25713  13.198   2.049  14.017
53388W        W25714  22.573  17.394   3.801
53389W        W25715  23.749   5.879   0.211
53390W        W25716   2.132   9.615   4.606
53391W        W25717  35.033  34.626   1.775
53392W        W25718  19.730  18.258   3.788
53393W        W25719  26.242  35.107   4.159
53394W        W25720  26.370  38.230  11.098
53395W        W25721  28.788  31.039  10.656
53396W        W25722  27.456  26.967   0.441
53397W        W25723  13.605  17.216  13.886
53398W        W25724  13.744  21.004  13.846
53399W        W25725  43.778  42.890  14.580
53400W        W25726  18.707  18.534   4.350
53401W        W25727   0.007  13.424  11.038
53402W        W25728  25.625   1.224  11.866
53403W        W25729  11.995  14.706   2.783
53404W        W25730  35.757   0.306  14.527
53405W        W25731   6.504  29.581  14.427
53406W        W25732   3.204  33.396   3.673
53407W        W25733  17.426   7.408  11.551
53408W        W25734   8.771   9.310  14.134
53409W        W25735  38.627  20.536   0.690
53410W        W25736   4.338   9.459   4.588
53411W        W25737   8.645  21.741   3.232
53412W        W25738  24.808  18.283   9.826
53413W        W25739  30.611  40.760   4.691
53414W        W25740   0.920   4.646   2.166
53415W        W25741  38.351  16.170   3.601
53416W        W25742  12.494  33.998   0.421
53417W        W25743   8.737  32.451   4.215
53418W        W25744  15.282   3.934   4.597
53419W        W25745  17.354  36.459  12.440
53420W        W25746   6.266   2.380   0.397
53421W        W25747   0.610   1.245   1.683
53422W        W25748  16.951  40.097  10.230
53423W        W25749   9.291  44.608   2.665
53424W        W25750   9.591  19.272  13.452
53425W        W25751  15.148  31.034  13.254
53426W        W25752  33.985   2.551  14.714
53427W        W25753  35.740  15.144   1.483
53428W        W25754  14.321   9.769   0.199
53429W        W25755  42.469  18.097   0.013
53430W        W25756  21.655  31.980   0.710
53431W        W25757  20.724  30.057  10.990
53432W        W25758  23.519   2.203   1.781
53433W        W25759  27.063   4.922  10.737
53434W        W25760  16.074  37.877   0.262
53435W        W25761  16.585  13.653  11.098
53436W        W25762  38.138   5.208   0.973
53437W        W25763   2.842  33.458  14.591
53438W        W25764  25.458  12.849   2.326
53439W        W25765  38.346   6.854   3.602
53440W        W25766  11.686  35.449  10.191
53441W        W25767  18.578  40.797   4.204
53442W        W25768  43.498   8.559   4.908
53443W        W25769  22.553  18.554   4.635
53444W        W25770  15.681   4.325   3.832
53445W        W25771  32.502  34.197  10.691
53446W        W25772  20.721  41.484   4.039
53447W        W25773   6.386  33.748   0.285
53448W        W25774   0.539  13.609   4.576
53449W        W25775   8.248  44.803  13.211
53450W        W25776  18.093   2.252  14.778
53451W        W25777  41.886  20.724   1.050
53452W        W25778  11.226  36.841  12.430
53453W        W25779  22.630  37.632   0.454
53454W        W25780  19.723  11.226   2.424
53455W        W25781   2.235   4.784   2.813
53456W        W25782   4.186  37.448   0.833
53457W        W25783  16.576  41.614  11.623
53458W        W25784  22.720  25.737   3.720
53459W        W25785  25.155  23.515  13.460
53460W        W25786  24.164  11.264   0.387
53461W        W25787  33.809  15.038  11.912
53462W        W25788  16.541  38.420   4.587
53463W        W25789  19.273  34.396   0.359
53464W        W25790  35.336  36.336  13.944
53465W        W25791  10.038  22.937  11.408
53466W        W25792  17.922  13.051  12.517
53467W        W25793  36.850  16.350  13.920
53468W        W25794   8.274   4.102   1.960
53469W        W25795  17.644  31.186   1.755
53470W        W25796   0.707  13.692  13.174
53471W        W25797   2.255  29.844  12.168
53472W        W25798   8.337  33.658   4.666
53473W        W25799   3.537  21.408  11.060
53474W        W25800  16.661  33.112  14.210
53475W        W25801  26.954  32.063  13.346
53476W        W25802  39.094  23.487   2.847
53477W        W25803  35.870  33.342   9.702
53478W        W25804  37.870  41.748  11.136
53479W        W25805  37.978  17.246  12.013
53480W        W25806  23.968  39.068  14.285
53481W        W25807  29.890  28.515   4.228
53482W        W25808   5.361  12.368  13.866
53483W        W25809  36.362   6.971   2.104
53484W        W25810   2.228   3.962  14.894
53485W        W25811  38.756   2.390   4.068
53486W        W25812  40.057  10.106  12.830
53487W        W25813   7.558  19.055   4.648
53488W        W25814  28.554  26.222   4.810
53489W        W25815  23.106  28.966  11.500
53490W        W25816  22.623  17.236   4.579
53491W        W25817  18.398  22.742  11.052
53492W        W25818  16.958   7.263  10.858
53493W        W25819  15.028  30.039   2.540
53494W        W25820   9.742  11.683  11.664
53495W        W25821  31.561  16.766   1.753
53496W        W25822   6.187  24.068   1.706
53497W        W25823  36.569   4.474  13.230
53498W        W25824   0.206  16.008   4.127
53499W        W25825  14.204  14.795   1.716
53500W        W25826  29.869  15.432   3.982
53501W        W25827  40.428  44.490  14.681
53502W        W25828   3.269  35.057  14.537
53503W        W25829  10.915  19.610   1.730
53504W        W25830   5.879  11.576  10.725
53505W        W25831  25.827  32.439   2.777
53506W        W25832  38.010   0.035  14.998
53507W        W25833  42.116  21.397  11.491
53508W        W25834  27.000  43.321  13.421
53509W        W25835  21.838  34.148  13.794
53510W        W25836   2.929   8.695  14.247
53511W        W25837  14.505  35.366  12.152
53512W        W25838  11.328  35.926   3.760
53513W        W25839  13.624   5.326  11.634
53514W        W25840   3.809   7.592  12.616
53515W        W25841  33.928  25.506   3.267
53516W        W25842  18.841  16.126  10.936
53517W        W25843  39.859  41.391   1.770
53518W        W25844  18.625  42.531  10.736
53519W        W25845  25.056  21.962   0.594
53520W        W25846  35.347  39.272  10.806
53521W        W25847   6.497  12.358  12.996
53522W        W25848  43.317  27.229   3.194
53523W        W25849  17.160  41.922   3.640
53524W        W25850  41.204   2.530   3.752
53525W        W25851  35.399   8.833  12.492
53526W        W25852  24.627  23.752   2.119
53527W        W25853   2.151   2.796  14.969
53528W        W25854  20.744  20.683   3.301
53529W        W25855   9.238  42.817  10.632
53530W        W25856  42.982  14.589   1.748
53531W        W25857  22.614  37.833   2.142
53532W        W25858  28.415   7.036  12.484
53533W        W25859  13.208  15.145   4.229
53534W        W25860  24.578  42.832   0.415
53535W        W25861  26.540   3.351   0.674
53536W        W25862  33.756   2.477   4.230
53537W        W25863  17.288  27.565  14.029
53538W        W25864   1.364  39.018  13.408
53539W        W25865  12.282  23.848  12.561
53540W        W25866   4.267  27.014  14.224
53541W        W25867   6.631  13.928   4.188
53542W        W25868   1.376  11.746   9.811
53543W        W25869   3.985  20.047   1.929
53544W        W25870  41.982   8.261   4.873
53545W        W25871   1.196  11.344  11.622
53546W        W25872  33.092  33.472  13.812
53547W        W25873  41.928  17.857   0.059
53548W        W25874  37.021  26.077  12.987
53549W        W25875  32.462  35.944   0.991
53550W        W25876  20.219  28.665  14.825
53551W        W25877   9.854  27.436   2.469
53552W        W25878  18.154  21.935  12.001
53553W        W25879   8.595   4.988   4.166
53554W        W25880  37.707  34.287  14.434
53555W        W25881  20.857  22.206   4.508
53556W        W25882  26.093   9.880   0.033
53557W        W25883   7.341  34.779   2.381
53558W        W25884  26.113  35.066   3.284
53559W        W25885  28.184  30.066   2.248
53560W        W25886  41.098  36.327   2.210
53561W        W25887  33.039  36.964  13.065
53562W        W25888   4.577  25.205  10.909
53563W        W25889  38.112  15.262   1.245
53564W        W25890  13.638   0.908  10.456
53565W        W25891  11.497  43.902  12.448
53566W        W25892  31.376  25.955  11.705
53567W        W25893  43.460  41.629  13.008
53568W        W25894  19.258   4.789  14.943
53569W        W25895  17.611  19.599  13.767
53570W        W25896  44.436  26.425  10.698
53571W        W25897  26.267  44.712  12.340
53572W        W25898   5.421  10.788   2.477
53573W        W25899  43.228   1.359   3.274
53574W        W25900  10.623  10.148   9.959
53575W        W25901  35.303  20.167   1.509
53576W        W25902  30.385  29.111  13.084
53577W        W25903  27.176  22.072   4.577
53578W        W25904  28.592  42.322  12.464
53579W        W25905   4.065   2.137   9.955
53580W        W25906  39.413  44.166  13.055
53581W        W25907  42.926  28.664   0.660
53582W        W25908  24.584  23.611  12.910
53583W        W25909   6.340  29.466   4.849
53584W        W25910  29.870   7.338   4.090
53585W        W25911  28.612   3.321  14.843
53586W        W25912  30.206  36.560   0.481
53587W        W25913  10.083  10.092   3.708
53588W        W25914   2.257  16.141  14.439
53589W        W25915   1.679   9.605  14.009
53590W        W25916   7.159  16.187   0.297
53591W        W25917  38.172  11.061  12.123
53592W        W25918  44.058   2.221  13.922
53593W        W25919   8.290  29.086   1.111
53594W        W25920  18.129  18.305   4.724
53595W        W25921  44.783   8.856   1.719
53596W        W25922  20.110  42.861   5.451
53597W        W25923   4.431   2.355  13.898
53598W        W25924  38.583  16.291  11.620
53599W        W25925  35.480   3.098  14.996
53600W        W25926   3.214  37.230   2.276
53601W        W25927  42.032  34.597   3.303
53602W        W25928   3.172   4.716  10.424
53603W        W25929   2.074  20.451  14.487
53604W        W25930   7.777   4.679   2.196
53605W        W25931   5.701  38.871  11.084
53606W        W25932   1.783  27.718   4.935
53607W        W25933   7.413  33.144   2.163
53608W        W25934  29.997  25.932  11.540
53609W        W25935  17.057   5.437  14.530
53610W        W25936  12.217   0.592  14.444
53611W        W25937  23.686  24.046  11.388
53612W        W25938  43.892   0.267   3.626
53613W        W25939  11.709  28.500  13.471
53614W        W25940  40.769  33.138  13.530
53615W        W25941  28.339   3.729   0.077
53616W        W25942  28.661  13.281   4.135
53617W        W25943  19.106  34.331  13.052
53618W        W25944  33.532   0.065  13.947
53619W        W25945  28.187   4.813  11.662
53620W        W25946  33.703   5.437  10.843
53621W        W25947  18.787  13.066   0.938
53622W        W25948  38.015   9.198   0.645
53623W        W25949  22.235   8.172   3.335
53624W        W25950  36.767  36.637   3.665
53625W        W25951  36.045   7.759   3.678
53626W        W25952   3.226  23.158  13.747
53627W        W25953  31.038  43.899  10.643
53628W        W25954   1.682  15.846   3.813
53629W        W25955   0.450  19.492  10.620
53630W        W25956  23.269  12.772  12.531
53631W        W25957  36.450  33.121  14.739
53632W        W25958   6.340  21.696  14.257
53633W        W25959  31.875  24.286  12.010
53634W        W25960  36.961  31.625  11.992
53635W        W25961  22.501  43.889  11.705
53636W        W25962  28.594   4.152  14.945
53637W        W25963  12.014  33.315   1.094
53638W        W25964   2.219  38.384   1.725
53639W        W25965  44.429  34.094  14.389
53640W        W25966  36.208   5.738   4.464
53641W        W25967  36.666  17.521   4.592
53642W        W25968  13.711  32.995   2.106
53643W        W25969   7.352   8.593   1.614
53644W        W25970   0.746  19.883  12.547
53645W        W25971  38.943   0.771  13.511
53646W        W25972   0.048  14.844   0.021
53647W        W25973  36.089  14.091   2.839
53648W        W25974  11.339  39.989   0.334
53649W        W25975   9.734   3.876   3.707
53650W        W25976  15.757  26.101  12.910
53651W        W25977  20.112   3.020  12.959
53652W        W25978   2.474  11.204   3.700
53653W        W25979  27.211  28.495  13.096
53654W        W25980   6.637  39.432  14.996
53655W        W25981  40.080  22.088   4.819
53656W        W25982  27.020  24.482  11.530
53657W        W25983  22.214   6.953  11.581
53658W        W25984   2.686  31.507  14.072
53659W        W25985   7.390   6.860   0.942
53660W        W25986  29.178   8.462   4.583
53661W        W25987  15.868  18.647  12.054
53662W        W25988  10.931  36.354   2.057
53663W        W25989   4.034  44.092   1.405
53664W        W25990  37.346   3.905  12.328
53665W        W25991  30.458  16.818  14.773
53666W        W25992  18.459   2.504   0.953
53667W        W25993  10.321   4.515   4.138
53668W        W25994  25.115  27.181  12.040
53669W        W25995   2.236  27.917   2.199
53670W        W25996  36.085  17.479  12.931
53671W        W25997   1.881   4.997  10.794
53672W        W25998  25.419  18.269  14.344
53673W        W25999  40.547  36.054  11.425
53674W        W26000  26.706  32.449   4.832
53675W        W26001   7.780  41.258   4.519
53676W        W26002  41.428  37.515  11.074
53677W        W26003  43.290  10.102  14.404
53678W        W26004  32.557  10.161  14.837
53679W        W26005   8.222  10.282   0.177
53680W        W26006  37.631  20.035   3.787
53681W        W26007  30.884  24.144  12.036
53682W        W26008   6.497  38.004   1.756
53683W        W26009   2.968  14.402   3.316
53684W        W26010  35.391  17.049   3.665
53685W        W26011  22.944  21.584  14.744
53686W        W26012  23.599  29.720  12.599
53687W        W26013  12.185  33.932   4.572
53688W        W26014  21.175  33.731  13.401
53689W        W26015  30.359  25.127  11.874
53690W        W26016  41.123  21.615  13.281
53691W        W26017  18.116  43.815  10.555
53692W        W26018   7.844  36.666   0.820
53693W        W26019  18.456  13.107   3.456
53694W        W26020  27.868   9.707   3.208
53695W        W26021   3.279   8.576  11.207
53696W        W26022   8.678  15.582   2.164
53697W        W26023  22.004  39.023  14.674
53698W        W26024  29.087  17.492  11.966
53699W        W26025  43.978  14.237  11.437
53700W        W26026  32.701  17.761   4.210
53701W        W26027  34.447  29.954   4.642
53702W        W26028  19.521   2.253   1.421
53703W        W26029  20.219   3.339   1.665
53704W        W26030  14.270   7.159   0.508
53705W        W26031   1.784  37.790  13.801
53706W        W26032  23.252   8.634   0.934
53707W        W26033  36.279   5.401   2.752
53708W        W26034  15.602  30.508  13.891
53709W        W26035  42.354  22.566   2.641
53710W        W26036  11.639  21.180   3.494
53711W        W26037  27.565  23.104  10.526
53712W        W26038  26.413  17.714   1.736
53713W        W26039  27.967  36.242   2.769
53714W        W26040  23.987  12.805  11.853
53715W        W26041  34.584  31.193   0.803
53716W        W26042   4.268   9.716  13.363
53717W        W26043  11.265   5.012   4.724
53718W        W26044  21.442  24.512   0.432
53719W        W26045   6.730   0.466  10.467
53720W        W26046  16.839  16.576   3.638
53721W        W26047   9.032   3.830   2.347
53722W        W26048  25.725  42.595  11.381
53723W        W26049  31.915  21.215   3.398
53724W        W26050  39.838  37.993   4.458
53725W        W26051  13.735   0.395   1.345
53726W        W26052  14.012   6.636   4.221
53727W        W26053  11.182  21.323   0.372
53728W        W26054  35.606  25.699   4.552
53729W        W26055  31.403  35.710  12.186
53730W        W26056  44.758   5.951   2.375
53731W        W26057  28.557  13.173   0.209
53732W        W26058  22.950  20.623   4.457
53733W        W26059  40.342  26.737   3.261
53734W        W26060  34.199  17.170   1.952
53735W        W26061   7.360  10.405   4.212
53736W        W26062  44.264  37.577   3.773
53737W        W26063   9.841  35.985   0.385
53738W        W26064  18.671  36.424   0.402
53739W        W26065   5.250  31.780   1.125
53740W        W26066  25.660  26.569  10.705
53741W        W26067  11.596  16.011   0.726
53742W        W26068  42.862  20.800  11.605
53743W        W26069  28.861  20.447  12.126
53744W        W26070  15.846  13.040  12.587
53745W        W26071   4.591   5.681   2.012
53746W        W26072   7.930   4.856   3.668
53747W        W26073   3.474   8.842  11.616
53748W        W26074  28.115  29.869  13.339
53749W        W26075  27.525  30.224   3.126
53750W        W26076  26.624  39.387  11.856
53751W        W26077  26.160  32.479  14.728
53752W        W26078  43.257  36.454   0.811
53753W        W26079  19.378  15.282  11.032
53754W        W26080  13.139  17.525  13.902
53755W        W26081   2.434  33.224   0.841
53756W        W26082  24.744  34.377  11.486
53757W        W26083  16.807  10.042  10.696
53758W        W26084   8.484  15.401  14.949
53759W        W26085   7.746  37.553   1.027
53760W        W26086  36.102  19.808   1.721
53761W        W26087   3.862  41.103   0.380
53762W        W26088  32.404   1.218   4.691
53763W        W26089  19.252  14.722  10.660
53764W        W26090  42.913   2.832  13.009
53765W        W26091  16.819  11.867  11.546
53766W        W26092  36.596   2.454   1.892
53767W        W26093  29.958  28.460   2.578
53768W        W26094   5.788  18.276   3.329
53769W        W26095  20.615  37.817  13.518
53770W        W26096  29.440  23.765  11.910
53771W        W26097  17.337  24.958   2.664
53772W        W26098   4.807  30.376   3.651
53773W        W26099   1.653  15.538   4.602
53774W        W26100   4.431  28.416  14.037
53775W        W26101   1.260   8.557  13.596
53776W        W26102  11.862  27.420   4.201
53777W        W26103  16.200  23.468  13.047
53778W        W26104  15.187  24.116   2.197
53779W        W26105  18.328  11.670  12.331
53780W        W26106   3.430   0.022   1.697
53781W        W26107   0.902   6.247  14.433
53782W        W26108  10.526  22.483   4.924
53783W        W26109  32.694   9.725  13.982
53784W        W26110  40.359   6.381  10.197
53785W        W26111   4.462  42.026   1.243
53786W        W26112  35.578  36.842   2.291
53787W        W26113   0.462   1.420   5.457
53788W        W26114   9.264  15.362   0.461
53789W        W26115   9.449  21.028   0.925
53790W        W26116  35.596  12.784  11.606
53791W        W26117  39.080  27.202   2.222
53792W        W26118  29.949   2.949   1.773
53793W        W26119  33.856  20.527   3.688
53794W        W26120  29.905   4.386   0.019
53795W        W26121  22.620  25.265   0.453
53796W        W26122  19.512  32.051  10.695
53797W        W26123  34.143  23.327   5.040
53798W        W26124   4.015  33.152   2.796
53799W        W26125  14.329  37.538  14.023
53800W        W26126  11.642  32.562   4.449
53801W        W26127  28.970  17.777   1.859
53802W        W26128  21.963  10.813   2.209
53803W        W26129  24.312  23.469  12.503
53804W        W26130  39.071  13.414   0.230
53805W        W26131  32.028  41.449   0.849
53806W        W26132  20.190  14.949  11.664
53807W        W26133  41.489   9.627  14.091
53808W        W26134  40.425  22.813   3.323
53809W        W26135  42.019  32.649   1.419
53810W        W26136   4.559  34.291   0.730
53811W        W26137  28.912  28.971   5.591
53812W        W26138  13.821  38.673  13.337
53813W        W26139  33.591  18.206  13.571
53814W        W26140   6.322  43.432  11.472
53815W        W26141   2.676  43.967   2.339
53816W        W26142  29.081  10.133   2.275
53817W        W26143   1.918   2.938   1.875
53818W        W26144  39.598   7.764  12.471
53819W        W26145  10.866  26.907  11.384
53820W        W26146  14.639  26.537  10.674
53821W        W26147  28.975  23.492   0.551
53822W        W26148  41.210  34.889  12.531
53823W        W26149  42.285  23.597   0.291
53824W        W26150  14.383  43.303  13.581
53825W        W26151  31.422  33.608   1.243
53826W        W26152  13.327  33.101   4.339
53827W        W26153  41.542  31.458   1.175
53828W        W26154   2.441   1.042  11.179
53829W        W26155  30.692  32.855  14.598
53830W        W26156  41.838  19.197   3.722
53831W        W26157  34.202  40.872   0.730
53832W        W26158  34.810  13.565   0.881
53833W        W26159   7.418   5.458   1.796
53834W        W26160  16.472  40.968   1.301
53835W        W26161  19.172  11.243  12.986
53836W        W26162  13.422  37.217   5.477
53837W        W26163   3.436  28.419  13.024
53838W        W26164  21.010   4.546  12.828
53839W        W26165  42.473  22.706  12.423
53840W        W26166  28.074  23.145   1.927
53841W        W26167  10.004  36.390   4.605
53842W        W26168  21.978  36.551  11.162
53843W        W26169  44.832  33.801   4.700
53844W        W26170  42.626  43.038  10.692
53845W        W26171   6.236  37.099   0.523
53846W        W26172  38.614  34.094  13.505
53847W        W26173  30.112   1.315   3.291
53848W        W26174   1.913   3.733  11.387
53849W        W26175  13.389   8.548  13.753
53850W        W26176  32.501  11.728   3.792
53851W        W26177   9.634  18.724   2.195
53852W        W26178  39.790  22.790  12.003
53853W        W26179   0.427  17.798   3.718
53854W        W26180  10.932  15.276  14.893
53855W        W26181   6.093  33.404  13.383
53856W        W26182  14.163   7.897   1.266
53857W        W26183   2.541  38.041   3.164
53858W        W26184  43.536  38.116  12.050
53859W        W26185  41.389  13.071  14.394
53860W        W26186   1.549  18.060  13.964
53861W        W26187  37.838   3.949  12.184
53862W        W26188  14.066  10.212  13.243
53863W        W26189   4.260   8.170  10.749
53864W        W26190  10.867  11.783   1.325
53865W        W26191   4.357   6.835   3.395
53866W        W26192  44.220  13.624   1.364
53867W        W26193  33.192  26.082   1.977
53868W        W26194   5.840  25.176  12.594
53869W        W26195  38.793   0.742  14.659
53870W        W26196   6.664   5.409   1.398
53871W        W26197  11.462  39.439  11.602
53872W        W26198   5.921   9.027   4.474
53873W        W26199  25.578   4.963  11.441
53874W        W26200   3.219  22.705  14.021
53875W        W26201  42.222   2.870   1.278
53876W        W26202   6.646  22.759  10.888
53877W        W26203  33.941  41.166   3.947
53878W        W26204  20.184  34.896  12.520
53879W        W26205  14.315  40.412   1.068
53880W        W26206   6.206  11.569   0.201
53881W        W26207   6.448  34.996   2.627
53882W        W26208  36.431  27.532   0.916
53883W        W26209  17.297  24.181  10.238
53884W        W26210  24.168  12.806   0.467
53885W        W26211  31.345   1.297  14.023
53886W        W26212  34.918  21.071  12.836
53887W        W26213  15.799  37.332  11.292
53888W        W26214   3.775  43.289  11.051
53889W        W26215  42.060   3.469   1.302
53890W        W26216   5.388  32.693  14.798
53891W        W26217  11.253  37.334   0.027
53892W        W26218   1.291   2.715  14.425
53893W        W26219  38.059  23.208  10.655
53894W        W26220  34.410   5.851  13.598
53895W        W26221  11.872   0.861   4.107
53896W        W26222  15.721  14.818  13.883
53897W        W26223  30.911  40.909   0.961
53898W        W26224   8.782  29.952   3.393
53899W        W26225   0.864   1.953  11.881
53900W        W26226   2.722  36.057  11.991
53901W        W26227   1.342  41.495  14.315
53902W        W26228   3.020  35.834  10.684
53903W        W26229   7.306  24.385  11.132
53904W        W26230  30.214  18.047   4.065
53905W        W26231   1.393  40.043  13.065
53906W        W26232   9.827  33.882   1.759
53907W        W26233  30.970   6.593  12.419
53908W        W26234  27.309  31.801  13.869
53909W        W26235  16.473   1.418  14.434
53910W        W26236  20.986  11.291  11.507
53911W        W26237   3.227   9.378   0.699
53912W        W26238  22.321   4.602  10.849
53913W        W26239  14.752  17.193   4.080
53914W        W26240  25.185  37.892  11.874
53915W        W26241   1.480  44.552   3.344
53916W        W26242   7.418   2.316   1.744
53917W        W26243  32.910  28.619  13.801
53918W        W26244  33.339  40.506  12.896
53919W        W26245  28.452  23.603   2.395
53920W        W26246   9.643   1.509   0.886
53921W        W26247   7.512  36.125  12.097
53922W        W26248  12.909  22.571   1.804
53923W        W26249  30.955  29.538  14.327
53924W        W26250  25.076  33.545   2.270
53925W        W26251  29.027  28.169   1.394
53926W        W26252  36.589  38.960   0.433
53927W        W26253   3.002  25.221   4.574
53928W        W26254  14.154  26.661   0.389
53929W        W26255  11.673  32.054  14.938
53930W        W26256  23.516  21.028   4.110
53931W        W26257  19.997  17.570   0.483
53932W        W26258  15.058   5.749  11.493
53933W        W26259  40.073  28.422  13.943
53934W        W26260   9.893  39.775   4.663
53935W        W26261  37.143  38.562  11.174
53936W        W26262  34.097  39.360   2.845
53937W        W26263  39.487   8.249   2.315
53938W        W26264  15.614  39.971  11.089
53939W        W26265   6.002  40.974  14.365
53940W        W26266  43.776  34.946  11.108
53941W        W26267   2.964   0.458  14.930
53942W        W26268  43.511  23.237  11.823
53943W        W26269   8.388  25.658  10.604
53944W        W26270  37.185  24.716   0.321
53945W        W26271  29.353   3.458   0.915
53946W        W26272  29.413  24.203  13.022
53947W        W26273  27.841  24.201   4.907
53948W        W26274  26.901  10.179  11.223
53949W        W26275  30.656  27.618  12.912
53950W        W26276  32.573  19.780   4.631
53951W        W26277  37.849   4.834  12.002
53952W        W26278  26.245   5.325  10.786
53953W        W26279  32.531   6.190   1.241
53954W        W26280  18.118   7.382   3.292
53955W        W26281  39.062  16.739   3.300
53956W        W26282   2.238   3.464   0.309
53957W        W26283  17.048  43.280   1.429
53958W        W26284   0.045  13.319   1.882
53959W        W26285   7.302  14.074  13.040
53960W        W26286  35.426  13.313  13.781
53961W        W26287  42.474  37.437   3.790
53962W        W26288  44.351  19.562   0.210
53963W        W26289  11.736  12.138   2.787
53964W        W26290   1.314   2.769   0.298
53965W        W26291   1.678  35.995   0.959
53966W        W26292  30.845  25.235  10.988
53967W        W26293  33.918  25.659   1.271
53968W        W26294  31.616  24.200  10.781
53969W        W26295  10.832   2.984  14.423
53970W        W26296  39.317   9.717   4.153
53971W        W26297  43.926  26.171  13.489
53972W        W26298   5.329   0.530  11.597
53973W        W26299  12.382  32.054   3.663
53974W        W26300  24.709  22.616  12.789
53975W        W26301  21.531  42.871  11.070
53976W        W26302  13.158  29.589  14.506
53977W        W26303  13.585  33.459   2.333
53978W        W26304  25.222  24.613   3.731
53979W        W26305  34.541   0.508   2.621
53980W        W26306  37.313   8.497  14.302
53981W        W26307  29.102  30.958  12.998
53982W        W26308  18.459  19.772  11.670
53983W        W26309   5.665  21.746   1.985
53984W        W26310  20.016  18.771   3.088
53985W        W26311  40.490  35.838  12.381
53986W        W26312  10.733  26.120   1.845
53987W        W26313  34.139   2.173   2.830
53988W        W26314  11.800   7.425  14.368
53989W        W26315  37.989  22.543   1.241
53990W        W26316   1.489  41.533   4.257
53991W        W26317  28.937  23.946   2.542
53992W        W26318  10.307  41.331  10.724
53993W        W26319  31.394  30.157   0.829
53994W        W26320  13.919  42.542   4.767
53995W        W26321  24.024   3.751   4.271
53996W        W26322  41.300  11.040   0.446
53997W        W26323  39.267  13.918  10.609
53998W        W26324  43.828  16.174   1.541
53999W        W26325  44.383   8.457  11.506
54000W        W26326  15.202   2.223   4.320
54001W        W26327  15.268  34.349   4.638
54002W        W26328  33.736  43.476  12.067
54003W        W26329  42.856   9.582   4.680
54004W        W26330  36.819  19.745  12.682
54005W        W26331  31.531   5.656  13.733
54006W        W26332  29.843  25.037  10.619
54007W        W26333  41.871   8.884   3.290
54008W        W26334  16.694  10.229  12.643
54009W        W26335   5.284  14.687  14.366
54010W        W26336  28.249   4.654   5.032
54011W        W26337   0.943  16.237  14.906
54012W        W26338  12.890  23.495   2.659
54013W        W26339  19.139  43.127  13.709
54014W        W26340  43.890   1.349  11.161
54015W        W26341  19.740   4.907   3.365
54016W        W26342   9.796  19.245   1.190
54017W        W26343  41.869  24.262   1.853
54018W        W26344  31.135  31.447  12.597
54019W        W26345  25.284   3.343  12.633
54020W        W26346   6.822   8.611  14.825
54021W        W26347   1.972  15.161   1.376
54022W        W26348  18.555  37.777  11.660
54023W        W26349  34.052  38.505  10.546
54024W        W26350  31.662  44.538  13.925
54025W        W26351  24.024  21.705   4.460
54026W        W26352  16.568   3.915   0.806
54027W        W26353  17.640  25.654   0.699
54028W        W26354  22.283  26.623   0.439
54029W        W26355  43.325  19.593  11.035
54030W        W26356   5.516  34.910   2.551
54031W        W26357  22.751   2.948   2.657
54032W        W26358  36.606  35.861   4.657
54033W        W26359  14.274  13.904  12.891
54034W        W26360  37.352  37.933  13.134
54035W        W26361   8.855  22.034   1.547
54036W        W26362  37.331  37.389   2.293
54037W        W26363  29.975   6.258  12.464
54038W        W26364  11.447  37.552   2.268
54039W        W26365  12.296  25.583  10.572
54040W        W26366  20.809  41.245  11.045
54041W        W26367   6.349  29.664   2.399
54042W        W26368  25.384  41.967  12.048
54043W        W26369  37.542  20.706  12.122
54044W        W26370  39.378  24.312  14.008
54045W        W26371  24.675  38.161   1.673
54046W        W26372  33.394   9.583  14.506
54047W        W26373  20.731  43.519   0.667
54048W        W26374  40.178   8.265  13.454
54049W        W26375  26.784   6.765  14.537
54050W        W26376  25.477  30.212  12.384
54051W        W26377  22.539  30.600   4.596
54052W        W26378  41.025  10.613   4.685
54053W        W26379  17.277  28.882  13.532
54054W        W26380  35.596  31.967   2.185
54055W        W26381   6.651   7.095  12.533
54056W        W26382  36.622  38.872  12.005
54057W        W26383  40.974  30.592  14.506
54058W        W26384  13.206   1.247   3.261
54059W        W26385  16.770  41.806  12.090
54060W        W26386  33.603  11.727   1.691
54061W        W26387  24.696  27.105   0.282
54062W        W26388  35.604  17.673  13.100
54063W        W26389  10.862   8.806   2.758
54064W        W26390  20.777  38.789   1.236
54065W        W26391   0.233   6.451   0.290
54066W        W26392  42.003   4.514   4.617
54067W        W26393  27.888  10.647  12.576
54068W        W26394   1.762  22.588  14.883
54069W        W26395   6.422  13.660   0.168
54070W        W26396  44.090  28.141  10.994
54071W        W26397  16.603  25.401  11.539
54072W        W26398  11.803   0.438   0.282
54073W        W26399  34.286  34.639   0.659
54074W        W26400   1.858  12.754   2.848
54075W        W26401  36.484   0.339   4.307
54076W        W26402  37.932   0.836  12.562
54077W        W26403   9.298   7.226  12.863
54078W        W26404  34.477  18.310   4.666
54079W        W26405  14.777  16.475   1.924
54080W        W26406   7.428  33.476   1.724
54081W        W26407  16.831   1.246  12.526
54082W        W26408  41.604  12.169  13.435
54083W        W26409  16.945  25.643   3.566
54084W        W26410  39.145   7.797   1.303
54085W        W26411  32.419  14.735   1.773
54086W        W26412  29.994  28.556  14.279
54087W        W26413  10.855   6.420   3.820
54088W        W26414  15.712   5.223   0.078
54089W        W26415   8.200  16.055  11.611
54090W        W26416  17.202  32.131  14.065
54091W        W26417  21.112   8.448  10.391
54092W        W26418  33.807   4.542  13.684
54093W        W26419  13.434   2.944   4.358
54094W        W26420  38.450  15.567  12.836
54095W        W26421  20.600  29.686   2.719
54096W        W26422  38.340   9.158  14.651
54097W        W26423  18.281  16.941  10.698
54098W        W26424  36.158  17.480   4.063
54099W        W26425   6.815  29.593  13.897
54100W        W26426  44.897  29.021   4.837
54101W        W26427  27.944  44.401   1.288
54102W        W26428  16.807  10.211   4.713
54103W        W26429   2.401  23.434  13.033
54104W        W26430  24.940  25.990   2.295
54105W        W26431  29.928  28.009  14.119
54106W        W26432  41.388  12.293   0.784
54107W        W26433  14.286  19.770  10.293
54108W        W26434  30.357  17.921  11.595
54109W        W26435  35.619  12.494   1.839
54110W        W26436  10.140  34.987   0.310
54111W        W26437  38.881  41.863   5.004
54112W        W26438  21.922  42.679   4.182
54113W        W26439   7.531  39.049  14.418
54114W        W26440  10.668  20.474   3.283
54115W        W26441  28.931  39.077   1.710
54116W        W26442  42.859  19.622   4.839
54117W        W26443   1.269  10.752  10.492
54118W        W26444  36.027  18.259  13.533
54119W        W26445  23.609  37.863   1.232
54120W        W26446  20.455  15.097  13.448
54121W        W26447  17.274   5.927  10.343
54122W        W26448  15.274   8.084  14.313
54123W        W26449   4.724  20.234   3.673
54124W        W26450  24.997   0.328  12.527
54125W        W26451  14.300   2.287  11.524
54126W        W26452   1.982  35.300   0.042
54127W        W26453  19.588  44.321  11.497
54128W        W26454  12.644   9.305   1.931
54129W        W26455  36.252  10.491   4.330
54130W        W26456  23.723  30.428   1.955
54131W        W26457  32.188  24.074  13.990
54132W        W26458  24.835  40.314   5.139
54133W        W26459  27.766  28.756   3.316
54134W        W26460  28.018  43.151  12.384
54135W        W26461  34.963  31.838  11.403
54136W        W26462  12.317  31.594   2.204
54137W        W26463  33.848  18.162  13.111
54138W        W26464   8.093  13.560   2.298
54139W        W26465   1.774  17.128  12.010
54140W        W26466  26.954  23.427   4.510
54141W        W26467   4.168  11.197  12.477
54142W        W26468  28.169  41.741   1.450
54143W        W26469  35.532  10.680  14.460
54144W        W26470   6.745  29.605  14.891
54145W        W26471  10.934  13.290  12.560
54146W        W26472   9.342  37.898  14.957
54147W        W26473  34.515  15.854  13.777
54148W        W26474  24.081  31.358  13.982
54149W        W26475  15.621  28.437   2.376
54150W        W26476   9.174  20.846   2.290
54151W        W26477  11.990  10.177  14.536
54152W        W26478  13.668  43.777  11.115
54153W        W26479   7.886  10.876   4.562
54154W        W26480  42.238  28.321   2.321
54155W        W26481  26.078  32.766  11.069
54156W        W26482  16.352  37.448   2.175
54157W        W26483  27.611  37.671  13.024
54158W        W26484  35.082  41.917  12.607
54159W        W26485   4.527  11.653   2.430
54160W        W26486  15.594  32.082  14.407
54161W        W26487  31.843   4.803  13.572
54162W        W26488  18.586  32.479   1.852
54163W        W26489  35.940  28.470  12.862
54164W        W26490   9.260  36.559   1.930
54165W        W26491  17.655  11.273  11.606
54166W        W26492  11.889  23.559  11.623
54167W        W26493  15.219  42.304  12.811
54168W        W26494   7.323  16.057  12.836
54169W        W26495   5.712   4.857   0.552
54170W        W26496  27.467   5.218   4.119
54171W        W26497  16.196   8.912   4.503
54172W        W26498  20.045  39.258   4.920
54173W        W26499  35.395  37.843  13.985
54174W        W26500  33.372  19.550   1.823
54175W        W26501  11.657  31.934  12.685
54176W        W26502   6.346   4.814   4.591
54177W        W26503  22.182  35.423  14.031
54178W        W26504  21.166  38.296   1.254
54179W        W26505  20.851  17.036  14.862
54180W        W26506   5.452  10.376  14.826
54181W        W26507  22.991  12.842  12.976
54182W        W26508   6.771  43.578   4.154
54183W        W26509  25.993  41.330  14.965
54184W        W26510  30.999  20.747   3.823
54185W        W26511   6.693  41.392  14.894
54186W        W26512  17.175  29.768   2.602
54187W        W26513  29.699  17.980   2.839
54188W        W26514  18.552   1.484  10.658
54189W        W26515  42.351  21.647   2.969
54190W        W26516   1.011  36.028   3.343
54191W        W26517  28.590  42.264  14.877
54192W        W26518  38.064  23.199   1.982
54193W        W26519  32.070  28.865  10.971
54194W        W26520  13.467   0.758  12.564
54195W        W26521   0.053  14.868   0.901
54196W        W26522  28.961   5.368   3.328
54197W        W26523   4.796  14.792   0.345
54198W        W26524   8.869  26.327  13.361
54199W        W26525  27.814  41.214   0.437
54200W        W26526   2.093   0.364  13.319
54201W        W26527   4.808  25.314   2.155
54202W        W26528   2.933  16.145  11.277
54203W        W26529  19.652  26.518   0.228
54204W        W26530  13.033   9.557  11.956
54205W        W26531  16.364  31.571  11.528
54206W        W26532  15.248  21.069  12.415
54207W        W26533   1.634   9.024   5.181
54208W        W26534  21.517  21.724   0.918
54209W        W26535   7.972  24.213   1.811
54210W        W26536   6.096  25.822  11.181
54211W        W26537  31.830  43.901  12.032
54212W        W26538  31.867  27.716   4.813
54213W        W26539   3.724  24.277  13.403
54214W        W26540  38.327  30.949   0.519
54215W        W26541  18.757  17.243   0.343
54216W        W26542  30.645  23.126  11.512
54217W        W26543  25.905  15.788  13.894
54218W        W26544  36.590   4.422  12.136
54219W        W26545  29.599  17.616   4.068
54220W        W26546  43.693  33.040  14.130
54221W        W26547  40.545  23.016   2.843
54222W        W26548  30.881  13.192   2.222
54223W        W26549  17.801  44.890   1.673
54224W        W26550  13.375  18.218   0.868
54225W        W26551   7.191   7.151  11.831
54226W        W26552  44.223  34.151  11.342
54227W        W26553  44.923  24.653   2.822
54228W        W26554  17.281  16.808   3.815
54229W        W26555   7.146  14.731   2.714
54230W        W26556  15.521  30.891   0.723
54231W        W26557  24.370  36.759   4.199
54232W        W26558   8.678  21.268  14.325
54233W        W26559  23.517  11.702   0.471
54234W        W26560  44.748   2.780   3.563
54235W        W26561  35.995  29.922  10.970
54236W        W26562   0.947  10.443   5.537
54237W        W26563   9.868  18.203   4.613
54238W        W26564  42.426   6.720  11.678
54239W        W26565  42.758   3.847  10.928
54240W        W26566   6.095  29.975  14.575
54241W        W26567  18.553  16.637   2.837
54242W        W26568   4.314  37.541   4.362
54243W        W26569  29.694   3.927   1.781
54244W        W26570  42.690  21.926  11.003
54245W        W26571  44.423  33.608   3.179
54246W        W26572  15.173  44.937  12.885
54247W        W26573  36.776   2.300  12.438
54248W        W26574  19.949  18.647   2.078
54249W        W26575  17.807   7.321   2.901
54250W        W26576  26.767  26.388   2.370
54251W        W26577   0.519   5.333  10.931
54252W        W26578   8.234  12.930   3.336
54253W        W26579  33.435  36.110  12.984
54254W        W26580  40.371  13.845  14.063
54255W        W26581  12.861  20.163  14.050
54256W        W26582  23.500  27.948   1.766
54257W        W26583  22.631   1.558   2.667
54258W        W26584  19.428   6.292  12.559
54259W        W26585  41.301  33.973   2.236
54260W        W26586  14.552  44.372  12.840
54261W        W26587  41.419  23.210   4.678
54262W        W26588  27.632   1.423   1.268
54263W        W26589   1.741  19.605  12.426
54264W        W26590  36.543  17.566  14.326
54265W        W26591  38.435  21.780   1.320
54266W        W26592  24.521   2.911  14.765
54267W        W26593  28.126  35.172   4.156
54268W        W26594  44.349  39.974  11.156
54269W        W26595  12.846  15.307  10.746
54270W        W26596  17.280  14.830   2.147
54271W        W26597   6.010  26.033  13.402
54272W        W26598  28.560  10.915   0.497
54273W        W26599  30.625   0.706  13.106
54274W        W26600  16.729  33.390  12.421
54275W        W26601  18.308  33.909  11.161
54276W        W26602  28.681  21.299  12.391
54277W        W26603  17.721  21.452  10.583
54278W        W26604  19.337  12.112  11.611
54279W        W26605  42.791  18.269   3.068
54280W        W26606  21.167  26.690   0.049
54281W        W26607  24.738  21.940  11.529
54282W        W26608   1.154   0.398  12.407
54283W        W26609   9.829   1.965  12.114
54284W        W26610  43.056  33.535  12.375
54285W        W26611  35.284  40.491   1.356
54286W        W26612  17.185  21.608   0.419
54287W        W26613  20.759   9.946   1.015
54288W        W26614  12.295  13.526  11.447
54289W        W26615  16.565  18.580  13.756
54290W        W26616   8.051  20.698  12.951
54291W        W26617  30.841  12.441  11.497
54292W        W26618  35.374  33.163   5.495
54293W        W26619  13.671  32.526   3.861
54294W        W26620  21.541  22.006   0.492
54295W        W26621  34.343  37.100   4.594
54296W        W26622  12.891  34.145  14.415
54297W        W26623   0.770   6.676   3.102
54298W        W26624   5.399  26.031   2.306
54299W        W26625  25.453   7.361  10.816
54300W        W26626  11.608  15.796  11.503
54301W        W26627  21.069  36.651   0.309
54302W        W26628  31.175  19.717   3.908
54303W        W26629  27.477   0.688  13.810
54304W        W26630  37.279   2.732   2.378
54305W        W26631  17.018  28.664   4.012
54306W        W26632  29.991  30.329  11.644
54307W        W26633   0.920  15.672   3.280
54308W        W26634  41.118  28.281  13.066
54309W        W26635  25.716  10.879   4.852
54310W        W26636  34.960  11.148   4.582
54311W        W26637  31.214  29.962  14.530
54312W        W26638  25.461  43.229  10.645
54313W        W26639  43.952  38.307   3.254
54314W        W26640  17.691  10.144   4.706
54315W        W26641  41.965  15.292   2.679
54316W        W26642   6.811  37.625  13.957
54317W        W26643  34.904  35.592   4.029
54318W        W26644  14.544  23.955  12.377
54319W        W26645   8.873  26.955  12.936
54320W        W26646  17.713   2.883   2.451
54321W        W26647  10.862  17.416  11.108
54322W        W26648  43.751  41.062  14.516
54323W        W26649  30.218   0.895   0.938
54324W        W26650  36.315  30.022  11.632
54325W        W26651  20.130  28.584   1.383
54326W        W26652  41.013   9.708  11.041
54327W        W26653  37.026  17.119  10.677
54328W        W26654  40.527  35.462   2.170
54329W        W26655  42.250  17.602   3.385
54330W        W26656  17.763  39.646   3.833
54331W        W26657   4.031  39.022  14.316
54332W        W26658  37.579   6.421   2.899
54333W        W26659  36.152  13.094  12.422
54334W        W26660  25.744  27.663  14.199
54335W        W26661  26.692  26.254  13.845
54336W        W26662  18.427  37.346   3.801
54337W        W26663   6.605  13.195  12.552
54338W        W26664  27.145  20.931   3.885
54339W        W26665   2.124  17.767  14.808
54340W        W26666  16.522  13.241   3.531
54341W        W26667  21.957   7.820  10.561
54342W        W26668  28.128   0.721   0.851
54343W        W26669  28.949  42.321  13.771
54344W        W26670  30.894  33.050   1.831
54345W        W26671  44.256  15.769   1.728
54346W        W26672  34.610  21.223   1.205
54347W        W26673  24.134  42.066   3.746
54348W        W26674  31.677  15.375  11.549
54349W        W26675  37.120   5.801   2.612
54350W        W26676  14.113  15.503   2.400
54351W        W26677  19.673   7.620  12.623
54352W        W26678  35.428  23.781   4.738
54353W        W26679  23.241   3.239   4.299
54354W        W26680  33.246  32.653  14.824
54355W        W26681  14.670  43.233  14.875
54356W        W26682  42.733  11.244  14.748
54357W        W26683   5.837  24.484   2.778
54358W        W26684  37.545   2.269  13.947
54359W        W26685  12.585  38.186   1.497
54360W        W26686   9.624  10.714  12.536
54361W        W26687   3.702  18.113  11.717
54362W        W26688  42.946  37.508  11.262
54363W        W26689  28.684  16.253  14.780
54364W        W26690   9.999  26.205  12.054
54365W        W26691   9.659   4.460   2.682
54366W        W26692  14.153   4.555   0.679
54367W        W26693   2.345   7.738   1.032
54368W        W26694  41.976  42.099  13.219
54369W        W26695  16.095  41.818  13.058
54370W        W26696  21.516  32.078   4.091
54371W        W26697  40.951   8.401  14.511
54372W        W26698  29.500  24.689   3.302
54373W        W26699  23.480   5.563   3.714
54374W        W26700   3.403   4.039   3.662
54375W        W26701  44.047   1.024   4.721
54376W        W26702  29.591   9.091  12.592
54377W        W26703  21.132  21.965   4.894
54378W        W26704  19.640  42.292   3.917
54379W        W26705  37.548  23.981   0.260
54380W        W26706  39.881  25.133   2.815
54381W        W26707  33.690  33.435   2.495
54382W        W26708  10.855  36.611  14.559
54383W        W26709  15.599  29.469   4.539
54384W        W26710  39.378   9.347  13.087
54385W        W26711  21.047  23.609   3.095
54386W        W26712  16.774  16.567  12.370
54387W        W26713  33.858   5.961   0.948
54388W        W26714  28.832  34.400   4.462
54389W        W26715  25.999  44.949  11.970
54390W        W26716  27.489   4.333  11.010
54391W        W26717  27.615  30.682  14.235
54392W        W26718  10.167   4.204  14.339
54393W        W26719  22.588  26.587  12.621
54394W        W26720  40.950   0.644  11.949
54395W        W26721  14.396  16.335  14.387
54396W        W26722  44.248  35.607  14.599
54397W        W26723  43.803  10.894  14.435
54398W        W26724  13.371   7.863  11.049
54399W        W26725  16.279  13.377   0.309
54400W        W26726  37.142  44.134  14.457
54401W        W26727  21.623  40.593   3.917
54402W        W26728  43.784  39.827  13.957
54403W        W26729  44.034  43.102   1.406
54404W        W26730  18.354  12.174  13.470
54405W        W26731  26.691  25.087   4.173
54406W        W26732   5.147  36.172   5.016
54407W        W26733  33.058  20.219  10.547
54408W        W26734  28.953   3.394  12.103
54409W        W26735  21.702  44.539  14.820
54410W        W26736   9.335  22.204   1.764
54411W        W26737   0.958  44.136  14.865
54412W        W26738  26.495  28.544  14.855
54413W        W26739   9.963  40.513   1.805
54414W        W26740  12.635  34.856  11.372
54415W        W26741  35.895  34.558   3.318
54416W        W26742  43.436  39.771  14.490
54417W        W26743  19.513   5.506  14.925
54418W        W26744   1.598  44.641  10.692
54419W        W26745  29.685  34.559   4.434
54420W        W26746   9.784  37.307  14.464
54421W        W26747  18.032  21.676   1.485
54422W        W26748  29.880   8.616   0.985
54423W        W26749   5.906  34.521  11.724
54424W        W26750  27.074  19.455  13.376
54425W        W26751  18.483   5.796  13.106
54426W        W26752  22.187   7.296  14.720
54427W        W26753  22.693  17.112  12.403
54428W        W26754  41.627   5.805  11.192
54429W        W26755  10.246  44.908  14.687
54430W        W26756  33.528  13.119  14.961
54431W        W26757  13.238  38.142   4.056
54432W        W26758  23.163  40.029   0.077
54433W        W26759  10.388  13.526  14.852
54434W        W26760   5.358  17.139   1.832
54435W        W26761  30.397  40.813   3.165
54436W        W26762  23.736  25.956   2.752
54437W        W26763  31.870  34.574   1.130
54438W        W26764  35.833  17.226  13.326
54439W        W26765  13.612   9.456   1.798
54440W        W26766   5.166  25.845  12.283
54441W        W26767  39.323   9.263   3.854
54442W        W26768  14.075  24.099  14.961
54443W        W26769  11.293   9.991   1.256
54444W        W26770   6.048   1.342   1.412
54445W        W26771   3.424   0.418  11.505
54446W        W26772   8.137  38.916  11.546
54447W        W26773  29.959  42.269  12.657
54448W        W26774  27.986  28.676   2.392
54449W        W26775   7.305  18.744   2.402
54450W        W26776  31.869   8.081   5.042
54451W        W26777   1.041   6.184   1.301
54452W        W26778  44.742  13.220  11.511
54453W        W26779  14.844   8.916   0.573
54454W        W26780  32.649  26.323  14.096
54455W        W26781  43.961  33.158  11.534
54456W        W26782  13.095   1.376   1.277
54457W        W26783   5.447  28.125  12.144
54458W        W26784  12.100  43.401   3.156
54459W        W26785  36.603  26.045   2.177
54460W        W26786  14.844  19.549  12.040
54461W        W26787  22.965  31.589   3.254
54462W        W26788  34.454  36.943  14.052
54463W        W26789   3.833  41.350   2.610
54464W        W26790   5.802  30.171   4.668
54465W        W26791  41.085  21.141  14.485
54466W        W26792   4.766  12.307   4.519
54467W        W26793  30.078  21.038  11.990
54468W        W26794  37.259  33.466   2.894
54469W        W26795  39.625  35.537  12.131
54470W        W26796  14.737  39.567   2.373
54471W        W26797  44.368  35.025  11.215
54472W        W26798   1.423  19.129   4.694
54473W        W26799   0.837  34.372   0.454
54474W        W26800  37.445  22.045   4.244
54475W        W26801  23.994  31.142  13.198
54476W        W26802  14.643  30.170   4.543
54477W        W26803  19.638  43.094  14.390
54478W        W26804  13.668   6.653   4.686
54479W        W26805  30.110  20.044  14.868
54480W        W26806  40.023  12.857   1.762
54481W        W26807  44.951  34.620   4.162
54482W        W26808  43.503   0.733  11.739
54483W        W26809  12.177   8.701  11.461
54484W        W26810  25.400  32.509   1.551
54485W        W26811   0.806  42.440   1.353
54486W        W26812  16.330   9.758   0.249
54487W        W26813  31.700  17.185  14.273
54488W        W26814  19.676  19.741   3.868
54489W        W26815  41.085   8.439   2.812
54490W        W26816  16.564  21.298   4.695
54491W        W26817  19.342  33.356   1.216
54492W        W26818  13.325   9.180  12.151
54493W        W26819   2.777  25.448  13.533
54494W        W26820  29.258  29.504   2.616
54495W        W26821  24.531  12.665   3.534
54496W        W26822  41.756  26.628   2.771
54497W        W26823  44.046   9.465  11.910
54498W        W26824  28.526   1.055   1.545
54499W        W26825  27.070  11.855   2.359
54500W        W26826  36.451  33.259  11.095
54501W        W26827  14.035  31.396  13.898
54502W        W26828  29.523  25.984   9.720
54503W        W26829   1.822  41.587   3.564
54504W        W26830  32.148   7.152   1.851
54505W        W26831  24.880  36.900   4.154
54506W        W26832   5.843  13.223   3.743
54507W        W26833  25.337   1.751  11.570
54508W        W26834  17.122   2.391   3.244
54509W        W26835  29.285  10.851   4.152
54510W        W26836   0.389  27.900  13.231
54511W        W26837  40.062   0.222  10.771
54512W        W26838  36.089  41.949  12.563
54513W        W26839  33.664  26.755  11.198
54514W        W26840  16.103  30.708  12.399
54515W        W26841   0.372  29.476  11.527
54516W        W26842  23.256   6.208  13.358
54517W        W26843  27.491  13.602   3.635
54518W        W26844   4.441  32.994  13.429
54519W        W26845  43.325  18.154  11.087
54520W        W26846   7.919   6.588   3.429
54521W        W26847   7.453   7.421  12.924
54522W        W26848  21.674   7.700  10.990
54523W        W26849  10.724   7.765  13.680
54524W        W26850  23.577  38.010   0.725
54525W        W26851  21.529  30.687   1.443
54526W        W26852   7.513   8.447  11.182
54527W        W26853  23.970  42.310   0.402
54528W        W26854  26.404  31.200  13.361
54529W        W26855  32.571  13.711  13.940
54530W        W26856  42.440  40.389   1.895
54531W        W26857  29.154  20.223   0.981
54532W        W26858  16.155  34.705   1.919
54533W        W26859  14.576  34.103  11.396
54534W        W26860  17.932  33.319   0.430
54535W        W26861  42.857  16.248  13.979
54536W        W26862  26.523  25.550  12.161
54537W        W26863  35.443   7.607  12.134
54538W        W26864   6.153   2.921   1.870
54539W        W26865   6.370  14.060   0.518
54540W        W26866   5.868  26.011  10.595
54541W        W26867  40.112  37.313  11.490
54542W        W26868  39.428   5.323  12.633
54543W        W26869  38.880  43.950   2.650
54544W        W26870  39.912  44.944   1.638
54545W        W26871  11.245  36.586  12.893
54546W        W26872  30.429   1.781  11.336
54547W        W26873  35.338  13.788   0.953
54548W        W26874   0.248  44.321   0.403
54549W        W26875  37.054  15.238   1.188
54550W        W26876   2.485  26.961   1.204
54551W        W26877   3.798  44.469   0.260
54552W        W26878  42.289  24.746   3.831
54553W        W26879  17.348  10.366   1.685
54554W        W26880   3.533  24.020   5.079
54555W        W26881  36.418  32.062   2.782
54556W        W26882  44.426  24.024   2.357
54557W        W26883  27.958   0.860   4.927
54558W        W26884  42.788  16.252   1.697
54559W        W26885  11.908  19.922  11.071
54560W        W26886   4.851  21.352  11.106
54561W        W26887   9.826  10.394  13.976
54562W        W26888  30.542  39.231   1.422
54563W        W26889  25.688  13.065  10.661
54564W        W26890  38.080  40.524  13.461
54565W        W26891  17.097  21.026   2.236
54566W        W26892  25.544  36.313   4.170
54567W        W26893   5.685  42.321  14.968
54568W        W26894   1.405   8.409   4.489
54569W        W26895  42.317  12.661  14.363
54570W        W26896   2.197  24.128   0.939
54571W        W26897  15.844   2.487   0.885
54572W        W26898   5.453  42.591   1.243
54573W        W26899  22.953   2.294  12.453
54574W        W26900   7.281   8.132   2.649
54575W        W26901  13.046  36.078   9.880
54576W        W26902  20.308   5.250   2.166
54577W        W26903  19.685  18.536  12.600
54578W        W26904  26.019  43.996   3.807
54579W        W26905   4.483  12.697  13.574
54580W        W26906  29.488  34.121   4.664
54581W        W26907   7.672  42.730   3.706
54582W        W26908  32.854  39.254  11.066
54583W        W26909  12.658  11.577   0.240
54584W        W26910   8.302  26.281  11.201
54585W        W26911  15.302  43.829   2.729
54586W        W26912  24.727  26.633  14.385
54587W        W26913  28.566  40.942   2.787
54588W        W26914   6.533  43.839  13.135
54589W        W26915  32.548  25.264  10.668
54590W        W26916   1.115   2.001   2.235
54591W        W26917  35.858  32.886   1.290
54592W        W26918  39.414  42.790  11.297
54593W        W26919  34.797  13.444  14.905
54594W        W26920  11.346  15.728   1.164
54595W        W26921  31.561  43.208   1.045
54596W        W26922  10.098  11.343   1.384
54597W        W26923  24.998  43.262   4.866
54598W        W26924  12.157  29.628  14.377
54599W        W26925  23.704  40.124   1.095
54600W        W26926  43.317   2.704   1.461
54601W        W26927  26.375  28.966  13.020
54602W        W26928  23.281  13.231  12.254
54603W        W26929   0.539   9.646   2.319
54604W        W26930   7.270   8.776  12.979
54605W        W26931  13.587  29.423  14.234
54606W        W26932  40.808  38.424  12.829
54607W        W26933  38.065  27.486   1.098
54608W        W26934  14.321  22.081   0.016
54609W        W26935  19.102  34.688  11.023
54610W        W26936  19.903   1.208   0.803
54611W        W26937  16.672  40.620   0.961
54612W        W26938  10.099   1.843   2.354
54613W        W26939  25.540  41.783  13.830
54614W        W26940  22.525  34.223   3.859
54615W        W26941  27.400  35.332  14.267
54616W        W26942  11.797  21.948  12.963
54617W        W26943  33.972  41.311   0.677
54618W        W26944  32.734  22.637  10.795
54619W        W26945  42.429  21.424   5.080
54620W        W26946   1.151   9.912   4.691
54621W        W26947  22.973  14.716  13.355
54622W        W26948   7.387  11.890  12.017
54623W        W26949  39.967  21.790   0.759
54624W        W26950  19.092  43.378   0.071
54625W        W26951  33.424  11.980   4.221
54626W        W26952  39.104  28.234  11.098
54627W        W26953   4.244  27.383   1.880
54628W        W26954  38.039  20.853  13.009
54629W        W26955  43.263  35.657   1.469
54630W        W26956  35.050  44.361   0.757
54631W        W26957  28.322  44.005  13.629
54632W        W26958  30.636  35.789  11.108
54633W        W26959   7.836  37.432  14.505
54634W        W26960  16.822   7.227  14.044
54635W        W26961   0.384  14.345  13.736
54636W        W26962   8.688  25.869  14.127
54637W        W26963  37.632  41.062   1.275
54638W        W26964  37.065  37.014   0.841
54639W        W26965  29.300  41.953  13.980
54640W        W26966  29.039  28.061  13.028
54641W        W26967  19.538  27.576  11.934
54642W        W26968  33.788   0.807  14.343
54643W        W26969  19.551   6.831   2.260
54644W        W26970  40.570  19.061  13.002
54645W        W26971  44.855  21.626  14.501
54646W        W26972  43.789  18.830  11.959
54647W        W26973   5.298  38.287  13.434
54648W        W26974  27.231   3.165   4.648
54649W        W26975  35.887  11.522   5.319
54650W        W26976  17.981  38.360   4.480
54651W        W26977   9.834  44.203   1.372
54652W        W26978  17.112   1.903  12.392
54653W        W26979  15.030   2.242  14.330
54654W        W26980  42.537  18.533  10.696
54655W        W26981  27.632  30.285   1.747
54656W        W26982  42.537  22.833   0.249
54657W        W26983   4.393  23.812   2.013
54658W        W26984   5.340  33.122   1.008
54659W        W26985  28.642  39.757  11.602
54660W        W26986  34.055  11.444   0.497
54661W        W26987  23.316  37.859   4.207
54662W        W26988   1.862  22.016   3.279
54663W        W26989  18.707  39.825   2.173
54664W        W26990  40.526  43.545  13.504
54665W        W26991  37.104   1.916  13.426
54666W        W26992  41.353  38.804  14.947
54667W        W26993   5.097  15.018   1.333
54668W        W26994  37.066  15.108  14.273
54669W        W26995  18.889  15.098  11.920
54670W        W26996  18.819  26.125  11.658
54671W        W26997  13.812  17.615  13.334
54672W        W26998  25.488  13.790   3.753
54673W        W26999  32.527  30.492  13.751
54674W        W27000  11.270   4.424  14.035
54675W        W27001  11.067  32.589   0.746
54676W        W27002   7.857  10.950  11.151
54677W        W27003  30.261  11.659  12.914
54678W        W27004   4.427  10.954  13.133
54679W        W27005  29.155  22.533   2.255
54680W        W27006  16.712  38.109   0.868
54681W        W27007  13.687  14.627  14.866
54682W        W27008  35.223  20.206   2.077
54683W        W27009  36.032  38.316   3.775
54684W        W27010   8.885   1.269   2.662
54685W        W27011  13.628  32.475  11.936
54686W        W27012  30.905   5.223   2.937
54687W        W27013  41.123  33.542  12.789
54688W        W27014  17.671  37.942   0.740
54689W        W27015  14.821   3.012   0.447
54690W        W27016  10.927   0.321  12.515
54691W        W27017   3.818  23.831   0.337
54692W        W27018  26.689   3.362   1.673
54693W        W27019  38.593  27.003   1.565
54694W        W27020  35.609   5.166   0.865
54695W        W27021  14.087  41.178   1.365
54696W        W27022  18.981  16.052  14.946
54697W        W27023  40.959  30.136  10.896
54698W        W27024  42.034  23.623   4.920
54699W        W27025  21.219  22.722  14.856
54700W        W27026   1.446  15.844  10.639
54701W        W27027  20.249  22.830   3.783
54702W        W27028  19.699  24.562   0.882
54703W        W27029  42.013  39.030   1.910
54704W        W27030  20.064  17.367  14.997
54705W        W27031  30.954  32.092   4.282
54706W        W27032  24.002   5.813   1.941
54707W        W27033  36.923  34.565  14.417
54708W        W27034   7.284   3.188  11.165
54709W        W27035  18.263  25.220   1.432
54710W        W27036  34.182  38.597   1.051
54711W        W27037  40.444  43.966   4.603
54712W        W27038  17.913  13.333   4.138
54713W        W27039  18.232  18.779   4.447
54714W        W27040  34.555   5.659  11.451
54715W        W27041  27.527  44.786  10.743
54716W        W27042  22.091  29.974  13.863
54717W        W27043   3.769  42.367   2.767
54718W        W27044  33.673  26.612  13.317
54719W        W27045  21.162  39.640  12.238
54720W        W27046   7.925  39.931   0.355
54721W        W27047   0.487  33.507  12.400
54722W        W27048  40.923  44.388   3.384
54723W        W27049  30.660   9.166  11.133
54724W        W27050   9.665  34.470   1.379
54725W        W27051  38.749  44.790   3.198
54726W        W27052   4.372  33.409   3.185
54727W        W27053  36.844  32.014  11.117
54728W        W27054  33.598  35.519   2.950
54729W        W27055  15.349  17.829   4.066
54730W        W27056   1.156  33.499   3.661
54731W        W27057  19.231  38.147  14.018
54732W        W27058   8.277   0.914  13.966
54733W        W27059  33.021   4.593   1.678
54734W        W27060  43.013   7.860  12.234
54735W        W27061  29.341  30.393   0.931
54736W        W27062   2.538  18.380  12.527
54737W        W27063  25.255   1.374   2.393
54738W        W27064  27.004  29.258  12.518
54739W        W27065   6.419  37.362  13.403
54740W        W27066  31.140   0.944   1.260
54741W        W27067  43.223  38.294   4.596
54742W        W27068  32.652  21.505  13.383
54743W        W27069  44.249  13.246  14.194
54744W        W27070  32.543  37.822   4.900
54745W        W27071   2.745   6.202   3.499
54746W        W27072   3.629  29.621   1.849
54747W        W27073  40.956  26.941   3.355
54748W        W27074  25.476   9.221  14.863
54749W        W27075  14.137  34.365  11.509
54750W        W27076   1.390  42.317  14.376
54751W        W27077   3.379   0.794  11.128
54752W        W27078  19.265   7.238  14.846
54753W        W27079  24.748   1.900   3.568
54754W        W27080  17.788  11.068  13.362
54755W        W27081  23.462  36.894   4.157
54756W        W27082  25.705  37.589   4.708
54757W        W27083  16.675   8.026   3.331
54758W        W27084  28.721   8.992  12.091
54759W        W27085   1.352  33.188  10.342
54760W        W27086  17.631  21.733   4.850
54761W        W27087  34.863  25.481   2.581
54762W        W27088  43.549  16.121  12.556
54763W        W27089  11.081  27.074  12.999
54764W        W27090  44.937  16.241   2.342
54765W        W27091  19.007  11.781  11.049
54766W        W27092   6.799  17.148  10.726
54767W        W27093  37.520   9.011   9.953
54768W        W27094  27.245  41.889  10.942
54769W        W27095  31.887  18.248  11.554
54770W        W27096  29.834   4.859  13.399
54771W        W27097  18.315  15.095  11.071
54772W        W27098   5.044   2.329   3.692
54773W        W27099   2.187  35.600  11.908
54774W        W27100   0.263  34.616   4.608
54775W        W27101  16.228  38.785   0.860
54776W        W27102  18.097  39.041   0.282
54777W        W27103   0.522  29.137   1.617
54778W        W27104  41.402  14.073   4.051
54779W        W27105   0.277   4.606   0.235
54780W        W27106   3.783  35.805   3.054
54781W        W27107  44.948  11.611   3.474
54782W        W27108  34.411  38.852  10.698
54783W        W27109  25.288  14.651   1.936
54784W        W27110  20.529  18.517  11.133
54785W        W27111  43.145  39.442   1.355
54786W        W27112  44.402  28.689   2.728
54787W        W27113  43.379  38.558  12.373
54788W        W27114  24.671  21.211  12.319
54789W        W27115  41.541   1.917   0.907
54790W        W27116   7.725  36.465   2.721
54791W        W27117  19.602  39.301  12.807
54792W        W27118  32.929  19.633  14.734
54793W        W27119  19.008  37.339   2.790
54794W        W27120  24.959   8.719   2.284
54795W        W27121  36.604  36.848   2.420
54796W        W27122  24.805  38.973   2.160
54797W        W27123  22.132  34.577   0.977
54798W        W27124  34.860   8.664  11.505
54799W        W27125  36.513  28.389  13.517
54800W        W27126  43.965  11.401   0.384
54801W        W27127  42.329  32.397   1.897
54802W        W27128  35.424  18.113  10.978
54803W        W27129  28.086  11.413   1.346
54804W        W27130  30.237  29.714   1.967
54805W        W27131  28.172  28.864   4.239
54806W        W27132  44.377  41.257   0.969
54807W        W27133  16.776  16.149  11.156
54808W        W27134  44.190  37.946   2.648
54809W        W27135  25.162  16.401   0.941
54810W        W27136  17.086   1.657   4.613
54811W        W27137  32.549   6.204   4.125
54812W        W27138  22.623  34.058  11.471
54813W        W27139   9.921  43.105  11.204
54814W        W27140  38.540  30.819   4.131
54815W        W27141  38.793  43.758  13.580
54816W        W27142  23.974  24.040  14.807
54817W        W27143  20.059  22.054  10.549
54818W        W27144  18.782  42.303   0.876
54819W        W27145  44.420  15.197  11.605
54820W        W27146  35.144  33.917  10.693
54821W        W27147  41.941  31.531   3.894
54822W        W27148  32.678  34.500   4.450
54823W        W27149  32.928  32.129  12.518
54824W        W27150  11.809  32.172   2.764
54825W        W27151   1.431  36.506  11.596
54826W        W27152  34.473  16.307  14.009
54827W        W27153  44.185  36.883  10.109
54828W        W27154  28.489  27.979   2.283
54829W        W27155   5.682  12.773   3.185
54830W        W27156   4.787  41.339   9.939
54831W        W27157   2.102  44.462   0.353
54832W        W27158  26.580  35.773   1.596
54833W        W27159   5.776  24.396  13.068
54834W        W27160  10.050  32.458  12.725
54835W        W27161  41.450   8.773   2.190
54836W        W27162  32.849  32.575  12.849
54837W        W27163  10.823  29.998   4.536
54838W        W27164  35.296   6.159  11.164
54839W        W27165  30.145  40.047  13.800
54840W        W27166   7.816  22.214   1.497
54841W        W27167  11.957   6.092   4.954
54842W        W27168  33.547   4.921  11.524
54843W        W27169  21.174  14.388   4.689
54844W        W27170   6.818  40.447   0.944
54845W        W27171  40.948  37.928   2.987
54846W        W27172   8.376  39.740  14.550
54847W        W27173   9.076  10.548   5.016
54848W        W27174  29.015  25.118   1.929
54849W        W27175  29.183  24.097   3.414
54850W        W27176  44.047  16.902  12.002
54851W        W27177  19.605  22.210   1.445
54852W        W27178  17.194  29.034   3.604
54853W        W27179  16.591  42.527  11.265
54854W        W27180  27.901  19.313  13.746
54855W        W27181   1.692  30.518  14.281
54856W        W27182  16.120   4.155  10.475
54857W        W27183   3.794  12.397   0.416
54858W        W27184  34.582   4.667   2.411
54859W        W27185  44.144   7.158   4.136
54860W        W27186  41.423  33.457   1.944
54861W        W27187  21.053  36.833  11.427
54862W        W27188  29.953  16.687  12.540
54863W        W27189  44.438  19.621   3.397
54864W        W27190  17.775  43.448   3.211
54865W        W27191  19.861  44.222   4.891
54866W        W27192  10.248  39.655  12.828
54867W        W27193  22.255  34.600   4.077
54868W        W27194  18.537  16.333  14.977
54869W        W27195  10.957   1.299  14.324
54870W        W27196  43.279   7.928   1.773
54871W        W27197  23.730  18.456   3.615
54872W        W27198  11.162  36.393   0.857
54873W        W27199  40.281  37.805  11.704
54874W        W27200  26.003  36.834  12.285
54875W        W27201  42.574   4.848  14.139
54876W        W27202  21.734   9.224   0.227
54877W        W27203   0.320  37.283  12.347
54878W        W27204   4.232  32.692  13.036
54879W        W27205  43.664  16.860   2.131
54880W        W27206  30.920  32.442   2.894
54881W        W27207  27.351  37.318  12.768
54882W        W27208   5.276  12.171   4.338
54883W        W27209  29.004  30.346  12.443
54884W        W27210  25.582   1.704   4.447
54885W        W27211  41.431  35.516   1.281
54886W        W27212   9.695  33.321  10.749
54887W        W27213  34.284  32.798  12.014
54888W        W27214  21.212  24.022   1.289
54889W        W27215  30.795   8.660   1.340
54890W        W27216  26.193  25.085  12.472
54891W        W27217  44.761  40.575   1.119
54892W        W27218  14.788   2.767  10.818
54893W        W27219  19.653  20.744   0.306
54894W        W27220  16.159   0.004  11.708
54895W        W27221  12.828  19.793   0.229
54896W        W27222  32.125  28.364  14.522
54897W        W27223   8.273  22.199   4.594
54898W        W27224   6.422  44.965  14.514
54899W        W27225   8.410  15.400   0.662
54900W        W27226  17.104   7.663  13.090
54901W        W27227  14.705  38.171  11.861
54902W        W27228  35.854   7.808  14.140
54903W        W27229  25.559  43.570  12.572
54904W        W27230  19.101  22.951   1.697
54905W        W27231  10.375   7.278   3.530
54906W        W27232  20.451   3.041  12.007
54907W        W27233  29.122  29.505  10.568
54908W        W27234  23.627  33.209   2.276
54909W        W27235  23.751  36.872   4.583
54910W        W27236   9.191  21.987  14.166
54911W        W27237  23.357  34.621   1.251
54912W        W27238  41.459   2.324  13.897
54913W        W27239  43.999  44.977  12.597
54914W        W27240  27.362  19.650  12.912
54915W        W27241  15.330  30.807  11.454
54916W        W27242  28.696  37.417  11.009
54917W        W27243  42.056  17.044  13.360
54918W        W27244  26.735   2.728   4.005
54919W        W27245  33.385  19.862   0.384
54920W        W27246   7.110  35.468  12.413
54921W        W27247  38.290  10.167  14.448
54922W        W27248   5.654  15.037   2.719
54923W        W27249  31.658  29.634   4.127
54924W        W27250   3.250  14.507  13.517
54925W        W27251  36.331  12.650  13.604
54926W        W27252  10.333  27.655   4.954
54927W        W27253  14.840  40.059  14.005
54928W        W27254  15.591  13.511  13.469
54929W        W27255   5.335  28.193  12.890
54930W        W27256  43.004  25.118   3.714
54931W        W27257  25.552  24.716  14.005
54932W        W27258  12.343   9.688   2.126
54933W        W27259   1.966  37.470   2.216
54934W        W27260  36.457  36.304  11.625
54935W        W27261  36.066  15.696   1.537
54936W        W27262  24.331  39.835   4.236
54937W        W27263   9.342  38.014  13.353
54938W        W27264  44.392  42.796  12.158
54939W        W27265  38.973  14.800  10.431
54940W        W27266  32.961   8.384   0.842
54941W        W27267  14.143  41.680   1.194
54942W        W27268  12.224  17.013   4.689
54943W        W27269  38.772  44.333   0.373
54944W        W27270  28.236  36.486   1.301
54945W        W27271   1.452  26.393  10.763
54946W        W27272  39.860   4.733   4.332
54947W        W27273  23.082   5.946   2.761
54948W        W27274  27.860  38.782   5.049
54949W        W27275  23.738  41.811   3.498
54950W        W27276  40.512  22.275  11.606
54951W        W27277   1.453  22.102  13.018
54952W        W27278  26.206  22.725  14.057
54953W        W27279  36.090  29.052   3.360
54954W        W27280  36.835  21.011   3.575
54955W        W27281  26.473  35.200   2.360
54956W        W27282  10.716  14.805   4.017
54957W        W27283  14.874  13.304  14.065
54958W        W27284   8.130   3.935  14.441
54959W        W27285  11.639  23.547   0.478
54960W        W27286  26.898  26.516   0.819
54961W        W27287   7.945  35.749  14.737
54962W        W27288  26.829  37.243   4.585
54963W        W27289  24.508  31.654  11.632
54964W        W27290   9.641  18.179   3.183
54965W        W27291  34.115   9.814  10.805
54966W        W27292  42.571  19.733   0.497
54967W        W27293  23.557  17.988   3.580
54968W        W27294  38.731  26.652  13.046
54969W        W27295  33.149  34.469   4.631
54970W        W27296  16.053   9.742   0.693
54971W        W27297  42.526  15.842  13.938
54972W        W27298   9.611   7.409   1.223
54973W        W27299  40.448   0.490  14.287
54974W        W27300  11.510  41.487  12.929
54975W        W27301  25.501  35.008   3.765
54976W        W27302   0.475   3.955   3.800
54977W        W27303  13.384  31.603  10.710
54978W        W27304  33.973  17.109   1.476
54979W        W27305  43.239  34.103   1.811
54980W        W27306  35.964  15.507   2.454
54981W        W27307  25.610   7.006  14.567
54982W        W27308  27.672  38.411   3.731
54983W        W27309   1.458  21.961   2.252
54984W        W27310  37.835   2.759   2.846
54985W        W27311  29.911  23.959  11.553
54986W        W27312  20.830   2.186   5.117
54987W        W27313  35.504  21.202   3.891
54988W        W27314  18.940   7.373   4.901
54989W        W27315  44.153  14.278   3.758
54990W        W27316   7.851   3.899  13.993
54991W        W27317   2.252  19.255  14.860
54992W        W27318  44.918  33.942  14.067
54993W        W27319   3.791  21.483  13.160
54994W        W27320  14.562  32.428  13.036
54995W        W27321  29.833  22.113  11.710
54996W        W27322  14.772  29.474   0.454
54997W        W27323  10.816  17.793   1.268
54998W        W27324  37.357  14.323   4.983
54999W        W27325  17.229   7.882  10.242
55000W        W27326  10.273  10.643   0.074
55001W        W27327  36.565  40.054  10.688
55002W        W27328   9.230   0.082   3.718
55003W        W27329  27.180  38.315   1.238
55004W        W27330   9.067  21.238  11.721
55005W        W27331  27.633  42.581   2.763
55006W        W27332  24.265  21.101   4.573
55007W        W27333  26.632  28.535   3.346
55008W        W27334  42.145  15.320   1.126
55009W        W27335  11.827  24.522   3.888
55010W        W27336  36.357   5.860  14.997
55011W        W27337  16.302  10.670   1.474
55012W        W27338  20.798  26.955   1.418
55013W        W27339  25.550  19.159  10.305
55014W        W27340  37.080  14.427  14.907
55015W        W27341   9.124  40.251  13.956
55016W        W27342  21.150  30.111   0.757
55017W        W27343  12.880  11.071   2.276
55018W        W27344   2.675  40.389   3.395
55019W        W27345  25.491  41.503   3.168
55020W        W27346   6.197  41.321   0.680
55021W        W27347  30.490  38.642  14.488
55022W        W27348  32.058  25.234   2.467
55023W        W27349  38.501  17.968   4.878
55024W        W27350  33.888  30.667   0.440
55025W        W27351   5.940  10.266  14.890
55026W        W27352  30.972  15.583  14.187
55027W        W27353   3.654   5.886   1.345
55028W        W27354  34.888  17.743  10.703
55029W        W27355  13.585  32.793  12.388
55030W        W27356  27.050  18.791  13.365
55031W        W27357  24.534   0.532   4.123
55032W        W27358  18.333  17.693  14.009
55033W        W27359  22.463  26.728   2.783
55034W        W27360  38.881  11.144  13.822
55035W        W27361  15.679  41.930  13.382
55036W        W27362   3.603   6.608   1.818
55037W        W27363  23.794   4.032  12.972
55038W        W27364  25.329  18.872  10.693
55039W        W27365  32.595  24.087  12.635
55040W        W27366  12.822  29.125  14.742
55041W        W27367   1.182   0.981  13.959
55042W        W27368   4.247  33.571  11.194
55043W        W27369  23.795  15.130  10.568
55044W        W27370  36.366  20.598   4.627
55045W        W27371  24.747  32.616   0.023
55046W        W27372   6.813  44.391   4.623
55047W        W27373  40.977   7.781  12.002
55048W        W27374   7.758  15.584  11.252
55049W        W27375  39.843  18.092   1.229
55050W        W27376  39.611  16.579  12.972
55051W        W27377  10.902  21.702  14.651
55052W        W27378  14.633  27.452  14.220
55053W        W27379  39.088  29.000  13.045
55054W        W27380  39.317  39.521  10.523
55055W        W27381  35.756  43.298   1.003
55056W        W27382   3.736  41.896  13.452
55057W        W27383  43.529  44.237  14.991
55058W        W27384  11.270  34.802   9.754
55059W        W27385  15.763  21.430   4.484
55060W        W27386  23.037  15.043  14.366
55061W        W27387  13.654  38.658  11.950
55062W        W27388  31.078   2.991  13.770
55063W        W27389  44.580   0.928   0.960
55064W        W27390  28.942  36.537  14.411
55065W        W27391  31.796  30.565   3.452
55066W        W27392  38.524  39.847  12.999
55067W        W27393   7.393  32.496   0.912
55068W        W27394  13.158   3.483  13.957
55069W        W27395   6.582   9.787   1.285
55070W        W27396  22.158  16.078  11.596
55071W        W27397  23.453  35.835  10.730
55072W        W27398  11.964  10.422   4.640
55073W        W27399   3.133  19.262   2.046
55074W        W27400  33.087  26.759   0.736
55075W        W27401  40.101  18.972   2.631
55076W        W27402   4.134  17.772   1.773
55077W        W27403   2.209  12.492   5.566
55078W        W27404  33.847  23.598  10.472
55079W        W27405  42.455  28.041   0.323
55080W        W27406  35.377  38.385   3.167
55081W        W27407  19.020  12.936  11.225
55082W        W27408  11.379  38.515  13.362
55083W        W27409   3.390  37.981   1.968
55084W        W27410  44.132  13.893  11.009
55085W        W27411  37.392  34.877  11.600
55086W        W27412  43.682  18.564  12.390
55087W        W27413  25.896   0.471  13.739
55088W        W27414  24.704   4.131   3.186
55089W        W27415   5.816   0.259   3.747
55090W        W27416   1.765   4.636  11.146
55091W        W27417   6.709  22.340  11.150
55092W        W27418   7.364  18.965  11.521
55093W        W27419   9.129  28.376   3.677
55094W        W27420  44.792  27.928   3.280
55095W        W27421  10.010  24.271   3.633
55096W        W27422  11.589  21.412   1.773
55097W        W27423  16.504   8.928   0.183
55098W        W27424  10.879  42.804  12.405
55099W        W27425  40.130  24.929   3.240
55100W        W27426   1.149  29.368   0.568
55101W        W27427  36.062  29.694  12.337
55102W        W27428  32.418  15.978  13.975
55103W        W27429   8.483  18.765  11.023
55104W        W27430   1.474   6.755  10.753
55105W        W27431  41.098  33.103   1.723
55106W        W27432   2.322   2.346   4.360
55107W        W27433   9.950  28.253  11.549
55108W        W27434  39.860   4.434  14.002
55109W        W27435  44.473  16.547  11.083
55110W        W27436  19.195  28.827  12.756
55111W        W27437   7.991  44.844   0.241
55112W        W27438   8.263  28.824  11.954
55113W        W27439  18.774  43.874  13.139
55114W        W27440  28.188  32.086   0.667
55115W        W27441  28.019  25.111  14.857
55116W        W27442  35.518  38.901   1.286
55117W        W27443  18.381   2.016  14.408
55118W        W27444   9.476  16.230  13.469
55119W        W27445  27.362   9.965   1.153
55120W        W27446  14.069  43.240   2.115
55121W        W27447  11.269  29.627  11.723
55122W        W27448  36.076   1.863   2.908
55123W        W27449  10.304  40.097  11.603
55124W        W27450  34.589  41.178  11.304
55125W        W27451  15.660   2.173  10.488
55126W        W27452  32.015  32.544  12.311
55127W        W27453  42.087  43.948   1.877
55128W        W27454  39.750  19.657   1.750
55129W        W27455  16.241   0.481  14.345
55130W        W27456  39.427  35.989  12.357
55131W        W27457   3.191  13.732  13.145
55132W        W27458  44.774  44.193   4.130
55133W        W27459  31.453  34.662   2.930
55134W        W27460  10.890  10.578  12.825
55135W        W27461  23.725  44.515  12.981
55136W        W27462  33.450  14.649  13.807
55137W        W27463  20.239  36.058  14.258
55138W        W27464   3.464   4.307   1.643
55139W        W27465  24.519  42.995  14.911
55140W        W27466  38.881  37.338   3.238
55141W        W27467  32.474   3.595   4.686
55142W        W27468   3.777   9.820   2.376
55143W        W27469  11.565  23.285   1.909
55144W        W27470  26.792   6.173   1.364
55145W        W27471  23.245  14.348  10.691
55146W        W27472  34.962  33.331   5.196
55147W        W27473  36.059   5.862   2.753
55148W        W27474  26.354  25.434   1.977
55149W        W27475  44.529  42.806   3.270
55150W        W27476  14.299  42.961  11.032
55151W        W27477  31.732  22.654   0.928
55152W        W27478  12.520   7.792   3.278
55153W        W27479   8.861  14.127  12.448
55154W        W27480  27.379   4.984  14.040
55155W        W27481   8.390  26.661   3.736
55156W        W27482  43.695  13.412  11.894
55157W        W27483  13.543  21.595  12.517
55158W        W27484  39.678  11.216   4.708
55159W        W27485   8.677   7.619  11.542
55160W        W27486  19.066   4.729   2.616
55161W        W27487   6.364  27.284  11.230
55162W        W27488   4.251   8.551  11.556
55163W        W27489  31.620  32.933   2.800
55164W        W27490  30.916  40.027  10.504
55165W        W27491  42.011   1.365  13.092
55166W        W27492  33.075  32.793   4.247
55167W        W27493   2.529  43.236   1.903
55168W        W27494   0.342  30.362  13.875
55169W        W27495  20.944  38.853  14.879
55170W        W27496  35.445  29.904  11.129
55171W        W27497  29.540  17.728  10.947
55172W        W27498  13.652  12.231  14.226
55173W        W27499  17.069  18.535  11.567
55174W        W27500  36.769  26.239   3.245
55175W        W27501  14.100  30.857  13.958
55176W        W27502  15.540  39.245   2.377
55177W        W27503  26.714  17.448  13.416
55178W        W27504  32.115  32.533   3.761
55179W        W27505  35.898   8.640  11.170
55180W        W27506   9.704  23.222  12.263
55181W        W27507  31.068  25.736  12.386
55182W        W27508   2.279  27.560   2.763
55183W        W27509  38.354   0.950   1.933
55184W        W27510  21.724  35.901   1.803
55185W        W27511   6.260  21.737   0.712
55186W        W27512  35.902   6.319   2.596
55187W        W27513  16.226  43.939  11.638
55188W        W27514  16.172  17.543   2.101
55189W        W27515   8.741  35.358  13.345
55190W        W27516   3.298  38.960   4.613
55191W        W27517  31.962   3.285  14.135
55192W        W27518  37.631  13.220  13.448
55193W        W27519   2.262  42.807   1.866
55194W        W27520   6.332  35.707  10.108
55195W        W27521  30.580  36.826  13.467
55196W        W27522   4.717  32.881   2.323
55197W        W27523  33.335  44.301  13.387
55198W        W27524  33.817  17.622  11.526
55199W        W27525  39.606  14.310  13.404
55200W        W27526   3.266   9.989   2.307
55201W        W27527   9.713  17.989   0.632
55202W        W27528  27.126  22.207   2.682
55203W        W27529  14.858  40.465   3.706
55204W        W27530  34.832  31.998  10.942
55205W        W27531  23.100  23.508  13.079
55206W        W27532  24.054   5.205   1.582
55207W        W27533  43.517  12.393  13.837
55208W        W27534  33.144  14.195   4.649
55209W        W27535  35.125  20.206   0.088
55210W        W27536  16.524  15.005  13.334
55211W        W27537  40.084   2.645  11.984
55212W        W27538  37.785   3.880  13.539
55213W        W27539   8.807   3.334  10.046
55214W        W27540  34.493   7.913   2.379
55215W        W27541  39.050  21.407   0.738
55216W        W27542  27.471   9.962  13.457
55217W        W27543  31.925  10.335   0.531
55218W        W27544  31.493  20.107  13.533
55219W        W27545  36.401  25.695   1.169
55220W        W27546  41.603   5.396  13.812
55221W        W27547  14.147  10.411   2.340
55222W        W27548  27.122  18.198   3.372
55223W        W27549  32.900  15.402   2.781
55224W        W27550   1.661  41.398   2.158
55225W        W27551  33.417  30.187   3.766
55226W        W27552  16.738  14.783  14.962
55227W        W27553  15.814  30.413   3.158
55228W        W27554  44.997  28.225  13.144
55229W        W27555  23.943  24.696   0.398
55230W        W27556  28.175   8.206   4.406
55231W        W27557  10.794  20.447   0.461
55232W        W27558  45.000  40.966  10.695
55233W        W27559  41.566   5.661  14.959
55234W        W27560  12.025   9.640  10.951
55235W        W27561  12.335   0.250   3.032
55236W        W27562  31.157  19.344   3.288
55237W        W27563  38.569   6.178   1.667
55238W        W27564  37.955  38.270   0.255
55239W        W27565   7.651  24.313   2.752
55240W        W27566  31.527   4.844   1.409
55241W        W27567  26.145  16.968   1.448
55242W        W27568  39.497  31.493   2.869
55243W        W27569  18.115  28.181  12.011
55244W        W27570  44.084  43.379  14.458
55245W        W27571  12.736  25.490  13.441
55246W        W27572   3.792  17.133   4.832
55247W        W27573  37.934  32.530  12.368
55248W        W27574   2.128  23.608   9.776
55249W        W27575  38.916  17.150   2.137
55250W        W27576  32.855  15.419   1.866
55251W        W27577  14.347  34.252   2.881
55252W        W27578  29.413  21.552   1.091
55253W        W27579  36.298  26.515  13.594
55254W        W27580  36.977  19.199   1.779
55255W        W27581  11.804  30.641   5.133
55256W        W27582  17.631  28.698   3.448
55257W        W27583  22.888  39.480   0.428
55258W        W27584   1.909  32.274   2.326
55259W        W27585   2.433   4.785   4.362
55260W        W27586  42.012   8.363  11.135
55261W        W27587   3.391  37.296   3.664
55262W        W27588  35.188  31.905   5.020
55263W        W27589   8.747  25.903   1.577
55264W        W27590   5.734  19.560   0.162
55265W        W27591  38.314  27.590   3.621
55266W        W27592  36.444   2.196   3.190
55267W        W27593  15.754  39.025  11.050
55268W        W27594  28.895  43.777   4.409
55269W        W27595   9.339  34.907  13.269
55270W        W27596  19.523  30.079   4.116
55271W        W27597   1.030   8.902  14.984
55272W        W27598   0.406   3.731  12.912
55273W        W27599  44.378  21.689   1.381
55274W        W27600  17.604  17.707  10.557
55275W        W27601  43.444  24.445  10.573
55276W        W27602  15.625  42.441   4.131
55277W        W27603  21.081  16.378  14.113
55278W        W27604   0.836  42.118  11.896
55279W        W27605  24.767  31.166   4.691
55280W        W27606  22.989  43.369  12.547
55281W        W27607  41.107  33.145   0.509
55282W        W27608  34.159  34.887  11.252
55283W        W27609  36.873   3.486  10.630
55284W        W27610   8.775   9.130  14.625
55285W        W27611   5.416   5.425   1.837
55286W        W27612  28.598  14.459   2.568
55287W        W27613  35.929  39.481  14.511
55288W        W27614   0.006  20.086   2.668
55289W        W27615   7.631   4.047   1.391
55290W        W27616   2.758  26.661  12.398
55291W        W27617   4.893   0.392  13.846
55292W        W27618   1.456  25.880  10.696
55293W        W27619  18.138   8.729  11.546
55294W        W27620  11.008  16.648   2.217
55295W        W27621  40.585  20.673  13.350
55296W        W27622  39.053  15.309   1.875
55297W        W27623  10.957  13.810   3.598
55298W        W27624  33.182  29.926  10.609
55299W        W27625  20.629  12.336   3.282
55300W        W27626  38.357  13.787  12.568
55301W        W27627  22.608  24.286  11.540
55302W        W27628   9.741  34.385   4.864
55303W        W27629  38.807  16.693   1.900
55304W        W27630  28.075  24.500  13.903
55305W        W27631   3.161   9.136   2.446
55306W        W27632  32.741  10.640   0.053
55307W        W27633   3.703  39.167   4.243
55308W        W27634  41.569  30.036   2.331
55309W        W27635  16.767  14.703   0.858
55310W        W27636  12.810  34.862  14.945
55311W        W27637  30.049  16.277   4.110
55312W        W27638   2.375   7.115  13.500
55313W        W27639  16.856   9.321   0.901
55314W        W27640  24.681  11.438   3.599
55315W        W27641  21.686  40.179   3.115
55316W        W27642  22.716   0.760  11.626
55317W        W27643  43.419   1.878   3.250
55318W        W27644  43.294  13.261   1.902
55319W        W27645  30.439   0.442  13.496
55320W        W27646  32.433  33.692  12.734
55321W        W27647   9.497   3.548   3.220
55322W        W27648   3.094   7.660   2.304
55323W        W27649  35.955  26.051  12.071
55324W        W27650  40.567  19.677   3.595
55325W        W27651   1.550   0.946   4.128
55326W        W27652   7.922  38.091  12.754
55327W        W27653  25.688   0.236  13.315
55328W        W27654  13.824   7.455   0.358
55329W        W27655   6.759  42.002  11.097
55330W        W27656  11.704   3.467  12.392
55331W        W27657  28.061   8.339   2.342
55332W        W27658   6.443  12.524  14.420
55333W        W27659  26.897   9.799  14.560
55334W        W27660  19.182  12.338  13.030
55335W        W27661   5.264  21.448   1.327
55336W        W27662  27.486  32.826   0.511
55337W        W27663   4.689  16.210  14.809
55338W        W27664  41.993  28.427   2.809
55339W        W27665  39.316  43.127  14.793
55340W        W27666  13.779  12.852  11.137
55341W        W27667  18.315   0.519   1.633
55342W        W27668   1.803   4.974  14.062
55343W        W27669   2.872  38.995   4.915
55344W        W27670  17.206  19.638  12.320
55345W        W27671  43.569  44.809  14.094
55346W        W27672   6.190  37.791  13.539
55347W        W27673   8.406   2.700  14.309
55348W        W27674  16.559  17.843   0.450
55349W        W27675  29.979  42.371  11.626
55350W        W27676  31.635   2.519   1.000
55351W        W27677   0.798  11.529   5.161
55352W        W27678   0.574   7.464   4.304
55353W        W27679  30.645  11.387   0.765
55354W        W27680   9.980  12.304   0.349
55355W        W27681  15.311  33.309   0.805
55356W        W27682   8.373  44.198  13.490
55357W        W27683  34.261  11.609  14.805
55358W        W27684  13.221   2.454   0.738
55359W        W27685  19.022  27.160  10.820
55360W        W27686  10.951  40.096  14.997
55361W        W27687   7.137   6.372   2.698
55362W        W27688  30.491  14.640  13.274
55363W        W27689   9.356   0.386  12.431
55364W        W27690  28.980  21.613  13.330
55365W        W27691  19.607   8.433   2.651
55366W        W27692   1.686  31.668  14.849
55367W        W27693  23.557  23.289   2.405
55368W        W27694  18.740  32.550   2.390
55369W        W27695   8.133   0.081  10.917
55370W        W27696   8.734  42.356   4.786
55371W        W27697  13.787   2.860  12.030
55372W        W27698  17.573  29.640  11.133
55373W        W27699  41.050  24.596  13.349
55374W        W27700   3.873  25.104   4.667
55375W        W27701  30.648  32.576   4.949
55376W        W27702  20.609  39.545  10.654
55377W        W27703  14.794  28.944  14.237
55378W        W27704  24.473   1.007  11.249
55379W        W27705   7.739  43.426  11.004
55380W        W27706   6.947  36.532  12.633
55381W        W27707  26.164  19.059  11.130
55382W        W27708   3.177  19.581  12.474
55383W        W27709  23.127  31.039   4.064
55384W        W27710  12.173  37.304  11.441
55385W        W27711  44.024   0.756  14.914
55386W        W27712  30.992  21.250   1.486
55387W        W27713  12.308   8.089   2.283
55388W        W27714  28.455   7.559  12.357
55389W        W27715  39.062  20.382   0.945
55390W        W27716  44.033  23.987  14.097
55391W        W27717  25.500  11.044   1.933
55392W        W27718   1.551   6.248   4.870
55393W        W27719  28.692   6.280  11.934
55394W        W27720   8.699  38.317   4.668
55395W        W27721  33.886   4.391   1.383
55396W        W27722  21.834  30.714  11.231
55397W        W27723  14.552  25.127  11.026
55398W        W27724  14.279   6.044   1.034
55399W        W27725   3.044  22.166   0.117
55400W        W27726  32.077   4.272  10.785
55401W        W27727  29.511   2.290  11.589
55402W        W27728  20.278  23.760   1.225
55403W        W27729   4.949   3.930   0.230
55404W        W27730  30.383  29.877  12.507
55405W        W27731  41.236   2.856   2.633
55406W        W27732  27.240  39.978   1.337
55407W        W27733  23.449   3.533  14.342
55408W        W27734   8.149  42.038   2.312
55409W        W27735  41.925  26.278  12.079
55410W        W27736   5.379  37.542  11.195
55411W        W27737  34.377  10.794  12.381
55412W        W27738   0.899   1.458  11.972
55413W        W27739  39.966  42.077   1.285
55414W        W27740  14.288  26.722   4.577
55415W        W27741   1.746  42.373  13.373
55416W        W27742  20.247   4.879  13.869
55417W        W27743  36.087  32.115   3.655
55418W        W27744  30.971   9.561  11.234
55419W        W27745  13.369   5.419  11.080
55420W        W27746   3.454   8.647  12.086
55421W        W27747   3.816  17.344   4.349
55422W        W27748   7.672  34.494   0.406
55423W        W27749  19.567  29.683  14.393
55424W        W27750   3.442   3.517   3.708
55425W        W27751  40.543   6.712   3.709
55426W        W27752  40.771  15.375   1.245
55427W        W27753   0.563  28.668  12.096
55428W        W27754  34.158  24.228  14.052
55429W        W27755  20.993  23.446  13.784
55430W        W27756  44.237  24.367  10.516
55431W        W27757  19.544  44.078  10.722
55432W        W27758  13.299  19.149   0.722
55433W        W27759  44.893  27.207  12.882
55434W        W27760   7.105  21.645   3.662
55435W        W27761  34.078   1.377  11.619
55436W        W27762  10.750   2.789  13.947
55437W        W27763   9.335  16.120   0.866
55438W        W27764   5.451  24.487   4.138
55439W        W27765  16.620  20.797   2.362
55440W        W27766  22.959  33.659  12.401
55441W        W27767  22.181  43.055   2.688
55442W        W27768   8.688  17.679   0.762
55443W        W27769   1.071   1.784   0.399
55444W        W27770  36.099   3.100  11.159
55445W        W27771  33.032  12.078  14.206
55446W        W27772  34.929  42.731  12.503
55447W        W27773  12.766   7.979  14.365
55448W        W27774  40.160  18.222  13.541
55449W        W27775  21.742   8.701  13.032
55450W        W27776   7.711  19.140  11.141
55451W        W27777  40.035  40.268  11.687
55452W        W27778   4.126  21.180  10.602
55453W        W27779   0.318  15.871  13.845
55454W        W27780   7.114  14.674   0.891
55455W        W27781  39.033  20.687  13.105
55456W        W27782  31.417  35.481   1.260
55457W        W27783  44.018   8.623   3.919
55458W        W27784  15.157  17.740  11.373
55459W        W27785  10.704   7.042  12.515
55460W        W27786  13.516  22.228   3.377
55461W        W27787  40.761   0.315  13.907
55462W        W27788  27.643   5.926   0.368
55463W        W27789  30.616  20.323   1.338
55464W        W27790  13.268  34.138  14.030
55465W        W27791  29.068   3.052   0.613
55466W        W27792   9.232  11.194   2.194
55467W        W27793  13.513   0.312   4.291
55468W        W27794  13.786  38.149  14.857
55469W        W27795  39.220  20.164   2.744
55470W        W27796  14.914  36.478   3.129
55471W        W27797  23.696  21.502   2.165
55472W        W27798   1.671  34.848   1.477
55473W        W27799   4.302  32.003   1.307
55474W        W27800  34.054  36.551  12.052
55475W        W27801   7.092  19.241   4.568
55476W        W27802   9.108  14.495   3.755
55477W        W27803  41.524  25.464   1.474
55478W        W27804  38.903  39.725   4.381
55479W        W27805  11.718   3.857  14.549
55480W        W27806  10.740  26.560  13.872
55481W        W27807  20.104   3.509   4.087
55482W        W27808  30.502  34.004   0.018
55483W        W27809  32.471   2.623  11.164
55484W        W27810  34.536  39.773   0.450
55485W        W27811  39.235  31.842   1.823
55486W        W27812  11.095   4.354   0.584
55487W        W27813  42.396  13.598  12.397
55488W        W27814  11.398  10.126  10.574
55489W        W27815  42.015   8.334   1.725
55490W        W27816  38.461  43.321   4.204
55491W        W27817  25.221   9.336  11.933
55492W        W27818  36.214  42.885   2.745
55493W        W27819   6.723  27.115   3.576
55494W        W27820  16.101  25.484   2.296
55495W        W27821  21.680   9.223   1.737
55496W        W27822  37.625  37.341  13.956
55497W        W27823  25.181   1.068  13.308
55498W        W27824  17.568  29.394   2.738
55499W        W27825   1.244  36.456  12.076
55500W        W27826   1.036  16.141  12.472
55501W        W27827  30.458   7.330  11.564
55502W        W27828  23.509   1.060  11.162
55503W        W27829  31.487  29.636   0.904
55504W        W27830  13.546  39.270  14.573
55505W        W27831  30.956  30.589  13.472
55506W        W27832  40.541  44.715  12.829
55507W        W27833   7.925  14.727   1.350
55508W        W27834   3.380  23.189   0.752
55509W        W27835  29.693  22.501   5.018
55510W        W27836  39.917   9.867  14.774
55511W        W27837  31.479   0.399  13.493
55512W        W27838  28.008  14.300  13.945
55513W        W27839   5.762  19.188   4.187
55514W        W27840  19.847  28.089   1.221
55515W        W27841  17.176   6.799   4.549
55516W        W27842   5.764  27.926  13.092
55517W        W27843   0.363  23.722  11.960
55518W        W27844  18.371  14.821   3.757
55519W        W27845  37.123  27.447  13.316
55520W        W27846  43.074  32.865   0.230
55521W        W27847   0.653  30.107   4.336
55522W        W27848  43.795  18.622   4.516
55523W        W27849  42.363  36.042  12.406
55524W        W27850  17.282  18.985   0.427
55525W        W27851  30.052  17.138  12.140
55526W        W27852  42.858  27.188  10.811
55527W        W27853  43.879  15.342   0.213
55528W        W27854  43.507   2.533   0.928
55529W        W27855   3.771  15.538  12.000
55530W        W27856   2.998  20.187  13.209
55531W        W27857  42.568  43.845  12.464
55532W        W27858  32.738  15.898  11.530
55533W        W27859  42.108  30.272   3.270
55534W        W27860  37.949  18.496  12.838
55535W        W27861   5.471  42.712  12.470
55536W        W27862  27.968  43.950   2.604
55537W        W27863  23.714   1.242   0.391
55538W        W27864  11.900  44.868   4.799
55539W        W27865   0.785  43.468   2.323
55540W        W27866   0.141  21.309  11.579
55541W        W27867  40.710  26.848  10.275
55542W        W27868   0.749   7.098   2.276
55543W        W27869  26.763   2.764   0.364
55544W        W27870  41.940  15.718  11.001
55545W        W27871  19.678   8.466   3.656
55546W        W27872  13.500  44.032  14.562
55547W        W27873   6.845  42.999  11.112
55548W        W27874  39.995  13.183   1.361
55549W        W27875  32.105   9.422  11.599
55550W        W27876  27.686  22.575   1.440
55551W        W27877  39.061  18.055   2.578
55552W        W27878  16.588  37.405  13.527
55553W        W27879  34.991   6.382   3.244
55554W        W27880  43.742  44.271  12.991
55555W        W27881  16.015   7.104   1.385
55556W        W27882  35.457  43.757   1.872
55557W        W27883   3.348  20.990   0.371
55558W        W27884   1.829  20.294  10.635
55559W        W27885  12.064  42.383  11.954
55560W        W27886  11.887   0.334   1.764
55561W        W27887   1.276   0.564   3.156
55562W        W27888  22.455   6.102   5.000
55563W        W27889   0.049  18.291  14.222
55564W        W27890  13.094  11.677  10.814
55565W        W27891  19.360  22.581   0.226
55566W        W27892  15.889  42.057  11.953
55567W        W27893  11.280  16.764   0.873
55568W        W27894  11.198  27.391   2.322
55569W        W27895  37.734  21.478   2.294
55570W        W27896  26.828  16.321   3.735
55571W        W27897  37.311  14.080   0.235
55572W        W27898   3.172  35.143  12.633
55573W        W27899   2.224  25.104   3.658
55574W        W27900  43.068  40.049   3.684
55575W        W27901   7.364  21.427   1.715
55576W        W27902  19.080  13.090  14.413
55577W        W27903  39.991  11.360   2.701
55578W        W27904  21.158  23.007   4.150
55579W        W27905  33.335  42.856   0.225
55580W        W27906  30.100  37.403  13.781
55581W        W27907  43.519   2.120   1.874
55582W        W27908  23.549  18.556   0.302
55583W        W27909  37.893  33.608   1.921
55584W        W27910  15.060  36.331   2.217
55585W        W27911  40.327   1.807   4.281
55586W        W27912  21.126  33.655   3.389
55587W        W27913   6.553  35.802   4.621
55588W        W27914  25.021  19.937  12.754
55589W        W27915  27.098  41.246   3.797
55590W        W27916  15.267  44.503   1.096
55591W        W27917  38.474  36.355  12.056
55592W        W27918   1.475  30.379   1.956
55593W        W27919  33.860   7.425   2.624
55594W        W27920  17.186  38.012  10.444
55595W        W27921  40.091  27.947   4.610
55596W        W27922  35.524  18.819  11.945
55597W        W27923   3.721  42.905   1.984
55598W        W27924  36.474   1.059   4.482
55599W        W27925  36.606  33.993   1.369
55600W        W27926   7.306   4.478   4.017
55601W        W27927  14.855  18.043   0.943
55602W        W27928  44.954  29.001  13.088
55603W        W27929  20.687   1.923  11.262
55604W        W27930  31.471   7.648  14.808
55605W        W27931  36.507  13.113  10.079
55606W        W27932  43.824  25.483  12.583
55607W        W27933  18.774  24.009   3.715
55608W        W27934   6.393  10.354   1.749
55609W        W27935  25.280   4.342   2.432
55610W        W27936  23.204  32.109  11.642
55611W        W27937   2.154  29.415   2.790
55612W        W27938   7.591  23.991   4.018
55613W        W27939  37.616   5.885   1.712
55614W        W27940   0.642  18.876   3.614
55615W        W27941   1.799   1.984  10.529
55616W        W27942  36.816   3.833   3.742
55617W        W27943   5.952  32.973  11.143
55618W        W27944  11.861  13.089  13.677
55619W        W27945   1.716   1.939  12.020
55620W        W27946   8.512  17.495   4.337
55621W        W27947  10.278   3.707   3.800
55622W        W27948  20.030   9.299  12.903
55623W        W27949  42.460   4.195  12.129
55624W        W27950  10.248   7.357   4.534
55625W        W27951   0.355   4.644   3.290
55626W        W27952  30.359  17.560   4.155
55627W        W27953   6.344  13.806  12.845
55628W        W27954  30.071   8.342  12.466
55629W        W27955  41.469  30.426  10.728
55630W        W27956   2.612  22.737   2.708
55631W        W27957  20.278  34.361  12.413
55632W        W27958  29.784  10.803  14.893
55633W        W27959  42.848  28.428   4.512
55634W        W27960  24.929  37.361   0.761
55635W        W27961   9.157   4.420  13.880
55636W        W27962  12.642  43.592   0.959
55637W        W27963  43.267  43.706  14.312
55638W        W27964  25.700  33.348  14.386
55639W        W27965   7.754  22.562  12.489
55640W        W27966  10.872  17.592  11.575
55641W        W27967  39.781  21.942  11.158
55642W        W27968   9.985  19.484   9.545
55643W        W27969  18.201  13.835  12.104
55644W        W27970  13.010   7.585   0.855
55645W        W27971  24.299   6.136   3.094
55646W        W27972  22.528  35.669  10.262
55647W        W27973  31.040  41.374  14.298
55648W        W27974  30.204  18.108  12.974
55649W        W27975  16.252   1.220   2.251
55650W        W27976  26.988  34.008   3.798
55651W        W27977  21.268  26.615   2.348
55652W        W27978  31.459   5.917   0.428
55653W        W27979  36.027  27.743  11.602
55654W        W27980  31.928  32.500   2.819
55655W        W27981  26.714  26.708  13.096
55656W        W27982  44.588   2.283   3.637
55657W        W27983  27.790  37.506  10.599
55658W        W27984  40.422  18.312  11.572
55659W        W27985  35.736   4.015   1.693
55660W        W27986  23.540  33.894  14.963
55661W        W27987  10.534  12.857  12.159
55662W        W27988   7.004  18.298  12.554
55663W        W27989   9.091  37.781   0.425
55664W        W27990  24.998  42.501   0.937
55665W        W27991  19.515  29.195  12.648
55666W        W27992  16.308  27.581   1.861
55667W        W27993  37.861  34.561  14.887
55668W        W27994  13.382  44.269   4.588
55669W        W27995  30.831  20.763   4.318
55670W        W27996  11.129  31.548   0.478
55671W        W27997   1.229  31.577   1.191
55672W        W27998  10.212  17.578  12.714
55673W        W27999  14.218  27.962   4.839
55674W        W28000  39.107  31.674   1.338
55675W        W28001  23.059  13.167   4.729
55676W        W28002  27.270   6.175   4.037
55677W        W28003  21.585  31.506  11.195
55678W        W28004   4.908  33.909   0.636
55679W        W28005  16.733   6.812   3.688
55680W        W28006  34.011  15.042   3.423
55681W        W28007   4.287  23.648   0.467
55682W        W28008  43.336  25.282  12.383
55683W        W28009  20.034  19.464  14.004
55684W        W28010  36.369   9.445  12.048
55685W        W28011  35.470  21.638  13.597
55686W        W28012  16.594  23.247  12.644
55687W        W28013  38.072  14.955   4.142
55688W        W28014  23.978  17.743  11.733
55689W        W28015  41.455  40.043   1.393
55690W        W28016   5.641   6.670   1.733
55691W        W28017   2.840   1.484  12.865
55692W        W28018   8.410  18.790  12.154
55693W        W28019   1.592  32.672   4.862
55694W        W28020  41.058   4.294  11.518
55695W        W28021  27.631   7.518   3.468
55696W        W28022   5.944   8.684   1.825
55697W        W28023  36.845  31.606  12.472
55698W        W28024  43.702  19.142  11.158
55699W        W28025  11.692  36.156  14.352
55700W        W28026  42.302  25.926  12.090
55701W        W28027  33.560   1.198  14.977
55702W        W28028  44.743   5.108   2.586
55703W        W28029  11.646  31.538  10.036
55704W        W28030  44.268  32.215   4.977
55705W        W28031  33.701  10.849   2.573
55706W        W28032  25.751  39.638   0.429
55707W        W28033  39.259  31.842   4.700
55708W        W28034   7.370   9.408   2.779
55709W        W28035   3.173  26.224  13.906
55710W        W28036  35.676  25.994  14.380
55711W        W28037   8.725   6.495  12.040
55712W        W28038  31.969   4.927  14.845
55713W        W28039  16.263   6.159   2.298
55714W        W28040  42.857  18.074   4.575
55715W        W28041   5.893  11.173  13.298
55716W        W28042  42.740  32.393  11.488
55717W        W28043   0.113  27.531  13.491
55718W        W28044  33.834  34.521   0.940
55719W        W28045  44.615  36.139   1.209
55720W        W28046  29.191  32.968   1.509
55721W        W28047  28.070  14.921   3.704
55722W        W28048  43.869  23.867   4.827
55723W        W28049   3.809  22.059  14.023
55724W        W28050  34.078  36.580   0.338
55725W        W28051  27.933  17.308   3.176
55726W        W28052  14.159  29.364  14.835
55727W        W28053  40.938  31.437   2.287
55728W        W28054  40.368  41.863  12.459
55729W        W28055  36.878  24.031  12.004
55730W        W28056  25.995  14.559  12.888
55731W        W28057   6.325  17.990   4.528
55732W        W28058  31.058   5.580  12.323
55733W        W28059  39.784  14.647  10.580
55734W        W28060  27.030   9.123  13.045
55735W        W28061  36.613  27.631  14.253
55736W        W28062  27.960   7.621  11.608
55737W        W28063   4.160  25.087  11.706
55738W        W28064  33.249   3.649   2.734
55739W        W28065  35.403  30.610  10.537
55740W        W28066   5.189  26.678  10.541
55741W        W28067   9.285  14.260  13.981
55742W        W28068  41.496   6.319  11.220
55743W        W28069   1.141  11.870   5.013
55744W        W28070   4.411  37.348   0.388
55745W        W28071  28.335  44.333  12.859
55746W        W28072  34.995  35.482   5.174
55747W        W28073   3.126  14.280   1.753
55748W        W28074  39.525  19.140   4.493
55749W        W28075  11.930  31.145   3.863
55750W        W28076  43.794  29.060  10.653
55751W        W28077  20.155  44.347   0.503
55752W        W28078  23.214  19.155   3.450
55753W        W28079  18.231  34.260   0.257
55754W        W28080  18.353  39.314  13.960
55755W        W28081  24.710  34.586  10.444
55756W        W28082  21.931   6.796   0.412
55757W        W28083   5.503  22.702   2.792
55758W        W28084  21.536  18.296   3.572
55759W        W28085  36.512  38.936   1.823
55760W        W28086  40.617  35.609  12.812
55761W        W28087  37.352  23.012  14.412
55762W        W28088  10.792  15.678   1.862
55763W        W28089  33.368  11.118  12.849
55764W        W28090  16.503   8.755  10.989
55765W        W28091  10.183  21.310  14.973
55766W        W28092  24.430  40.871  14.219
55767W        W28093  12.118  15.749  10.636
55768W        W28094  17.722  37.672   4.323
55769W        W28095  26.444  21.571  11.205
55770W        W28096  34.011  36.824   4.914
55771W        W28097   8.309  21.346   3.168
55772W        W28098  14.481  43.682   2.969
55773W        W28099   4.340  40.335   0.776
55774W        W28100   5.259  15.533   4.277
55775W        W28101  41.281  17.662   2.292
55776W        W28102  34.420  16.863   2.337
55777W        W28103  13.625  23.238  14.822
55778W        W28104   4.474  19.569   0.706
55779W        W28105  32.579   6.370   0.740
55780W        W28106  11.527  11.543  13.711
55781W        W28107  11.611   7.656   4.857
55782W        W28108  18.177  37.903  10.904
55783W        W28109  27.049  21.983   3.750
55784W        W28110  33.820  24.398  11.055
55785W        W28111  30.584   4.251  12.468
55786W        W28112  41.278  41.825  11.239
55787W        W28113  14.171   6.751  13.862
55788W        W28114  43.946  11.829  13.069
55789W        W28115  33.455   8.341  14.931
55790W        W28116   1.753  18.797   1.836
55791W        W28117  39.101  27.503   3.261
55792W        W28118  22.523  41.026  13.839
55793W        W28119  10.501  43.888  10.947
55794W        W28120  10.765   4.742  13.838
55795W        W28121  35.797  41.763  11.121
55796W        W28122  23.968   4.289   1.217
55797W        W28123  31.432   0.798   3.115
55798W        W28124  25.909  27.915   1.209
55799W        W28125  20.187   8.839  14.824
55800W        W28126   1.868  30.990   1.227
55801W        W28127   0.554  17.093  11.218
55802W        W28128  43.952   8.230  11.335
55803W        W28129  20.709   7.475   5.181
55804W        W28130  28.713  44.323   1.657
55805W        W28131  21.812  17.690   0.712
55806W        W28132  40.809  32.000   0.052
55807W        W28133  15.711   2.282   3.677
55808W        W28134  35.394  34.899   3.722
55809W        W28135  24.049  36.416   5.049
55810W        W28136  20.372  26.637   4.161
55811W        W28137  24.057  19.697   4.326
55812W        W28138  39.363  16.620  12.080
55813W        W28139  43.317  24.979  10.715
55814W        W28140   5.309  28.937  12.449
55815W        W28141   1.752  17.335   1.943
55816W        W28142  26.207  23.163  11.081
55817W        W28143  32.079  10.795   0.349
55818W        W28144   5.359  29.304   1.275
55819W        W28145  15.651  20.176  13.996
55820W        W28146  35.053  35.149   1.945
55821W        W28147  20.602  21.233   1.033
55822W        W28148  32.124  40.955   4.241
55823W        W28149  34.141   5.887  11.647
55824W        W28150  20.858  38.134  10.614
55825W        W28151  29.153   5.363   0.236
55826W        W28152   1.184  26.864  12.474
55827W        W28153   1.222  11.470   5.526
55828W        W28154  23.050  44.065   1.771
55829W        W28155  33.906  16.676  11.896
55830W        W28156  43.250  29.516   2.331
55831W        W28157  44.810   5.254   0.843
55832W        W28158  39.001  16.661  11.689
55833W        W28159  21.821  35.604   1.377
55834W        W28160  39.561   3.664  13.881
55835W        W28161  40.041  23.642  11.526
55836W        W28162  38.773  17.500  13.867
55837W        W28163  27.520  43.911  13.061
55838W        W28164  29.536   6.189  13.790
55839W        W28165  38.110  21.129   1.964
55840W        W28166  25.418  24.625  11.958
55841W        W28167  38.980  41.461   2.195
55842W        W28168  27.221   3.806   3.651
55843W        W28169  23.949  37.512  13.396
55844W        W28170   9.229   9.316  14.443
55845W        W28171  43.576   1.904   0.373
55846W        W28172  36.016  28.005  10.642
55847W        W28173  18.058  40.935   2.200
55848W        W28174  37.987  20.206   3.394
55849W        W28175  37.563  23.456   3.345
55850W        W28176  28.868   7.278  12.500
55851W        W28177  11.082  14.099  11.160
55852W        W28178   3.362  17.056   2.998
55853W        W28179  42.784  26.094  12.679
55854W        W28180   9.309   7.221  14.433
55855W        W28181  21.032  18.272   3.480
55856W        W28182  10.288   2.977   4.287
55857W        W28183   2.941  37.133  14.488
55858W        W28184   0.282  25.353  14.980
55859W        W28185   1.072  25.454  12.161
55860W        W28186  29.206  44.510   1.714
55861W        W28187  40.218   1.193  11.095
55862W        W28188  35.004  22.140  10.940
55863W        W28189  35.897  22.126   0.865
55864W        W28190  28.499  44.454   4.885
55865W        W28191  31.657  39.051   2.391
55866W        W28192  35.963  42.938  11.627
55867W        W28193  11.443  25.444  10.146
55868W        W28194  28.510  39.535   3.946
55869W        W28195  21.554  27.625   4.507
55870W        W28196  29.964   0.746  10.957
55871W        W28197  43.753   3.301  11.098
55872W        W28198   5.821  31.031   0.434
55873W        W28199  14.601  37.444   2.593
55874W        W28200   7.580  35.246  12.425
55875W        W28201   7.401   8.856  10.434
55876W        W28202   9.860  21.617  11.092
55877W        W28203  30.596   0.550  12.040
55878W        W28204  31.173  35.451   4.126
55879W        W28205  43.949  44.531  13.870
55880W        W28206  14.175  11.180   1.853
55881W        W28207  13.237  20.244  10.455
55882W        W28208   0.593   2.245  14.524
55883W        W28209  10.826  13.380   3.355
55884W        W28210  36.338   1.103  12.985
55885W        W28211  40.220  33.542   4.348
55886W        W28212  32.644  27.603   2.803
55887W        W28213  17.138  14.724   2.625
55888W        W28214  18.646  23.069  14.729
55889W        W28215  41.912  15.535  12.400
55890W        W28216  16.338  15.783   3.591
55891W        W28217  19.474  31.347   3.250
55892W        W28218   9.612  12.672  13.501
55893W        W28219  19.350  42.760   2.290
55894W        W28220  35.075  28.669  13.449
55895W        W28221   8.289   4.733  12.053
55896W        W28222  26.733  37.473  14.407
55897W        W28223  43.939  13.888   1.709
55898W        W28224  19.308  12.609   3.610
55899W        W28225   3.942  43.765   1.807
55900W        W28226  34.189   7.042  13.741
55901W        W28227  28.505  44.196  14.928
55902W        W28228  20.078  12.902  12.950
55903W        W28229  23.150   4.188   4.099
55904W        W28230   7.906  30.133  11.654
55905W        W28231  35.037  42.980   1.885
55906W        W28232  13.885   0.667   4.298
55907W        W28233  14.407  14.795   0.398
55908W        W28234  40.409  12.054   0.640
55909W        W28235  35.843  13.188   3.283
55910W        W28236  30.001  10.960   1.881
55911W        W28237   3.766  37.633   3.535
55912W        W28238  40.992  44.900  11.584
55913W        W28239  25.222  32.670   3.489
55914W        W28240  28.927  10.232   2.802
55915W        W28241  38.314  42.885   4.532
55916W        W28242  34.296  13.587   4.070
55917W        W28243  10.787  19.071   0.776
55918W        W28244  31.267  12.875  11.597
55919W        W28245  10.655  11.446   1.645
55920W        W28246   9.293  21.784  10.933
55921W        W28247  22.465  42.822   1.435
55922W        W28248  11.372   3.971  10.292
55923W        W28249  33.720  19.144  12.156
55924W        W28250   0.048  10.820  11.229
55925W        W28251  36.001  13.399   1.825
55926W        W28252  13.093   5.519  10.252
55927W        W28253  36.470  29.847  12.082
55928W        W28254  34.951  34.680  14.856
55929W        W28255  41.942  42.554  14.993
55930W        W28256   1.965  29.463  13.957
55931W        W28257  38.398  23.522   1.738
55932W        W28258  14.851  20.338   0.359
55933W        W28259  31.969   8.425  10.463
55934W        W28260  41.369  10.799  14.974
55935W        W28261  33.867  39.899  12.973
55936W        W28262  37.456  10.092  13.514
55937W        W28263  10.303   8.679   3.863
55938W        W28264  31.107  27.484   3.663
55939W        W28265  16.910  34.976   3.491
55940W        W28266  15.434  30.052   2.893
55941W        W28267  36.416  44.303   2.122
55942W        W28268   9.157   3.508  11.455
55943W        W28269  28.523  42.601  10.716
55944W        W28270  35.919  18.588   0.938
55945W        W28271  35.049  28.853  14.664
55946W        W28272  13.342  21.788   3.179
55947W        W28273  14.584  28.414   1.355
55948W        W28274  11.702  13.165   0.154
55949W        W28275  43.281   2.046  10.796
55950W        W28276   6.651  29.864   1.299
55951W        W28277  27.281  23.116  14.907
55952W        W28278  13.593  14.760  10.831
55953W        W28279  19.555  31.530  10.645
55954W        W28280  36.477   0.163  11.939
55955W        W28281  18.463  21.629   2.897
55956W        W28282  35.445  38.410  13.160
55957W        W28283  27.466  21.648   3.842
55958W        W28284  27.150   5.613   4.760
55959W        W28285  10.375  11.017  14.496
55960W        W28286  18.566  16.425  11.237
55961W        W28287  26.486  18.740   4.136
55962W        W28288  40.606   4.400   4.152
55963W        W28289  34.122   9.118   0.263
55964W        W28290  16.097   9.648   1.225
55965W        W28291   7.826  33.389   2.630
55966W        W28292  22.460  21.739  10.671
55967W        W28293  13.608  18.338  14.858
55968W        W28294  17.160  30.461  13.105
55969W        W28295  30.873  35.885   4.124
55970W        W28296  29.113  43.047   0.032
55971W        W28297  32.460  22.383  14.743
55972W        W28298  20.207  42.571  14.963
55973W        W28299  40.651  26.027  13.135
55974W        W28300   4.084  29.398   2.766
55975W        W28301  21.227  29.543   1.386
55976W        W28302  13.236  36.072   3.678
55977W        W28303  24.156  43.551   2.671
55978W        W28304  32.684   5.077   2.321
55979W        W28305   4.678   7.376  14.808
55980W        W28306  43.452  34.569   0.745
55981W        W28307  25.293  23.236  14.504
55982W        W28308  13.421  36.573   5.043
55983W        W28309  20.175  21.649  14.536
55984W        W28310  36.455  34.075   0.117
55985W        W28311   0.759  32.307   2.716
55986W        W28312   0.535  32.962   1.157
55987W        W28313  39.352  12.351  13.918
55988W        W28314  35.020  14.123   3.737
55989W        W28315  43.305  14.382  13.070
55990W        W28316  40.734  19.256   1.870
55991W        W28317  24.959   5.133   0.731
55992W        W28318   3.119  40.465  14.308
55993W        W28319  35.405  35.549  13.464
55994W        W28320   8.401  13.395  11.583
55995W        W28321  22.142   3.466   2.723
55996W        W28322   6.858  40.815   4.549
55997W        W28323  25.708  15.833   1.102
55998W        W28324  19.048  40.076  12.165
55999W        W28325  35.496  17.456   4.659
56000W        W28326   9.902   9.981  13.027
56001W        W28327  15.639   3.696  12.556
56002W        W28328  33.422  42.207  12.026
56003W        W28329  11.656   1.742  10.680
56004W        W28330  40.253  38.534   0.447
56005W        W28331  14.826  23.108  13.456
56006W        W28332  27.635  31.649   2.276
56007W        W28333  22.690   7.904  11.844
56008W        W28334  15.691  12.673   0.687
56009W        W28335  16.526  38.464   3.278
56010W        W28336  40.286  15.696   1.854
56011W        W28337   0.223  35.968  11.408
56012W        W28338   9.752  19.419   4.031
56013W        W28339  23.714   2.419  12.050
56014W        W28340  39.993  39.590   1.923
56015W        W28341  42.592  13.668  11.877
56016W        W28342  33.420  19.852   0.902
56017W        W28343   3.663   9.722   4.086
56018W        W28344  41.984  22.038  10.600
56019W        W28345  34.883  16.880  13.340
56020W        W28346   6.470   8.462  12.485
56021W        W28347   1.659  43.936  13.062
56022W        W28348   4.641  43.484  10.940
56023W        W28349  42.501  43.884   3.806
56024W        W28350   5.343  16.524   3.606
56025W        W28351  31.560   4.411  14.517
56026W        W28352  25.298   2.466  12.137
56027W        W28353  24.424   3.932  14.272
56028W        W28354   2.165   8.251   3.436
56029W        W28355  21.424  21.616  10.334
56030W        W28356  19.497  35.462   1.784
56031W        W28357  38.622  37.552   0.292
56032W        W28358   3.210  22.794   4.927
56033W        W28359  38.629  35.447  11.053
56034W        W28360  19.270  33.338  12.869
56035W        W28361  31.422  37.819   4.175
56036W        W28362  38.382  11.321  11.271
56037W        W28363  28.287  13.470  11.127
56038W        W28364  25.993  41.514   0.959
56039W        W28365  40.231  21.188   2.773
56040W        W28366  41.025  29.958  12.424
56041W        W28367  43.205   8.812  14.878
56042W        W28368  20.264   1.295   1.737
56043W        W28369  20.817  29.940  10.501
56044W        W28370  28.890   3.451   4.145
56045W        W28371  36.489   1.719   3.808
56046W        W28372  35.583  11.768  12.921
56047W        W28373  42.848  24.678  12.616
56048W        W28374   8.953  17.353  13.554
56049W        W28375  19.466  15.474  14.798
56050W        W28376  32.108  36.919  12.697
56051W        W28377   8.019  41.356   3.045
56052W        W28378   9.362  15.570  11.309
56053W        W28379   1.386   7.339   0.439
56054W        W28380   8.265   7.551  12.774
56055W        W28381  43.987  20.625   4.160
56056W        W28382  24.465  44.699  10.675
56057W        W28383  41.566   0.570   2.310
56058W        W28384  13.754   1.969   0.282
56059W        W28385  11.752   7.287   3.218
56060W        W28386   2.359  19.194   4.535
56061W        W28387   6.712  41.540  10.893
56062W        W28388  17.565  30.415  14.942
56063W        W28389  24.177   9.701  11.397
56064W        W28390  38.788  39.454  10.473
56065W        W28391  37.796  44.730   4.619
56066W        W28392  28.964  42.336  14.276
56067W        W28393  32.097  22.035  11.487
56068W        W28394  40.376  11.321  13.508
56069W        W28395   7.608  29.668   2.144
56070W        W28396  30.775  42.920  14.257
56071W        W28397  23.263  31.511  12.920
56072W        W28398  36.379   3.244   2.285
56073W        W28399   8.331  13.899  11.724
56074W        W28400  44.321  26.576   4.525
56075W        W28401  20.229  31.468   1.476
56076W        W28402  13.968  11.080  12.539
56077W        W28403  30.423  20.596   0.934
56078W        W28404  19.033  12.234  14.734
56079W        W28405  23.475  34.665   0.342
56080W        W28406  26.645   4.765   1.970
56081W        W28407  20.134   0.039   2.145
56082W        W28408   2.685  27.973  10.761
56083W        W28409  33.193  29.931   1.450
56084W        W28410  30.648   3.327   3.876
56085W        W28411  15.834  22.234   3.717
56086W        W28412  17.160  32.141  10.602
56087W        W28413  23.692  41.626  12.960
56088W        W28414  15.559   1.982  11.543
56089W        W28415   6.221  16.346  14.960
56090W        W28416  39.723  17.471  10.944
56091W        W28417  18.452   1.299   0.800
56092W        W28418  33.499  32.394   3.304
56093W        W28419  10.832  11.673  14.922
56094W        W28420  19.722  12.374   0.858
56095W        W28421  13.826   7.270  13.156
56096W        W28422  38.383   8.137  13.968
56097W        W28423  23.902  19.726  14.868
56098W        W28424  33.137  42.278   4.585
56099W        W28425  26.105  44.351   3.425
56100W        W28426  35.872   4.150  10.930
56101W        W28427  40.823   6.626  13.355
56102W        W28428  37.486  30.011  10.780
56103W        W28429  18.511  26.714   3.252
56104W        W28430  32.957   0.098   3.561
56105W        W28431   1.172  32.912  12.557
56106W        W28432  30.177  15.063  14.861
56107W        W28433  23.085  40.386   2.248
56108W        W28434   8.625  42.994  11.915
56109W        W28435  34.491  18.038   3.209
56110W        W28436  32.215  19.231   0.843
56111W        W28437  41.816  35.785   1.531
56112W        W28438  29.595  16.303  10.743
56113W        W28439  29.727  40.482   2.307
56114W        W28440  36.353  36.350   3.824
56115W        W28441  18.774  37.961   4.535
56116W        W28442   4.656  29.499  12.947
56117W        W28443  37.711  13.709   3.320
56118W        W28444  15.021  28.271   2.937
56119W        W28445  15.310   3.684  11.388
56120W        W28446  30.175  15.860   3.829
56121W        W28447  17.080  35.002  10.549
56122W        W28448   4.949  14.156  13.986
56123W        W28449  33.137  10.424   0.973
56124W        W28450  25.134  34.090   2.281
56125W        W28451   9.125  29.548   0.447
56126W        W28452  13.447   2.915  12.908
56127W        W28453   9.599  23.966   3.674
56128W        W28454  22.399  27.965  13.814
56129W        W28455  37.930   6.223   3.319
56130W        W28456   8.040  23.986   2.724
56131W        W28457  33.719  31.037  14.025
56132W        W28458  25.110  28.990  10.682
56133W        W28459  31.091  30.533   0.144
56134W        W28460  40.029  15.904   0.480
56135W        W28461  42.710  23.398  11.358
56136W        W28462  17.193  12.345   4.880
56137W        W28463   0.379  37.363   1.870
56138W        W28464  28.505   6.311   3.338
56139W        W28465  42.280  15.289   3.916
56140W        W28466   4.185  21.192  14.427
56141W        W28467  29.600  36.760   2.751
56142W        W28468   9.908  44.290   3.817
56143W        W28469  24.715  23.932   3.983
56144W        W28470  30.527  27.000   2.212
56145W        W28471   0.344  14.918   2.368
56146W        W28472  42.277   0.946  13.365
56147W        W28473  16.902  29.953  11.371
56148W        W28474   1.936  24.512   3.161
56149W        W28475   5.838   4.311   1.472
56150W        W28476  18.324  35.275  14.710
56151W        W28477  29.439  27.916  10.702
56152W        W28478   1.799  34.485   1.843
56153W        W28479   0.173  31.479   2.845
56154W        W28480  14.819  43.788   1.017
56155W        W28481  19.317  36.939  12.935
56156W        W28482   4.295   5.790   4.531
56157W        W28483  42.389  41.724   4.282
56158W        W28484   7.739  33.106  13.355
56159W        W28485  27.521  32.927   3.537
56160W        W28486  19.236  21.072   2.773
56161W        W28487  34.448  16.072   3.299
56162W        W28488  38.496   1.771  13.448
56163W        W28489  18.582  37.806   3.644
56164W        W28490  24.280  29.967  10.318
56165W        W28491   9.308  39.978  14.361
56166W        W28492  20.952   3.234  11.101
56167W        W28493  14.226  15.178  11.932
56168W        W28494   9.444  15.287   3.668
56169W        W28495  23.252  30.651   1.798
56170W        W28496  10.067  38.299   2.797
56171W        W28497  40.906  25.489   2.139
56172W        W28498   1.593  28.015  12.904
56173W        W28499   4.522  32.400   1.583
56174W        W28500   9.891  29.358   2.836
56175W        W28501  34.220   8.872   4.205
56176W        W28502  30.492  12.617  14.366
56177W        W28503   0.742  36.966   1.283
56178W        W28504  28.458  20.332  11.445
56179W        W28505  43.424  32.150  12.613
56180W        W28506  40.574   0.269   3.688
56181W        W28507  16.853  25.423   1.351
56182W        W28508   1.441  37.973  13.388
56183W        W28509  28.573  37.029  11.943
56184W        W28510   8.103   1.875  11.079
56185W        W28511   5.124  14.422  10.714
56186W        W28512  20.591  44.301   0.814
56187W        W28513   0.599  28.204   1.449
56188W        W28514  26.540  18.462  10.930
56189W        W28515  42.269  30.465  13.001
56190W        W28516  31.712  33.597   0.317
56191W        W28517   0.332  32.612  12.408
56192W        W28518  16.292  24.577  12.550
56193W        W28519  25.053  27.922   3.651
56194W        W28520   9.758   5.356  12.117
56195W        W28521  30.915  22.578   3.527
56196W        W28522   9.203  42.030   3.609
56197W        W28523  36.458   2.646   1.445
56198W        W28524  40.247  31.998  13.903
56199W        W28525  35.354  10.035   2.317
56200W        W28526   6.449  20.524  10.558
56201W        W28527  23.004  27.429  12.417
56202W        W28528  12.679  24.481   5.077
56203W        W28529  44.983  17.949   1.287
56204W        W28530  18.098  20.220   3.194
56205W        W28531  22.072   4.128  10.965
56206W        W28532   6.920  33.193   3.215
56207W        W28533  28.444   2.740  12.879
56208W        W28534   2.132  16.332   1.873
56209W        W28535  15.348  30.461   3.335
56210W        W28536   8.246  18.653   3.905
56211W        W28537  23.733  31.973  12.580
56212W        W28538  30.909   0.836   3.157
56213W        W28539  23.180  27.707  11.062
56214W        W28540  27.780  36.551   3.190
56215W        W28541  17.068  22.744   1.325
56216W        W28542  41.211  33.571  11.735
56217W        W28543  23.071  28.595  13.239
56218W        W28544  21.168  26.157   1.308
56219W        W28545  23.562  11.711   3.172
56220W        W28546  35.384   7.260   3.396
56221W        W28547  44.006  37.862   0.333
56222W        W28548  43.851  27.192  14.451
56223W        W28549  28.320   6.377   2.279
56224W        W28550  43.458   0.464  10.331
56225W        W28551  34.952  20.516   4.571
56226W        W28552  19.753  33.558   1.439
56227W        W28553  12.824   9.312   2.425
56228W        W28554  34.487  41.343  13.102
56229W        W28555  39.377   6.475   1.187
56230W        W28556   7.199  29.558   2.404
56231W        W28557   8.259  35.962  12.771
56232W        W28558  36.547  13.312   1.700
56233W        W28559  12.060  37.586  13.100
56234W        W28560  19.774  11.379   0.357
56235W        W28561  33.935  17.834  13.529
56236W        W28562  43.619  31.444   3.714
56237W        W28563  31.404   5.809  10.243
56238W        W28564   7.725  36.694  11.307
56239W        W28565  43.788  42.928   4.558
56240W        W28566  17.378  29.452  10.606
56241W        W28567  31.338  27.196   0.005
56242W        W28568  13.204  22.501  12.675
56243W        W28569  34.139  19.762   1.299
56244W        W28570  37.509   5.359  10.922
56245W        W28571  28.605  21.617   3.583
56246W        W28572  11.118  17.254   3.369
56247W        W28573  10.076   3.450   4.195
56248W        W28574   5.232  17.150   3.258
56249W        W28575  25.878  26.683   1.022
56250W        W28576  42.855  44.047   4.127
56251W        W28577  23.134  37.878   0.965
56252W        W28578   9.953   5.428   0.125
56253W        W28579  11.824  37.547   4.115
56254W        W28580  11.221  41.814  12.136
56255W        W28581  40.079  29.080   1.889
56256W        W28582  13.158  11.735   4.584
56257W        W28583  12.578  17.781   3.614
56258W        W28584  36.599  19.236   4.878
56259W        W28585   3.702   5.173   0.004
56260W        W28586   0.044  24.121   0.027
56261W        W28587  10.862  41.211   3.616
56262W        W28588  40.078  43.300  10.686
56263W        W28589  37.099  33.378   3.662
56264W        W28590  19.414  43.795  12.546
56265W        W28591  10.194  24.770   2.290
56266W        W28592   7.269   5.940   3.414
56267W        W28593  10.584   6.107   0.446
56268W        W28594  28.600   3.270   4.579
56269W        W28595  16.333  35.437  10.653
56270W        W28596  10.011   7.853   2.377
56271W        W28597  36.162  22.823  13.449
56272W        W28598  44.836  13.610   2.295
56273W        W28599  29.565  33.472  10.015
56274W        W28600  41.431  32.552   4.521
56275W        W28601  16.848  33.013   0.202
56276W        W28602  18.600  26.966  11.697
56277W        W28603  32.095   1.371   2.300
56278W        W28604  28.607   5.450   0.245
56279W        W28605  12.787  35.979   0.205
56280W        W28606  28.806  16.861  12.392
56281W        W28607  13.755  24.736   1.282
56282W        W28608  31.931   7.933  14.118
56283W        W28609  34.426   3.791  14.530
56284W        W28610  13.374  37.180  12.122
56285W        W28611  32.494  43.851   3.170
56286W        W28612  35.096  33.604   4.737
56287W        W28613  38.854   7.634  11.152
56288W        W28614  29.484  11.271   3.247
56289W        W28615   9.265  13.262   1.493
56290W        W28616  12.247  18.054  13.786
56291W        W28617  38.912   2.267  12.413
56292W        W28618  15.353  20.525  11.061
56293W        W28619  34.962   7.487   3.145
56294W        W28620  36.048  14.668   1.371
56295W        W28621  35.636  34.601  12.588
56296W        W28622  29.211  29.086   1.419
56297W        W28623  36.824   6.562  11.169
56298W        W28624   1.810  22.663  11.405
56299W        W28625  24.147  37.148   0.328
56300W        W28626  22.990  44.313  13.298
56301W        W28627  37.223  21.547   2.397
56302W        W28628  41.327  37.069  12.958
56303W        W28629  41.068   2.510  12.115
56304W        W28630  44.700  10.683  13.610
56305W        W28631  42.584  12.467  13.291
56306W        W28632  38.495  38.081   0.203
56307W        W28633   3.077  41.574  12.871
56308W        W28634  32.579  44.010  12.920
56309W        W28635  20.147  10.549   4.587
56310W        W28636  42.982  25.560   4.577
56311W        W28637  18.220   9.855  13.567
56312W        W28638  25.145  17.626   4.208
56313W        W28639  42.796  23.252  12.271
56314W        W28640  25.480  22.520   1.549
56315W        W28641   3.917  17.144  14.734
56316W        W28642  24.177  18.566  13.547
56317W        W28643  42.180   4.618   1.751
56318W        W28644  28.510  16.793   3.645
56319W        W28645  25.047  41.278   2.366
56320W        W28646   8.268  20.516  13.416
56321W        W28647  19.124  40.286   0.900
56322W        W28648  29.849  21.507  11.907
56323W        W28649  34.558  27.736  11.690
56324W        W28650  27.045  23.328   1.481
56325W        W28651  31.571  22.616  12.512
56326W        W28652  22.053   2.866   1.394
56327W        W28653  43.500   8.664   3.932
56328W        W28654  28.778  19.330  13.942
56329W        W28655  13.251  36.484  13.309
56330W        W28656  39.154  10.230  14.840
56331W        W28657   9.733  30.125   1.380
56332W        W28658  28.810  15.939  11.132
56333W        W28659  28.735  16.056   4.036
56334W        W28660  24.871   1.951  12.967
56335W        W28661  22.647  32.361   1.217
56336W        W28662  37.654  12.455   4.157
56337W        W28663  33.879  41.535  12.354
56338W        W28664  19.979  24.155  11.627
56339W        W28665  12.250  26.451   0.241
56340W        W28666  44.530   3.340  10.644
56341W        W28667  11.882  34.005  13.156
56342W        W28668  11.792   9.623   1.329
56343W        W28669   6.306   6.081  13.354
56344W        W28670  19.823  17.256   4.687
56345W        W28671   3.330   2.561   1.354
56346W        W28672   4.388  15.585  11.543
56347W        W28673  40.225   8.189   3.750
56348W        W28674  41.825   1.573   0.042
56349W        W28675  32.589  27.231   4.121
56350W        W28676  29.600   2.594   0.884
56351W        W28677  42.231  26.197   0.428
56352W        W28678  36.851  19.127  12.873
56353W        W28679  36.039  25.585   3.042
56354W        W28680  19.834  18.590  14.450
56355W        W28681   9.302  32.639  13.509
56356W        W28682  37.614  15.666   4.790
56357W        W28683  38.363  27.525   2.724
56358W        W28684  37.470  31.534  10.789
56359W        W28685  37.446  12.569  11.516
56360W        W28686   1.453  21.663   4.647
56361W        W28687   1.876  44.016   3.700
56362W        W28688   7.602  24.060  12.416
56363W        W28689  16.349  23.253   1.702
56364W        W28690   3.307  10.276  14.726
56365W        W28691  11.463  12.220  14.377
56366W        W28692  39.337   3.753   0.560
56367W        W28693  29.980   8.333   0.335
56368W        W28694  40.052  12.747  14.963
56369W        W28695  33.233   8.772   2.957
56370W        W28696  36.627  20.741  11.874
56371W        W28697   6.868   9.824  10.625
56372W        W28698  15.660  22.941  13.522
56373W        W28699  44.472   0.480  13.811
56374W        W28700   1.226   4.945   2.830
56375W        W28701   6.801   3.022  10.965
56376W        W28702  32.666  11.389  13.539
56377W        W28703  25.679   0.290  14.636
56378W        W28704  36.541  22.291  10.867
56379W        W28705  42.659  12.328  12.333
56380W        W28706  25.331   6.370   4.602
56381W        W28707  36.376  19.333  12.854
56382W        W28708  10.813  37.314  14.678
56383W        W28709  37.400  15.762  14.978
56384W        W28710  13.136  26.888  10.924
56385W        W28711  37.302  43.353  12.533
56386W        W28712  21.485  16.593  13.227
56387W        W28713  14.341   9.296  13.000
56388W        W28714   4.963  44.991   4.450
56389W        W28715  18.096  40.478   2.456
56390W        W28716   6.581  40.332   0.492
56391W        W28717   1.364  30.596   4.218
56392W        W28718  13.118  15.274   0.321
56393W        W28719  34.493  38.845   1.454
56394W        W28720   1.978   4.320   5.473
56395W        W28721  30.358  38.841   4.394
56396W        W28722  34.810  33.579   2.078
56397W        W28723  31.913  30.001   3.823
56398W        W28724   8.398  13.187   0.891
56399W        W28725  37.569   6.372  11.124
56400W        W28726  36.986  14.825   0.300
56401W        W28727   2.248  32.535   2.655
56402W        W28728  22.630   1.520  11.405
56403W        W28729  41.964  41.581  13.074
56404W        W28730  14.147  43.442  12.912
56405W        W28731  11.804   7.534  11.003
56406W        W28732   8.431  33.806  12.402
56407W        W28733  10.157  23.520  13.857
56408W        W28734  34.517  15.064   3.169
56409W        W28735  40.849  16.839  11.195
56410W        W28736   7.369  30.528   2.639
56411W        W28737  43.442  29.063  11.457
56412W        W28738  12.767  40.328  14.411
56413W        W28739  37.015  14.777  13.875
56414W        W28740  18.572  33.517  10.670
56415W        W28741  26.533  18.355   0.668
56416W        W28742   6.448   3.343  10.425
56417W        W28743  37.819  18.170  13.504
56418W        W28744  25.552   3.772   3.611
56419W        W28745  43.153  29.418   3.241
56420W        W28746   1.433  39.444   1.361
56421W        W28747   1.812  21.449  14.384
56422W        W28748  18.383  15.210  12.809
56423W        W28749  27.277  42.989   4.758
56424W        W28750  40.391   4.236  14.813
56425W        W28751   4.220   8.212  11.944
56426W        W28752  14.395  22.942   2.681
56427W        W28753  34.619  33.800   1.658
56428W        W28754   1.124  38.976  13.858
56429W        W28755  42.811  23.655  13.725
56430W        W28756   4.469   4.808   2.401
56431W        W28757  38.620  40.491  14.450
56432W        W28758  44.472  23.590   2.784
56433W        W28759  40.754  28.904   4.135
56434W        W28760   8.976   0.455   1.410
56435W        W28761  19.535   9.399   1.554
56436W        W28762  19.373  21.554  13.993
56437W        W28763  25.634   9.214   2.658
56438W        W28764   0.031  40.596  11.602
56439W        W28765  27.573  31.089  12.153
56440W        W28766   6.711  37.171   0.768
56441W        W28767  42.793  24.672   3.828
56442W        W28768  10.679  12.312  11.145
56443W        W28769  35.411  26.199   4.669
56444W        W28770  10.354   2.247   3.134
56445W        W28771  31.350   6.654   0.770
56446W        W28772  36.962  10.799  13.537
56447W        W28773  37.364  31.971  11.096
56448W        W28774  26.451  35.072  14.990
56449W        W28775  14.653  21.629   4.242
56450W        W28776  11.793  10.728  14.301
56451W        W28777  38.383   6.387   1.180
56452W        W28778  18.669  25.146  13.547
56453W        W28779  15.296  39.559   4.495
56454W        W28780   9.268  34.364   0.258
56455W        W28781  37.137  37.566  11.131
56456W        W28782  33.929  28.726   2.291
56457W        W28783  38.978  41.997   0.315
56458W        W28784  33.010  23.694   0.848
56459W        W28785  30.846  20.332   3.549
56460W        W28786  11.750  41.449   4.633
56461W        W28787  18.280   2.232  11.066
56462W        W28788  40.011  39.246   1.083
56463W        W28789  14.336  31.057   5.283
56464W        W28790  37.264  16.220   1.202
56465W        W28791  41.827  12.147   4.724
56466W        W28792  43.400  21.592  14.351
56467W        W28793  36.947  37.545   2.687
56468W        W28794   1.772  37.267  13.832
56469W        W28795  24.643  32.140  11.568
56470W        W28796   2.934  32.579   2.161
56471W        W28797  41.427  26.038  12.648
56472W        W28798  18.460  21.308  14.415
56473W        W28799  32.558   8.151  12.807
56474W        W28800   7.966  10.245   1.847
56475W        W28801   6.514   6.314  12.555
56476W        W28802  11.018  26.193  10.474
56477W        W28803  23.934   5.327   1.078
56478W        W28804  26.512  36.912  13.037
56479W        W28805  42.238   0.989  12.858
56480W        W28806  33.815  31.782   2.280
56481W        W28807  20.854  42.606   0.653
56482W        W28808  16.343   0.940   1.830
56483W        W28809  25.036  27.618   3.217
56484W        W28810   7.533  31.050  13.456
56485W        W28811  43.837  31.396  14.256
56486W        W28812  17.168  26.476  13.061
56487W        W28813  16.574   2.848  11.178
56488W        W28814  41.800  14.091   1.881
56489W        W28815  13.797  19.774   1.014
56490W        W28816  33.892   3.829  11.550
56491W        W28817  40.476  21.666   2.846
56492W        W28818   6.920  43.019   2.726
56493W        W28819  26.225  22.022  11.011
56494W        W28820   9.232  37.238  11.604
56495W        W28821   5.219   6.232  14.605
56496W        W28822  11.169   1.249   1.682
56497W        W28823  39.336  39.388   3.259
56498W        W28824   3.341  28.212   1.418
56499W        W28825  25.385   4.178   0.892
56500W        W28826  19.812  22.615   3.599
56501W        W28827  14.155  27.438  14.948
56502W        W28828  42.913  31.388  14.494
56503W        W28829  21.130  14.340  12.990
56504W        W28830   9.401   1.201   2.010
56505W        W28831  43.149  29.838  10.459
56506W        W28832  40.961  27.533  12.296
56507W        W28833  25.623  34.118  11.190
56508W        W28834  40.987  31.463  13.859
56509W        W28835  25.173  23.766  14.781
56510W        W28836  28.996  43.994   2.911
56511W        W28837  22.796   9.370   3.531
56512W        W28838   6.935  31.337  11.604
56513W        W28839  41.971  16.252  12.913
56514W        W28840   3.648   1.551  12.357
56515W        W28841  18.592  43.069  11.601
56516W        W28842   6.562  37.184   2.277
56517W        W28843   2.805  40.874  11.614
56518W        W28844  23.546  40.072  13.011
56519W        W28845  18.153  13.301   2.152
56520W        W28846  42.253   0.787   0.270
56521W        W28847  37.948  25.096   4.650
56522W        W28848  15.314  36.157   1.035
56523W        W28849  12.829  22.526  13.337
56524W        W28850   6.219  37.735  10.720
56525W        W28851  38.347  36.054   3.857
56526W        W28852  28.616   1.467  13.501
56527W        W28853  42.811  18.102   1.242
56528W        W28854  43.735  28.177  10.591
56529W        W28855  40.757  23.528   2.349
56530W        W28856  29.373   7.647   0.346
56531W        W28857   1.973   2.917   1.340
56532W        W28858  33.439  42.975   1.123
56533W        W28859  37.459   6.427  12.437
56534W        W28860  15.600   9.857   2.421
56535W        W28861  37.284  30.726  10.171
56536W        W28862  25.912  38.859  14.439
56537W        W28863   9.653  32.658  14.507
56538W        W28864   7.324  42.832  10.893
56539W        W28865  13.856  12.310  13.404
56540W        W28866  14.074  27.836  11.569
56541W        W28867  22.155  18.316  14.445
56542W        W28868  42.792  25.270   1.477
56543W        W28869   3.826  28.079  11.980
56544W        W28870  27.827  38.568   2.401
56545W        W28871  19.352   5.693   4.602
56546W        W28872   2.674  12.523  14.776
56547W        W28873  18.509  41.038   1.299
56548W        W28874  19.965  23.901  12.897
56549W        W28875   6.942  25.559  10.632
56550W        W28876   8.356  28.595  13.326
56551W        W28877   8.268  25.133   1.421
56552W        W28878  10.806   7.409   1.822
56553W        W28879  13.310   7.218  14.076
56554W        W28880   9.599  33.854  10.551
56555W        W28881   9.718  44.933  14.722
56556W        W28882  39.259  43.225  12.806
56557W        W28883  44.958  37.603  12.518
56558W        W28884  31.139  19.323  10.659
56559W        W28885  19.161   0.851  14.220
56560W        W28886  21.677  15.216  13.568
56561W        W28887  25.111  30.878  14.950
56562W        W28888   4.684  36.650  10.804
56563W        W28889  31.732  31.869   5.165
56564W        W28890  26.970  18.207   0.405
56565W        W28891  26.538  23.583  11.161
56566W        W28892  21.271  40.680  12.103
56567W        W28893  38.872  24.430  13.921
56568W        W28894  26.574  38.518   4.677
56569W        W28895  18.465  23.948  10.705
56570W        W28896  35.537  11.542  11.121
56571W        W28897  38.445  11.905   2.451
56572W        W28898  16.527  33.094   1.135
56573W        W28899  34.475  32.068  10.571
56574W        W28900  28.829  11.623   1.050
56575W        W28901   1.954  35.247  13.250
56576W        W28902  27.936  13.368   3.668
56577W        W28903   3.415   0.631   3.425
56578W        W28904  15.775  31.447  10.705
56579W        W28905  34.816  28.270  11.154
56580W        W28906  39.820  17.191   3.185
56581W        W28907  13.132  33.962  12.099
56582W        W28908  21.123  44.959  10.487
56583W        W28909   4.483   5.806   4.054
56584W        W28910  39.808   7.348  12.005
56585W        W28911  40.600  14.877  12.429
56586W        W28912  39.961  41.830   3.605
56587W        W28913   4.810  43.714   3.161
56588W        W28914   9.274  12.510   2.853
56589W        W28915  27.200  17.597  11.078
56590W        W28916   6.204  28.664  13.495
56591W        W28917   3.681   5.370   1.256
56592W        W28918   5.413  41.771   1.938
56593W        W28919   5.775  39.380  10.881
56594W        W28920  33.403   6.803  14.381
56595W        W28921   2.356  23.163  14.750
56596W        W28922  19.764   1.441   3.475
56597W        W28923   9.178  15.460  12.370
56598W        W28924   5.924   0.067  14.465
56599W        W28925  11.713  11.728   0.228
56600W        W28926  41.958  12.805   2.648
56601W        W28927  27.780  42.511  12.879
56602W        W28928  11.646  31.579  14.730
56603W        W28929  33.970  15.984   3.066
56604W        W28930   1.022  38.948   1.249
56605W        W28931   2.752   3.189  10.108
56606W        W28932  34.960  21.577  12.800
56607W        W28933  37.905   4.993   4.219
56608W        W28934  35.505  41.847  14.530
56609W        W28935  27.695  42.122  11.075
56610W        W28936  38.343  13.935   2.681
56611W        W28937   1.558  21.920  11.018
56612W        W28938  43.801   4.437   3.318
56613W        W28939  35.314  34.071  11.818
56614W        W28940  32.004  32.037  10.590
56615W        W28941  19.366   1.146   0.700
56616W        W28942  15.969  41.021   1.352
56617W        W28943  33.405  33.054  13.876
56618W        W28944  20.778  34.954   4.810
56619W        W28945  44.780  27.322  11.551
56620W        W28946  29.755  26.580   2.665
56621W        W28947  40.182  29.155  11.191
56622W        W28948  13.288  21.386   4.527
56623W        W28949  22.245  42.348   0.742
56624W        W28950  26.341  42.478  10.434
56625W        W28951  28.316  18.178   2.520
56626W        W28952  41.833  40.444   3.124
56627W        W28953  19.676  35.933   0.505
56628W        W28954  21.525   4.657   0.383
56629W        W28955  43.084  16.190   2.111
56630W        W28956  36.316  26.609  14.416
56631W        W28957  31.916   4.400  10.311
56632W        W28958  39.854  39.121  13.077
56633W        W28959  43.047  13.666  12.475
56634W        W28960  41.241  41.133   3.172
56635W        W28961  30.909  29.498   4.168
56636W        W28962  15.983  27.125  10.620
56637W        W28963   8.789  41.027  14.412
56638W        W28964   4.925  40.071   4.116
56639W        W28965  32.316  33.902   3.692
56640W        W28966  42.775  13.392   3.219
56641W        W28967  38.503  20.532   3.976
56642W        W28968  22.906   2.286   4.139
56643W        W28969  29.071  44.023   1.395
56644W        W28970   6.087  20.801  14.306
56645W        W28971  28.580  12.899  14.745
56646W        W28972   0.193  24.803  11.118
56647W        W28973   6.340  40.282   4.107
56648W        W28974  35.688  37.162  12.057
56649W        W28975   7.216  16.245   3.603
56650W        W28976  12.769  15.296  13.894
56651W        W28977  12.206   0.074  14.446
56652W        W28978  10.829   6.120  11.702
56653W        W28979  42.017  39.980  14.881
56654W        W28980   1.429  10.881  13.989
56655W        W28981   9.277  32.079  11.878
56656W        W28982  34.160  29.389   2.883
56657W        W28983  20.444  39.000  14.802
56658W        W28984   2.737  35.449  10.899
56659W        W28985  37.090   7.902   4.737
56660W        W28986   4.652  11.613  11.193
56661W        W28987  24.176  10.972  13.369
56662W        W28988  37.160  25.302   4.220
56663W        W28989  41.892  37.018  13.895
56664W        W28990   3.459  20.552   2.856
56665W        W28991  21.091  33.365   3.794
56666W        W28992  37.970  17.752  12.013
56667W        W28993   0.299  33.999  10.639
56668W        W28994  34.371  42.853   3.724
56669W        W28995  24.080  40.270  14.859
56670W        W28996  36.979  23.762   0.031
56671W        W28997  12.188  43.064   4.097
56672W        W28998   8.185  10.418   3.208
56673W        W28999  23.905  14.345  14.158
56674W        W29000   5.958  21.601   2.898
56675W        W29001  26.024  20.020   4.726
56676W        W29002   8.202  21.136  10.674
56677W        W29003   7.758  37.454   1.923
56678W        W29004  41.966  16.549   3.281
56679W        W29005   1.942  43.968   4.578
56680W        W29006  28.407  24.562  14.340
56681W        W29007  36.408  35.959  14.443
56682W        W29008  41.314  16.742  14.520
56683W        W29009  39.091  18.982  11.431
56684W        W29010  36.319   3.212   4.513
56685W        W29011  27.776  31.543  13.870
56686W        W29012   2.443  12.097  11.076
56687W        W29013   9.397  13.797   1.324
56688W        W29014  18.644  13.596  12.154
56689W        W29015   4.948   2.348  13.825
56690W        W29016  18.257  14.083  11.188
56691W        W29017   6.410  35.158   1.642
56692W        W29018  34.175   3.246  13.746
56693W        W29019  43.524  43.278   2.445
56694W        W29020  42.473  26.130   2.963
56695W        W29021  11.157  20.119  10.742
56696W        W29022   3.854  11.517   5.478
56697W        W29023  29.649  30.182  14.397
56698W        W29024   4.753   1.236   3.519
56699W        W29025  43.769  29.618   2.153
56700W        W29026   1.542  26.908  12.047
56701W        W29027  36.512  43.493  14.531
56702W        W29028  11.169  15.244  11.558
56703W        W29029  38.284   4.990  14.948
56704W        W29030  20.101   9.197  10.674
56705W        W29031  30.062   8.675   1.856
56706W        W29032  37.010  23.519   3.293
56707W        W29033  23.531  35.917   2.909
56708W        W29034  35.017   0.993  11.045
56709W        W29035   1.403   8.613  10.157
56710W        W29036  43.745  10.892   0.333
56711W        W29037  40.495  13.560  12.165
56712W        W29038   8.186   1.016   3.119
56713W        W29039  16.791  25.592   1.832
56714W        W29040  24.034  38.094  14.508
56715W        W29041  28.999  20.776  13.779
56716W        W29042  26.592  38.033  12.351
56717W        W29043  31.029  41.071  11.408
56718W        W29044  29.953  29.071  10.448
56719W        W29045  17.695  23.749   4.059
56720W        W29046   5.185  40.900  12.145
56721W        W29047  40.904  37.899   1.559
56722W        W29048  12.311   7.945  11.992
56723W        W29049  32.077  19.448  10.805
56724W        W29050  11.184  35.516  10.944
56725W        W29051   1.360  35.423  11.581
56726W        W29052  33.307  28.171   1.796
56727W        W29053  18.517  32.949  11.490
56728W        W29054  44.588   7.734  14.251
56729W        W29055  11.658  23.165   4.925
56730W        W29056   2.224  38.949  10.485
56731W        W29057  19.879   9.218   4.803
56732W        W29058  44.203  24.793  11.947
56733W        W29059  40.800  30.859   3.566
56734W        W29060  25.289   3.368   5.110
56735W        W29061  14.998  42.807  12.003
56736W        W29062   2.292   7.438  12.289
56737W        W29063  36.036  43.523  13.743
56738W        W29064  30.857  34.847   0.269
56739W        W29065  44.409   1.249  12.968
56740W        W29066  39.396  21.910  13.336
56741W        W29067  41.594  17.755  10.796
56742W        W29068  16.725  26.238  14.436
56743W        W29069  40.421  39.941  11.221
56744W        W29070  19.238  25.105  10.748
56745W        W29071  38.535   0.653  13.256
56746W        W29072   4.911  41.073   0.798
56747W        W29073   7.642  17.086   3.971
56748W        W29074  14.447   5.638  12.148
56749W        W29075  33.010  16.768  13.597
56750W        W29076  14.777  18.067   4.140
56751W        W29077   4.317  19.654   3.163
56752W        W29078  29.848  38.915  10.620
56753W        W29079  32.889  25.220   2.483
56754W        W29080  22.411  16.857  13.577
56755W        W29081   8.154   0.015   2.921
56756W        W29082  24.970  22.373   0.261
56757W        W29083   3.625  13.285  11.582
56758W        W29084   1.940  33.827  13.835
56759W        W29085   1.818   9.211   4.715
56760W        W29086   5.167  30.203  14.728
56761W        W29087  12.093   9.653  11.447
56762W        W29088  16.531  16.001  11.602
56763W        W29089  27.211  41.893  13.848
56764W        W29090  38.013  11.150  13.840
56765W        W29091   7.340  21.887   2.278
56766W        W29092   7.718   5.916  12.055
56767W        W29093   4.171  10.712   2.441
56768W        W29094  30.903   6.271  10.673
56769W        W29095  32.137  16.933  14.114
56770W        W29096  16.749  31.090   2.847
56771W        W29097  10.391  32.176  14.554
56772W        W29098   1.033  10.756  10.988
56773W        W29099  16.341  13.483  13.890
56774W        W29100  21.131  39.779  14.571
56775W        W29101   1.261  12.548   2.222
56776W        W29102  32.959  22.141  14.787
56777W        W29103   1.297  42.260   3.309
56778W        W29104  24.724  18.564   1.151
56779W        W29105  39.136  27.220   4.535
56780W        W29106   1.535   7.851   2.268
56781W        W29107   5.325  32.634  12.489
56782W        W29108  24.841  14.262   1.171
56783W        W29109  34.168   3.964   2.650
56784W        W29110  42.964   7.958  12.844
56785W        W29111  30.982  29.886   0.948
56786W        W29112  35.144  35.436  10.230
56787W        W29113   3.241  31.057  10.985
56788W        W29114  42.015  35.986  13.464
56789W        W29115  23.039   3.867  14.265
56790W        W29116  41.362  41.097   2.248
56791W        W29117  31.544  41.384  11.395
56792W        W29118  14.272  32.562  10.340
56793W        W29119  13.867   0.741   1.773
56794W        W29120  13.166  32.028  13.000
56795W        W29121  38.312  28.910  13.863
56796W        W29122   8.797   6.271  12.490
56797W        W29123  35.123   6.675  12.119
56798W        W29124  12.535  33.448   3.783
56799W        W29125   4.728  35.230   4.944
56800W        W29126  21.959   9.832  14.505
56801W        W29127  12.283   0.293   3.551
56802W        W29128  37.998  15.539  14.269
56803W        W29129  18.148   7.119  12.963
56804W        W29130  22.755  32.088  13.582
56805W        W29131   1.570  10.374   2.473
56806W        W29132   0.979  42.566  14.212
56807W        W29133  37.477   1.750   3.585
56808W        W29134  17.108  37.416  12.154
56809W        W29135  21.055   2.358   4.388
56810W        W29136  16.097  44.585   4.112
56811W        W29137  38.878  39.308   4.107
56812W        W29138  44.788  21.730   1.687
56813W        W29139  40.074  26.968  12.618
56814W        W29140  10.640  35.948   2.149
56815W        W29141  15.072  10.495   2.098
56816W        W29142  12.858   1.047  13.328
56817W        W29143  39.997   2.757  14.775
56818W        W29144  36.565  28.999  14.871
56819W        W29145  14.791  30.435  14.188
56820W        W29146  16.244   2.589   3.493
56821W        W29147  44.896  25.152   2.055
56822W        W29148  24.024  25.061  10.607
56823W        W29149  13.168   0.458   4.732
56824W        W29150  20.759  32.148   1.203
56825W        W29151  40.988  32.500   4.215
56826W        W29152  13.565  12.684   4.103
56827W        W29153  20.217  20.216  13.081
56828W        W29154  20.180  33.082  13.195
56829W        W29155  36.538   8.673  14.685
56830W        W29156  11.844   5.813  13.875
56831W        W29157  40.207   3.891  11.541
56832W        W29158   8.706   7.396  11.068
56833W        W29159  37.945  38.413  10.813
56834W        W29160   5.453  40.945   2.431
56835W        W29161   5.931  13.199  14.543
56836W        W29162  29.879  22.283   4.275
56837W        W29163   0.865  18.777  10.469
56838W        W29164  19.405   4.214  14.814
56839W        W29165  38.016   5.335  11.043
56840W        W29166  29.092   5.204  10.766
56841W        W29167  35.412  26.441   0.884
56842W        W29168   7.707  27.493   0.463
56843W        W29169  32.988  41.898   2.816
56844W        W29170  21.930  31.914   1.127
56845W        W29171  28.162  16.067   0.576
56846W        W29172  29.765  14.372  12.484
56847W        W29173  35.457  23.717  11.975
56848W        W29174  41.374  36.904   4.790
56849W        W29175  44.281  11.569  10.125
56850W        W29176  22.116  39.440  14.966
56851W        W29177   7.993  18.741  11.833
56852W        W29178  22.817  11.809  14.903
56853W        W29179   3.532  19.955   1.624
56854W        W29180   4.772   9.772  12.372
56855W        W29181  35.882  11.819   1.226
56856W        W29182  27.967  25.036  13.144
56857W        W29183  10.793  30.230  13.426
56858W        W29184  12.684  33.537   2.835
56859W        W29185   9.143   2.036  11.034
56860W        W29186   8.435  32.026  13.159
56861W        W29187  14.796   9.119   1.071
56862W        W29188  33.543  13.867  11.625
56863W        W29189  32.823  24.049   4.360
56864W        W29190  36.508  22.527  12.402
56865W        W29191  43.256   7.535  13.758
56866W        W29192  10.424  30.622  11.177
56867W        W29193  14.754  16.302   0.490
56868W        W29194  29.236  36.807   1.236
56869W        W29195  40.335   9.892   3.839
56870W        W29196  21.034  42.985  11.154
56871W        W29197  33.128  18.105  11.745
56872W        W29198  33.818  10.221  10.657
56873W        W29199   4.830  16.678   3.659
56874W        W29200   5.596  12.779   0.692
56875W        W29201  17.753  39.637   0.221
56876W        W29202  32.109  34.620   1.800
56877W        W29203   8.721  10.433  14.826
56878W        W29204  12.868  40.508  14.901
56879W        W29205  36.375  25.454  14.868
56880W        W29206  36.478   7.774  12.890
56881W        W29207  23.252   6.894   3.340
56882W        W29208  36.610  22.996  11.588
56883W        W29209  35.409  26.203   1.786
56884W        W29210   7.125  32.616  12.061
56885W        W29211  18.393  15.234   0.231
56886W        W29212  33.203  10.601  14.332
56887W        W29213  41.827  43.561   4.297
56888W        W29214  34.136   6.894   3.307
56889W        W29215  25.398  15.655  11.171
56890W        W29216  37.131  20.156   2.126
56891W        W29217  32.940  10.186  13.822
56892W        W29218  21.625  11.466   4.535
56893W        W29219  39.901  12.130   2.247
56894W        W29220   4.831  38.900   3.261
56895W        W29221  19.291  14.089   4.472
56896W        W29222   2.889  37.472  12.088
56897W        W29223  38.743   1.768   1.725
56898W        W29224   7.776  34.632  11.048
56899W        W29225  39.413  38.671   4.257
56900W        W29226  39.972  14.550   0.769
56901W        W29227  41.117   1.841   1.674
56902W        W29228   4.679  25.079  11.723
56903W        W29229  39.409   1.526  13.354
56904W        W29230  34.300  28.327  13.538
56905W        W29231  20.760  11.453  13.357
56906W        W29232   1.491   0.316  11.076
56907W        W29233  16.342  23.150   3.960
56908W        W29234  10.673   1.064   1.766
56909W        W29235  31.278  44.751  11.354
56910W        W29236  39.022  18.534  10.161
56911W        W29237  26.110  33.984  11.567
56912W        W29238  17.970  41.342  13.756
56913W        W29239  28.160  18.602   5.079
56914W        W29240  22.860  17.731  13.987
56915W        W29241  15.291  35.141  13.989
56916W        W29242  38.745   1.474  13.967
56917W        W29243  34.555  35.490  10.193
56918W        W29244  24.619  41.047   2.802
56919W        W29245  24.587  38.363  11.396
56920W        W29246  12.491  38.395   0.911
56921W        W29247   8.363  16.131  10.756
56922W        W29248  12.776  37.142  12.100
56923W        W29249  15.741  23.511  10.825
56924W        W29250  27.187  14.850   0.876
56925W        W29251   6.160  26.004   0.908
56926W        W29252  25.108  35.499   4.968
56927W        W29253  14.547  19.095  14.092
56928W        W29254   2.564   7.834   3.223
56929W        W29255   2.934  19.483   4.354
56930W        W29256  30.662  42.385   3.196
56931W        W29257  16.789  10.004  13.153
56932W        W29258  11.153  11.814  14.531
56933W        W29259  15.093  32.865   2.822
56934W        W29260  16.650   2.173   3.411
56935W        W29261  23.633  24.446   4.194
56936W        W29262  12.088  38.987  12.584
56937W        W29263   6.392  31.166  12.370
56938W        W29264  23.536  11.076  14.933
56939W        W29265  38.528  43.096   1.274
56940W        W29266  43.977  23.757   2.165
56941W        W29267   7.601  13.714  13.394
56942W        W29268  13.020  19.265  14.473
56943W        W29269  39.542  36.046   2.993
56944W        W29270  43.442  44.336  13.906
56945W        W29271  40.978  13.615   3.386
56946W        W29272   2.000   0.439   2.570
56947W        W29273   1.217   4.521   5.412
56948W        W29274  22.545  21.005  11.629
56949W        W29275  13.795  37.314   0.234
56950W        W29276  12.714   9.895  12.177
56951W        W29277  27.989  14.716   0.445
56952W        W29278   9.352  33.543   3.856
56953W        W29279  32.737  15.591  13.737
56954W        W29280  41.440  38.356   4.383
56955W        W29281   0.462   3.864   2.144
56956W        W29282  42.921  34.328  14.916
56957W        W29283  43.065  31.876  14.320
56958W        W29284  16.516  30.636   1.660
56959W        W29285   4.252  41.900  13.452
56960W        W29286  32.111  40.526   2.896
56961W        W29287  17.666  11.097  12.078
56962W        W29288  16.710   3.032  10.709
56963W        W29289  11.312  32.898   4.211
56964W        W29290   3.274  18.294   1.406
56965W        W29291   2.655   3.157  13.666
56966W        W29292  28.439  35.621   2.736
56967W        W29293  44.520   1.587  13.350
56968W        W29294  30.421  26.701   1.312
56969W        W29295  19.042  41.513  13.860
56970W        W29296   2.960  25.458  14.529
56971W        W29297  10.726  14.213  11.566
56972W        W29298   8.767  44.568  11.983
56973W        W29299  23.011  13.873   3.493
56974W        W29300   0.417  36.957   4.166
56975W        W29301  25.543  37.155   0.404
56976W        W29302  25.454  22.441   4.086
56977W        W29303  13.635  15.684   2.904
56978W        W29304  32.875   7.169   2.856
56979W        W29305  12.355  44.280   3.095
56980W        W29306  31.130  44.038   3.308
56981W        W29307   5.252   4.474  12.408
56982W        W29308  19.239  27.560   1.632
56983W        W29309  26.008  10.159  11.653
56984W        W29310  34.038   4.185   3.137
56985W        W29311  21.023  38.937   0.801
56986W        W29312  30.160  44.328   2.727
56987W        W29313   6.387  10.402   5.019
56988W        W29314  11.768  30.850  11.895
56989W        W29315  33.040  42.549   3.729
56990W        W29316  26.948   4.776   0.415
56991W        W29317  26.674  17.496  11.138
56992W        W29318  18.762  28.530   1.049
56993W        W29319  23.792  32.015   1.164
56994W        W29320  37.878  19.574  13.544
56995W        W29321  30.968   0.183  11.406
56996W        W29322  40.536   2.416   2.422
56997W        W29323  25.924  10.335   3.309
56998W        W29324  42.215  35.614   2.843
56999W        W29325  23.609   3.184  13.967
57000W        W29326  33.444   1.679   2.585
57001W        W29327  27.355  43.962   0.352
57002W        W29328  21.472  37.812   3.672
57003W        W29329  18.579  13.149   2.439
57004W        W29330  17.752   7.752  13.884
57005W        W29331  44.790  34.488  14.418
57006W        W29332  39.022  17.590   2.909
57007W        W29333  42.059  41.065  13.092
57008W        W29334  22.519  24.945  14.760
57009W        W29335   2.891   0.259   3.055
57010W        W29336   7.185  36.281  13.881
57011W        W29337  14.660  39.911  14.466
57012W        W29338   0.897  35.071   1.292
57013W        W29339  12.689  36.794  14.501
57014W        W29340  22.061  13.623  14.907
57015W        W29341  28.615   7.875  13.951
57016W        W29342   8.773   4.971  11.998
57017W        W29343  39.963  34.898  10.540
57018W        W29344  31.723  28.456  10.808
57019W        W29345  19.760  34.576  12.482
57020W        W29346  10.741   5.913   3.687
57021W        W29347   7.769  42.996  10.669
57022W        W29348  44.474  24.066  12.396
57023W        W29349  15.575  40.197  13.619
57024W        W29350  44.013  17.410  12.271
57025W        W29351   5.374  30.041  12.338
57026W        W29352  29.453   0.875   2.261
57027W        W29353  44.016  25.944  12.836
57028W        W29354  29.426   9.169  13.809
57029W        W29355  24.687   2.750   3.288
57030W        W29356  32.077  18.320   0.237
57031W        W29357  10.138  30.628   0.883
57032W        W29358   1.421  19.091   2.867
57033W        W29359  32.247  12.677  12.390
57034W        W29360   9.668  40.790  12.530
57035W        W29361  41.673  11.255   4.817
57036W        W29362  17.544  29.844  13.624
57037W        W29363  12.775  39.905  13.469
57038W        W29364  24.781  20.987   1.400
57039W        W29365  11.709   4.770   4.771
57040W        W29366   3.482  39.880   1.050
57041W        W29367  23.009  36.533  13.101
57042W        W29368   3.207  25.776  13.578
57043W        W29369   4.338  10.401  13.919
57044W        W29370  25.765  13.348   3.658
57045W        W29371  44.723  42.879   1.899
57046W        W29372  19.140  11.229   4.131
57047W        W29373   8.774  16.163   4.661
57048W        W29374  30.888  38.872   2.861
57049W        W29375  17.794  26.300   1.832
57050W        W29376  26.061   6.977  13.301
57051W        W29377  42.730  34.140   0.834
57052W        W29378  24.087  16.323  13.886
57053W        W29379  35.152  13.241   1.614
57054W        W29380  37.968  17.395   0.873
57055W        W29381  11.550   7.123  14.827
57056W        W29382  13.106   1.122  13.808
57057W        W29383  29.971  18.203   1.591
57058W        W29384   3.153   0.401  14.468
57059W        W29385  28.772   1.649   2.321
57060W        W29386  34.339  36.281   2.797
57061W        W29387  41.782  17.780   3.240
57062W        W29388  27.746  22.136  14.565
57063W        W29389  29.504  38.398  14.014
57064W        W29390  44.496  29.896   1.302
57065W        W29391  31.305   8.132  14.851
57066W        W29392  27.601  21.270  13.062
57067W        W29393   5.481  40.190  12.653
57068W        W29394  42.020  36.415  10.808
57069W        W29395  18.742   7.124  13.411
57070W        W29396   3.376  21.856   4.694
57071W        W29397  36.619  24.664   0.272
57072W        W29398  21.390  31.519  10.366
57073W        W29399  44.889   1.581   4.558
57074W        W29400  13.552  40.588   3.167
57075W        W29401  44.900   2.380   1.464
57076W        W29402  14.444  27.033  10.642
57077W        W29403  35.053  28.469   3.084
57078W        W29404   4.344  24.031   3.910
57079W        W29405  16.696  32.120   0.761
57080W        W29406   9.998  39.594  11.954
57081W        W29407  36.950  15.012  13.181
57082W        W29408  40.827  17.317   5.162
57083W        W29409   2.477  37.826   1.265
57084W        W29410  36.079  29.524  14.399
57085W        W29411  25.302   3.372   1.032
57086W        W29412  34.916  10.274   4.530
57087W        W29413  14.187  34.542  12.495
57088W        W29414  30.148  27.274   3.735
57089W        W29415  38.549  24.786  12.743
57090W        W29416  19.567  27.114  12.664
57091W        W29417  16.473   3.315  14.345
57092W        W29418  34.150  27.412  14.792
57093W        W29419  22.217  16.311   0.535
57094W        W29420  10.489  44.332   0.490
57095W        W29421  30.067  11.833  13.362
57096W        W29422  38.224  35.181  14.491
57097W        W29423  12.238   0.989   3.754
57098W        W29424  37.611  39.679  13.769
57099W        W29425   2.559  39.955   3.695
57100W        W29426  18.967  22.975  12.469
57101W        W29427  19.173   3.942  12.108
57102W        W29428  43.339  11.799   3.590
57103W        W29429  39.339   8.949   0.798
57104W        W29430   4.393  22.655   4.625
57105W        W29431  30.127  39.881   0.962
57106W        W29432  43.013  34.404  12.521
57107W        W29433  37.321  28.690   0.906
57108W        W29434  21.187   8.578  11.975
57109W        W29435   5.896  23.006   2.956
57110W        W29436  24.562  23.516  12.031
57111W        W29437   6.273  32.049  13.466
57112W        W29438  18.623  11.834  14.556
57113W        W29439  10.667  20.141  13.391
57114W        W29440   6.797   6.258   4.509
57115W        W29441  26.463   3.744   0.274
57116W        W29442   6.222  31.457  11.995
57117W        W29443  37.436  11.066  10.192
57118W        W29444   0.738  31.013   3.185
57119W        W29445  11.411  26.006  13.102
57120W        W29446  13.366  33.990   9.894
57121W        W29447  32.339  35.625  11.173
57122W        W29448  40.088  33.971   3.192
57123W        W29449   4.207  41.299  14.780
57124W        W29450  33.430  10.239  13.986
57125W        W29451   6.691   3.897  13.719
57126W        W29452  26.975  30.519   2.057
57127W        W29453  35.296   3.173   4.501
57128W        W29454  20.218  40.016  14.356
57129W        W29455  16.059  28.902  14.910
57130W        W29456  35.104  16.080   4.948
57131W        W29457  25.178  33.504   0.914
57132W        W29458  26.827  10.095   0.714
57133W        W29459  24.242  31.827  14.887
57134W        W29460  35.157   6.708   4.679
57135W        W29461  28.575  37.358  13.442
57136W        W29462  42.992  18.125  13.788
57137W        W29463   2.714  14.410  13.520
57138W        W29464  27.093  36.387   4.518
57139W        W29465  36.105  38.304   2.083
57140W        W29466  30.205  44.788   4.569
57141W        W29467  21.600  18.812  11.482
57142W        W29468  35.091   8.567   1.247
57143W        W29469  40.168  21.065   0.019
57144W        W29470  27.346  10.526   2.981
57145W        W29471   9.862  36.957   2.679
57146W        W29472  17.826  42.089   0.343
57147W        W29473  10.813   6.731   0.070
57148W        W29474  13.048  26.255  14.781
57149W        W29475  32.111  17.533   3.689
57150W        W29476   0.634  23.514   2.325
57151W        W29477  34.941  26.130  13.793
57152W        W29478  24.238  28.831   0.796
57153W        W29479  28.263  36.512  14.980
57154W        W29480  19.305   8.928   2.315
57155W        W29481  24.193  14.654  10.857
57156W        W29482  14.099  30.899   4.288
57157W        W29483  20.222  41.804  14.493
57158W        W29484   2.319  41.826  13.506
57159W        W29485  17.220  30.651   1.446
57160W        W29486   4.363  18.825   1.617
57161W        W29487  38.539  38.905   4.836
57162W        W29488  22.610  39.591  14.869
57163W        W29489  27.061  44.190  14.228
57164W        W29490  20.775   4.889  13.862
57165W        W29491   0.684  44.086  12.096
57166W        W29492   3.641  25.946  13.936
57167W        W29493  42.903  13.883   4.489
57168W        W29494  23.098  41.780  12.862
57169W        W29495   5.036   4.926  14.856
57170W        W29496  30.938  20.606   0.825
57171W        W29497   4.905  22.186  14.329
57172W        W29498  20.318  32.442  12.521
57173W        W29499  39.017  40.048   1.829
57174W        W29500  23.489  12.302  11.789
57175W        W29501  37.628   9.362  12.490
57176W        W29502  12.206  10.688  12.502
57177W        W29503  14.572  11.459   0.346
57178W        W29504   5.508  43.812   0.920
57179W        W29505  22.764   2.486   2.871
57180W        W29506  15.615   7.998   2.437
57181W        W29507  33.358  22.040  14.457
57182W        W29508  32.206  41.606   2.133
57183W        W29509   1.830  13.594  10.727
57184W        W29510  30.377  15.168   0.408
57185W        W29511  37.563  21.814  10.782
57186W        W29512  18.290  10.499   0.178
57187W        W29513  10.117  10.313   3.252
57188W        W29514  14.152   8.222   4.600
57189W        W29515  26.935  33.012   4.726
57190W        W29516  31.386   6.266   4.427
57191W        W29517  23.594  17.570  10.950
57192W        W29518  25.095   9.672  12.317
57193W        W29519   1.398  40.466  14.295
57194W        W29520  29.042   1.005  14.839
57195W        W29521   6.868  29.163   1.733
57196W        W29522  20.356  37.907   2.904
57197W        W29523  44.215   9.193   0.400
57198W        W29524  29.676   5.768   2.368
57199W        W29525  19.538   4.797   1.315
57200W        W29526  44.258  22.100  13.998
57201W        W29527  44.386   4.359  13.619
57202W        W29528  26.629  35.202   3.229
57203W        W29529  21.687  40.338  10.823
57204W        W29530  20.961  29.036   5.020
57205W        W29531   1.909  39.565   4.569
57206W        W29532  30.671  35.043  13.008
57207W        W29533  23.640  37.799  14.712
57208W        W29534  40.337  27.133  14.444
57209W        W29535  33.994  28.468   2.725
57210W        W29536   1.773  43.512  12.441
57211W        W29537  38.944  44.000   1.345
57212W        W29538  10.422  34.984   1.266
57213W        W29539  33.953  30.163   0.359
57214W        W29540  12.600  15.768   0.903
57215W        W29541   6.425  27.578   2.385
57216W        W29542  37.996   9.223   4.109
57217W        W29543  16.987  17.105  12.403
57218W        W29544  30.945  15.663  13.651
57219W        W29545  43.034  13.936  14.372
57220W        W29546  35.367  18.842   3.350
57221W        W29547  35.575  33.790  10.977
57222W        W29548  26.601  30.078   2.605
57223W        W29549  18.648   9.768   4.037
57224W        W29550  24.705  26.192   4.605
57225W        W29551   0.029  20.464   1.328
57226W        W29552  17.943  41.740  11.253
57227W        W29553   7.376  26.823  12.140
57228W        W29554  37.460  20.252  13.370
57229W        W29555  11.687  18.807  14.761
57230W        W29556  19.239  33.862   2.191
57231W        W29557  20.998  39.567   2.266
57232W        W29558   4.324   2.042   2.822
57233W        W29559   6.885  27.940   3.698
57234W        W29560  32.642  33.800  14.745
57235W        W29561  11.084  38.204   0.005
57236W        W29562   4.521  21.212   4.340
57237W        W29563  27.706  25.979   3.715
57238W        W29564  17.841   6.658  13.414
57239W        W29565  13.122  36.568   3.558
57240W        W29566  28.792  29.634   2.789
57241W        W29567  15.011  13.813  11.121
57242W        W29568  43.115   1.970   4.555
57243W        W29569  27.687  28.423  10.663
57244W        W29570  11.858   0.394   3.214
57245W        W29571  41.493  43.230   4.098
57246W        W29572  10.953  25.282  10.324
57247W        W29573  44.907  41.482  10.735
57248W        W29574  19.290  43.926  13.965
57249W        W29575  35.588  34.063   3.317
57250W        W29576  12.891  28.901   1.924
57251W        W29577  33.313   7.316  13.260
57252W        W29578  30.890  27.101  12.210
57253W        W29579  43.422  19.301  10.632
57254W        W29580  43.608  17.617   1.688
57255W        W29581   6.422  16.199   4.711
57256W        W29582  16.146  20.726  14.755
57257W        W29583  19.817  26.749  13.361
57258W        W29584  31.961  13.271  11.931
57259W        W29585  36.713   6.451  13.300
57260W        W29586  33.634  28.878  12.906
57261W        W29587  33.017  22.058   1.291
57262W        W29588   6.436  37.562   9.827
57263W        W29589  14.653  39.311   3.755
57264W        W29590  24.612   1.790  10.755
57265W        W29591  20.047   9.695  10.433
57266W        W29592  44.281   8.638  10.791
57267W        W29593   2.954  13.571   2.725
57268W        W29594   9.862  37.454   2.441
57269W        W29595  10.054   7.170  11.340
57270W        W29596   1.704   4.500  14.244
57271W        W29597  28.085  33.724  14.377
57272W        W29598  24.933  13.536  14.969
57273W        W29599  34.764   6.755   4.356
57274W        W29600  38.062  34.272  12.986
57275W        W29601   4.967  23.726   0.710
57276W        W29602  36.323   9.198   4.732
57277W        W29603  14.406  30.622  13.182
57278W        W29604  20.030  18.596   0.724
57279W        W29605  10.555   5.153  12.765
57280W        W29606  35.091   9.886  12.472
57281W        W29607   1.204  37.729  13.775
57282W        W29608  26.793  35.515  13.495
57283W        W29609  42.267  44.816   4.286
57284W        W29610  38.538   0.467  12.785
57285W        W29611   0.948   8.716   0.806
57286W        W29612  41.584   2.407  12.164
57287W        W29613   7.753   5.130   4.114
57288W        W29614   0.461  31.341   2.428
57289W        W29615  43.732  36.296   0.665
57290W        W29616  41.262  30.091   3.088
57291W        W29617  25.600  14.294   1.718
57292W        W29618   6.295  38.774  14.927
57293W        W29619  24.287  35.020   0.824
57294W        W29620   1.551  10.822  10.073
57295W        W29621   6.325  41.535  12.819
57296W        W29622  16.586  11.377  11.527
57297W        W29623  31.617  41.403  10.367
57298W        W29624  38.542  24.476  12.343
57299W        W29625   5.244  26.453  11.005
57300W        W29626  11.102  32.001  11.486
57301W        W29627  20.118  36.980   1.219
57302W        W29628  28.207  20.288  13.796
57303W        W29629  42.565   4.341   1.494
57304W        W29630  29.689  23.198  13.439
57305W        W29631   2.845  41.041   1.212
57306W        W29632   7.702   3.327  14.942
57307W        W29633  18.648  31.953  14.290
57308W        W29634  31.028  44.948  10.532
57309W        W29635  32.865  34.879   2.433
57310W        W29636  36.361  39.991   9.958
57311W        W29637  39.567  17.230   1.696
57312W        W29638   0.932  24.267   4.946
57313W        W29639  40.997  41.589  11.693
57314W        W29640   4.301  41.503  12.880
57315W        W29641   1.697   6.495   0.086
57316W        W29642  12.393  25.931  13.508
57317W        W29643  33.174  23.605   3.630
57318W        W29644   8.614  22.262   2.320
57319W        W29645  42.114  21.786  11.021
57320W        W29646  36.109  32.041   2.330
57321W        W29647   4.819  25.950   1.185
57322W        W29648  12.835   6.541   0.435
57323W        W29649  19.517  14.190  12.934
57324W        W29650  26.183  42.861  13.585
57325W        W29651  25.235  36.523  13.911
57326W        W29652   8.328  15.227   3.802
57327W        W29653  39.613  29.999  12.986
57328W        W29654  35.419  40.953   3.681
57329W        W29655  38.569  24.243   1.263
57330W        W29656   3.717  25.144   3.016
57331W        W29657   6.971  26.442   4.847
57332W        W29658  21.847  24.541   1.862
57333W        W29659  37.912  42.759  10.537
57334W        W29660  13.260  44.400   2.817
57335W        W29661  21.918   4.362  12.979
57336W        W29662  29.135  37.995   3.727
57337W        W29663  17.701   4.886   1.156
57338W        W29664   3.750   8.684   1.727
57339W        W29665  16.656  34.347  11.014
57340W        W29666  43.273  42.523   1.345
57341W        W29667  29.378  44.820  13.533
57342W        W29668  19.813  38.448  13.123
57343W        W29669  43.237  43.644   1.213
57344W        W29670  13.583  26.200   5.141
57345W        W29671  22.724  25.940  13.332
57346W        W29672  28.614  17.210  12.020
57347W        W29673  21.611  16.065   1.254
57348W        W29674  23.076   8.836   0.181
57349W        W29675  36.040  22.269  10.630
57350W        W29676  22.247  42.297   2.186
57351W        W29677  42.634  10.713  12.015
57352W        W29678   0.954  38.686   1.683
57353W        W29679  17.191   1.205  12.910
57354W        W29680  17.263  29.631   1.321
57355W        W29681  30.372  26.008  14.463
57356W        W29682   6.477  35.519  11.734
57357W        W29683  35.396  14.529   4.811
57358W        W29684   2.868  37.457  12.630
57359W        W29685   8.457  44.442  11.067
57360W        W29686  30.147  40.788  13.073
57361W        W29687  19.560   1.280   1.177
57362W        W29688   9.293   5.779  11.087
57363W        W29689  27.586   7.775  14.051
57364W        W29690  21.084  43.565  12.865
57365W        W29691   4.859  34.659  13.863
57366W        W29692  30.182  20.140   0.794
57367W        W29693  36.574  42.624   4.326
57368W        W29694   0.938   6.631   4.104
57369W        W29695   0.789   9.386   2.691
57370W        W29696  35.867  25.545  11.194
57371W        W29697   5.953   7.721   1.310
57372W        W29698  39.712   3.206   3.115
57373W        W29699   1.662   9.641   3.193
57374W        W29700  15.458   3.239   2.731
57375W        W29701   3.842  38.388   1.495
57376W        W29702   6.218  21.304   3.822
57377W        W29703  27.404  37.390   4.677
57378W        W29704  29.731  23.680   2.761
57379W        W29705   4.856   5.356   0.201
57380W        W29706   6.124  12.284   4.839
57381W        W29707   7.685  17.314  10.499
57382W        W29708   2.641  41.853   0.380
57383W        W29709  24.724  33.213   0.882
57384W        W29710   4.804   3.759  11.043
57385W        W29711   3.409  33.678  14.691
57386W        W29712  10.221  40.156   4.529
57387W        W29713   6.109  24.998   3.840
57388W        W29714  28.624   3.870  10.482
57389W        W29715  43.904  20.241   4.506
57390W        W29716  24.659  15.411   3.855
57391W        W29717   3.907  24.783   2.733
57392W        W29718  25.167  24.994  13.489
57393W        W29719  15.551  28.029   4.546
57394W        W29720  36.890   9.376  10.902
57395W        W29721  35.498  10.360  14.054
57396W        W29722  39.879  21.757   3.922
57397W        W29723  24.448  15.453  13.923
57398W        W29724  33.314  19.366  14.474
57399W        W29725  34.950   0.288   1.260
57400W        W29726  13.797  15.951  11.088
57401W        W29727  24.309   2.128   2.837
57402W        W29728  35.697  29.473  12.604
57403W        W29729  35.596  25.677  11.592
57404W        W29730  33.292  23.099   1.273
57405W        W29731   1.288  18.349  13.062
57406W        W29732  38.457  39.894  11.648
57407W        W29733  14.645  23.934   2.803
57408W        W29734  37.816  41.303  12.471
57409W        W29735  42.589  19.157  13.972
57410W        W29736  40.522  39.368  14.944
57411W        W29737  41.778   0.944   1.915
57412W        W29738   5.684   9.535   0.808
57413W        W29739  34.376  39.559  14.950
57414W        W29740   0.389  18.284   3.914
57415W        W29741  38.163  44.966   1.015
57416W        W29742  20.170  22.519  12.850
57417W        W29743  42.549  38.915   1.995
57418W        W29744  31.500  33.839  11.609
57419W        W29745  29.585  23.006  10.660
57420W        W29746  37.938  12.893   4.114
57421W        W29747   0.348  29.366   0.301
57422W        W29748  15.676  16.556  10.257
57423W        W29749  12.313  21.024   1.692
57424W        W29750  33.611  18.239   4.621
57425W        W29751  29.265  24.144  14.279
57426W        W29752   6.619  17.587  14.979
57427W        W29753   0.500   5.911   3.597
57428W        W29754   9.803  41.800  11.446
57429W        W29755  23.485  18.748   2.337
57430W        W29756  43.479   7.896  13.414
57431W        W29757   3.237   0.804   0.810
57432W        W29758  36.057  15.099   2.793
57433W        W29759  27.761  26.964   1.899
57434W        W29760   7.141  35.603  10.598
57435W        W29761  22.529  44.746  10.755
57436W        W29762  25.068  35.609  11.645
57437W        W29763   8.448  36.413  13.512
57438W        W29764  40.822  12.950  13.156
57439W        W29765  16.998  11.632   2.614
57440W        W29766  35.661   5.037   1.771
57441W        W29767  25.220  33.175  13.411
57442W        W29768   8.759   4.254   0.444
57443W        W29769  19.045   4.029  14.462
57444W        W29770   8.286   2.950   4.307
57445W        W29771  31.687   9.843  10.898
57446W        W29772  14.126  26.107  10.193
57447W        W29773  22.201  40.784   0.445
57448W        W29774   6.624  19.305   1.662
57449W        W29775   7.910  11.911   0.697
57450W        W29776  43.944  11.846  10.722
57451W        W29777  20.542  11.767   1.304
57452W        W29778  15.727  20.889   4.544
57453W        W29779  36.092  38.345   1.089
57454W        W29780  21.024  25.422  11.890
57455W        W29781  18.181   5.530  14.917
57456W        W29782  30.234  33.079  14.718
57457W        W29783  30.070  37.459   3.444
57458W        W29784  14.293  21.759   3.097
57459W        W29785   0.443   2.674   1.790
57460W        W29786  22.992  19.239  12.369
57461W        W29787  18.974  23.536  11.248
57462W        W29788  37.791  35.555  12.027
57463W        W29789   0.990  22.601   5.185
57464W        W29790  22.645  16.984   5.027
57465W        W29791  38.915  33.067   4.996
57466W        W29792  18.479   7.032   2.161
57467W        W29793   3.505  20.284   1.192
57468W        W29794   7.954  25.529  10.854
57469W        W29795  43.722  24.227  13.060
57470W        W29796  22.687  42.068   0.747
57471W        W29797  23.585  27.747   1.227
57472W        W29798   6.956  29.365  13.406
57473W        W29799  43.068  23.476  11.888
57474W        W29800  39.807   6.623   4.125
57475W        W29801   9.098  10.337   0.219
57476W        W29802   9.260  38.090   4.278
57477W        W29803  24.652  10.470  11.987
57478W        W29804  16.427  16.252  10.783
57479W        W29805  26.435   7.230  10.715
57480W        W29806  27.401   3.025   4.175
57481W        W29807  25.968  16.670  10.916
57482W        W29808  21.310  27.625  11.459
57483W        W29809   9.729  25.693   0.297
57484W        W29810   3.949  19.767  11.255
57485W        W29811  19.762  11.338  12.440
57486W        W29812  38.246   0.898  11.209
57487W        W29813  30.344  23.232   2.049
57488W        W29814  29.502  34.045   0.885
57489W        W29815  24.155  32.604  14.300
57490W        W29816  41.807  13.669   3.009
57491W        W29817  28.906  15.501  14.337
57492W        W29818  22.763  32.581  12.905
57493W        W29819  28.684  19.316  11.274
57494W        W29820  20.676  39.351  14.047
57495W        W29821  37.057  10.327  13.305
57496W        W29822  27.611  21.775   0.391
57497W        W29823  11.284  13.568   1.254
57498W        W29824  37.632  32.044   1.127
57499W        W29825  39.119  21.807   1.896
57500W        W29826  34.391  11.865  12.218
57501W        W29827  23.315  12.429  12.941
57502W        W29828   4.276  39.488   3.868
57503W        W29829  25.423  20.488   0.056
57504W        W29830  26.203  15.202   0.388
57505W        W29831  15.800  43.130  12.813
57506W        W29832  13.995  24.598  13.761
57507W        W29833  11.815  40.801   0.896
57508W        W29834  42.927  35.537  10.747
57509W        W29835   0.350  10.511   2.034
57510W        W29836  24.200  38.563   0.734
57511W        W29837  18.031   9.925  12.532
57512W        W29838  11.613  29.574  12.214
57513W        W29839  12.338   9.869   3.993
57514W        W29840  15.099  19.508   3.864
57515W        W29841   4.912  26.291   2.494
57516W        W29842  21.669   5.180   3.614
57517W        W29843   4.513   6.911   2.813
57518W        W29844  35.599   3.273  14.227
57519W        W29845   4.292   2.175  12.964
57520W        W29846  42.213  32.489  12.883
57521W        W29847   8.725   4.453  12.038
57522W        W29848  43.479  30.645  13.845
57523W        W29849  18.823  29.196   2.202
57524W        W29850  18.528  43.502  13.925
57525W        W29851  34.516  20.563   3.287
57526W        W29852  20.276  27.330  14.411
57527W        W29853   7.362  10.122   3.796
57528W        W29854   4.342   8.635   0.015
57529W        W29855   9.953   2.577   3.120
57530W        W29856  41.719  27.474   4.140
57531W        W29857  17.221  17.482  14.384
57532W        W29858  30.853   9.884   1.031
57533W        W29859  44.948  37.826  12.989
57534W        W29860  34.060  29.254   1.512
57535W        W29861  42.279  15.524  14.262
57536W        W29862   4.873  39.562   0.737
57537W        W29863  25.752  20.300   3.752
57538W        W29864  22.143   7.877  11.547
57539W        W29865  21.620  31.269   4.533
57540W        W29866  42.017  33.889  14.821
57541W        W29867  39.245  39.361  12.855
57542W        W29868  11.634  23.788  12.875
57543W        W29869  32.199  36.881  13.553
57544W        W29870  28.028  23.746  12.274
57545W        W29871  43.952  12.179   4.027
57546W        W29872  21.411   8.887   0.428
57547W        W29873  36.389   9.765  13.505
57548W        W29874  24.686   4.642  10.413
57549W        W29875  16.387   6.916  12.224
57550W        W29876  24.972  31.337   3.780
57551W        W29877   9.433  27.412   1.330
57552W        W29878  29.467   2.448   3.143
57553W        W29879  40.407  14.110  11.129
57554W        W29880  17.416  27.185   3.655
57555W        W29881  33.901  12.468   0.758
57556W        W29882  24.143  37.966  14.023
57557W        W29883   2.085   7.173   2.602
57558W        W29884  38.245  33.228   1.175
57559W        W29885  44.998  22.934   2.777
57560W        W29886   8.263  10.335   4.105
57561W        W29887  10.702  38.158   1.366
57562W        W29888  17.198   2.862  10.543
57563W        W29889  19.197   2.212   4.367
57564W        W29890  28.017   2.796   0.944
57565W        W29891  31.943  44.911   0.332
57566W        W29892  33.785   8.359   2.713
57567W        W29893  33.948  16.772  11.394
57568W        W29894   0.427  23.225   2.800
57569W        W29895  36.282  43.229  11.959
57570W        W29896  26.039  15.201   5.074
57571W        W29897  43.390  29.983  14.497
57572W        W29898  24.731   3.277  12.308
57573W        W29899   4.954   7.290   0.896
57574W        W29900  33.623  25.412  11.534
57575W        W29901  21.268  30.105   3.120
57576W        W29902  21.431  44.322  12.349
57577W        W29903   6.855  12.349   4.337
57578W        W29904   2.668   8.648   0.268
57579W        W29905  34.497  11.799   2.437
57580W        W29906   5.113   5.440  12.705
57581W        W29907  13.913  42.903   3.931
57582W        W29908  37.922  25.806  14.796
57583W        W29909  26.047  41.055  10.681
57584W        W29910  43.889  36.720  10.926
57585W        W29911  20.347  26.085   1.728
57586W        W29912  40.502  16.808   3.856
57587W        W29913  21.762  23.748  11.528
57588W        W29914  13.909  26.265  14.506
57589W        W29915  36.053   1.465   3.641
57590W        W29916  31.583   3.915  13.090
57591W        W29917   7.377  23.538  13.281
57592W        W29918  22.098  24.166  14.711
57593W        W29919   6.364  42.558  12.865
57594W        W29920  33.119  13.099   0.307
57595W        W29921  41.732  25.156  10.834
57596W        W29922  28.438  11.695  11.721
57597W        W29923   8.125   8.239  11.943
57598W        W29924   6.635  37.143  13.957
57599W        W29925  29.122   3.931   0.908
57600W        W29926  22.413  19.064   2.831
57601W        W29927   2.759  32.641  13.920
57602W        W29928  35.902  33.971   2.709
57603W        W29929  14.852   7.970  12.024
57604W        W29930   0.194  19.598   4.410
57605W        W29931  12.810  21.624  10.658
57606W        W29932  37.382  38.974   9.995
57607W        W29933   8.750  34.785   1.321
57608W        W29934  32.498   1.381  11.680
57609W        W29935   9.236  18.105  11.644
57610W        W29936   1.271  19.518   2.065
57611W        W29937  16.884  25.349  10.699
57612W        W29938  11.206   9.433  11.015
57613W        W29939  12.635  33.038  10.099
57614W        W29940  13.901   2.710  11.107
57615W        W29941  25.571  41.478   1.675
57616W        W29942  26.138   5.650  13.235
57617W        W29943  31.014  15.114   3.739
57618W        W29944  33.781   0.955  11.688
57619W        W29945  17.269  38.123   1.631
57620W        W29946  19.229   3.834  11.185
57621W        W29947   5.260   8.612   3.165
57622W        W29948   2.718  26.067  14.644
57623W        W29949  40.019  26.561  12.911
57624W        W29950  41.841   0.972  12.065
57625W        W29951  16.896   9.414   1.667
57626W        W29952   9.926   7.161   2.782
57627W        W29953  42.385  37.205  13.939
57628W        W29954  15.334  19.022  13.441
57629W        W29955  25.161   5.892   1.930
57630W        W29956   9.595   7.507  11.107
57631W        W29957  37.921  34.767  14.415
57632W        W29958  25.543  18.126  10.573
57633W        W29959  30.154  37.174  12.645
57634W        W29960  25.733  17.685   3.576
57635W        W29961   1.942  11.248  13.088
57636W        W29962   3.747   1.459   0.392
57637W        W29963  20.128  39.421   4.419
57638W        W29964  39.637  32.604   2.105
57639W        W29965   1.055  19.624   0.391
57640W        W29966  29.037  39.389  11.541
57641W        W29967  25.510  34.317   3.226
57642W        W29968  11.946   6.302   2.743
57643W        W29969  41.281  11.124   4.043
57644W        W29970  38.964   0.245   3.010
57645W        W29971   3.028  37.890  12.407
57646W        W29972  22.638  37.019  13.495
57647W        W29973  22.205  14.284  12.167
57648W        W29974  28.733  43.931   0.520
57649W        W29975  30.499  10.693  13.824
57650W        W29976  31.388  24.074  12.036
57651W        W29977  12.901  13.613  13.135
57652W        W29978   3.210   2.221   4.832
57653W        W29979   3.394  25.911   4.178
57654W        W29980  30.314  10.302  14.518
57655W        W29981  11.743  42.844  13.045
57656W        W29982  42.411  35.246  14.300
57657W        W29983   4.850   9.874   4.804
57658W        W29984  41.865  33.476   0.784
57659W        W29985  19.219  19.940   3.688
57660W        W29986   7.796  40.146   2.221
57661W        W29987   6.212  40.590   5.557
57662W        W29988  43.137  13.617  11.937
57663W        W29989  36.234  33.015   3.688
57664W        W29990  21.314   4.648  12.436
57665W        W29991  33.151  27.660  10.566
57666W        W29992  43.365   7.354  12.030
57667W        W29993   5.517  38.894  13.997
57668W        W29994  16.036   8.709  11.145
57669W        W29995  10.833  25.919   0.373
57670W        W29996  39.618  29.397   2.840
57671W        W29997  42.953   9.741  11.970
57672W        W29998  40.475  21.249  11.621
57673W        W29999  23.696  42.485  14.361
57674W        W30000  27.524  38.286  14.967
57675W        W30001  30.978   7.779   5.087
57676W        W30002   0.109  43.268   4.671
57677W        W30003  28.061  23.685  14.582
57678W        W30004   7.666  28.653  14.821
57679W        W30005  31.661  30.164   1.263
57680W        W30006  21.270  40.075  10.965
57681W        W30007  11.656   4.020   3.627
57682W        W30008  31.567  22.288   0.057
57683W        W30009   8.051  11.668   1.785
57684W        W30010  40.506   9.660   3.362
57685W        W30011  13.160   0.797  10.199
57686W        W30012  11.823  29.743  10.910
57687W        W30013  35.933   0.957   2.720
57688W        W30014  14.261  29.125  10.698
57689W        W30015  40.480  24.193   4.260
57690W        W30016   2.999  13.605   0.843
57691W        W30017  23.619   4.542  14.551
57692W        W30018  34.378  33.513   4.004
57693W        W30019  23.469  27.311  14.317
57694W        W30020   1.239  12.115  10.619
57695W        W30021   4.220  12.341   9.724
57696W        W30022  12.413  19.282   4.284
57697W        W30023  43.333  36.012  12.925
57698W        W30024  34.551   6.299  12.407
57699W        W30025   2.428   0.811  12.373
57700W        W30026   7.374  18.976  14.794
57701W        W30027   4.227  32.677  12.179
57702W        W30028  34.896  20.969   2.059
57703W        W30029  39.819  20.557   1.648
57704W        W30030  41.629  39.018   2.288
57705W        W30031   4.183  27.080   4.340
57706W        W30032  28.077  37.149  12.022
57707W        W30033  20.338  44.337   3.233
57708W        W30034  20.549  22.948   0.048
57709W        W30035  37.542   9.776   9.782
57710W        W30036   2.585   7.704   2.364
57711W        W30037  33.832  39.780   4.751
57712W        W30038  21.005   7.805  12.502
57713W        W30039  20.722  21.327  13.936
57714W        W30040  34.513  34.824  14.277
57715W        W30041  38.327  19.214   2.262
57716W        W30042  36.674  44.670  10.195
57717W        W30043  16.790  19.346   3.164
57718W        W30044  31.562   8.415   1.370
57719W        W30045  19.709  33.076   0.320
57720W        W30046  30.182  23.007  11.794
57721W        W30047  27.237   8.285   2.604
57722W        W30048  11.558  21.369   4.805
57723W        W30049   8.504   0.243  13.431
57724W        W30050  32.528  39.275   2.851
57725W        W30051  29.621  17.809   4.985
57726W        W30052  12.212  19.557   5.044
57727W        W30053  41.011  41.037   3.873
57728W        W30054   8.158   4.302  11.314
57729W        W30055   9.899  33.387   4.946
57730W        W30056  14.074  42.401   3.391
57731W        W30057  38.513  17.574  11.974
57732W        W30058   7.926  16.540   1.848
57733W        W30059  11.796   6.619  11.189
57734W        W30060  34.549   5.910   2.752
57735W        W30061  20.952   1.025  13.096
57736W        W30062  34.691  44.419  11.911
57737W        W30063   8.837  35.289  11.966
57738W        W30064  34.662  44.252  14.472
57739W        W30065  13.841  10.587  10.717
57740W        W30066   1.794  21.967  10.148
57741W        W30067  21.757  33.193  11.841
57742W        W30068   3.204   1.687   4.169
57743W        W30069   4.804  37.031  12.440
57744W        W30070  41.742   5.273   1.654
57745W        W30071   5.730   8.694  12.902
57746W        W30072  28.496  25.325   3.739
57747W        W30073  26.512  31.936  13.148
57748W        W30074  41.025  30.071  11.398
57749W        W30075  10.759  39.921  11.385
57750W        W30076  28.680  33.509   0.758
57751W        W30077  22.588   6.780   2.637
57752W        W30078  15.527  14.332  14.814
57753W        W30079  29.010  36.533  13.191
57754W        W30080  38.232  16.821  13.488
57755W        W30081  37.427  17.820  10.725
57756W        W30082  22.264  36.660  11.632
57757W        W30083  33.522  38.919   1.421
57758W        W30084   8.870  30.802   1.339
57759W        W30085   4.352  23.735   0.966
57760W        W30086  31.494  25.435   0.489
57761W        W30087  36.322  27.175   1.282
57762W        W30088  18.054  24.683  14.141
57763W        W30089   5.541   4.719   2.328
57764W        W30090  18.473   8.202   4.448
57765W        W30091   1.187  35.153  14.398
57766W        W30092   7.685  34.949   0.123
57767W        W30093  36.934  33.099   2.038
57768W        W30094  44.457  12.602   1.978
57769W        W30095  20.619  10.503  13.721
57770W        W30096  27.955  27.954   4.583
57771W        W30097   8.788  15.557   0.353
57772W        W30098  31.605   0.051  13.887
57773W        W30099  26.104   5.266  13.602
57774W        W30100  19.131  14.037  14.845
57775W        W30101  25.564  41.386  12.932
57776W        W30102  26.670  39.117   1.222
57777W        W30103  14.357  12.451   3.245
57778W        W30104  36.993  21.653  13.225
57779W        W30105  42.900   8.804   0.351
57780W        W30106  16.787  23.723  12.748
57781W        W30107  37.622  34.503   2.733
57782W        W30108  13.049  36.421  14.227
57783W        W30109  37.401   0.464  14.206
57784W        W30110  28.662  24.663  11.523
57785W        W30111  25.205  31.737   1.445
57786W        W30112   8.912  17.326   1.378
57787W        W30113  20.102  43.741  11.500
57788W        W30114  29.439  18.965  13.386
57789W        W30115  38.887   8.929  12.340
57790W        W30116  28.360  10.196   4.688
57791W        W30117   4.402  40.587  12.544
57792W        W30118  44.931  35.111   4.535
57793W        W30119  12.646  27.623   4.621
57794W        W30120   2.609   3.840   2.609
57795W        W30121  28.767  25.458   5.090
57796W        W30122  39.147   0.015   1.266
57797W        W30123  34.992   0.409  10.629
57798W        W30124  18.155  11.788   0.765
57799W        W30125  12.633  27.552  14.189
57800W        W30126  12.440   6.448  12.012
57801W        W30127  19.261   8.145  13.891
57802W        W30128  44.881   7.937  10.470
57803W        W30129   1.895  16.172   2.869
57804W        W30130  22.040  41.004   2.532
57805W        W30131  18.687  23.758   4.604
57806W        W30132  39.500  39.369   4.720
57807W        W30133  21.503   0.461   0.834
57808W        W30134  20.673  34.595   1.183
57809W        W30135   0.925  44.396   4.618
57810W        W30136   2.393   3.416  11.027
57811W        W30137  15.584   9.773  10.652
57812W        W30138   4.377  27.367  12.044
57813W        W30139   2.658  28.915  14.355
57814W        W30140   9.300  31.414   3.208
57815W        W30141   4.816   3.946   1.770
57816W        W30142  17.985  11.895  11.038
57817W        W30143  18.171  12.258  10.425
57818W        W30144  25.998  12.691  12.495
57819W        W30145   6.049  13.301   1.480
57820W        W30146  24.738  33.098  10.957
57821W        W30147  35.928   4.943  12.453
57822W        W30148   6.535  40.835  12.533
57823W        W30149  41.378  23.444   2.718
57824W        W30150  28.358   2.526   1.249
57825W        W30151  29.576  36.785  11.233
57826W        W30152  41.091   6.688   2.354
57827W        W30153  36.314  32.090   1.293
57828W        W30154   7.685  36.857   4.067
57829W        W30155   6.398  10.670  10.775
57830W        W30156   2.401  16.575  13.842
57831W        W30157  38.582  43.014  12.300
57832W        W30158   7.707  27.473  13.068
57833W        W30159  21.835  44.417  14.323
57834W        W30160  40.991  14.114   3.469
57835W        W30161  14.202  21.517   0.753
57836W        W30162  32.835  15.891   1.293
57837W        W30163  23.647   1.819  12.373
57838W        W30164  37.550  38.899  14.257
57839W        W30165  41.588  35.943  14.940
57840W        W30166  30.385  12.811   2.846
57841W        W30167   6.451  42.816   0.905
57842W        W30168  21.053  24.129   4.482
57843W        W30169  39.098  40.466  13.416
57844W        W30170  44.959  34.364  13.298
57845W        W30171  38.338  40.073  12.517
57846W        W30172   4.131   0.633  13.907
57847W        W30173  21.561  39.108  12.480
57848W        W30174  29.135   2.220   1.715
57849W        W30175  29.226  23.048  12.492
57850W        W30176  16.036  40.841  14.935
57851W        W30177   9.836  22.509   0.477
57852W        W30178  22.218   9.832  13.604
57853W        W30179   1.708  23.451  14.810
57854W        W30180  31.583  33.075   0.375
57855W        W30181  12.750  25.765  10.386
57856W        W30182  20.147  12.158  14.523
57857W        W30183  34.100  13.542  11.527
57858W        W30184  19.211  19.726   1.827
57859W        W30185  20.854  10.395  11.934
57860W        W30186  14.598  24.135   4.073
57861W        W30187  15.239   0.246   2.226
57862W        W30188  39.930  35.513   0.068
57863W        W30189  31.444  23.428   4.514
57864W        W30190  26.687  18.710  14.438
57865W        W30191  19.225  38.407   3.802
57866W        W30192  10.279  34.538   4.560
57867W        W30193  24.674  19.629   4.563
57868W        W30194  25.671  28.477   3.337
57869W        W30195  10.550   7.137  14.835
57870W        W30196  37.990   7.266  13.520
57871W        W30197   8.300  40.832   3.062
57872W        W30198  29.403  28.236  13.523
57873W        W30199  20.530  29.042  12.134
57874W        W30200  21.937  31.641   4.065
57875W        W30201  36.995  24.028   3.592
57876W        W30202  17.486  44.721  11.896
57877W        W30203  10.903  21.732   0.192
57878W        W30204  40.944  41.416   2.786
57879W        W30205  13.614  41.768  11.574
57880W        W30206   0.295   9.160  11.563
57881W        W30207  20.189  13.573  10.496
57882W        W30208  42.352  18.961  11.626
57883W        W30209   9.476  22.219  11.876
57884W        W30210   3.600  21.376   3.290
57885W        W30211  32.200  27.126   0.381
57886W        W30212  12.699  10.891  13.068
57887W        W30213  38.975  22.111   0.483
57888W        W30214  41.618  43.982  10.704
57889W        W30215  16.160  16.383  12.387
57890W        W30216  17.739  23.321  14.861
57891W        W30217  28.856   8.773  14.934
57892W        W30218   2.724  44.365  14.714
57893W        W30219  29.085  36.835   2.742
57894W        W30220   7.295  39.518  14.442
57895W        W30221  32.234  28.479  11.693
57896W        W30222  15.581   0.347  11.041
57897W        W30223  34.916  12.728  10.090
57898W        W30224  36.584  13.122   2.198
57899W        W30225   0.461  34.195  12.885
57900W        W30226  14.427  40.567  13.349
57901W        W30227  29.276  37.547  14.475
57902W        W30228  19.559  33.468  10.626
57903W        W30229  24.065  40.866   0.021
57904W        W30230  19.095  24.674  14.581
57905W        W30231  39.810   6.798   3.213
57906W        W30232  29.328  27.430  10.798
57907W        W30233  37.516   8.594  13.308
57908W        W30234  39.049  43.406  10.619
57909W        W30235   7.628   9.792   1.822
57910W        W30236  36.020  29.915  13.431
57911W        W30237  20.494  30.420   3.156
57912W        W30238  38.589  39.900  14.770
57913W        W30239  13.803  20.263  14.486
57914W        W30240   6.690   0.979  12.850
57915W        W30241  23.278  36.406   3.967
57916W        W30242  22.500  14.219  11.167
57917W        W30243  30.637  29.192   4.527
57918W        W30244  15.293  26.124  11.629
57919W        W30245   1.188  29.798  13.912
57920W        W30246  14.817   7.810  11.194
57921W        W30247  33.918   0.954  12.567
57922W        W30248   6.349   5.986  13.897
57923W        W30249  29.473  42.827   1.638
57924W        W30250   0.638  16.914   2.420
57925W        W30251  21.616  15.511   1.336
57926W        W30252  15.231   2.167  11.187
57927W        W30253  10.786  13.245   0.032
57928W        W30254   1.333   3.677  12.655
57929W        W30255  15.843   0.506  13.312
57930W        W30256   6.397  18.524   4.370
57931W        W30257  41.485  30.716  14.606
57932W        W30258   4.277   3.575   2.772
57933W        W30259  38.473  32.282  14.943
57934W        W30260  12.355   4.673  13.494
57935W        W30261  22.121  41.377   1.229
57936W        W30262  12.836  38.090  13.960
57937W        W30263  22.200  39.949  14.909
57938W        W30264   2.288  14.612  10.616
57939W        W30265  10.215  34.315  11.446
57940W        W30266   8.834  27.310  14.218
57941W        W30267   9.262  39.279  14.831
57942W        W30268  28.333  26.964  14.874
57943W        W30269  18.490  35.022   1.250
57944W        W30270  39.751  42.023   2.599
57945W        W30271   0.729  11.230  14.643
57946W        W30272  24.585  21.049   3.184
57947W        W30273  18.797  17.452  13.148
57948W        W30274  13.291  10.162   9.842
57949W        W30275  14.415  22.152   2.198
57950W        W30276   4.921  37.112   0.323
57951W        W30277  25.385  17.153  13.906
57952W        W30278  10.398  30.027   2.281
57953W        W30279  29.417  24.037   4.574
57954W        W30280   5.688  31.140  11.103
57955W        W30281  14.086  29.902  14.814
57956W        W30282  13.775  26.511  10.130
57957W        W30283  11.712  10.778  14.827
57958W        W30284   6.791  28.747  11.098
57959W        W30285  32.791  13.106   1.001
57960W        W30286  23.609  10.381   2.815
57961W        W30287  35.925  26.204   0.899
57962W        W30288   3.052   9.669   4.894
57963W        W30289  38.833   9.126   3.125
57964W        W30290  13.592  23.709   2.643
57965W        W30291   6.765  38.384   4.577
57966W        W30292  31.506  38.454   1.837
57967W        W30293  32.918  32.844  11.351
57968W        W30294  25.418   9.681   2.702
57969W        W30295   0.165  43.395  12.551
57970W        W30296   7.620  41.308  13.258
57971W        W30297  26.510  23.556   3.226
57972W        W30298  31.559  38.023  12.998
57973W        W30299  43.048  23.219  14.353
57974W        W30300   9.014   7.204   1.822
57975W        W30301   6.902  22.055   1.386
57976W        W30302  17.336  19.110  13.921
57977W        W30303  43.509  34.406   2.141
57978W        W30304  32.452  41.003   0.268
57979W        W30305   4.988  15.929   4.028
57980W        W30306  32.761  26.720   4.109
57981W        W30307  29.999  33.664  13.334
57982W        W30308  38.306   0.496   3.732
57983W        W30309  19.213  10.113   2.780
57984W        W30310  21.549   1.965   3.212
57985W        W30311  42.089  19.860   0.556
57986W        W30312   0.575  14.679  13.376
57987W        W30313  43.751  43.761   4.198
57988W        W30314  40.778  17.399  14.688
57989W        W30315  26.591  36.357  11.075
57990W        W30316  11.293  18.716  12.124
57991W        W30317   1.429   9.311   0.897
57992W        W30318  39.950  41.757  14.660
57993W        W30319  25.132  42.348  14.431
57994W        W30320  32.005  14.753   3.566
57995W        W30321  14.408  31.512  12.495
57996W        W30322   1.260  31.657  12.374
57997W        W30323  38.584  15.422   1.429
57998W        W30324   0.754  20.060   0.499
57999W        W30325   0.013  17.263   4.758
58000W        W30326  38.757  29.637   0.743
58001W        W30327  16.084  31.636  11.969
58002W        W30328  25.993  11.765  12.970
58003W        W30329   8.586  23.211  14.156
58004W        W30330  36.063  38.874   2.880
58005W        W30331  13.371   4.950  10.821
58006W        W30332   1.261  12.603   0.323
58007W        W30333  38.133  44.172   3.588
58008W        W30334   5.782  15.700  14.976
58009W        W30335  30.466  32.084  13.008
58010W        W30336  20.649   7.590   4.691
58011W        W30337  21.693  34.960  12.430
58012W        W30338   7.743  26.371   3.194
58013W        W30339  41.090   3.311  10.671
58014W        W30340  32.505  22.965   1.492
58015W        W30341  24.588   6.315   0.403
58016W        W30342  13.591  18.634   2.696
58017W        W30343  40.513   1.919   0.819
58018W        W30344  15.206  31.093   3.924
58019W        W30345   0.316   6.608   1.716
58020W        W30346  33.292  28.036   4.051
58021W        W30347  11.928  37.097   2.741
58022W        W30348  16.699   8.361   4.312
58023W        W30349  17.564   2.305  13.111
58024W        W30350  29.517  11.656  14.418
58025W        W30351   1.896   8.223   2.182
58026W        W30352   4.267  23.288   1.326
58027W        W30353   6.377  44.348  13.283
58028W        W30354  17.804  36.013  12.149
58029W        W30355  31.749   4.885  11.521
58030W        W30356   6.677  23.469   0.002
58031W        W30357  24.956   8.969  12.928
58032W        W30358  13.297  42.023   4.585
58033W        W30359  39.081   7.249  13.126
58034W        W30360  41.003   8.181   4.509
58035W        W30361  37.577  37.003   2.616
58036W        W30362  19.629  42.059  12.909
58037W        W30363   5.893  43.894  10.374
58038W        W30364  11.266  42.845   5.127
58039W        W30365  35.492  25.481  14.317
58040W        W30366  36.105  26.702   2.719
58041W        W30367  44.941  33.953  11.966
58042W        W30368  10.911  10.697   1.474
58043W        W30369  35.190  43.128   3.141
58044W        W30370  22.904   1.485  13.999
58045W        W30371   2.007  33.639  11.016
58046W        W30372   2.860  15.379  13.370
58047W        W30373   6.829  13.246  14.221
58048W        W30374  26.317  12.936   1.947
58049W        W30375  42.366   1.262   1.783
58050W        W30376   7.267  37.371  11.447
58051W        W30377  30.988  18.351   4.460
58052W        W30378  36.239  13.523  14.008
58053W        W30379  21.731   1.108  11.804
58054W        W30380  14.882  30.196   4.994
58055W        W30381  32.846  19.104  13.368
58056W        W30382  13.721   1.502   2.415
58057W        W30383   1.915   3.991  10.472
58058W        W30384   4.305  28.932  13.947
58059W        W30385   4.804  43.258   2.809
58060W        W30386  23.681  26.394  10.665
58061W        W30387  24.020  16.155  13.231
58062W        W30388   8.375  41.037   2.146
58063W        W30389   0.163  23.590   4.051
58064W        W30390  30.442  13.893  11.223
58065W        W30391   3.122   3.296  13.484
58066W        W30392  24.640   3.747   0.014
58067W        W30393  36.005  25.116   1.846
58068W        W30394  30.924  26.940   1.448
58069W        W30395  18.326  38.929   4.491
58070W        W30396   0.894  15.384  14.415
58071W        W30397  11.361  17.479  14.951
58072W        W30398   3.830  39.524  14.434
58073W        W30399  16.616  11.711  13.679
58074W        W30400  31.949   9.654   4.021
58075W        W30401  13.348  26.637  14.978
58076W        W30402  26.317   4.146   2.510
58077W        W30403  12.340   0.134  11.150
58078W        W30404   9.868  39.148   1.863
58079W        W30405  30.506  38.468   4.939
58080W        W30406  35.971  40.809  11.105
58081W        W30407  42.370  40.122  13.045
58082W        W30408  42.102  25.089   4.202
58083W        W30409   5.730  17.961  12.172
58084W        W30410  31.128  39.846   0.314
58085W        W30411   4.330   9.876   0.341
58086W        W30412  41.574  28.069  13.142
58087W        W30413  35.972  16.062  11.213
58088W        W30414  11.052  16.731  11.468
58089W        W30415  27.097  28.152   2.317
58090W        W30416  25.790   7.239  12.833
58091W        W30417   3.437  25.804  10.787
58092W        W30418  28.976   2.891  11.149
58093W        W30419   9.406  19.964   1.570
58094W        W30420   4.773  19.616  10.911
58095W        W30421   3.364  43.881  14.888
58096W        W30422  31.056  20.678   2.241
58097W        W30423  22.303  44.378   2.368
58098W        W30424  13.185  19.308   1.748
58099W        W30425  13.825   3.864  12.055
58100W        W30426  31.328  40.362   4.605
58101W        W30427  23.327  23.545  10.725
58102W        W30428  34.529  40.513  14.750
58103W        W30429  24.129  28.090   0.217
58104W        W30430  22.192  10.120   0.312
58105W        W30431  25.094   8.346  14.978
58106W        W30432  13.295  43.902  13.982
58107W        W30433   4.135  12.232  14.424
58108W        W30434  34.552  32.043  12.634
58109W        W30435  19.474  38.849  13.012
58110W        W30436  24.150  17.312  10.439
58111W        W30437  42.439  35.826  12.863
58112W        W30438  42.876  31.934   2.076
58113W        W30439   8.777  26.161   4.690
58114W        W30440  15.948  33.176   3.685
58115W        W30441  31.094  18.294   0.357
58116W        W30442  31.169   0.477   3.438
58117W        W30443  23.158  35.001   1.527
58118W        W30444  35.383  13.791  13.534
58119W        W30445  25.274  34.614   2.223
58120W        W30446  29.597  28.135   2.261
58121W        W30447  43.336  38.661   3.397
58122W        W30448  34.989   7.814  11.958
58123W        W30449  27.281  19.784   0.432
58124W        W30450  28.951  35.313   4.620
58125W        W30451   6.348   5.812   0.344
58126W        W30452  40.754  33.737  11.538
58127W        W30453  30.083  14.749   0.474
58128W        W30454  44.471  21.108   4.570
58129W        W30455  20.692  31.487  11.558
58130W        W30456  39.088  25.457  12.972
58131W        W30457   4.347  38.344   1.356
58132W        W30458   2.945  33.329  10.913
58133W        W30459  35.945   7.888   1.808
58134W        W30460  29.144  22.654  13.849
58135W        W30461   2.051  24.095   3.830
58136W        W30462   2.428  15.936   0.945
58137W        W30463  36.441  44.724   2.453
58138W        W30464  37.081   4.495   0.024
58139W        W30465  24.937  14.862   0.050
58140W        W30466  21.049  25.660   2.082
58141W        W30467  24.784  42.064   2.649
58142W        W30468   5.636  37.459  14.939
58143W        W30469  20.485  24.216  11.643
58144W        W30470  36.275  35.310  12.309
58145W        W30471  34.604  31.161  12.388
58146W        W30472   3.386  30.233  14.015
58147W        W30473   8.588  35.278  14.932
58148W        W30474  35.298  42.129  14.928
58149W        W30475   9.564  36.795   2.285
58150W        W30476  10.324  19.270   0.936
58151W        W30477  13.538  19.762   3.139
58152W        W30478  22.661   3.383  14.751
58153W        W30479  38.478  37.532  10.129
58154W        W30480  25.690  16.114   1.716
58155W        W30481  34.955  22.531   4.594
58156W        W30482  17.302  13.348  13.907
58157W        W30483  22.202  37.655   1.378
58158W        W30484   9.571  12.055  12.573
58159W        W30485  40.106   5.105  13.196
58160W        W30486  31.270  12.270   3.936
58161W        W30487   1.693  12.200  11.512
58162W        W30488  25.634  32.377  14.464
58163W        W30489   8.808  18.454   2.211
58164W        W30490  12.172   5.437  13.969
58165W        W30491   6.640  38.245   3.217
58166W        W30492  38.221  14.520  12.383
58167W        W30493  11.202  14.812  10.698
58168W        W30494  40.353   3.126  11.145
58169W        W30495  31.002  19.304  13.915
58170W        W30496  30.127   6.218  14.393
58171W        W30497  16.619  10.654   0.530
58172W        W30498  44.712  44.005  13.008
58173W        W30499  34.433  14.520   3.176
58174W        W30500  19.179   9.694   1.817
58175W        W30501  29.793  26.160   5.497
58176W        W30502  35.475  22.312  10.793
58177W        W30503  23.974  28.616   3.666
58178W        W30504  11.168   0.382  14.437
58179W        W30505  41.524  39.776   1.876
58180W        W30506  35.289  22.434  11.541
58181W        W30507  10.141  22.755   0.819
58182W        W30508  19.103  10.145  11.527
58183W        W30509   8.355  27.395   1.984
58184W        W30510  17.483  44.403   0.562
58185W        W30511  12.045  41.502  12.899
58186W        W30512  14.154   4.365   4.537
58187W        W30513   0.866  37.144  11.474
58188W        W30514  18.559  17.189  12.059
58189W        W30515   7.742  25.514  13.052
58190W        W30516  41.676  38.093   2.251
58191W        W30517  16.793  36.545   1.791
58192W        W30518   2.770  22.494  14.813
58193W        W30519   3.604   2.440  13.414
58194W        W30520  23.773  20.645   1.243
58195W        W30521  44.030  38.472   2.759
58196W        W30522   0.062  16.643   1.455
58197W        W30523  24.234   7.818   0.264
58198W        W30524  22.954  13.098   0.819
58199W        W30525   0.349  26.648   1.896
58200W        W30526  27.738  18.107  14.949
58201W        W30527   7.937  44.494  12.554
58202W        W30528  42.218  15.198  11.897
58203W        W30529  41.453  39.418   4.359
58204W        W30530   8.646   4.320  12.919
58205W        W30531  34.823   6.720   0.705
58206W        W30532   4.030  14.288   0.511
58207W        W30533  34.140  25.070   3.071
58208W        W30534  23.606  12.717   2.655
58209W        W30535  13.699   6.464   0.242
58210W        W30536  20.205  14.541   3.265
58211W        W30537  24.178  14.583  11.554
58212W        W30538  43.008   2.977   3.761
58213W        W30539   6.790  39.322  11.178
58214W        W30540  31.640  22.431  10.818
58215W        W30541  32.036  42.459   0.259
58216W        W30542  22.793  37.875   3.146
58217W        W30543  32.578  19.510   2.231
58218W        W30544  17.745  24.198   0.412
58219W        W30545  40.833  18.551  13.533
58220W        W30546  26.987  23.914  13.463
58221W        W30547   7.317  42.413   0.262
58222W        W30548  29.000   1.406   4.213
58223W        W30549  37.833  27.622  13.800
58224W        W30550  37.075  44.944   0.764
58225W        W30551  38.791   9.890   0.484
58226W        W30552  12.031  38.424  14.537
58227W        W30553  44.526   9.695  11.188
58228W        W30554  27.153  29.072  11.832
58229W        W30555  15.106   6.728  14.544
58230W        W30556   3.143  10.194   1.422
58231W        W30557  23.675  22.059   3.821
58232W        W30558  13.222  24.549   5.023
58233W        W30559  33.623  43.231  11.575
58234W        W30560  20.501  21.721   1.779
58235W        W30561  30.101  38.816  11.896
58236W        W30562  16.825  28.187   4.037
58237W        W30563  25.528  11.330   4.137
58238W        W30564  18.990  13.735   1.737
58239W        W30565  11.064  37.215   1.039
58240W        W30566   1.692  29.074  11.070
58241W        W30567  10.439  22.702  13.245
58242W        W30568  29.453  37.435  13.113
58243W        W30569  22.531  11.374   2.672
58244W        W30570   5.401  44.277   0.721
58245W        W30571  24.311   7.938   3.579
58246W        W30572   1.453  32.880   0.833
58247W        W30573  16.199  44.894   1.844
58248W        W30574  29.593  32.897   3.901
58249W        W30575  20.500  14.131   4.217
58250W        W30576  37.840  28.204   0.229
58251W        W30577   3.271  13.147  12.541
58252W        W30578  29.175  20.006  12.980
58253W        W30579  35.505  38.331   2.253
58254W        W30580  22.036  14.394  13.855
58255W        W30581   6.615   0.906  14.239
58256W        W30582  16.017   5.918  13.330
58257W        W30583  42.537   9.621  13.398
58258W        W30584  31.490  31.355   0.268
58259W        W30585  11.601   6.401   3.176
58260W        W30586   0.665  41.829  14.635
58261W        W30587  14.207  38.725   0.017
58262W        W30588   8.065  31.384   1.544
58263W        W30589   2.863  22.811   0.458
58264W        W30590  29.506  26.095   3.256
58265W        W30591   5.518  32.350   2.541
58266W        W30592  28.695  18.166   2.159
58267W        W30593  11.066  27.283  12.032
58268W        W30594  13.280  28.061   3.759
58269W        W30595  16.495  19.177   0.223
58270W        W30596   1.472  10.212   1.982
58271W        W30597   9.469  39.870  12.482
58272W        W30598  11.574  44.449   4.659
58273W        W30599  17.580  35.824  14.551
58274W        W30600  44.892  27.162  10.656
58275W        W30601  38.766  42.386  10.320
58276W        W30602  43.997  18.181  12.249
58277W        W30603  16.744  24.707   5.037
58278W        W30604  44.501  27.627   1.422
58279W        W30605   4.782  12.909  10.952
58280W        W30606  12.715  36.486   5.497
58281W        W30607   3.957   5.451   2.855
58282W        W30608   0.750  20.264  11.956
58283W        W30609  25.220  19.339   4.118
58284W        W30610  16.358   3.850  11.676
58285W        W30611  28.645  12.669   4.631
58286W        W30612   5.214   8.087  10.860
58287W        W30613  30.862  36.568  10.801
58288W        W30614  37.678  19.655   2.743
58289W        W30615  18.568  17.028   4.039
58290W        W30616  30.028  12.630   2.443
58291W        W30617  19.542  33.393   0.713
58292W        W30618  38.850  42.865   0.237
58293W        W30619  19.411  44.492   3.226
58294W        W30620  25.475   8.132   1.426
58295W        W30621  31.068   1.357  13.028
58296W        W30622  34.437   5.010  13.079
58297W        W30623  34.399   5.722   3.722
58298W        W30624  22.287  10.358   0.800
58299W        W30625  18.704  17.776   0.239
58300W        W30626   0.193   4.509   4.410
58301W        W30627  21.155  12.576   1.396
58302W        W30628  12.863   5.231   4.403
58303W        W30629  33.845  11.270  12.998
58304W        W30630  43.526  18.122   1.751
58305W        W30631  30.100  42.099  11.189
58306W        W30632   4.240  29.417  11.100
58307W        W30633   8.789  13.828   4.518
58308W        W30634   8.332  24.549   2.963
58309W        W30635  38.404   3.646  14.988
58310W        W30636   6.808  32.575  11.480
58311W        W30637  11.234  32.905  12.521
58312W        W30638  18.324  18.224   2.195
58313W        W30639  13.515   4.405   0.282
58314W        W30640  32.492  13.356  11.572
58315W        W30641  36.439  44.049   4.639
58316W        W30642  28.871  31.009   1.503
58317W        W30643  30.469  42.660  11.540
58318W        W30644  23.333  32.240   2.364
58319W        W30645  11.206  12.764  12.958
58320W        W30646  10.428  27.579   0.145
58321W        W30647  41.601  25.434   0.960
58322W        W30648  44.196  18.620   0.517
58323W        W30649   6.772  22.173  13.093
58324W        W30650  40.109  38.507   3.756
58325W        W30651  34.379  22.048  13.487
58326W        W30652  34.528   3.434   3.341
58327W        W30653  16.593   4.415  14.865
58328W        W30654  18.821   9.928  12.877
58329W        W30655  36.601   5.744   3.610
58330W        W30656  15.195  15.350  13.413
58331W        W30657  41.355  33.535   0.891
58332W        W30658  31.376  17.982  12.569
58333W        W30659  11.433  28.693  12.788
58334W        W30660   0.227  41.201  12.841
58335W        W30661  24.539  39.922   0.954
58336W        W30662  14.123   9.636   1.778
58337W        W30663  20.496   5.345   3.359
58338W        W30664   8.473  26.221  12.588
58339W        W30665  40.890   7.262  13.967
58340W        W30666  31.512  26.966   3.658
58341W        W30667  16.662  12.085   2.502
58342W        W30668   1.489   5.406  12.819
58343W        W30669  16.144  11.839  11.973
58344W        W30670   1.646  29.043   3.377
58345W        W30671  16.043  15.676   1.333
58346W        W30672  27.796  35.434  14.612
58347W        W30673   9.592  35.832   1.269
58348W        W30674  29.655  20.074   0.858
58349W        W30675  42.434  11.606  13.040
58350W        W30676  31.474  43.411  11.607
58351W        W30677  23.792  42.850  12.330
58352W        W30678  44.907  10.746   2.788
58353W        W30679  29.931   2.646   3.258
58354W        W30680   0.871  29.353  11.356
58355W        W30681  23.306  15.775   3.250
58356W        W30682  41.254  30.669  12.997
58357W        W30683  20.098   7.744   1.092
58358W        W30684  10.570   6.013  13.339
58359W        W30685  21.148  35.319   4.131
58360W        W30686   8.211  20.179   4.402
58361W        W30687  43.550  17.048   4.247
58362W        W30688   9.706  28.674  14.446
58363W        W30689  36.317  10.353   2.170
58364W        W30690   3.434  14.962   0.666
58365W        W30691  40.555  32.214   4.181
58366W        W30692   4.921   8.829  13.279
58367W        W30693  38.850  43.480  13.032
58368W        W30694   5.341  37.304  14.500
58369W        W30695   4.510  21.925   2.834
58370W        W30696  17.129  20.231   4.098
58371W        W30697  35.401   2.364   1.702
58372W        W30698  36.399  11.932   1.463
58373W        W30699  30.562  36.068  14.712
58374W        W30700  24.274   0.246   0.517
58375W        W30701  30.539  42.433  14.454
58376W        W30702  13.145  28.861  12.175
58377W        W30703  37.546   9.420  13.025
58378W        W30704  38.903   5.557   4.750
58379W        W30705  40.037  38.523  11.823
58380W        W30706  40.023  21.360  12.836
58381W        W30707   2.227  24.864  11.260
58382W        W30708  25.149   5.650   3.436
58383W        W30709   9.577   8.340  14.412
58384W        W30710  42.713  30.446   2.358
58385W        W30711  16.231  28.866  13.686
58386W        W30712  43.438  16.765   0.368
58387W        W30713  22.995   0.861  11.190
58388W        W30714  27.108   7.942  13.287
58389W        W30715   9.257   7.841  12.406
58390W        W30716  34.093   7.876   2.717
58391W        W30717   3.395  12.283   3.689
58392W        W30718   3.452  10.609  11.110
58393W        W30719  15.037  43.997  14.760
58394W        W30720   0.581  18.366  12.542
58395W        W30721   2.235   6.966   3.071
58396W        W30722  37.249  25.388  14.319
58397W        W30723  28.386   2.811   4.061
58398W        W30724  14.188  21.759  10.897
58399W        W30725   2.835  36.019   0.874
58400W        W30726  14.627  44.393   1.713
58401W        W30727   1.569  29.608  13.453
58402W        W30728  41.274  31.993   0.320
58403W        W30729   2.572   0.132  13.267
58404W        W30730  13.284  29.154  12.561
58405W        W30731  27.170  26.413   2.770
58406W        W30732  25.180  16.822   0.545
58407W        W30733  43.556  42.439  14.382
58408W        W30734  20.615  10.626   2.726
58409W        W30735  15.604   1.836  12.449
58410W        W30736  31.400  14.082  13.056
58411W        W30737  38.369  30.960  14.987
58412W        W30738  36.533  38.922   4.327
58413W        W30739  38.319  18.556  11.862
58414W        W30740  36.204  32.770   3.252
58415W        W30741  24.510  39.780  11.585
58416W        W30742  11.411  23.255   3.340
58417W        W30743  38.879  18.028   1.609
58418W        W30744  31.533   5.208  14.915
58419W        W30745  42.890   9.852  14.117
58420W        W30746  35.367  39.362   2.381
58421W        W30747  37.423  11.617  13.497
58422W        W30748  11.131  32.141   1.914
58423W        W30749  12.176  12.227  13.613
58424W        W30750  19.704  22.379  10.778
58425W        W30751  39.110  22.554   3.147
58426W        W30752  10.034   7.344  10.381
58427W        W30753   5.594   4.835  12.556
58428W        W30754  24.203  32.052  13.491
58429W        W30755  42.470   5.972  10.536
58430W        W30756  11.280  27.162  10.658
58431W        W30757  23.141  22.969   3.151
58432W        W30758  43.654   0.488   1.236
58433W        W30759  36.542  34.960   2.318
58434W        W30760  12.064  37.938  13.499
58435W        W30761  20.056  29.484  11.497
58436W        W30762   9.147   7.505   2.334
58437W        W30763  37.927  16.898  14.089
58438W        W30764   5.998  22.415   2.048
58439W        W30765  24.533  38.101  13.080
58440W        W30766  12.250  37.008   3.879
58441W        W30767   1.484  28.539   0.207
58442W        W30768  13.364  44.515   1.447
58443W        W30769   1.904  14.545   0.987
58444W        W30770   1.828  27.145   3.132
58445W        W30771  43.520  18.814  14.743
58446W        W30772  16.585  43.471  12.928
58447W        W30773  27.680  24.534   1.917
58448W        W30774  43.752  21.126  12.819
58449W        W30775   7.111   2.361  12.501
58450W        W30776  16.227  11.123  11.172
58451W        W30777  17.673  38.551  11.053
58452W        W30778  18.223   3.002   1.812
58453W        W30779  29.934  44.447   2.277
58454W        W30780  22.251  39.646   4.671
58455W        W30781  41.284  27.949   2.441
58456W        W30782   2.976  26.231   2.430
58457W        W30783  42.324  21.742  14.957
58458W        W30784  11.617  21.197  13.487
58459W        W30785  15.157  10.371   4.314
58460W        W30786  13.121  42.861  13.998
58461W        W30787  34.132  31.861  12.019
58462W        W30788   9.371  14.663  11.262
58463W        W30789  15.191  43.081   1.886
58464W        W30790  31.485   4.378   2.285
58465W        W30791  34.898  28.018   5.114
58466W        W30792  39.691   7.822  10.592
58467W        W30793  30.192  25.606   2.333
58468W        W30794  29.927  33.583   1.281
58469W        W30795  21.517  12.207  12.217
58470W        W30796   0.937   3.407   2.818
58471W        W30797  13.435  20.914  11.536
58472W        W30798  41.381  36.453   1.737
58473W        W30799  36.075  38.508   1.578
58474W        W30800  22.514  44.449  12.568
58475W        W30801  12.715   2.383  14.476
58476W        W30802  33.026  29.699  11.045
58477W        W30803  37.045  18.469   1.308
58478W        W30804  33.535  21.523   4.988
58479W        W30805  29.538  15.851  14.789
58480W        W30806  33.055   2.302  13.245
58481W        W30807  14.182  28.594  10.634
58482W        W30808  34.964   2.941   3.685
58483W        W30809  35.302  33.626  14.346
58484W        W30810  33.654  36.070   1.866
58485W        W30811  15.379  25.275   0.645
58486W        W30812  32.394   0.964   2.874
58487W        W30813   9.176  29.481  11.598
58488W        W30814  26.197   7.818   2.272
58489W        W30815  34.601   2.957   0.506
58490W        W30816  42.178  41.365   3.340
58491W        W30817   1.253  17.244   3.249
58492W        W30818   6.177  19.663  11.983
58493W        W30819  20.048  43.392  13.879
58494W        W30820  38.462  18.688   4.231
58495W        W30821   3.711   6.137   3.428
58496W        W30822  30.090   5.346  10.559
58497W        W30823   2.684  27.036  14.730
58498W        W30824  11.168  35.354   0.358
58499W        W30825  15.113  11.358   3.720
58500W        W30826  33.911  18.071   4.096
58501W        W30827  10.239  35.485   0.080
58502W        W30828  32.038  35.063   0.862
58503W        W30829  27.541  30.908   2.759
58504W        W30830  19.172   2.421   2.428
58505W        W30831  14.242   9.205  12.007
58506W        W30832  37.597  42.516   0.237
58507W        W30833  20.481  14.314  14.508
58508W        W30834  13.246  34.059   3.827
58509W        W30835   2.799  20.662  13.070
58510W        W30836  32.712  14.629  12.604
58511W        W30837  29.755  29.889  11.903
58512W        W30838  12.151  28.194  10.168
58513W        W30839  21.749   8.055   4.170
58514W        W30840  10.873  26.422   3.760
58515W        W30841  32.652  20.660  14.454
58516W        W30842  23.435  25.514  13.958
58517W        W30843  26.642  26.086  12.039
58518W        W30844  18.169  28.342  11.127
58519W        W30845  11.294  23.476   0.880
58520W        W30846  42.755  15.294  14.286
58521W        W30847  40.455  26.073   3.964
58522W        W30848  26.467  30.319   0.274
58523W        W30849  16.250  41.991   2.140
58524W        W30850  36.638  35.420   0.300
58525W        W30851  35.668  24.849  10.981
58526W        W30852  34.030  29.585  11.971
58527W        W30853   2.390  36.344   1.872
58528W        W30854  10.689  43.050  11.542
58529W        W30855  32.616  24.686   1.751
58530W        W30856  26.540   2.865   1.407
58531W        W30857  42.502   5.178  14.795
58532W        W30858  37.588  40.159   3.430
58533W        W30859  19.730   0.503  14.773
58534W        W30860   4.941  23.017   3.623
58535W        W30861  12.353  38.078  14.842
58536W        W30862   8.319  13.296  13.409
58537W        W30863   3.988  31.411  14.092
58538W        W30864  27.072  13.284   3.692
58539W        W30865  41.764  15.242   0.662
58540W        W30866  12.826  28.121  10.043
58541W        W30867  16.177  26.736   1.931
58542W        W30868  26.019   8.614   0.624
58543W        W30869   0.300  42.416   3.110
58544W        W30870   3.031  42.721   3.639
58545W        W30871   6.702  32.032  14.099
58546W        W30872  36.792  13.352  13.924
58547W        W30873   2.489   7.441   4.603
58548W        W30874  11.801  43.887  12.891
58549W        W30875  44.945  39.795  14.410
58550W        W30876  24.137  44.187  13.002
58551W        W30877   2.491   9.179   0.051
58552W        W30878  17.034   5.651  10.748
58553W        W30879  44.063  16.917  11.068
58554W        W30880  43.559   8.156   3.853
58555W        W30881  16.036   9.859   2.686
58556W        W30882  33.102  30.096   4.687
58557W        W30883  19.218  27.610  11.531
58558W        W30884   7.456  16.389  12.009
58559W        W30885  10.370  34.056  10.990
58560W        W30886  38.593   8.177   0.375
58561W        W30887  41.422   9.614   1.060
58562W        W30888  29.929  24.948  12.997
58563W        W30889  39.492   4.890  11.011
58564W        W30890   2.450  13.677   3.241
58565W        W30891  23.796  23.555  11.634
58566W        W30892  40.071   1.054  12.037
58567W        W30893  10.901  35.497   4.677
58568W        W30894  36.657  30.328   1.817
58569W        W30895  44.125  37.961  12.817
58570W        W30896  11.310  40.717  12.346
58571W        W30897  28.554  16.398   1.730
58572W        W30898   2.180  35.072  14.591
58573W        W30899  14.371  32.838  13.450
58574W        W30900   1.500  43.087   1.176
58575W        W30901  41.029   6.213   4.507
58576W        W30902  19.344  30.077   0.767
58577W        W30903  11.207  27.735  14.270
58578W        W30904  35.791  22.727  14.785
58579W        W30905  27.703   9.450   4.541
58580W        W30906  18.727  34.382   2.749
58581W        W30907  30.176  27.639  13.826
58582W        W30908  26.940  20.054  12.854
58583W        W30909  26.555   1.945   4.991
58584W        W30910  38.250  18.794   1.903
58585W        W30911  26.859  31.056  13.507
58586W        W30912  25.185  36.850  13.424
58587W        W30913  26.819  18.287  13.599
58588W        W30914  21.305  23.717   2.646
58589W        W30915   8.176  21.205   4.549
58590W        W30916  10.732  35.549  12.421
58591W        W30917  24.005  31.408   4.577
58592W        W30918  13.045  13.260  14.783
58593W        W30919  42.850  10.074   4.472
58594W        W30920   1.450  35.097  13.182
58595W        W30921  17.157  20.773  11.056
58596W        W30922  35.778   8.277  14.385
58597W        W30923  16.174  39.575   3.659
58598W        W30924  27.146   1.836   3.693
58599W        W30925  37.938   1.969   5.368
58600W        W30926   5.246   4.792  11.527
58601W        W30927  13.363  17.264   2.671
58602W        W30928  20.386  35.059  12.056
58603W        W30929   0.025  27.940  13.916
58604W        W30930  14.914  30.074  11.145
58605W        W30931   7.808  31.354   2.858
58606W        W30932   3.482  43.373  14.983
58607W        W30933  22.120   1.886  12.483
58608W        W30934  38.850  28.000   3.276
58609W        W30935   3.919  23.081  14.936
58610W        W30936   9.909   4.915  13.916
58611W        W30937  28.107  14.543  13.406
58612W        W30938  15.331  44.961  14.869
58613W        W30939  28.172  40.885  14.088
58614W        W30940  42.424  30.977   0.227
58615W        W30941  31.354  42.978   3.697
58616W        W30942  30.134  27.563  14.718
58617W        W30943  32.903  27.665   3.249
58618W        W30944  34.567  23.244  11.426
58619W        W30945  19.627  42.762  11.180
58620W        W30946  21.247   6.687  14.900
58621W        W30947  19.201   5.832  12.565
58622W        W30948  35.529  43.423   1.459
58623W        W30949  39.050  13.407   3.727
58624W        W30950  29.575  11.101  11.972
58625W        W30951   1.413  16.824   2.967
58626W        W30952  27.560   3.366  13.853
58627W        W30953  15.350  18.592   2.296
58628W        W30954  18.120  23.104  13.504
58629W        W30955  44.008  18.672  10.444
58630W        W30956  31.416  42.447  14.790
58631W        W30957  14.845  32.805  13.240
58632W        W30958  23.142   6.239   0.274
58633W        W30959  42.829  15.092  13.300
58634W        W30960  11.136  38.589   1.425
58635W        W30961  19.238  41.849   2.468
58636W        W30962  31.004  25.202  14.314
58637W        W30963   0.168   0.199  11.666
58638W        W30964  22.322   7.548  11.895
58639W        W30965  29.717  29.027   9.995
58640W        W30966  42.406  18.272  13.434
58641W        W30967  13.248  14.277   1.127
58642W        W30968   1.143  24.023  11.407
58643W        W30969   3.828  31.487   4.449
58644W        W30970   3.579  35.495   3.866
58645W        W30971  28.225  11.244  11.610
58646W        W30972   8.298  26.653  10.847
58647W        W30973  29.512  10.977   1.642
58648W        W30974  30.701  24.711  11.011
58649W        W30975  12.213  24.519  13.044
58650W        W30976   1.722  17.765   2.849
58651W        W30977  24.272  13.874   3.097
58652W        W30978  19.021   2.418   2.916
58653W        W30979   6.615  34.895  13.516
58654W        W30980  35.173  18.585  13.970
58655W        W30981  15.369   9.142  13.078
58656W        W30982  24.011   7.650   3.189
58657W        W30983  36.990  21.449  12.195
58658W        W30984  33.564  22.026  10.372
58659W        W30985   7.991   3.561  11.782
58660W        W30986  25.487   1.144  14.937
58661W        W30987  37.801  19.141   2.353
58662W        W30988  14.727  19.052   4.146
58663W        W30989  21.589  30.848   3.268
58664W        W30990   3.796  18.600  11.861
58665W        W30991  11.117  37.801   0.370
58666W        W30992  21.210  30.179   0.259
58667W        W30993  19.826  30.007   0.032
58668W        W30994  28.810  35.516  14.963
58669W        W30995   9.889  13.151  13.531
58670W        W30996  34.625   0.339  13.873
58671W        W30997  10.833  38.215  11.689
58672W        W30998  15.753   0.763   4.540
58673W        W30999  32.480  19.202   1.810
58674W        W31000  41.331  33.061  11.618
58675W        W31001  12.703  37.853   4.989
58676W        W31002  33.937  30.600  12.390
58677W        W31003  30.534   2.613  11.358
58678W        W31004  13.182  28.058  13.951
58679W        W31005   4.341  36.421  10.521
58680W        W31006  20.793  14.109  14.163
58681W        W31007  11.046  43.541   0.265
58682W        W31008  26.563  33.016   0.276
58683W        W31009   4.987  16.912   0.914
58684W        W31010  31.615   9.780   1.189
58685W        W31011  34.680   8.758  14.936
58686W        W31012  43.770  12.751  14.734
58687W        W31013   1.511  27.620  14.108
58688W        W31014  40.362   4.849   2.253
58689W        W31015  30.290  15.272  11.001
58690W        W31016  20.006  43.762   4.567
58691W        W31017  15.242  34.557   1.703
58692W        W31018  38.773   0.807   3.636
58693W        W31019   7.812   5.398   2.961
58694W        W31020  42.523  10.051   3.525
58695W        W31021  23.672  40.285  11.076
58696W        W31022  43.872  38.770  14.424
58697W        W31023  19.846  43.381   2.934
58698W        W31024  44.494   0.971  14.008
58699W        W31025  25.988  20.977  12.061
58700W        W31026  30.956  34.355   0.455
58701W        W31027  17.677   6.233   0.151
58702W        W31028   2.319   8.985  12.618
58703W        W31029  19.118  33.098   1.651
58704W        W31030  24.117  12.820   2.852
58705W        W31031   4.331  39.448   1.398
58706W        W31032  11.118  41.981   3.746
58707W        W31033   0.531  27.072   4.032
58708W        W31034  39.496  25.645   1.838
58709W        W31035  22.657  16.137   9.753
58710W        W31036  44.488  24.803   1.852
58711W        W31037  42.145  38.235   1.281
58712W        W31038  39.528  37.808   1.800
58713W        W31039  39.713  16.275  14.788
58714W        W31040  10.723  27.525   2.429
58715W        W31041  42.334  36.533   4.230
58716W        W31042   6.851  27.312   2.143
58717W        W31043  29.771  35.833  13.600
58718W        W31044  30.556  32.077   0.838
58719W        W31045  12.249   8.415   0.754
58720W        W31046   0.383  24.295  11.095
58721W        W31047  13.815  39.587   4.843
58722W        W31048  28.626  30.664  12.284
58723W        W31049   5.922   0.435   4.219
58724W        W31050   6.103  11.996   2.654
58725W        W31051  42.069  27.900  11.617
58726W        W31052  33.593  24.576   3.602
58727W        W31053  10.209  26.015  10.101
58728W        W31054  40.157  24.969  11.846
58729W        W31055   3.995  17.740  11.930
58730W        W31056  10.251   3.467   2.452
58731W        W31057  25.106   4.950  11.068
58732W        W31058  38.959  22.692   3.621
58733W        W31059  31.023  42.094  14.835
58734W        W31060  38.519   7.650  13.803
58735W        W31061   6.927  21.022  11.147
58736W        W31062  24.909  36.946  13.997
58737W        W31063   8.092  30.533  12.454
58738W        W31064  11.166  13.420  13.286
58739W        W31065  33.404  40.584   1.270
58740W        W31066  12.264  20.334   1.162
58741W        W31067  15.198  32.354   2.815
58742W        W31068  29.606  30.448   2.835
58743W        W31069  28.402  21.981  10.475
58744W        W31070   1.028  36.821  13.699
58745W        W31071  34.871  19.598   4.222
58746W        W31072  31.231  33.711  10.279
58747W        W31073  41.055  34.354   2.496
58748W        W31074   5.191   5.802   2.832
58749W        W31075  36.526   3.325  14.723
58750W        W31076  42.798  40.404   0.392
58751W        W31077  38.438   0.172   0.278
58752W        W31078  19.817  12.250  13.409
58753W        W31079   3.183   7.442  13.885
58754W        W31080  25.077  27.235   2.817
58755W        W31081  13.862  40.421  11.490
58756W        W31082  30.354  37.868  13.801
58757W        W31083  17.328  26.172  14.895
58758W        W31084  35.511  28.899  14.421
58759W        W31085   3.691  39.326  11.417
58760W        W31086  41.438  12.369  11.662
58761W        W31087  30.977  19.450   4.810
58762W        W31088  17.477  35.579  13.925
58763W        W31089  36.406   9.623  14.844
58764W        W31090  34.774   0.816   1.149
58765W        W31091   0.612  21.922   1.857
58766W        W31092  42.046  23.870  10.533
58767W        W31093  43.157  17.463   3.293
58768W        W31094   3.698   7.397  10.978
58769W        W31095   1.234  14.208  12.114
58770W        W31096  13.880  19.767   1.771
58771W        W31097   3.678  44.774   2.358
58772W        W31098  38.885  12.582   1.799
58773W        W31099  32.928  36.965   0.309
58774W        W31100   5.649  16.104  13.290
58775W        W31101  31.646   9.142  12.890
58776W        W31102  36.003  23.492  12.036
58777W        W31103  21.575  42.324  13.012
58778W        W31104  29.119  23.976  13.414
58779W        W31105  13.336   7.304  12.965
58780W        W31106   2.426  30.536   3.193
58781W        W31107  35.057  18.778  12.510
58782W        W31108  27.020  14.022   1.361
58783W        W31109  35.358  17.305   2.685
58784W        W31110   6.404   4.241  10.229
58785W        W31111  15.248  38.232   0.260
58786W        W31112   5.322  16.881   2.818
58787W        W31113   8.632  11.106  14.771
58788W        W31114  41.741  14.563   1.176
58789W        W31115  26.964   4.197   3.214
58790W        W31116  24.161  44.789   3.690
58791W        W31117   4.163   3.687   4.215
58792W        W31118  11.757  18.974  13.871
58793W        W31119  34.671  27.982  13.859
58794W        W31120  15.116  27.863   4.806
58795W        W31121  31.993  26.105  13.139
58796W        W31122  27.443   1.457  11.793
58797W        W31123  17.794  23.499   2.266
58798W        W31124  28.183  20.045   2.233
58799W        W31125   4.611  37.809  11.060
58800W        W31126  16.788  40.281  14.970
58801W        W31127   3.216  21.813  11.096
58802W        W31128  39.352  27.954   4.130
58803W        W31129  14.672  24.818   9.813
58804W        W31130  17.481  20.856   3.684
58805W        W31131   4.329   6.295   4.022
58806W        W31132   0.567  24.661  14.331
58807W        W31133  38.900  23.267  14.807
58808W        W31134  36.826  27.129   0.029
58809W        W31135   6.308  19.556  12.480
58810W        W31136  15.189  21.557   3.633
58811W        W31137   1.902  20.800  12.972
58812W        W31138   2.518  41.284   0.780
58813W        W31139  31.165  18.812  11.584
58814W        W31140  34.915   7.259  12.106
58815W        W31141  21.263  35.518   3.130
58816W        W31142  31.612   2.815  11.190
58817W        W31143  39.592   5.217   0.058
58818W        W31144  20.649   5.694  14.321
58819W        W31145  25.588  19.694  10.114
58820W        W31146  27.058  40.481   4.641
58821W        W31147  13.699  26.150  12.628
58822W        W31148  40.665   8.211  13.227
58823W        W31149  41.757  29.499  11.941
58824W        W31150  26.589  29.208  11.135
58825W        W31151  27.124   9.697  11.933
58826W        W31152   4.794   8.009  13.224
58827W        W31153  27.036  22.264   9.896
58828W        W31154   8.247  39.131  12.505
58829W        W31155  44.880  28.232  11.645
58830W        W31156  44.273  37.996  14.773
58831W        W31157  39.985  11.822   3.708
58832W        W31158  42.528  35.914   3.166
58833W        W31159  11.512  34.469  11.537
58834W        W31160  38.312   9.641   0.498
58835W        W31161  38.009  30.462  14.533
58836W        W31162  35.881  39.358  12.093
58837W        W31163   5.941   2.829   3.672
58838W        W31164   8.912  18.292   2.690
58839W        W31165  26.600  10.664  14.870
58840W        W31166  17.497   2.621  11.263
58841W        W31167  19.969  34.393  13.823
58842W        W31168  27.074  28.658   2.460
58843W        W31169  41.658  39.500  13.100
58844W        W31170   8.333  26.468   4.690
58845W        W31171  27.890  40.758   1.773
58846W        W31172  22.902  16.744  10.529
58847W        W31173  11.099  35.038   5.052
58848W        W31174  13.253  10.724   4.798
58849W        W31175  24.099   6.527  14.003
58850W        W31176  21.398  28.857  10.538
58851W        W31177   9.301  35.459   2.369
58852W        W31178  35.844  42.365  12.358
58853W        W31179  11.554   1.416   0.216
58854W        W31180  41.057   2.282   3.313
58855W        W31181   5.699  16.380   0.780
58856W        W31182   3.808  35.636   1.763
58857W        W31183  38.836  27.975   4.161
58858W        W31184  37.875  37.794  13.382
58859W        W31185  32.724   3.270  12.940
58860W        W31186  17.056  43.885  13.316
58861W        W31187  13.321  27.542  11.156
58862W        W31188  35.199  28.975   5.103
58863W        W31189  43.288   3.824   1.384
58864W        W31190  15.095   5.492  13.397
58865W        W31191   5.496  17.513  12.070
58866W        W31192  38.648  13.771  10.056
58867W        W31193  43.064  44.384   3.115
58868W        W31194  27.715  22.075   4.544
58869W        W31195  31.939  30.754  14.883
58870W        W31196  28.901  29.377  12.158
58871W        W31197  20.739  34.389   0.706
58872W        W31198  11.699   8.148   2.718
58873W        W31199  42.582  17.713  11.076
58874W        W31200  24.670  26.004   0.386
58875W        W31201  24.447  40.590  11.310
58876W        W31202  29.399   3.845   4.559
58877W        W31203  14.142  29.111   3.063
58878W        W31204  33.904  35.050   1.558
58879W        W31205  11.268  19.574   2.307
58880W        W31206  22.817  20.078  11.852
58881W        W31207  23.648  39.448   0.805
58882W        W31208  26.455  24.644   3.022
58883W        W31209  31.465  31.446  12.207
58884W        W31210  20.995   1.632   2.364
58885W        W31211  17.685  27.739   3.635
58886W        W31212  23.190   6.730   3.832
58887W        W31213   3.930   4.957   1.023
58888W        W31214   8.209  23.497   4.994
58889W        W31215   9.409  28.578  14.045
58890W        W31216  20.207  24.731   4.305
58891W        W31217  25.455  31.704  12.606
58892W        W31218  14.155  41.039   4.067
58893W        W31219  41.896  11.856  13.767
58894W        W31220  11.839  10.864   3.717
58895W        W31221  40.475  39.378   0.887
58896W        W31222  44.971   5.442  14.754
58897W        W31223  10.672  27.193  12.350
58898W        W31224  40.407  12.882  12.847
58899W        W31225   3.483  32.621  13.486
58900W        W31226  39.672  27.220   3.707
58901W        W31227  20.469  31.215   2.677
58902W        W31228  14.599   1.998  14.492
58903W        W31229  32.934   6.005   4.862
58904W        W31230  33.218  24.208   0.879
58905W        W31231  16.453   5.350   1.836
58906W        W31232  12.560  10.300  14.840
58907W        W31233  27.414  29.136   9.552
58908W        W31234  30.486   6.868   2.875
58909W        W31235  32.059  12.303   4.158
58910W        W31236  28.855  44.131   3.653
58911W        W31237  27.600   4.647   1.721
58912W        W31238  28.652  18.811  11.130
58913W        W31239  16.633   2.472   0.899
58914W        W31240  14.096   9.361   0.443
58915W        W31241  25.597  27.056  14.093
58916W        W31242  33.861  19.486   1.638
58917W        W31243  32.495  22.979   0.227
58918W        W31244  40.847  21.091   3.778
58919W        W31245  27.767   8.673   0.469
58920W        W31246  20.677  28.624   4.831
58921W        W31247   0.929  41.296   2.752
58922W        W31248  27.256   7.786   3.224
58923W        W31249  28.891  33.303   1.222
58924W        W31250   1.121  10.724   9.810
58925W        W31251  43.143  14.158   0.429
58926W        W31252  41.650  44.775  10.915
58927W        W31253  16.128  25.439   0.878
58928W        W31254  38.642  13.656   2.364
58929W        W31255  45.000  14.516   3.301
58930W        W31256  42.887  22.820  13.521
58931W        W31257  33.619  21.270  13.891
58932W        W31258  12.460  12.165   0.161
58933W        W31259  15.963   1.635   2.299
58934W        W31260  20.112   0.844   3.229
58935W        W31261  30.621   6.814   2.379
58936W        W31262  21.029  22.624  13.116
58937W        W31263  42.063   5.555   2.315
58938W        W31264  42.574  18.859   5.161
58939W        W31265  35.527  29.730   2.844
58940W        W31266  44.484  44.041  13.504
58941W        W31267  29.674   1.114  12.026
58942W        W31268  13.736  22.151   0.706
58943W        W31269  15.155  31.985  14.736
58944W        W31270  32.616  34.715  10.512
58945W        W31271  41.227  30.124   0.740
58946W        W31272  26.650  18.062  11.812
58947W        W31273   6.284  33.312   5.367
58948W        W31274  40.537  14.676   1.810
58949W        W31275  33.685  20.473   1.785
58950W        W31276  18.310  25.118  10.161
58951W        W31277  17.490  14.317  12.936
58952W        W31278  34.081   8.629  11.998
58953W        W31279  42.401   5.232  12.095
58954W        W31280   3.452  13.949  11.646
58955W        W31281  10.810  25.662  10.654
58956W        W31282  32.359  29.432   4.872
58957W        W31283  34.131   1.578   0.765
58958W        W31284   9.712   3.867   0.396
58959W        W31285   1.927   0.927   2.350
58960W        W31286  10.535  14.737  12.558
58961W        W31287  30.119  35.662  14.420
58962W        W31288  28.132  15.701  14.159
58963W        W31289  15.615  33.847  12.164
58964W        W31290  26.380  14.878   4.263
58965W        W31291  36.523   6.292   3.271
58966W        W31292  36.296  15.021  12.413
58967W        W31293  24.552  23.935  11.302
58968W        W31294  35.028   6.880   3.377
58969W        W31295  39.446   5.848   0.768
58970W        W31296   4.979  23.348  13.583
58971W        W31297   9.143  11.173  14.721
58972W        W31298  13.325   4.456   4.892
58973W        W31299  42.738  12.299  12.832
58974W        W31300  41.951  40.875   3.432
58975W        W31301   0.774   6.173   2.946
58976W        W31302  34.622  33.403  11.926
58977W        W31303  14.289  43.524  11.075
58978W        W31304  28.860   7.489   0.308
58979W        W31305  29.133  36.441  11.703
58980W        W31306  22.068  18.630   1.806
58981W        W31307  23.179  25.943  13.608
58982W        W31308  12.673  18.844  12.929
58983W        W31309  41.611  19.682   3.793
58984W        W31310  34.125   1.888  11.575
58985W        W31311   6.935  19.749  11.486
58986W        W31312  34.476  12.677   4.178
58987W        W31313  16.232   7.776   1.212
58988W        W31314  29.476  32.031  14.328
58989W        W31315  20.428  32.877  14.248
58990W        W31316  43.746  25.219   3.133
58991W        W31317  38.829  31.034  12.211
58992W        W31318  43.334  21.132   4.711
58993W        W31319  20.573  36.829  11.211
58994W        W31320  39.804  36.435  13.446
58995W        W31321  32.828   4.235   0.366
58996W        W31322  23.435  18.284  13.321
58997W        W31323  44.912  24.681   0.567
58998W        W31324  24.758  17.795   3.290
58999W        W31325   7.362  19.528   1.100
59000W        W31326  43.585  42.790   4.095
59001W        W31327  26.778  21.003   3.519
59002W        W31328  29.037   6.933   4.577
59003W        W31329  27.035  39.481  14.751
59004W        W31330  20.106  39.848   4.704
59005W        W31331   2.341  36.959  14.771
59006W        W31332   7.819   3.939  12.126
59007W        W31333  14.186  24.550  12.797
59008W        W31334  38.821   3.573   3.532
59009W        W31335  14.791   6.156   4.465
59010W        W31336  39.973  32.133   2.946
59011W        W31337  18.840  17.763  14.078
59012W        W31338  22.963  14.257   4.167
59013W        W31339   7.919  26.199  12.546
59014W        W31340  43.270  43.532  12.827
59015W        W31341  11.730   2.205   3.367
59016W        W31342  14.688  36.806   0.591
59017W        W31343  13.688  33.833  12.394
59018W        W31344  14.295  27.038  11.156
59019W        W31345  20.148  28.515   2.465
59020W        W31346  25.408  22.417  11.102
59021W        W31347   4.551  39.503   4.735
59022W        W31348  16.511  20.998  14.493
59023W        W31349  42.490   6.024   4.650
59024W        W31350  28.975  41.938  11.640
59025W        W31351  15.353  37.393  14.315
59026W        W31352   5.356  27.991   1.284
59027W        W31353  31.203  21.141   1.992
59028W        W31354   0.613   2.515   3.728
59029W        W31355  12.376  26.737   3.700
59030W        W31356  38.877  29.923   4.636
59031W        W31357   6.921  27.479  13.920
59032W        W31358  17.805  19.085  12.001
59033W        W31359  24.473  18.515  14.526
59034W        W31360  15.534  36.925  10.050
59035W        W31361  21.658  27.111   3.268
59036W        W31362  29.407  36.406  13.516
59037W        W31363   2.313   8.957   0.491
59038W        W31364   1.242   4.413   1.832
59039W        W31365  32.805  17.172   0.167
59040W        W31366  22.092   0.478   1.708
59041W        W31367  19.527   3.309  11.576
59042W        W31368   2.341  11.890  12.494
59043W        W31369   6.958  44.327   2.280
59044W        W31370  35.942  12.727   1.260
59045W        W31371  36.503  35.515   1.129
59046W        W31372  43.876  24.328   2.797
59047W        W31373  13.110  13.870  12.283
59048W        W31374  10.722   3.108  11.607
59049W        W31375   9.237   8.732   0.977
59050W        W31376  40.423  24.220  14.488
59051W        W31377  19.266  42.748   3.663
59052W        W31378  25.009   1.292  11.630
59053W        W31379   0.688  23.317  10.295
59054W        W31380  29.248  17.223   1.734
59055W        W31381   1.326  29.375  12.965
59056W        W31382  26.978  21.654   1.691
59057W        W31383  12.898  33.239   5.036
59058W        W31384  22.025  27.114  11.488
59059W        W31385   4.933  34.044   3.964
59060W        W31386  24.682   9.455  12.065
59061W        W31387  13.616   9.375   4.728
59062W        W31388   3.255  28.396   0.521
59063W        W31389   2.411  28.452  13.309
59064W        W31390  10.216   5.643  11.149
59065W        W31391  24.908  44.885   1.751
59066W        W31392  31.484  32.165   4.840
59067W        W31393   5.785  29.508  13.923
59068W        W31394  37.006  10.781   1.606
59069W        W31395   2.445  15.750  11.861
59070W        W31396  12.340   9.337   0.855
59071W        W31397  27.742  40.222  11.379
59072W        W31398  20.725  30.512  14.067
59073W        W31399  42.836  35.298   2.352
59074W        W31400  37.074   5.377  14.774
59075W        W31401  13.652   9.730  12.560
59076W        W31402  43.310  18.386   1.316
59077W        W31403  13.677  18.703  11.102
59078W        W31404  33.651  40.379   0.282
59079W        W31405  13.292  13.321   0.291
59080W        W31406  30.246   7.188  13.064
59081W        W31407   8.254  36.885  12.841
59082W        W31408  13.541  26.979   1.686
59083W        W31409  37.909  27.267  10.679
59084W        W31410  14.314  44.861  11.248
59085W        W31411  42.000  43.030   4.194
59086W        W31412  28.261  36.435   3.154
59087W        W31413  33.552  36.787   4.670
59088W        W31414   4.841  16.625  14.109
59089W        W31415  39.920  23.568   0.632
59090W        W31416  29.119  40.944  11.541
59091W        W31417  13.424   9.925   1.383
59092W        W31418  24.942  41.404  11.683
59093W        W31419  14.870  18.365   2.316
59094W        W31420  23.637   1.023   2.380
59095W        W31421  19.284  44.934   4.737
59096W        W31422  38.878  38.041   4.816
59097W        W31423  42.272  30.103  14.921
59098W        W31424  38.816  21.004   1.029
59099W        W31425  29.013  40.589  14.213
59100W        W31426  26.040  41.328   4.335
59101W        W31427  11.366   2.756   1.578
59102W        W31428  13.825  33.179  13.927
59103W        W31429   2.162  16.176   1.373
59104W        W31430  17.759  23.211  11.715
59105W        W31431   8.763   4.460   4.107
59106W        W31432  44.560  13.577   3.203
59107W        W31433  31.758  13.115  10.683
59108W        W31434  44.207  15.110   4.317
59109W        W31435  42.965  32.371  12.361
59110W        W31436  44.510  42.302   0.814
59111W        W31437  24.034  43.330   1.345
59112W        W31438  26.941  43.444   3.944
59113W        W31439  16.180   0.645  13.819
59114W        W31440   4.669  34.828   4.588
59115W        W31441  25.019   2.006  12.119
59116W        W31442  41.567   2.273   3.233
59117W        W31443   4.882   1.776   0.045
59118W        W31444  44.723  21.177  12.846
59119W        W31445  33.418  41.270  11.623
59120W        W31446  16.416  40.161  13.394
59121W        W31447  24.648  25.740  13.580
59122W        W31448  43.297  43.157   1.031
59123W        W31449   1.421  12.710   5.041
59124W        W31450  14.016  18.704  12.952
59125W        W31451  18.845  28.538   0.048
59126W        W31452  44.353  35.072   1.370
59127W        W31453  21.668  31.360  14.271
59128W        W31454  35.909  21.533  14.432
59129W        W31455  14.842   3.826   3.659
59130W        W31456  41.997  18.623  13.342
59131W        W31457  13.678  39.432  11.498
59132W        W31458  23.170  14.866   0.314
59133W        W31459   6.290  34.042   3.183
59134W        W31460  16.568  33.491  13.295
59135W        W31461  38.286   7.278   3.302
59136W        W31462  12.790  42.433  11.609
59137W        W31463  17.728   1.814   4.694
59138W        W31464  17.583   4.316   4.341
59139W        W31465  38.763  24.579   3.655
59140W        W31466   5.778  36.454  11.968
59141W        W31467  42.759  24.978  14.442
59142W        W31468  37.264  21.270   3.634
59143W        W31469  22.132   2.504  12.908
59144W        W31470   9.813  10.611   2.589
59145W        W31471  30.628  14.313  14.293
59146W        W31472  28.001  43.914  12.837
59147W        W31473  43.421   5.895  11.053
59148W        W31474  39.957   3.522   2.782
59149W        W31475   9.886   4.715   4.548
59150W        W31476  19.079   5.328  11.133
59151W        W31477  25.077  14.199  12.582
59152W        W31478  24.270  29.740  12.100
59153W        W31479  12.337  27.399  13.499
59154W        W31480  20.777  23.788  11.596
59155W        W31481  13.816  23.479  13.738
59156W        W31482  13.269  26.606  12.863
59157W        W31483   5.068  39.493   4.935
59158W        W31484   7.055  16.191  13.795
59159W        W31485   7.278  15.576  13.018
59160W        W31486   0.441  12.411   3.251
59161W        W31487  37.444  37.582  13.535
59162W        W31488  18.477   4.252   4.609
59163W        W31489   6.223  44.211  14.321
59164W        W31490  10.879  41.553   2.318
59165W        W31491  14.055  36.053  13.419
59166W        W31492  24.803  14.640  12.776
59167W        W31493  31.258  11.851   4.664
59168W        W31494  15.713  32.120   0.378
59169W        W31495  27.461  35.007   1.051
59170W        W31496  38.298  22.619  14.437
59171W        W31497  22.983   5.717  13.410
59172W        W31498  17.799  25.377   4.962
59173W        W31499   8.871  43.784   4.540
59174W        W31500  16.063   0.091   4.114
59175W        W31501  29.587  42.801   0.247
59176W        W31502  36.127  36.002   0.755
59177W        W31503  39.899  15.848  14.973
59178W        W31504  19.188  21.644  10.693
59179W        W31505  22.141  26.181  12.420
59180W        W31506  28.670  25.670  10.623
59181W        W31507  21.939   0.297  13.369
59182W        W31508  25.303  30.500   2.867
59183W        W31509   3.373  35.534   2.896
59184W        W31510   9.450  32.967  11.521
59185W        W31511   0.836  25.402   2.015
59186W        W31512  31.833  10.734  11.300
59187W        W31513   3.744  10.806   2.145
59188W        W31514  40.860  38.555   2.687
59189W        W31515  15.128   4.352   1.799
59190W        W31516  10.293   8.644   1.918
59191W        W31517  44.165  15.793  10.232
59192W        W31518  24.495   4.848   3.107
59193W        W31519   4.492   5.355   2.790
59194W        W31520  35.408  35.379   2.285
59195W        W31521  44.306  21.328  10.515
59196W        W31522  39.033  40.320   0.376
59197W        W31523   9.178  29.712  12.058
59198W        W31524  42.130  29.965   2.817
59199W        W31525  38.791  21.704   3.231
59200W        W31526   3.676  14.252   1.934
59201W        W31527  20.078  27.362   4.883
59202W        W31528  13.150   7.252   3.178
59203W        W31529  16.554  12.770   3.317
59204W        W31530  25.323  39.169   5.528
59205W        W31531  33.079  37.324  14.044
59206W        W31532  32.593  34.604  12.858
59207W        W31533  25.189  19.697  14.486
59208W        W31534   6.660   2.777   2.733
59209W        W31535  35.844  33.110  11.927
59210W        W31536  17.526   9.746  11.463
59211W        W31537  23.112  34.941  14.705
59212W        W31538  14.111  30.375   2.964
59213W        W31539  15.188  15.289  10.467
59214W        W31540  41.529   6.885  12.128
59215W        W31541  12.871   7.909   0.469
59216W        W31542   4.030  22.516   2.118
59217W        W31543  40.457  10.858  12.820
59218W        W31544  10.653  13.187   1.362
59219W        W31545  32.684  37.011  13.442
59220W        W31546  35.258  26.786  11.107
59221W        W31547   2.930   0.771   4.277
59222W        W31548   9.910  27.857   2.826
59223W        W31549  12.279   4.533  11.976
59224W        W31550  22.615  30.019   2.822
59225W        W31551  29.409  41.548  13.512
59226W        W31552   6.877  33.632  13.032
59227W        W31553  32.407  24.006  13.099
59228W        W31554   5.325   8.162   2.824
59229W        W31555  20.771  43.601   2.895
59230W        W31556  27.712  37.466  13.966
59231W        W31557   7.198   6.165  11.201
59232W        W31558  27.167   0.170   3.298
59233W        W31559  23.728  17.642   2.297
59234W        W31560  36.829   9.831   0.808
59235W        W31561  24.000  41.306   2.233
59236W        W31562   6.304  23.878  11.955
59237W        W31563  11.180   6.595   2.245
59238W        W31564  14.597  34.596  11.561
59239W        W31565  40.326   4.600   2.766
59240W        W31566  27.886  44.775   0.495
59241W        W31567  39.735  39.519   0.742
59242W        W31568  24.599  24.402   1.352
59243W        W31569  28.419  21.005   4.358
59244W        W31570   1.450  25.657   4.028
59245W        W31571  12.618  38.065  12.507
59246W        W31572   3.321  28.569   4.161
59247W        W31573  21.374  24.398  11.193
59248W        W31574  42.577  31.445   0.500
59249W        W31575  24.166  12.290   0.362
59250W        W31576  35.371  12.256  12.931
59251W        W31577   1.884  42.477  14.373
59252W        W31578   4.752  11.295   2.778
59253W        W31579  42.490  30.514   0.990
59254W        W31580  10.692   2.767   4.529
59255W        W31581  34.060  12.478  13.912
59256W        W31582  12.474   1.562  11.158
59257W        W31583  38.122  28.708  13.013
59258W        W31584  10.338  16.634   0.948
59259W        W31585  36.782  30.498   4.041
59260W        W31586  16.019  26.597   3.406
59261W        W31587  10.197  12.603  14.006
59262W        W31588  29.669  16.147  13.813
59263W        W31589  21.193   6.382  11.117
59264W        W31590   7.150  39.409  14.942
59265W        W31591  38.131  34.721  11.220
59266W        W31592  21.753   4.961   3.121
59267W        W31593  17.288  17.953  13.769
59268W        W31594  41.817  33.333  10.872
59269W        W31595  17.222   8.750  10.617
59270W        W31596   9.439   1.383  12.495
59271W        W31597   4.173  16.078   2.275
59272W        W31598  24.479   7.513  11.647
59273W        W31599  44.836   6.426  10.657
59274W        W31600  26.384  37.412  13.006
59275W        W31601   2.860  41.340  14.359
59276W        W31602   7.844   7.418  10.753
59277W        W31603   3.669  19.838  10.370
59278W        W31604  19.485  36.124   1.399
59279W        W31605  30.524  35.503   1.164
59280W        W31606   9.923  23.933  10.109
59281W        W31607  21.656  14.824   0.265
59282W        W31608  24.078  13.016  14.307
59283W        W31609  13.666  25.010   0.847
59284W        W31610  41.493  22.225  11.534
59285W        W31611  17.952  34.919  14.607
59286W        W31612  21.324  23.093  13.921
59287W        W31613   8.338  16.330  14.390
59288W        W31614   2.527   7.090   4.211
59289W        W31615  38.429  11.689   4.667
59290W        W31616  41.599   3.840   3.620
59291W        W31617  32.476  12.932   4.279
59292W        W31618  38.456   8.761  10.963
59293W        W31619   0.676   6.736   0.295
59294W        W31620  14.804   0.320   1.938
59295W        W31621   2.186  24.579   3.621
59296W        W31622  18.564   7.945   3.123
59297W        W31623  29.094  14.839  12.097
59298W        W31624   4.524   6.260  14.417
59299W        W31625  30.425  18.805   3.586
59300W        W31626  13.412   8.054  13.608
59301W        W31627  39.961  31.647  14.747
59302W        W31628  22.664  42.072  14.807
59303W        W31629   4.741   1.492   1.779
59304W        W31630  42.570   8.647   3.853
59305W        W31631  44.266   4.782  13.322
59306W        W31632   3.950  29.277  12.130
59307W        W31633  30.319  42.284   0.892
59308W        W31634  41.821  36.508   3.145
59309W        W31635   1.776  28.632   4.649
59310W        W31636  25.615  10.485  11.817
59311W        W31637  14.322  10.307  12.812
59312W        W31638  29.222   7.371  13.431
59313W        W31639  31.612  24.051  12.493
59314W        W31640  36.725  34.618   4.124
59315W        W31641  38.485  39.972   1.828
59316W        W31642  10.743  24.210   1.815
59317W        W31643  38.521  21.651  14.358
59318W        W31644  11.184  16.305   4.276
59319W        W31645  33.967  19.674  14.923
59320W        W31646  27.720  43.805   3.384
59321W        W31647   4.021   6.855  14.961
59322W        W31648  12.311  43.927  12.783
59323W        W31649  39.063  28.425  14.808
59324W        W31650  34.990  30.351   4.618
59325W        W31651  34.319  36.687   0.862
59326W        W31652  36.617  21.488  11.270
59327W        W31653   4.682  44.757   1.430
59328W        W31654  18.680  30.033  11.103
59329W        W31655   3.252  29.378  12.945
59330W        W31656  15.895  40.950  13.213
59331W        W31657  34.356   9.645   1.854
59332W        W31658  34.520   2.549   1.995
59333W        W31659  27.351  13.933  11.550
59334W        W31660   2.715  11.225  14.973
59335W        W31661  13.294  22.523   3.819
59336W        W31662   5.729  22.482  11.416
59337W        W31663   5.753  39.586   0.987
59338W        W31664  32.134  28.100  12.074
59339W        W31665  15.393  43.877  11.298
59340W        W31666  37.810  35.540   2.733
59341W        W31667  34.776  10.635   3.603
59342W        W31668  14.104  29.266   1.318
59343W        W31669  11.765  17.021   0.875
59344W        W31670   7.941  18.612  12.318
59345W        W31671  43.094   2.408  12.023
59346W        W31672  30.815  27.557  11.937
59347W        W31673  17.837  16.737  11.538
59348W        W31674  12.278   4.930   3.193
59349W        W31675  12.683   2.666   4.185
59350W        W31676  30.212  12.737   3.771
59351W        W31677   4.684  13.549   2.310
59352W        W31678   1.213  10.088  14.476
59353W        W31679  26.670  41.945   0.845
59354W        W31680  29.497  28.675   3.388
59355W        W31681  37.571  42.415   2.864
59356W        W31682  15.834  18.824   2.250
59357W        W31683  36.893  28.600   1.816
59358W        W31684   0.028  40.918  12.047
59359W        W31685  40.359  40.927   2.391
59360W        W31686  20.742  38.137  12.820
59361W        W31687  42.305   9.829  14.768
59362W        W31688  32.964  33.922  11.577
59363W        W31689  24.796  18.364   1.636
59364W        W31690  12.634  38.899  12.043
59365W        W31691   2.335   4.923  12.778
59366W        W31692   4.722  22.534   0.850
59367W        W31693  20.619   7.240  12.023
59368W        W31694   7.575  30.630  13.784
59369W        W31695  17.118  25.523   4.258
59370W        W31696  18.912  17.638  10.860
59371W        W31697  36.019  15.189   4.175
59372W        W31698  16.194  38.635  13.378
59373W        W31699  20.493  36.145   2.840
59374W        W31700  15.717  15.375   2.413
59375W        W31701  17.798   1.700   2.712
59376W        W31702   2.162  28.992  11.402
59377W        W31703  16.386   0.959   2.665
59378W        W31704  41.752  32.849  10.719
59379W        W31705  26.125  12.633   4.393
59380W        W31706   0.902  14.249   5.036
59381W        W31707  39.723   4.041  11.366
59382W        W31708  42.527  42.537   3.608
59383W        W31709  37.368  12.697   4.898
59384W        W31710  41.368  44.553   1.185
59385W        W31711   2.891  42.368   4.115
59386W        W31712  11.698   8.869   3.120
59387W        W31713  19.042   4.909   0.403
59388W        W31714  24.018  19.940  12.454
59389W        W31715  38.477  41.104   1.362
59390W        W31716  29.880  11.146  11.060
59391W        W31717   3.251   9.264   9.806
59392W        W31718  25.445  28.959  12.853
59393W        W31719  25.428  28.855   1.583
59394W        W31720  43.533  12.623  14.301
59395W        W31721  21.220  42.252   0.729
59396W        W31722  38.852  35.903   1.340
59397W        W31723  41.543   3.703   4.504
59398W        W31724  27.154   4.617   1.278
59399W        W31725  27.562  16.792  12.991
59400W        W31726  26.201   9.712   3.605
59401W        W31727   8.887   2.820   1.461
59402W        W31728  35.573  41.332  14.457
59403W        W31729   7.688  44.451   0.454
59404W        W31730  16.306  35.390   0.821
59405W        W31731  33.633  29.098  10.637
59406W        W31732  16.280  16.712  13.371
59407W        W31733  43.962  33.896  14.551
59408W        W31734  41.979  24.440   2.737
59409W        W31735  24.517  17.463  10.114
59410W        W31736  33.592   7.031   1.949
59411W        W31737  44.279  30.688  10.839
59412W        W31738   3.916  34.393  14.436
59413W        W31739  29.611  40.400   3.104
59414W        W31740  35.900  17.630  14.914
59415W        W31741  21.675  36.008   2.305
59416W        W31742   1.265  12.778   3.333
59417W        W31743  21.054  19.017   0.813
59418W        W31744  21.282  33.648  10.995
59419W        W31745  35.280  15.710  10.754
59420W        W31746  33.378  43.788  13.356
59421W        W31747  20.073  34.064   1.807
59422W        W31748   7.789  31.103  11.936
59423W        W31749  39.231   5.757  13.874
59424W        W31750  41.535  29.226   3.667
59425W        W31751  33.860  20.026   2.353
59426W        W31752  39.236  14.613  13.664
59427W        W31753  44.228  13.418  10.824
59428W        W31754  18.762  41.496   1.351
59429W        W31755  42.531  18.464   2.414
59430W        W31756   5.168   9.178   1.618
59431W        W31757  44.451  30.307   9.910
59432W        W31758  31.105  20.997   2.904
59433W        W31759   9.241  13.651  13.280
59434W        W31760   2.342   2.424   2.820
59435W        W31761   0.285  44.933  14.086
59436W        W31762  40.807   6.836   1.926
59437W        W31763  22.099   0.947   3.700
59438W        W31764  32.123  27.917  12.918
59439W        W31765  44.266  44.836   4.354
59440W        W31766  30.720  29.028   4.035
59441W        W31767  21.292   1.922  14.389
59442W        W31768  15.647  37.539  13.891
59443W        W31769  22.223  14.465   2.002
59444W        W31770   7.023  18.107   2.669
59445W        W31771  25.378   1.229   4.851
59446W        W31772  34.349  27.124   0.244
59447W        W31773  15.344  21.462  12.768
59448W        W31774  24.140  20.265  11.605
59449W        W31775  13.801  34.940   2.791
59450W        W31776  36.241   6.156   0.408
59451W        W31777  23.953  24.001   0.740
59452W        W31778  30.055   5.694   3.218
59453W        W31779   7.703  19.465  10.023
59454W        W31780  24.389  26.665   0.319
59455W        W31781  14.168   6.232   0.408
59456W        W31782  14.967  26.193  13.968
59457W        W31783  26.499  40.894   0.574
59458W        W31784  35.187  34.439  12.775
59459W        W31785  19.138   4.393   3.319
59460W        W31786  14.562  40.849  10.737
59461W        W31787   9.639  44.311  10.290
59462W        W31788  35.685  32.412  10.699
59463W        W31789  17.064  43.357   0.933
59464W        W31790  44.030  33.033  13.686
59465W        W31791   0.076  21.845   3.677
59466W        W31792  18.372  13.786  10.762
59467W        W31793   2.413  16.126   2.243
59468W        W31794  31.117  28.700  12.984
59469W        W31795  25.517  24.245  12.304
59470W        W31796  12.195  23.362   3.252
59471W        W31797  15.989  38.417   4.555
59472W        W31798   7.223   5.691  12.428
59473W        W31799  40.287  39.133   3.218
59474W        W31800  23.250  37.083   0.724
59475W        W31801  41.752  38.275  12.440
59476W        W31802  17.782   4.850  13.815
59477W        W31803  39.381  33.694  12.583
59478W        W31804  15.570  15.653   4.103
59479W        W31805   8.264   0.772  12.900
59480W        W31806  19.737  13.124   1.326
59481W        W31807  16.609  35.921   2.914
59482W        W31808  20.754   6.394  13.042
59483W        W31809  30.155   1.376  12.043
59484W        W31810   8.101  31.995  11.261
59485W        W31811   9.336  39.975  10.937
59486W        W31812   9.606  24.187   0.942
59487W        W31813  44.961  26.951   3.385
59488W        W31814  24.469  19.529   3.055
59489W        W31815  25.665   3.092   4.869
59490W        W31816  44.439  34.353   1.762
59491W        W31817  14.609   0.223  11.985
59492W        W31818   4.673  41.117  13.009
59493W        W31819  15.356  27.557   4.446
59494W        W31820  21.196  12.853   2.829
59495W        W31821  42.366  31.433   0.978
59496W        W31822  32.953  28.098   2.591
59497W        W31823   8.654   2.537  13.082
59498W        W31824  11.595  17.624  12.773
59499W        W31825  44.017   1.911  13.535
59500W        W31826   8.443   4.194   0.864
59501W        W31827  28.380  27.337  12.510
59502W        W31828   6.144  43.895  11.284
59503W        W31829  25.481  34.563  13.907
59504W        W31830  17.554   5.270  13.157
59505W        W31831   2.830   3.645  13.692
59506W        W31832   7.470  43.523   2.192
59507W        W31833   8.842  23.025  12.051
59508W        W31834  39.640  21.243  13.874
59509W        W31835  13.291  28.351   4.555
59510W        W31836  11.847  12.398   1.339
59511W        W31837  22.115  15.785   0.494
59512W        W31838  24.904  26.103  10.656
59513W        W31839   1.750  36.322   3.786
59514W        W31840  17.074  18.549  10.724
59515W        W31841   3.392  34.976  13.554
59516W        W31842  13.127  31.563   2.764
59517W        W31843  23.047  38.252  13.090
59518W        W31844  41.087  23.494  11.914
59519W        W31845  25.886  17.773  11.546
59520W        W31846  28.175  20.582  14.242
59521W        W31847   8.792  41.271  11.597
59522W        W31848  18.437   5.718  14.508
59523W        W31849  39.644  42.827   0.805
59524W        W31850  11.321   5.904  10.549
59525W        W31851   9.394  40.992  14.328
59526W        W31852  18.578  11.870  14.032
59527W        W31853  26.430  14.917  13.483
59528W        W31854  15.791  43.835  12.858
59529W        W31855  18.986  41.414   0.833
59530W        W31856   1.867  43.552   0.251
59531W        W31857  22.552  34.543  13.389
59532W        W31858  21.854  20.757   2.112
59533W        W31859  28.408  26.068  10.438
59534W        W31860  12.096  44.417   4.635
59535W        W31861  41.343  15.565   2.214
59536W        W31862  39.013   0.508  13.955
59537W        W31863   6.284  35.548  10.760
59538W        W31864   8.671  32.431  14.363
59539W        W31865  27.049  22.755   4.058
59540W        W31866  44.702   4.603  12.243
59541W        W31867  27.924  21.684  12.435
59542W        W31868  10.278   6.855  13.272
59543W        W31869  30.994  31.906   1.693
59544W        W31870   2.653   3.402   2.336
59545W        W31871  23.201   8.997   2.624
59546W        W31872  24.720   9.319   1.314
59547W        W31873   2.256   5.881   1.336
59548W        W31874  30.303  37.384  14.808
59549W        W31875  15.592  18.802   5.073
59550W        W31876  22.674   4.063   1.234
59551W        W31877  17.587  19.740   0.212
59552W        W31878  36.723  35.504  14.400
59553W        W31879  38.448  11.928  13.914
59554W        W31880  11.369   4.795   0.349
59555W        W31881  37.920   5.513   4.154
59556W        W31882   3.263   1.685   3.223
59557W        W31883  41.239  34.830  11.450
59558W        W31884  17.873  34.876   3.274
59559W        W31885  41.264  32.659  12.939
59560W        W31886  10.732   4.293  11.965
59561W        W31887  35.518  32.642  11.181
59562W        W31888   3.525  20.634  11.065
59563W        W31889  22.368   3.732   0.308
59564W        W31890  17.780  29.042  11.902
59565W        W31891  19.064  36.154   4.926
59566W        W31892  15.569  17.307  14.809
59567W        W31893  26.302  13.988  13.548
59568W        W31894  39.010  31.817  12.284
59569W        W31895  20.384  39.513  14.934
59570W        W31896  22.490  41.655  11.616
59571W        W31897  18.048  41.551   0.720
59572W        W31898  24.005   5.354   3.698
59573W        W31899   8.361  37.008  14.976
59574W        W31900  31.046   2.746   2.391
59575W        W31901   4.362  25.625   0.866
59576W        W31902   9.598  11.321   0.475
59577W        W31903  27.630  23.085  13.412
59578W        W31904  34.395  34.987  10.378
59579W        W31905   2.338  20.502   4.624
59580W        W31906  18.617  12.435   5.200
59581W        W31907  29.847   0.535   3.603
59582W        W31908  38.635  42.400   0.420
59583W        W31909   1.504  15.304   1.649
59584W        W31910  26.108   5.423   0.395
59585W        W31911  37.079   6.447   0.519
59586W        W31912  38.405  21.549   4.076
59587W        W31913   5.307  25.663  14.828
59588W        W31914  27.504  44.987   1.660
59589W        W31915   2.067   4.585   4.040
59590W        W31916  14.299   2.127  12.026
59591W        W31917  10.738  21.462   4.127
59592W        W31918  20.582   2.018  14.511
59593W        W31919  32.988  22.121   3.577
59594W        W31920   0.060  25.977  12.908
59595W        W31921   2.278   1.350   0.432
59596W        W31922   6.219  41.546   4.736
59597W        W31923  23.413  41.894   2.625
59598W        W31924  19.326  35.149   4.499
59599W        W31925  44.192  16.064   2.843
59600W        W31926  35.651  39.757   4.151
59601W        W31927  31.606  31.616   4.717
59602W        W31928  31.229  42.883  14.529
59603W        W31929  43.975  34.364  13.612
59604W        W31930  29.868  22.175   1.268
59605W        W31931  35.726  26.173  11.642
59606W        W31932  39.784  37.837  12.478
59607W        W31933  24.538  29.851   0.553
59608W        W31934  33.122  10.866  14.772
59609W        W31935   9.081  35.677  11.184
59610W        W31936  30.029  39.440  13.150
59611W        W31937  11.894  27.425   1.464
59612W        W31938  35.487  10.990   1.189
59613W        W31939  17.846  18.310   2.022
59614W        W31940  18.488  17.927  14.468
59615W        W31941  39.455  23.247  11.681
59616W        W31942   6.763  13.306  13.421
59617W        W31943   3.445  23.706  14.443
59618W        W31944  14.229  23.517  12.086
59619W        W31945  26.112  43.174   4.158
59620W        W31946  13.389  40.515  12.574
59621W        W31947  41.672   0.453   4.620
59622W        W31948  21.383  32.951  10.424
59623W        W31949   6.434  29.870   1.915
59624W        W31950  44.831  36.135  11.108
59625W        W31951  25.550  34.123   0.769
59626W        W31952  25.126  24.752  14.807
59627W        W31953  13.705   3.182  11.122
59628W        W31954  27.486  40.942   3.610
59629W        W31955  34.477  40.522   1.891
59630W        W31956  16.516  19.146  12.899
59631W        W31957  26.628  24.043   2.342
59632W        W31958  38.905   9.353  12.838
59633W        W31959   4.800  38.080   4.649
59634W        W31960  24.548  19.966   4.965
59635W        W31961  35.667  20.051   1.887
59636W        W31962  18.036  21.378  11.141
59637W        W31963   6.977   4.521  12.454
59638W        W31964  14.737  22.247  12.035
59639W        W31965  32.938  18.027   4.582
59640W        W31966   7.823  35.607  11.179
59641W        W31967  34.996  30.548  14.708
59642W        W31968  20.076   3.472   2.148
59643W        W31969  36.874  23.293   0.277
59644W        W31970  44.714  33.000  11.958
59645W        W31971   6.888   4.162   1.951
59646W        W31972  35.690  13.808  10.792
59647W        W31973  19.012   4.240   3.785
59648W        W31974  42.804  41.881  13.439
59649W        W31975  37.878  42.405   1.945
59650W        W31976   5.017  13.428  14.774
59651W        W31977  33.019   0.069  10.422
59652W        W31978  26.646  20.972  14.838
59653W        W31979  25.846  15.176   0.778
59654W        W31980   5.747  31.620   1.702
59655W        W31981  21.993  35.151  12.861
59656W        W31982   2.065  17.712   0.696
59657W        W31983  10.584  37.492  13.353
59658W        W31984  33.916   6.594   2.238
59659W        W31985  34.598  40.333  10.704
59660W        W31986  35.320  17.556  14.078
59661W        W31987  38.394  16.409  10.589
59662W        W31988  15.980  43.255   2.864
59663W        W31989  12.805  24.155  12.169
59664W        W31990  18.947  26.877  13.786
59665W        W31991  22.951   7.415  12.977
59666W        W31992  36.067  23.924   1.814
59667W        W31993   7.273  34.523   4.573
59668W        W31994   7.617  32.654   2.281
59669W        W31995  37.846   4.149  13.991
59670W        W31996  21.409  10.735   3.246
59671W        W31997  33.045  34.454  14.334
59672W        W31998  18.227  42.004   1.607
59673W        W31999  16.356  38.913   2.236
59674W        W32000  15.189  15.300  10.979
59675W        W32001  15.067   7.838  13.911
59676W        W32002   1.643   9.269   3.735
59677W        W32003  35.736  42.407  10.616
59678W        W32004  44.340  30.726  14.163
59679W        W32005  28.296  13.097  10.775
59680W        W32006  43.989  21.169  10.087
59681W        W32007  40.027  44.293   4.501
59682W        W32008   3.626  39.410  13.435
59683W        W32009  33.905   5.178  14.367
59684W        W32010   5.998  17.219   1.381
59685W        W32011   9.295  17.758  12.437
59686W        W32012  11.183  39.016   3.683
59687W        W32013  39.083  19.788   0.997
59688W        W32014  24.916  27.024   1.564
59689W        W32015   0.381  40.773  14.980
59690W        W32016  15.022  15.746   2.827
59691W        W32017  35.940  10.241   4.662
59692W        W32018  29.091  33.126  12.949
59693W        W32019  25.672   3.496  12.979
59694W        W32020   8.795  43.885  13.451
59695W        W32021   9.442  12.784   4.390
59696W        W32022  20.852  37.589   0.242
59697W        W32023  15.704  39.779   3.547
59698W        W32024  44.050  41.150   4.514
59699W        W32025  12.365  13.506   0.668
59700W        W32026  42.266  39.946  12.043
59701W        W32027  21.498  22.671   1.840
59702W        W32028  44.046  10.191   4.848
59703W        W32029  12.315  10.325   3.218
59704W        W32030   2.678  24.742   0.987
59705W        W32031  34.844  20.643   1.309
59706W        W32032  20.563  37.405  13.958
59707W        W32033  44.994  22.690  11.493
59708W        W32034  17.113  12.587  13.315
59709W        W32035  23.494  22.409   1.399
59710W        W32036  24.493  17.232   3.166
59711W        W32037  10.462  42.715   1.274
59712W        W32038  35.931   6.272  13.844
59713W        W32039  30.792  11.625  12.886
59714W        W32040  25.060  24.196   1.302
59715W        W32041  43.731  16.838  13.870
59716W        W32042  26.685   6.732  12.613
59717W        W32043  26.672  34.536   1.439
59718W        W32044  43.471  30.891  11.905
59719W        W32045  17.641  21.238  12.384
59720W        W32046  36.844  42.506  14.958
59721W        W32047   9.134  18.875   0.452
59722W        W32048  23.822  21.060  12.323
59723W        W32049  14.395  23.668  11.540
59724W        W32050  19.034  17.218  14.276
59725W        W32051  14.952  12.182  11.676
59726W        W32052  44.732  27.950   2.388
59727W        W32053  20.735  17.221   0.748
59728W        W32054  38.026  30.133   1.881
59729W        W32055  10.650   5.187  11.939
59730W        W32056  14.366   9.269   4.165
59731W        W32057   4.200   6.281  10.766
59732W        W32058  20.710   8.875  14.860
59733W        W32059  39.344   4.545   1.699
59734W        W32060  20.210  13.632  12.311
59735W        W32061   7.281  37.508  14.802
59736W        W32062   1.109  35.309   4.152
59737W        W32063  27.709  32.589   2.277
59738W        W32064  24.485  23.187   4.496
59739W        W32065  13.355  39.628  13.404
59740W        W32066  37.504  19.546   0.737
59741W        W32067   9.207  44.773   5.284
59742W        W32068   8.335   0.085   1.488
59743W        W32069  23.527   0.289   2.583
59744W        W32070   2.545  12.870  11.202
59745W        W32071  28.558  25.558   2.207
59746W        W32072  33.251  10.678  13.790
59747W        W32073  18.776  22.770  11.990
59748W        W32074  29.210  37.582   3.357
59749W        W32075  35.973  29.123   1.732
59750W        W32076  26.125  21.283  11.670
59751W        W32077   3.025  26.195   1.174
59752W        W32078   8.496   2.092   4.569
59753W        W32079  39.098  23.065  10.724
59754W        W32080  33.273  14.102  10.402
59755W        W32081  39.357  24.414  14.765
59756W        W32082  22.950  11.797  13.990
59757W        W32083   5.118  24.712   3.817
59758W        W32084  24.558  17.659  10.587
59759W        W32085  41.009  11.213   3.603
59760W        W32086  31.217   8.474   4.011
59761W        W32087   8.192  27.185   3.453
59762W        W32088  18.130  11.513   3.023
59763W        W32089   8.290  41.749  14.334
59764W        W32090  21.992  18.597  14.890
59765W        W32091  26.275  23.549   2.768
59766W        W32092  27.636   5.681  11.562
59767W        W32093  26.602   9.316   4.740
59768W        W32094  11.299  16.278  13.558
59769W        W32095   3.747   8.152   1.788
59770W        W32096  36.917  30.534   2.236
59771W        W32097  39.824   4.418   2.767
59772W        W32098  31.392  15.833  10.761
59773W        W32099  43.041   9.944   1.544
59774W        W32100   8.635  20.205  11.198
59775W        W32101  20.409   1.015  11.554
59776W        W32102  23.809  10.189   1.844
59777W        W32103  34.831  41.439   2.394
59778W        W32104  10.139  42.885   1.643
59779W        W32105   5.714   1.647  10.979
59780W        W32106  13.259   7.945   1.381
59781W        W32107   8.249  33.484  14.882
59782W        W32108  42.992   3.391   2.648
59783W        W32109   3.762  38.483  13.554
59784W        W32110   4.964  28.786  11.464
59785W        W32111  26.671  40.025   3.849
59786W        W32112   3.595  18.700   1.301
59787W        W32113  22.673  16.456   2.257
59788W        W32114   5.360  14.553  12.001
59789W        W32115   2.042   2.061   0.294
59790W        W32116  19.235  41.657  13.007
59791W        W32117   0.794   8.696  12.129
59792W        W32118  17.846  11.636   2.299
59793W        W32119  39.832  32.100   3.670
59794W        W32120   1.748  11.139   3.112
59795W        W32121   6.015   6.869  11.112
59796W        W32122  30.090  24.660   4.572
59797W        W32123   8.942  19.006  12.103
59798W        W32124  37.432  31.891   1.948
59799W        W32125  19.263  13.941   4.969
59800W        W32126  44.465  38.962   1.633
59801W        W32127  12.857  36.582   1.333
59802W        W32128  11.867  36.111  11.947
59803W        W32129  18.155   5.395   2.791
59804W        W32130  38.239  22.549   0.259
59805W        W32131  39.241  16.853  10.479
59806W        W32132  39.943  33.394  11.350
59807W        W32133  20.113  18.063   0.588
59808W        W32134   2.756  11.759   1.150
59809W        W32135   1.414  24.486  12.848
59810W        W32136  38.112   7.359  14.450
59811W        W32137  23.272  24.894  13.467
59812W        W32138  21.557  10.756  13.288
59813W        W32139  26.421  19.560   3.921
59814W        W32140  11.248  32.970  13.891
59815W        W32141  24.122  42.745   0.143
59816W        W32142  30.577   1.883  12.434
59817W        W32143   9.277  38.615  12.076
59818W        W32144  16.723  37.630   2.834
59819W        W32145   5.449  29.641   2.247
59820W        W32146  27.630  16.305  13.140
59821W        W32147  23.012  36.813   0.351
59822W        W32148  35.810  25.041  14.438
59823W        W32149  20.709  34.480  12.062
59824W        W32150  24.077  19.492  13.841
59825W        W32151  22.147  11.779   3.622
59826W        W32152  20.625  39.940   3.597
59827W        W32153  24.073  21.048   3.246
59828W        W32154  38.300   6.010  12.922
59829W        W32155  39.345  23.297   4.708
59830W        W32156  24.638  39.379   4.966
59831W        W32157  15.225  21.763   1.694
59832W        W32158  27.834  26.196   0.432
59833W        W32159  26.137  32.411  12.385
59834W        W32160  30.338  28.013  11.650
59835W        W32161  21.002   8.229   3.629
59836W        W32162  26.028  22.190   0.429
59837W        W32163  39.516  39.085  10.707
59838W        W32164  36.562  16.988   4.611
59839W        W32165  24.921  13.608  13.370
59840W        W32166  43.213  29.031   0.903
59841W        W32167  31.892  41.825   0.462
59842W        W32168  16.824  22.145  11.580
59843W        W32169  25.043  12.825   1.423
59844W        W32170  38.555  22.685  12.043
59845W        W32171  30.585  31.443  13.320
59846W        W32172  31.996  36.030  11.177
59847W        W32173  34.222   7.743  10.856
59848W        W32174  20.922  12.149  14.940
59849W        W32175  24.601  14.273   1.685
59850W        W32176  26.055   6.729   3.693
59851W        W32177  39.126  20.586   3.908
59852W        W32178  18.094  28.554   3.232
59853W        W32179   2.959  41.591   0.732
59854W        W32180  26.419  27.384   5.563
59855W        W32181   7.952  23.492  10.715
59856W        W32182  30.662  33.516   1.782
59857W        W32183  10.938  12.136   0.878
59858W        W32184  34.070  10.093   1.926
59859W        W32185  42.312   9.478  12.426
59860W        W32186  41.322  17.764  12.544
59861W        W32187  39.945  25.442   3.246
59862W        W32188   2.929  14.536  14.822
59863W        W32189   7.815  25.753   0.744
59864W        W32190  10.324  28.719  12.857
59865W        W32191  42.509  17.254  13.982
59866W        W32192   7.241  42.989   3.894
59867W        W32193   4.146  19.651  13.928
59868W        W32194  30.063   0.438   4.849
59869W        W32195  17.786   4.802  14.349
59870W        W32196  18.730  23.789   1.446
59871W        W32197  11.731  11.168  12.930
59872W        W32198  15.646  40.124  14.494
59873W        W32199  20.795  15.379   3.375
59874W        W32200   1.500  36.123   3.310
59875W        W32201  28.604  23.475  12.953
59876W        W32202  33.833  23.402   3.120
59877W        W32203   2.995  18.848  11.754
59878W        W32204  22.755  19.801   0.752
59879W        W32205  40.920   1.217   3.733
59880W        W32206  20.966   6.436   4.577
59881W        W32207   8.360  24.139   1.459
59882W        W32208  24.305  41.557  12.465
59883W        W32209  19.221  37.649  11.806
59884W        W32210  15.706   4.909  10.741
59885W        W32211   6.344  35.357  13.489
59886W        W32212  15.775  32.367   1.702
59887W        W32213  27.628  41.307   1.987
59888W        W32214  21.695  30.728  14.081
59889W        W32215   0.987  43.117   3.269
59890W        W32216  14.989   7.057   0.911
59891W        W32217  38.256  12.725  14.531
59892W        W32218  31.826   1.414   4.878
59893W        W32219  12.167  24.048  14.988
59894W        W32220  16.287   6.480   3.692
59895W        W32221  27.221  27.911   0.883
59896W        W32222  36.171  40.879  12.020
59897W        W32223   6.314  21.302   4.723
59898W        W32224  23.595  21.736  12.892
59899W        W32225  34.585  34.122  12.803
59900W        W32226  44.830   3.328   2.926
59901W        W32227  11.830  30.576   2.137
59902W        W32228   3.667  19.956  14.881
59903W        W32229  10.982  28.636  12.506
59904W        W32230  23.323  14.792  11.016
59905W        W32231  39.292  27.172  13.674
59906W        W32232  24.562  35.076  10.679
59907W        W32233  44.218  10.712  12.951
59908W        W32234  38.531  11.803   1.014
59909W        W32235   6.272  28.643  11.111
59910W        W32236  18.525  23.783   0.163
59911W        W32237  35.292  28.008   4.278
59912W        W32238  28.513   0.621  13.948
59913W        W32239  20.060  18.806  12.865
59914W        W32240  18.850   0.636  14.908
59915W        W32241   3.806   0.297   3.637
59916W        W32242   1.243  26.466  12.822
59917W        W32243  33.614   9.901  10.293
59918W        W32244  13.801  33.500  12.839
59919W        W32245  31.872  31.154   2.801
59920W        W32246  13.190  34.002  10.739
59921W        W32247   9.719  40.045  11.982
59922W        W32248   7.665  39.230  10.705
59923W        W32249   9.707  12.724   0.521
59924W        W32250  19.062  21.597   0.346
59925W        W32251   7.783  11.090  14.877
59926W        W32252   5.460  24.660  10.930
59927W        W32253  44.560   3.385  12.853
59928W        W32254  42.277  33.635  13.284
59929W        W32255  39.886  30.460  13.603
59930W        W32256  31.400  20.115   2.829
59931W        W32257  35.552  22.478   4.372
59932W        W32258  27.636  31.644   3.233
59933W        W32259  36.748  31.407  10.718
59934W        W32260  37.411  43.797   4.878
59935W        W32261  21.123  19.072  12.156
59936W        W32262  30.085  39.411   1.232
59937W        W32263   1.598   5.382  11.001
59938W        W32264  25.143  20.274  13.609
59939W        W32265   7.658  35.480  13.804
59940W        W32266  31.426  26.878  12.794
59941W        W32267  29.850  24.295  13.274
59942W        W32268  32.759   5.271  13.542
59943W        W32269  29.792  15.697   5.052
59944W        W32270  10.439   8.503  11.519
59945W        W32271  37.041  14.101  14.446
59946W        W32272  44.028  16.681  14.280
59947W        W32273  15.371  19.276   4.777
59948W        W32274  13.568  33.672  13.762
59949W        W32275   0.959  36.283  11.677
59950W        W32276   1.352   3.042   4.204
59951W        W32277   7.304   4.389   2.175
59952W        W32278  44.272  20.246   2.834
59953W        W32279   9.906   2.306  13.456
59954W        W32280  41.197  20.443  10.652
59955W        W32281   2.901  29.723  13.282
59956W        W32282  12.783   5.084   0.114
59957W        W32283  33.359  27.078   1.224
59958W        W32284  14.607   1.350   4.690
59959W        W32285  22.462  36.415  11.215
59960W        W32286  23.339  37.088  11.252
59961W        W32287   0.345  40.475  12.002
59962W        W32288  33.170  39.483  14.375
59963W        W32289  41.915  21.012  10.711
59964W        W32290  25.678   3.456  14.667
59965W        W32291   2.029  19.473  14.417
59966W        W32292   8.284  35.515  13.522
59967W        W32293  35.610   5.336  12.372
59968W        W32294  28.434  36.382  11.161
59969W        W32295  26.756  22.486   1.165
59970W        W32296  44.668  14.433   0.209
59971W        W32297  34.810  22.676   0.852
59972W        W32298  14.133  43.210   1.186
59973W        W32299  41.540   6.923  14.791
59974W        W32300   2.766   3.964  10.675
59975W        W32301  16.057  12.740  11.312
59976W        W32302  34.088  40.021  11.616
59977W        W32303  31.510   7.098  13.027
59978W        W32304  41.792  33.421   3.601
59979W        W32305  26.594  32.399  14.378
59980W        W32306  22.379  39.402   0.396
59981W        W32307  24.523  28.868  13.876
59982W        W32308  26.201   6.270   4.069
59983W        W32309  16.914  24.125   3.379
59984W        W32310   3.592  41.837  11.079
59985W        W32311  43.020  28.007   3.808
59986W        W32312  35.925  35.722   9.635
59987W        W32313  27.809  31.526   1.207
59988W        W32314  10.048  37.034   0.827
59989W        W32315  30.856  26.165   3.443
59990W        W32316  40.474  44.024   2.240
59991W        W32317  38.500  43.346   2.568
59992W        W32318  24.062  10.470  13.425
59993W        W32319  37.472  12.740   1.330
59994W        W32320  36.975  32.057   0.480
59995W        W32321   1.444  15.845   2.599
59996W        W32322  12.288   1.674   3.582
59997W        W32323  43.680   8.705   0.704
59998W        W32324  17.661  39.420   4.812
59999W        W32325  44.883  18.275   4.124
60000W        W32326  43.734  22.303   0.952
60001W        W32327   5.726  18.990  12.185
60002W        W32328  41.759  12.743  13.053
60003W        W32329  23.025   9.596  13.530
60004W        W32330  20.737  14.662   2.112
60005W        W32331  31.245  37.186  14.930
60006W        W32332  15.632  10.328   4.589
60007W        W32333  10.776  41.581   1.801
60008W        W32334   1.941  37.337  10.636
60009W        W32335  32.576  31.700  10.738
60010W        W32336  36.791   9.712  13.984
60011W        W32337  38.359   3.950  12.183
60012W        W32338  30.745   8.181  14.915
60013W        W32339  38.233   5.426  11.960
60014W        W32340   4.177  37.910  10.822
60015W        W32341  12.478  40.445   3.945
60016W        W32342  32.033  43.373  13.931
60017W        W32343  15.800  19.170  12.475
60018W        W32344  10.646  10.865   2.726
60019W        W32345  13.253  38.915  13.470
60020W        W32346  19.454  38.414   2.902
60021W        W32347  30.337  41.277   1.188
60022W        W32348   0.912  33.517  10.618
60023W        W32349   6.608  33.050   3.637
60024W        W32350  21.686   1.281   3.699
60025W        W32351   5.951  34.526  11.181
60026W        W32352  35.158   1.675  14.472
60027W        W32353   4.338  14.522  11.511
60028W        W32354  36.074  37.598  13.813
60029W        W32355  20.148   6.679  11.124
60030W        W32356  42.206   4.979  10.828
60031W        W32357   3.908  15.257  11.058
60032W        W32358  18.778  41.009  13.532
60033W        W32359   0.054  30.959   4.550
60034W        W32360   9.979  20.952  12.115
60035W        W32361  20.550  30.628  12.577
60036W        W32362   3.867  23.175   3.622
60037W        W32363  44.333  26.436  14.876
60038W        W32364  39.352  38.323  13.105
60039W        W32365  13.781  32.154  13.803
60040W        W32366  30.501  12.290  14.831
60041W        W32367  23.380  44.042   1.326
60042W        W32368   7.990  33.042  11.820
60043W        W32369  33.529  40.702  13.359
60044W        W32370  39.925  20.102  14.232
60045W        W32371  27.870   4.821  11.201
60046W        W32372   6.490  26.489   1.900
60047W        W32373  32.935  11.351  14.770
60048W        W32374  11.096   3.418   4.088
60049W        W32375  39.592  22.540   2.125
60050W        W32376   4.996  39.292   3.634
60051W        W32377  37.074  40.047   3.291
60052W        W32378  35.620  13.772   3.292
60053W        W32379  32.263   6.779   0.920
60054W        W32380  27.464   7.947  10.747
60055W        W32381   5.876  33.009  14.296
60056W        W32382  19.666  14.783   0.568
60057W        W32383  42.403  33.851   4.628
60058W        W32384  19.601  43.465   4.693
60059W        W32385   9.884  27.665   1.364
60060W        W32386   7.600  38.404   3.850
60061W        W32387  19.039  31.860  12.057
60062W        W32388  21.743  18.325  13.897
60063W        W32389  37.995   7.127  12.443
60064W        W32390  28.377   9.246  14.788
60065W        W32391  44.436   4.614  14.646
60066W        W32392   1.850   2.043   5.364
60067W        W32393   9.837  15.307  10.852
60068W        W32394  30.410  42.274  12.951
60069W        W32395   3.342  19.643   2.368
60070W        W32396  37.786  15.808   1.891
60071W        W32397  23.834  33.098  13.463
60072W        W32398  44.327  36.963  11.008
60073W        W32399  43.930  10.586  11.259
60074W        W32400  41.092  27.791  14.052
60075W        W32401   2.805   1.426  13.773
60076W        W32402  40.866  43.256  14.048
60077W        W32403   0.318  20.509   2.815
60078W        W32404  31.833  16.115   2.793
60079W        W32405  12.333  26.524   1.788
60080W        W32406  32.502  11.273  14.460
60081W        W32407  38.063  41.233  11.240
60082W        W32408  16.746   4.088   4.570
60083W        W32409  19.204  38.518   1.726
60084W        W32410  37.527  20.591  14.331
60085W        W32411  21.228  30.218  14.750
60086W        W32412  19.089  31.214  10.670
60087W        W32413  13.261  39.054  14.962
60088W        W32414  15.262   6.017  12.425
60089W        W32415  13.692   6.717   3.770
60090W        W32416  41.270  29.899  14.799
60091W        W32417  17.597  32.113  12.410
60092W        W32418   6.811  37.980   3.669
60093W        W32419   1.394   1.943  14.050
60094W        W32420   9.569  44.277   0.837
60095W        W32421   3.411  42.524   3.351
60096W        W32422  38.088   8.899   4.546
60097W        W32423  36.158  43.278  12.796
60098W        W32424  39.989   0.331   2.576
60099W        W32425  16.602  12.677  13.118
60100W        W32426  36.410  37.900   1.892
60101W        W32427  28.682   9.256  13.400
60102W        W32428   6.763  21.232  10.684
60103W        W32429  27.610  37.942  14.356
60104W        W32430  42.830  19.980  13.823
60105W        W32431  35.542  28.566  13.643
60106W        W32432   4.665  28.207  12.582
60107W        W32433  27.429  21.207   3.560
60108W        W32434  11.400  18.366  12.509
60109W        W32435   1.342   8.683   4.916
60110W        W32436  35.199  41.087   0.774
60111W        W32437  10.843  13.284   2.861
60112W        W32438  32.436  18.857  14.896
60113W        W32439  23.288  42.757  13.328
60114W        W32440  29.667  33.099   1.379
60115W        W32441  41.771  39.967   2.313
60116W        W32442   1.558  35.850  13.075
60117W        W32443   0.872  12.184   0.928
60118W        W32444  13.112  42.448  11.213
60119W        W32445  31.371  27.176   1.343
60120W        W32446   2.850  20.837  10.170
60121W        W32447   4.410   1.684   4.572
60122W        W32448   5.081  30.959   4.117
60123W        W32449  21.187   7.520   0.185
60124W        W32450  19.957   8.319   1.081
60125W        W32451  34.190  35.421   4.569
60126W        W32452  17.147  38.541   1.943
60127W        W32453  42.814  19.965   3.649
60128W        W32454  14.584  27.120  11.986
60129W        W32455  12.840  37.674  10.913
60130W        W32456   4.791  40.283   0.365
60131W        W32457  10.685  38.810  13.283
60132W        W32458  20.833  38.327  11.091
60133W        W32459  44.483  20.926  12.448
60134W        W32460   2.146  44.687   5.048
60135W        W32461  40.012  14.173  12.567
60136W        W32462   6.842  13.239  10.757
60137W        W32463  13.428   9.162  14.936
60138W        W32464  11.126  17.630  14.500
60139W        W32465   3.869  27.451  10.754
60140W        W32466   1.441  33.069   3.647
60141W        W32467  29.583  29.134   0.211
60142W        W32468  13.647  29.144   0.005
60143W        W32469  16.385   8.664   1.403
60144W        W32470  43.402  44.191  12.150
60145W        W32471   3.406  11.790  11.547
60146W        W32472  11.123  30.406   4.323
60147W        W32473  34.585  26.814  11.120
60148W        W32474  30.919  26.504  13.891
60149W        W32475  24.728  17.431   5.323
60150W        W32476  30.959  30.803   4.329
60151W        W32477  30.725  15.647   4.588
60152W        W32478  22.396   1.416  14.121
60153W        W32479   4.928  40.432  12.452
60154W        W32480   1.262  40.220   4.100
60155W        W32481  20.152  42.783   4.936
60156W        W32482  18.972   5.357   4.394
60157W        W32483  43.926  10.318   1.379
60158W        W32484  20.265  11.891   2.786
60159W        W32485  24.100  34.845  13.355
60160W        W32486   8.640   5.667  13.505
60161W        W32487  18.298   6.661  10.815
60162W        W32488  14.575  34.514   5.161
60163W        W32489   1.817  37.851  10.706
60164W        W32490  32.130  33.403   3.171
60165W        W32491  11.889  37.762  13.969
60166W        W32492   1.421   4.063   9.817
60167W        W32493  37.289  16.743  11.516
60168W        W32494  37.867   0.171   1.835
60169W        W32495  17.686  29.161  10.895
60170W        W32496   9.151  21.511  14.411
60171W        W32497  41.597   4.829  14.353
60172W        W32498   2.165  41.528   2.163
60173W        W32499   5.402  35.437  13.419
60174W        W32500   7.744  23.743  13.562
60175W        W32501  27.476  16.810  14.795
60176W        W32502  24.898  41.821  12.033
60177W        W32503   3.358  32.968  10.285
60178W        W32504  23.173  25.951   2.813
60179W        W32505  26.723  16.321   4.253
60180W        W32506  30.494  30.088   2.715
60181W        W32507  10.680  14.674   2.989
60182W        W32508  15.128  28.941   4.490
60183W        W32509   6.746  32.260  13.255
60184W        W32510  43.858  20.317   3.151
60185W        W32511  22.562   7.660   5.095
60186W        W32512  17.069  33.370  12.955
60187W        W32513  40.840  37.069   2.169
60188W        W32514  30.514  25.768  14.916
60189W        W32515  41.484  13.269  10.752
60190W        W32516  38.976  24.786  12.456
60191W        W32517  11.372  27.453   1.425
60192W        W32518  32.661  15.985   2.181
60193W        W32519  13.116   6.122   4.117
60194W        W32520  22.921  23.147  14.960
60195W        W32521  29.511  43.513  13.086
60196W        W32522  19.558  32.727  14.475
60197W        W32523  18.702  15.000  14.258
60198W        W32524  24.137   7.092   1.231
60199W        W32525  21.217  16.851   2.434
60200W        W32526  40.495  41.864   3.652
60201W        W32527  11.675  26.207   1.931
60202W        W32528  30.534  27.176   0.385
60203W        W32529  41.427  21.492  10.704
60204W        W32530   3.742  36.839   4.046
60205W        W32531  12.164  43.594  13.153
60206W        W32532  35.061   2.398   2.193
60207W        W32533  15.348  32.161   3.259
60208W        W32534  42.623  31.573  12.527
60209W        W32535  11.710  24.390  12.171
60210W        W32536   6.723  35.106  10.921
60211W        W32537  41.428  41.379  11.431
60212W        W32538  19.620  37.100   1.255
60213W        W32539  31.489  43.574   1.412
60214W        W32540  29.006  39.290  10.810
60215W        W32541   1.382  33.331  12.266
60216W        W32542  27.718  31.464   3.765
60217W        W32543  18.356  37.954  12.131
60218W        W32544   6.059  42.978   0.577
60219W        W32545  35.019  37.039   0.535
60220W        W32546   1.312   3.238   4.956
60221W        W32547   4.391  22.833   5.266
60222W        W32548  33.241   5.351  13.338
60223W        W32549  30.443  19.840   1.165
60224W        W32550  10.686  10.816   0.996
60225W        W32551  44.024   7.841  13.415
60226W        W32552  44.860  24.465   1.452
60227W        W32553  39.653  17.671  13.576
60228W        W32554  27.803  19.881   0.428
60229W        W32555  43.525  13.282   0.899
60230W        W32556  37.333  36.640   4.171
60231W        W32557  31.695  21.244  13.903
60232W        W32558  33.024  20.297   2.322
60233W        W32559  31.927  37.861  10.573
60234W        W32560  18.000  21.091   1.284
60235W        W32561  28.063   6.968  12.116
60236W        W32562  30.387  44.179  14.318
60237W        W32563   4.691  24.589   4.680
60238W        W32564  19.669  36.339   0.843
60239W        W32565  41.283  16.224  12.389
60240W        W32566  44.966  24.151   4.125
60241W        W32567   1.258  11.464   4.686
60242W        W32568  17.076  27.098   1.778
60243W        W32569   9.591   3.254  11.508
60244W        W32570   5.358  31.955   1.599
60245W        W32571   2.173   1.873   0.880
60246W        W32572   0.809  44.811   0.876
60247W        W32573  37.086  37.849   4.874
60248W        W32574   9.348  20.305  13.749
60249W        W32575  25.604  17.521  11.906
60250W        W32576  29.973  37.266  13.281
60251W        W32577  43.194  15.187   2.318
60252W        W32578  35.067  17.713   2.789
60253W        W32579   7.436  13.795   0.215
60254W        W32580  28.991  14.246  11.145
60255W        W32581  11.305   9.434   0.796
60256W        W32582  24.688  11.677   1.008
60257W        W32583   2.316  21.311  14.294
60258W        W32584   5.203  41.386  14.995
60259W        W32585  25.467   3.639  13.469
60260W        W32586  33.158  19.850  12.925
60261W        W32587  43.265  23.427  10.576
60262W        W32588  26.498  38.067  13.786
60263W        W32589   1.836  12.038  12.494
60264W        W32590   4.707  17.611  11.065
60265W        W32591  35.846   9.741  13.451
60266W        W32592  38.616  13.716   0.321
60267W        W32593  39.079  25.929   1.661
60268W        W32594  31.076   8.413   0.744
60269W        W32595  14.255   8.090  13.811
60270W        W32596  12.209   7.414  10.695
60271W        W32597   3.444  34.949  13.030
60272W        W32598  15.923   9.333   1.814
60273W        W32599  18.642  30.112  13.061
60274W        W32600   1.732  14.752   3.687
60275W        W32601  20.433  42.500  10.651
60276W        W32602  30.594  18.771   0.839
60277W        W32603  26.559  28.979  12.558
60278W        W32604  40.552  29.023  13.061
60279W        W32605  21.630  44.793   3.921
60280W        W32606  16.354  26.054  14.763
60281W        W32607  39.914  29.502  13.597
60282W        W32608   0.928   0.922  11.466
60283W        W32609  21.795  35.520   2.168
60284W        W32610  21.338  14.433  12.001
60285W        W32611  40.311  41.449   4.593
60286W        W32612   6.353  25.245   2.986
60287W        W32613   7.851   4.676  11.472
60288W        W32614  20.174  16.247  12.453
60289W        W32615  42.300  29.054  14.997
60290W        W32616  35.343  33.385  13.490
60291W        W32617  36.900  25.756   4.132
60292W        W32618  42.517  11.192   2.600
60293W        W32619  15.034  32.165  10.566
60294W        W32620  31.600   6.634   3.191
60295W        W32621   9.641  40.927   1.757
60296W        W32622  44.349  13.611   1.877
60297W        W32623   0.146   7.435   0.188
60298W        W32624  25.690  44.496  14.519
60299W        W32625   1.040   2.032  11.427
60300W        W32626   5.215   9.103  11.136
60301W        W32627  19.557  24.754  12.992
60302W        W32628  15.051  39.634  11.448
60303W        W32629  11.886  42.310  13.331
60304W        W32630  26.223  21.919   3.053
60305W        W32631  12.237   8.682  13.369
60306W        W32632  25.262  34.445  10.783
60307W        W32633  24.986  40.412  12.990
60308W        W32634  39.358   3.259   0.767
60309W        W32635  42.342  15.644  12.123
60310W        W32636  14.073  39.923   4.568
60311W        W32637  15.819  43.107   3.351
60312W        W32638  41.533  27.477  11.057
60313W        W32639  20.667  35.072   0.256
60314W        W32640   0.846   1.322   2.501
60315W        W32641  15.789  29.762  12.401
60316W        W32642  28.809  13.373  11.226
60317W        W32643  17.771  32.828  12.054
60318W        W32644   8.926  16.861  12.428
60319W        W32645   2.818   9.203   4.799
60320W        W32646  30.398  32.942  11.101
60321W        W32647  38.855  28.515   2.781
60322W        W32648  40.778   2.507  12.531
60323W        W32649  39.352  29.062  11.647
60324W        W32650  32.711  17.165   1.066
60325W        W32651  42.409  34.368  10.492
60326W        W32652  29.769  44.979   4.791
60327W        W32653  13.354  25.511   1.607
60328W        W32654  34.074   4.356   9.955
60329W        W32655   3.472  41.873  13.950
60330W        W32656   2.062  35.240   2.354
60331W        W32657  40.530  31.112   4.797
60332W        W32658  39.334   7.566  11.380
60333W        W32659   1.016   9.620   0.330
60334W        W32660  27.024  22.141   3.254
60335W        W32661  29.878  12.688  12.845
60336W        W32662   2.262  12.927  12.599
60337W        W32663   7.301  19.061  13.767
60338W        W32664  21.678   6.470   0.911
60339W        W32665   1.435   6.709   4.063
60340W        W32666  38.833  40.029  13.484
60341W        W32667   0.101  30.396  12.552
60342W        W32668  42.113  20.645  12.033
60343W        W32669  27.570  15.091   2.803
60344W        W32670  20.368  25.401   4.660
60345W        W32671  39.240  37.090  14.936
60346W        W32672  19.274  13.204   0.024
60347W        W32673  23.247  34.989  13.917
60348W        W32674  13.593  39.463   3.860
60349W        W32675  38.653  38.339  11.449
60350W        W32676  29.403  18.593  13.005
60351W        W32677  13.172   9.243  13.622
60352W        W32678  15.676  20.759  14.499
60353W        W32679  39.771  24.559   3.249
60354W        W32680  15.709  29.011   2.644
60355W        W32681  33.442  36.496  11.418
60356W        W32682  19.610  12.150  13.878
60357W        W32683  43.392   9.405   2.331
60358W        W32684  29.914   4.394  13.584
60359W        W32685  35.434  18.532   2.944
60360W        W32686  25.583  22.542   0.707
60361W        W32687   8.270  11.528   2.278
60362W        W32688  20.636   3.202   3.382
60363W        W32689  10.884  35.917  13.767
60364W        W32690  42.689   1.682  12.535
60365W        W32691   7.389  33.340   3.356
60366W        W32692  24.484   3.230  14.336
60367W        W32693  12.794  35.798   3.839
60368W        W32694  36.137  15.002  13.507
60369W        W32695  12.110  34.357   3.512
60370W        W32696  37.300  28.028   2.334
60371W        W32697  24.717  28.432  11.454
60372W        W32698  21.604  30.165   1.983
60373W        W32699  35.049   6.310  14.962
60374W        W32700  18.534  21.022   5.024
60375W        W32701  26.536  30.917  12.488
60376W        W32702  21.569  11.286  11.573
60377W        W32703   8.893  35.285   1.245
60378W        W32704   0.654  11.062   3.897
60379W        W32705  33.613  42.295  14.370
60380W        W32706  15.263  20.945   1.456
60381W        W32707  17.115  37.784   4.975
60382W        W32708  16.268  34.305   4.217
60383W        W32709   5.393  16.624  13.362
60384W        W32710   7.230  38.761  11.437
60385W        W32711   8.736  27.659   4.247
60386W        W32712  36.807  34.773  14.897
60387W        W32713  22.404  16.556   1.768
60388W        W32714  30.469   8.177   2.280
60389W        W32715  42.385  10.110  14.309
60390W        W32716  39.561  15.402  13.438
60391W        W32717  33.959  44.719   0.841
60392W        W32718  34.781  29.636   0.735
60393W        W32719  11.390  40.862   1.679
60394W        W32720  26.011   6.209   1.689
60395W        W32721  15.089  15.806  10.453
60396W        W32722  30.098  39.927  11.115
60397W        W32723  12.558  12.693  14.818
60398W        W32724  28.479  42.243  13.971
60399W        W32725  29.478  25.880   1.771
60400W        W32726  12.699  37.518   3.236
60401W        W32727  22.994  37.846  10.529
60402W        W32728  22.614  10.911  12.437
60403W        W32729  27.895  29.454  14.738
60404W        W32730  28.472  28.684  12.769
60405W        W32731  25.937   8.951   4.214
60406W        W32732  22.187  17.537  10.568
60407W        W32733  18.818  35.586  11.580
60408W        W32734   4.996   3.876  14.282
60409W        W32735  18.657  18.160   3.418
60410W        W32736  14.248  37.071   0.431
60411W        W32737  21.245   3.835   2.688
60412W        W32738  13.204  36.654   0.676
60413W        W32739  33.191   3.797  11.137
60414W        W32740  15.646   9.832  13.078
60415W        W32741   8.157  24.529   0.744
60416W        W32742  17.357  37.570  10.654
60417W        W32743  10.729  14.146   2.777
60418W        W32744  30.240  37.269   4.524
60419W        W32745  38.842  29.204  12.563
60420W        W32746  33.700  34.120   4.569
60421W        W32747  36.426   9.457  12.795
60422W        W32748   9.749   0.043   4.928
60423W        W32749  41.864  26.481  14.455
60424W        W32750   6.781  14.789  11.523
60425W        W32751  14.127   5.032   3.228
60426W        W32752  37.124  42.855   1.815
60427W        W32753   9.884   5.847  12.051
60428W        W32754   6.680  18.460   0.289
60429W        W32755   2.918  11.195  13.018
60430W        W32756  43.747  13.118  14.300
60431W        W32757  29.069  26.132   4.945
60432W        W32758   5.519  42.398  13.350
60433W        W32759  31.895   3.420  13.143
60434W        W32760  28.410  28.977   2.389
60435W        W32761  40.794  14.294   3.036
60436W        W32762  28.136   3.895  10.683
60437W        W32763  21.480  39.613   4.278
60438W        W32764   2.818   2.471   1.217
60439W        W32765  39.753  35.630   0.567
60440W        W32766  11.188  13.876  10.719
60441W        W32767  29.413  36.789  13.875
60442W        W32768  39.841  36.836   4.046
60443W        W32769  24.951  37.410   3.961
60444W        W32770   0.539   2.817  10.088
60445W        W32771   7.976  15.380  13.950
60446W        W32772   0.906  39.456  10.794
60447W        W32773  15.197  12.737  14.377
60448W        W32774   7.487  13.092   1.753
60449W        W32775  28.235  10.062   3.950
60450W        W32776   0.233  12.989  11.897
60451W        W32777  15.489  18.522  10.794
60452W        W32778  20.372  19.585   3.649
60453W        W32779  15.796  39.925  14.015
60454W        W32780   6.924  40.584   3.268
60455W        W32781  11.157  12.556   3.292
60456W        W32782  36.742  34.559  13.400
60457W        W32783  29.101  12.250  15.000
60458W        W32784   7.458   2.892  13.460
60459W        W32785   7.380  31.040   2.790
60460W        W32786  10.738  30.716  14.268
60461W        W32787   2.039  10.283   2.697
60462W        W32788  25.157  36.703   1.256
60463W        W32789  26.252   4.788   3.649
60464W        W32790  23.239  21.888   0.058
60465W        W32791  13.030  32.453   1.773
60466W        W32792  33.151  14.523   0.534
60467W        W32793  30.951  14.986   1.730
60468W        W32794  20.054  28.503  12.079
60469W        W32795  36.019   1.204  13.419
60470W        W32796  27.572  35.095  11.936
60471W        W32797  40.576  31.172   3.229
60472W        W32798  33.826  20.755   1.348
60473W        W32799  18.590  18.579   2.907
60474W        W32800   2.984  17.681   3.594
60475W        W32801   1.635  38.789   2.615
60476W        W32802  33.410  42.512  13.917
60477W        W32803  16.039  33.572   0.360
60478W        W32804  31.097  29.693  12.048
60479W        W32805  12.364   7.721   2.668
60480W        W32806  25.730  36.631  14.179
60481W        W32807   2.365  12.969   4.042
60482W        W32808  20.478  15.959  11.370
60483W        W32809  14.570  40.054   4.667
60484W        W32810   8.168  27.261  11.567
60485W        W32811  11.360  27.877   3.650
60486W        W32812  25.952  17.348  14.470
60487W        W32813   3.933  23.336  13.612
60488W        W32814  22.165  29.857   3.601
60489W        W32815  42.176   0.215  12.502
60490W        W32816  20.720  33.319   4.140
60491W        W32817   2.907  22.526  11.877
60492W        W32818  36.158  10.929  13.940
60493W        W32819   4.149  33.101   3.774
60494W        W32820  26.262  24.675   3.656
60495W        W32821  34.953  39.807  14.298
60496W        W32822  33.956  10.876  12.080
60497W        W32823  10.140  34.161  14.832
60498W        W32824  42.426  30.993   2.790
60499W        W32825   7.869  23.454  13.116
60500W        W32826  43.490  29.059  11.952
60501W        W32827  13.712  28.694  11.972
60502W        W32828  39.964   7.120  12.962
60503W        W32829  12.750  34.189  10.567
60504W        W32830   4.315   3.067   2.934
60505W        W32831  22.266   9.883   4.857
60506W        W32832   1.637  11.731  13.184
60507W        W32833  23.255  44.053  12.005
60508W        W32834  24.961   7.172   1.342
60509W        W32835  19.783  34.546   0.487
60510W        W32836  17.525  16.579   0.969
60511W        W32837  13.352  17.872  13.394
60512W        W32838  20.518  27.018  10.723
60513W        W32839  37.960  17.617   2.257
60514W        W32840  13.111   0.422   0.794
60515W        W32841   3.335  19.636  11.971
60516W        W32842  29.509  32.570   0.654
60517W        W32843  16.398  28.852   1.652
60518W        W32844  38.219  24.988   3.175
60519W        W32845  16.964   1.442   2.753
60520W        W32846   7.192  36.844   4.179
60521W        W32847  44.889   4.450  14.420
60522W        W32848  16.766  36.871   3.985
60523W        W32849  16.480  39.903  12.205
60524W        W32850  44.378  13.871   2.343
60525W        W32851  37.893  14.806   3.670
60526W        W32852  11.227  41.481  11.214
60527W        W32853  40.242  17.327  11.407
60528W        W32854  43.514  38.842   2.058
60529W        W32855   4.291  15.335   0.154
60530W        W32856  39.734  10.781   2.681
60531W        W32857  21.962  10.598  10.652
60532W        W32858   6.749  38.771  11.170
60533W        W32859   6.265  28.101  10.971
60534W        W32860   9.151  21.616   2.349
60535W        W32861   7.155  25.226   2.754
60536W        W32862  20.054  22.568  11.836
60537W        W32863  38.550  26.180  12.907
60538W        W32864  13.175  10.901  11.325
60539W        W32865  10.398  33.057  14.479
60540W        W32866  24.070  13.482   4.386
60541W        W32867  26.705  44.574   1.736
60542W        W32868   9.036  38.969  10.550
60543W        W32869  27.740  11.629  12.400
60544W        W32870  30.053  43.849   1.171
60545W        W32871  42.570  25.954   3.856
60546W        W32872   6.978  23.825   1.833
60547W        W32873  36.567  32.437  12.847
60548W        W32874  19.701  23.571  10.738
60549W        W32875  12.373  24.599  14.434
60550W        W32876  16.334  33.912   3.131
60551W        W32877  24.641  10.768   0.098
60552W        W32878   1.445  29.862  12.991
60553W        W32879  33.566  37.893   1.047
60554W        W32880   1.476  24.119  10.271
60555W        W32881  25.613  23.213  10.697
60556W        W32882   9.180   8.276   4.390
60557W        W32883  38.425  31.087   3.247
60558W        W32884   0.992  17.610   3.994
60559W        W32885  16.250   1.982   4.684
60560W        W32886  38.661  29.092   1.582
60561W        W32887   0.392  34.653   0.331
60562W        W32888   7.888  39.544   2.863
60563W        W32889  35.139  41.638  11.771
60564W        W32890  43.737   7.848  13.875
60565W        W32891  36.615  18.207  14.887
60566W        W32892  19.286  10.404  11.107
60567W        W32893  24.699  36.670   4.611
60568W        W32894   3.849   6.956  13.465
60569W        W32895  19.237  40.421   4.071
60570W        W32896   2.724  19.853  12.533
60571W        W32897  26.469  16.056   0.870
60572W        W32898  37.835  29.105   1.792
60573W        W32899  17.750  22.700   4.811
60574W        W32900  39.895  33.425  11.857
60575W        W32901  18.073   7.893   3.273
60576W        W32902  42.277  11.293  11.019
60577W        W32903  12.313  41.983  14.034
60578W        W32904   5.458  13.088   4.433
60579W        W32905   4.275  41.790   0.791
60580W        W32906  19.803   4.733   4.851
60581W        W32907  23.497  30.211   4.356
60582W        W32908   1.496   3.714  10.320
60583W        W32909  29.167  13.201   4.072
60584W        W32910  33.781  31.987  11.136
60585W        W32911  17.252   5.029   2.269
60586W        W32912   6.372   2.489   0.917
60587W        W32913  31.675  42.117   0.100
60588W        W32914  12.910  33.411   1.667
60589W        W32915  26.010   5.859   2.845
60590W        W32916  17.169  42.860   2.678
60591W        W32917  44.434  17.095  13.058
60592W        W32918  14.907  15.003  12.445
60593W        W32919  11.110   7.140   2.168
60594W        W32920  40.588  38.818   1.775
60595W        W32921  35.611  10.246   3.745
60596W        W32922   2.774  11.675  14.663
60597W        W32923  31.723   5.780  11.559
60598W        W32924   9.735  18.842   2.697
60599W        W32925   4.685  19.738  12.590
60600W        W32926  10.654  18.111  14.052
60601W        W32927  30.634   5.698   2.568
60602W        W32928  32.099  42.512   2.277
60603W        W32929  16.695  15.675  12.506
60604W        W32930  10.324   9.164   4.126
60605W        W32931  14.741  20.750   0.046
60606W        W32932  22.505  18.128   2.705
60607W        W32933  21.557  43.506  14.915
60608W        W32934  41.376   8.639  14.696
60609W        W32935  36.502  40.335  13.561
60610W        W32936   4.850  19.190  13.447
60611W        W32937  18.168   8.552  12.111
60612W        W32938  35.504  36.930   0.722
60613W        W32939  30.968  27.436   0.333
60614W        W32940   7.341  29.865   3.263
60615W        W32941   2.204   8.647  13.511
60616W        W32942  36.959  28.204  13.666
60617W        W32943  44.291  27.422  12.093
60618W        W32944  35.556  32.185   3.651
60619W        W32945  25.675  21.994   3.984
60620W        W32946   7.433   7.770   2.293
60621W        W32947  43.987  22.461  12.155
60622W        W32948  32.418  42.380   3.513
60623W        W32949  26.488  29.659   3.831
60624W        W32950  21.156  35.824  14.940
60625W        W32951  32.210  37.885   2.823
60626W        W32952   5.758  20.593   2.862
60627W        W32953   7.351   3.911   2.952
60628W        W32954  14.575   3.493  14.342
60629W        W32955  12.752  40.694  10.883
60630W        W32956  20.666  10.880   0.073
60631W        W32957   8.341  13.461   4.223
60632W        W32958  44.087  15.716   5.065
60633W        W32959   8.962  43.471  14.770
60634W        W32960  37.486   7.306   4.669
60635W        W32961  41.310  33.770   3.729
60636W        W32962  39.475  22.127  14.390
60637W        W32963   9.490  33.677   0.215
60638W        W32964  35.689  14.784  14.362
60639W        W32965  34.963  19.874  13.320
60640W        W32966  38.726  33.436  12.990
60641W        W32967  38.752  16.052  10.486
60642W        W32968  30.265  33.662   0.423
60643W        W32969  27.950  38.447  14.071
60644W        W32970  27.182  38.130   1.770
60645W        W32971  22.513  41.080  11.473
60646W        W32972  21.230  36.541  10.698
60647W        W32973  44.582  39.484  12.346
60648W        W32974  32.889  32.670   1.594
60649W        W32975   9.859  16.709  14.006
60650W        W32976  28.121   4.683  13.900
60651W        W32977  36.411  13.691   2.877
60652W        W32978  14.080  17.230   3.320
60653W        W32979  34.208  29.069   3.327
60654W        W32980   8.274  32.703   1.848
60655W        W32981  35.327  21.014  14.542
60656W        W32982  37.890  15.062   3.141
60657W        W32983  30.680  32.353   3.337
60658W        W32984  31.645  23.984   3.665
60659W        W32985   0.320   4.039  11.298
60660W        W32986  35.909   1.262  14.127
60661W        W32987  39.551   8.723  12.061
60662W        W32988  35.309   2.128  11.994
60663W        W32989   3.134  24.768   1.249
60664W        W32990  44.954  37.866  14.780
60665W        W32991  23.676   1.699   1.836
60666W        W32992  26.860  23.288  12.024
60667W        W32993  24.605   8.191   0.253
60668W        W32994  22.117  30.624   0.835
60669W        W32995   1.773  38.394   1.268
60670W        W32996  40.870  14.309   4.917
60671W        W32997  27.965  44.895   1.932
60672W        W32998  19.058  26.145   1.437
60673W        W32999  26.809   1.281   1.903
60674W        W33000  28.542  32.601  10.522
60675W        W33001  34.908  29.245  13.178
60676W        W33002   2.387   5.388  13.017
60677W        W33003  30.698  10.126   3.166
60678W        W33004  16.551  23.194   3.409
60679W        W33005  20.095  17.835  11.487
60680W        W33006  22.139  42.537   1.743
60681W        W33007  14.192  10.657   0.278
60682W        W33008  34.963   4.377   3.534
60683W        W33009  24.221  36.068  11.047
60684W        W33010   7.891  24.418   4.156
60685W        W33011  31.251  13.159  10.538
60686W        W33012  15.091  29.896   4.614
60687W        W33013  25.846  16.201   3.602
60688W        W33014  25.163  16.808  11.497
60689W        W33015  33.972  17.000   0.225
60690W        W33016  23.692  32.264  11.700
60691W        W33017  34.853  12.791   2.388
60692W        W33018  25.533  20.979   3.260
60693W        W33019  34.183  13.776  13.830
60694W        W33020   0.859  39.571  13.012
60695W        W33021   5.642   6.458  13.867
60696W        W33022  14.181   1.348   0.745
60697W        W33023  32.513  26.622  14.490
60698W        W33024  34.485  37.446  12.855
60699W        W33025  14.446  15.356   4.254
60700W        W33026  16.212  42.233  10.743
60701W        W33027  42.815  27.006   3.376
60702W        W33028   5.402   0.585   0.470
60703W        W33029  24.207  23.142  12.109
60704W        W33030  39.082  44.416  10.427
60705W        W33031  23.717  12.122   2.324
60706W        W33032   2.306   0.838   0.286
60707W        W33033  16.452   6.055   1.408
60708W        W33034   7.778  22.205   3.245
60709W        W33035  18.722   4.819  14.967
60710W        W33036  23.271  20.553   2.937
60711W        W33037  16.997  23.644  14.969
60712W        W33038  37.825  30.622  11.094
60713W        W33039  26.459  23.561  12.850
60714W        W33040  29.148  32.614  13.100
60715W        W33041  27.888  19.551   3.799
60716W        W33042   7.439  23.087  11.466
60717W        W33043   4.398  26.519   0.982
60718W        W33044  41.986   2.957  12.391
60719W        W33045  25.498  30.707  12.435
60720W        W33046  29.076  15.189  10.895
60721W        W33047  35.946  19.634   3.362
60722W        W33048  20.936  30.391  10.282
60723W        W33049  36.357  29.676  11.233
60724W        W33050   8.830  28.329  13.382
60725W        W33051  23.159  17.691   9.734
60726W        W33052  28.904  20.447  14.911
60727W        W33053  20.368  34.356  11.527
60728W        W33054   0.940   7.433  14.793
60729W        W33055  25.965  35.561  11.553
60730W        W33056  33.966  33.517  11.168
60731W        W33057  27.615  17.807   4.882
60732W        W33058  20.318  41.503  13.227
60733W        W33059  22.649  36.381   4.313
60734W        W33060  11.233   6.442   4.277
60735W        W33061  26.094  40.330   0.009
60736W        W33062   7.365  14.853   1.310
60737W        W33063  25.590  39.546   9.640
60738W        W33064  19.365   7.311   2.225
60739W        W33065   2.429   3.719   0.789
60740W        W33066  39.494  39.100   2.852
60741W        W33067  25.700   1.949   3.497
60742W        W33068  25.706  34.914  11.592
60743W        W33069   8.968  41.764  11.544
60744W        W33070  36.709  20.668  10.468
60745W        W33071  30.362  27.495   2.167
60746W        W33072   5.601  35.435  12.845
60747W        W33073  26.039  23.514  13.267
60748W        W33074  11.109  30.239  13.959
60749W        W33075  38.540  39.074  14.530
60750W        W33076  31.293  15.647  11.743
60751W        W33077  40.563  13.949   4.687
60752W        W33078   1.212  32.410   2.969
60753W        W33079  40.094   8.436  13.984
60754W        W33080  42.265  13.103  14.085
60755W        W33081  21.624  26.952  14.951
60756W        W33082   0.871  37.469  14.876
60757W        W33083  27.015   8.923  14.864
60758W        W33084  12.901  23.648   1.263
60759W        W33085  38.429  26.547   1.761
60760W        W33086  28.725   4.857  11.662
60761W        W33087   6.849  25.063  13.068
60762W        W33088  25.573  23.519  10.261
60763W        W33089  44.524  22.162   1.911
60764W        W33090  39.686   2.391  10.755
60765W        W33091  37.881  11.280   0.915
60766W        W33092  33.068   1.216  14.850
60767W        W33093  37.938  43.313   2.374
60768W        W33094  19.607  23.737   1.259
60769W        W33095  43.583  38.090   1.680
60770W        W33096  20.253  18.232   3.814
60771W        W33097  31.372   1.393   3.843
60772W        W33098  11.400   2.453   0.822
60773W        W33099   7.871  43.977  14.310
60774W        W33100  28.877   2.302   1.244
60775W        W33101  29.076   7.963   1.822
60776W        W33102  42.428   9.028   0.337
60777W        W33103  11.234  23.160   2.366
60778W        W33104   9.872   2.185   4.646
60779W        W33105  34.268  38.352  14.288
60780W        W33106  28.554  20.985  14.699
60781W        W33107  20.939  31.351   4.075
60782W        W33108   5.930  34.430   3.201
60783W        W33109  29.329   4.942  13.495
60784W        W33110  17.809  10.711   0.042
60785W        W33111  41.246   5.832   0.433
60786W        W33112  20.013  44.734  11.266
60787W        W33113  23.532   5.625   1.166
60788W        W33114  28.931  33.805   1.344
60789W        W33115   9.658  42.347   2.737
60790W        W33116  20.200   4.882  11.568
60791W        W33117  19.819  17.533  10.815
60792W        W33118   8.306  39.794  10.768
60793W        W33119  32.362  28.944   2.613
60794W        W33120   6.768  38.779  12.075
60795W        W33121  35.311  42.282   1.536
60796W        W33122  41.997   6.772  11.979
60797W        W33123   8.897  37.805  14.706
60798W        W33124  11.235  11.884  13.442
60799W        W33125  28.974  18.452  14.568
60800W        W33126   2.824   5.708   3.341
60801W        W33127  32.387  27.924  12.487
60802W        W33128  16.887  14.617  13.340
60803W        W33129  12.714  14.614   4.549
60804W        W33130  27.380  38.271   3.344
60805W        W33131  24.228  37.910  10.542
60806W        W33132  33.558  43.339   0.269
60807W        W33133  35.383  23.680  14.840
60808W        W33134  37.696  15.634  11.250
60809W        W33135  29.499   5.168   1.151
60810W        W33136   6.985  25.076  11.927
60811W        W33137  40.999  28.414   3.766
60812W        W33138  37.116  19.077  12.447
60813W        W33139   7.083  13.725  13.364
60814W        W33140  39.028  34.276  13.923
60815W        W33141  35.258  29.435   0.865
60816W        W33142  36.571   9.318  14.303
60817W        W33143  37.475  18.548   4.172
60818W        W33144  15.069  27.331   4.886
60819W        W33145   2.828  40.930  12.179
60820W        W33146  19.795  41.384  11.402
60821W        W33147   9.715   8.683  13.008
60822W        W33148  39.341  35.948   0.393
60823W        W33149  18.773  37.711  10.279
60824W        W33150  16.343   2.265   2.589
60825W        W33151  44.312  15.760  13.379
60826W        W33152  30.699  16.224   3.276
60827W        W33153  23.214  40.639  14.119
60828W        W33154  18.985  40.103  11.637
60829W        W33155   1.237  43.355   0.817
60830W        W33156  14.222   0.214   1.396
60831W        W33157   0.656   1.818   3.152
60832W        W33158  29.616  24.345   0.573
60833W        W33159   2.488  40.283   0.829
60834W        W33160  12.060  30.684  13.513
60835W        W33161  36.951   8.510  10.706
60836W        W33162  33.273  15.551  10.269
60837W        W33163  43.988  22.608   1.281
60838W        W33164  10.169  35.087   4.606
60839W        W33165  36.569  19.120   4.380
60840W        W33166  16.066  35.626  11.952
60841W        W33167  22.456  34.980   3.279
60842W        W33168   0.942  29.163  10.539
60843W        W33169  32.895   7.708   3.604
60844W        W33170  31.249  10.149   3.134
60845W        W33171   4.146   6.993   4.924
60846W        W33172  18.164   2.489  14.328
60847W        W33173   2.942  26.075   3.297
60848W        W33174  36.046  18.522  13.086
60849W        W33175  27.426  43.809   0.941
60850W        W33176  18.754   9.225   1.348
60851W        W33177  22.554  39.550  13.941
60852W        W33178  34.453  16.598  13.367
60853W        W33179  29.410   7.162  12.481
60854W        W33180  30.985  37.771   3.806
60855W        W33181   4.271  28.188   2.319
60856W        W33182   8.963  16.835   1.224
60857W        W33183  33.201   8.821  14.932
60858W        W33184  14.610  37.203   2.127
60859W        W33185  10.200  34.607  12.577
60860W        W33186  44.421  16.206   2.393
60861W        W33187  37.320  24.693   0.934
60862W        W33188  22.794  28.798   1.605
60863W        W33189  16.628  38.799   3.648
60864W        W33190  29.674  15.586  12.988
60865W        W33191  13.326  20.493   0.364
60866W        W33192  15.555  17.084   0.299
60867W        W33193   0.349  18.617  12.988
60868W        W33194  43.915  43.700   0.763
60869W        W33195  40.211  32.123   1.173
60870W        W33196  26.214   6.896  11.056
60871W        W33197   3.908   3.778   4.660
60872W        W33198  34.998  14.944   2.877
60873W        W33199  40.412  41.967  14.480
60874W        W33200  41.403  14.511   2.586
60875W        W33201   9.614  35.973  12.526
60876W        W33202  12.354  39.739   2.207
60877W        W33203  36.474   2.721  12.453
60878W        W33204  41.776  12.405  10.952
60879W        W33205  32.996  19.841   3.295
60880W        W33206  34.584  38.420  12.912
60881W        W33207  40.422   7.053   3.305
60882W        W33208  22.696  31.167  11.559
60883W        W33209  26.395  14.877  11.794
60884W        W33210   2.510  30.444  13.943
60885W        W33211  26.624  14.146  14.874
60886W        W33212  41.526  23.714   3.634
60887W        W33213  26.096   5.368   4.139
60888W        W33214   3.258   9.792  14.945
60889W        W33215  39.814  41.443   0.306
60890W        W33216  44.454  15.549   4.301
60891W        W33217  17.060  13.469  10.965
60892W        W33218  19.160   7.130   0.837
60893W        W33219  33.841  13.779   2.924
60894W        W33220  42.368  36.694   3.306
60895W        W33221  40.272  25.639   0.928
60896W        W33222  31.944  19.351   4.095
60897W        W33223  24.274  14.661   1.823
60898W        W33224  11.496  28.101   1.881
60899W        W33225  38.461  10.933   5.089
60900W        W33226  20.545   4.105  10.632
60901W        W33227   3.789  41.004  14.867
60902W        W33228  37.780  21.085  11.533
60903W        W33229  37.120  32.428   4.231
60904W        W33230  16.964   1.568   0.999
60905W        W33231  33.550  15.791   3.336
60906W        W33232  19.019  43.971  14.441
60907W        W33233  43.769  27.665   4.090
60908W        W33234  17.595  28.143  12.004
60909W        W33235  27.470  23.727   4.124
60910W        W33236  27.359   3.389  10.791
60911W        W33237  29.942   4.882   1.841
60912W        W33238   3.991  41.876  13.913
60913W        W33239  28.666  42.458   1.847
60914W        W33240   2.557  27.202  11.155
60915W        W33241   5.594  31.132   1.829
60916W        W33242   6.690  21.479   0.511
60917W        W33243  26.898  31.566   1.916
60918W        W33244  27.473   1.913   4.992
60919W        W33245  36.094  16.862   1.762
60920W        W33246  35.536  17.560   3.749
60921W        W33247  30.106  20.727   0.364
60922W        W33248  33.026  32.952  13.528
60923W        W33249  22.109  44.145   4.113
60924W        W33250  11.449   3.040   4.616
60925W        W33251  14.552  42.813   0.433
60926W        W33252  44.918   9.325   2.953
60927W        W33253  28.020  32.470   1.837
60928W        W33254  21.765  10.336  12.593
60929W        W33255   7.896  20.152  14.097
60930W        W33256  31.721  37.860   2.623
60931W        W33257   7.997  29.880   2.938
60932W        W33258  10.747  41.422   0.253
60933W        W33259   9.456   7.959   1.665
60934W        W33260  17.795  43.797   3.663
60935W        W33261   3.091  31.952   4.977
60936W        W33262  30.076  26.448   0.115
60937W        W33263  41.142  41.867  12.125
60938W        W33264  34.056  35.431   3.679
60939W        W33265   2.793  43.403   1.156
60940W        W33266  31.756  36.968  11.805
60941W        W33267  33.868  19.156  11.240
60942W        W33268  13.599   9.648   4.293
60943W        W33269   4.261  11.921  10.332
60944W        W33270  25.667  29.000   3.222
60945W        W33271  34.674  12.351  10.605
60946W        W33272  16.818  34.887  13.980
60947W        W33273  19.031   8.432   3.181
60948W        W33274   9.190  28.649  12.040
60949W        W33275  17.046  34.566   3.231
60950W        W33276  40.164  12.112   3.307
60951W        W33277  28.551  32.344  14.373
60952W        W33278  13.025   2.263  14.868
60953W        W33279  22.695  35.836   2.353
60954W        W33280  25.597  29.359   1.660
60955W        W33281  26.406  39.868  11.982
60956W        W33282  17.015   3.988  12.458
60957W        W33283  12.656  20.031   1.917
60958W        W33284  30.463   2.319   4.518
60959W        W33285  16.389  23.680   1.148
60960W        W33286  36.313  17.603  13.844
60961W        W33287  39.151  42.481   0.428
60962W        W33288  40.620  26.596  13.794
60963W        W33289  40.178  17.292  11.928
60964W        W33290  18.568  23.639   4.099
60965W        W33291   2.285   6.241   2.800
60966W        W33292  31.665  28.081   0.473
60967W        W33293  21.238  21.224  10.939
60968W        W33294  35.970   8.886   0.874
60969W        W33295  10.364  36.504  10.858
60970W        W33296  22.065  44.844  13.551
60971W        W33297  21.059  28.086  11.553
60972W        W33298  31.461  12.621  12.008
60973W        W33299  14.286   9.904   2.245
60974W        W33300  17.881   0.593  13.313
60975W        W33301  40.091  19.175   4.326
60976W        W33302  14.636  31.490   3.367
60977W        W33303  23.167   6.930   1.397
60978W        W33304  35.424  19.494  14.660
60979W        W33305  11.297  10.855  14.517
60980W        W33306  24.981   1.514  13.514
60981W        W33307  37.992  21.439  14.768
60982W        W33308  22.045   7.742  13.933
60983W        W33309  26.940  15.766  13.792
60984W        W33310   6.716   7.701   4.650
60985W        W33311  26.415  25.297  13.818
60986W        W33312   6.812  44.211  14.924
60987W        W33313  21.537  23.477  12.821
60988W        W33314  33.625   4.934   4.303
60989W        W33315  44.043  15.565  12.179
60990W        W33316  13.093  40.065  11.561
60991W        W33317  12.557  33.675  11.206
60992W        W33318  36.694  16.690   3.273
60993W        W33319  24.184  37.306   5.571
60994W        W33320   8.832   9.852  11.129
60995W        W33321  13.230  22.643   2.790
60996W        W33322  14.761  25.182  13.103
60997W        W33323  13.166  35.129   0.241
60998W        W33324  27.900  13.576  13.304
60999W        W33325   3.781  44.809  12.972
61000W        W33326  25.585  18.095   0.584
61001W        W33327   7.538  41.550  11.910
61002W        W33328  29.060  20.658   0.366
61003W        W33329  24.621   0.067   3.774
61004W        W33330  22.705  21.792  12.047
61005W        W33331  43.174  30.644   2.312
61006W        W33332  11.077  14.217  12.958
61007W        W33333  15.622  14.286   3.191
61008W        W33334  18.577  23.815  13.337
61009W        W33335  38.819  22.135   2.941
61010W        W33336  39.278   1.472   1.881
61011W        W33337   5.907  15.606   0.947
61012W        W33338  29.899  42.158   4.066
61013W        W33339   4.361   8.186   4.254
61014W        W33340  19.229   3.469  13.771
61015W        W33341  41.424  21.774  14.483
61016W        W33342  26.617  24.151  12.273
61017W        W33343   8.364  26.927   0.483
61018W        W33344  42.939   4.290  13.385
61019W        W33345  12.344  22.688  13.486
61020W        W33346  10.900   0.984  11.623
61021W        W33347  32.960  33.928  14.034
61022W        W33348  37.063   3.171  11.929
61023W        W33349   3.810   7.515   4.541
61024W        W33350   8.374  23.736   1.834
61025W        W33351  34.166  24.701   4.310
61026W        W33352  17.480  20.612  13.827
61027W        W33353  31.946   0.425   4.952
61028W        W33354   3.923   9.699  14.315
61029W        W33355  41.853  19.019   1.293
61030W        W33356  29.884  40.246  14.201
61031W        W33357   3.649  30.289  10.752
61032W        W33358  39.492   4.481  13.514
61033W        W33359  10.259  31.353   0.271
61034W        W33360  14.238  28.750  12.409
61035W        W33361  25.095  25.749  14.666
61036W        W33362  17.053  20.013   0.799
61037W        W33363  10.364  44.419   2.249
61038W        W33364  18.031   9.897   3.210
61039W        W33365  43.500   4.123  14.063
61040W        W33366   4.167  43.894   2.247
61041W        W33367  27.078  12.206  12.352
61042W        W33368  35.393   6.163   1.310
61043W        W33369  32.251  40.854   3.570
61044W        W33370  25.688  19.374  11.286
61045W        W33371  25.411  14.551  14.515
61046W        W33372   5.982  38.041  13.974
61047W        W33373  32.573  16.120  14.465
61048W        W33374  32.108  22.321  11.048
61049W        W33375  23.361  21.985   1.000
61050W        W33376  12.189   4.916   1.777
61051W        W33377  11.707  22.085  12.477
61052W        W33378  25.187  44.531   0.904
61053W        W33379   0.383   1.447  11.979
61054W        W33380  12.768  44.313   0.362
61055W        W33381   1.178  28.113  11.736
61056W        W33382   8.433   3.882   3.274
61057W        W33383   7.687  32.030   3.758
61058W        W33384  41.780  13.327  11.163
61059W        W33385  36.919   9.206  11.911
61060W        W33386  19.451  32.027  13.850
61061W        W33387  10.659  21.358   0.444
61062W        W33388  11.861   9.707   0.391
61063W        W33389   9.727  18.461  13.871
61064W        W33390  44.353  32.557   1.358
61065W        W33391  17.053  44.495   2.783
61066W        W33392  31.649  15.205   0.946
61067W        W33393  34.609   5.842  11.933
61068W        W33394   5.421   8.377   3.779
61069W        W33395  39.919  26.223  13.868
61070W        W33396  26.644  31.341   4.660
61071W        W33397  32.886  30.657   1.751
61072W        W33398   8.992  22.431  12.022
61073W        W33399  30.389   6.304  10.726
61074W        W33400   8.399  15.242  11.984
61075W        W33401  15.101   1.461  12.905
61076W        W33402  19.227  14.163   1.947
61077W        W33403  35.537   3.919   0.626
61078W        W33404  15.032  37.790   0.532
61079W        W33405  38.365   4.584  10.972
61080W        W33406  17.665   0.343  14.302
61081W        W33407  39.088   1.335  12.034
61082W        W33408   5.392  42.100   1.467
61083W        W33409  23.865  16.134   0.439
61084W        W33410  37.517  39.837  12.841
61085W        W33411  31.135  40.849   4.474
61086W        W33412   1.616  41.832   0.084
61087W        W33413  36.392  22.201  14.092
61088W        W33414  11.265  31.819  13.501
61089W        W33415  24.477   3.198   2.334
61090W        W33416  12.307   7.184   0.233
61091W        W33417  42.977   0.751   0.596
61092W        W33418  37.893  13.532  10.729
61093W        W33419  23.554  22.047  14.003
61094W        W33420   6.856  37.329  11.163
61095W        W33421  33.399  25.598   1.253
61096W        W33422  30.913   0.337   0.804
61097W        W33423  32.727  21.287  13.855
61098W        W33424  36.019   8.234  11.827
61099W        W33425  42.496  19.651   1.809
61100W        W33426  17.541   6.536   4.229
61101W        W33427  32.456  37.470   1.255
61102W        W33428  42.509  35.488  13.347
61103W        W33429  34.422  17.866   1.461
61104W        W33430   0.544  10.194  11.619
61105W        W33431  28.416  25.496  13.049
61106W        W33432  32.039  31.710   9.980
61107W        W33433   7.219  35.547   4.632
61108W        W33434   5.462  38.707  12.101
61109W        W33435  25.502  43.876  10.612
61110W        W33436  40.859  28.431  12.135
61111W        W33437  26.354  42.971   2.369
61112W        W33438   5.643  38.943   0.887
61113W        W33439  22.309  12.570   0.875
61114W        W33440  20.147  40.898  13.966
61115W        W33441  42.574  30.102   3.194
61116W        W33442  18.092  44.563   1.364
61117W        W33443  30.947  11.870  10.802
61118W        W33444  24.557   9.919  11.121
61119W        W33445  39.506   3.220  13.091
61120W        W33446  15.380  11.345   0.944
61121W        W33447  16.963  25.114   4.666
61122W        W33448   1.525  19.099   2.287
61123W        W33449  28.598  22.472  10.618
61124W        W33450  40.252  30.080  12.416
61125W        W33451  25.781  14.529  14.159
61126W        W33452   2.738   2.743   2.580
61127W        W33453  41.371  41.292  14.676
61128W        W33454  12.073  14.380  14.901
61129W        W33455   4.681  39.013   2.724
61130W        W33456  36.025  22.755  12.537
61131W        W33457  13.690   8.667  10.587
61132W        W33458  38.850  18.593   1.659
61133W        W33459  31.115   8.669   5.202
61134W        W33460   4.701  24.634  12.070
61135W        W33461  40.059  12.947   0.533
61136W        W33462  38.484   1.528   2.728
61137W        W33463   6.745  31.513  10.744
61138W        W33464   6.305   8.335   2.786
61139W        W33465  43.255  44.220  14.386
61140W        W33466  26.223  31.063  14.244
61141W        W33467  29.296  34.679   3.645
61142W        W33468  34.586  22.554   3.172
61143W        W33469  12.618  11.824  14.790
61144W        W33470  41.412  44.837   0.729
61145W        W33471  41.308  32.632   1.906
61146W        W33472  10.647  21.798  12.508
61147W        W33473  16.233  14.828  12.436
61148W        W33474  17.569  26.454  12.492
61149W        W33475  22.901  43.906   2.697
61150W        W33476  34.885   5.449   2.285
61151W        W33477  20.089  37.770   4.210
61152W        W33478   2.847  23.007  14.957
61153W        W33479  29.954  13.648  13.380
61154W        W33480  20.291   5.515  12.095
61155W        W33481  14.204  41.958   1.628
61156W        W33482  42.271  33.842   1.695
61157W        W33483   3.766  10.376  11.516
61158W        W33484  38.747  36.004   3.345
61159W        W33485   0.933   1.208   3.800
61160W        W33486  38.700   3.664  14.558
61161W        W33487  15.801  23.051  14.312
61162W        W33488  18.279  21.689   1.982
61163W        W33489  25.735  43.557  10.953
61164W        W33490  26.540  44.507   3.153
61165W        W33491  13.701   9.034   5.107
61166W        W33492  33.920  30.126  12.595
61167W        W33493  33.690  11.957  11.284
61168W        W33494  24.521   3.783   1.896
61169W        W33495  19.680  32.988  13.058
61170W        W33496  40.333  24.205   0.016
61171W        W33497  23.014  34.114  11.792
61172W        W33498   1.857  41.374   3.112
61173W        W33499  26.485   5.252   1.816
61174W        W33500  14.396  11.201  14.020
61175W        W33501   3.643  21.092   1.204
61176W        W33502  10.337  29.100   2.700
61177W        W33503  28.094   1.755   2.601
61178W        W33504  44.803  33.853   2.953
61179W        W33505  14.883   2.713   4.988
61180W        W33506  15.350  27.530  11.969
61181W        W33507   1.947   9.032   1.263
61182W        W33508  24.025   2.805  11.186
61183W        W33509   7.696  12.622  14.920
61184W        W33510  33.517  42.277   3.628
61185W        W33511  32.024   5.548  13.899
61186W        W33512  30.610  14.859  10.897
61187W        W33513  20.287  17.736  10.647
61188W        W33514  18.172  21.749   3.298
61189W        W33515   9.931  10.831  14.283
61190W        W33516  43.879  12.659   2.253
61191W        W33517  20.076  21.624  12.375
61192W        W33518  20.498  13.690  10.900
61193W        W33519   5.777  14.784   0.275
61194W        W33520  14.340  27.611  13.832
61195W        W33521  32.910  34.835  13.593
61196W        W33522  35.319   0.988  14.313
61197W        W33523  42.505  34.745  14.225
61198W        W33524  19.763  30.612  12.085
61199W        W33525  20.488  19.085  13.503
61200W        W33526  28.564  42.263   2.317
61201W        W33527  24.896  13.208  11.112
61202W        W33528  10.821  39.848   4.391
61203W        W33529   9.182   0.384  11.939
61204W        W33530  41.803  15.228  10.907
61205W        W33531   6.661  35.986   1.947
61206W        W33532  44.756  14.050   3.258
61207W        W33533  37.844  30.995  13.449
61208W        W33534  27.239  41.404  11.136
61209W        W33535  37.861  25.843  11.927
61210W        W33536  42.868  21.097   0.430
61211W        W33537   8.433   3.320   3.652
61212W        W33538  10.305  39.475  14.818
61213W        W33539  21.072   7.296   0.650
61214W        W33540   7.217  19.588   0.046
61215W        W33541  23.303  36.932  12.994
61216W        W33542   2.936  39.143  11.470
61217W        W33543  20.142  16.279   1.867
61218W        W33544  44.056  44.187   0.814
61219W        W33545  38.950  42.751   9.991
61220W        W33546  27.659   0.172  11.079
61221W        W33547  21.648  11.341  12.089
61222W        W33548  10.084   2.003  13.971
61223W        W33549   2.482  21.232   5.014
61224W        W33550  33.338   0.018   2.899
61225W        W33551  22.995  10.369  11.659
61226W        W33552  18.557  40.276  12.182
61227W        W33553  13.635  33.137  10.376
61228W        W33554  32.174   2.166  11.104
61229W        W33555  26.169  37.157  11.472
61230W        W33556  26.170  19.058   2.377
61231W        W33557  43.376   2.104  12.932
61232W        W33558  32.427  42.055  10.560
61233W        W33559  27.060  40.427  14.766
61234W        W33560  14.216   9.286   2.597
61235W        W33561  38.871  12.189  13.964
61236W        W33562  23.010  40.921  14.497
61237W        W33563  12.153  38.010   0.817
61238W        W33564  37.298  21.693   3.354
61239W        W33565   1.280  15.370  14.779
61240W        W33566  26.635  17.129   5.180
61241W        W33567  10.433  43.245   2.865
61242W        W33568  12.827  39.848   0.689
61243W        W33569  32.144  10.879  14.400
61244W        W33570  26.671  20.987   2.978
61245W        W33571   6.174  30.143   0.054
61246W        W33572  20.907  17.854  13.766
61247W        W33573   5.090  12.733   0.713
61248W        W33574  28.041  32.398  14.726
61249W        W33575  34.683  43.146  14.276
61250W        W33576  27.597  40.472  10.907
61251W        W33577  17.262  15.985  13.815
61252W        W33578   6.094  32.877  12.109
61253W        W33579   3.511  44.197   1.252
61254W        W33580  11.637  38.584  11.053
61255W        W33581  24.179  16.395  11.394
61256W        W33582   3.158  17.532   1.689
61257W        W33583   0.170   5.492   3.659
61258W        W33584  23.182  28.307  14.266
61259W        W33585  16.080  13.196  12.115
61260W        W33586  22.668   6.928   4.689
61261W        W33587   0.811  21.566  13.510
61262W        W33588  44.390  21.236   1.683
61263W        W33589   3.748  22.547   3.711
61264W        W33590   6.744  42.045  12.587
61265W        W33591   5.202  36.764  14.506
61266W        W33592  26.217  14.285  13.974
61267W        W33593  20.044   5.794  10.916
61268W        W33594  14.638  29.771  12.873
61269W        W33595  32.189  43.300   1.732
61270W        W33596  16.614  25.214   0.937
61271W        W33597  24.478  24.464  14.509
61272W        W33598  13.512  10.363  14.634
61273W        W33599  24.000  42.547  13.934
61274W        W33600   7.260  37.404   0.868
61275W        W33601   3.982  36.564  14.868
61276W        W33602  10.839  11.198  14.686
61277W        W33603  36.339  23.061  13.916
61278W        W33604  13.260  43.836   3.671
61279W        W33605  35.945  23.992  12.021
61280W        W33606  21.799  27.257   0.855
61281W        W33607  30.432   7.072   4.188
61282W        W33608  43.285  10.687   2.832
61283W        W33609  19.007  22.724  14.871
61284W        W33610  44.783  19.031   3.678
61285W        W33611  37.723  11.218  11.893
61286W        W33612  27.524   7.908  11.581
61287W        W33613  32.070  27.906  14.762
61288W        W33614  41.762  33.988   1.710
61289W        W33615  22.981  12.355   1.150
61290W        W33616   4.916  36.188  10.716
61291W        W33617  26.031  33.106   2.291
61292W        W33618   8.505  41.461  12.918
61293W        W33619  39.968  12.839  11.941
61294W        W33620   9.393  36.592   3.835
61295W        W33621  29.940  44.535  11.596
61296W        W33622   7.758  25.047   1.359
61297W        W33623  28.205  35.904   2.386
61298W        W33624   2.038   5.384   1.386
61299W        W33625  17.625  23.621  14.457
61300W        W33626  24.185  34.056   3.157
61301W        W33627   5.740  39.336   1.984
61302W        W33628  36.889  44.362   3.666
61303W        W33629  22.265  32.462   4.547
61304W        W33630  10.732  24.540  11.728
61305W        W33631  20.083   9.654   4.585
61306W        W33632   1.336  22.129   0.926
61307W        W33633  10.021  36.312  14.005
61308W        W33634  37.943  19.159   0.743
61309W        W33635   5.770  44.803  14.929
61310W        W33636   7.472  20.802   1.537
61311W        W33637   3.756  40.155  14.190
61312W        W33638  31.219  17.072  14.008
61313W        W33639  28.587  36.081   0.277
61314W        W33640  43.846  30.152  14.331
61315W        W33641  42.784  16.621   2.228
61316W        W33642   4.053  21.717   2.582
61317W        W33643  32.786  29.557   3.329
61318W        W33644  10.300   3.667   2.926
61319W        W33645   5.629  40.729  10.862
61320W        W33646  19.330  16.797  11.474
61321W        W33647  14.659  33.522   3.891
61322W        W33648  13.174  33.497  12.418
61323W        W33649   7.241   5.178  12.185
61324W        W33650  41.277  12.723   3.759
61325W        W33651  39.327  25.978  13.446
61326W        W33652  41.495  18.236  12.157
61327W        W33653  24.076  27.444   1.392
61328W        W33654  27.843   9.952  12.707
61329W        W33655  14.342  39.500   0.703
61330W        W33656  24.475  33.103  14.984
61331W        W33657  29.156   3.929  12.968
61332W        W33658   6.774  43.517   2.774
61333W        W33659  14.385  16.067   0.791
61334W        W33660  30.954  23.047  11.057
61335W        W33661  18.231  29.224  12.136
61336W        W33662  36.971  10.231  13.883
61337W        W33663  21.544  33.861  14.736
61338W        W33664  26.154  39.178  13.267
61339W        W33665   2.795  11.575   2.791
61340W        W33666  14.726  20.186  13.630
61341W        W33667  33.061  41.347   0.774
61342W        W33668  21.068  29.944  12.273
61343W        W33669  26.387  41.436  10.810
61344W        W33670  33.780  18.180   1.876
61345W        W33671  35.369  39.575   3.728
61346W        W33672  13.890  37.585  13.534
61347W        W33673  26.522  22.862  12.601
61348W        W33674  38.511  39.080  12.544
61349W        W33675  16.366  39.135  13.629
61350W        W33676  20.002  35.839  13.087
61351W        W33677  36.538  31.165  12.489
61352W        W33678  21.091  26.366  11.838
61353W        W33679  32.649   8.938  13.478
61354W        W33680  38.012  13.698  11.228
61355W        W33681  26.315  44.465  10.754
61356W        W33682  35.500  14.273   0.878
61357W        W33683   6.386  14.324  11.091
61358W        W33684  30.929  37.167  13.301
61359W        W33685  13.797  16.956  11.073
61360W        W33686  10.005  31.138   3.034
61361W        W33687  11.788  27.104  10.579
61362W        W33688  21.125   7.320   4.072
61363W        W33689  29.719  25.888   2.279
61364W        W33690  26.003  22.445   4.791
61365W        W33691  30.535  21.625   4.735
61366W        W33692   5.969   1.330   2.326
61367W        W33693  12.283  10.820   4.468
61368W        W33694  30.200  34.065   3.071
61369W        W33695  41.944   7.608   2.262
61370W        W33696  14.737  12.990  12.430
61371W        W33697  25.781   6.294   3.765
61372W        W33698  40.464   5.935  11.177
61373W        W33699  27.934  34.567  12.450
61374W        W33700  18.811   2.345  11.066
61375W        W33701  28.695  23.429   3.712
61376W        W33702   9.357  38.768   1.157
61377W        W33703  19.442   4.411  13.993
61378W        W33704  41.019  19.299  12.966
61379W        W33705  20.128  32.088  10.370
61380W        W33706  39.053  31.843  11.594
61381W        W33707  13.184  16.140   3.245
61382W        W33708  31.407  15.254  12.465
61383W        W33709  27.012   6.896   2.512
61384W        W33710  38.995   6.268  13.798
61385W        W33711  31.220  35.630  11.731
61386W        W33712   6.360   4.214  13.477
61387W        W33713  14.721  22.511   9.836
61388W        W33714  19.159  16.187  12.575
61389W        W33715  22.243  33.498   2.213
61390W        W33716  13.815  28.420   1.780
61391W        W33717  14.739  26.694  14.779
61392W        W33718  25.683  36.749   1.763
61393W        W33719  19.110  31.188  11.555
61394W        W33720   7.153  38.570  12.341
61395W        W33721  28.267  44.864  11.911
61396W        W33722   5.350  14.038   2.932
61397W        W33723  20.748  36.550   2.710
61398W        W33724   2.516  10.629  13.300
61399W        W33725  27.652  35.799  14.946
61400W        W33726  42.370  19.108  14.940
61401W        W33727  37.555  21.791  14.883
61402W        W33728  23.056   2.506   0.456
61403W        W33729   1.972  11.081  13.944
61404W        W33730   9.138  37.958  14.279
61405W        W33731  12.714  19.959   4.488
61406W        W33732  17.908  37.281  13.861
61407W        W33733   5.651  29.710   1.194
61408W        W33734  30.652  43.500  12.875
61409W        W33735  32.498  42.563  13.989
61410W        W33736   0.984  35.587   1.133
61411W        W33737  44.558  21.671   2.383
61412W        W33738  43.981  11.642   3.349
61413W        W33739  22.688  27.587   1.852
61414W        W33740   6.263  41.604  12.150
61415W        W33741  10.874  21.843  13.769
61416W        W33742  13.707   0.542  11.875
61417W        W33743  26.462  38.816   2.834
61418W        W33744  25.541   3.401  10.679
61419W        W33745  39.756  44.184  13.830
61420W        W33746  40.895  21.369  12.859
61421W        W33747  41.511   1.759   0.420
61422W        W33748  25.179  10.356  13.096
61423W        W33749  21.149  39.049  13.344
61424W        W33750  38.626  12.426   4.375
61425W        W33751  23.571  31.831   1.606
61426W        W33752   1.127  14.643   1.289
61427W        W33753   8.717  16.820  14.764
61428W        W33754   6.380  16.830   3.768
61429W        W33755   7.636  40.776   0.778
61430W        W33756   1.058   2.957   9.802
61431W        W33757   8.799  34.864   4.409
61432W        W33758  36.766  25.323  13.632
61433W        W33759  30.886   4.697   5.395
61434W        W33760  43.604  23.193   1.657
61435W        W33761  25.375   5.790   0.186
61436W        W33762   5.768  34.439   4.876
61437W        W33763  17.203  40.655   4.853
61438W        W33764  44.199   6.801   2.176
61439W        W33765  15.686  26.066  11.956
61440W        W33766  25.381  31.007  13.905
61441W        W33767   6.169  16.393   2.323
61442W        W33768  17.713  13.358  12.943
61443W        W33769  43.318  43.217   1.562
61444W        W33770   9.661   5.759   4.483
61445W        W33771   0.238  11.121  11.621
61446W        W33772  25.518  32.852   2.918
61447W        W33773  14.731  22.679   1.236
61448W        W33774  15.762  39.237   4.764
61449W        W33775  26.591  16.777   4.527
61450W        W33776   0.043  42.431   2.651
61451W        W33777  26.395  38.775  14.641
61452W        W33778   1.314  10.605   1.622
61453W        W33779  41.042  26.060  14.780
61454W        W33780  11.800   3.573  11.052
61455W        W33781  33.552  29.385  12.899
61456W        W33782  24.626   6.008   1.797
61457W        W33783  25.496  26.045   3.923
61458W        W33784  17.046  44.223   3.633
61459W        W33785  39.343  31.606   3.930
61460W        W33786  26.551  20.513   2.803
61461W        W33787   0.191  29.163  10.659
61462W        W33788   1.856  22.977   0.859
61463W        W33789  44.123   0.697   0.950
61464W        W33790   0.344  32.314  14.932
61465W        W33791  31.110  11.182   3.434
61466W        W33792  26.713  15.092   3.899
61467W        W33793  44.431  18.364   1.869
61468W        W33794   5.817  32.276   5.159
61469W        W33795  16.497  43.933   3.165
61470W        W33796   1.759  32.487  13.131
61471W        W33797  21.378  23.442   1.358
61472W        W33798  36.054  30.923   4.444
61473W        W33799  40.796  42.005   2.222
61474W        W33800   9.176  39.055   3.386
61475W        W33801   2.645  31.545   1.231
61476W        W33802   6.320   2.822   0.070
61477W        W33803   8.433  39.469   3.179
61478W        W33804  30.064   0.397   1.275
61479W        W33805  39.385  37.562  10.606
61480W        W33806  40.980  22.688  11.000
61481W        W33807  36.164  41.499   3.803
61482W        W33808  15.868  22.452   0.303
61483W        W33809   5.817  42.528  11.144
61484W        W33810  18.502  13.861   1.812
61485W        W33811  17.820  10.612   2.408
61486W        W33812  17.411  23.845  14.029
61487W        W33813   1.603  19.704  14.572
61488W        W33814  37.290   4.464  11.530
61489W        W33815  34.454  23.264  11.933
61490W        W33816   8.437  37.560   1.365
61491W        W33817  20.559  28.635  13.864
61492W        W33818  34.659  16.352  14.489
61493W        W33819   3.318  34.126  13.419
61494W        W33820   0.444  24.538   3.657
61495W        W33821  28.320   6.543  12.149
61496W        W33822  42.933   8.644   2.110
61497W        W33823  20.997  26.053  11.064
61498W        W33824   6.368  37.425   4.085
61499W        W33825  10.360  29.572  10.710
61500W        W33826   6.613  25.611  12.343
61501W        W33827  13.152  19.581  12.954
61502W        W33828   9.643   8.798   3.245
61503W        W33829  20.943  39.945  12.585
61504W        W33830  16.979  21.688  12.845
61505W        W33831  36.709  12.634  12.233
61506W        W33832  31.510  41.553   2.818
61507W        W33833  11.501  34.575  10.173
61508W        W33834  14.624   8.107   0.950
61509W        W33835  21.309  21.949   4.405
61510W        W33836  19.267   2.036  11.133
61511W        W33837  23.653  22.134  10.590
61512W        W33838   2.372  36.861   1.669
61513W        W33839  25.899  24.137  12.630
61514W        W33840  39.072  43.522   0.727
61515W        W33841  13.959  13.799  11.117
61516W        W33842  41.037  21.327  13.761
61517W        W33843   8.729  43.019   3.090
61518W        W33844  38.868  14.586   1.209
61519W        W33845  43.539  20.664   4.580
61520W        W33846   5.182  13.649  12.029
61521W        W33847  31.550  34.026   2.693
61522W        W33848  19.274  40.825   0.864
61523W        W33849  29.988  27.742  11.984
61524W        W33850   4.350  19.817  13.081
61525W        W33851  29.438  29.188  13.384
61526W        W33852  28.284  15.183  12.132
61527W        W33853  35.075  36.812   3.655
61528W        W33854  41.293  40.549  11.115
61529W        W33855  39.343   6.683  11.118
61530W        W33856   2.514  23.769   4.045
61531W        W33857  40.860  25.444   0.345
61532W        W33858   8.741  44.653   0.945
61533W        W33859  23.133  12.299   4.185
61534W        W33860   4.966   5.735  13.881
61535W        W33861   0.944  29.573  10.881
61536W        W33862   3.946  43.322   2.630
61537W        W33863   6.558  30.645   0.482
61538W        W33864  37.523  13.804  14.553
61539W        W33865  12.119   4.514   0.779
61540W        W33866  31.963  29.056  13.697
61541W        W33867  26.291  14.668  14.320
61542W        W33868   2.246  32.795   3.333
61543W        W33869  12.291  22.013  12.843
61544W        W33870  37.012  42.344   4.205
61545W        W33871  38.902  15.932   0.776
61546W        W33872  25.320  11.115   0.530
61547W        W33873  36.141  39.992  13.855
61548W        W33874  24.829  43.046  13.530
61549W        W33875   0.526   8.355   3.776
61550W        W33876  39.906  22.631  12.480
61551W        W33877   1.121   8.926   1.247
61552W        W33878  34.744  44.547  11.002
61553W        W33879  18.678  35.359  10.562
61554W        W33880  22.618   1.029   0.627
61555W        W33881  31.690  14.840  12.574
61556W        W33882  22.931   1.227  11.689
61557W        W33883  14.560  41.478   3.212
61558W        W33884  10.999   3.893   4.266
61559W        W33885  42.616  38.822   2.564
61560W        W33886  19.361  12.789   0.358
61561W        W33887  33.476  43.815  14.277
61562W        W33888  16.087  31.141  11.583
61563W        W33889  29.965  17.515  14.490
61564W        W33890  12.918   4.765   3.659
61565W        W33891  40.930   3.928  14.219
61566W        W33892  19.203  41.323   3.902
61567W        W33893   7.043  29.418   1.310
61568W        W33894  15.454  16.755   2.450
61569W        W33895  12.630  26.086   1.123
61570W        W33896  44.907   7.882   0.015
61571W        W33897  22.639  40.941  13.325
61572W        W33898  33.505  27.671  13.444
61573W        W33899  13.914  16.426  13.031
61574W        W33900   4.249  10.627   0.734
61575W        W33901  15.093  33.969  12.285
61576W        W33902   6.719  14.287  11.567
61577W        W33903  33.443  24.518  13.789
61578W        W33904  32.872  31.612   0.595
61579W        W33905  28.569  24.241   4.509
61580W        W33906  37.615  17.892  10.250
61581W        W33907  28.584   6.774   0.987
61582W        W33908  20.053   2.553  12.536
61583W        W33909  16.201  12.655  13.460
61584W        W33910  10.688   7.911  14.462
61585W        W33911  19.836   5.663   4.369
61586W        W33912  41.500   8.080  13.678
61587W        W33913  16.698  32.534  14.531
61588W        W33914  24.863  37.865   0.264
61589W        W33915  43.488   5.617  12.576
61590W        W33916  27.992   4.016  13.258
61591W        W33917  16.844  36.588  11.572
61592W        W33918  35.895   3.398   3.574
61593W        W33919  21.253  22.450   4.297
61594W        W33920  39.287  17.631   1.425
61595W        W33921   1.727  34.644  11.951
61596W        W33922  10.762  41.535  13.808
61597W        W33923  29.845  16.157  11.975
61598W        W33924   6.595   4.924  12.577
61599W        W33925  14.019  12.810   3.767
61600W        W33926  13.017  41.778  14.823
61601W        W33927  43.978  41.453  14.238
61602W        W33928  14.334  36.359  12.038
61603W        W33929   7.969  19.741  13.800
61604W        W33930  16.844  31.298  13.579
61605W        W33931  29.018  25.408   9.979
61606W        W33932  35.965  42.992   0.061
61607W        W33933  38.656  31.974  11.901
61608W        W33934  33.932  43.263  14.503
61609W        W33935  22.077  31.701  11.148
61610W        W33936  14.441  25.124   3.374
61611W        W33937  25.443  19.361  12.217
61612W        W33938  10.275   7.459   2.566
61613W        W33939  14.100  12.145   0.098
61614W        W33940  11.095  20.571  14.959
61615W        W33941  19.107  40.020   0.408
61616W        W33942  20.676  14.605  12.882
61617W        W33943  24.173   6.254   0.030
61618W        W33944  14.560  33.787  13.518
61619W        W33945   6.175  10.131   1.188
61620W        W33946   8.644  40.008  12.080
61621W        W33947  39.538  32.550  13.852
61622W        W33948  34.833   2.623  14.270
61623W        W33949  13.191  34.958   1.644
61624W        W33950  43.379  36.605  10.625
61625W        W33951  34.513  19.099  10.674
61626W        W33952  33.126  21.719  10.508
61627W        W33953   7.499  21.769   3.278
61628W        W33954  14.778  10.815   4.726
61629W        W33955  30.455  38.333  14.073
61630W        W33956  14.654  11.750  10.029
61631W        W33957  24.491  32.153  13.903
61632W        W33958  34.861  34.564   5.094
61633W        W33959  23.534  36.623  10.538
61634W        W33960   6.227  17.699   4.098
61635W        W33961  32.209  40.797  14.830
61636W        W33962  14.187  38.808   4.793
61637W        W33963  37.608   7.637  14.486
61638W        W33964  19.651  24.625   3.145
61639W        W33965   5.993  34.535  14.519
61640W        W33966  20.602  36.844  13.923
61641W        W33967   0.223  28.436  14.532
61642W        W33968   4.800  25.537   3.707
61643W        W33969  30.693  19.110   1.202
61644W        W33970  22.469  12.756  13.005
61645W        W33971  38.675  25.029   4.320
61646W        W33972  22.475  38.016   3.968
61647W        W33973  10.741   6.904  13.037
61648W        W33974  33.409  13.867   1.775
61649W        W33975  15.654  38.037  14.467
61650W        W33976  31.444  14.603  14.857
61651W        W33977  16.181   4.216  12.042
61652W        W33978   9.379   8.724  11.971
61653W        W33979   2.361   7.345  12.801
61654W        W33980  42.081  13.337   0.672
61655W        W33981  10.919  38.086   0.782
61656W        W33982  28.165  29.761   3.123
61657W        W33983   9.650   2.886  14.966
61658W        W33984   7.778  22.663   5.130
61659W        W33985   3.373  11.822  13.266
61660W        W33986  21.716   1.358   0.067
61661W        W33987  24.888  15.708  13.997
61662W        W33988  30.567   6.804  12.744
61663W        W33989  18.157  26.432   0.829
61664W        W33990   1.448   3.930   1.873
61665W        W33991  25.235  26.261   3.223
61666W        W33992   6.449  26.554  11.580
61667W        W33993  31.914  38.812   2.789
61668W        W33994  25.519  14.740  11.134
61669W        W33995  21.173  34.350   4.137
61670W        W33996  39.687  23.749   2.122
61671W        W33997  10.597   2.833  11.188
61672W        W33998  39.738   9.274  13.865
61673W        W33999  22.173   2.916   0.857
61674W        W34000  22.992  38.470   4.560
61675W        W34001   4.028  28.894  11.779
61676W        W34002  32.510  38.457  13.004
61677W        W34003  25.781   2.477  11.967
61678W        W34004  23.049  15.218  10.122
61679W        W34005  24.241  36.282   4.035
61680W        W34006  17.343  10.707   3.314
61681W        W34007  26.022   0.242   4.276
61682W        W34008  42.752   2.936   2.780
61683W        W34009  23.712  21.720  11.544
61684W        W34010   6.455  39.980  14.374
61685W        W34011  24.578   5.908   2.712
61686W        W34012  37.113  26.013   2.313
61687W        W34013  40.377  15.910   0.878
61688W        W34014  44.470  39.403  13.794
61689W        W34015  44.030  21.674  12.602
61690W        W34016   8.367   4.807  13.880
61691W        W34017  16.658  39.055   4.562
61692W        W34018   8.309  23.144   4.573
61693W        W34019   0.610  19.580  14.419
61694W        W34020  44.015   5.821  13.810
61695W        W34021  38.462  35.966   4.340
61696W        W34022  26.484  15.377   3.537
61697W        W34023  14.163   6.046  11.975
61698W        W34024  32.624  41.358  12.295
61699W        W34025  43.946   3.565   0.858
61700W        W34026   3.143  27.710  12.535
61701W        W34027  13.694  28.070   5.199
61702W        W34028  38.438  38.824  11.542
61703W        W34029  35.750  15.826   1.916
61704W        W34030   8.289  19.794  12.873
61705W        W34031  44.057  36.891  14.474
61706W        W34032   3.608   0.863  10.174
61707W        W34033  19.287  43.957   2.384
61708W        W34034   9.117   8.843  13.375
61709W        W34035   2.880  42.068  10.408
61710W        W34036  30.950  44.253  14.029
61711W        W34037  19.840  24.737   2.190
61712W        W34038  39.716  17.571   1.038
61713W        W34039  21.630  36.950  13.550
61714W        W34040  25.100  31.965   0.666
61715W        W34041   1.348  44.163   1.894
61716W        W34042  22.588  13.381  14.038
61717W        W34043   9.594  11.291   1.280
61718W        W34044  38.716  16.423  14.782
61719W        W34045  30.402  23.239   3.207
61720W        W34046  20.942  39.969  11.327
61721W        W34047  30.030   1.685  12.492
61722W        W34048  15.183   7.942   2.163
61723W        W34049   1.585   5.774   2.775
61724W        W34050  26.451   4.427   0.889
61725W        W34051  44.493  20.128  10.605
61726W        W34052  16.486   0.007  12.123
61727W        W34053  11.670  41.261  11.389
61728W        W34054  12.520  11.561  11.687
61729W        W34055  21.021   4.164  10.123
61730W        W34056  36.906   6.398   4.645
61731W        W34057  16.611   5.545   1.290
61732W        W34058   0.838  38.089  13.794
61733W        W34059   2.212  12.625   3.700
61734W        W34060  28.901   3.686   1.897
61735W        W34061  14.143  23.411   4.514
61736W        W34062   1.035  30.833  12.357
61737W        W34063  25.406  36.622   2.727
61738W        W34064  29.129  25.728  14.882
61739W        W34065  38.011   8.344  13.179
61740W        W34066  35.793  28.629   2.838
61741W        W34067  34.044   7.319   1.808
61742W        W34068  27.558   2.476  12.410
61743W        W34069  37.145   4.786  14.381
61744W        W34070  38.258  21.081   3.841
61745W        W34071   4.504   6.873  14.772
61746W        W34072  44.845  29.541  12.356
61747W        W34073  35.636  35.049   3.295
61748W        W34074  13.755  13.350   3.675
61749W        W34075   2.865   5.707   1.970
61750W        W34076  22.599  19.803   3.724
61751W        W34077  20.691  41.309   3.535
61752W        W34078  16.148   9.912   4.511
61753W        W34079   2.049  16.459   2.405
61754W        W34080  23.131   8.394  10.265
61755W        W34081  27.400   3.465   0.668
61756W        W34082   7.686  17.610   4.104
61757W        W34083  34.415  44.799   0.071
61758W        W34084  18.606  35.523   3.353
61759W        W34085  40.050  30.482  11.168
61760W        W34086  28.536  35.910  14.759
61761W        W34087  42.048   0.844  11.609
61762W        W34088  41.562  22.764  13.650
61763W        W34089   0.937  27.472   2.763
61764W        W34090  28.445  13.040  11.389
61765W        W34091   0.364  17.910  12.384
61766W        W34092  34.565  30.112   0.789
61767W        W34093  20.261  40.527   0.210
61768W        W34094  29.597  40.118  10.503
61769W        W34095  31.556  13.753   0.238
61770W        W34096  24.746  22.963   1.395
61771W        W34097   8.686  26.302  11.556
61772W        W34098  17.313  22.561   0.834
61773W        W34099   9.125  18.134   3.171
61774W        W34100   6.578  30.072  14.739
61775W        W34101   1.262  20.021  13.799
61776W        W34102  26.659  29.087  14.244
61777W        W34103  32.647  14.285   1.899
61778W        W34104  14.366  41.901   2.647
61779W        W34105  27.786  23.722   2.814
61780W        W34106  14.042  41.473   4.344
61781W        W34107  28.337  42.261   1.478
61782W        W34108  34.207  34.421  12.450
61783W        W34109  21.170  36.266   3.686
61784W        W34110  13.931  24.293   4.561
61785W        W34111  44.021  27.879   3.647
61786W        W34112  19.268   0.321   3.423
61787W        W34113   9.845   6.756   4.100
61788W        W34114  19.969  29.140  12.959
61789W        W34115  36.342  17.653  10.606
61790W        W34116  15.542  41.254   0.285
61791W        W34117   7.369   7.057   5.217
61792W        W34118  21.576   2.231  11.599
61793W        W34119  39.499  29.984   0.488
61794W        W34120   2.839   1.700   3.714
61795W        W34121  11.981  34.462   2.204
61796W        W34122   1.781  20.025   0.736
61797W        W34123  27.195   6.806   2.988
61798W        W34124  44.365   6.399   3.130
61799W        W34125  32.982  39.383  14.871
61800W        W34126  27.746  24.467   3.590
61801W        W34127  29.117  42.306  14.843
61802W        W34128  32.579  39.903   1.365
61803W        W34129  26.547  31.036  10.865
61804W        W34130  44.335  33.982  12.791
61805W        W34131  12.781  19.597   4.108
61806W        W34132  23.569  42.987   4.681
61807W        W34133  42.818  26.071   3.374
61808W        W34134  41.938  24.010  11.553
61809W        W34135  35.980  37.364  10.876
61810W        W34136   3.209  28.228  12.588
61811W        W34137   4.056  32.937  11.716
61812W        W34138  17.682  12.880   3.305
61813W        W34139  30.855  16.945  14.378
61814W        W34140  29.008  32.517   4.092
61815W        W34141   9.531  37.041   0.813
61816W        W34142  40.992  28.676   3.293
61817W        W34143  40.996   3.685   0.842
61818W        W34144  43.917  36.012  12.583
61819W        W34145  27.547  33.175  13.333
61820W        W34146  25.106  14.932  13.054
61821W        W34147  36.288  21.327   4.307
61822W        W34148   3.261  26.772  11.057
61823W        W34149  24.013  23.438   4.629
61824W        W34150   0.558   9.170   2.093
61825W        W34151  27.363  13.200  13.419
61826W        W34152  38.507  23.138   4.205
61827W        W34153  21.320  10.241   0.883
61828W        W34154  41.955   1.810  12.187
61829W        W34155   2.008  23.634   4.073
61830W        W34156  35.447  35.831   4.989
61831W        W34157  37.440  27.823   1.875
61832W        W34158  14.835  21.672   1.395
61833W        W34159  40.888  12.207   0.698
61834W        W34160   1.438  32.345  11.120
61835W        W34161  41.175  17.743  11.133
61836W        W34162  38.166  35.505   1.787
61837W        W34163  14.632  11.273  11.737
61838W        W34164  24.270   2.391  12.033
61839W        W34165  32.022   1.453  13.933
61840W        W34166  26.187  30.084   2.282
61841W        W34167  21.628  19.152   4.440
61842W        W34168   4.177  10.388   3.716
61843W        W34169   0.882  24.466  12.506
61844W        W34170  13.167  38.886  12.094
61845W        W34171   8.944  41.075   1.321
61846W        W34172  28.662   6.712  14.447
61847W        W34173   5.420  37.469   4.111
61848W        W34174   1.247   6.208  13.359
61849W        W34175   7.717  21.030  13.844
61850W        W34176  37.348  10.251   0.378
61851W        W34177   1.450   7.083  11.711
61852W        W34178   8.305  25.992  14.487
61853W        W34179  39.059  24.029  14.303
61854W        W34180  37.428  39.601  14.504
61855W        W34181  20.002   5.114   1.731
61856W        W34182  29.135   2.744   3.430
61857W        W34183  17.186  24.507   3.569
61858W        W34184  22.942  13.372   3.720
61859W        W34185  14.622   7.695  11.647
61860W        W34186  33.569  42.596   2.457
61861W        W34187   4.705   7.443   2.856
61862W        W34188  41.560  28.550   1.811
61863W        W34189  44.536  33.993   1.397
61864W        W34190   4.204  44.928   0.665
61865W        W34191   8.842  44.027  14.027
61866W        W34192  25.397  44.452  11.658
61867W        W34193  23.831  30.977  12.467
61868W        W34194  21.751   6.286   9.973
61869W        W34195  41.343  40.483   0.841
61870W        W34196  20.468   8.352  13.007
61871W        W34197  11.759  27.087  14.722
61872W        W34198  44.801  15.223   1.271
61873W        W34199  43.102   0.639   2.054
61874W        W34200  24.872  37.489  14.908
61875W        W34201  24.095  23.779   0.299
61876W        W34202  34.584  41.803   1.230
61877W        W34203  13.342  31.625   1.314
61878W        W34204   1.896   2.485   2.154
61879W        W34205  17.166  14.374  10.026
61880W        W34206  22.780  36.624  11.626
61881W        W34207  17.934  41.266  13.221
61882W        W34208   2.347  27.904   0.870
61883W        W34209  34.885  35.884  10.194
61884W        W34210  27.933  30.162   2.698
61885W        W34211  25.987  29.028   0.737
61886W        W34212  16.970  27.504   0.895
61887W        W34213  37.817  35.146   1.735
61888W        W34214   0.691  34.410  14.143
61889W        W34215  34.333  39.635   4.579
61890W        W34216   4.436  24.901  11.294
61891W        W34217  30.018  12.601   3.323
61892W        W34218   4.428   8.414   1.826
61893W        W34219  39.392  41.141  12.303
61894W        W34220  39.934  23.923   0.244
61895W        W34221  32.085   5.822  13.074
61896W        W34222  34.879  27.716  11.132
61897W        W34223  28.413   1.705  12.032
61898W        W34224  30.387   7.437   1.298
61899W        W34225  31.820  34.289  13.964
61900W        W34226  22.598  15.608  12.420
61901W        W34227  25.941  28.881   1.697
61902W        W34228  34.227  38.887  12.141
61903W        W34229  16.791  10.797  12.405
61904W        W34230   6.781   9.905  10.106
61905W        W34231   1.426  35.182   1.127
61906W        W34232  40.140  36.885   2.692
61907W        W34233  34.695   5.182   0.890
61908W        W34234   0.308  39.341   3.756
61909W        W34235   1.500  29.046   3.870
61910W        W34236  12.627  25.584   2.304
61911W        W34237  34.535  35.519  12.465
61912W        W34238   6.947  16.367  12.027
61913W        W34239   8.550  38.189  12.489
61914W        W34240  30.719  29.094   1.685
61915W        W34241  36.430   1.393  11.526
61916W        W34242   3.526  15.269  12.950
61917W        W34243  17.300  16.131   3.126
61918W        W34244   0.343  30.853   2.327
61919W        W34245   8.715  28.557  11.783
61920W        W34246  16.420  21.802  13.548
61921W        W34247  38.802  27.161   0.369
61922W        W34248  13.125  24.583   0.685
61923W        W34249  18.496  40.427   3.202
61924W        W34250  19.241  33.998  11.590
61925W        W34251  42.338  20.686  10.738
61926W        W34252  22.008  39.981  12.126
61927W        W34253  32.342  16.368   4.042
61928W        W34254   1.772   9.292   2.819
61929W        W34255  19.441  24.336  12.051
61930W        W34256  25.140  19.165   0.027
61931W        W34257  29.087  36.332   4.344
61932W        W34258  25.407  25.031   0.780
61933W        W34259  30.503  28.173   3.623
61934W        W34260  43.268  25.003  14.495
61935W        W34261  36.930  27.573   0.695
61936W        W34262   5.767  18.387  10.848
61937W        W34263  35.774  28.130  12.507
61938W        W34264  10.760  35.032   1.655
61939W        W34265   7.211  40.106   2.413
61940W        W34266  34.400  28.018  11.309
61941W        W34267  30.546  14.961   3.539
61942W        W34268  42.342  31.720   2.304
61943W        W34269  29.987  34.253   2.115
61944W        W34270  44.388  29.629   0.850
61945W        W34271  22.314  35.764  14.459
61946W        W34272  14.588  28.512  11.581
61947W        W34273  18.163   9.347   0.454
61948W        W34274  37.879  10.475   4.655
61949W        W34275  41.535   1.785   2.804
61950W        W34276  34.853  40.410   2.256
61951W        W34277  36.332   4.912  14.849
61952W        W34278  39.757  37.826   2.269
61953W        W34279  10.775  35.687  14.278
61954W        W34280  31.127  21.114  13.014
61955W        W34281  29.816   6.833  12.019
61956W        W34282  39.482  36.699  11.886
61957W        W34283  18.509  14.534  14.398
61958W        W34284  11.398  38.972   1.167
61959W        W34285  29.689  33.477  14.092
61960W        W34286   9.887  43.260   2.868
61961W        W34287  33.440  42.857   9.791
61962W        W34288  18.068  12.362  14.834
61963W        W34289   8.478  14.349   2.849
61964W        W34290  27.864   4.661  10.297
61965W        W34291  24.129   7.926   2.695
61966W        W34292  23.592  39.556  13.937
61967W        W34293  23.279   4.205   1.834
61968W        W34294  13.933  24.234   0.468
61969W        W34295  44.436  31.479   1.279
61970W        W34296  12.797  33.340   4.202
61971W        W34297  12.628   0.877   1.892
61972W        W34298  30.686  27.109  11.663
61973W        W34299  40.388  37.499   5.263
61974W        W34300  32.578   3.387  10.718
61975W        W34301  28.019   6.344   3.595
61976W        W34302  43.005  39.170   4.562
61977W        W34303   9.846  24.058   3.184
61978W        W34304  18.188  41.362   0.137
61979W        W34305  10.864  14.191  13.973
61980W        W34306   2.226  36.838   1.149
61981W        W34307  38.304   1.397  11.061
61982W        W34308   5.205  29.983   1.376
61983W        W34309   6.877   7.781  11.204
61984W        W34310  12.883  22.788   3.958
61985W        W34311   7.332  11.869  14.605
61986W        W34312  18.639  11.657   1.284
61987W        W34313  14.681  42.412  12.110
61988W        W34314   6.228  34.041   2.145
61989W        W34315  15.348  40.169   2.290
61990W        W34316  11.770  37.287   4.991
61991W        W34317  37.055   8.887  13.482
61992W        W34318  18.759  29.031   1.233
61993W        W34319   3.680   9.671  12.044
61994W        W34320  26.917  43.878  11.963
61995W        W34321  29.979  30.171  13.419
61996W        W34322  28.450  13.728  13.376
61997W        W34323  23.450  24.124   3.750
61998W        W34324  28.367  41.373   3.470
61999W        W34325  27.908  24.175   0.953
62000W        W34326  41.689   2.365   3.724
62001W        W34327   0.272  42.102  12.672
62002W        W34328  35.978  41.366  13.930
62003W        W34329  15.142   1.861  13.380
62004W        W34330  26.999   3.668   0.927
62005W        W34331  39.993  41.893  11.596
62006W        W34332  42.811  11.819   3.670
62007W        W34333   6.757   3.204   1.792
62008W        W34334  10.893  41.029   2.362
62009W        W34335   8.543  38.082   2.165
62010W        W34336  40.251  36.026   5.214
62011W        W34337  19.838  42.352  12.504
62012W        W34338   1.703  26.979  14.350
62013W        W34339  26.285  19.464  12.348
62014W        W34340  29.384  41.881   4.209
62015W        W34341  23.114  11.252   0.472
62016W        W34342  13.884  42.281  12.598
62017W        W34343  31.342   2.111   3.196
62018W        W34344   8.937  13.865  12.884
62019W        W34345  15.211  12.612   1.907
62020W        W34346  22.535  13.305   1.406
62021W        W34347  31.383  16.794  10.984
62022W        W34348  32.092  33.900   0.463
62023W        W34349  42.355  21.425   1.940
62024W        W34350  10.867   8.803  11.654
62025W        W34351  29.647  43.880   4.150
62026W        W34352  40.024  36.959  13.458
62027W        W34353  25.281  35.893   0.895
62028W        W34354  19.502  22.747  14.150
62029W        W34355   0.692   3.825  14.673
62030W        W34356  14.687  29.403  14.937
62031W        W34357  13.267  22.220  14.882
62032W        W34358  22.568  31.793   1.863
62033W        W34359   1.178  16.671   3.453
62034W        W34360  36.665  34.051  12.187
62035W        W34361  21.289   7.269   4.585
62036W        W34362  24.699  39.397  12.431
62037W        W34363   6.213  21.330  10.761
62038W        W34364   3.262  15.760  12.118
62039W        W34365  28.393  40.483   2.625
62040W        W34366  27.589  22.754  13.817
62041W        W34367  16.770  25.794   2.698
62042W        W34368  25.083  25.193   1.151
62043W        W34369  16.529  33.577   4.774
62044W        W34370  38.446  13.318   4.525
62045W        W34371  37.021  28.446   2.284
62046W        W34372   4.941  25.119  14.413
62047W        W34373  27.491  44.033  13.577
62048W        W34374  12.553  11.903  13.834
62049W        W34375  39.295  27.873  13.028
62050W        W34376  44.316  39.468   3.843
62051W        W34377   4.293  26.354   3.722
62052W        W34378   5.673  29.149  13.288
62053W        W34379  16.778   2.755   1.923
62054W        W34380  19.638  17.518   4.281
62055W        W34381   6.602  26.133   5.059
62056W        W34382  29.954  27.997   5.398
62057W        W34383  27.632  18.878  14.017
62058W        W34384   0.893  38.002  14.771
62059W        W34385  24.209  37.238   2.157
62060W        W34386  16.398  31.405  13.338
62061W        W34387   2.960  16.042   2.251
62062W        W34388   4.858  36.022  14.991
62063W        W34389   0.504   5.105   1.462
62064W        W34390  30.595  15.748   1.959
62065W        W34391  15.623   3.943  11.081
62066W        W34392  19.531  32.890   0.789
62067W        W34393  18.753   3.270   1.207
62068W        W34394  35.477  30.737  14.516
62069W        W34395   8.097  43.905   4.175
62070W        W34396  38.450  17.579   4.526
62071W        W34397  30.896  19.784   3.485
62072W        W34398  14.381  41.325  12.559
62073W        W34399   8.544  39.797   1.011
62074W        W34400  26.568   5.336  13.351
62075W        W34401  31.123  32.475  12.461
62076W        W34402  23.522  13.736  11.987
62077W        W34403  19.517  34.329  13.488
62078W        W34404  40.894  44.880  14.194
62079W        W34405  17.627   7.734  11.908
62080W        W34406  16.661  39.440   4.928
62081W        W34407  18.604   9.368  10.707
62082W        W34408  44.253  33.608  11.433
62083W        W34409  33.725  35.032   0.783
62084W        W34410  30.971  35.852   2.275
62085W        W34411  40.926   5.205  10.823
62086W        W34412   3.848  29.965  14.780
62087W        W34413   3.747  28.646   2.971
62088W        W34414  21.208   8.269  13.700
62089W        W34415  37.073  16.535   2.355
62090W        W34416  37.333   4.451   3.688
62091W        W34417  23.630   4.300  12.575
62092W        W34418   5.901  43.546   4.237
62093W        W34419  28.462  13.629   1.482
62094W        W34420   8.966   4.218   0.935
62095W        W34421  10.049  28.777   0.712
62096W        W34422  19.667  18.020  12.531
62097W        W34423  15.239  33.176   3.209
62098W        W34424  38.531  31.401  14.785
62099W        W34425  17.200  27.704  10.770
62100W        W34426  22.119  32.413  11.916
62101W        W34427  21.700  15.101  11.338
62102W        W34428  29.063  25.506  11.404
62103W        W34429  11.142  38.552  11.093
62104W        W34430  25.155  14.196   3.703
62105W        W34431  42.961  13.299   3.716
62106W        W34432  43.644  41.446   2.378
62107W        W34433  38.071  28.960   5.013
62108W        W34434  16.308  19.614  11.150
62109W        W34435  30.958  11.307   1.246
62110W        W34436  37.154  33.788   3.285
62111W        W34437  29.485   6.626  14.697
62112W        W34438  34.956  19.554  10.330
62113W        W34439  18.202  26.623   1.822
62114W        W34440   2.421  26.070   1.965
62115W        W34441  36.895  43.315   1.778
62116W        W34442  15.549  32.325  14.878
62117W        W34443  36.241  34.553   5.071
62118W        W34444  39.619  43.979  14.590
62119W        W34445  17.218  36.544   0.028
62120W        W34446  35.981  41.639  14.423
62121W        W34447  15.088  14.688   0.985
62122W        W34448  26.124   4.674  13.236
62123W        W34449  35.980  37.830  13.337
62124W        W34450  33.403   3.798   3.339
62125W        W34451  15.404   9.442  12.602
62126W        W34452  18.677  21.669  14.720
62127W        W34453  10.913  13.794   3.080
62128W        W34454   6.975  40.921  14.322
62129W        W34455  27.145   3.909   1.913
62130W        W34456  20.018  41.019   1.418
62131W        W34457  21.713   3.849   2.945
62132W        W34458   8.783   9.618   0.285
62133W        W34459  14.606   5.851  11.713
62134W        W34460  44.282   6.910   3.241
62135W        W34461  21.167  22.443  14.417
62136W        W34462  16.342  20.211  12.637
62137W        W34463  31.076   0.462  12.972
62138W        W34464   9.275  17.466  14.313
62139W        W34465  14.368   8.885   0.288
62140W        W34466  37.624   9.786   0.490
62141W        W34467  35.493   7.597   4.495
62142W        W34468  34.947  43.865   4.813
62143W        W34469  34.494   0.962   3.938
62144W        W34470  29.019  34.512   0.962
62145W        W34471   3.301   2.779   1.883
62146W        W34472   5.668  43.234  13.165
62147W        W34473  29.195  25.789  14.058
62148W        W34474  33.661   0.587  13.852
62149W        W34475  24.576  43.248   2.162
62150W        W34476  42.396  32.023   1.317
62151W        W34477  38.959  28.944  14.848
62152W        W34478  40.887  28.732  10.790
62153W        W34479   3.881   2.848   3.169
62154W        W34480  23.220  31.296  11.095
62155W        W34481  18.598   4.307  14.902
62156W        W34482   0.393  31.840  12.916
62157W        W34483  44.942   6.900  13.988
62158W        W34484  41.930  40.414   2.075
62159W        W34485  27.453  19.975   2.687
62160W        W34486  38.164  20.627   2.145
62161W        W34487   7.784  21.671   2.491
62162W        W34488   9.048  39.793   4.864
62163W        W34489  18.548  21.178  14.914
62164W        W34490  33.597   2.545  13.955
62165W        W34491   2.389  18.125  11.205
62166W        W34492  16.748   8.549   3.401
62167W        W34493  36.438  34.040   2.781
62168W        W34494  20.628  19.319   0.834
62169W        W34495  10.886  16.691   4.010
62170W        W34496   0.854  37.462   1.205
62171W        W34497  25.606  38.439  14.513
62172W        W34498  15.276  35.143  11.094
62173W        W34499  24.077  16.462  10.893
62174W        W34500  42.078   3.690   2.160
62175W        W34501  22.560   3.401  10.362
62176W        W34502   5.380  23.761  13.576
62177W        W34503  29.154  21.424  14.751
62178W        W34504  44.048   6.088  13.317
62179W        W34505  33.163  16.461  10.957
62180W        W34506   5.920  34.586   0.027
62181W        W34507  22.040  38.453   0.380
62182W        W34508  23.769  35.842  11.168
62183W        W34509   6.789  10.907   0.102
62184W        W34510   4.721  36.549  14.581
62185W        W34511   8.278   5.429   2.170
62186W        W34512  13.149   2.232   4.619
62187W        W34513   1.679  35.795   3.674
62188W        W34514  29.467  18.186  12.223
62189W        W34515  22.995   9.215  11.146
62190W        W34516  15.670  22.539  11.238
62191W        W34517  22.270   2.477  13.817
62192W        W34518  25.556   9.613  13.882
62193W        W34519  27.679  37.371   5.146
62194W        W34520  42.490  23.033   4.565
62195W        W34521   0.476  16.648   2.834
62196W        W34522  17.133  13.329   1.791
62197W        W34523  11.720   5.541  14.305
62198W        W34524  12.607  43.715  12.417
62199W        W34525   2.749  23.554  11.136
62200W        W34526   7.995  37.270  13.515
62201W        W34527  44.872  14.218  13.724
62202W        W34528  13.044  21.676   1.746
62203W        W34529  43.229   1.915  14.463
62204W        W34530  36.568  29.290   0.491
62205W        W34531  19.183   7.646  10.581
62206W        W34532  39.027  34.830  11.602
62207W        W34533  17.726  33.964   4.702
62208W        W34534  36.433  42.164   4.545
62209W        W34535   4.618  38.421  12.372
62210W        W34536  40.260  36.016   0.491
62211W        W34537  32.946   9.966   0.802
62212W        W34538  21.704  12.244  13.622
62213W        W34539  13.822  39.077  14.974
62214W        W34540   9.203  19.738   0.434
62215W        W34541   4.688   5.711   1.001
62216W        W34542  20.186   1.025   2.217
62217W        W34543  20.194  38.358   4.873
62218W        W34544  18.281  39.119   3.183
62219W        W34545  12.621  35.874  14.723
62220W        W34546  36.043  19.112   0.937
62221W        W34547  21.959   6.156   3.991
62222W        W34548   6.184  42.618   2.756
62223W        W34549  44.235  41.853   1.848
62224W        W34550  40.310   0.961  14.470
62225W        W34551  21.952  29.231  11.136
62226W        W34552   6.631  23.937  13.380
62227W        W34553  31.897  26.766   3.941
62228W        W34554   2.237  37.319   4.287
62229W        W34555  15.866  32.260   3.295
62230W        W34556  24.576  17.394   1.759
62231W        W34557  15.173  15.044  11.979
62232W        W34558  28.095  43.121  11.522
62233W        W34559  25.483  40.923   2.623
62234W        W34560  18.355  28.540  13.852
62235W        W34561  41.847  44.546   2.384
62236W        W34562  33.056   5.389   2.151
62237W        W34563  13.946  29.119   3.709
62238W        W34564  27.757   1.358   2.708
62239W        W34565   4.195  14.260   3.677
62240W        W34566  12.521  15.921  11.402
62241W        W34567  24.893  36.250  10.604
62242W        W34568  34.454  37.682   0.811
62243W        W34569  38.059   5.036  13.826
62244W        W34570  28.926  29.422  14.420
62245W        W34571  19.884  16.266  12.042
62246W        W34572  35.399  40.418   2.270
62247W        W34573  34.449  23.695   4.133
62248W        W34574  41.404  21.727  11.671
62249W        W34575   3.279  10.853  12.888
62250W        W34576  31.945   3.714   2.772
62251W        W34577  29.791  12.313  11.540
62252W        W34578  43.853   7.485  12.122
62253W        W34579  40.476  27.007  12.993
62254W        W34580  19.236  28.542  14.447
62255W        W34581  26.436  15.648  11.951
62256W        W34582   7.121   8.201  12.073
62257W        W34583  35.413  30.004   4.002
62258W        W34584  20.793   5.229   4.155
62259W        W34585  43.241  29.462   1.436
62260W        W34586   9.880  29.101  11.154
62261W        W34587  37.059   1.926   1.424
62262W        W34588   0.876  11.521   3.720
62263W        W34589  18.527  11.120   3.595
62264W        W34590  36.764  16.083   3.580
62265W        W34591  26.806  41.091   2.345
62266W        W34592  10.285  44.574  12.869
62267W        W34593  19.289   5.667   3.674
62268W        W34594   4.920  41.214  14.406
62269W        W34595   4.171  39.086   2.649
62270W        W34596   0.726  26.975  11.567
62271W        W34597  39.640  12.069   9.419
62272W        W34598  19.053  15.335  10.633
62273W        W34599   9.254  12.742  12.314
62274W        W34600   2.719  25.200  13.024
62275W        W34601  24.484  28.632   1.266
62276W        W34602   7.331  12.278  13.377
62277W        W34603  14.229  12.963   3.322
62278W        W34604  22.736  14.533  12.510
62279W        W34605   6.728  24.135   2.417
62280W        W34606   1.437  37.473  10.758
62281W        W34607   0.778  31.604   1.413
62282W        W34608   5.676  38.420   3.626
62283W        W34609  42.920  31.274   0.864
62284W        W34610  42.107  36.751  12.556
62285W        W34611  38.770  32.075   1.868
62286W        W34612  19.953  12.737  13.428
62287W        W34613   8.704  32.015   2.902
62288W        W34614   0.280  44.733  11.476
62289W        W34615   1.711  28.369  11.730
62290W        W34616  38.239   2.279   4.163
62291W        W34617  25.999  25.461  12.121
62292W        W34618  33.495   2.793   2.655
62293W        W34619  17.645  30.127   3.417
62294W        W34620   5.615   1.024  14.541
62295W        W34621   9.287  12.256  13.527
62296W        W34622  32.011   9.400  10.521
62297W        W34623  43.449  12.101   0.201
62298W        W34624   5.459   7.540  13.093
62299W        W34625  33.613  27.893   0.593
62300W        W34626  11.715  23.257  14.494
62301W        W34627  41.772  11.159   0.981
62302W        W34628  27.423  20.941  11.984
62303W        W34629  18.100  30.154   3.705
62304W        W34630  24.851  43.089  14.050
62305W        W34631  31.920   2.887  13.803
62306W        W34632  33.860  44.870   3.092
62307W        W34633  34.777   9.258   2.716
62308W        W34634  19.175  14.175   0.787
62309W        W34635  23.150  20.603   3.976
62310W        W34636  15.580  15.743  13.954
62311W        W34637  21.255  40.744  13.533
62312W        W34638   5.483   6.163   0.561
62313W        W34639  10.647  38.854   4.729
62314W        W34640   5.676  38.968   4.110
62315W        W34641  15.841  13.495  10.628
62316W        W34642  19.720   7.427   4.660
62317W        W34643  29.226  41.459   2.994
62318W        W34644  12.152  18.141   1.786
62319W        W34645  18.774   3.624  12.075
62320W        W34646  16.283  17.785   0.006
62321W        W34647  16.795   6.300   3.704
62322W        W34648  31.212   5.704  11.542
62323W        W34649  29.014  22.229  12.162
62324W        W34650   9.205  13.166   0.995
62325W        W34651  14.031  12.136   2.847
62326W        W34652  18.861  21.054   1.193
62327W        W34653  15.850  14.734   3.051
62328W        W34654  40.554  31.829   1.456
62329W        W34655  32.264   8.029   1.406
62330W        W34656  37.323  35.865  10.815
62331W        W34657  36.851  13.802  12.576
62332W        W34658  34.484  28.429  14.012
62333W        W34659  31.941  11.577   2.254
62334W        W34660   0.239  20.672  13.408
62335W        W34661  20.397   2.458  14.715
62336W        W34662  18.796  15.711   1.887
62337W        W34663  26.786  22.067   1.448
62338W        W34664  32.132  11.821   3.248
62339W        W34665   2.023  36.949   3.418
62340W        W34666   5.329   9.225  12.163
62341W        W34667  38.476  38.925   0.518
62342W        W34668  34.530   2.441   0.617
62343W        W34669  37.180  20.595   1.843
62344W        W34670  36.891   1.135  14.213
62345W        W34671  25.021  22.787  14.314
62346W        W34672  34.599  11.755   4.209
62347W        W34673  19.649  43.574   2.458
62348W        W34674  21.228  16.218  11.613
62349W        W34675  10.127  26.736   4.896
62350W        W34676  33.404  30.630   1.856
62351W        W34677  29.554  19.340   3.161
62352W        W34678  16.101  16.630  14.770
62353W        W34679  31.883  44.011   3.673
62354W        W34680  25.339  20.007  12.332
62355W        W34681  19.453  21.971   2.308
62356W        W34682  11.771  26.612  12.464
62357W        W34683   9.664  38.685   1.919
62358W        W34684   0.872  43.330   1.786
62359W        W34685  26.680  11.768   0.032
62360W        W34686  12.898  34.583   2.718
62361W        W34687  25.095  37.802  10.467
62362W        W34688  38.917  37.503   2.753
62363W        W34689  30.135   2.765   0.870
62364W        W34690  17.580  37.045   2.758
62365W        W34691  26.595  38.819   1.837
62366W        W34692  37.405   1.630   3.085
62367W        W34693  32.744  37.922   2.841
62368W        W34694   0.981  24.697   2.158
62369W        W34695   7.598  11.340   4.570
62370W        W34696  18.592  43.557   4.553
62371W        W34697  42.128  24.156   2.329
62372W        W34698  34.072   3.457  11.871
62373W        W34699  12.305  11.770   4.511
62374W        W34700  10.073  41.394  13.122
62375W        W34701  17.779  38.350  14.871
62376W        W34702  21.159  38.377   5.153
62377W        W34703  30.882  24.590  13.384
62378W        W34704  41.994  30.725   3.492
62379W        W34705  40.785  23.627  13.830
62380W        W34706  17.736  27.519  12.581
62381W        W34707   0.931   9.329   3.220
62382W        W34708  39.868  20.564  14.478
62383W        W34709   3.336  43.304  10.754
62384W        W34710   5.479   3.273   4.513
62385W        W34711  11.593  27.064   2.255
62386W        W34712  43.315  19.974  14.045
62387W        W34713   6.370   9.742  10.593
62388W        W34714  26.980   2.237   1.015
62389W        W34715  42.827   7.738   2.449
62390W        W34716  10.104   8.948  12.398
62391W        W34717   3.183  25.649   0.362
62392W        W34718  39.436  31.303  11.059
62393W        W34719  36.185  27.465  14.501
62394W        W34720  18.538   2.857  14.310
62395W        W34721  16.283  29.457  11.913
62396W        W34722  26.873  35.345  10.670
62397W        W34723   4.530  44.922   3.396
62398W        W34724  33.476   1.952   4.630
62399W        W34725  24.297  34.178  11.712
62400W        W34726  36.892   7.757   0.783
62401W        W34727  20.540  23.659  11.157
62402W        W34728  42.982  27.595   0.936
62403W        W34729  25.179  36.945   3.705
62404W        W34730  17.292  35.177   3.793
62405W        W34731  24.645  29.009   4.847
62406W        W34732  11.215  21.659   3.963
62407W        W34733  44.979   8.790  14.101
62408W        W34734  10.051  16.217  10.901
62409W        W34735  33.821  39.428   0.939
62410W        W34736  22.494  13.186   3.485
62411W        W34737  43.495  19.810  10.602
62412W        W34738  10.863  42.289  14.568
62413W        W34739  21.567  30.399  12.585
62414W        W34740  16.593   9.074  14.558
62415W        W34741  35.814   5.031   2.337
62416W        W34742  20.245  29.938   3.195
62417W        W34743  25.055  26.221  14.435
62418W        W34744  37.503  10.552  11.115
62419W        W34745   6.817  41.254  13.937
62420W        W34746  16.031  39.901  14.754
62421W        W34747  25.551  30.309  12.894
62422W        W34748  23.202  14.701   0.874
62423W        W34749  40.339  35.727   3.887
62424W        W34750  31.540   4.779   3.707
62425W        W34751  13.870  37.602  11.890
62426W        W34752  28.168   9.224  13.367
62427W        W34753   9.903  27.907  13.958
62428W        W34754   2.670  18.426   3.209
62429W        W34755  24.918   4.100  14.300
62430W        W34756  23.541  39.055  12.972
62431W        W34757  24.470  10.846  10.763
62432W        W34758  39.131   1.551  11.565
62433W        W34759   1.689   8.316   0.152
62434W        W34760  26.625  41.913  10.635
62435W        W34761   8.856   3.717  12.308
62436W        W34762  13.682  13.141   3.219
62437W        W34763  34.489  39.279  12.350
62438W        W34764   9.549   4.855   1.859
62439W        W34765  30.453  31.598   0.012
62440W        W34766  22.558  16.607   4.118
62441W        W34767  36.563  13.711   4.406
62442W        W34768  12.294   7.226  14.369
62443W        W34769  16.716  27.260  12.877
62444W        W34770  22.706  10.263   1.089
62445W        W34771  18.234   2.769  13.025
62446W        W34772  15.307  33.814   0.944
62447W        W34773  37.618  13.745   1.371
62448W        W34774  20.701  19.075   0.383
62449W        W34775  32.064   0.921   4.125
62450W        W34776  10.822  39.117  12.898
62451W        W34777  18.647  34.424   4.485
62452W        W34778  40.381  14.861   0.875
62453W        W34779   7.701  40.181  13.035
62454W        W34780  23.533  31.413   0.379
62455W        W34781  19.011  19.247  12.636
62456W        W34782  22.578  20.497   2.655
62457W        W34783  39.335  21.632   4.078
62458W        W34784  35.581   3.808   2.576
62459W        W34785  31.119  38.350   3.754
62460W        W34786  15.082  14.084  12.017
62461W        W34787   4.399  21.852   5.013
62462W        W34788   6.275  41.439  10.651
62463W        W34789  17.126   5.508   3.885
62464W        W34790  28.127  24.760   1.817
62465W        W34791  39.557  41.786   1.562
62466W        W34792  43.015  11.989  12.494
62467W        W34793   8.271  13.591  12.120
62468W        W34794  34.005  28.600   3.224
62469W        W34795  27.087  30.513  14.818
62470W        W34796  38.028  14.681   4.565
62471W        W34797   1.387   7.010   1.304
62472W        W34798  44.981  37.857   5.005
62473W        W34799  34.073  41.257  10.411
62474W        W34800  17.652   8.255  13.101
62475W        W34801   9.677  31.572  13.087
62476W        W34802  37.641  29.239   4.749
62477W        W34803  14.140   6.289  12.454
62478W        W34804  32.007  26.608  13.334
62479W        W34805  31.661  19.652   2.786
62480W        W34806  31.859   8.179  12.088
62481W        W34807  28.155  41.956  11.220
62482W        W34808  19.538  32.425   0.999
62483W        W34809   3.772  30.126  12.836
62484W        W34810  17.194  14.060  14.766
62485W        W34811  37.611   9.575  14.407
62486W        W34812   1.813  40.297   4.062
62487W        W34813  35.527  28.698   1.405
62488W        W34814  13.322  28.132  12.570
62489W        W34815  26.455  32.834   2.191
62490W        W34816  38.784  36.526   2.630
62491W        W34817  15.290  34.068   1.861
62492W        W34818  28.186   0.773  13.409
62493W        W34819  14.823  19.150  13.440
62494W        W34820  13.215  12.316   3.849
62495W        W34821  23.111  33.633   0.969
62496W        W34822  29.315  36.067   3.178
62497W        W34823  41.412  37.335   4.381
62498W        W34824  23.753   5.695  12.045
62499W        W34825   2.983  36.390   4.553
62500W        W34826   1.647  25.602  13.478
62501W        W34827  25.624   8.643   0.984
62502W        W34828   4.923  30.250   4.547
62503W        W34829  23.676  22.189   4.835
62504W        W34830  21.453  44.748  12.041
62505W        W34831  28.385  15.707   2.208
62506W        W34832  27.764  30.657  11.948
62507W        W34833  20.012  39.059   3.599
62508W        W34834  44.603   9.646   9.729
62509W        W34835  21.778   0.711  12.597
62510W        W34836   5.136  23.093   0.507
62511W        W34837  12.746  42.290   0.389
62512W        W34838  36.432  34.513  14.242
62513W        W34839  35.243   2.421  12.478
62514W        W34840  25.496  32.654  10.428
62515W        W34841  25.244  26.816  12.815
62516W        W34842  34.145  13.251  11.024
62517W        W34843   3.017  38.515   4.756
62518W        W34844  40.196  37.087  10.507
62519W        W34845  35.200  19.683  10.783
62520W        W34846   0.050   1.875   1.413
62521W        W34847  30.009   9.645   4.668
62522W        W34848  23.941  41.734  12.060
62523W        W34849  13.822  32.083   0.729
62524W        W34850  37.061  33.582   4.557
62525W        W34851  16.709  42.052   1.853
62526W        W34852   6.796   0.221   0.913
62527W        W34853  26.425  24.538   2.501
62528W        W34854  25.619   7.354  13.308
62529W        W34855  16.999   4.386   0.270
62530W        W34856   3.987  24.517  14.732
62531W        W34857  44.292   1.223   4.221
62532W        W34858  14.221  21.632  10.371
62533W        W34859  42.155  26.414   1.782
62534W        W34860  41.749  20.935  11.260
62535W        W34861   0.165  27.934   4.051
62536W        W34862  44.683  32.539  11.657
62537W        W34863  21.992  30.447   1.332
62538W        W34864  11.671  32.364  10.477
62539W        W34865  42.148   1.695  12.721
62540W        W34866  21.692  28.498   3.155
62541W        W34867  31.370  35.893   4.293
62542W        W34868   0.994  37.953   1.235
62543W        W34869  36.428  41.522  12.541
62544W        W34870  39.022  24.928   3.927
62545W        W34871   5.428  41.364   4.279
62546W        W34872   4.045   4.466  10.237
62547W        W34873  33.128  34.404  11.705
62548W        W34874  43.416  20.172  12.039
62549W        W34875  25.944   7.927   2.761
62550W        W34876  10.727  17.017   0.581
62551W        W34877  44.001  15.852  14.269
62552W        W34878  19.024  28.049  14.398
62553W        W34879   8.742   0.753  12.594
62554W        W34880  30.974  39.449   0.783
62555W        W34881  23.240  29.939  14.851
62556W        W34882  38.470  40.081   3.750
62557W        W34883  20.120  27.229   1.929
62558W        W34884  29.860  15.085  13.898
62559W        W34885   1.015  34.920   2.868
62560W        W34886  30.369  25.078  10.822
62561W        W34887  31.995  15.723   3.145
62562W        W34888  38.766   5.194  14.508
62563W        W34889  13.892  10.081   4.338
62564W        W34890  30.096   4.646   1.391
62565W        W34891  30.742  22.805   3.109
62566W        W34892  39.777  30.419   0.580
62567W        W34893  42.912  24.020   3.582
62568W        W34894  24.986  42.491  10.935
62569W        W34895  14.579   8.472   0.522
62570W        W34896  30.327  11.577   4.641
62571W        W34897   0.778   8.512  10.855
62572W        W34898  27.290   9.465  13.422
62573W        W34899  10.901  18.141   3.333
62574W        W34900  25.248  32.450  10.860
62575W        W34901  29.887  10.420   0.765
62576W        W34902   5.406  38.045   0.986
62577W        W34903  33.113  15.125   1.439
62578W        W34904  25.835  27.043   4.949
62579W        W34905   1.755   4.326   1.679
62580W        W34906   4.758   2.973  12.971
62581W        W34907  27.145  27.698   2.610
62582W        W34908  33.042  22.228  10.621
62583W        W34909  17.003  17.236   2.171
62584W        W34910  42.939  41.337  12.392
62585W        W34911  42.938  15.190   0.773
62586W        W34912  22.749  36.057  14.384
62587W        W34913  24.954   7.230  10.773
62588W        W34914  13.497  35.281  11.829
62589W        W34915   3.264   2.420  12.997
62590W        W34916  20.314  43.066  14.895
62591W        W34917  44.033  23.725  11.095
62592W        W34918  21.625  13.095   0.975
62593W        W34919  29.003  23.411   4.129
62594W        W34920  40.339  15.390   0.857
62595W        W34921  27.042  37.351   0.774
62596W        W34922  14.301  43.599  14.810
62597W        W34923  14.030   0.935  13.931
62598W        W34924  10.967  19.919  14.302
62599W        W34925   8.317  35.754  11.118
62600W        W34926   4.362  15.790   2.679
62601W        W34927   2.140  11.719  10.195
62602W        W34928   5.890  36.363   2.446
62603W        W34929  27.989  22.184  10.791
62604W        W34930  44.205  40.063  10.147
62605W        W34931   3.206  32.235   0.758
62606W        W34932   8.318  34.911   0.913
62607W        W34933  32.447   0.821  13.522
62608W        W34934  35.889  11.379  13.937
62609W        W34935  23.749  15.817   4.082
62610W        W34936  42.857  24.638   4.333
62611W        W34937  39.196   2.920   2.832
62612W        W34938  23.547  20.285  11.181
62613W        W34939  28.742  16.335   0.282
62614W        W34940  35.560   5.711   1.049
62615W        W34941  10.418   8.226   3.264
62616W        W34942  28.993   7.951   4.623
62617W        W34943  28.507  40.871   4.816
62618W        W34944  44.698   5.982   3.102
62619W        W34945   8.765  26.614   4.968
62620W        W34946  19.514  21.431   4.738
62621W        W34947   2.452  20.503   0.322
62622W        W34948  28.086  22.100   4.931
62623W        W34949  27.893   6.252   2.635
62624W        W34950  40.592  26.537   5.141
62625W        W34951  15.688  32.338   4.957
62626W        W34952  38.263  29.859   2.813
62627W        W34953  30.579   4.326  10.425
62628W        W34954   0.845  39.975   1.314
62629W        W34955  12.412  17.308  13.072
62630W        W34956  15.891  25.945  11.053
62631W        W34957  25.528  27.284   0.949
62632W        W34958   0.319  32.119  11.589
62633W        W34959  29.639  26.674  13.011
62634W        W34960  16.112  21.726  11.239
62635W        W34961  29.971  40.382   3.931
62636W        W34962   3.349  19.720   1.181
62637W        W34963   4.986   6.292  12.465
62638W        W34964  24.089  20.657   3.857
62639W        W34965   1.884   4.892   1.434
62640W        W34966  11.756  39.536   1.738
62641W        W34967  23.999  14.763   3.189
62642W        W34968  17.223  30.490   4.548
62643W        W34969  30.403  14.505   3.313
62644W        W34970  33.127  23.599   1.354
62645W        W34971  35.461  42.832   4.317
62646W        W34972  26.513  22.581   4.106
62647W        W34973   8.374  26.457  13.470
62648W        W34974   4.308  28.138   3.767
62649W        W34975  28.959  14.474  14.374
62650W        W34976  37.780   7.396  14.047
62651W        W34977  12.089  33.592  12.902
62652W        W34978  12.048  40.859  14.755
62653W        W34979  42.760  36.438   0.871
62654W        W34980  10.701  37.253   4.938
62655W        W34981  26.468  32.695  10.716
62656W        W34982  36.047  21.140   5.108
62657W        W34983  27.016   4.315   4.867
62658W        W34984  30.871   7.333  11.893
62659W        W34985  26.596  34.807  10.695
62660W        W34986  13.554   0.250  13.294
62661W        W34987  37.650  24.640   1.355
62662W        W34988  27.516  16.736   4.269
62663W        W34989  29.594  19.337   4.574
62664W        W34990  29.315  39.079  13.511
62665W        W34991  42.943   5.234   4.143
62666W        W34992  28.450  26.537  11.129
62667W        W34993  38.076  38.840  12.417
62668W        W34994  36.033  15.101  11.656
62669W        W34995  24.487  43.899  14.328
62670W        W34996  30.004  22.130  12.960
62671W        W34997  28.854   4.473   2.090
62672W        W34998  11.817  44.200   4.247
62673W        W34999  12.075  23.852   3.326
62674W        W35000  11.407  30.053   3.719
62675W        W35001   2.546  33.033  10.892
62676W        W35002  15.665  25.231   4.265
62677W        W35003  34.047  35.922   1.536
62678W        W35004   2.693  32.974  12.117
62679W        W35005  43.748  17.600  13.542
62680W        W35006  17.682  32.515   4.121
62681W        W35007  20.521  35.602  14.373
62682W        W35008  20.272  34.433  14.765
62683W        W35009  36.506   2.420  14.248
62684W        W35010  42.727  33.571  11.959
62685W        W35011   4.664  39.542  13.499
62686W        W35012  18.825   9.136   2.667
62687W        W35013  15.905  31.596  13.385
62688W        W35014  18.954  29.024  10.987
62689W        W35015  35.683  20.197   0.045
62690W        W35016  28.735  44.227  13.813
62691W        W35017  24.448  31.388   3.249
62692W        W35018  11.516  11.123  13.400
62693W        W35019  11.236   2.870   1.084
62694W        W35020   0.314  24.573  10.671
62695W        W35021   3.247  27.235  13.790
62696W        W35022   9.947  41.962   1.798
62697W        W35023   4.333  34.062  13.496
62698W        W35024  38.979   3.610  11.137
62699W        W35025  42.067   6.239   0.352
62700W        W35026   6.248  14.186   4.446
62701W        W35027  31.400   3.764  12.628
62702W        W35028  12.459   2.423  12.091
62703W        W35029  37.773  35.800   3.162
62704W        W35030  18.104  36.992   3.592
62705W        W35031  23.870   7.866  11.105
62706W        W35032  31.966   0.601  13.622
62707W        W35033   5.203   5.822   0.882
62708W        W35034  10.322  31.453  10.403
62709W        W35035  39.516   1.782  12.843
62710W        W35036   8.135  27.696   3.332
62711W        W35037  39.231  22.829  11.517
62712W        W35038  30.043  26.947  12.434
62713W        W35039  24.190  25.478  13.521
62714W        W35040   8.632  24.651  12.765
62715W        W35041   1.483  15.047   4.574
62716W        W35042  39.861  26.970   3.284
62717W        W35043  25.950   3.928  12.187
62718W        W35044  35.483  20.510   0.454
62719W        W35045   4.175  22.706  11.444
62720W        W35046   2.288  41.874   1.816
62721W        W35047   1.968   2.516   5.554
62722W        W35048  26.975  24.994   3.733
62723W        W35049   4.257  15.235  13.699
62724W        W35050  27.125  11.764  10.134
62725W        W35051   5.259  44.843  12.855
62726W        W35052   6.740  30.564  11.148
62727W        W35053   1.163  29.422   4.307
62728W        W35054   7.152  38.403  14.818
62729W        W35055  17.245  25.763   1.423
62730W        W35056  23.846  18.525  10.688
62731W        W35057  30.132  44.763  13.953
62732W        W35058  25.496  29.545  14.621
62733W        W35059   5.650  43.849  11.381
62734W        W35060  22.733  39.700   0.901
62735W        W35061   6.728  30.820  14.450
62736W        W35062  25.117  18.312  10.837
62737W        W35063  43.880  20.935  11.095
62738W        W35064  43.180   0.514   1.022
62739W        W35065  33.234  32.448  11.454
62740W        W35066  39.001  36.470  10.967
62741W        W35067   3.204  28.243   3.781
62742W        W35068  16.228   7.325  14.825
62743W        W35069   5.499  41.862  13.412
62744W        W35070   4.023  43.851  12.051
62745W        W35071  28.585  27.941   3.175
62746W        W35072   4.347   3.283  13.000
62747W        W35073   8.220   7.201  11.793
62748W        W35074  38.036   4.677   4.619
62749W        W35075   2.823  21.035   3.302
62750W        W35076   8.904   3.913  14.023
62751W        W35077  22.789   6.081  13.113
62752W        W35078  28.129  42.478  11.985
62753W        W35079  35.158   3.330  12.482
62754W        W35080  44.613  31.351  10.137
62755W        W35081  33.652  40.606  14.832
62756W        W35082  36.567   2.429  12.003
62757W        W35083  34.012   7.831  12.593
62758W        W35084  34.886  30.026   0.380
62759W        W35085  23.455  35.960   4.331
62760W        W35086  28.224  32.275  10.813
62761W        W35087  26.768  30.428  12.046
62762W        W35088  29.071  11.320  10.544
62763W        W35089  19.002   7.948  14.322
62764W        W35090   5.099  17.316   2.265
62765W        W35091  11.540  16.835  11.558
62766W        W35092   3.258  39.491  11.640
62767W        W35093  12.251  26.367  13.283
62768W        W35094   3.745  21.191   3.763
62769W        W35095  20.192  14.324   1.004
62770W        W35096  28.979  43.586  11.027
62771W        W35097  23.456   1.295   3.617
62772W        W35098  37.073  27.574  10.712
62773W        W35099  44.960  38.349  14.948
62774W        W35100   4.662   2.979   1.918
62775W        W35101   8.600  33.248   1.252
62776W        W35102  44.810  43.312   2.282
62777W        W35103  28.630  30.403   2.189
62778W        W35104  29.954  10.074  10.780
62779W        W35105  30.396  26.495   2.221
62780W        W35106   2.033  43.739   4.116
62781W        W35107  18.073  24.938   2.430
62782W        W35108  16.986   4.302  11.155
62783W        W35109  24.693  38.001  10.727
62784W        W35110  23.043   0.590  11.968
62785W        W35111  13.625  31.877  12.818
62786W        W35112  31.504  44.688   4.381
62787W        W35113  32.501   9.603  14.821
62788W        W35114   5.902  35.917  12.976
62789W        W35115  13.957  33.649  11.962
62790W        W35116  16.077  19.380   1.385
62791W        W35117   0.791  27.934  14.359
62792W        W35118  11.367  43.515   3.709
62793W        W35119  20.649  29.627   4.654
62794W        W35120   6.819  43.457   4.717
62795W        W35121  34.502   0.935   2.905
62796W        W35122  41.553  42.773  11.450
62797W        W35123  17.279   8.191   0.032
62798W        W35124   8.433  38.888   1.313
62799W        W35125  19.111   3.737   3.690
62800W        W35126  32.157   2.319   2.884
62801W        W35127  29.070  12.590  11.611
62802W        W35128  16.628  23.116  13.982
62803W        W35129  26.097  14.097  12.608
62804W        W35130  44.140  27.001   0.867
62805W        W35131  35.990   7.761  13.114
62806W        W35132  14.429  37.930  10.940
62807W        W35133  26.352  27.606   0.939
62808W        W35134   4.760  42.303   4.446
62809W        W35135  42.255   1.318   2.354
62810W        W35136  20.978  23.182  14.798
62811W        W35137   0.975   4.207   5.020
62812W        W35138  27.549   8.153   1.829
62813W        W35139  43.678  43.975   1.170
62814W        W35140  25.021  17.318   3.210
62815W        W35141  40.296  14.214  14.410
62816W        W35142  35.505  31.986  11.562
62817W        W35143  40.471  44.426   1.270
62818W        W35144   9.566  18.948   4.115
62819W        W35145  38.630  38.994   0.042
62820W        W35146  16.810  10.330   1.696
62821W        W35147  11.561  12.643   1.733
62822W        W35148  31.906  33.927   1.904
62823W        W35149  25.585  12.857   3.739
62824W        W35150  31.641  21.038  12.342
62825W        W35151  32.690   1.206  11.222
62826W        W35152   6.949  17.756   2.309
62827W        W35153  14.356  35.005   4.921
62828W        W35154  10.698  13.244  14.508
62829W        W35155  19.033   7.625  13.012
62830W        W35156  33.136  26.465   1.166
62831W        W35157  19.077   7.100  13.028
62832W        W35158  17.618  14.042   2.123
62833W        W35159  33.107   2.815  13.302
62834W        W35160   3.941   0.422  11.576
62835W        W35161  40.867  25.439  14.501
62836W        W35162   4.835  18.674  13.367
62837W        W35163  24.108  39.135  11.124
62838W        W35164   0.967  28.698  10.788
62839W        W35165   4.368  23.783  12.423
62840W        W35166  23.076  40.339   4.103
62841W        W35167  34.590  41.535   4.579
62842W        W35168  29.471  28.686  14.283
62843W        W35169   9.366  33.129   2.144
62844W        W35170  27.740  18.640   1.336
62845W        W35171  32.634  16.109  13.463
62846W        W35172  42.767  21.958   4.215
62847W        W35173   4.298  24.081  14.697
62848W        W35174  21.938  15.107  14.925
62849W        W35175  21.173  26.432  14.004
62850W        W35176   2.240  37.972  11.899
62851W        W35177  31.155  22.180  13.786
62852W        W35178  16.095  14.709   4.521
62853W        W35179   6.311  38.784   1.334
62854W        W35180  29.471  39.510   3.303
62855W        W35181  40.508  30.447   3.696
62856W        W35182  41.361   3.222  12.608
62857W        W35183  36.117  14.708   4.037
62858W        W35184   6.281   6.368   4.418
62859W        W35185  33.184  21.447  13.685
62860W        W35186  32.622  42.860   3.597
62861W        W35187   4.995  14.388   2.752
62862W        W35188   6.150  15.249  12.008
62863W        W35189  16.249  29.417  13.520
62864W        W35190  39.557  38.951   1.443
62865W        W35191   2.857  14.576  10.632
62866W        W35192  29.966  15.194   0.777
62867W        W35193  13.236  19.052   3.575
62868W        W35194  13.951  33.413   1.954
62869W        W35195  17.356  31.365  11.748
62870W        W35196  24.988  27.702   0.338
62871W        W35197  23.693  10.429   3.690
62872W        W35198  37.028  18.419   2.233
62873W        W35199  41.519   6.347  14.511
62874W        W35200  40.900  10.460   2.266
62875W        W35201  12.182  32.302  12.153
62876W        W35202  37.607  16.300  12.532
62877W        W35203   3.919   3.245  13.948
62878W        W35204   0.841  40.718   3.276
62879W        W35205   9.127  23.902   3.894
62880W        W35206  29.210   0.270  13.022
62881W        W35207  42.430  34.944   2.241
62882W        W35208  28.675  19.737   3.325
62883W        W35209  22.936  17.479   1.838
62884W        W35210   3.560  11.887  12.791
62885W        W35211   3.680  29.063  12.910
62886W        W35212  20.000   7.451  12.999
62887W        W35213   7.978  15.173   0.793
62888W        W35214  18.953  38.984   0.515
62889W        W35215  29.205   5.409  11.959
62890W        W35216   1.368  19.688  11.043
62891W        W35217  14.280  13.435   4.232
62892W        W35218  24.444   8.737  13.878
62893W        W35219   8.379   2.793  11.541
62894W        W35220  39.008   5.738  13.411
62895W        W35221   5.878  30.695   4.666
62896W        W35222  37.556  16.287  10.660
62897W        W35223   3.490  18.069  12.621
62898W        W35224  40.532  27.484  14.774
62899W        W35225  39.754  20.965   1.305
62900W        W35226  20.033  33.018   0.775
62901W        W35227  24.996   0.824   3.366
62902W        W35228   2.418   3.687   1.654
62903W        W35229  43.082  33.100   3.572
62904W        W35230  33.582  24.576   1.573
62905W        W35231  42.586  36.931   2.902
62906W        W35232  30.243  38.293   2.237
62907W        W35233  40.570   0.959   2.209
62908W        W35234  19.098  40.719   4.806
62909W        W35235   4.831  31.696  11.274
62910W        W35236  42.922  25.774  10.799
62911W        W35237  11.092  44.413   4.447
62912W        W35238  21.671  13.110   1.885
62913W        W35239  25.839  17.126   1.864
62914W        W35240  11.244  33.763  10.693
62915W        W35241  15.926   8.462   1.337
62916W        W35242  18.298  32.528   2.787
62917W        W35243   2.885   8.809   5.125
62918W        W35244  10.342  28.863   4.230
62919W        W35245  39.002  43.244   1.417
62920W        W35246  23.234  41.085   1.014
62921W        W35247  19.077   1.204   4.245
62922W        W35248  22.767  34.504   2.298
62923W        W35249   0.204  12.171  13.398
62924W        W35250   4.416  17.715   3.006
62925W        W35251   2.363   6.108   0.362
62926W        W35252  11.617   1.158   0.906
62927W        W35253  24.064  34.404  13.595
62928W        W35254  39.883   9.148   0.854
62929W        W35255  34.316  26.133   4.439
62930W        W35256   7.685  26.262   0.811
62931W        W35257  24.057   4.341  13.297
62932W        W35258  15.385  19.102   2.411
62933W        W35259  23.988  29.122  11.352
62934W        W35260  25.460   1.305  11.388
62935W        W35261  31.585  18.147   2.397
62936W        W35262  19.011   6.910   2.269
62937W        W35263  33.890  19.714   3.312
62938W        W35264  33.035  24.941  12.002
62939W        W35265  28.133  30.491  10.693
62940W        W35266  29.810  23.425   3.636
62941W        W35267  20.524  12.629   1.717
62942W        W35268  20.201  24.666  13.512
62943W        W35269  13.228   1.913   0.777
62944W        W35270  19.592  22.602  13.657
62945W        W35271  12.725   4.927  11.638
62946W        W35272  18.590  18.693  14.026
62947W        W35273  15.871  39.323  11.531
62948W        W35274  32.752  32.762  14.839
62949W        W35275  21.835  40.036   5.120
62950W        W35276  22.508  39.096  14.878
62951W        W35277   6.687  42.025  14.381
62952W        W35278   0.452  33.709  13.965
62953W        W35279  24.508   3.924  11.692
62954W        W35280  25.983  13.616  12.378
62955W        W35281   0.550   5.731   2.733
62956W        W35282   1.462  34.879   0.714
62957W        W35283  22.042   5.378  13.857
62958W        W35284  41.892  36.032   5.158
62959W        W35285  33.972   1.066   0.797
62960W        W35286  44.265  20.816  10.456
62961W        W35287  19.608  41.101  11.818
62962W        W35288  41.870  26.229  11.170
62963W        W35289   4.097  31.861   2.349
62964W        W35290  29.850  31.527   0.458
62965W        W35291  11.599  18.919  12.505
62966W        W35292   0.028  36.993  12.935
62967W        W35293  11.028  26.100  13.947
62968W        W35294  36.095  33.913  11.399
62969W        W35295   7.381  28.845   3.671
62970W        W35296  12.699  12.402   2.511
62971W        W35297  31.776   6.253  11.845
62972W        W35298  41.221  17.225  12.076
62973W        W35299  32.304   2.200   3.379
62974W        W35300  20.824  16.808   4.061
62975W        W35301  20.012  29.400   2.507
62976W        W35302  28.666   4.833   3.986
62977W        W35303  39.091   6.182   1.704
62978W        W35304  14.039  21.550  12.346
62979W        W35305  41.266  26.628  12.517
62980W        W35306  41.140  19.761   0.446
62981W        W35307  27.050  32.061   4.062
62982W        W35308   9.310  13.658  10.465
62983W        W35309   0.038   8.620   0.941
62984W        W35310   7.388  23.126  10.779
62985W        W35311  39.463  14.829   2.827
62986W        W35312   1.249   1.985  10.747
62987W        W35313  28.558   6.223   1.836
62988W        W35314   8.112  37.515   4.680
62989W        W35315  21.459  18.565  14.904
62990W        W35316  12.492   2.420  14.940
62991W        W35317  14.699  35.595   2.798
62992W        W35318   5.725  13.691  12.897
62993W        W35319   1.834  25.148  11.376
62994W        W35320   0.969  27.273   3.694
62995W        W35321  10.118  29.340  10.303
62996W        W35322  16.917  32.326  14.989
62997W        W35323  35.968  14.624  13.138
62998W        W35324  21.621  32.582   1.322
62999W        W35325  42.352  33.208  11.614
63000W        W35326  11.079  14.772  14.926
63001W        W35327  31.424  21.173  11.394
63002W        W35328  35.095  21.061  11.919
63003W        W35329  22.465  34.910   2.236
63004W        W35330  22.492  15.848   3.672
63005W        W35331   9.753  15.269   4.112
63006W        W35332  38.853  42.355   4.286
63007W        W35333   7.135  17.986  11.231
63008W        W35334  18.475  44.197  12.882
63009W        W35335  43.943   6.337   3.760
63010W        W35336  41.575  11.457  11.395
63011W        W35337  29.769  41.377   0.531
63012W        W35338  14.257   2.890  14.309
63013W        W35339  19.103  24.151  11.687
63014W        W35340  17.400  42.456   1.910
63015W        W35341   4.947  15.065   2.240
63016W        W35342  11.663  26.479  11.151
63017W        W35343   4.472  16.030  10.137
63018W        W35344  30.965  14.668   4.544
63019W        W35345  44.671  20.430  11.938
63020W        W35346   2.189  14.378   3.624
63021W        W35347  33.059  10.340  14.803
63022W        W35348  30.202  10.219   3.241
63023W        W35349  28.694  23.218   4.587
63024W        W35350  13.409   2.037  10.362
63025W        W35351   8.908   3.966  14.717
63026W        W35352  29.528  22.259  12.182
63027W        W35353  43.384   4.715  12.809
63028W        W35354  38.114  26.557  10.265
63029W        W35355  33.593  42.018   4.472
63030W        W35356  21.657  15.813  10.462
63031W        W35357  44.544  37.747  10.484
63032W        W35358   5.732  37.310   2.283
63033W        W35359  26.683  35.524  14.875
63034W        W35360   2.875  38.443  10.889
63035W        W35361  31.316  19.987  12.495
63036W        W35362  19.290  33.336  12.312
63037W        W35363   4.374   8.125  14.322
63038W        W35364  20.347  15.749  12.488
63039W        W35365  43.852  30.520   1.746
63040W        W35366  11.777  15.702   2.825
63041W        W35367  42.765  12.627   0.783
63042W        W35368  37.486  31.517  14.894
63043W        W35369  10.071  20.814  14.893
63044W        W35370  24.440  30.335   1.876
63045W        W35371   5.832  19.992   4.611
63046W        W35372   3.999   4.370   1.732
63047W        W35373  28.232  32.206  10.302
63048W        W35374   0.309   1.356   0.114
63049W        W35375   9.676   9.965  10.936
63050W        W35376   3.821  36.485   0.972
63051W        W35377  10.084  43.875  14.511
63052W        W35378  32.679   1.983  13.459
63053W        W35379  10.315  14.093  12.464
63054W        W35380  18.640  19.203  13.998
63055W        W35381  23.487  20.743  14.832
63056W        W35382   9.663  15.751  14.570
63057W        W35383  18.125   3.507   0.465
63058W        W35384  39.987   5.216   1.431
63059W        W35385   4.976   7.050   2.683
63060W        W35386  29.899  20.080  11.515
63061W        W35387  34.883   5.515  12.829
63062W        W35388  40.504   1.731   4.764
63063W        W35389  11.863   1.925   3.802
63064W        W35390  11.849  13.772  11.551
63065W        W35391  14.326   5.715  14.146
63066W        W35392  31.345  19.258   0.520
63067W        W35393  31.339  23.177   2.348
63068W        W35394   0.965   6.930  10.700
63069W        W35395  11.322  12.405   4.689
63070W        W35396  12.751  41.247   0.487
63071W        W35397  34.049  41.185   1.876
63072W        W35398  23.749  24.966   1.311
63073W        W35399  37.981  19.150   3.188
63074W        W35400  39.287  32.074   3.721
63075W        W35401  13.483  34.216   0.441
63076W        W35402  17.732  30.187  11.119
63077W        W35403  28.097  14.579   3.324
63078W        W35404  22.258  39.492  11.481
63079W        W35405  20.198  39.430  13.882
63080W        W35406  14.419  17.860  12.518
63081W        W35407   1.047  21.578   2.175
63082W        W35408  43.047  16.807   3.729
63083W        W35409  20.027  35.953   3.121
63084W        W35410  19.607  37.540  10.639
63085W        W35411   9.865   8.322   1.678
63086W        W35412  24.539  44.481  12.884
63087W        W35413  27.627  27.722  13.342
63088W        W35414  44.287   6.495  13.529
63089W        W35415  17.696  17.989  10.997
63090W        W35416  12.021  39.418   1.293
63091W        W35417  34.023  19.803  12.387
63092W        W35418  30.178  34.146  13.505
63093W        W35419  36.913   6.182   2.914
63094W        W35420  17.496   8.379   4.509
63095W        W35421  22.199  24.502  10.627
63096W        W35422  25.904  32.542  11.499
63097W        W35423  20.762  15.406   4.382
63098W        W35424   7.362  30.904   1.350
63099W        W35425  26.113  15.164   2.037
63100W        W35426  17.204  29.513   4.511
63101W        W35427   5.611  36.012   2.179
63102W        W35428  23.013  17.788   1.417
63103W        W35429  23.482  18.997   4.174
63104W        W35430  34.616   7.562   5.091
63105W        W35431  38.468  23.472  12.549
63106W        W35432  19.355  40.610   3.123
63107W        W35433  39.446   8.203  14.441
63108W        W35434  19.870  23.558   3.696
63109W        W35435   4.176   3.531   1.457
63110W        W35436   5.395   6.881  11.462
63111W        W35437  15.658  15.063   0.256
63112W        W35438  29.537  14.668   4.647
63113W        W35439  29.427  35.358   2.745
63114W        W35440  40.527  32.447  13.848
63115W        W35441  32.497  35.825   0.478
63116W        W35442  12.232  40.504  14.375
63117W        W35443  27.882  35.584  11.514
63118W        W35444  42.250   3.577  13.461
63119W        W35445   9.279  13.160   2.004
63120W        W35446  19.392  25.685   4.566
63121W        W35447  36.219  37.794  11.059
63122W        W35448  24.496  44.420  13.410
63123W        W35449  25.005  32.485   2.140
63124W        W35450  34.402  28.934   4.379
63125W        W35451  16.720   1.320  12.030
63126W        W35452  24.037  37.523  14.459
63127W        W35453  34.033  21.257  14.226
63128W        W35454  24.610  19.904   2.712
63129W        W35455  41.111  22.625  11.997
63130W        W35456  23.304  44.358  14.700
63131W        W35457  33.237  37.917  12.153
63132W        W35458  10.789  12.126  12.123
63133W        W35459  44.343  22.007   2.808
63134W        W35460  36.158  12.250   1.116
63135W        W35461  37.023  35.333   1.192
63136W        W35462   2.253  33.947   4.403
63137W        W35463   1.945   0.347   4.212
63138W        W35464  28.616  19.595   1.466
63139W        W35465  26.211  18.170  11.545
63140W        W35466  23.630   2.149  13.870
63141W        W35467  24.789   4.143   2.259
63142W        W35468  38.060  38.860  14.366
63143W        W35469  22.146  22.274  11.428
63144W        W35470  40.110  43.792  13.901
63145W        W35471  21.620  42.808   2.763
63146W        W35472   2.020   2.836  12.145
63147W        W35473  24.701  17.008   2.755
63148W        W35474  28.993  38.588   1.932
63149W        W35475  18.769  10.512   2.787
63150W        W35476  10.174   2.363   2.159
63151W        W35477  34.332  44.445  10.709
63152W        W35478  20.650  35.618   1.341
63153W        W35479  33.067  41.761   4.621
63154W        W35480  10.046  36.603  11.261
63155W        W35481  21.332  31.957  14.949
63156W        W35482  42.407  13.030   2.457
63157W        W35483   9.331  25.580  13.058
63158W        W35484  17.578  38.430   3.279
63159W        W35485  37.064  15.081  10.680
63160W        W35486   4.099  24.315   0.191
63161W        W35487  20.396  30.599   4.269
63162W        W35488  21.469   5.737  11.061
63163W        W35489   0.246  25.517  10.954
63164W        W35490  44.857   9.148  14.469
63165W        W35491  35.459  17.093  13.854
63166W        W35492  30.559  16.196   3.772
63167W        W35493  22.774  32.455   4.630
63168W        W35494  16.681  21.875   2.177
63169W        W35495  19.996  19.933  14.316
63170W        W35496  20.016  33.011  12.255
63171W        W35497  28.925  23.933   4.300
63172W        W35498  31.106  14.992  14.922
63173W        W35499  35.272  27.080   1.514
63174W        W35500   0.307  44.473  14.312
63175W        W35501  10.256  44.845  10.728
63176W        W35502  41.140  20.735   0.287
63177W        W35503   7.104  43.924   2.909
63178W        W35504  35.917   6.126   1.274
63179W        W35505  21.282  37.535   4.083
63180W        W35506   1.602   1.778  12.559
63181W        W35507  44.816  38.224  13.929
63182W        W35508  14.606  35.597  14.716
63183W        W35509   1.739  18.588   3.108
63184W        W35510   7.163  37.390   2.757
63185W        W35511  27.422  43.934  12.046
63186W        W35512   8.706  42.403   0.403
63187W        W35513   1.159  25.944   4.696
63188W        W35514  14.882   4.260  10.652
63189W        W35515  14.796  38.860   4.216
63190W        W35516  25.307  17.558   2.802
63191W        W35517   9.791  40.637   0.294
63192W        W35518   7.484   7.964  12.921
63193W        W35519  41.697  40.951   3.013
63194W        W35520   2.559  41.430   4.591
63195W        W35521   7.611  11.388   3.725
63196W        W35522  37.832   1.917   2.167
63197W        W35523   8.569   7.137   0.100
63198W        W35524  43.056  24.298   1.357
63199W        W35525  33.471  18.195   2.314
63200W        W35526  35.559  34.865   0.339
63201W        W35527  12.556   1.429  12.019
63202W        W35528  27.843  11.064   3.208
63203W        W35529   3.881   4.687  12.869
63204W        W35530  30.443  12.623  12.896
63205W        W35531  40.261   8.122  11.600
63206W        W35532  44.718  19.946   1.963
63207W        W35533  12.377  28.556  11.199
63208W        W35534   4.374  11.090   0.976
63209W        W35535  31.233  27.403   0.811
63210W        W35536  30.207  17.588   3.274
63211W        W35537  13.364  39.032  11.639
63212W        W35538   7.621  38.724  14.007
63213W        W35539  19.762   0.333  14.216
63214W        W35540   5.437   5.303   4.575
63215W        W35541   1.242  41.443   1.209
63216W        W35542  34.175  38.107  12.542
63217W        W35543  37.380  15.737   5.272
63218W        W35544  40.953   8.926   0.422
63219W        W35545  13.537  35.908   1.358
63220W        W35546   2.393   3.986   5.434
63221W        W35547   2.715  21.581   9.841
63222W        W35548  24.370  17.623  12.612
63223W        W35549   5.706   0.021  13.962
63224W        W35550  40.510   2.625  11.174
63225W        W35551  21.779  29.651   3.860
63226W        W35552  27.953  26.972   3.556
63227W        W35553  42.424  22.127   3.213
63228W        W35554  20.979  12.825  11.151
63229W        W35555  37.035   3.634   3.319
63230W        W35556  12.966  26.424   5.027
63231W        W35557  26.731  28.008   1.055
63232W        W35558  20.609  41.447  14.511
63233W        W35559  11.273  11.955  11.573
63234W        W35560  15.825  30.803  14.872
63235W        W35561  37.910  39.276  10.727
63236W        W35562   5.963   3.564  14.996
63237W        W35563  26.715  11.365   0.331
63238W        W35564  24.598  17.591  13.074
63239W        W35565  38.449   0.451   1.881
63240W        W35566   7.882  43.488  13.272
63241W        W35567  11.074   4.179   1.396
63242W        W35568  31.319  18.213  11.533
63243W        W35569  17.432  41.017  12.955
63244W        W35570   3.667  23.163  11.022
63245W        W35571  29.987  16.065   0.051
63246W        W35572  44.825  43.214  13.270
63247W        W35573   0.205  39.566  11.559
63248W        W35574  23.811  14.067   4.994
63249W        W35575  19.572  31.165  10.990
63250W        W35576  19.070  13.415   2.383
63251W        W35577  43.209  19.916  11.420
63252W        W35578  25.186  44.869  12.353
63253W        W35579  18.142  33.151  14.349
63254W        W35580  15.071  28.684   3.237
63255W        W35581  16.766  17.307  11.586
63256W        W35582  40.335  24.994  12.612
63257W        W35583  18.397   1.591  10.146
63258W        W35584   1.253  34.080   0.345
63259W        W35585   9.845  41.957  14.337
63260W        W35586  20.393  26.493  11.676
63261W        W35587  39.287   2.123  14.701
63262W        W35588  11.739  17.420  13.694
63263W        W35589  25.805  36.324   0.067
63264W        W35590  31.802   5.910  14.614
63265W        W35591   6.888  29.036   0.757
63266W        W35592  39.838   5.373  12.313
63267W        W35593  37.069  40.815  10.630
63268W        W35594  31.631  42.557   3.615
63269W        W35595   7.944  41.313   3.570
63270W        W35596  29.884  12.763   0.866
63271W        W35597  24.159  15.596   0.935
63272W        W35598  15.711  21.251   3.595
63273W        W35599  27.061  30.369   1.013
63274W        W35600   1.774  36.622  13.408
63275W        W35601  33.408   3.195  11.989
63276W        W35602  24.786  38.942  13.477
63277W        W35603  37.044  11.461  13.123
63278W        W35604  27.772  35.104   4.545
63279W        W35605  36.612  34.492   0.408
63280W        W35606  32.084   2.730   3.981
63281W        W35607  44.818  22.203  11.508
63282W        W35608  30.465  22.294   0.416
63283W        W35609  16.204   1.686   3.258
63284W        W35610   4.871  31.367   1.915
63285W        W35611  35.264   5.707   1.509
63286W        W35612  20.158  12.101   1.460
63287W        W35613  11.093  25.031  12.380
63288W        W35614  39.332  10.628  14.379
63289W        W35615  36.106  44.411   4.393
63290W        W35616  24.467  15.677   1.742
63291W        W35617  28.401  34.201  11.095
63292W        W35618  32.463  18.321   3.812
63293W        W35619  22.454  35.069   1.737
63294W        W35620  30.140   9.693  13.937
63295W        W35621   8.668   5.413  11.078
63296W        W35622   4.471   1.024  11.288
63297W        W35623  41.398  29.610  13.157
63298W        W35624  21.402  29.414   4.105
63299W        W35625   9.255  10.765   3.351
63300W        W35626  20.026  43.802   1.613
63301W        W35627  20.492  15.013   4.229
63302W        W35628  43.448  10.859   2.362
63303W        W35629   8.602  22.793   2.344
63304W        W35630   6.367   1.749   2.432
63305W        W35631   6.496  11.328  14.396
63306W        W35632  33.054  33.134   1.460
63307W        W35633  20.266  21.574   3.444
63308W        W35634  14.354  40.735   1.492
63309W        W35635  17.060  26.474   3.269
63310W        W35636   7.156  24.238   2.720
63311W        W35637  17.742  10.351  12.458
63312W        W35638  20.740  42.058   3.187
63313W        W35639  11.356   6.090  14.964
63314W        W35640  29.336   4.470   2.327
63315W        W35641  25.687  41.924  10.726
63316W        W35642  16.163   4.844   2.683
63317W        W35643  23.532  29.478  14.786
63318W        W35644  34.836  17.744   0.921
63319W        W35645  15.039  17.082   2.274
63320W        W35646  11.867  32.039   3.687
63321W        W35647  20.502  19.145  10.641
63322W        W35648  23.095   0.098   3.749
63323W        W35649  13.684  21.177  14.345
63324W        W35650  10.654  21.387  13.553
63325W        W35651  19.622  36.412   0.317
63326W        W35652  17.598  16.839   1.404
63327W        W35653  21.799   3.791  11.271
63328W        W35654  42.886  32.580   2.723
63329W        W35655  20.339  25.150  11.681
63330W        W35656  42.177  20.550   1.436
63331W        W35657  13.431  31.488   4.668
63332W        W35658   2.717  15.619  13.813
63333W        W35659  40.366  40.069   3.353
63334W        W35660  42.096  44.758  11.161
63335W        W35661   7.668  16.066  11.527
63336W        W35662  10.110   2.218   3.624
63337W        W35663   5.051  34.452  14.293
63338W        W35664   7.833  24.044   0.348
63339W        W35665  24.096  29.566   1.362
63340W        W35666   4.583   6.102   2.332
63341W        W35667   9.062  35.977  14.893
63342W        W35668  12.218  39.209  12.120
63343W        W35669   9.262  43.383   1.089
63344W        W35670  35.093  35.477   4.671
63345W        W35671  42.703  38.062  13.307
63346W        W35672  23.190  32.096  12.547
63347W        W35673  11.500   7.838  14.188
63348W        W35674  11.245  31.100   1.825
63349W        W35675  11.748  28.670  14.449
63350W        W35676   8.001  20.062   3.582
63351W        W35677  24.542  27.780   4.663
63352W        W35678  42.357  31.464   3.579
63353W        W35679  17.012  37.913  11.425
63354W        W35680  15.651  42.828   4.459
63355W        W35681  29.427  29.815   4.166
63356W        W35682  31.895  14.869  13.047
63357W        W35683  20.800  22.468   0.036
63358W        W35684   1.993  24.203  10.324
63359W        W35685  24.556  13.660  12.379
63360W        W35686   8.595  32.010  10.362
63361W        W35687  40.034  21.319  10.449
63362W        W35688  12.757  14.405   1.741
63363W        W35689  18.977  29.639  11.573
63364W        W35690  12.624  33.205   2.091
63365W        W35691  24.522  37.405   2.557
63366W        W35692  39.602   4.330   1.306
63367W        W35693  14.731  32.315   0.399
63368W        W35694  24.114  13.332  13.908
63369W        W35695  37.039   2.225  12.877
63370W        W35696  39.475  17.859  12.136
63371W        W35697  28.480   3.221  11.977
63372W        W35698  21.315  27.167   4.486
63373W        W35699  33.586  21.667  10.741
63374W        W35700  27.943  36.938  10.102
63375W        W35701  18.675  17.867  12.623
63376W        W35702   3.629   3.386  13.379
63377W        W35703  14.465  28.069  11.815
63378W        W35704  17.026  43.308   0.402
63379W        W35705   4.825  23.657  12.631
63380W        W35706  38.498  44.680  13.463
63381W        W35707  36.952  32.140   1.906
63382W        W35708   0.273  40.653   0.938
63383W        W35709   1.232  25.079  14.514
63384W        W35710  32.239   5.665  14.379
63385W        W35711   0.284  15.198  12.512
63386W        W35712   6.843  13.164   3.560
63387W        W35713  35.520   2.395   4.169
63388W        W35714   1.785   9.907  11.517
63389W        W35715   4.504   2.255  10.968
63390W        W35716  15.268  33.633  11.021
63391W        W35717  25.481  22.225   0.283
63392W        W35718   7.796  29.049  12.110
63393W        W35719  29.916  17.719  14.991
63394W        W35720   3.494  25.484   4.504
63395W        W35721  37.222  40.542   3.384
63396W        W35722  17.217  25.075  13.253
63397W        W35723  17.109   4.238  13.833
63398W        W35724   8.426  39.518  11.974
63399W        W35725  36.591  36.008  12.048
63400W        W35726  38.924  25.582   3.578
63401W        W35727  41.541  18.620   1.883
63402W        W35728  27.778  22.983  14.770
63403W        W35729   4.538  42.869  10.151
63404W        W35730  42.313  15.040  14.089
63405W        W35731  25.160  37.651  14.504
63406W        W35732  15.089  43.951   2.289
63407W        W35733  20.578   0.023   0.317
63408W        W35734  32.642  33.451   3.262
63409W        W35735  27.928  30.227  11.644
63410W        W35736   5.860   3.369   3.781
63411W        W35737   6.902  32.373  12.484
63412W        W35738  34.914  25.160   3.361
63413W        W35739  26.989  29.411   1.379
63414W        W35740  13.728  23.952   2.203
63415W        W35741   7.902  40.490  14.419
63416W        W35742  34.409  23.752  12.071
63417W        W35743  30.160  13.607   0.356
63418W        W35744  10.533   7.335  13.381
63419W        W35745  22.136  12.318  13.993
63420W        W35746  24.653   0.719  10.869
63421W        W35747  43.616  27.810  12.795
63422W        W35748  32.712  43.425   1.784
63423W        W35749  36.502  35.641  14.855
63424W        W35750   2.871  20.280  14.083
63425W        W35751  27.141   4.749   4.623
63426W        W35752   7.053   9.389   3.177
63427W        W35753   4.863  42.318  12.146
63428W        W35754  12.945  12.810  12.573
63429W        W35755  33.306   3.269  11.117
63430W        W35756   3.706  42.586   4.625
63431W        W35757  20.125  31.433  11.677
63432W        W35758  41.065   2.596  11.195
63433W        W35759   9.875   3.390  11.102
63434W        W35760  31.860  23.558  10.985
63435W        W35761   4.499   9.493  12.860
63436W        W35762  40.264  39.639   3.085
63437W        W35763   3.193   9.719   3.133
63438W        W35764  36.446  24.650   2.738
63439W        W35765  30.972   3.751   4.356
63440W        W35766  31.041  21.512   2.802
63441W        W35767  10.328  38.629  10.674
63442W        W35768  37.923  41.969   2.306
63443W        W35769  27.955  14.832  13.817
63444W        W35770  24.357  27.501   4.276
63445W        W35771  22.015  38.458   2.394
63446W        W35772  22.285   3.649  11.139
63447W        W35773   8.146  37.411   3.757
63448W        W35774  44.396  14.583  14.373
63449W        W35775  14.306  38.330   1.409
63450W        W35776   2.722  15.117   0.898
63451W        W35777  41.571   2.728  12.586
63452W        W35778  42.219  28.518  14.311
63453W        W35779  17.058  35.738  12.473
63454W        W35780  18.621  23.588   3.324
63455W        W35781  29.714  10.054  13.945
63456W        W35782  31.902  20.745  11.967
63457W        W35783  28.852   3.712   0.083
63458W        W35784  22.184  21.478   4.531
63459W        W35785  42.302  17.840   0.452
63460W        W35786   1.410   1.014   3.625
63461W        W35787  18.705  42.062  12.522
63462W        W35788  43.291  34.391   0.285
63463W        W35789  37.053  13.564   4.614
63464W        W35790   4.315  22.047   5.481
63465W        W35791  28.364  20.109   1.758
63466W        W35792  24.704   2.210  13.384
63467W        W35793  15.610  24.098  10.988
63468W        W35794  39.019  42.740  12.115
63469W        W35795   8.214   1.919  12.018
63470W        W35796  14.869  27.557   3.918
63471W        W35797  35.153  20.088   2.567
63472W        W35798  21.129  42.737   4.811
63473W        W35799  41.238  43.016  14.342
63474W        W35800  42.602  25.062   4.132
63475W        W35801  36.146  11.122   3.092
63476W        W35802  25.658  26.040   2.975
63477W        W35803  12.652   2.871  14.737
63478W        W35804  11.896  24.908   3.544
63479W        W35805  12.679  43.378  10.696
63480W        W35806  10.822  16.646   2.706
63481W        W35807  29.661  20.079  10.914
63482W        W35808  43.984  18.050   2.831
63483W        W35809  22.537  29.095  11.105
63484W        W35810  33.962  15.684  11.782
63485W        W35811   1.869  28.984  14.618
63486W        W35812  18.046  39.361  11.087
63487W        W35813  40.985  17.272   2.669
63488W        W35814   8.454  40.039  12.562
63489W        W35815  43.008  15.168  12.795
63490W        W35816  44.722  12.218   2.870
63491W        W35817   3.306  38.291   1.552
63492W        W35818  20.209  24.621   1.023
63493W        W35819  10.794   5.719   3.233
63494W        W35820  41.201  37.914   2.123
63495W        W35821  35.893  14.532   2.634
63496W        W35822  16.216   2.105  12.939
63497W        W35823  31.797  31.987  11.052
63498W        W35824  15.383  43.030   0.044
63499W        W35825  37.333  22.814  11.728
63500W        W35826  38.389  10.133   3.806
63501W        W35827   4.664  44.034   2.221
63502W        W35828  10.802   9.367   4.408
63503W        W35829   6.130  27.465  13.478
63504W        W35830  24.610  38.868  11.690
63505W        W35831  16.606  14.101   2.821
63506W        W35832   6.649  42.840  13.970
63507W        W35833  31.815  28.952  11.407
63508W        W35834  31.173  41.090   1.394
63509W        W35835  15.368  12.632   4.894
63510W        W35836  44.106  31.465   2.186
63511W        W35837  30.148  23.703   1.901
63512W        W35838  17.236   3.501   4.297
63513W        W35839  28.912  24.608   0.419
63514W        W35840  43.906  36.931  13.960
63515W        W35841  32.543  18.305  12.974
63516W        W35842   7.265  14.404  14.362
63517W        W35843   9.140  27.239  12.033
63518W        W35844  28.577  40.517   3.593
63519W        W35845  30.950  37.928  11.192
63520W        W35846  13.591  14.788   2.210
63521W        W35847  37.758  26.054  12.394
63522W        W35848   0.017   2.040   4.855
63523W        W35849   3.879  30.769   4.578
63524W        W35850   9.451   5.008   0.427
63525W        W35851   9.632  42.381  12.951
63526W        W35852  13.876   4.432   2.703
63527W        W35853  40.782  30.235   3.280
63528W        W35854  29.882  16.182   2.721
63529W        W35855   3.842  20.699   3.650
63530W        W35856  40.983  31.437  12.470
63531W        W35857  16.459   0.420   4.056
63532W        W35858  13.531   5.674   1.338
63533W        W35859   8.457  16.180  12.078
63534W        W35860  25.516  42.848  11.953
63535W        W35861   1.799  44.948  13.081
63536W        W35862   1.072  24.587   4.543
63537W        W35863   0.402   3.801   0.776
63538W        W35864   7.271  12.920   2.199
63539W        W35865  39.479  11.841   0.885
63540W        W35866  26.493  26.228  14.324
63541W        W35867  14.719  37.927   3.197
63542W        W35868   0.334  12.299  12.919
63543W        W35869  16.509  32.093  14.761
63544W        W35870   3.360  14.725   2.489
63545W        W35871  27.982  41.091   3.692
63546W        W35872  36.050  19.850   0.251
63547W        W35873  24.187  17.605  14.778
63548W        W35874  18.188  24.394   1.106
63549W        W35875  40.460   6.727   0.096
63550W        W35876  43.819   3.915   1.274
63551W        W35877  18.270  14.704  10.723
63552W        W35878  25.736  44.237  12.250
63553W        W35879   3.436  15.599  11.623
63554W        W35880  15.766  36.789  13.554
63555W        W35881  20.045  11.746   1.035
63556W        W35882   0.562  40.975  11.978
63557W        W35883  27.093  41.272   1.966
63558W        W35884  41.966   0.965   3.443
63559W        W35885   2.640   5.238   1.354
63560W        W35886  11.753  27.981  13.686
63561W        W35887  35.023  16.315  12.450
63562W        W35888  40.146  35.631  12.051
63563W        W35889  19.590  17.715  13.241
63564W        W35890  35.288  32.062   4.113
63565W        W35891  42.762  35.155  12.502
63566W        W35892  15.514  27.024   5.022
63567W        W35893  15.846  30.987  12.728
63568W        W35894   4.394  29.871   0.913
63569W        W35895  28.206  21.747   4.566
63570W        W35896  25.645  39.083   2.686
63571W        W35897  14.284  25.443  14.254
63572W        W35898  34.690   4.883   1.501
63573W        W35899  22.048  43.584  12.397
63574W        W35900  44.012   2.851   3.393
63575W        W35901   3.170  32.901   3.504
63576W        W35902  17.082   2.934  13.387
63577W        W35903  26.612  29.034  10.648
63578W        W35904  36.270  25.069   3.718
63579W        W35905  11.167  34.845  13.434
63580W        W35906  10.162   8.691   3.355
63581W        W35907  35.377  22.879  13.694
63582W        W35908  30.033   9.113   2.481
63583W        W35909  17.642  10.729   0.929
63584W        W35910  35.600  29.042   3.612
63585W        W35911  24.206   4.065   1.615
63586W        W35912   2.640  41.449   3.274
63587W        W35913  30.398  15.693   1.392
63588W        W35914  20.778  24.174  11.228
63589W        W35915  40.369  20.990  10.676
63590W        W35916  29.055  32.666  11.182
63591W        W35917  19.053   7.406  14.371
63592W        W35918  23.542  16.431   2.759
63593W        W35919  44.753  39.050  13.446
63594W        W35920  13.862  33.806  10.992
63595W        W35921  38.588  35.819  12.014
63596W        W35922   0.944  33.676   3.205
63597W        W35923   2.891   0.726  13.157
63598W        W35924  15.842   7.491  13.831
63599W        W35925  33.050  39.547   4.540
63600W        W35926   7.405  14.648  10.436
63601W        W35927   1.695  26.231   1.490
63602W        W35928  34.063  36.881  13.103
63603W        W35929   3.263  42.285   3.788
63604W        W35930  19.193  35.459  10.693
63605W        W35931   4.102  32.146  11.565
63606W        W35932  13.593  41.358  13.974
63607W        W35933  18.639  11.367  14.327
63608W        W35934  44.567  11.834  11.471
63609W        W35935  35.408  33.699  10.302
63610W        W35936  28.487  26.190  14.744
63611W        W35937  16.326  32.964   3.409
63612W        W35938  35.311  39.720   1.036
63613W        W35939   4.175  22.274   1.436
63614W        W35940  36.698  41.511  11.666
63615W        W35941   9.710  12.551  12.549
63616W        W35942  43.437  24.425  11.082
63617W        W35943  28.058  28.258   9.821
63618W        W35944  40.953  21.599  14.727
63619W        W35945  36.865  35.128   4.817
63620W        W35946  16.670  27.613  12.478
63621W        W35947   0.289  39.642   1.039
63622W        W35948  12.730  17.961  14.567
63623W        W35949  37.873  24.689  11.686
63624W        W35950  41.558  25.027   0.654
63625W        W35951  15.634  13.516   1.690
63626W        W35952  25.932  41.245   1.397
63627W        W35953  22.912  37.429   0.872
63628W        W35954  14.865  20.725  11.015
63629W        W35955  18.849  19.599   4.517
63630W        W35956  31.496  21.528  13.277
63631W        W35957  38.987   7.425   4.058
63632W        W35958  35.885  26.713  11.638
63633W        W35959  37.303  13.571   0.013
63634W        W35960  31.983  29.901  12.006
63635W        W35961   7.617   8.297  12.001
63636W        W35962  22.915  39.287  14.518
63637W        W35963  10.156  33.141  11.083
63638W        W35964   8.489  21.402  13.843
63639W        W35965  11.421  33.219   3.794
63640W        W35966  31.955   7.669   2.754
63641W        W35967  19.596  13.130  12.905
63642W        W35968  17.544  42.869   5.073
63643W        W35969  18.673   7.719   1.132
63644W        W35970   4.611  37.421   3.594
63645W        W35971  29.892   1.463  11.621
63646W        W35972   4.105   4.511   0.832
63647W        W35973   2.269  22.656  14.914
63648W        W35974  39.124  29.264   1.371
63649W        W35975   5.871   9.848   2.309
63650W        W35976  28.968   6.423   1.036
63651W        W35977  21.050  13.338   4.669
63652W        W35978  17.699  17.740  14.039
63653W        W35979  17.179  31.848  14.942
63654W        W35980  34.595   2.221  11.212
63655W        W35981  20.664  33.095   3.657
63656W        W35982  23.679  27.512  13.824
63657W        W35983  15.678  24.467   1.685
63658W        W35984  36.471  37.894  13.446
63659W        W35985  22.284   5.447  11.189
63660W        W35986  23.529  21.936  12.410
63661W        W35987  43.033  12.318  11.497
63662W        W35988   7.829  11.134   4.130
63663W        W35989   5.927  40.240  12.393
63664W        W35990  16.784   3.721   2.608
63665W        W35991  30.311  27.279  10.701
63666W        W35992  34.599  43.105   1.588
63667W        W35993  12.142  36.420   3.796
63668W        W35994  25.040  32.690   4.084
63669W        W35995  41.927  36.768   3.568
63670W        W35996  30.066  26.937   2.451
63671W        W35997   3.648  35.881  13.094
63672W        W35998  28.902  35.144  13.938
63673W        W35999   3.041  10.965   4.939
63674W        W36000  24.589   8.957   3.903
63675W        W36001   4.292  29.717  13.802
63676W        W36002  11.247   3.474   1.902
63677W        W36003   3.998   9.703  12.930
63678W        W36004  32.552  35.955   1.568
63679W        W36005  34.420  39.566   3.193
63680W        W36006   7.179  35.356  11.075
63681W        W36007   9.951  23.276   0.866
63682W        W36008   3.082  42.115   3.345
63683W        W36009  37.379  39.417  11.490
63684W        W36010  36.938  33.927  11.597
63685W        W36011  15.644   8.402   3.832
63686W        W36012  15.245  13.655   5.032
63687W        W36013   3.934   3.001   0.348
63688W        W36014  31.074  15.456  14.712
63689W        W36015  41.991  37.429  10.323
63690W        W36016  36.929   0.704  10.958
63691W        W36017   6.054  22.521  14.741
63692W        W36018   3.885  35.386  12.489
63693W        W36019   7.496  24.732   3.567
63694W        W36020  35.061  39.524   2.894
63695W        W36021  22.078  36.908   0.313
63696W        W36022  30.904   0.435   1.805
63697W        W36023  24.075  41.654   4.631
63698W        W36024  22.764  10.837  13.819
63699W        W36025  32.876  10.866   0.942
63700W        W36026  39.404  29.435   3.288
63701W        W36027  11.808   8.385  13.540
63702W        W36028  25.027  29.527   3.736
63703W        W36029  41.052  29.985   4.179
63704W        W36030   5.399  27.395   3.767
63705W        W36031  37.887  11.279  11.406
63706W        W36032  28.168  18.335  13.374
63707W        W36033   4.243  25.597   2.856
63708W        W36034  35.317  39.737  11.995
63709W        W36035  23.084   1.062  12.135
63710W        W36036   5.871  21.986   0.408
63711W        W36037  34.719   3.903   3.517
63712W        W36038  12.641  22.319  10.795
63713W        W36039  23.557  35.813  13.963
63714W        W36040   5.722  17.637   0.546
63715W        W36041  39.314  22.302   2.751
63716W        W36042  18.369  44.626  12.364
63717W        W36043   3.650  34.316   0.411
63718W        W36044   7.361  32.950  14.764
63719W        W36045   7.933   8.126   0.474
63720W        W36046   2.890   1.372  11.149
63721W        W36047   0.603  35.115   0.487
63722W        W36048   6.704  19.829  12.314
63723W        W36049   5.655  43.491  12.700
63724W        W36050   6.763  40.755  13.859
63725W        W36051   4.088   2.300   0.952
63726W        W36052  15.301  31.110   0.300
63727W        W36053  27.174  13.165  11.630
63728W        W36054  29.964   0.271  11.135
63729W        W36055  32.844   7.217   3.407
63730W        W36056   8.297   0.977  10.474
63731W        W36057  11.594   8.122  14.996
63732W        W36058   8.780  26.622   3.407
63733W        W36059  44.371  43.299   1.970
63734W        W36060  22.681   4.253  14.181
63735W        W36061   4.201  31.235   0.797
63736W        W36062  39.093  39.937   0.847
63737W        W36063  13.718  27.716   2.830
63738W        W36064  33.683  11.610   4.500
63739W        W36065  19.717  22.702   1.424
63740W        W36066  33.368  41.334   4.595
63741W        W36067  33.625  17.202  13.061
63742W        W36068   2.746  43.016  12.170
63743W        W36069   6.149  17.938   3.646
63744W        W36070   2.338  13.711  10.859
63745W        W36071  24.055  37.354  12.865
63746W        W36072  10.588  43.487  14.343
63747W        W36073  13.082  15.766  10.103
63748W        W36074   8.966   5.628   0.416
63749W        W36075  23.117  17.659   3.652
63750W        W36076  42.149  39.575  12.918
63751W        W36077  29.935  37.401  10.503
63752W        W36078  31.627  21.736   4.574
63753W        W36079  23.143  38.153   2.861
63754W        W36080   3.856  40.003  14.701
63755W        W36081   2.257  24.656  10.809
63756W        W36082  25.563  38.732  11.478
63757W        W36083  43.650  14.955   2.261
63758W        W36084  25.291   5.690   1.398
63759W        W36085  17.237  10.664   1.262
63760W        W36086  37.575   8.927   4.629
63761W        W36087  21.044   0.534  13.885
63762W        W36088   6.757  29.560   2.721
63763W        W36089  10.267  21.005   2.713
63764W        W36090  35.965   7.247   2.260
63765W        W36091  25.407  35.660   2.859
63766W        W36092  31.194   9.287  11.975
63767W        W36093  36.973  27.056  13.000
63768W        W36094   3.304  18.032   1.873
63769W        W36095  15.700  41.763   4.819
63770W        W36096  13.302  18.054   3.215
63771W        W36097  27.971  40.027   4.779
63772W        W36098  21.012   8.670   1.832
63773W        W36099  32.060  34.858   2.325
63774W        W36100  18.606   0.534   0.751
63775W        W36101  34.524  33.055  12.534
63776W        W36102  25.822  23.199  14.417
63777W        W36103  43.709  41.495   0.136
63778W        W36104  12.496  11.276   1.773
63779W        W36105  39.835  23.644  13.891
63780W        W36106   5.822  11.393  12.814
63781W        W36107  43.779  28.383  12.835
63782W        W36108  26.315   3.647   2.807
63783W        W36109  27.136  20.755   2.458
63784W        W36110  21.662  14.301  13.522
63785W        W36111  17.090  44.831   3.193
63786W        W36112  14.734  21.749  14.956
63787W        W36113  25.065  38.555  14.498
63788W        W36114   2.954  12.869   3.194
63789W        W36115  43.253  41.934  11.209
63790W        W36116  32.430  21.035  13.412
63791W        W36117   9.665   3.654   4.487
63792W        W36118  25.195   1.536  13.027
63793W        W36119  18.941  44.466   2.291
63794W        W36120  39.478  14.921   4.526
63795W        W36121  24.028  29.643   0.497
63796W        W36122  25.720  22.530  13.051
63797W        W36123  40.360  24.247  12.118
63798W        W36124  26.823  11.626   1.096
63799W        W36125   1.844  12.660  14.290
63800W        W36126  32.354  39.975   4.366
63801W        W36127  42.099   3.001  10.560
63802W        W36128   7.266  42.843   4.375
63803W        W36129  11.258   8.719   1.909
63804W        W36130  24.287  27.496  11.648
63805W        W36131   4.694   8.906   4.134
63806W        W36132  26.204  38.431  14.278
63807W        W36133  34.825  41.283   1.906
63808W        W36134   2.350  30.186   0.317
63809W        W36135  41.339  43.271  12.871
63810W        W36136   1.663   8.098   1.722
63811W        W36137  31.986  38.421   3.159
63812W        W36138  43.746  10.535  13.074
63813W        W36139   4.954  29.020   1.887
63814W        W36140  22.260   4.041  11.471
63815W        W36141   7.641  24.170  14.304
63816W        W36142  31.426  20.023   1.614
63817W        W36143  10.151  22.946   3.754
63818W        W36144   4.603  39.461  12.428
63819W        W36145  31.477   3.563   2.511
63820W        W36146  10.077   6.314  12.091
63821W        W36147  38.415   8.655   2.748
63822W        W36148  10.507  13.639  11.407
63823W        W36149  10.669  44.845   4.522
63824W        W36150  32.964   0.833   1.032
63825W        W36151  32.839  38.785   2.924
63826W        W36152   2.233  15.768  14.910
63827W        W36153  24.569  23.997  11.823
63828W        W36154  11.697  10.216  13.071
63829W        W36155  30.261   0.834   4.537
63830W        W36156  17.577  44.789   4.666
63831W        W36157  36.013  25.538  12.098
63832W        W36158  28.231  18.084  14.775
63833W        W36159  40.195  16.672   4.225
63834W        W36160  27.968   9.054   0.157
63835W        W36161  16.087   8.584   2.267
63836W        W36162   7.735  21.693   1.982
63837W        W36163  18.320  41.525  10.873
63838W        W36164  20.678   4.945  12.908
63839W        W36165   8.245   8.688   4.144
63840W        W36166  19.357  11.182  13.537
63841W        W36167  33.867  40.829   4.739
63842W        W36168  18.692  31.000  14.336
63843W        W36169  41.965  23.638  12.982
63844W        W36170  28.899  22.616   2.784
63845W        W36171   4.258  22.718   0.159
63846W        W36172  26.933   9.829  13.521
63847W        W36173  15.260  39.769  10.630
63848W        W36174  29.954  11.899   3.750
63849W        W36175  40.985  36.290  11.160
63850W        W36176  13.441   0.413   0.018
63851W        W36177   8.363  37.984   1.669
63852W        W36178   1.931  23.048   0.047
63853W        W36179  12.281  34.654   1.823
63854W        W36180  39.842  39.382   3.274
63855W        W36181  40.764  39.970   2.237
63856W        W36182  17.272  37.328   0.202
63857W        W36183  21.629  25.081  12.487
63858W        W36184   4.005   6.871   2.793
63859W        W36185   9.036  30.509  12.548
63860W        W36186  43.842  42.495   5.024
63861W        W36187  14.656  33.340  10.698
63862W        W36188  39.944  40.074   1.768
63863W        W36189  17.639  17.112   0.916
63864W        W36190  24.652   6.087  10.704
63865W        W36191  40.821  21.087   3.279
63866W        W36192   6.306  43.843   4.089
63867W        W36193   6.114  13.622   3.535
63868W        W36194  32.355  17.574  10.530
63869W        W36195   0.081  32.625  11.968
63870W        W36196  24.029  11.804   0.551
63871W        W36197  30.407   1.570   2.756
63872W        W36198  23.409  24.961   2.197
63873W        W36199  31.959   9.175   2.306
63874W        W36200  16.524  11.653  14.299
63875W        W36201  40.491  35.542   2.690
63876W        W36202  38.828  12.346   1.238
63877W        W36203  42.398  29.003   0.509
63878W        W36204  21.608  32.459   3.192
63879W        W36205  40.821   3.498   0.097
63880W        W36206  26.521  10.307   4.152
63881W        W36207  25.509   5.668  11.144
63882W        W36208   9.506  30.940   3.087
63883W        W36209  39.019   9.255  11.926
63884W        W36210  14.815  17.569  13.445
63885W        W36211  44.907  17.082   1.703
63886W        W36212  35.126   5.728   3.628
63887W        W36213   1.699  24.051   2.245
63888W        W36214  32.556   2.421   0.390
63889W        W36215  29.022  42.058   0.347
63890W        W36216   1.407  39.444   3.743
63891W        W36217   5.813  21.861   0.938
63892W        W36218   8.323  29.892   2.146
63893W        W36219  32.587   5.408   4.579
63894W        W36220  18.563  20.444   4.245
63895W        W36221  31.063   7.797  13.103
63896W        W36222  44.735  41.496   4.116
63897W        W36223  35.535  20.291  14.119
63898W        W36224   3.534   5.087   3.753
63899W        W36225   6.326  27.392   0.827
63900W        W36226  10.344  44.962  13.205
63901W        W36227  13.611   1.260  12.914
63902W        W36228  30.339   8.216  12.027
63903W        W36229  25.105  27.966  11.541
63904W        W36230  24.580   5.358   4.920
63905W        W36231   3.721  42.315  13.794
63906W        W36232  32.710  10.130   3.161
63907W        W36233  13.827  20.396  12.114
63908W        W36234   4.657  38.388   3.911
63909W        W36235  31.469   1.443  11.543
63910W        W36236  37.935   2.239  12.598
63911W        W36237  28.505  31.496   1.994
63912W        W36238   5.293  38.217  12.022
63913W        W36239  42.075  20.589   1.938
63914W        W36240   6.599  36.436  14.845
63915W        W36241  33.338  34.775   2.252
63916W        W36242   6.663  25.238  14.026
63917W        W36243  31.427  42.059   2.754
63918W        W36244   1.628  32.064   1.911
63919W        W36245  17.615  14.513  14.424
63920W        W36246   4.749  35.344   0.774
63921W        W36247   4.197  44.965  11.603
63922W        W36248   2.870  13.966  12.473
63923W        W36249  44.941  33.541  14.397
63924W        W36250  12.631   5.243   3.398
63925W        W36251  22.972  22.591   4.087
63926W        W36252  38.293   4.702   1.363
63927W        W36253  14.845   9.966   1.365
63928W        W36254  15.826  28.429  14.938
63929W        W36255   4.416   5.345  14.367
63930W        W36256  18.269  19.644   3.407
63931W        W36257  18.777  32.686  12.098
63932W        W36258  34.218  32.549  10.515
63933W        W36259  38.930  40.605   4.984
63934W        W36260  41.925   2.746  13.399
63935W        W36261   0.429   0.307   0.787
63936W        W36262   5.899  27.572   2.431
63937W        W36263  44.849   1.279  11.125
63938W        W36264  43.884  16.429  11.900
63939W        W36265  26.729  24.616   1.929
63940W        W36266  19.116  31.417   2.792
63941W        W36267  42.569   3.285  14.710
63942W        W36268  28.477  40.391  10.643
63943W        W36269   3.310  32.141  13.524
63944W        W36270  22.288  14.643  10.987
63945W        W36271  36.808  14.605  11.054
63946W        W36272  43.674   1.685  10.828
63947W        W36273   4.678  13.712   3.173
63948W        W36274   8.659  40.592   4.331
63949W        W36275   2.117  44.808  11.552
63950W        W36276  23.691  29.586   3.609
63951W        W36277  14.307  12.945  12.703
63952W        W36278   1.938  30.185  14.612
63953W        W36279  36.259  11.804  11.967
63954W        W36280  29.844  33.753   2.820
63955W        W36281  10.656  19.163   1.685
63956W        W36282  22.670  21.111  14.948
63957W        W36283   6.376  18.693   0.848
63958W        W36284   1.355  30.095  11.614
63959W        W36285  15.730  16.628   3.983
63960W        W36286  43.903  38.611  13.477
63961W        W36287   8.154  32.637   0.871
63962W        W36288  13.156  35.633   0.379
63963W        W36289   8.365  37.337  13.062
63964W        W36290  31.415  36.016   2.086
63965W        W36291   4.799  14.598  13.441
63966W        W36292  16.151  35.049   2.867
63967W        W36293  13.630  28.655   0.244
63968W        W36294  26.125  21.530  13.034
63969W        W36295  42.301  18.852   0.394
63970W        W36296  32.466  36.338   3.914
63971W        W36297  29.945  21.967  12.171
63972W        W36298  25.404  26.094  13.587
63973W        W36299  44.900  29.505  12.879
63974W        W36300  26.849  21.087  13.504
63975W        W36301  23.147  13.237  13.256
63976W        W36302  35.413  18.151  12.971
63977W        W36303   4.412  20.279   1.235
63978W        W36304  14.593  27.672  14.698
63979W        W36305  24.211   7.206   4.550
63980W        W36306  32.368  19.638   4.182
63981W        W36307  15.232  18.286  13.900
63982W        W36308  24.879  30.872  14.057
63983W        W36309  17.613  21.738  11.512
63984W        W36310  44.086  42.923   0.013
63985W        W36311   6.408  41.298  14.300
63986W        W36312  25.988  33.887   0.466
63987W        W36313  35.414   1.474  14.072
63988W        W36314  14.994   2.723   1.414
63989W        W36315  29.368   6.277   0.724
63990W        W36316  13.113  23.174   1.045
63991W        W36317  12.659  11.201   3.785
63992W        W36318   8.444   8.940  14.261
63993W        W36319  33.150  23.035  14.320
63994W        W36320  33.297   0.288  12.571
63995W        W36321  14.528  42.267   3.621
63996W        W36322  25.438  39.031  13.773
63997W        W36323  22.111   2.980  13.717
63998W        W36324   7.916  22.981   2.707
63999W        W36325  26.261   4.909  12.152
64000W        W36326  32.618  26.152   0.361
64001W        W36327  42.780  11.001   3.661
64002W        W36328   5.063   2.764   4.007
64003W        W36329  42.395   4.588   4.286
64004W        W36330  28.664  28.084   5.437
64005W        W36331  27.111   6.709  10.920
64006W        W36332   0.955  18.693   2.431
64007W        W36333  42.641  39.496   1.474
64008W        W36334  25.109  33.519  13.866
64009W        W36335  22.635   9.874  13.314
64010W        W36336   1.807  15.357  14.062
64011W        W36337   8.802   2.073   4.092
64012W        W36338  36.162  40.501   2.619
64013W        W36339   2.836  24.079   3.210
64014W        W36340  41.538   3.969  14.030
64015W        W36341  33.597  42.842   1.595
64016W        W36342   2.435   3.339  14.132
64017W        W36343   0.371  41.030   2.243
64018W        W36344  29.760  36.585  14.908
64019W        W36345  27.086  39.191   3.773
64020W        W36346  13.835  19.359   4.889
64021W        W36347  16.762   1.183   2.340
64022W        W36348  29.077  16.991  11.976
64023W        W36349  28.576  42.081   4.612
64024W        W36350   5.802  10.628  13.361
64025W        W36351  43.749  35.425  14.690
64026W        W36352  27.518  26.117   1.921
64027W        W36353  32.493  29.137  11.151
64028W        W36354  35.007  38.121  13.045
64029W        W36355   7.290  42.433  12.911
64030W        W36356  15.127  42.978   2.878
64031W        W36357  20.483   9.257   2.793
64032W        W36358  17.137  31.614   1.241
64033W        W36359   5.780  26.444  14.987
64034W        W36360  16.870  20.007   3.662
64035W        W36361   2.785  41.907   1.828
64036W        W36362   2.391  35.622   4.658
64037W        W36363  31.886  29.261   2.297
64038W        W36364  26.980   3.707  11.535
64039W        W36365  20.552  39.609  13.033
64040W        W36366  22.732  13.576   0.312
64041W        W36367   4.933  40.781   1.284
64042W        W36368  44.576  18.258  11.584
64043W        W36369  16.152  18.151   2.669
64044W        W36370  39.042  10.935  10.656
64045W        W36371  26.849  15.573  11.007
64046W        W36372   9.822  41.256   3.782
64047W        W36373  19.258  34.565  10.359
64048W        W36374  36.287  30.617  11.128
64049W        W36375  26.145   9.351  10.513
64050W        W36376  25.007  28.543   3.609
64051W        W36377  41.765  43.884  12.054
64052W        W36378  13.910   5.442  12.983
64053W        W36379   2.891   7.356   3.255
64054W        W36380  44.583  31.901  11.128
64055W        W36381  19.810  36.976  13.018
64056W        W36382  33.523   8.444   5.000
64057W        W36383  33.228  41.244  11.134
64058W        W36384  11.719  34.524   9.705
64059W        W36385  34.983  14.116  14.270
64060W        W36386  18.541  21.590   0.217
64061W        W36387  23.653  36.063   3.427
64062W        W36388   8.250  16.194   3.367
64063W        W36389   5.783   1.443   1.859
64064W        W36390  34.793  44.780  13.964
64065W        W36391  18.194  23.441  13.036
64066W        W36392  42.341  43.337  11.644
64067W        W36393  21.868  21.548   1.368
64068W        W36394  28.121  13.470   0.888
64069W        W36395  36.172   6.361  13.279
64070W        W36396  10.942  27.037  13.704
64071W        W36397  39.365  41.658   0.210
64072W        W36398   1.953  30.247   1.770
64073W        W36399  28.072  26.882  13.194
64074W        W36400  15.189  20.765   0.312
64075W        W36401  30.032  16.993   2.086
64076W        W36402  23.296  13.758   4.495
64077W        W36403  30.657   3.430   2.866
64078W        W36404  36.055  13.822   4.322
64079W        W36405  26.333  32.025   0.581
64080W        W36406  41.241  42.790   3.402
64081W        W36407  10.724   9.479   0.445
64082W        W36408  43.780   7.725   0.321
64083W        W36409  15.315  35.408  12.516
64084W        W36410  24.579  34.660   2.714
64085W        W36411  38.489  42.398   2.826
64086W        W36412  25.281  32.297   3.821
64087W        W36413   9.719  29.943   0.354
64088W        W36414   9.213   3.386  10.404
64089W        W36415  33.127   2.380  13.753
64090W        W36416  26.844   5.198   4.912
64091W        W36417   6.260  44.502   4.782
64092W        W36418  42.153  43.204  10.757
64093W        W36419  33.522  37.633  14.141
64094W        W36420  43.692  20.367  12.810
64095W        W36421  14.760  23.990   1.866
64096W        W36422  28.184   8.973  11.945
64097W        W36423  21.995  42.822  10.290
64098W        W36424  38.985  15.375   0.707
64099W        W36425  44.000  22.942  13.016
64100W        W36426  44.405   3.365  13.347
64101W        W36427  30.922  10.067  14.877
64102W        W36428  14.491  23.553   4.882
64103W        W36429  26.780  41.902  12.891
64104W        W36430  14.193  26.329   0.763
64105W        W36431   2.802  33.261   0.075
64106W        W36432   4.797  19.174   0.948
64107W        W36433  12.652  31.443  12.034
64108W        W36434  31.068  44.550   1.473
64109W        W36435  17.475  17.670   0.349
64110W        W36436   5.270  24.424  12.919
64111W        W36437   6.135  19.792   2.830
64112W        W36438  26.482  28.972   3.561
64113W        W36439  24.511  33.939   1.422
64114W        W36440  39.979  18.517   1.518
64115W        W36441  21.554   1.466  13.003
64116W        W36442   0.298  37.383   4.659
64117W        W36443  36.842  13.274   3.241
64118W        W36444  23.157   7.813   3.362
64119W        W36445  38.003  44.248  14.817
64120W        W36446  39.305  19.011  14.179
64121W        W36447   5.778  28.704  11.013
64122W        W36448  19.507  40.747   2.298
64123W        W36449  11.363  26.494   0.250
64124W        W36450  35.029   4.816  13.746
64125W        W36451  20.237  13.009  14.793
64126W        W36452   2.998   3.684  11.631
64127W        W36453   9.438  32.159  13.342
64128W        W36454  19.041   8.565  14.853
64129W        W36455  32.961  12.818   2.909
64130W        W36456  29.381  44.586   4.680
64131W        W36457  20.447  12.359  14.898
64132W        W36458  11.193   0.475   2.183
64133W        W36459  44.739   2.246  12.916
64134W        W36460   9.683  41.585  11.919
64135W        W36461  20.744   9.279   2.282
64136W        W36462  33.848  24.965   2.554
64137W        W36463  33.514  39.360   4.753
64138W        W36464  38.382  41.542  10.947
64139W        W36465  24.209  29.379   2.733
64140W        W36466  14.752  10.750  13.441
64141W        W36467  33.610  17.730  12.341
64142W        W36468  29.773  21.583  11.031
64143W        W36469  42.067   0.478  12.023
64144W        W36470   9.379   9.389   3.813
64145W        W36471  14.025  32.142  10.157
64146W        W36472   8.158   6.152  10.954
64147W        W36473  14.618  17.314   0.106
64148W        W36474  31.195  21.140  13.973
64149W        W36475  35.940  12.188  13.456
64150W        W36476  14.665  22.679   2.298
64151W        W36477  44.015  29.098  14.683
64152W        W36478  25.576   7.363  12.376
64153W        W36479  35.684  31.992  14.915
64154W        W36480  24.807   2.765  11.606
64155W        W36481  19.044  32.965  12.568
64156W        W36482  41.464  32.869   0.280
64157W        W36483  11.422   0.336   3.572
64158W        W36484  33.078  19.329  13.810
64159W        W36485  22.296  30.989  13.640
64160W        W36486  15.147  25.625   2.933
64161W        W36487  10.805  42.419   1.577
64162W        W36488  26.868  37.342  10.706
64163W        W36489  30.497  20.566   4.771
64164W        W36490  32.505  25.142   3.712
64165W        W36491  10.582  44.737   1.422
64166W        W36492  17.647  44.212   1.346
64167W        W36493  39.039  10.515  12.876
64168W        W36494  10.683  37.341  12.886
64169W        W36495  10.475  34.564  14.962
64170W        W36496  15.910  22.563   3.307
64171W        W36497   6.920   4.656   3.729
64172W        W36498  10.814  25.559   4.672
64173W        W36499  41.375  39.390  11.459
64174W        W36500  24.638   5.627  13.955
64175W        W36501   1.867  22.797   3.695
64176W        W36502   7.015  16.884   0.938
64177W        W36503  35.501  20.183  13.411
64178W        W36504  26.354  13.329   2.943
64179W        W36505  35.429  35.633  11.613
64180W        W36506   3.505  10.094  11.080
64181W        W36507  43.808   2.344   0.223
64182W        W36508  44.548  24.773   4.180
64183W        W36509  32.988  17.631   3.532
64184W        W36510   1.301  44.716   2.468
64185W        W36511  10.657  39.453  11.184
64186W        W36512  36.339  31.644  12.479
64187W        W36513   0.590  19.252   2.495
64188W        W36514  30.591  38.406  14.946
64189W        W36515   6.517  19.637  12.939
64190W        W36516  15.680  35.053   0.532
64191W        W36517   7.710  44.944  11.181
64192W        W36518  42.221  40.235   0.953
64193W        W36519  10.564  44.566   0.939
64194W        W36520  36.617  41.337   0.851
64195W        W36521  13.133  15.847   2.814
64196W        W36522  25.941   4.763  13.698
64197W        W36523   0.785  32.442   5.249
64198W        W36524   9.708  25.635  10.800
64199W        W36525  12.707  41.607  10.624
64200W        W36526  42.396   5.916  14.496
64201W        W36527   5.358  32.397  12.941
64202W        W36528   4.371  29.068   3.646
64203W        W36529   6.116   9.626   1.101
64204W        W36530  32.754  43.857   2.131
64205W        W36531  14.732  40.972  13.129
64206W        W36532  30.186   0.224   2.714
64207W        W36533  35.517   7.051  11.467
64208W        W36534  27.138   6.201  13.950
64209W        W36535  24.788   2.334  14.613
64210W        W36536  25.611   6.504  13.911
64211W        W36537  39.841  28.599  14.379
64212W        W36538  28.537  39.063   4.143
64213W        W36539  26.732  21.198   1.659
64214W        W36540  33.143  43.263  14.921
64215W        W36541   0.434  11.504  11.962
64216W        W36542  42.272   3.958  10.761
64217W        W36543  22.578   5.695  11.960
64218W        W36544  20.159  35.463   3.849
64219W        W36545  30.602  28.287   2.613
64220W        W36546   2.957   9.002  13.776
64221W        W36547  24.178  36.423  12.202
64222W        W36548  20.226  25.212   2.919
64223W        W36549  10.079  34.472   4.070
64224W        W36550  27.565  26.556   1.603
64225W        W36551  17.602   7.668   1.974
64226W        W36552  10.813  18.122   2.318
64227W        W36553   8.429  17.452  12.027
64228W        W36554  11.787  12.309  13.986
64229W        W36555   4.963  32.222   4.155
64230W        W36556  22.191  29.130   4.685
64231W        W36557  12.771  11.652   4.263
64232W        W36558  42.031   5.041   4.657
64233W        W36559  25.960  35.373   2.864
64234W        W36560  28.238  32.851   2.716
64235W        W36561  38.005   8.320   2.408
64236W        W36562  20.478  32.406   3.222
64237W        W36563  22.200  40.350  12.779
64238W        W36564  11.786  27.841   3.364
64239W        W36565  19.251  12.585  14.413
64240W        W36566  15.412  36.112  13.973
64241W        W36567  15.954   9.559   4.098
64242W        W36568  10.400  43.490  13.845
64243W        W36569  38.047  20.604  14.432
64244W        W36570  14.732   4.012   1.783
64245W        W36571   0.283   9.395  11.113
64246W        W36572  26.963  19.025   1.990
64247W        W36573  32.923  43.330   0.839
64248W        W36574  41.526  21.344  13.534
64249W        W36575  20.963  13.252   3.189
64250W        W36576  26.634  41.429   3.969
64251W        W36577  16.643  35.000   2.610
64252W        W36578  33.977  17.341  14.834
64253W        W36579  39.468  11.753  11.184
64254W        W36580   7.452  38.277  13.036
64255W        W36581  25.676  17.835  14.204
64256W        W36582  25.695  42.867   3.209
64257W        W36583   9.712   0.808   4.827
64258W        W36584   9.222   5.264  10.952
64259W        W36585  27.250   9.015  11.849
64260W        W36586   9.331   2.995   2.183
64261W        W36587  43.447  21.650  13.825
64262W        W36588  22.481  40.882   2.741
64263W        W36589  39.022   9.044   0.414
64264W        W36590  34.310   8.265  12.703
64265W        W36591   8.151   8.954   1.424
64266W        W36592  11.897  21.244   4.416
64267W        W36593  38.344  40.986  14.391
64268W        W36594  12.214   6.397  14.820
64269W        W36595   1.343  31.821  14.255
64270W        W36596   2.436  27.937   1.707
64271W        W36597  29.707  12.412  10.843
64272W        W36598   6.745  36.675   2.251
64273W        W36599  38.133  41.105  12.118
64274W        W36600   9.410   0.897   4.379
64275W        W36601   7.152  31.466   0.471
64276W        W36602   3.426  27.499  14.619
64277W        W36603  14.362  19.456   4.158
64278W        W36604  12.057  30.650   3.750
64279W        W36605  22.193  24.828  11.043
64280W        W36606   7.675   3.668   0.866
64281W        W36607   8.838  42.113   3.964
64282W        W36608  40.083  16.633  13.947
64283W        W36609  24.176  24.957  12.447
64284W        W36610  23.825  43.425  13.951
64285W        W36611   4.038  37.937   4.194
64286W        W36612   9.574  19.341   2.682
64287W        W36613   2.397  37.991  11.402
64288W        W36614   0.327  38.394   4.624
64289W        W36615  40.935  43.275   4.679
64290W        W36616  25.197  18.989   3.739
64291W        W36617  38.608   6.928   1.175
64292W        W36618  43.563  22.821  12.106
64293W        W36619   8.135   5.373   0.274
64294W        W36620  36.036  13.375  11.996
64295W        W36621  31.689  36.493  11.604
64296W        W36622  24.141   5.527  13.891
64297W        W36623   6.300  36.174   2.706
64298W        W36624  21.982   1.885  10.424
64299W        W36625  18.709  10.481  14.031
64300W        W36626  13.625  16.125  12.067
64301W        W36627  27.968  39.314   3.776
64302W        W36628  37.374  21.061  11.211
64303W        W36629  22.664   6.274  12.650
64304W        W36630  30.045  38.558  13.808
64305W        W36631  10.697  29.913  13.027
64306W        W36632  36.717  15.588   2.956
64307W        W36633  22.105  31.886   2.785
64308W        W36634   4.798  34.502  12.491
64309W        W36635  33.717  26.654   9.993
64310W        W36636   4.878  26.677  13.494
64311W        W36637  41.496  33.925   0.353
64312W        W36638   1.951  32.632  14.138
64313W        W36639   8.282  18.791   4.425
64314W        W36640  12.993  24.075   4.961
64315W        W36641  34.345  30.369  14.506
64316W        W36642   8.098  22.968  13.136
64317W        W36643   0.529   6.394   2.154
64318W        W36644  21.570  29.162  12.131
64319W        W36645  23.206  41.048  10.969
64320W        W36646   5.989   4.212  11.318
64321W        W36647  15.756  23.712  11.299
64322W        W36648  24.402   0.001   1.701
64323W        W36649  31.580  36.980   3.571
64324W        W36650  22.246  26.986  11.923
64325W        W36651   4.924  30.696   3.248
64326W        W36652  20.049  41.370  14.707
64327W        W36653   8.975  21.051  12.192
64328W        W36654   0.385   0.458  14.796
64329W        W36655  37.089  16.555  11.951
64330W        W36656  32.569  42.780  13.482
64331W        W36657  36.194  10.454  11.266
64332W        W36658   9.431   1.239  14.394
64333W        W36659  19.034   2.682  14.403
64334W        W36660  24.756  16.153   1.815
64335W        W36661   1.260  35.916   2.296
64336W        W36662   1.848   5.828   2.296
64337W        W36663  18.345  22.717  13.898
64338W        W36664  25.428   8.337  14.349
64339W        W36665  36.815  24.451  13.494
64340W        W36666  18.307  12.845   0.742
64341W        W36667  21.164  40.362  11.694
64342W        W36668  32.902   6.462  11.176
64343W        W36669   5.467  20.137   1.300
64344W        W36670  17.778  12.344   1.926
64345W        W36671  14.649  14.109  11.551
64346W        W36672  29.048  22.038   1.705
64347W        W36673   9.673  34.815   2.649
64348W        W36674  33.823  39.464   1.472
64349W        W36675  25.528   2.355  14.314
64350W        W36676  15.085   1.853  12.495
64351W        W36677  38.760  16.917   2.888
64352W        W36678   2.924  11.750  11.414
64353W        W36679  33.646  25.662  12.004
64354W        W36680  25.465   8.837   2.963
64355W        W36681  38.312  24.010  11.157
64356W        W36682   5.041  42.340   0.991
64357W        W36683  32.846  20.539   1.466
64358W        W36684  15.045  34.888  11.549
64359W        W36685   4.875  38.059   0.654
64360W        W36686  20.681  30.251   1.832
64361W        W36687  34.970  13.600   4.717
64362W        W36688  25.950  38.394   3.291
64363W        W36689  33.443   0.424  11.213
64364W        W36690  27.715  39.843   0.272
64365W        W36691  12.598  28.104   1.276
64366W        W36692  24.426  16.548  14.207
64367W        W36693  12.815  42.818   0.506
64368W        W36694  17.041   6.765   3.225
64369W        W36695  33.341  19.145  11.216
64370W        W36696  33.945  19.239   5.034
64371W        W36697   0.546   2.219  11.596
64372W        W36698   9.690  27.101   4.201
64373W        W36699  19.750   7.375   3.788
64374W        W36700   8.609  27.038   4.727
64375W        W36701  38.101  15.464   4.094
64376W        W36702   1.352  26.775  11.576
64377W        W36703  25.535  23.452  14.916
64378W        W36704  17.320  13.920  13.900
64379W        W36705  27.958   7.128  14.973
64380W        W36706  13.031  10.179   0.832
64381W        W36707  13.717  32.406  10.966
64382W        W36708   1.372  23.171   2.746
64383W        W36709  21.524   1.537  14.101
64384W        W36710  32.536   0.822   3.899
64385W        W36711   4.483  40.465   2.714
64386W        W36712  15.803  40.806   3.672
64387W        W36713  39.884   8.839  11.118
64388W        W36714  38.507  33.010  10.857
64389W        W36715  25.559  12.715   0.272
64390W        W36716  41.252  34.552  10.617
64391W        W36717  17.733   7.391   0.778
64392W        W36718  18.181  38.954   2.150
64393W        W36719  35.810  32.498  12.369
64394W        W36720   2.112  19.658  10.179
64395W        W36721  20.300  19.634  10.523
64396W        W36722  10.917  24.724   1.878
64397W        W36723  39.602  25.045   3.252
64398W        W36724  11.374   1.974   1.058
64399W        W36725  19.750  29.552   2.949
64400W        W36726   7.958   4.018  12.612
64401W        W36727  21.694  29.877  13.535
64402W        W36728  29.499  42.577   2.669
64403W        W36729  38.241  26.799   0.741
64404W        W36730  33.374   1.443   0.411
64405W        W36731  18.034  42.770   2.271
64406W        W36732  30.865  28.338   4.126
64407W        W36733   2.924  40.607   2.060
64408W        W36734  32.139   7.461  11.641
64409W        W36735   9.696  18.174   4.118
64410W        W36736  40.467  11.760  10.763
64411W        W36737   9.816   7.296  13.762
64412W        W36738  34.098  32.652  14.266
64413W        W36739  36.044  24.024  10.491
64414W        W36740  40.224  39.455  11.352
64415W        W36741  28.629   0.409   0.322
64416W        W36742  44.983  23.746  13.716
64417W        W36743  10.902  34.318   1.222
64418W        W36744  13.960   3.435  12.385
64419W        W36745   3.825  41.579  14.520
64420W        W36746  44.957   5.417   4.862
64421W        W36747  36.205  31.425   0.336
64422W        W36748  38.645  44.759  14.375
64423W        W36749  41.760  30.629  11.364
64424W        W36750  40.773  22.035  14.952
64425W        W36751   8.374  15.207  10.617
64426W        W36752   9.052  25.612  12.606
64427W        W36753   0.252  41.911   1.923
64428W        W36754  18.280  25.571   4.157
64429W        W36755  39.845  14.064   4.230
64430W        W36756   8.802  41.748   1.748
64431W        W36757  12.579   0.457   2.334
64432W        W36758  23.553  14.579   1.245
64433W        W36759  13.764  31.626   3.891
64434W        W36760  40.549  24.641  13.433
64435W        W36761  12.834   6.055   0.277
64436W        W36762  38.421   7.720   1.717
64437W        W36763  10.961  13.989   4.580
64438W        W36764  44.725  37.376  14.115
64439W        W36765  29.684  19.650   4.177
64440W        W36766  21.367   1.962   2.188
64441W        W36767  34.614  25.175   3.768
64442W        W36768  13.651  37.796   3.980
64443W        W36769  15.884  15.687   4.538
64444W        W36770  16.835  28.484   1.882
64445W        W36771  34.594   8.105   4.459
64446W        W36772   1.819  34.741  13.340
64447W        W36773  25.437  30.000   3.048
64448W        W36774  29.178   4.867   4.084
64449W        W36775  40.297  30.712   5.334
64450W        W36776  34.752  23.529   0.484
64451W        W36777   7.791  16.111   1.029
64452W        W36778  15.829   1.755   4.939
64453W        W36779   5.988   6.765  14.789
64454W        W36780   0.835  27.550  11.068
64455W        W36781  24.533  22.527  10.922
64456W        W36782   7.392  18.443   3.851
64457W        W36783   3.350   8.210   3.660
64458W        W36784  14.835  26.051   2.960
64459W        W36785  25.716  17.120   3.715
64460W        W36786  32.629  34.672  14.558
64461W        W36787  21.220   2.771  12.399
64462W        W36788  24.663  27.367  11.154
64463W        W36789  33.285  17.669  11.539
64464W        W36790  37.807  27.685   1.495
64465W        W36791  19.970  31.526  12.683
64466W        W36792  25.486  20.649   4.600
64467W        W36793  16.664  19.041   4.534
64468W        W36794  16.820   2.111   4.745
64469W        W36795   5.694   0.213   0.814
64470W        W36796  34.974  31.228   4.524
64471W        W36797  30.986  42.848   2.720
64472W        W36798  37.357  21.234   0.708
64473W        W36799  19.575  38.448   2.420
64474W        W36800  24.381  30.602  13.125
64475W        W36801  44.078  19.402  12.795
64476W        W36802   1.315  30.285  14.010
64477W        W36803  18.396  13.207   4.031
64478W        W36804  44.319  25.750   1.782
64479W        W36805  16.107   3.424  12.546
64480W        W36806  26.565  29.955   4.491
64481W        W36807   5.168  19.260  12.774
64482W        W36808   6.426  27.709   4.561
64483W        W36809   6.970  24.324   3.632
64484W        W36810  28.572  32.098  14.832
64485W        W36811   9.216  39.221   2.686
64486W        W36812  31.615  40.177  14.448
64487W        W36813  22.647  23.178  14.281
64488W        W36814  31.476  16.989  12.991
64489W        W36815  41.025   9.695   1.984
64490W        W36816  14.472  27.631   0.715
64491W        W36817  42.700   1.379   3.280
64492W        W36818  38.539   7.793  13.287
64493W        W36819   1.946  20.982   1.196
64494W        W36820  40.063  23.057   1.315
64495W        W36821  42.517  16.590  14.945
64496W        W36822  20.665  14.920   1.225
64497W        W36823  24.475  24.607  11.931
64498W        W36824  25.627  27.538   1.443
64499W        W36825  34.624  13.265  12.437
64500W        W36826   1.917  12.832  13.308
64501W        W36827  10.999  30.612  12.073
64502W        W36828  18.611  33.144  14.090
64503W        W36829  33.370  10.357   2.338
64504W        W36830  24.498  33.132  14.010
64505W        W36831  34.501  44.835   4.701
64506W        W36832  24.761  12.253   4.238
64507W        W36833  27.239  15.972  13.021
64508W        W36834  23.636   9.143  14.962
64509W        W36835  17.659  26.376   4.857
64510W        W36836  15.908   6.327   1.801
64511W        W36837  30.838   4.614  13.388
64512W        W36838   8.839  35.527  12.449
64513W        W36839  43.895  40.513   0.924
64514W        W36840  25.089   3.734   2.716
64515W        W36841   0.026   6.764   4.325
64516W        W36842   0.486  25.521  14.522
64517W        W36843  14.497  13.166  14.881
64518W        W36844  28.727   4.342   4.175
64519W        W36845  12.044  25.959   4.963
64520W        W36846   9.395  34.138   3.243
64521W        W36847   9.412  24.514  12.528
64522W        W36848  16.952   0.938  13.907
64523W        W36849  33.527  17.097   3.663
64524W        W36850  10.345  22.954   0.360
64525W        W36851   6.410  29.773   0.844
64526W        W36852  24.661   8.188  13.551
64527W        W36853  23.378   8.484   0.408
64528W        W36854  18.275  37.350  11.608
64529W        W36855  32.455  39.012  10.869
64530W        W36856  21.044  12.810  13.287
64531W        W36857   0.434   3.134   4.206
64532W        W36858  38.088  16.269  12.381
64533W        W36859   6.911   6.332  11.622
64534W        W36860  43.528  34.307  13.871
64535W        W36861  22.550   9.801  12.246
64536W        W36862  31.161   4.372   2.704
64537W        W36863  30.472  42.066   1.710
64538W        W36864   9.890   7.284   4.890
64539W        W36865   5.753  44.329  14.053
64540W        W36866   4.467   4.390   9.861
64541W        W36867  25.118  33.826   0.486
64542W        W36868  19.181   4.134  12.681
64543W        W36869   2.674  14.183  13.989
64544W        W36870  42.018   6.597   2.419
64545W        W36871  12.115   9.401   1.739
64546W        W36872  20.991  27.149   4.087
64547W        W36873  24.568   9.101   2.221
64548W        W36874  35.063  31.939   2.287
64549W        W36875   5.735  31.888   3.755
64550W        W36876  35.659  32.548   2.765
64551W        W36877  42.817   1.823  13.925
64552W        W36878  30.092  37.809  14.247
64553W        W36879  30.592  30.070   1.231
64554W        W36880  30.030  13.791   1.412
64555W        W36881  38.880   7.875   2.660
64556W        W36882  20.242  23.710  10.731
64557W        W36883  33.361  39.307   0.724
64558W        W36884  26.208  26.886   4.133
64559W        W36885  35.136  26.527   2.660
64560W        W36886   3.687  31.501  13.104
64561W        W36887  15.884  22.810   4.301
64562W        W36888  18.993  25.860   0.614
64563W        W36889   7.308   6.679  10.448
64564W        W36890  18.350  41.839   3.046
64565W        W36891  20.816  44.582   3.291
64566W        W36892  17.152  17.823  11.946
64567W        W36893  31.536  43.502  14.268
64568W        W36894  31.864  36.922   2.908
64569W        W36895  18.559  32.561  14.931
64570W        W36896   9.865  19.551  11.230
64571W        W36897  42.078  21.117  14.369
64572W        W36898  13.601  29.173   1.406
64573W        W36899  34.525  43.483   1.950
64574W        W36900  14.291  23.478   0.155
64575W        W36901  26.764  28.532  12.393
64576W        W36902  42.897  16.852  13.432
64577W        W36903   2.330   9.185  13.093
64578W        W36904   2.291  26.414   3.243
64579W        W36905  27.867   4.283  11.916
64580W        W36906  33.415  17.146   2.306
64581W        W36907   7.620   2.388  13.923
64582W        W36908  20.535  30.400  10.656
64583W        W36909  16.115  43.534  14.921
64584W        W36910  36.107  28.414  10.960
64585W        W36911  25.083  11.423   2.847
64586W        W36912  33.415  26.473  13.749
64587W        W36913  29.862  27.047   5.313
64588W        W36914   1.644  44.418  11.156
64589W        W36915  44.742  31.957   1.673
64590W        W36916  31.650  39.090   0.106
64591W        W36917   6.599  33.166   1.770
64592W        W36918   6.702  16.607   4.103
64593W        W36919  19.698  19.064   3.370
64594W        W36920   6.613   9.297   0.383
64595W        W36921  19.869  37.778  14.823
64596W        W36922  16.705  36.045  13.080
64597W        W36923  20.756  30.203   0.025
64598W        W36924  36.173  26.118  14.415
64599W        W36925  32.101  41.035   1.184
64600W        W36926  37.370  10.423   3.101
64601W        W36927  23.433  26.039   2.338
64602W        W36928  10.721  39.531   0.823
64603W        W36929  31.996  36.159   3.220
64604W        W36930  31.851  28.007   2.821
64605W        W36931  41.295  40.494   3.734
64606W        W36932  35.427  42.023   3.871
64607W        W36933  10.956  17.172   2.331
64608W        W36934  41.114  34.754   5.062
64609W        W36935  15.866  36.359   2.630
64610W        W36936  44.038  25.798   1.357
64611W        W36937   9.838  19.424  13.939
64612W        W36938  25.493   9.617  10.996
64613W        W36939  22.219  31.210   4.132
64614W        W36940  18.467   2.280   1.416
64615W        W36941   6.221  26.629   2.871
64616W        W36942   4.826  38.077  11.444
64617W        W36943   9.307  17.296   4.630
64618W        W36944  16.362  42.985  14.038
64619W        W36945   6.740  10.868   2.984
64620W        W36946  38.133  10.359  14.940
64621W        W36947  28.951  15.630   3.816
64622W        W36948  33.231  19.254  12.060
64623W        W36949  23.846  33.518  11.054
64624W        W36950  14.012   3.985   4.225
64625W        W36951  10.641  32.941  12.391
64626W        W36952  21.223  31.782   2.354
64627W        W36953  19.202  34.158   4.363
64628W        W36954   7.622  22.196  13.766
64629W        W36955   1.497  33.943   0.781
64630W        W36956  15.065  42.529   1.306
64631W        W36957  32.188  21.744   4.582
64632W        W36958  41.572  20.129  12.474
64633W        W36959  29.144   6.516  13.847
64634W        W36960  27.228  10.496  11.446
64635W        W36961  14.846   2.769  13.136
64636W        W36962   2.357  42.097   2.732
64637W        W36963  17.195  24.990  10.875
64638W        W36964  33.354   9.884   4.648
64639W        W36965  32.474  29.665  14.363
64640W        W36966   7.933  17.108  14.972
64641W        W36967  15.575  33.374   0.369
64642W        W36968  39.433  25.530   3.244
64643W        W36969  15.942  38.950  10.479
64644W        W36970   1.341  18.266   0.842
64645W        W36971  28.926   5.409  12.401
64646W        W36972  40.870  13.071   4.642
64647W        W36973  37.582  44.424   1.507
64648W        W36974   8.241   6.413  13.379
64649W        W36975   8.814  42.497   4.291
64650W        W36976  27.746   2.731   0.499
64651W        W36977  44.286  40.731  13.072
64652W        W36978  24.181  37.067  13.281
64653W        W36979   6.831  15.359   1.741
64654W        W36980  43.342  22.763   4.164
64655W        W36981  11.668  34.672  14.287
64656W        W36982  34.023  22.732  14.480
64657W        W36983  41.463   6.731   1.144
64658W        W36984  36.372  10.826  12.638
64659W        W36985  32.433  24.057  12.056
64660W        W36986  36.043  17.043   2.252
64661W        W36987  43.982  42.066  13.349
64662W        W36988  33.422  24.502  10.711
64663W        W36989  31.517  22.823   1.401
64664W        W36990  21.278   6.201   0.737
64665W        W36991  24.084  23.678  12.090
64666W        W36992  21.180   4.320   2.897
64667W        W36993  15.565  25.730  13.858
64668W        W36994  21.120  10.020   0.465
64669W        W36995  44.355  33.153   4.822
64670W        W36996  25.235  10.284  13.609
64671W        W36997  34.266  43.904  13.645
64672W        W36998  26.951  16.816  14.801
64673W        W36999  21.566  19.874   5.144
64674W        W37000  33.432   7.742  12.925
64675W        W37001   4.945  38.076   0.149
64676W        W37002  17.873  23.616  13.986
64677W        W37003  44.356   5.928   0.409
64678W        W37004  17.201  29.012  11.653
64679W        W37005  39.861   3.351   3.578
64680W        W37006  36.163   7.697  14.530
64681W        W37007  25.513  35.150   2.704
64682W        W37008  30.326   3.810   2.850
64683W        W37009   3.499  29.243  12.455
64684W        W37010   8.604  44.795   4.627
64685W        W37011  28.492  36.478  13.431
64686W        W37012   0.114  27.297  12.113
64687W        W37013  41.844  44.508  13.988
64688W        W37014  20.550  34.494  14.326
64689W        W37015  30.338  44.936   1.149
64690W        W37016  42.237  35.878   0.664
64691W        W37017  12.751  14.812   2.097
64692W        W37018  28.585  28.666  14.622
64693W        W37019  34.967  14.181  10.460
64694W        W37020   6.203  23.920   4.527
64695W        W37021   4.730  16.170  13.306
64696W        W37022   1.795   8.082  10.824
64697W        W37023  34.899  17.807  12.402
64698W        W37024  31.606  34.816  10.885
64699W        W37025  26.354  20.978   4.422
64700W        W37026  29.326   2.004  11.998
64701W        W37027  11.440  21.167  13.975
64702W        W37028   9.295  10.612   2.302
64703W        W37029  43.705  43.791   0.281
64704W        W37030  36.071  25.952   4.628
64705W        W37031   0.437   0.265  10.780
64706W        W37032  15.601  22.999  12.549
64707W        W37033  30.961  21.977  11.941
64708W        W37034  19.753  40.327   4.213
64709W        W37035  34.548  29.718  14.857
64710W        W37036   1.014  42.877   0.930
64711W        W37037  34.440  21.197  14.519
64712W        W37038  17.202  36.102  13.248
64713W        W37039  23.103   1.362   2.672
64714W        W37040  18.254  10.650  13.283
64715W        W37041   8.586   4.707  14.348
64716W        W37042  35.817  20.264   1.437
64717W        W37043  27.501  37.765  14.941
64718W        W37044  24.567  27.242   0.914
64719W        W37045   9.184  26.011   0.741
64720W        W37046  34.353  43.688   3.115
64721W        W37047  16.076   4.416   0.207
64722W        W37048  25.113  12.631   4.127
64723W        W37049  37.866  44.838  12.362
64724W        W37050  44.873  44.019  11.028
64725W        W37051   2.485  43.007   1.352
64726W        W37052   4.894  22.726  12.619
64727W        W37053  18.164   9.667   4.199
64728W        W37054  27.112  29.214   2.327
64729W        W37055   1.806  28.509   2.750
64730W        W37056   4.053  13.780   0.794
64731W        W37057  27.785   8.388   4.684
64732W        W37058  10.637  17.171   1.921
64733W        W37059  15.049  12.124   0.273
64734W        W37060   0.249   6.833   2.174
64735W        W37061  41.898  18.917   4.151
64736W        W37062  38.622  19.215  10.411
64737W        W37063  15.286  40.915  14.979
64738W        W37064   6.167  43.480  12.554
64739W        W37065  28.390  26.420   0.472
64740W        W37066  37.079  35.649   1.681
64741W        W37067  18.998  33.503  13.307
64742W        W37068  42.857  16.814  10.676
64743W        W37069   4.657  21.783  12.492
64744W        W37070   5.261  41.385  11.928
64745W        W37071  26.417  37.362  11.010
64746W        W37072   8.785  40.534   3.140
64747W        W37073  34.572   9.255  14.987
64748W        W37074  36.364  37.347   0.234
64749W        W37075  15.243  25.110  11.999
64750W        W37076  29.206  37.332   1.277
64751W        W37077  44.718  38.571   0.365
64752W        W37078  19.839  24.221  13.831
64753W        W37079  24.216  29.146  10.896
64754W        W37080  40.904  25.170   3.697
64755W        W37081   6.268  38.931  14.077
64756W        W37082  10.081  11.116   3.782
64757W        W37083  12.096   6.460  11.635
64758W        W37084  34.007  23.770   0.750
64759W        W37085  40.805   5.070  12.591
64760W        W37086  38.402   8.467   0.996
64761W        W37087  21.523  42.857  11.591
64762W        W37088   9.393   0.583   3.712
64763W        W37089  39.940  40.355  14.690
64764W        W37090  32.088  13.858   3.292
64765W        W37091  22.345  39.940   5.123
64766W        W37092  21.538  24.658   2.829
64767W        W37093  22.613   1.164  13.711
64768W        W37094  41.560   5.496  12.949
64769W        W37095  36.854  44.326  12.856
64770W        W37096  18.247  28.789  13.404
64771W        W37097  23.066  25.486   2.621
64772W        W37098  41.457  39.527   3.331
64773W        W37099  15.301  13.548  12.803
64774W        W37100  13.548  11.112   1.007
64775W        W37101  41.002   4.296  10.589
64776W        W37102  43.593  23.554   2.441
64777W        W37103  26.618   4.624   0.044
64778W        W37104  31.029  41.873   0.919
64779W        W37105  41.113  16.372  11.134
64780W        W37106  22.210   3.803   0.800
64781W        W37107  40.636  27.805   0.835
64782W        W37108  21.118  16.479   4.329
64783W        W37109   9.669  25.588  12.596
64784W        W37110   0.771  41.496   1.432
64785W        W37111  22.755   0.273   1.405
64786W        W37112   4.329  11.623   1.015
64787W        W37113  29.993  14.003   2.678
64788W        W37114  32.179  32.350  13.291
64789W        W37115  13.250   6.364   4.563
64790W        W37116  29.873   9.821   3.311
64791W        W37117  21.686  18.180   4.529
64792W        W37118  32.865  21.156   0.910
64793W        W37119  42.958  42.262   3.707
64794W        W37120  22.133  37.303  10.845
64795W        W37121  43.879  39.890   3.254
64796W        W37122  41.748   5.989  12.974
64797W        W37123  30.215  22.615  12.908
64798W        W37124  37.565   9.106   3.789
64799W        W37125  13.768   3.923   2.725
64800W        W37126   5.182  35.630   4.681
64801W        W37127  15.067   6.779   4.069
64802W        W37128  22.488  21.213   4.190
64803W        W37129   1.706   4.260  11.484
64804W        W37130  36.523   4.952  13.012
64805W        W37131   5.996  22.770   0.651
64806W        W37132  25.083  32.600   2.991
64807W        W37133  35.673  18.085   3.656
64808W        W37134  13.670  26.346  11.594
64809W        W37135  19.112  30.561  14.847
64810W        W37136  31.498  43.279   4.286
64811W        W37137   1.267  39.997  14.064
64812W        W37138  12.796  11.781   3.131
64813W        W37139  10.192  21.241   4.556
64814W        W37140  29.740  33.841   2.333
64815W        W37141   0.245  17.230  11.632
64816W        W37142  17.126  39.595  13.721
64817W        W37143  38.452  34.981   3.161
64818W        W37144  27.996  30.989  11.199
64819W        W37145  11.178  32.383   3.279
64820W        W37146  26.295  28.702   1.353
64821W        W37147  37.825   4.160   3.234
64822W        W37148   9.419  29.491  13.606
64823W        W37149  34.672   7.185   0.897
64824W        W37150  11.439  25.221  10.997
64825W        W37151  25.133  41.243   3.850
64826W        W37152   3.272  16.251  12.322
64827W        W37153  42.204  33.470  11.191
64828W        W37154  41.254  39.578   1.457
64829W        W37155  22.136  23.397   0.699
64830W        W37156  25.927  38.345  11.596
64831W        W37157  41.295  25.724  11.870
64832W        W37158  23.922  20.218  14.481
64833W        W37159  35.574  44.423   4.318
64834W        W37160   9.092  11.173   1.186
64835W        W37161  38.910  20.003  10.517
64836W        W37162  38.755   7.800   3.620
64837W        W37163  40.959  39.423  10.654
64838W        W37164   2.469  41.313  14.891
64839W        W37165   5.257  37.423   4.614
64840W        W37166  41.493  44.950  11.862
64841W        W37167  32.379  31.143  13.089
64842W        W37168   7.179  36.902  11.158
64843W        W37169  38.717  33.322   0.919
64844W        W37170  29.873  44.929   1.382
64845W        W37171  24.095  15.338   1.464
64846W        W37172  29.533  29.936  13.917
64847W        W37173  44.741  38.454   3.635
64848W        W37174  44.242  34.924  12.431
64849W        W37175  20.123  18.705  12.360
64850W        W37176  31.600  14.162  14.573
64851W        W37177  34.740  15.208  11.680
64852W        W37178  37.514   4.379  12.320
64853W        W37179   1.509  17.362   0.364
64854W        W37180   8.606  44.178   1.742
64855W        W37181  33.859  32.919  11.725
64856W        W37182  44.978  28.064   2.824
64857W        W37183  23.679  10.586  14.018
64858W        W37184   8.873  21.894  12.997
64859W        W37185  37.736  14.585   3.192
64860W        W37186   4.398  32.541  11.716
64861W        W37187  10.058  37.807  14.453
64862W        W37188  37.097  26.186  11.672
64863W        W37189  30.454   3.301  13.479
64864W        W37190  10.604  15.643  10.533
64865W        W37191   4.661  18.063   3.656
64866W        W37192  25.072  23.304  11.912
64867W        W37193  30.060  30.031   2.963
64868W        W37194  17.049  17.613   1.785
64869W        W37195  38.221   7.042  10.074
64870W        W37196   3.011  22.844  14.484
64871W        W37197  31.902   3.764  10.937
64872W        W37198  14.169  33.783  11.397
64873W        W37199  17.565   5.125  12.269
64874W        W37200  24.275  18.874   0.522
64875W        W37201  27.850  35.908  13.585
64876W        W37202  10.036  15.609   2.341
64877W        W37203   5.410  22.235   0.315
64878W        W37204  16.166  43.332   1.019
64879W        W37205  36.910  16.747  13.583
64880W        W37206  33.436  41.697  12.146
64881W        W37207  13.726  37.025   4.516
64882W        W37208  13.134  38.881  10.317
64883W        W37209  10.345   6.806  11.796
64884W        W37210   3.399  35.626   4.756
64885W        W37211  28.924  11.124   2.370
64886W        W37212  31.920   2.939   5.039
64887W        W37213  33.479   2.039  13.954
64888W        W37214  32.203  14.188   0.228
64889W        W37215   2.256  33.320   3.128
64890W        W37216  43.437  15.517   4.103
64891W        W37217  41.020   4.174   3.736
64892W        W37218  20.788  23.681   4.667
64893W        W37219  33.687  11.675   5.000
64894W        W37220  14.383  36.600   4.107
64895W        W37221  10.936  33.077   1.285
64896W        W37222  24.486  26.064  11.391
64897W        W37223  41.831  31.700  13.867
64898W        W37224  18.331  31.640   1.358
64899W        W37225   8.338  20.650   2.707
64900W        W37226  12.294  13.484   0.065
64901W        W37227  30.427   2.162  11.668
64902W        W37228  20.020   4.335   4.585
64903W        W37229  26.061  12.154   3.601
64904W        W37230  36.892   0.925   2.271
64905W        W37231  10.238  43.939  14.026
64906W        W37232  31.850  35.561  14.493
64907W        W37233  20.140  40.001  10.413
64908W        W37234  27.162  32.640   3.279
64909W        W37235  30.204  22.273  12.500
64910W        W37236  36.504  27.063   2.568
64911W        W37237   8.122   4.959  14.421
64912W        W37238   6.879  33.486   1.027
64913W        W37239  11.765  20.510   1.220
64914W        W37240  12.342  25.157   2.326
64915W        W37241  12.386  14.951  14.022
64916W        W37242  36.058   8.129   1.339
64917W        W37243  28.173  26.009  10.001
64918W        W37244  12.587  40.534  13.965
64919W        W37245  37.126  38.889  12.121
64920W        W37246  19.060  24.927   4.692
64921W        W37247  27.177  12.283  13.856
64922W        W37248  33.015   5.907   3.004
64923W        W37249  20.678  12.261   0.724
64924W        W37250  29.444   0.995  14.056
64925W        W37251   2.091  19.580   4.828
64926W        W37252  44.165  16.284  14.572
64927W        W37253  24.822  13.704  11.354
64928W        W37254  10.919  23.114   0.979
64929W        W37255  40.326   6.870   2.830
64930W        W37256  15.417  40.837  14.287
64931W        W37257   7.333  35.288   2.509
64932W        W37258  38.085  43.830   2.340
64933W        W37259  10.100  43.377   1.876
64934W        W37260  26.880  22.494   0.474
64935W        W37261  37.046  30.607  10.632
64936W        W37262   3.189  25.078  11.429
64937W        W37263  35.758   5.418   2.704
64938W        W37264   0.030  20.251   3.157
64939W        W37265  11.765   9.680  13.125
64940W        W37266   9.875  15.237  12.851
64941W        W37267   2.868  20.696   3.713
64942W        W37268  38.594  37.964  13.792
64943W        W37269  41.453  19.011   2.834
64944W        W37270  34.624  22.967  12.813
64945W        W37271  43.321  22.792  11.639
64946W        W37272  23.732  27.936   3.817
64947W        W37273  29.543  38.964  11.022
64948W        W37274  19.760  16.222   0.225
64949W        W37275  21.591  13.366   4.551
64950W        W37276  20.746  13.227   0.443
64951W        W37277   2.834   4.691   3.171
64952W        W37278  15.691  11.886  14.142
64953W        W37279  11.810   7.696  13.284
64954W        W37280  25.666   9.928   3.921
64955W        W37281  20.570   2.972   1.330
64956W        W37282  25.234  10.349   4.675
64957W        W37283  24.972   1.169  14.973
64958W        W37284  34.808  24.628   2.864
64959W        W37285   2.680  35.187   3.225
64960W        W37286  19.684  35.050   3.160
64961W        W37287   4.607  18.837   3.185
64962W        W37288   0.370   7.904   3.586
64963W        W37289  42.214  21.790  11.890
64964W        W37290   0.308   1.648   1.830
64965W        W37291  26.123  22.494  13.597
64966W        W37292  35.207  25.506   1.681
64967W        W37293  11.040  15.061   3.078
64968W        W37294  22.493  12.828  11.073
64969W        W37295   1.322   5.677   0.084
64970W        W37296   4.511  29.063   1.271
64971W        W37297  38.118  31.565   2.424
64972W        W37298  34.280  26.179  10.669
64973W        W37299  39.505  35.498  11.014
64974W        W37300  14.550  29.268  12.918
64975W        W37301  32.934  31.425   2.886
64976W        W37302   2.082   6.324   1.547
64977W        W37303  18.063  39.958  12.328
64978W        W37304  26.779  41.667  11.067
64979W        W37305   6.229  24.809   0.252
64980W        W37306  28.376  44.917   0.380
64981W        W37307   3.828   6.815   1.395
64982W        W37308  22.632   1.983   4.501
64983W        W37309  16.284  20.064   0.383
64984W        W37310  27.888  37.826   1.325
64985W        W37311  26.542  30.949  11.966
64986W        W37312  34.342  19.971  10.615
64987W        W37313  34.076  12.037   2.169
64988W        W37314   0.732  44.096  13.023
64989W        W37315  28.608  15.784   0.943
64990W        W37316  21.505  25.454  12.107
64991W        W37317   0.744  43.002  12.071
64992W        W37318  29.003  39.348   4.199
64993W        W37319  27.056  32.837  12.638
64994W        W37320   7.146   5.507   2.224
64995W        W37321   2.208   8.258   0.239
64996W        W37322  32.150   7.415  13.397
64997W        W37323  35.406  35.938  14.996
64998W        W37324   7.111  10.972  13.227
64999W        W37325  39.968  36.644  10.691
65000W        W37326   7.956  32.059   3.325
65001W        W37327  41.752  26.431  12.543
65002W        W37328  16.345  22.631  13.891
65003W        W37329   8.802  44.918  14.539
65004W        W37330  15.833  17.414   2.818
65005W        W37331  21.516  31.180  12.070
65006W        W37332  39.554  28.904   3.242
65007W        W37333   4.041  40.504   4.666
65008W        W37334  33.294  14.371  14.346
65009W        W37335  40.483   3.762  11.082
65010W        W37336  32.607  22.055  13.159
65011W        W37337  14.817  42.664   3.787
65012W        W37338  29.832   7.067   3.386
65013W        W37339  44.491  27.052  13.852
65014W        W37340  32.604  23.096  11.940
65015W        W37341  20.045   4.753   0.439
65016W        W37342  29.917  30.901   2.865
65017W        W37343  24.497  12.378  12.467
65018W        W37344  33.069  42.539  13.514
65019W        W37345   6.343  21.535  14.744
65020W        W37346  13.774  26.517  13.568
65021W        W37347  41.086  14.072   2.642
65022W        W37348   9.125  16.690  14.019
65023W        W37349  16.168  19.210  14.795
65024W        W37350   8.764   1.909   1.047
65025W        W37351  27.482  34.905  13.065
65026W        W37352   2.701  27.105   2.576
65027W        W37353  35.511  11.925   9.771
65028W        W37354   2.541  12.702   2.321
65029W        W37355  15.458  43.505   4.504
65030W        W37356  12.686  13.888  10.735
65031W        W37357   2.331  15.144  11.206
65032W        W37358  15.668  16.842  10.694
65033W        W37359  33.920  10.021  11.618
65034W        W37360  16.140  14.914  10.672
65035W        W37361  19.519   5.407   1.906
65036W        W37362  11.888  15.310  12.311
65037W        W37363  42.906  22.578   5.433
65038W        W37364  34.051  21.846   4.165
65039W        W37365  44.819   9.467  12.951
65040W        W37366   3.172  39.822   0.428
65041W        W37367   7.207  28.545  14.481
65042W        W37368  11.714  44.599   5.223
65043W        W37369  31.044  23.664  11.974
65044W        W37370  34.077  10.130  14.974
65045W        W37371  41.374  19.771   2.301
65046W        W37372  14.297  11.668   0.798
65047W        W37373   0.170   2.751  10.498
65048W        W37374  15.710   7.793   4.693
65049W        W37375  18.671  17.976  11.152
65050W        W37376  36.644  22.176  13.230
65051W        W37377   2.263  40.015  11.603
65052W        W37378  41.756  31.131   0.797
65053W        W37379  35.054  36.799   2.282
65054W        W37380  35.632  28.690  11.684
65055W        W37381  19.035  43.284  11.452
65056W        W37382  32.978  26.753   3.274
65057W        W37383   8.220   2.452   3.427
65058W        W37384  37.613  35.071  12.032
65059W        W37385  10.133  27.456   0.927
65060W        W37386  19.600  44.715  12.606
65061W        W37387  27.044  34.968  12.768
65062W        W37388  27.534   1.816   0.402
65063W        W37389  14.287  23.017  12.155
65064W        W37390  31.875  21.796   3.298
65065W        W37391   3.708  32.571  10.729
65066W        W37392  25.005   7.717   2.977
65067W        W37393  21.494   2.936  11.056
65068W        W37394  25.621  28.226  14.083
65069W        W37395  17.280  24.274  14.265
65070W        W37396   0.792  44.832   2.400
65071W        W37397   6.273  28.028  14.297
65072W        W37398   2.687  41.583  10.526
65073W        W37399  23.450   1.365  11.601
65074W        W37400  37.137  14.057  12.079
65075W        W37401  23.993  37.228   3.334
65076W        W37402  22.491  25.319  10.823
65077W        W37403  24.482  19.009   1.073
65078W        W37404  42.213  12.131  11.031
65079W        W37405   2.196  40.716  10.957
65080W        W37406  11.313  11.468  12.500
65081W        W37407  18.732  25.358   4.090
65082W        W37408   3.704  28.532   4.840
65083W        W37409   0.257   9.451   1.156
65084W        W37410  32.333  21.625  13.004
65085W        W37411  32.185  34.841   0.392
65086W        W37412  26.498  24.574  14.958
65087W        W37413  27.072  17.225  10.702
65088W        W37414   2.989  34.918  12.218
65089W        W37415  20.068  44.333   3.730
65090W        W37416   1.286   7.360  12.111
65091W        W37417  29.016  40.342   3.817
65092W        W37418  39.088   2.304  11.935
65093W        W37419   0.593  11.936  11.133
65094W        W37420  31.424  14.792   3.597
65095W        W37421  28.022  30.494   3.660
65096W        W37422  42.389  39.012   0.971
65097W        W37423  32.888  29.069   4.119
65098W        W37424   3.896   5.256  10.769
65099W        W37425  18.676   3.789   9.809
65100W        W37426  19.865  44.535   1.456
65101W        W37427  10.249  25.860  14.873
65102W        W37428  30.617   3.574   0.741
65103W        W37429  40.355   4.716   0.772
65104W        W37430  13.286  23.505   3.311
65105W        W37431  15.788  27.668   1.830
65106W        W37432   7.950  15.295   2.547
65107W        W37433   0.324   7.933   4.487
65108W        W37434  15.208  33.345  11.435
65109W        W37435  41.575   0.536   1.444
65110W        W37436  33.420  36.305   4.631
65111W        W37437  38.964  17.152  12.385
65112W        W37438  32.896   9.348   2.110
65113W        W37439  29.550   9.039   4.170
65114W        W37440  28.913  19.722   4.654
65115W        W37441  17.939  38.567  14.434
65116W        W37442  16.538   7.873   4.619
65117W        W37443  43.441  32.546   1.480
65118W        W37444  16.964   1.910   3.074
65119W        W37445   3.786   0.939  10.843
65120W        W37446  10.842   5.310   1.754
65121W        W37447  44.993   3.208   1.035
65122W        W37448  21.912  25.988  12.843
65123W        W37449   0.566  43.387   4.920
65124W        W37450  13.872   6.417   1.923
65125W        W37451  32.534  15.531   2.407
65126W        W37452  13.057   3.392   3.752
65127W        W37453  37.944  11.816  14.711
65128W        W37454  26.717  28.190   2.684
65129W        W37455  17.117  17.813   2.804
65130W        W37456  15.758  30.344  10.766
65131W        W37457  29.215  31.144  11.916
65132W        W37458  38.842  37.617   4.464
65133W        W37459  40.578  21.593  11.123
65134W        W37460  35.656   1.190   3.823
65135W        W37461  24.125  20.657   1.919
65136W        W37462  24.642   9.271   3.263
65137W        W37463  22.667  25.984   3.262
65138W        W37464  34.305  13.123   3.308
65139W        W37465  14.833   7.213  11.623
65140W        W37466  23.265  39.221   3.202
65141W        W37467  10.163   9.825  12.583
65142W        W37468  25.994  25.267   1.582
65143W        W37469  38.070  27.814   1.937
65144W        W37470  10.904  10.179  10.425
65145W        W37471  27.594  18.398  10.348
65146W        W37472  22.206  22.573   0.803
65147W        W37473  23.027  24.619   4.955
65148W        W37474  27.736   8.931  10.161
65149W        W37475  42.372  38.411  12.006
65150W        W37476  14.072   3.688   2.387
65151W        W37477  29.326  10.231   4.940
65152W        W37478  41.321  32.085   3.234
65153W        W37479  19.433  34.924   0.447
65154W        W37480  37.921  20.050  10.971
65155W        W37481   8.158   6.747   2.990
65156W        W37482  35.171   7.207   4.488
65157W        W37483  32.922  42.084  11.468
65158W        W37484  40.532  38.888   4.242
65159W        W37485  30.835  17.349   4.101
65160W        W37486  30.572   0.634   5.162
65161W        W37487  13.195  10.641  12.558
65162W        W37488  42.449  13.543   2.250
65163W        W37489  22.377  25.081   3.601
65164W        W37490  32.059  21.415  12.435
65165W        W37491  30.532   2.846  13.021
65166W        W37492  34.550   0.213   1.616
65167W        W37493  42.442  30.961   3.588
65168W        W37494   2.351  30.131   2.344
65169W        W37495  30.617  20.807  11.597
65170W        W37496   9.199   7.597  13.293
65171W        W37497  33.164  34.049   1.873
65172W        W37498  16.198  24.591   4.672
65173W        W37499  39.325  21.177   0.321
65174W        W37500  31.089  39.727   3.700
65175W        W37501   9.174  44.553   3.723
65176W        W37502  43.904  39.214  11.252
65177W        W37503   9.352  13.935  12.551
65178W        W37504  32.091  18.968  10.616
65179W        W37505  32.535  18.490   0.486
65180W        W37506   8.779  29.885   2.876
65181W        W37507  11.765  23.407  11.134
65182W        W37508  33.624   3.867   2.405
65183W        W37509  17.121  30.169   4.127
65184W        W37510  11.722  10.297   0.448
65185W        W37511   1.852  32.514  11.442
65186W        W37512   2.509  41.614  13.947
65187W        W37513  39.689   4.156   0.456
65188W        W37514  26.094  22.055   2.042
65189W        W37515  22.023  40.437   0.833
65190W        W37516  11.972  10.799   0.325
65191W        W37517  40.876  41.045   2.428
65192W        W37518   0.642  44.311  11.069
65193W        W37519  29.902  37.517   4.881
65194W        W37520  23.013   6.790  14.999
65195W        W37521  30.236  14.767  14.076
65196W        W37522  21.982  35.913   3.130
65197W        W37523  13.461  21.840  12.075
65198W        W37524   6.102  37.849  14.450
65199W        W37525   4.198  39.483   3.351
65200W        W37526  12.300  37.909  10.861
65201W        W37527  41.753  42.285   3.761
65202W        W37528  21.702   7.284  12.442
65203W        W37529  24.235  21.535   0.699
65204W        W37530  21.116   6.816  13.990
65205W        W37531  20.120  15.801   3.694
65206W        W37532   4.200   2.244   1.461
65207W        W37533  16.491  38.628   0.318
65208W        W37534  29.566  31.078  13.181
65209W        W37535  22.646  26.747   1.765
65210W        W37536  28.562  19.762   0.949
65211W        W37537   6.992  20.111  13.588
65212W        W37538  37.552  28.619   3.264
65213W        W37539   5.766  25.375   1.668
65214W        W37540   1.316  16.223   0.266
65215W        W37541  29.572  31.153  14.147
65216W        W37542  21.964  12.306   3.499
65217W        W37543  34.728   7.082   1.446
65218W        W37544   8.297  28.424   2.762
65219W        W37545  26.731   3.273   1.163
65220W        W37546  28.454   4.447   3.732
65221W        W37547  13.837  31.630   2.412
65222W        W37548  44.538  25.723   1.295
65223W        W37549  20.017  30.535  12.528
65224W        W37550  23.090  44.394   1.057
65225W        W37551  32.867   4.304   1.257
65226W        W37552  34.542  28.430   1.271
65227W        W37553  34.436  41.260  13.617
65228W        W37554   3.922  43.493  14.157
65229W        W37555  26.713  42.233  10.153
65230W        W37556  31.138  24.149   0.804
65231W        W37557   9.874  40.590  11.053
65232W        W37558  34.026  15.700   3.513
65233W        W37559  14.780   9.600  14.963
65234W        W37560   8.384  26.257  14.923
65235W        W37561  23.469   2.301  12.482
65236W        W37562  42.781  28.937   1.817
65237W        W37563  29.536  33.344  10.807
65238W        W37564  26.084  40.518  10.660
65239W        W37565  17.089  22.196   4.562
65240W        W37566  10.274  30.486  11.652
65241W        W37567  36.104  35.698   4.581
65242W        W37568  15.283  34.357   2.652
65243W        W37569  20.120   3.095   4.978
65244W        W37570  16.709  41.538  13.586
65245W        W37571  44.791   4.765   0.033
65246W        W37572  28.121  18.719  12.414
65247W        W37573   6.279  15.469  10.334
65248W        W37574  44.770  33.084   1.653
65249W        W37575   2.092  18.588   4.923
65250W        W37576  38.411  19.709   0.469
65251W        W37577  11.477  43.813   2.812
65252W        W37578  15.338  24.127  12.899
65253W        W37579   0.299   2.640  14.345
65254W        W37580  26.487   2.319  10.954
65255W        W37581   3.156  10.176   4.665
65256W        W37582  32.386  33.510   2.744
65257W        W37583   2.502  23.750   5.371
65258W        W37584  41.683   0.287  12.332
65259W        W37585  10.805  36.804  10.760
65260W        W37586  10.633  10.188   2.290
65261W        W37587  22.448  15.596   5.014
65262W        W37588  22.107   4.857  14.446
65263W        W37589  37.428  42.783   2.377
65264W        W37590  27.057  17.278  11.452
65265W        W37591  31.295   8.393  11.186
65266W        W37592  34.433  44.020   0.593
65267W        W37593  15.084  22.437   4.105
65268W        W37594  38.062  24.707  12.570
65269W        W37595   1.799  38.046  14.963
65270W        W37596   2.897  44.917   1.721
65271W        W37597  22.869   4.403  12.051
65272W        W37598  10.628  13.175  11.255
65273W        W37599  44.756  43.696   3.973
65274W        W37600  32.921  27.670   4.090
65275W        W37601  12.655  36.917   0.994
65276W        W37602  36.744   0.086   2.235
65277W        W37603  29.253   2.958   1.070
65278W        W37604  20.956  24.030   0.019
65279W        W37605   4.194  20.695   2.181
65280W        W37606  44.974  32.388   3.348
65281W        W37607  17.192   8.997   1.780
65282W        W37608  35.457  18.585   1.846
65283W        W37609   8.221   9.575   3.757
65284W        W37610  41.446  10.381   3.209
65285W        W37611  43.703  22.088  13.281
65286W        W37612  41.428   7.214  10.786
65287W        W37613  37.983  12.411  12.388
65288W        W37614  36.370  14.219   4.148
65289W        W37615  37.041  17.672  12.898
65290W        W37616  44.801  22.253  12.374
65291W        W37617  30.913   7.045   3.997
65292W        W37618  28.524  33.003  14.521
65293W        W37619  29.465   3.955   3.053
65294W        W37620  14.838  37.401   3.046
65295W        W37621   3.884  37.565  13.927
65296W        W37622   4.465   5.361  10.762
65297W        W37623  41.557   0.264  10.707
65298W        W37624  19.280  32.814   1.255
65299W        W37625  39.483  43.202   2.283
65300W        W37626  34.602  18.565  12.809
65301W        W37627  21.230   8.248  14.219
65302W        W37628   8.639  36.625   0.260
65303W        W37629   9.776   2.861  11.772
65304W        W37630  12.724  20.621  14.762
65305W        W37631   9.665  37.466  14.961
65306W        W37632   0.356  23.036   4.193
65307W        W37633  21.622   5.854  12.900
65308W        W37634  34.164   4.328   0.961
65309W        W37635   4.530  38.387   0.356
65310W        W37636  26.221  19.706  14.392
65311W        W37637  25.769  17.611   3.078
65312W        W37638   5.314   8.312   4.289
65313W        W37639  35.984  22.427  14.413
65314W        W37640  18.262  42.834  12.672
65315W        W37641  31.002   5.887   0.173
65316W        W37642   1.323  24.757   3.925
65317W        W37643  25.734  11.234  10.620
65318W        W37644   5.668  35.891   0.918
65319W        W37645  24.477  24.117  14.943
65320W        W37646  38.865  26.744  14.529
65321W        W37647  36.558  39.138   1.310
65322W        W37648  35.893  32.070   2.816
65323W        W37649  22.218  31.827  12.453
65324W        W37650  42.915  11.084   0.706
65325W        W37651  13.595  27.654  13.598
65326W        W37652  20.594   5.675   2.793
65327W        W37653  30.048  31.012  10.749
65328W        W37654   0.814  22.887   4.348
65329W        W37655  34.216   6.341   4.722
65330W        W37656  39.152  43.753   3.871
65331W        W37657  23.443   3.342  13.474
65332W        W37658  26.085  35.082  10.554
65333W        W37659  14.314  28.107  14.558
65334W        W37660  34.972   9.306   3.195
65335W        W37661   6.259   0.819   3.639
65336W        W37662  27.320   7.659   5.052
65337W        W37663  32.473  30.495   5.106
65338W        W37664   0.254  33.391  14.896
65339W        W37665  25.476   0.394   2.866
65340W        W37666  24.099  37.699   2.434
65341W        W37667  22.628  23.185   2.809
65342W        W37668  14.757  40.790   1.935
65343W        W37669  33.542  37.885  11.380
65344W        W37670   9.791   2.832  14.070
65345W        W37671   1.744  12.447  10.033
65346W        W37672  38.725  14.171   4.526
65347W        W37673  23.901  18.040  13.438
65348W        W37674  38.357  20.780  11.931
65349W        W37675  21.113  23.936  13.804
65350W        W37676   6.084  43.547  13.069
65351W        W37677   0.480  22.748   5.121
65352W        W37678  35.678  10.660  10.454
65353W        W37679   6.647  24.021   1.480
65354W        W37680  30.445  18.433   0.481
65355W        W37681  11.829  12.598  13.486
65356W        W37682  37.667  35.918   2.357
65357W        W37683  15.055   5.920  10.484
65358W        W37684  39.878  29.568  11.186
65359W        W37685  31.215  29.533  14.806
65360W        W37686  13.270  19.219   4.077
65361W        W37687  41.985   0.844   4.450
65362W        W37688  24.319  10.041   1.747
65363W        W37689  17.014  21.136   0.354
65364W        W37690  34.349   8.641  11.556
65365W        W37691  35.394  19.872  13.816
65366W        W37692   7.336  18.143  10.762
65367W        W37693  41.755  30.501   5.008
65368W        W37694  32.483   8.334   4.867
65369W        W37695   8.813  27.673   1.963
65370W        W37696   0.428  34.870   3.051
65371W        W37697  17.136  27.756   1.356
65372W        W37698   5.831  28.903  12.337
65373W        W37699  10.874   8.641   2.263
65374W        W37700   2.731  19.553  14.547
65375W        W37701   8.789  17.330   3.725
65376W        W37702  24.230  15.260   5.369
65377W        W37703  42.757  19.508  13.589
65378W        W37704  29.692  21.505  12.386
65379W        W37705  21.300  15.610  14.519
65380W        W37706  22.877  24.111  13.869
65381W        W37707  13.758  18.623  13.513
65382W        W37708  13.210  17.077   1.676
65383W        W37709  29.559  19.110  13.892
65384W        W37710  35.068   6.800  13.801
65385W        W37711  17.723  18.266  10.542
65386W        W37712   2.983  12.649  13.350
65387W        W37713  15.655   8.254  13.076
65388W        W37714  27.612  28.671   1.278
65389W        W37715  30.169  40.826   1.411
65390W        W37716  33.945  40.530  12.496
65391W        W37717  36.627  14.057  11.014
65392W        W37718   8.339   7.610   2.620
65393W        W37719  26.985  28.471  14.984
65394W        W37720  26.092  30.846   4.289
65395W        W37721  14.104  11.948   4.106
65396W        W37722   1.480  37.297  12.947
65397W        W37723   3.718   0.540   0.548
65398W        W37724  40.687  10.247   4.895
65399W        W37725   8.375  42.265  10.508
65400W        W37726  33.551   8.677  13.620
65401W        W37727  25.740  39.403  13.554
65402W        W37728   6.833   2.198  14.983
65403W        W37729  24.617  13.091   0.490
65404W        W37730  29.591  26.174  11.733
65405W        W37731   4.026  22.495   5.469
65406W        W37732   0.188   2.418  14.802
65407W        W37733  32.519  29.429   4.341
65408W        W37734  12.743  32.306  13.049
65409W        W37735  36.903  25.736  13.348
65410W        W37736  10.146  22.498   1.321
65411W        W37737  27.111  23.749  12.029
65412W        W37738   8.512  34.512  10.727
65413W        W37739  35.107  25.758  12.844
65414W        W37740   7.684  35.297   4.659
65415W        W37741  30.458  44.489  12.342
65416W        W37742  38.460  30.816  11.936
65417W        W37743  10.014  26.001  13.918
65418W        W37744  23.194  43.289  11.634
65419W        W37745   8.791   9.276   4.565
65420W        W37746   5.348   7.583  14.340
65421W        W37747   2.749  34.623   1.909
65422W        W37748  22.712  17.493  12.052
65423W        W37749  12.301  30.361  14.954
65424W        W37750  22.077  17.638   1.615
65425W        W37751  25.110  12.812  14.439
65426W        W37752  30.245  30.541   0.699
65427W        W37753   1.795   5.678  11.400
65428W        W37754   6.911   2.201   1.753
65429W        W37755  41.024  26.148  10.612
65430W        W37756  10.418   7.699  12.004
65431W        W37757  42.438  32.609   4.579
65432W        W37758  39.914  17.585  12.276
65433W        W37759  12.831  11.725  11.280
65434W        W37760   6.929   2.487   2.197
65435W        W37761  34.145  42.387  14.317
65436W        W37762  41.477  12.819   0.763
65437W        W37763  30.321  23.534   3.666
65438W        W37764  13.834   4.376  12.276
65439W        W37765  30.853   1.990   3.285
65440W        W37766  10.418  26.774  14.824
65441W        W37767   5.352  18.706  10.758
65442W        W37768  17.537  28.249  12.914
65443W        W37769  30.877   2.428  14.880
65444W        W37770  21.299  27.088   3.664
65445W        W37771  22.957  23.926  12.489
65446W        W37772  19.612  19.961  11.104
65447W        W37773   8.631  20.587   0.060
65448W        W37774   4.741  41.702  14.445
65449W        W37775   6.281  33.966  11.942
65450W        W37776   3.982  23.588  12.096
65451W        W37777  29.180  35.048   5.019
65452W        W37778  24.112  16.770  12.604
65453W        W37779  23.440  44.826  14.486
65454W        W37780  29.441   2.390   3.659
65455W        W37781  26.825  30.149  11.038
65456W        W37782  15.622  40.570   5.099
65457W        W37783  25.997  13.614   3.193
65458W        W37784  42.272   6.784   4.140
65459W        W37785  33.312   1.587  10.661
65460W        W37786  25.652  27.888   5.549
65461W        W37787  31.104  42.034   4.248
65462W        W37788  42.500  19.666  14.293
65463W        W37789   3.295  25.503   2.830
65464W        W37790   2.286  11.166  13.482
65465W        W37791  17.188   5.206   2.928
65466W        W37792  13.259   8.283   0.538
65467W        W37793  37.114  41.836  10.428
65468W        W37794  27.431  44.500  14.413
65469W        W37795  38.552   6.639   0.276
65470W        W37796   4.141  33.476   0.385
65471W        W37797  24.113  30.968  13.657
65472W        W37798  16.481  31.615  13.810
65473W        W37799  32.887  38.359   1.267
65474W        W37800   2.302  24.732  13.821
65475W        W37801   8.819   2.554  11.457
65476W        W37802  42.505  15.088   1.520
65477W        W37803  17.658   5.385   1.342
65478W        W37804  20.697   1.583   3.850
65479W        W37805  15.693  29.878   2.250
65480W        W37806  41.243  12.230   4.678
65481W        W37807  37.037  30.602  13.382
65482W        W37808  10.439  19.656  13.450
65483W        W37809  41.010  31.968  12.621
65484W        W37810  11.925  44.377  12.188
65485W        W37811  23.744  38.973  13.445
65486W        W37812  29.067  25.992  11.603
65487W        W37813  13.904  43.421  13.391
65488W        W37814  42.526   7.980  12.006
65489W        W37815  43.836  29.633   0.167
65490W        W37816  39.951  33.701   4.762
65491W        W37817  19.852  41.654  10.573
65492W        W37818   2.627  23.964   4.927
65493W        W37819  13.815  27.587  14.049
65494W        W37820  41.976  26.641  13.942
65495W        W37821  37.020   4.484   0.647
65496W        W37822  26.991  11.522  11.474
65497W        W37823  14.616  37.487  10.620
65498W        W37824  28.601  10.330  11.635
65499W        W37825  39.445  39.524  11.032
65500W        W37826  28.744  37.392  13.909
65501W        W37827  36.927  22.348  14.893
65502W        W37828   9.253  38.254   1.229
65503W        W37829  37.413  18.779   2.317
65504W        W37830  26.192  23.144   3.605
65505W        W37831  40.642  16.587   1.622
65506W        W37832   7.902  20.656  11.340
65507W        W37833   5.249  33.959  14.041
65508W        W37834  31.455   2.229   1.846
65509W        W37835  41.014  20.133   3.201
65510W        W37836  13.649  16.792   4.636
65511W        W37837  25.807  24.743  10.232
65512W        W37838  34.154   3.392  14.746
65513W        W37839  35.879  12.324  12.909
65514W        W37840   0.792  15.368  11.700
65515W        W37841  35.433  31.967  10.727
65516W        W37842   8.216  32.690  13.802
65517W        W37843  41.903  29.123  13.957
65518W        W37844  14.230  17.912  13.504
65519W        W37845  14.143  44.550   1.945
65520W        W37846   1.717  31.800   2.368
65521W        W37847  36.087  13.679  12.964
65522W        W37848   0.984   7.174   0.961
65523W        W37849   1.253   9.867  13.851
65524W        W37850  42.040  30.341   1.265
65525W        W37851  42.925  42.009  14.867
65526W        W37852  17.642  39.990  10.609
65527W        W37853   8.291  41.343  11.531
65528W        W37854  35.358  25.443  11.121
65529W        W37855  24.185  25.140   0.205
65530W        W37856  41.047   9.133  12.968
65531W        W37857  35.957   6.199   4.304
65532W        W37858  28.924   9.280  14.778
65533W        W37859  36.483  27.845   1.935
65534W        W37860   2.351  15.865   1.759
65535W        W37861  31.463  36.030   4.783
65536W        W37862  17.923  24.096   3.161
65537W        W37863   0.458  23.750   2.736
65538W        W37864  36.518  24.723   4.193
65539W        W37865  20.173   0.763   0.871
65540W        W37866   5.631  35.418   4.523
65541W        W37867   7.768  11.568  12.031
65542W        W37868   7.158   3.196   3.497
65543W        W37869  24.726  10.942  12.198
65544W        W37870  22.169   6.034  12.815
65545W        W37871  17.498  34.152  12.956
65546W        W37872   7.210  18.119   3.472
65547W        W37873   4.354  18.360   0.017
65548W        W37874  40.061  13.334  11.973
65549W        W37875  36.560  36.951   3.299
65550W        W37876  34.353   1.411   4.184
65551W        W37877  23.096   1.375  11.231
65552W        W37878  33.089  41.281  14.808
65553W        W37879   2.971   0.944  11.444
65554W        W37880  42.752  28.907  12.520
65555W        W37881   8.765  20.715   3.393
65556W        W37882  20.684  29.051  14.183
65557W        W37883  15.913  18.672   0.310
65558W        W37884  39.080  27.685  11.059
65559W        W37885   5.441  31.923  11.998
65560W        W37886  23.962  22.617   1.216
65561W        W37887   6.420   1.931  12.989
65562W        W37888  41.274  36.410   3.134
65563W        W37889   8.755  27.244   2.316
65564W        W37890   4.703  11.533  14.837
65565W        W37891  31.883  31.600  11.904
65566W        W37892   1.841  37.143   0.953
65567W        W37893   5.526  10.180  13.335
65568W        W37894  42.037  34.087   3.252
65569W        W37895  10.350  30.343   3.138
65570W        W37896  40.814  34.839  14.894
65571W        W37897   8.559  42.443  11.056
65572W        W37898  29.573  38.637   0.532
65573W        W37899  37.588  29.471   1.289
65574W        W37900   8.262  26.417   0.411
65575W        W37901  26.584  11.583  11.998
65576W        W37902   6.331  11.347   4.012
65577W        W37903   6.413  12.922  10.634
65578W        W37904  36.260   0.771   1.354
65579W        W37905  13.310  18.720  10.693
65580W        W37906  16.940   8.054  11.913
65581W        W37907   4.756  43.305  13.736
65582W        W37908  24.357   3.179   3.242
65583W        W37909   2.944   1.230   4.593
65584W        W37910   9.639  42.206  11.123
65585W        W37911  30.999  11.608   5.056
65586W        W37912  32.997  18.119   3.235
65587W        W37913  26.677  18.274  10.474
65588W        W37914  35.528  31.713  12.005
65589W        W37915  25.847  18.602  12.807
65590W        W37916  18.631  39.963  10.660
65591W        W37917   0.032  40.005   2.392
65592W        W37918  43.403  11.202   1.932
65593W        W37919   9.111  42.356   2.258
65594W        W37920  42.438  18.439   1.879
65595W        W37921   5.320  28.152  13.812
65596W        W37922   1.751  19.575   2.256
65597W        W37923   2.525   6.635  13.448
65598W        W37924  42.307  20.604  13.321
65599W        W37925  20.331  13.382   0.178
65600W        W37926  14.279  10.292  14.592
65601W        W37927   7.764  27.532   2.712
65602W        W37928  24.497  25.726   2.355
65603W        W37929  11.413  22.980   0.953
65604W        W37930   9.812   9.859   2.134
65605W        W37931  14.029  44.378  13.912
65606W        W37932  23.902   0.809   5.263
65607W        W37933  36.031  11.268   4.614
65608W        W37934  27.983   1.056   3.259
65609W        W37935  35.636   4.499  12.119
65610W        W37936  37.888  29.474   2.183
65611W        W37937  25.738  42.565   1.789
65612W        W37938  14.421   8.270  11.920
65613W        W37939  23.004  42.437  13.986
65614W        W37940  12.210   5.776   4.586
65615W        W37941  43.151  21.078   2.348
65616W        W37942  27.995  28.162  13.984
65617W        W37943   0.136   5.353   2.859
65618W        W37944  17.642  25.790   0.190
65619W        W37945  34.601  19.032  12.577
65620W        W37946  18.505  22.731  10.142
65621W        W37947  22.418  28.474  14.562
65622W        W37948   6.304  20.151   4.506
65623W        W37949  43.737  26.626   0.245
65624W        W37950  36.582  42.540   0.400
65625W        W37951  36.101  38.894  11.961
65626W        W37952  29.919  40.812   0.692
65627W        W37953   8.211   0.854   4.016
65628W        W37954  10.103   4.397   2.370
65629W        W37955  27.224   0.311  13.492
65630W        W37956  32.520  13.560   3.282
65631W        W37957   8.818   6.572  13.293
65632W        W37958   7.086  30.675   3.512
65633W        W37959  10.222  13.129  13.941
65634W        W37960   2.872  12.215   3.748
65635W        W37961  20.293  25.846   3.413
65636W        W37962   6.728  21.048   2.273
65637W        W37963  13.785  22.190  11.834
65638W        W37964  26.994  19.252  10.791
65639W        W37965   2.917  14.321   4.234
65640W        W37966  38.340  42.033  12.014
65641W        W37967  39.059   8.796   3.581
65642W        W37968  21.283  23.581  14.199
65643W        W37969   7.924  24.909  12.171
65644W        W37970  37.622  20.805   0.807
65645W        W37971  15.553   5.914  10.637
65646W        W37972  33.843   1.888   2.199
65647W        W37973   3.781  28.108   2.122
65648W        W37974   1.502  18.042  12.550
65649W        W37975  20.916  16.254   4.763
65650W        W37976  27.971  38.842   2.834
65651W        W37977  27.453  43.544   1.824
65652W        W37978  22.906  32.063  12.994
65653W        W37979   1.161  18.780   0.037
65654W        W37980  25.741  40.241  11.489
65655W        W37981  14.732  35.086   0.644
65656W        W37982  42.522  17.599   0.002
65657W        W37983  17.061  26.750   2.152
65658W        W37984  20.499  23.462   2.228
65659W        W37985   1.430  35.530  12.393
65660W        W37986  21.079  43.932   2.651
65661W        W37987  43.241  14.505  12.114
65662W        W37988   6.861  27.393   4.529
65663W        W37989  21.231  31.088   1.838
65664W        W37990  15.131  29.092  10.481
65665W        W37991  15.325  42.052   2.590
65666W        W37992   2.008  35.933  10.739
65667W        W37993  35.870  44.391   1.358
65668W        W37994  30.293  12.348  10.943
65669W        W37995  36.835  42.057   4.860
65670W        W37996  31.181  41.300   4.174
65671W        W37997  44.745  32.516  10.843
65672W        W37998  25.753  27.085   0.044
65673W        W37999  38.972   1.431   1.421
65674W        W38000  40.086  11.768  12.467
65675W        W38001  26.170  35.510  14.865
65676W        W38002   2.240  25.783  11.022
65677W        W38003  27.024  18.298  12.686
65678W        W38004  20.447  15.728   1.232
65679W        W38005  27.214  33.526   1.163
65680W        W38006   2.905   2.562   3.322
65681W        W38007  16.297  24.086  13.919
65682W        W38008  44.822  41.997  12.940
65683W        W38009  12.760  12.044   4.704
65684W        W38010  11.742  42.853  11.651
65685W        W38011   1.785   5.828  10.836
65686W        W38012   0.236   4.038   5.098
65687W        W38013  19.045   9.920  14.721
65688W        W38014   0.680  10.720  11.407
65689W        W38015   6.435  40.491   1.387
65690W        W38016  41.054   6.608  11.227
65691W        W38017  21.773  22.999  12.976
65692W        W38018  38.484  44.177  14.967
65693W        W38019  32.217  36.522   5.155
65694W        W38020  39.347  34.927  14.538
65695W        W38021  18.546  42.367  14.477
65696W        W38022  36.894   9.840  10.207
65697W        W38023  35.484   5.809  11.662
65698W        W38024  25.489   0.796  13.737
65699W        W38025  19.042  21.711   3.864
65700W        W38026   3.380  41.452  14.256
65701W        W38027  22.987  21.235  12.493
65702W        W38028  23.642  16.081  14.567
65703W        W38029  12.621  12.214   1.647
65704W        W38030   3.743  14.874  10.743
65705W        W38031  26.055  32.378   3.249
65706W        W38032   4.760  24.736   3.192
65707W        W38033  36.561  25.462  11.555
65708W        W38034  13.783  32.527   3.365
65709W        W38035  36.263  10.802   0.740
65710W        W38036  25.101   4.473  12.009
65711W        W38037   7.180   0.465   3.639
65712W        W38038  44.391  12.625   1.490
65713W        W38039  40.968  30.506   4.307
65714W        W38040  29.178   4.225  10.548
65715W        W38041  36.921  17.568  14.680
65716W        W38042   0.877  18.679  12.913
65717W        W38043   4.668  43.809   3.674
65718W        W38044  33.821   4.159  10.376
65719W        W38045  36.663  25.482   0.760
65720W        W38046   1.089  11.774  10.238
65721W        W38047   2.262  16.841   0.484
65722W        W38048  22.092  39.061  10.728
65723W        W38049  44.394   9.328   2.882
65724W        W38050   2.716  35.140  14.409
65725W        W38051  15.591  33.055  10.953
65726W        W38052  10.649  35.527   4.229
65727W        W38053   1.266  12.071   0.345
65728W        W38054  17.432  31.590   4.248
65729W        W38055  23.662  42.929   1.348
65730W        W38056  33.888  15.289  12.805
65731W        W38057  38.730  18.254  13.096
65732W        W38058  15.356   3.753   2.631
65733W        W38059  31.070  41.473  11.088
65734W        W38060  20.510  29.506  14.026
65735W        W38061  13.288  40.516  10.668
65736W        W38062  24.763  44.312  10.850
65737W        W38063  28.477  32.117  13.467
65738W        W38064  18.314  29.704   3.762
65739W        W38065   1.761  42.852   2.030
65740W        W38066  37.583  27.151  13.005
65741W        W38067  16.465  43.853   1.696
65742W        W38068  10.341  24.696   4.545
65743W        W38069  33.877  44.926   4.100
65744W        W38070   4.291   9.708   2.430
65745W        W38071  33.513   2.355   3.784
65746W        W38072  11.413  18.256  10.682
65747W        W38073  21.262   5.681   0.025
65748W        W38074  31.346  34.317   3.688
65749W        W38075   5.641   9.113   1.849
65750W        W38076  24.300  15.857   0.444
65751W        W38077  23.546  21.784   3.373
65752W        W38078  42.045   2.269  11.104
65753W        W38079  13.705  39.497  10.999
65754W        W38080  27.142   3.574  14.093
65755W        W38081  24.690  19.206   1.543
65756W        W38082  25.797  14.729   1.964
65757W        W38083   6.044  17.555  11.196
65758W        W38084  44.491  25.581  14.401
65759W        W38085  36.177  23.111  12.965
65760W        W38086   9.460  21.220   1.405
65761W        W38087  13.824  21.129  12.534
65762W        W38088  44.992  19.182  11.456
65763W        W38089  11.792  15.529  14.800
65764W        W38090  10.789  36.227  10.682
65765W        W38091  33.100  38.384  10.746
65766W        W38092   6.871   3.506  14.015
65767W        W38093  29.440  26.826   5.043
65768W        W38094  13.534  30.914  10.474
65769W        W38095  19.107   2.240  12.076
65770W        W38096   7.388  44.963   1.524
65771W        W38097  42.291  35.078  13.807
65772W        W38098  43.507  11.055   4.061
65773W        W38099   0.688   2.856  10.580
65774W        W38100  38.280  40.981  11.638
65775W        W38101  38.527  26.740   3.276
65776W        W38102   6.873  23.420  12.469
65777W        W38103   5.293   9.642  11.540
65778W        W38104   2.281  43.232  14.956
65779W        W38105  12.874  32.156  14.259
65780W        W38106  28.140   5.351  13.372
65781W        W38107   2.318  34.028  12.328
65782W        W38108  32.667  16.869  12.069
65783W        W38109  43.500  22.464  14.023
65784W        W38110  33.846  23.067  14.971
65785W        W38111  30.549  26.629  11.482
65786W        W38112   2.722  11.141  12.542
65787W        W38113  33.963  28.138   0.298
65788W        W38114  19.554  43.390  14.827
65789W        W38115   3.041  28.710  12.195
65790W        W38116  41.450  39.435  11.964
65791W        W38117  24.874  44.819  10.960
65792W        W38118  38.360  16.385  14.403
65793W        W38119  10.703  31.510   4.756
65794W        W38120  32.074  10.261  13.633
65795W        W38121   2.345  26.330  13.700
65796W        W38122  16.257  25.099  11.848
65797W        W38123  12.750  44.472   3.351
65798W        W38124  12.793  34.368  11.981
65799W        W38125  34.098  42.974   1.465
65800W        W38126  11.775   8.704   0.416
65801W        W38127   7.212  33.060   2.653
65802W        W38128   7.457  38.483  11.924
65803W        W38129  24.296  23.111   1.186
65804W        W38130  15.872   6.084  11.496
65805W        W38131  37.974  41.350  14.269
65806W        W38132  11.701  24.103   4.276
65807W        W38133  32.355  37.588  10.655
65808W        W38134  42.311  27.390   1.398
65809W        W38135  24.287  28.416  13.810
65810W        W38136   3.362  33.594   4.532
65811W        W38137  31.858  11.351   2.717
65812W        W38138  19.729  43.856  11.165
65813W        W38139  13.626  10.067  11.661
65814W        W38140   5.521  21.808   2.702
65815W        W38141  38.365  43.093  14.017
65816W        W38142   2.785  23.174   2.477
65817W        W38143  21.485  29.429  14.785
65818W        W38144   3.779  29.780  10.656
65819W        W38145  43.825  42.566  11.556
65820W        W38146  21.995  14.631  10.566
65821W        W38147  26.408  19.979   1.316
65822W        W38148  16.586  12.546  10.643
65823W        W38149  24.739  44.057  11.286
65824W        W38150  30.058  18.310  13.458
65825W        W38151  10.663  28.637   3.713
65826W        W38152  41.234  20.035   1.850
65827W        W38153   1.571  36.360   2.842
65828W        W38154  14.813  36.175   1.768
65829W        W38155  39.519   3.454   3.930
65830W        W38156   3.335  10.833  13.857
65831W        W38157  18.614  25.544  14.864
65832W        W38158  21.901  21.758  14.669
65833W        W38159  24.127  28.979  12.549
65834W        W38160   2.185   6.014   5.014
65835W        W38161   4.840   2.296   4.179
65836W        W38162   3.657  43.768  12.916
65837W        W38163  42.981  13.890  11.551
65838W        W38164  11.250  37.153   4.909
65839W        W38165  11.369  25.063  12.810
65840W        W38166  34.949  37.647  11.119
65841W        W38167  13.357  30.742   2.290
65842W        W38168  12.845  12.923  12.073
65843W        W38169   5.671  34.112  13.785
65844W        W38170  22.963  19.744   4.141
65845W        W38171  29.939  19.160   4.220
65846W        W38172  35.494   8.029  11.213
65847W        W38173  40.248  21.174   2.260
65848W        W38174  40.944  11.065  12.981
65849W        W38175  22.511  31.662  14.356
65850W        W38176  17.049  14.122   1.137
65851W        W38177  44.309  17.805  12.112
65852W        W38178  40.802  42.996  10.540
65853W        W38179  37.922  15.472  10.307
65854W        W38180   8.436   7.635   0.152
65855W        W38181  34.586  23.217   4.813
65856W        W38182  29.596  30.389  11.024
65857W        W38183  19.555  33.743   4.485
65858W        W38184  31.206  44.953  13.406
65859W        W38185  37.361   3.409   5.028
65860W        W38186  26.975  24.126   1.913
65861W        W38187  10.312   9.471   0.797
65862W        W38188  32.165  33.374   0.423
65863W        W38189  26.119  15.698   3.378
65864W        W38190  37.977  41.783  14.593
65865W        W38191  36.067   7.921   2.731
65866W        W38192   3.408  32.527   4.315
65867W        W38193   4.336   4.460   2.768
65868W        W38194  22.654  41.723  10.791
65869W        W38195   4.525  42.732   4.235
65870W        W38196  44.808   1.860   3.853
65871W        W38197  16.164  26.466   0.041
65872W        W38198  32.930  39.193   0.398
65873W        W38199  42.314  32.689  11.630
65874W        W38200  28.147  13.212   1.513
65875W        W38201  23.723  32.130  14.332
65876W        W38202  36.972  38.889  14.094
65877W        W38203  39.674   5.000  14.350
65878W        W38204   6.179  19.753  13.383
65879W        W38205  20.507   9.306  13.056
65880W        W38206  14.589  21.952   1.759
65881W        W38207  42.853  39.576  12.002
65882W        W38208  34.915  22.094  11.428
65883W        W38209  35.701  17.254   0.229
65884W        W38210  44.020  16.357   4.393
65885W        W38211  43.019  12.452   4.076
65886W        W38212  28.260   1.471   0.461
65887W        W38213  11.578  24.534  10.218
65888W        W38214  15.286   4.188  12.965
65889W        W38215  27.197   0.047   1.165
65890W        W38216  21.079  28.111   2.591
65891W        W38217  26.074  19.037  12.580
65892W        W38218  24.342  16.126  10.606
65893W        W38219  43.560   8.044  11.042
65894W        W38220  29.301  10.682  12.003
65895W        W38221  13.191  40.991   4.438
65896W        W38222  37.954  12.811  13.296
65897W        W38223  15.232  12.081   1.874
65898W        W38224  13.335  31.854   0.808
65899W        W38225   9.083  41.421  10.320
65900W        W38226  23.398   6.815  12.058
65901W        W38227  16.159   6.334  14.317
65902W        W38228   6.759  40.499  13.423
65903W        W38229   7.702  18.714  13.824
65904W        W38230  32.300  22.463   0.213
65905W        W38231  37.088  36.745  10.863
65906W        W38232  21.698  32.665   0.422
65907W        W38233  36.166  38.159   3.308
65908W        W38234  42.817  30.148  10.716
65909W        W38235  33.073  35.118   1.045
65910W        W38236  35.610  25.122  11.417
65911W        W38237   4.266  14.791   3.664
65912W        W38238  43.437  18.204  14.035
65913W        W38239  39.388  18.260  12.479
65914W        W38240   4.959   3.048   2.547
65915W        W38241  12.139   3.768  12.471
65916W        W38242   1.583  38.364   0.786
65917W        W38243  19.730   9.468  14.020
65918W        W38244  25.220  12.836   4.595
65919W        W38245   2.069  21.989  10.911
65920W        W38246  36.315  40.913   4.285
65921W        W38247  18.656  20.526   2.413
65922W        W38248  27.060  34.610  12.361
65923W        W38249  31.565  29.701   3.604
65924W        W38250   5.723  22.766   1.107
65925W        W38251  28.821  16.336   2.725
65926W        W38252  14.741  12.139  12.148
65927W        W38253  12.477  10.122  14.320
65928W        W38254   7.378   9.874  11.922
65929W        W38255  41.938  34.175   0.265
65930W        W38256  25.570  20.621  11.999
65931W        W38257  21.258  30.296   3.599
65932W        W38258  14.097  14.069  13.582
65933W        W38259   4.334   7.781  13.334
65934W        W38260  38.504  30.929   1.054
65935W        W38261  17.697  12.132  12.168
65936W        W38262  31.001  16.354   1.436
65937W        W38263   6.455  40.979   3.806
65938W        W38264  41.227   7.686  13.922
65939W        W38265  32.343  41.505   1.309
65940W        W38266  39.849  25.933  12.527
65941W        W38267  29.329   3.811  11.500
65942W        W38268  44.400  18.094  14.826
65943W        W38269  41.407  31.007   2.810
65944W        W38270   5.236   2.781  12.085
65945W        W38271  20.662  16.278   4.046
65946W        W38272   5.760  29.929  11.480
65947W        W38273   4.684  28.009   2.040
65948W        W38274  38.544  36.775   4.668
65949W        W38275  34.461  29.725   3.216
65950W        W38276   1.291  16.085  11.487
65951W        W38277  20.203  35.474   3.302
65952W        W38278  40.947  23.944   1.650
65953W        W38279  17.032  38.319   4.925
65954W        W38280  20.727  25.059   4.813
65955W        W38281  17.526  28.138  10.716
65956W        W38282  40.030  39.305  14.823
65957W        W38283  26.029   0.824   3.192
65958W        W38284  20.122   0.249  13.819
65959W        W38285  16.811  11.765  14.721
65960W        W38286  13.052  29.683   0.443
65961W        W38287   7.985  31.039   2.216
65962W        W38288  14.824  44.593  14.917
65963W        W38289   5.286  13.121  14.382
65964W        W38290  42.181  29.555  14.860
65965W        W38291  19.159   3.149   4.541
65966W        W38292  31.981  29.505  14.532
65967W        W38293   3.690  25.715  13.432
65968W        W38294  23.709  36.067   4.816
65969W        W38295  22.736   4.331   3.281
65970W        W38296  26.693  12.935  11.547
65971W        W38297   9.752  13.562  12.638
65972W        W38298  22.523  37.443  12.867
65973W        W38299  38.018   5.391   0.180
65974W        W38300  27.619   0.997  11.628
65975W        W38301  38.552   7.747   4.093
65976W        W38302  23.227  15.780   5.438
65977W        W38303   3.321  26.140   0.298
65978W        W38304  40.895  18.759  14.021
65979W        W38305  44.163  25.458  14.026
65980W        W38306  12.876  12.482   3.217
65981W        W38307  11.684  23.839   0.906
65982W        W38308   2.761   8.178   0.505
65983W        W38309  32.136  34.555  11.683
65984W        W38310   5.724  31.569   0.322
65985W        W38311  19.169  36.399   0.555
65986W        W38312  23.742   5.567   4.158
65987W        W38313  30.891  15.833   1.356
65988W        W38314  26.610   8.196  11.688
65989W        W38315   3.478  29.877  14.410
65990W        W38316  21.999  22.598   4.377
65991W        W38317  26.189  16.584   4.280
65992W        W38318   3.699  44.869   0.762
65993W        W38319  24.519  34.751  13.033
65994W        W38320  32.583  22.985   2.004
65995W        W38321  11.811  13.835  12.486
65996W        W38322  40.019  15.567   4.127
65997W        W38323  29.912  20.515  14.916
65998W        W38324  34.023   7.089   2.263
65999W        W38325   7.840  37.285   0.128
66000W        W38326  31.916  27.777   2.331
66001W        W38327  12.800  16.815   1.827
66002W        W38328  21.161  23.953  10.991
66003W        W38329  35.091  12.157   3.728
66004W        W38330  42.758  40.809   1.654
66005W        W38331  44.755  41.132  13.878
66006W        W38332  18.170  27.150   0.365
66007W        W38333  19.026  10.418  14.493
66008W        W38334  14.380  40.000   1.488
66009W        W38335  36.611  13.824  14.327
66010W        W38336  38.297  12.123  11.750
66011W        W38337  43.869  11.768  14.415
66012W        W38338  25.098  27.752   2.729
66013W        W38339   6.811  21.501  14.461
66014W        W38340   6.747   3.497   0.471
66015W        W38341  41.201  10.302  12.369
66016W        W38342  40.270  28.269  10.313
66017W        W38343  29.963  39.122   4.029
66018W        W38344  30.585  11.824   2.152
66019W        W38345  13.198  10.183   1.812
66020W        W38346  26.143  23.959   4.189
66021W        W38347   8.252  21.546  13.407
66022W        W38348  13.301  40.036  13.723
66023W        W38349  11.131   7.798  11.715
66024W        W38350  26.022  32.554   2.114
66025W        W38351  43.931  38.924  13.021
66026W        W38352  15.069   0.331   0.832
66027W        W38353  32.900  27.045   3.714
66028W        W38354  20.874  38.507   9.804
66029W        W38355  17.071  26.329   5.068
66030W        W38356  10.169  34.592   1.478
66031W        W38357  32.511  17.077   0.594
66032W        W38358  13.448  39.337   0.363
66033W        W38359  17.122  23.302   1.165
66034W        W38360  27.061  18.635   2.652
66035W        W38361  28.610  17.702  11.127
66036W        W38362  28.384  39.868  14.370
66037W        W38363  38.029   2.880   3.860
66038W        W38364  37.507   6.174  14.488
66039W        W38365  20.123   2.211   3.133
66040W        W38366   4.176  41.525   2.992
66041W        W38367  23.600  10.264   4.194
66042W        W38368  34.162  37.539  13.296
66043W        W38369   4.497   3.247   1.149
66044W        W38370  42.922   3.005   0.363
66045W        W38371  34.437  36.318   5.550
66046W        W38372   4.985  41.497   3.323
66047W        W38373  11.666  22.052   3.488
66048W        W38374   1.742  19.332  14.898
66049W        W38375   2.924  43.544  14.358
66050W        W38376  37.752   1.333  12.500
66051W        W38377  19.215  15.788  11.577
66052W        W38378  31.043  25.039   2.346
66053W        W38379  31.525  21.573   4.077
66054W        W38380  31.435  39.011   4.590
66055W        W38381  30.621  16.140   0.314
66056W        W38382  32.794  12.489  13.932
66057W        W38383  42.222  23.232   3.640
66058W        W38384  18.231  14.175   1.484
66059W        W38385  17.591  26.661  14.121
66060W        W38386   2.889   4.884   0.341
66061W        W38387   3.209  17.290  13.388
66062W        W38388   1.684  28.189   4.099
66063W        W38389  10.666  11.701   0.824
66064W        W38390  40.936  37.453  10.908
66065W        W38391  36.153  11.957   5.432
66066W        W38392   4.403  12.312  12.128
66067W        W38393  38.873  20.376   4.693
66068W        W38394  42.215  25.304  13.516
66069W        W38395  27.449  30.192  10.142
66070W        W38396  30.008  14.875   4.687
66071W        W38397   5.205  26.548   3.997
66072W        W38398  32.516  33.614  13.921
66073W        W38399  32.441   7.326  13.850
66074W        W38400   1.361  28.350  10.693
66075W        W38401  41.055  24.145  13.611
66076W        W38402   4.802  15.957  12.830
66077W        W38403   8.688  20.625  12.153
66078W        W38404  36.877  39.668  14.627
66079W        W38405  42.278   2.313   0.915
66080W        W38406   8.551  33.387  12.051
66081W        W38407  20.553  29.644   0.027
66082W        W38408  29.204  18.248   4.224
66083W        W38409  22.963  31.527   4.697
66084W        W38410  33.666  37.879  11.879
66085W        W38411  35.516  18.074   3.153
66086W        W38412  36.440  33.538   2.847
66087W        W38413   7.832  21.047   3.225
66088W        W38414  19.889  10.588   4.118
66089W        W38415  24.365   1.713  12.893
66090W        W38416  20.032  39.140   0.105
66091W        W38417  30.684  34.198  11.417
66092W        W38418  24.242  40.126  12.401
66093W        W38419  26.004  17.989   3.887
66094W        W38420  31.190  13.187  12.839
66095W        W38421  10.642   0.433  14.355
66096W        W38422  18.077   3.020   0.326
66097W        W38423  14.945  12.223   1.283
66098W        W38424  11.397  15.008   0.845
66099W        W38425  14.893   9.337   1.961
66100W        W38426  36.050  19.989   2.220
66101W        W38427   9.459  33.635  12.009
66102W        W38428  19.521  41.682  13.837
66103W        W38429  22.668   4.601   1.203
66104W        W38430  30.873  33.027  10.910
66105W        W38431  33.694  24.216   0.645
66106W        W38432  39.911  32.487  12.208
66107W        W38433  15.434  14.574  11.718
66108W        W38434   0.857  41.577  13.337
66109W        W38435  31.005  31.339  14.959
66110W        W38436  28.003  34.120   1.829
66111W        W38437  38.978  30.650  13.497
66112W        W38438  42.101  22.765   1.462
66113W        W38439  12.762  38.185  10.837
66114W        W38440  27.446  35.505   4.530
66115W        W38441  28.294  30.725   3.249
66116W        W38442  34.262  36.760   9.639
66117W        W38443  11.071  40.629  14.822
66118W        W38444   6.150  27.479   1.723
66119W        W38445  42.095  34.195   1.340
66120W        W38446  11.081  41.190  13.532
66121W        W38447  28.524  31.182  13.330
66122W        W38448  22.670   6.847   1.308
66123W        W38449  27.734  12.264   3.429
66124W        W38450  36.613  13.829  13.817
66125W        W38451  16.718  13.712   3.199
66126W        W38452   4.830  17.790   0.610
66127W        W38453  19.726  12.655  13.890
66128W        W38454  24.163  24.434  14.030
66129W        W38455  30.020  40.329   2.794
66130W        W38456  39.775  28.702  10.745
66131W        W38457  29.154   5.863  13.605
66132W        W38458   8.685   6.179   4.509
66133W        W38459  23.110  24.634  13.889
66134W        W38460   5.875  43.051  12.550
66135W        W38461   1.362  12.186  13.113
66136W        W38462  23.088  23.753   3.609
66137W        W38463  18.959  21.525  12.456
66138W        W38464  41.480  12.230   3.807
66139W        W38465  34.576  37.751   4.160
66140W        W38466  32.973  41.096   0.267
66141W        W38467   7.396  21.342  11.234
66142W        W38468  28.926  36.005  10.413
66143W        W38469   6.297   8.132   0.238
66144W        W38470  19.283  16.003   3.611
66145W        W38471   5.617  28.464   2.279
66146W        W38472   4.921  23.053   0.984
66147W        W38473  18.172  25.718   2.807
66148W        W38474  33.462   4.920   1.723
66149W        W38475  30.355  20.017   1.671
66150W        W38476  24.649  18.416   4.086
66151W        W38477  33.484  35.033   3.147
66152W        W38478  10.412  20.501   2.806
66153W        W38479  25.742   1.814   1.071
66154W        W38480  12.220  27.106   0.539
66155W        W38481  12.282  12.238  14.114
66156W        W38482   5.306  16.791  12.353
66157W        W38483  19.162   1.608  11.425
66158W        W38484  44.271  40.937  14.559
66159W        W38485   3.733  34.071   3.371
66160W        W38486  19.829  28.989   1.264
66161W        W38487  39.081  36.037  14.447
66162W        W38488  41.477   4.877   0.190
66163W        W38489   3.129  24.362  11.255
66164W        W38490  41.094  21.309   2.041
66165W        W38491  10.262  33.293   1.812
66166W        W38492  11.067  26.152  14.969
66167W        W38493   2.360   5.318   2.715
66168W        W38494  10.511  17.092  10.193
66169W        W38495  43.113   1.217  11.521
66170W        W38496  21.750  15.262   4.628
66171W        W38497  30.516   6.730   4.580
66172W        W38498  31.862  40.405  11.902
66173W        W38499   7.732  22.483   3.677
66174W        W38500  16.013  18.515  10.742
66175W        W38501  20.020  18.114   1.952
66176W        W38502  35.861   2.100  10.908
66177W        W38503   5.200  17.397  14.888
66178W        W38504  42.848  42.018   4.142
66179W        W38505   7.465  36.503   1.176
66180W        W38506  37.241  31.513  10.308
66181W        W38507  34.480  11.232   4.334
66182W        W38508   0.027  16.553   3.461
66183W        W38509  39.094  15.234  10.694
66184W        W38510   0.319  39.601   4.529
66185W        W38511   6.468  42.058   2.668
66186W        W38512  25.771  30.643   3.010
66187W        W38513  27.474   0.036   2.745
66188W        W38514  15.604  44.828   4.153
66189W        W38515  25.477  18.103   3.780
66190W        W38516   6.265  11.404  12.497
66191W        W38517  35.845  41.915  12.024
66192W        W38518  29.906  13.296  11.556
66193W        W38519  14.279  34.271   1.927
66194W        W38520   8.766   5.163   2.284
66195W        W38521   2.675  25.085  11.417
66196W        W38522  36.027  31.093  11.856
66197W        W38523  29.372   3.495   3.249
66198W        W38524  13.071  27.916   1.170
66199W        W38525  32.815  40.424  11.987
66200W        W38526  37.396  36.095  13.473
66201W        W38527  14.704  43.774  12.037
66202W        W38528  36.427  14.742   1.753
66203W        W38529  26.072  28.856  14.791
66204W        W38530   2.251  10.667   3.945
66205W        W38531   0.634  10.763  10.028
66206W        W38532   8.249   2.420   2.166
66207W        W38533  37.449   6.910  14.871
66208W        W38534  17.099  25.246   2.292
66209W        W38535  10.940  21.635   0.766
66210W        W38536  35.505  33.543   1.044
66211W        W38537  19.032  42.944   1.916
66212W        W38538  15.690  25.763  11.529
66213W        W38539   4.879  11.875   1.262
66214W        W38540  28.174   2.964  11.637
66215W        W38541  24.781  27.528  14.720
66216W        W38542   7.304  18.860   1.342
66217W        W38543  31.425  42.288  11.545
66218W        W38544  30.929  23.707   2.360
66219W        W38545  37.598  35.364  11.601
66220W        W38546  23.157   5.946   1.363
66221W        W38547  27.987  17.645  14.863
66222W        W38548  32.165  29.048   1.309
66223W        W38549  42.387   2.925  13.554
66224W        W38550  30.563  26.156  13.302
66225W        W38551  16.784  41.102   1.704
66226W        W38552  23.714   0.882   3.789
66227W        W38553   2.932   7.172   4.552
66228W        W38554  15.843  43.742   2.829
66229W        W38555  17.118  22.344  14.889
66230W        W38556  44.591  42.308  11.024
66231W        W38557  14.298  43.036   1.668
66232W        W38558  15.419   4.375   2.733
66233W        W38559  24.301  15.776   3.665
66234W        W38560  20.290  23.723   4.493
66235W        W38561   6.588  43.871  14.543
66236W        W38562   8.299  19.667  14.204
66237W        W38563  33.628   1.975  11.560
66238W        W38564  31.813  12.898  12.244
66239W        W38565  17.304  23.063  13.317
66240W        W38566  26.403  31.546  14.962
66241W        W38567  11.215  22.685   2.882
66242W        W38568  13.165  28.173   5.019
66243W        W38569  17.801  20.091   2.702
66244W        W38570  40.889  34.078  13.550
66245W        W38571  31.555  21.495  14.565
66246W        W38572  40.523  39.433  10.951
66247W        W38573  36.778  20.279   1.141
66248W        W38574  42.839  19.657  12.634
66249W        W38575  31.533   2.795   4.720
66250W        W38576  37.587  20.967   4.245
66251W        W38577  41.029  41.877   3.592
66252W        W38578  12.077  40.907  13.421
66253W        W38579  18.284  31.883   0.872
66254W        W38580  14.052   5.728   1.409
66255W        W38581   5.244  32.658   2.213
66256W        W38582  11.415  12.952  13.403
66257W        W38583  35.574  17.674  12.181
66258W        W38584  26.221  31.192  11.640
66259W        W38585   9.274  23.922   0.406
66260W        W38586  32.118  24.261   3.799
66261W        W38587  20.734  42.619  12.048
66262W        W38588   5.408  34.323   4.211
66263W        W38589  43.577   5.289  14.812
66264W        W38590  31.364  28.249   4.068
66265W        W38591  37.013  31.026   1.008
66266W        W38592  23.234  44.446  12.850
66267W        W38593  28.885   4.045   2.399
66268W        W38594  14.271  24.523  14.723
66269W        W38595   2.876   0.748   4.825
66270W        W38596  33.894  16.830   2.235
66271W        W38597  17.166  37.533   2.238
66272W        W38598   2.282  23.087  12.606
66273W        W38599  40.318  42.860   5.005
66274W        W38600   6.504  23.490   4.564
66275W        W38601  37.789  13.669   1.945
66276W        W38602  12.816   8.751   4.562
66277W        W38603  16.536   0.280  11.132
66278W        W38604  34.899  14.024  11.865
66279W        W38605  19.312  32.109   3.708
66280W        W38606   0.795  12.210  10.363
66281W        W38607  12.761  17.691  12.130
66282W        W38608  41.775   6.331  14.059
66283W        W38609   8.308  34.593  14.067
66284W        W38610  17.068  28.805   0.416
66285W        W38611   9.704  29.165  12.580
66286W        W38612   7.132  23.215  14.206
66287W        W38613  23.201  21.027  12.078
66288W        W38614  17.992  19.706  13.422
66289W        W38615  19.108  27.155  11.722
66290W        W38616  29.184  32.960   0.481
66291W        W38617   4.445  27.421   0.967
66292W        W38618  42.053  22.748   0.007
66293W        W38619  23.585  42.789  11.068
66294W        W38620  31.700  17.661  14.472
66295W        W38621  12.015  19.990  13.047
66296W        W38622  26.351  37.164   4.180
66297W        W38623  42.037  41.783  10.799
66298W        W38624   7.059   7.939  10.755
66299W        W38625  27.048  35.510  12.591
66300W        W38626  43.455  22.330  12.124
66301W        W38627  17.022  12.695  12.813
66302W        W38628  35.891  40.582   2.184
66303W        W38629  21.673  12.254  14.243
66304W        W38630  24.188  31.925   2.250
66305W        W38631  24.586  18.015   2.611
66306W        W38632  31.520  17.606  12.215
66307W        W38633   8.724  18.791  10.423
66308W        W38634   6.242   2.762  11.165
66309W        W38635  36.541  43.948   0.798
66310W        W38636  12.859  26.931   2.261
66311W        W38637  41.914  18.911  11.185
66312W        W38638   1.191  40.058   1.715
66313W        W38639   4.253  25.530   1.379
66314W        W38640  36.142  10.626  13.080
66315W        W38641  17.245  41.198  14.726
66316W        W38642  36.583  37.094  12.470
66317W        W38643  28.379  13.108   4.550
66318W        W38644  33.619  25.394   5.067
66319W        W38645   8.209  43.277  10.581
66320W        W38646  20.676   9.747  12.555
66321W        W38647  22.293  39.960   2.678
66322W        W38648  25.052  29.396   0.887
66323W        W38649  44.681  27.281  10.185
66324W        W38650  20.591  33.051  10.561
66325W        W38651  19.087  27.976  12.980
66326W        W38652   9.739  25.997  14.861
66327W        W38653  25.662  31.503   1.359
66328W        W38654  33.788  34.961   3.652
66329W        W38655  37.923  18.388   1.761
66330W        W38656   2.843  21.941   4.609
66331W        W38657  41.784  22.232  11.042
66332W        W38658  33.456  37.492  12.846
66333W        W38659   4.299   2.727  12.935
66334W        W38660  12.108  42.778   4.547
66335W        W38661  15.204  34.446  12.420
66336W        W38662  16.307  31.961   1.540
66337W        W38663  16.644  32.231   3.081
66338W        W38664  12.780  38.101  11.596
66339W        W38665  43.459   7.543  11.034
66340W        W38666  16.778   4.695  14.479
66341W        W38667  13.757   3.313  13.775
66342W        W38668  37.112  29.673   1.275
66343W        W38669  39.124  11.949  10.432
66344W        W38670  32.507  32.186   3.880
66345W        W38671  34.079  32.494   0.200
66346W        W38672  23.607  35.563   4.692
66347W        W38673   5.154  32.147   0.773
66348W        W38674  29.151  14.527  13.382
66349W        W38675   5.871  20.528   0.426
66350W        W38676  41.427  21.434   4.783
66351W        W38677  16.580   9.304   2.598
66352W        W38678  25.674  15.177   1.734
66353W        W38679  18.613  43.848   1.883
66354W        W38680  13.127  38.956  12.606
66355W        W38681  17.623  32.097  14.934
66356W        W38682  16.747  41.105  11.607
66357W        W38683  12.700  42.505  10.622
66358W        W38684  27.873  36.604   4.109
66359W        W38685  30.199   3.424   4.558
66360W        W38686   5.645  33.728   1.636
66361W        W38687  44.264  15.306  14.791
66362W        W38688  32.129  26.417  10.352
66363W        W38689   6.416  44.912   2.708
66364W        W38690  42.190   6.180   5.110
66365W        W38691  21.707  41.638   1.392
66366W        W38692  15.565   3.396  11.789
66367W        W38693   1.993  30.830  11.439
66368W        W38694  10.358  33.282  10.643
66369W        W38695  30.960  28.460   0.604
66370W        W38696  32.988  29.991  13.640
66371W        W38697  34.549  21.917  14.937
66372W        W38698  44.013   9.461  13.345
66373W        W38699   4.757  24.327  13.430
66374W        W38700  31.452  25.732  14.745
66375W        W38701  35.557  15.644   1.413
66376W        W38702  32.532   8.154   3.365
66377W        W38703   6.474   6.855  14.833
66378W        W38704  19.884  11.942   4.237
66379W        W38705  38.862  25.216   4.768
66380W        W38706  19.678   1.780  13.622
66381W        W38707  15.723  11.157  12.788
66382W        W38708   8.615  24.544  11.965
66383W        W38709   2.920  25.100  11.870
66384W        W38710  23.381  35.118   2.236
66385W        W38711   6.794  14.857   3.080
66386W        W38712  12.725  21.307   3.324
66387W        W38713  23.795   7.329   0.911
66388W        W38714  36.096  34.899  14.075
66389W        W38715  40.828  26.990  13.512
66390W        W38716  33.061  43.295  13.073
66391W        W38717  38.557  19.982   3.805
66392W        W38718  29.029  40.896   2.589
66393W        W38719  16.492   6.852  14.847
66394W        W38720  42.800   3.858   2.824
66395W        W38721  22.294  13.839   4.597
66396W        W38722  28.484  16.189   1.271
66397W        W38723  15.139  13.350   2.301
66398W        W38724  10.761   0.404   0.353
66399W        W38725   5.688  41.125  12.638
66400W        W38726  19.019  16.634  11.104
66401W        W38727  22.389  15.320  14.824
66402W        W38728  15.353   4.271  14.400
66403W        W38729  43.384  32.969  11.707
66404W        W38730  26.284  11.105   2.364
66405W        W38731  28.724  11.197  11.516
66406W        W38732  20.852  44.024  12.291
66407W        W38733  30.904  26.546   4.121
66408W        W38734  36.114   6.191  10.674
66409W        W38735  25.767  27.716   4.692
66410W        W38736  31.356  10.180  12.485
66411W        W38737  10.304  27.139   2.418
66412W        W38738  17.032  37.361  14.282
66413W        W38739  11.547  16.307  13.115
66414W        W38740  22.130  30.876  10.798
66415W        W38741  38.305  16.781   1.932
66416W        W38742  35.026  27.593   3.265
66417W        W38743  31.048   7.806  12.052
66418W        W38744  36.547  39.784   4.003
66419W        W38745  27.091  14.015  14.732
66420W        W38746  36.107  22.455  12.054
66421W        W38747  29.433  29.081  10.534
66422W        W38748  38.538   2.202   0.417
66423W        W38749  36.328  11.447  11.584
66424W        W38750  33.142   5.170   4.898
66425W        W38751  24.041  43.255  11.704
66426W        W38752  36.560  22.491   0.248
66427W        W38753  13.047  33.446  11.064
66428W        W38754   5.971  28.599   3.973
66429W        W38755  10.422  34.686   3.649
66430W        W38756  25.217  15.543  12.582
66431W        W38757  27.473  24.580   0.318
66432W        W38758  17.167  29.761   0.269
66433W        W38759  26.624  14.285  12.514
66434W        W38760  41.246  34.414  11.113
66435W        W38761  18.706  20.025  12.983
66436W        W38762  21.420  42.882  13.352
66437W        W38763  14.131  15.662  11.388
66438W        W38764  21.156   2.440  10.693
66439W        W38765  21.479  16.010   9.973
66440W        W38766  20.604  15.115  13.951
66441W        W38767  33.340  38.943   2.811
66442W        W38768  12.926  14.988  11.620
66443W        W38769  12.739  30.121   2.618
66444W        W38770   7.350  21.258  12.012
66445W        W38771  36.185  29.440  10.799
66446W        W38772  10.746  26.261   5.367
66447W        W38773  14.370   7.889  14.328
66448W        W38774   2.438  42.578   4.260
66449W        W38775  15.596  39.179   4.275
66450W        W38776   0.743  29.114   4.313
66451W        W38777  28.683  37.346   4.184
66452W        W38778   0.029  36.173  13.325
66453W        W38779  24.734  19.696  10.577
66454W        W38780  17.599  37.370   3.458
66455W        W38781  18.688  40.268   0.256
66456W        W38782  10.764   3.002   4.072
66457W        W38783  26.038  11.299  14.449
66458W        W38784  37.837  18.995  12.895
66459W        W38785  25.041  31.952  10.671
66460W        W38786  13.987  14.226   0.061
66461W        W38787  13.091  41.053   4.939
66462W        W38788  13.257   4.458  14.837
66463W        W38789  36.312  41.227  10.261
66464W        W38790  33.080  16.119  14.358
66465W        W38791   8.852  20.614   1.374
66466W        W38792   2.972  38.559   1.202
66467W        W38793  28.437  19.249   1.005
66468W        W38794  32.625  26.711   1.810
66469W        W38795  31.026  25.144  11.466
66470W        W38796  11.295  12.187  12.035
66471W        W38797   9.925  25.218   2.298
66472W        W38798  36.491   1.216   3.836
66473W        W38799  19.901  22.047  14.756
66474W        W38800   8.912   5.225   4.528
66475W        W38801  39.790  41.302   4.513
66476W        W38802  35.548  27.431   0.751
66477W        W38803  33.687  13.396  11.193
66478W        W38804  27.769  25.632   1.868
66479W        W38805  26.989  17.264  14.488
66480W        W38806  15.147  37.598  13.878
66481W        W38807  24.089   9.227   1.659
66482W        W38808  39.925   6.907  14.425
66483W        W38809  39.070  25.126   3.349
66484W        W38810  39.781  21.852   2.273
66485W        W38811  17.555  29.136   4.558
66486W        W38812   7.478  22.654   3.147
66487W        W38813   5.604  27.095   0.393
66488W        W38814  31.952  15.260   2.917
66489W        W38815  12.860  37.181  11.075
66490W        W38816  14.757  24.625  14.828
66491W        W38817  10.218  29.166  13.861
66492W        W38818  22.649  39.988  13.392
66493W        W38819  25.137  44.157  12.987
66494W        W38820  39.989  13.330   2.820
66495W        W38821  29.432   9.738  14.518
66496W        W38822  36.786  30.141  13.359
66497W        W38823  32.554   9.867   4.207
66498W        W38824  11.170   5.397  13.596
66499W        W38825   7.033  29.955  11.619
66500W        W38826  34.978   9.720   4.530
66501W        W38827  39.480  34.892  11.064
66502W        W38828   2.215   2.194  13.624
66503W        W38829  10.987  23.259  11.589
66504W        W38830  27.631   8.444   1.407
66505W        W38831  32.421  11.393   0.363
66506W        W38832  32.494  13.108  12.080
66507W        W38833  43.495  24.489   1.571
66508W        W38834  18.564  36.018   3.512
66509W        W38835  28.104   6.092   1.608
66510W        W38836  30.937  35.512   1.475
66511W        W38837   4.614  30.846   1.671
66512W        W38838  44.342   4.755   2.731
66513W        W38839  13.569  21.753   1.762
66514W        W38840  30.076  19.613   3.164
66515W        W38841  37.495  41.827   0.797
66516W        W38842  11.661   9.299   4.488
66517W        W38843  18.758   3.724  11.016
66518W        W38844   2.279  19.615   4.261
66519W        W38845  10.228  27.920   4.549
66520W        W38846   5.185   7.610   1.927
66521W        W38847  12.749  23.680  12.419
66522W        W38848  36.725  12.003   2.023
66523W        W38849  27.918  30.158  10.352
66524W        W38850  21.566   3.452   1.814
66525W        W38851  38.006   8.631  11.172
66526W        W38852  12.086  31.588  14.463
66527W        W38853  37.418   2.270   0.315
66528W        W38854   1.342  32.861  11.417
66529W        W38855  29.987  43.302   1.104
66530W        W38856  28.006   8.765  13.227
66531W        W38857   6.891  26.683  11.249
66532W        W38858  25.826  12.187   4.220
66533W        W38859   5.191  32.321   9.901
66534W        W38860  34.019   4.899  13.361
66535W        W38861  36.860  41.687  10.867
66536W        W38862  13.496   6.700  10.769
66537W        W38863   1.796   1.912  10.004
66538W        W38864  21.631   9.588   2.135
66539W        W38865  35.282   6.203  14.503
66540W        W38866  23.350  13.279  12.763
66541W        W38867  35.985  42.008   1.713
66542W        W38868  18.638  21.498  11.653
66543W        W38869   0.435  11.138  11.146
66544W        W38870  25.901  29.539   0.891
66545W        W38871  36.630  44.532  11.536
66546W        W38872  30.033  21.303   2.843
66547W        W38873  19.559  26.486  11.095
66548W        W38874  30.584  16.110  11.525
66549W        W38875  29.655  17.838  11.821
66550W        W38876  29.482   1.245   4.905
66551W        W38877  14.758   1.069  12.811
66552W        W38878  36.054  14.016  13.351
66553W        W38879  27.226  16.171   4.141
66554W        W38880   7.961  31.869   4.164
66555W        W38881  44.483  33.547  12.529
66556W        W38882   5.728   2.257  13.349
66557W        W38883  19.225  37.920  14.480
66558W        W38884  21.656  15.681   4.317
66559W        W38885  32.861   7.954  11.134
66560W        W38886   2.278  20.925  12.555
66561W        W38887  36.941  23.487  11.184
66562W        W38888  32.488  35.823   4.616
66563W        W38889  43.289  13.390   3.238
66564W        W38890  39.880  18.094  12.378
66565W        W38891  25.681   5.344   1.337
66566W        W38892  41.094  37.545   3.307
66567W        W38893  35.437  26.992   0.465
66568W        W38894  26.138  21.040   0.633
66569W        W38895  13.235  12.553  12.236
66570W        W38896  13.794  37.157   2.183
66571W        W38897  13.902   5.784  12.331
66572W        W38898  24.019  29.033  13.977
66573W        W38899   5.030  24.744  13.545
66574W        W38900   0.697   0.751   3.725
66575W        W38901  27.910  39.276  13.723
66576W        W38902  22.616   5.836   2.520
66577W        W38903   8.854  23.778   2.137
66578W        W38904  11.225  19.591  11.858
66579W        W38905   8.707   1.005  13.039
66580W        W38906  30.835   6.233  13.440
66581W        W38907  16.774  36.888  14.412
66582W        W38908  26.926  33.082   0.793
66583W        W38909  15.372  29.546   3.215
66584W        W38910  31.008  10.628   4.711
66585W        W38911  19.825  25.684  11.024
66586W        W38912   6.219  34.969   0.773
66587W        W38913   7.951  19.577   3.315
66588W        W38914  41.367  20.295   2.275
66589W        W38915  10.785   2.450   4.052
66590W        W38916  14.828  33.386   2.937
66591W        W38917  42.966  35.931  13.593
66592W        W38918  19.696  20.571   3.280
66593W        W38919  41.829  17.192  12.884
66594W        W38920  25.982  38.069   0.418
66595W        W38921  42.848  12.880   2.762
66596W        W38922  29.986   3.724  14.353
66597W        W38923   8.319   4.685   1.432
66598W        W38924  18.256   4.597  13.928
66599W        W38925  43.596   1.760   1.401
66600W        W38926  37.381   0.308   3.886
66601W        W38927  38.967  26.179   4.414
66602W        W38928  33.154  13.799   3.835
66603W        W38929  39.498  26.103  11.621
66604W        W38930  34.639  38.879  11.189
66605W        W38931  36.037  32.541  11.045
66606W        W38932  18.783   1.976  14.761
66607W        W38933  27.616  26.221   1.207
66608W        W38934   7.886   0.599   2.277
66609W        W38935  16.613  11.616  11.982
66610W        W38936   9.896  16.883   0.723
66611W        W38937  15.547   2.870  13.889
66612W        W38938   8.981  30.578   2.325
66613W        W38939  16.733  42.848   1.431
66614W        W38940   8.735  23.298  14.935
66615W        W38941  23.475  17.750   0.914
66616W        W38942  13.784  16.916  11.948
66617W        W38943  34.921  10.886  12.420
66618W        W38944  21.379  21.501  11.706
66619W        W38945   1.748  34.014   3.565
66620W        W38946   3.476  39.748  11.218
66621W        W38947  23.470   4.713   1.905
66622W        W38948  21.986   9.312  11.143
66623W        W38949  16.163  29.846   1.762
66624W        W38950   4.168  22.014  13.430
66625W        W38951  28.611  43.856  12.695
66626W        W38952  21.138   2.543   0.483
66627W        W38953  11.814  16.998  11.104
66628W        W38954  40.296  32.974  12.408
66629W        W38955  13.598  38.370   2.711
66630W        W38956  28.103  36.550   3.645
66631W        W38957  39.054  15.643  14.373
66632W        W38958  20.929  12.130   4.170
66633W        W38959  35.449   7.822   1.185
66634W        W38960  34.310   3.683  13.980
66635W        W38961   7.516   6.164  12.475
66636W        W38962  37.219   3.939   0.781
66637W        W38963  14.608  11.448  13.556
66638W        W38964   5.648  24.034   4.922
66639W        W38965  24.136  34.472   3.437
66640W        W38966  32.132  19.226   1.399
66641W        W38967  17.522  20.557  12.901
66642W        W38968  27.949   1.434  13.956
66643W        W38969   1.234  40.438   3.090
66644W        W38970   8.937  14.708   1.183
66645W        W38971  32.624  15.686   0.265
66646W        W38972   9.359  11.213   4.215
66647W        W38973  14.642   3.983   0.286
66648W        W38974  41.010   6.708   1.441
66649W        W38975   6.576  33.421  11.059
66650W        W38976  23.082  20.010  11.106
66651W        W38977  25.591   9.030  12.129
66652W        W38978  13.578  32.253  14.853
66653W        W38979  20.945  16.526   2.726
66654W        W38980  25.136  16.060  14.355
66655W        W38981  32.424   4.195  14.567
66656W        W38982   6.907  36.066  11.219
66657W        W38983   6.894  10.711   0.586
66658W        W38984  19.221  24.118  11.053
66659W        W38985   0.299  18.494  10.654
66660W        W38986  15.587  27.985   1.465
66661W        W38987   3.552   8.379  14.772
66662W        W38988  14.089  34.817   4.510
66663W        W38989  43.735  28.618   0.122
66664W        W38990   3.449  19.470  11.504
66665W        W38991   7.843  23.984  12.950
66666W        W38992  37.505   9.607   3.791
66667W        W38993  31.362  11.630  12.019
66668W        W38994   2.926  42.323   2.154
66669W        W38995  18.097  14.140  12.503
66670W        W38996  22.709   5.649   1.305
66671W        W38997  11.912   7.823  12.803
66672W        W38998  35.967   2.583  11.105
66673W        W38999   5.658  11.716  11.168
66674W        W39000   9.328  14.095   4.343
66675W        W39001  13.460   9.407   3.750
66676W        W39002  41.361  17.492  12.993
66677W        W39003  16.734  39.627  10.369
66678W        W39004   1.449  31.661  13.429
66679W        W39005  37.439  19.411  11.562
66680W        W39006  39.334  32.669  12.426
66681W        W39007   3.149  35.249   5.104
66682W        W39008  40.547  21.821   1.942
66683W        W39009   6.944  26.175  14.495
66684W        W39010  10.427  32.434  12.351
66685W        W39011   8.424  29.519   0.863
66686W        W39012  40.433  30.061   1.108
66687W        W39013  35.866  13.342   4.180
66688W        W39014  19.797  17.724  14.697
66689W        W39015  42.862  19.045   4.673
66690W        W39016  42.321  25.138  10.720
66691W        W39017  37.069  34.397   0.758
66692W        W39018  19.947  34.642   4.289
66693W        W39019  19.983  11.076   4.607
66694W        W39020  43.267  39.572   3.757
66695W        W39021  41.715   6.340  13.521
66696W        W39022  20.593  31.362  11.013
66697W        W39023  34.406  12.674   0.546
66698W        W39024   6.805  17.027   4.958
66699W        W39025  21.022  34.991  10.726
66700W        W39026   5.149   7.828   0.463
66701W        W39027  19.425  44.268   1.643
66702W        W39028  37.413  37.562  12.517
66703W        W39029  28.018  11.915   1.270
66704W        W39030  40.784   1.796  14.207
66705W        W39031  34.522  32.395  14.439
66706W        W39032  44.805  44.508  11.179
66707W        W39033  33.081  35.482   3.660
66708W        W39034  42.857  21.864   2.293
66709W        W39035   2.547  42.363  11.157
66710W        W39036   9.294  38.470   0.748
66711W        W39037  19.586  15.542  13.461
66712W        W39038   6.637  34.611  12.363
66713W        W39039  39.957  40.770   0.011
66714W        W39040  16.638  14.567   3.670
66715W        W39041  17.978  32.335  12.155
66716W        W39042  23.194  21.848   3.760
66717W        W39043  27.483  30.415   2.655
66718W        W39044  44.916  30.571   3.681
66719W        W39045  38.219  43.492  12.964
66720W        W39046  33.194   0.542   1.741
66721W        W39047  13.173  30.372  14.833
66722W        W39048  41.475  11.744   4.689
66723W        W39049  32.287  11.662   1.872
66724W        W39050  44.365   3.937   2.292
66725W        W39051  12.320  14.531   4.205
66726W        W39052  23.838   1.712  11.518
66727W        W39053  34.405   3.314   0.185
66728W        W39054  31.615  40.337   2.858
66729W        W39055  32.612  32.928   3.205
66730W        W39056  39.940  25.296  14.968
66731W        W39057  39.987  22.306  14.435
66732W        W39058  23.075  22.710   1.326
66733W        W39059  41.478   9.429  11.615
66734W        W39060  14.658  16.335  14.981
66735W        W39061   5.970  17.147   3.818
66736W        W39062   6.458  17.453  13.436
66737W        W39063  12.293   8.683   0.307
66738W        W39064  29.390  14.527  10.364
66739W        W39065   6.380  24.616  14.805
66740W        W39066  25.743  12.570  11.161
66741W        W39067  32.020  26.357  12.094
66742W        W39068   8.342  34.646  13.542
66743W        W39069  15.225   3.320   9.828
66744W        W39070  22.153  39.158  13.478
66745W        W39071   7.984  16.615   0.830
66746W        W39072  11.272   8.383   4.445
66747W        W39073  27.539   9.625   0.778
66748W        W39074  22.568  44.263   1.942
66749W        W39075   1.209   2.353  11.922
66750W        W39076  34.528  14.763   2.730
66751W        W39077  15.348  30.832   2.934
66752W        W39078  21.328  21.495   4.158
66753W        W39079  15.341  15.517   3.656
66754W        W39080  22.760  43.944  12.629
66755W        W39081   7.328  33.545   4.823
66756W        W39082  11.703   3.517   3.733
66757W        W39083  41.267  38.354   2.949
66758W        W39084  15.361  14.051   4.680
66759W        W39085  24.556  36.400   3.292
66760W        W39086  27.768  41.735   4.941
66761W        W39087  35.320  28.812   2.739
66762W        W39088  29.973  16.835  14.964
66763W        W39089   1.576  36.889  10.643
66764W        W39090  32.456   3.953   3.745
66765W        W39091  36.111   1.739   4.300
66766W        W39092  35.654   1.005   4.326
66767W        W39093  17.210  18.461   0.395
66768W        W39094   4.305  25.269  13.529
66769W        W39095  31.252   5.454   0.362
66770W        W39096  41.770   0.385  11.566
66771W        W39097   8.607  32.880  14.139
66772W        W39098  14.122  15.832   2.815
66773W        W39099  14.215  26.543   3.231
66774W        W39100  18.913  34.565   3.187
66775W        W39101   6.857  34.835  14.010
66776W        W39102  33.372  30.612   2.828
66777W        W39103  38.288  10.936   1.009
66778W        W39104  16.748  11.220  11.063
66779W        W39105  41.457  41.277   0.827
66780W        W39106  15.201   8.469   2.210
66781W        W39107  26.588  34.159  14.820
66782W        W39108  28.092  15.982  11.587
66783W        W39109  44.299  30.160   0.897
66784W        W39110  28.958   7.123   2.333
66785W        W39111  18.186  27.591  12.888
66786W        W39112  25.520   8.545   3.743
66787W        W39113  26.758  34.646  14.922
66788W        W39114  38.094   1.716  12.597
66789W        W39115  38.856  15.029   4.595
66790W        W39116  17.223  14.152   4.734
66791W        W39117   1.226  22.096  14.471
66792W        W39118  42.558  14.198   1.274
66793W        W39119  28.231  31.447   3.727
66794W        W39120  24.859   1.982  13.814
66795W        W39121  36.076  40.828   0.884
66796W        W39122  23.933   0.660   3.355
66797W        W39123  43.222  11.206  13.544
66798W        W39124  19.096  42.504   1.267
66799W        W39125   9.390  21.461  12.867
66800W        W39126  35.605  25.942   0.258
66801W        W39127  25.414  18.615   0.514
66802W        W39128  14.810  41.441  11.380
66803W        W39129  24.089   1.874   2.467
66804W        W39130  15.834  20.287  11.195
66805W        W39131  30.416   9.708  11.518
66806W        W39132  37.828  16.653  13.159
66807W        W39133  12.833  29.685  13.600
66808W        W39134  16.476  24.518   4.203
66809W        W39135   4.852  30.924   2.164
66810W        W39136   1.722  40.747   1.004
66811W        W39137   9.333  38.722  12.873
66812W        W39138  32.402   8.608  10.675
66813W        W39139  14.094  11.665   4.551
66814W        W39140  17.539  19.266  11.588
66815W        W39141  35.034  39.983   0.284
66816W        W39142  23.485  43.252  12.418
66817W        W39143  26.950  42.459   4.044
66818W        W39144  14.559  23.075   3.189
66819W        W39145   9.350  26.907   1.325
66820W        W39146  18.889  22.480   0.911
66821W        W39147  20.759  36.794  13.417
66822W        W39148  38.119   1.382   0.400
66823W        W39149  33.285  44.789   2.429
66824W        W39150  44.897   2.274  10.565
66825W        W39151   4.513  44.494   3.824
66826W        W39152  25.726  18.602  10.512
66827W        W39153  31.452  37.475   0.365
66828W        W39154  24.978  25.677   3.150
66829W        W39155  37.481   1.967   0.721
66830W        W39156  43.501  18.638  11.127
66831W        W39157  32.410  33.902   3.192
66832W        W39158  42.792   8.250  12.454
66833W        W39159  22.186  19.554  11.880
66834W        W39160  34.942  26.657  13.862
66835W        W39161  36.640  36.538   1.780
66836W        W39162   6.377  20.680   2.303
66837W        W39163   0.643   0.643  11.074
66838W        W39164  28.571  28.769  13.267
66839W        W39165  42.441  21.441  14.525
66840W        W39166   4.726   5.822  10.597
66841W        W39167  42.755  40.867   3.694
66842W        W39168   7.468  14.771  13.582
66843W        W39169  24.196  44.278   4.624
66844W        W39170  40.314  35.955  14.986
66845W        W39171  32.527   2.918  11.583
66846W        W39172  27.945   7.777  13.483
66847W        W39173  37.028  14.750   1.407
66848W        W39174  39.717  37.975  11.117
66849W        W39175  44.080  20.098  11.236
66850W        W39176  20.945   6.285   3.151
66851W        W39177   2.974  42.374   1.619
66852W        W39178  18.196   8.459   3.632
66853W        W39179  18.827  41.004   1.716
66854W        W39180  31.214  21.613   2.278
66855W        W39181  37.085  32.732  14.941
66856W        W39182  27.947  39.505  14.923
66857W        W39183  41.402  39.262   2.882
66858W        W39184  13.035   3.283   2.745
66859W        W39185  39.898   4.929   2.776
66860W        W39186  23.574   5.159  12.278
66861W        W39187   5.932  19.383  10.689
66862W        W39188  15.009  34.058  12.771
66863W        W39189  44.737   7.218   0.392
66864W        W39190  23.472   7.843   1.791
66865W        W39191   9.425  20.772   2.794
66866W        W39192  36.523  15.304  10.718
66867W        W39193  27.549   6.003   2.960
66868W        W39194  42.375  26.919   3.681
66869W        W39195  24.862  42.204   5.012
66870W        W39196  12.899  11.010  12.292
66871W        W39197  29.175  38.855  13.963
66872W        W39198  39.062  10.595  11.579
66873W        W39199  30.177  24.666   0.871
66874W        W39200   4.869  24.240   3.161
66875W        W39201  36.564   0.338  13.346
66876W        W39202   4.368  20.140  12.495
66877W        W39203  14.127  39.359  11.730
66878W        W39204  19.658  38.760   4.147
66879W        W39205   8.483  32.092   0.027
66880W        W39206  10.341  37.917  11.192
66881W        W39207  40.040  19.220   3.074
66882W        W39208  35.897   0.736   3.918
66883W        W39209  43.906  12.613  10.541
66884W        W39210   6.262  10.172   3.671
66885W        W39211   8.412  25.013  14.303
66886W        W39212  28.027  30.626   4.152
66887W        W39213  29.120   9.759   2.648
66888W        W39214  26.439  21.757   1.732
66889W        W39215  32.679  35.265  10.502
66890W        W39216  14.694  25.395   1.760
66891W        W39217   1.030   7.836   3.209
66892W        W39218  40.053  22.178  10.754
66893W        W39219  25.568  25.701  12.735
66894W        W39220  40.000  10.808  11.126
66895W        W39221   0.569  42.236  14.316
66896W        W39222   0.246  31.132   3.352
66897W        W39223  27.454   5.633  14.778
66898W        W39224   0.312   6.391   3.626
66899W        W39225  21.255  36.054   0.418
66900W        W39226  29.655  33.733   3.701
66901W        W39227   0.322   6.176  10.633
66902W        W39228   6.357  42.555   0.435
66903W        W39229  37.424  35.241  14.003
66904W        W39230  43.834   3.030   0.970
66905W        W39231   3.825  12.865  11.808
66906W        W39232   2.110  27.260  13.369
66907W        W39233  39.566   5.337  11.812
66908W        W39234  16.196   6.701   0.465
66909W        W39235  18.503  16.084  10.560
66910W        W39236  29.941  12.181  14.933
66911W        W39237  43.862  15.163  12.440
66912W        W39238  40.209   4.196   1.845
66913W        W39239  20.120  17.183  13.600
66914W        W39240   2.787  25.975   4.967
66915W        W39241  31.892  13.237   3.727
66916W        W39242  27.542  40.120  14.401
66917W        W39243  14.086  43.275  13.997
66918W        W39244  26.046  38.861  11.598
66919W        W39245  16.377  22.991   0.816
66920W        W39246  26.723  32.973  10.342
66921W        W39247  30.702  29.443  14.779
66922W        W39248  41.942  28.125   4.606
66923W        W39249  44.395  25.192   2.188
66924W        W39250  20.087  44.208  10.625
66925W        W39251   8.688  41.302  13.422
66926W        W39252  25.366  16.259   4.241
66927W        W39253  23.099   0.390  13.264
66928W        W39254  40.603   7.898  14.721
66929W        W39255   9.656  31.086  12.790
66930W        W39256   4.503  27.617   3.726
66931W        W39257  36.472  24.944  12.859
66932W        W39258   0.025   3.512   4.254
66933W        W39259  14.192  38.332  13.185
66934W        W39260  44.731  22.078  14.279
66935W        W39261  36.897  41.738  12.642
66936W        W39262   3.288   8.820  13.417
66937W        W39263  33.927  18.575   4.050
66938W        W39264  42.307   7.663   0.433
66939W        W39265  28.482  30.890   4.169
66940W        W39266   6.197  14.294   1.396
66941W        W39267  29.415  40.482   4.630
66942W        W39268  25.988  44.495   4.797
66943W        W39269  26.116  39.388  11.997
66944W        W39270  32.005  34.036   4.319
66945W        W39271   8.652   7.475   1.295
66946W        W39272  22.513   8.683  13.574
66947W        W39273   9.058  35.853   9.838
66948W        W39274   1.391  28.625   2.109
66949W        W39275  35.046  21.919  13.744
66950W        W39276  43.942  25.063  14.831
66951W        W39277  18.574  17.462  11.232
66952W        W39278  21.527  43.349  13.092
66953W        W39279   7.522  17.758  12.076
66954W        W39280  28.915  19.004  12.092
66955W        W39281  11.606  14.634  14.918
66956W        W39282  13.687  36.096  10.502
66957W        W39283   7.670  38.888  11.129
66958W        W39284   0.992  18.153  11.099
66959W        W39285  18.139  22.986  14.930
66960W        W39286   7.812   1.984   0.283
66961W        W39287  16.322  11.351   0.947
66962W        W39288   8.866  21.558  14.850
66963W        W39289  15.621  41.845   1.746
66964W        W39290  16.590  16.828   0.667
66965W        W39291   4.818  36.826  12.899
66966W        W39292  34.116  10.074   2.813
66967W        W39293  32.477  32.742   0.875
66968W        W39294  34.625  33.673   4.950
66969W        W39295  18.758  43.888   2.383
66970W        W39296   8.463  42.914   0.404
66971W        W39297   0.685  22.034   2.731
66972W        W39298   3.088   1.297  14.193
66973W        W39299   9.183  22.606   4.394
66974W        W39300  18.606  30.416  14.805
66975W        W39301  17.510   7.986   0.551
66976W        W39302  34.518  16.530  12.486
66977W        W39303  34.634  28.509   4.061
66978W        W39304  31.522  21.297   3.086
66979W        W39305  18.241   2.787  14.760
66980W        W39306   1.020  27.408  13.247
66981W        W39307  31.384  14.004   4.095
66982W        W39308  28.042  39.099  13.040
66983W        W39309  38.547   7.695  12.447
66984W        W39310  16.529  36.368  10.772
66985W        W39311  20.235   5.851   4.124
66986W        W39312  26.032   8.948  11.816
66987W        W39313  21.511  41.326   0.414
66988W        W39314  32.321   8.426   2.988
66989W        W39315  26.053  43.838  12.702
66990W        W39316  10.168   9.205  11.951
66991W        W39317  22.429  30.070   1.311
66992W        W39318  42.360   2.670  11.747
66993W        W39319   5.200  28.700  13.772
66994W        W39320   0.389  21.180   3.727
66995W        W39321  29.998  14.557  14.982
66996W        W39322  42.765  30.014   0.872
66997W        W39323  27.393  25.970  12.368
66998W        W39324  38.871  43.435  14.803
66999W        W39325  13.074  12.043   0.871
67000W        W39326  39.783  22.749   0.427
67001W        W39327  16.350  30.470   0.711
67002W        W39328  28.171  38.902  13.981
67003W        W39329   6.682  10.400   3.194
67004W        W39330  19.462  13.208   3.285
67005W        W39331  32.732  19.156  12.083
67006W        W39332  36.097   8.254  13.338
67007W        W39333  10.488  25.503  14.530
67008W        W39334  39.624  13.569  12.178
67009W        W39335  19.967  43.999  11.936
67010W        W39336  33.119   1.716   4.979
67011W        W39337  25.503  35.473  11.356
67012W        W39338  27.941   3.891  11.532
67013W        W39339  29.568  29.450  12.936
67014W        W39340  35.888  18.764   2.880
67015W        W39341   4.940  34.104  12.830
67016W        W39342  13.189  33.005  14.774
67017W        W39343   7.351  32.907  12.887
67018W        W39344  18.803  35.131  11.008
67019W        W39345  30.128   9.490   2.836
67020W        W39346  32.658  34.614  14.017
67021W        W39347  27.998  20.039   4.615
67022W        W39348  14.688  34.051   4.140
67023W        W39349   2.017  18.804   2.731
67024W        W39350  18.149  23.897   0.459
67025W        W39351  23.771  13.809   2.901
67026W        W39352  22.762  32.477   9.896
67027W        W39353   7.019   3.382   1.286
67028W        W39354  19.560   1.201  14.021
67029W        W39355  39.815  20.096   3.885
67030W        W39356  36.979  17.095   0.841
67031W        W39357  11.813   9.094   4.020
67032W        W39358  32.353  29.025   4.075
67033W        W39359  21.157  17.623  11.483
67034W        W39360  41.358   6.963   4.524
67035W        W39361  36.958  37.739  13.510
67036W        W39362   8.746  10.919  11.974
67037W        W39363  33.155  31.219  11.291
67038W        W39364  10.166  10.259  12.097
67039W        W39365  32.992  31.787   2.063
67040W        W39366  15.117  16.831   4.164
67041W        W39367  37.026  24.319  11.508
67042W        W39368  14.302  20.244  14.359
67043W        W39369   7.883  21.468   3.508
67044W        W39370  11.704  38.268   0.687
67045W        W39371  44.264  37.010  12.858
67046W        W39372  38.282  30.082  11.547
67047W        W39373   9.185  13.089  11.944
67048W        W39374   9.318  32.924  10.707
67049W        W39375  30.660  19.364  12.422
67050W        W39376  24.721  21.583  13.448
67051W        W39377  16.329  36.034  13.418
67052W        W39378  30.186  36.303   2.444
67053W        W39379  18.821  15.995  14.444
67054W        W39380  27.959   6.798  13.377
67055W        W39381  12.026  15.335   3.095
67056W        W39382   6.867  34.072  14.550
67057W        W39383  38.140  10.665   4.226
67058W        W39384  17.960  42.068   4.203
67059W        W39385  20.582  30.977   2.228
67060W        W39386   3.004  41.278  11.346
67061W        W39387  42.438  44.952  13.434
67062W        W39388  34.064  29.417  10.632
67063W        W39389  26.256  31.524   4.984
67064W        W39390   1.045  40.627  13.442
67065W        W39391  20.144  42.818   4.421
67066W        W39392   5.761  30.466   4.199
67067W        W39393  22.023  30.204  14.868
67068W        W39394   6.166  17.691   2.757
67069W        W39395  15.163  42.582  10.855
67070W        W39396  37.933   9.097  10.320
67071W        W39397  35.372   8.316  12.600
67072W        W39398  10.832  43.029  14.481
67073W        W39399  43.452  11.688  11.887
67074W        W39400  14.276  42.446   1.782
67075W        W39401  14.231  36.530   0.281
67076W        W39402  32.824  13.512  11.974
67077W        W39403  31.151  17.265   3.284
67078W        W39404  26.848  42.503  14.959
67079W        W39405  23.100  27.714   0.961
67080W        W39406  11.246  17.520   3.781
67081W        W39407   6.143   9.374   0.632
67082W        W39408  11.713   7.510   0.808
67083W        W39409   8.820  17.138   4.591
67084W        W39410   9.247  17.710   0.671
67085W        W39411  10.784   0.797  11.165
67086W        W39412  16.858  29.150   3.999
67087W        W39413  37.209  40.872   2.620
67088W        W39414   6.787  10.560  11.949
67089W        W39415  33.864   5.652  12.654
67090W        W39416  37.383   2.446   2.822
67091W        W39417   0.033  14.093   0.343
67092W        W39418  25.485   7.456   9.888
67093W        W39419  30.049   7.719  11.666
67094W        W39420  24.641  23.894   1.254
67095W        W39421  12.756  36.410   0.815
67096W        W39422  13.050   3.795  12.642
67097W        W39423   5.803   4.833   1.408
67098W        W39424  40.526  26.579   3.747
67099W        W39425   2.784  19.164   1.659
67100W        W39426  19.246  39.343  14.306
67101W        W39427  26.115  44.011   0.007
67102W        W39428   6.797  15.283   4.324
67103W        W39429  29.670  37.068  12.803
67104W        W39430  19.129  18.684  14.467
67105W        W39431  23.091  23.081   4.573
67106W        W39432  29.500  42.503  10.730
67107W        W39433  19.211  28.049  11.269
67108W        W39434  22.708   3.663  10.787
67109W        W39435  41.211  25.650   2.830
67110W        W39436  35.872  32.374   1.246
67111W        W39437  19.169   1.467   4.704
67112W        W39438  20.826   8.725  12.919
67113W        W39439  13.044  42.477   1.368
67114W        W39440  23.211   9.469   1.359
67115W        W39441  35.834  15.460   0.106
67116W        W39442  12.891  38.880   0.335
67117W        W39443  42.576   5.747  12.050
67118W        W39444   3.764  39.118   0.384
67119W        W39445   8.734  24.038   3.285
67120W        W39446  16.632  10.117   3.188
67121W        W39447  26.485  28.367   5.093
67122W        W39448  38.537   7.300   4.349
67123W        W39449  28.468  44.811   2.118
67124W        W39450  36.886  18.535  10.753
67125W        W39451   7.788  20.334  14.564
67126W        W39452  28.989  23.607  12.160
67127W        W39453  26.313  44.147  11.564
67128W        W39454  39.529  15.042  12.136
67129W        W39455  36.607  36.330  14.107
67130W        W39456  18.172  15.781  14.118
67131W        W39457  30.599  38.048  12.823
67132W        W39458  23.980   0.498   0.856
67133W        W39459  28.455   5.345   1.189
67134W        W39460  32.002  33.217   1.321
67135W        W39461  11.787  40.402  11.474
67136W        W39462   4.717   3.761   4.144
67137W        W39463  18.985  44.967  14.381
67138W        W39464  19.804  17.468  11.317
67139W        W39465  24.109   6.693   4.518
67140W        W39466   0.805  19.620  12.118
67141W        W39467  27.558   3.446  12.341
67142W        W39468  15.310  43.275   0.504
67143W        W39469  14.824   7.832   4.541
67144W        W39470   9.168   8.143  14.672
67145W        W39471   8.980  37.842  12.478
67146W        W39472   7.962   8.141   1.850
67147W        W39473  31.733   7.135  11.569
67148W        W39474   5.715   5.482   2.329
67149W        W39475  31.592  21.812  11.526
67150W        W39476  18.678   8.306  10.953
67151W        W39477  41.214   6.329  10.795
67152W        W39478  35.411  21.963   1.103
67153W        W39479  20.756  41.529  13.513
67154W        W39480   5.793  42.796   3.616
67155W        W39481  21.223  26.426   2.881
67156W        W39482  43.916  15.743   1.283
67157W        W39483  41.963  15.847   1.290
67158W        W39484  39.656  13.271   0.427
67159W        W39485  28.147  27.686  10.700
67160W        W39486  20.471  36.066   1.133
67161W        W39487   7.436  38.961  13.583
67162W        W39488  29.595  39.038   3.070
67163W        W39489  36.894   3.317  13.393
67164W        W39490  21.102   8.288   2.575
67165W        W39491  35.316  25.126   1.033
67166W        W39492   2.492  29.124  11.021
67167W        W39493  34.003  24.728  10.702
67168W        W39494  26.005  22.092  13.026
67169W        W39495  16.113  22.749  11.110
67170W        W39496  14.316  31.604   2.205
67171W        W39497  12.814   9.331  13.990
67172W        W39498   6.456  35.938  14.955
67173W        W39499  37.493  15.776  10.768
67174W        W39500   5.391   8.630  10.924
67175W        W39501  43.668  14.512   2.506
67176W        W39502   9.833  23.949  10.628
67177W        W39503  18.243   2.339   4.547
67178W        W39504  21.584  42.647   1.247
67179W        W39505  44.343  23.014   3.669
67180W        W39506  22.497  36.589  13.235
67181W        W39507   2.468  17.403  13.980
67182W        W39508   7.735  17.686  13.934
67183W        W39509  22.691   3.328  13.769
67184W        W39510  12.425  24.945   2.804
67185W        W39511  24.123  34.910   2.614
67186W        W39512   2.960  23.515  12.441
67187W        W39513  13.092   4.855   4.136
67188W        W39514  36.969  21.461  10.747
67189W        W39515  21.733  41.926  14.351
67190W        W39516  11.090   6.393  12.092
67191W        W39517  33.984  18.624  11.415
67192W        W39518  23.558  36.901  12.498
67193W        W39519  41.342   8.794  13.238
67194W        W39520  29.652  27.113  11.024
67195W        W39521   5.705  36.845   4.273
67196W        W39522  10.583  11.809  11.221
67197W        W39523  12.014  19.197  12.195
67198W        W39524  30.698   5.706  11.553
67199W        W39525  25.599  11.562  14.343
67200W        W39526  42.380  37.946   2.870
67201W        W39527   1.743  19.472   1.367
67202W        W39528  18.371  41.454  13.477
67203W        W39529  36.114  22.615  13.938
67204W        W39530  20.865  23.659   1.339
67205W        W39531  22.113  12.597  13.534
67206W        W39532  36.568   4.686   3.764
67207W        W39533  39.373  33.524   3.913
67208W        W39534  26.423  38.507  11.529
67209W        W39535  35.168  15.634  12.028
67210W        W39536  20.051  41.940  13.484
67211W        W39537  33.125  37.033  12.152
67212W        W39538  24.697  38.077   3.791
67213W        W39539  24.901  42.420   0.431
67214W        W39540  14.210  15.789  13.520
67215W        W39541  23.230   3.993  13.792
67216W        W39542  19.904   2.819   2.379
67217W        W39543  40.433  13.607   0.118
67218W        W39544  14.348  40.270   3.853
67219W        W39545  18.368  15.265   2.835
67220W        W39546  21.327   0.380  14.833
67221W        W39547  39.443  36.044   1.941
67222W        W39548  35.275  12.394   9.877
67223W        W39549  30.390  10.606   0.747
67224W        W39550  40.609  39.884  14.907
67225W        W39551   4.132  32.976   1.117
67226W        W39552  29.412  25.227  10.260
67227W        W39553  33.243  24.868  12.459
67228W        W39554  22.530  35.212  14.369
67229W        W39555   0.062  37.053  11.552
67230W        W39556   8.792  22.488   2.746
67231W        W39557  42.367  14.220  14.394
67232W        W39558  22.849  16.576  13.559
67233W        W39559  31.840  13.199   5.178
67234W        W39560  13.174   0.932  14.294
67235W        W39561  15.202  13.734  14.718
67236W        W39562   0.317  35.899   1.798
67237W        W39563  22.252   5.653   2.201
67238W        W39564  39.213  40.150   4.201
67239W        W39565   8.131  41.736   1.430
67240W        W39566  39.305  36.441  13.372
67241W        W39567  28.158   6.418  11.078
67242W        W39568  38.440  40.851   4.396
67243W        W39569  29.705  31.311  11.844
67244W        W39570  43.994  23.437  11.905
67245W        W39571  30.223   3.164  14.868
67246W        W39572  25.606  37.658  13.877
67247W        W39573   6.268   5.061   5.253
67248W        W39574  15.663  32.914   1.743
67249W        W39575   4.809  15.789  11.848
67250W        W39576  11.643  39.532  14.035
67251W        W39577  44.919  38.770   0.835
67252W        W39578   2.803  11.696   1.696
67253W        W39579   7.204  23.946   2.283
67254W        W39580  36.430   1.241   0.125
67255W        W39581   1.338  14.416   3.736
67256W        W39582  32.989  18.191  14.991
67257W        W39583   2.738  25.675   2.886
67258W        W39584  19.079  27.616  13.343
67259W        W39585  35.721  28.431   5.086
67260W        W39586  13.090   2.344  11.125
67261W        W39587  30.561  40.422   2.878
67262W        W39588  31.196  17.281   0.019
67263W        W39589  25.123  10.277   1.776
67264W        W39590  25.770  21.090   2.829
67265W        W39591   2.720  29.431   4.554
67266W        W39592  26.756  39.835   0.478
67267W        W39593  44.273  16.814   4.577
67268W        W39594  41.257  30.516   2.789
67269W        W39595  34.823  30.655  12.548
67270W        W39596  35.909  16.614   1.355
67271W        W39597  25.561  13.629  14.047
67272W        W39598  38.032   0.859   0.670
67273W        W39599   0.668  32.522  13.354
67274W        W39600   8.978  41.796   4.960
67275W        W39601  33.821  26.168   4.588
67276W        W39602   7.175  20.004  12.465
67277W        W39603  29.959  26.459   1.311
67278W        W39604  24.172  35.008  13.845
67279W        W39605  31.497   9.204   3.471
67280W        W39606  29.519  13.858   1.889
67281W        W39607  36.973  35.502  12.473
67282W        W39608  44.751  17.553  13.401
67283W        W39609  17.623  26.726  12.909
67284W        W39610   2.803  26.374   3.725
67285W        W39611   6.265  20.777  11.399
67286W        W39612  19.094  39.478   3.878
67287W        W39613  16.590  24.170  12.611
67288W        W39614  32.835  37.012   1.978
67289W        W39615  14.242   0.857   0.826
67290W        W39616  38.430  38.002   1.358
67291W        W39617  19.527  11.638  13.809
67292W        W39618   1.470   6.898  11.239
67293W        W39619  24.635   5.972  11.657
67294W        W39620  42.088   3.676   0.796
67295W        W39621   2.197  15.625   3.193
67296W        W39622  37.789  40.993  13.364
67297W        W39623  28.481  16.678  14.012
67298W        W39624  40.259  10.825   3.634
67299W        W39625   4.709  15.719   4.419
67300W        W39626   2.279   6.269  10.662
67301W        W39627  19.770  12.738  12.014
67302W        W39628  35.801   4.580   3.562
67303W        W39629  10.278  25.889  12.355
67304W        W39630  24.101  44.014  14.656
67305W        W39631  41.824   3.678   2.697
67306W        W39632   5.398  29.346   0.719
67307W        W39633  27.689   9.207  11.680
67308W        W39634   6.745  34.902   0.821
67309W        W39635   1.217  15.378  12.884
67310W        W39636  44.879  15.183  11.870
67311W        W39637  27.645  24.593   4.093
67312W        W39638  10.115  21.160   3.646
67313W        W39639   3.108  31.634  10.757
67314W        W39640   8.372  31.914  11.691
67315W        W39641  22.344  44.390  14.373
67316W        W39642   2.270  43.711  11.459
67317W        W39643   3.687   6.245  10.655
67318W        W39644  37.656  25.205   2.388
67319W        W39645  13.810  39.529   2.234
67320W        W39646  35.456  41.627   0.009
67321W        W39647  13.597  25.103  12.390
67322W        W39648  19.391  39.264   0.635
67323W        W39649  44.618  23.146   1.414
67324W        W39650  23.463  37.485  11.539
67325W        W39651  30.762  41.386  14.758
67326W        W39652  19.151  38.864  14.647
67327W        W39653  42.258  11.892  14.527
67328W        W39654  43.749  36.019  11.675
67329W        W39655  14.204   1.945  14.106
67330W        W39656   4.827  31.950   1.378
67331W        W39657  15.105   2.431   0.681
67332W        W39658  14.612  13.514   1.614
67333W        W39659  20.266   3.508  13.171
67334W        W39660  40.393  15.563  11.908
67335W        W39661  23.200  32.856  14.276
67336W        W39662   5.154  18.659   2.193
67337W        W39663  13.544  13.997  14.212
67338W        W39664  23.538  17.839   2.732
67339W        W39665  11.061  11.116   2.284
67340W        W39666   1.295   4.413  11.044
67341W        W39667  31.579  35.012  10.421
67342W        W39668  10.590   3.485   4.167
67343W        W39669  22.575  39.487   9.685
67344W        W39670  19.870  38.180  12.009
67345W        W39671  12.363   7.302   4.681
67346W        W39672  20.994  14.583  11.552
67347W        W39673  20.127  41.901  12.962
67348W        W39674  21.230  44.181   1.934
67349W        W39675  33.392  19.016  12.515
67350W        W39676  33.864  36.873   1.923
67351W        W39677  10.051  34.162  12.356
67352W        W39678  13.806  10.296   2.760
67353W        W39679   8.133  13.216   0.440
67354W        W39680  14.630  17.130  13.223
67355W        W39681   5.521  15.815   2.251
67356W        W39682  24.123  16.267  12.728
67357W        W39683  15.031  30.407   2.903
67358W        W39684   7.449  19.600   4.810
67359W        W39685  24.601  32.357   1.822
67360W        W39686   6.773  16.956  12.399
67361W        W39687   8.667  11.038  13.366
67362W        W39688  37.569  11.784  10.616
67363W        W39689  19.218  19.231  11.154
67364W        W39690  29.504  26.111   0.756
67365W        W39691  29.393  23.759  11.376
67366W        W39692  44.452  23.707  12.023
67367W        W39693  17.531   8.120   1.471
67368W        W39694  43.743  20.382   3.697
67369W        W39695  35.692   1.038  10.510
67370W        W39696  13.030  33.981  13.068
67371W        W39697  16.206  26.223   0.509
67372W        W39698  42.894   4.759  11.583
67373W        W39699  36.784  33.411  14.436
67374W        W39700  31.992  23.696  13.072
67375W        W39701  31.725  42.341  12.492
67376W        W39702  29.748  21.986  14.926
67377W        W39703  27.838  25.680   4.126
67378W        W39704  44.981  32.174  12.362
67379W        W39705  15.479  18.178  12.024
67380W        W39706  28.605  26.145  11.439
67381W        W39707  24.312   9.770  10.351
67382W        W39708  44.001  17.274  13.824
67383W        W39709  13.353  19.679  13.416
67384W        W39710  37.535  35.557   1.935
67385W        W39711  37.527  13.268  12.574
67386W        W39712  17.263  31.178  12.450
67387W        W39713  23.953  21.124  14.518
67388W        W39714  19.210   4.210   0.680
67389W        W39715  11.131  35.548   5.146
67390W        W39716  40.417  25.753  14.440
67391W        W39717  29.013  25.726   9.584
67392W        W39718  34.112  24.249   4.574
67393W        W39719  33.092   2.221  12.723
67394W        W39720  12.233   8.238  12.614
67395W        W39721  22.662  19.592  10.677
67396W        W39722  18.893  24.695  13.767
67397W        W39723  33.807   9.781  12.994
67398W        W39724  34.720  26.086  11.479
67399W        W39725  27.654  33.400   1.909
67400W        W39726  32.587  43.515  12.969
67401W        W39727  30.165  35.500   4.269
67402W        W39728  13.641  16.708  10.650
67403W        W39729  14.677  19.051   0.445
67404W        W39730   7.403   7.776  13.385
67405W        W39731  21.235  15.311  12.742
67406W        W39732   9.308  16.265   4.691
67407W        W39733  40.786  13.384  11.205
67408W        W39734  21.811  12.407   4.738
67409W        W39735   9.317  19.041   1.177
67410W        W39736  13.209  33.332  14.363
67411W        W39737  23.189  31.199  13.300
67412W        W39738  24.168  28.122   3.609
67413W        W39739  18.134   3.838   1.359
67414W        W39740  40.914  14.882  11.181
67415W        W39741  30.679  42.118   1.241
67416W        W39742  17.770  26.025   2.963
67417W        W39743  39.517   1.662   2.349
67418W        W39744  14.408   0.608   3.636
67419W        W39745  15.906  42.866   0.983
67420W        W39746  33.749  29.663  12.410
67421W        W39747   1.465  27.094   4.382
67422W        W39748  20.184  20.437   4.154
67423W        W39749  35.956  34.018  12.744
67424W        W39750   1.001  36.856   3.760
67425W        W39751   8.107  14.299  11.474
67426W        W39752  42.053  41.812  12.179
67427W        W39753  14.101  15.425  14.515
67428W        W39754  26.567   6.360   0.926
67429W        W39755  21.801  35.270   3.901
67430W        W39756  35.364  36.464  14.864
67431W        W39757   7.028   8.283  11.145
67432W        W39758  13.745  17.225  12.366
67433W        W39759  26.725  26.071   1.008
67434W        W39760  30.898  15.278   4.216
67435W        W39761   4.517  20.476  11.202
67436W        W39762   0.990   5.106   2.358
67437W        W39763  27.680  28.182  11.134
67438W        W39764  10.658  35.512   2.826
67439W        W39765  41.905  32.144   0.590
67440W        W39766  26.599  42.389  12.078
67441W        W39767  13.838  35.185  14.022
67442W        W39768  35.981   1.787  11.737
67443W        W39769  33.676   0.828   4.501
67444W        W39770   1.881   6.398   4.054
67445W        W39771   9.595  13.762   2.302
67446W        W39772  32.806  18.739   2.693
67447W        W39773  34.750  30.684   1.238
67448W        W39774  43.320  18.798   4.660
67449W        W39775   7.907   7.354   2.730
67450W        W39776   8.462  36.010  11.912
67451W        W39777  22.727   8.783  11.056
67452W        W39778   5.215  40.505   3.852
67453W        W39779   5.850  25.128  13.483
67454W        W39780   8.838   9.099   0.136
67455W        W39781  21.862   9.783   1.255
67456W        W39782  11.205  29.937  14.398
67457W        W39783   3.975  21.585  10.343
67458W        W39784  14.127  27.706   3.191
67459W        W39785  44.902  17.178   0.649
67460W        W39786  23.045  10.376   1.482
67461W        W39787  19.469  19.640  11.509
67462W        W39788  44.356  26.057   0.732
67463W        W39789  41.882  44.819   0.346
67464W        W39790  43.451   9.890  11.956
67465W        W39791  35.090   4.473  12.035
67466W        W39792   6.772   3.905   1.279
67467W        W39793  31.138   1.443  11.985
67468W        W39794  35.681  13.597  11.712
67469W        W39795   3.721  11.705   5.025
67470W        W39796  21.046  17.657   0.683
67471W        W39797  40.410  39.324  12.574
67472W        W39798  41.781   9.704   3.741
67473W        W39799  25.918  15.012  14.359
67474W        W39800  10.400  15.416   2.647
67475W        W39801  41.908  25.927  12.471
67476W        W39802  33.114   8.345   4.642
67477W        W39803  10.720   6.877  13.557
67478W        W39804  33.941   6.840   4.871
67479W        W39805  10.435  10.863  13.567
67480W        W39806  41.332  37.863  12.576
67481W        W39807  31.047  21.660   0.456
67482W        W39808   2.945  18.658   2.791
67483W        W39809  11.671  23.105   4.398
67484W        W39810  12.177  27.538   0.882
67485W        W39811  32.073  38.039   1.183
67486W        W39812  15.773  23.009  10.627
67487W        W39813  11.038  14.841  12.470
67488W        W39814  16.619  39.437  12.924
67489W        W39815  34.332   3.381   2.319
67490W        W39816  10.894  23.016  12.886
67491W        W39817  10.765  21.164   2.698
67492W        W39818   6.481  28.450  11.993
67493W        W39819  37.668  12.236   3.284
67494W        W39820  19.093   7.887   3.213
67495W        W39821  31.579  32.702  12.558
67496W        W39822   9.096  35.122   1.833
67497W        W39823  27.414  17.145  11.806
67498W        W39824  37.593  18.161  11.086
67499W        W39825   4.859  25.417  14.844
67500W        W39826  42.524  11.738  11.137
67501W        W39827  39.656   3.624  10.692
67502W        W39828  13.258   0.702  13.475
67503W        W39829   2.478  22.755  14.456
67504W        W39830  30.386   5.481   1.247
67505W        W39831  18.345  33.080   0.229
67506W        W39832  28.956   0.755   2.165
67507W        W39833  25.019   1.522   3.768
67508W        W39834   2.753   3.836   4.121
67509W        W39835   4.245  12.581  11.685
67510W        W39836  28.213  42.040   3.660
67511W        W39837  15.991  39.398   3.177
67512W        W39838  44.256  24.046   0.247
67513W        W39839  19.771  43.959  14.833
67514W        W39840  41.396  31.117   2.259
67515W        W39841  32.383  11.430   0.902
67516W        W39842   0.805  25.602  10.697
67517W        W39843  31.376  31.096  13.435
67518W        W39844   1.285  32.262  10.588
67519W        W39845   8.618  21.246  11.468
67520W        W39846  24.284  11.721   0.106
67521W        W39847  41.919   6.613   1.374
67522W        W39848   1.193  12.679  11.004
67523W        W39849  28.681  35.096  11.987
67524W        W39850   3.668   7.882  11.158
67525W        W39851  19.445  31.039   1.881
67526W        W39852  42.432   7.288   4.144
67527W        W39853  37.426   5.992  11.443
67528W        W39854  39.786  11.578   0.482
67529W        W39855   9.548  20.122   0.066
67530W        W39856  10.235  31.207   1.884
67531W        W39857  44.135  27.484   1.078
67532W        W39858  28.227  29.506  11.012
67533W        W39859  24.211  15.509   4.128
67534W        W39860  30.972  16.824  14.878
67535W        W39861  33.794  12.219  14.881
67536W        W39862  13.286   0.124   0.407
67537W        W39863  44.120  16.199   1.973
67538W        W39864  28.035  16.147  12.549
67539W        W39865  30.671  28.939  12.422
67540W        W39866  11.134  39.321   4.114
67541W        W39867  15.405   7.694   1.213
67542W        W39868  39.960   5.958   3.672
67543W        W39869   5.792  10.256  13.773
67544W        W39870  22.173  15.853  11.136
67545W        W39871  32.495  33.107  13.758
67546W        W39872  27.908  34.689   0.442
67547W        W39873  39.654   9.715   1.822
67548W        W39874  12.132  44.277  13.977
67549W        W39875   5.964  42.667  13.440
67550W        W39876  42.910   5.299  13.361
67551W        W39877   3.048  42.206  11.167
67552W        W39878  41.083  23.539  11.401
67553W        W39879   7.803  24.239  11.540
67554W        W39880   3.331  13.214  13.984
67555W        W39881  40.770   7.057  12.418
67556W        W39882   2.665  28.375  14.361
67557W        W39883  12.598  41.549   4.150
67558W        W39884  33.967   5.460   4.289
67559W        W39885  23.753   0.227  13.985
67560W        W39886   2.440  14.808  11.993
67561W        W39887  38.590  31.645  14.331
67562W        W39888  23.072  32.974   0.195
67563W        W39889  22.239  11.716   4.134
67564W        W39890  16.300  29.619   4.973
67565W        W39891   6.835  18.687   2.190
67566W        W39892   0.201   3.448   2.030
67567W        W39893  11.155   3.384   1.031
67568W        W39894   8.730  43.140   1.745
67569W        W39895  27.196  22.491  14.015
67570W        W39896  36.729  24.568   4.667
67571W        W39897   1.120   1.905  12.740
67572W        W39898  31.542  35.957  13.347
67573W        W39899   5.478  14.155  12.851
67574W        W39900  31.761  32.149  10.142
67575W        W39901  12.252  34.321  10.576
67576W        W39902  17.431  20.196   1.758
67577W        W39903  13.570  43.290   0.665
67578W        W39904   5.372  38.418   2.717
67579W        W39905  32.643  37.532   1.765
67580W        W39906  32.009  11.149   0.709
67581W        W39907  20.334  24.250   3.215
67582W        W39908  25.413  36.842   4.160
67583W        W39909  34.596  23.667  13.484
67584W        W39910   4.550  25.309   0.279
67585W        W39911  28.483  31.221   3.312
67586W        W39912  28.258  42.991  10.513
67587W        W39913   0.521   6.763   2.619
67588W        W39914   9.170   5.993   1.405
67589W        W39915  39.961   6.950  10.457
67590W        W39916  32.604  12.536  12.039
67591W        W39917   8.061  34.401   2.350
67592W        W39918  15.642   0.389  13.762
67593W        W39919  32.176  26.515  12.873
67594W        W39920  19.622  10.418  10.735
67595W        W39921  23.231   5.273   2.767
67596W        W39922  41.522  15.315  10.462
67597W        W39923  36.944  37.803   1.264
67598W        W39924   3.892   3.941  10.266
67599W        W39925  15.968  26.957  12.432
67600W        W39926  41.199  10.622  14.513
67601W        W39927  16.585  10.846  13.954
67602W        W39928  36.330  36.352   2.717
67603W        W39929  19.781  19.701  10.657
67604W        W39930  32.395  32.999   3.846
67605W        W39931  39.877  34.059  11.105
67606W        W39932  21.314  21.711  13.438
67607W        W39933  28.953  15.590  13.441
67608W        W39934   6.740  19.285  12.351
67609W        W39935  33.998  33.803   4.187
67610W        W39936  29.061   8.957   2.700
67611W        W39937   2.713   2.792   3.756
67612W        W39938  11.680  22.010  11.597
67613W        W39939   1.760   3.388   1.209
67614W        W39940  21.183  11.275  12.341
67615W        W39941  21.759  39.468   4.671
67616W        W39942   8.208  20.518  14.797
67617W        W39943  24.607  11.698   3.125
67618W        W39944  29.102  40.641  12.915
67619W        W39945  21.195  19.167   0.227
67620W        W39946  24.552  42.697   2.054
67621W        W39947   3.431   0.566  13.375
67622W        W39948  10.844  33.461  11.516
67623W        W39949  24.201  18.633   1.317
67624W        W39950  41.703  11.974  14.418
67625W        W39951  28.129   0.498   0.339
67626W        W39952  27.677  30.479  12.817
67627W        W39953  42.872   8.841  14.435
67628W        W39954   6.951  28.616  12.128
67629W        W39955   2.688   4.412   0.300
67630W        W39956  35.859   8.610  12.658
67631W        W39957   1.828  40.581   3.653
67632W        W39958  36.492  43.015  11.487
67633W        W39959  34.324  12.239  14.803
67634W        W39960  29.669  43.755   4.691
67635W        W39961  37.619  20.548   3.146
67636W        W39962  34.356  21.010   0.801
67637W        W39963  29.401  26.231   4.181
67638W        W39964  35.377  20.667   1.326
67639W        W39965  44.085  10.712   3.242
67640W        W39966   4.089   2.427  14.863
67641W        W39967  15.849  41.301  13.648
67642W        W39968   9.649  18.697   4.586
67643W        W39969   5.002  17.192   3.726
67644W        W39970  10.294  36.538  13.054
67645W        W39971  14.837  32.314   3.331
67646W        W39972  30.831  44.472   0.034
67647W        W39973   9.100  24.659  11.854
67648W        W39974  27.500  14.494  11.142
67649W        W39975  24.697  13.156  13.180
67650W        W39976  19.982  30.438   3.322
67651W        W39977  19.828  10.286   1.732
67652W        W39978  43.081  16.374  13.515
67653W        W39979  14.204  21.710  14.191
67654W        W39980  27.384  43.501   4.643
67655W        W39981  29.581  28.944  14.720
67656W        W39982   6.930  10.307   1.743
67657W        W39983   4.463   2.048  14.853
67658W        W39984  12.838  41.891   1.695
67659W        W39985  16.376   4.533   3.057
67660W        W39986  29.258  11.794  10.698
67661W        W39987  14.800   0.550  10.696
67662W        W39988  41.516   2.439  13.009
67663W        W39989  19.180   7.884   4.063
67664W        W39990  16.062  32.457  11.063
67665W        W39991  35.892   2.344   1.536
67666W        W39992  19.212  19.355   0.840
67667W        W39993  41.039  35.766  12.578
67668W        W39994  16.670  38.103   4.165
67669W        W39995  36.659  18.587   2.573
67670W        W39996  39.447  26.044  13.993
67671W        W39997   3.434  29.168   1.387
67672W        W39998  38.329  44.004  14.027
67673W        W39999   5.978  39.956   1.734
67674W        W40000  10.343  29.633  11.617
67675W        W40001   5.811  19.538  14.366
67676W        W40002  43.848  33.455   4.594
67677W        W40003  27.481  44.474   2.217
67678W        W40004   3.816  16.954  12.876
67679W        W40005   7.284  29.793  13.981
67680W        W40006   8.278   3.435  10.915
67681W        W40007   7.814  28.383   2.906
67682W        W40008  34.562  38.449  11.462
67683W        W40009  36.433  10.869   5.525
67684W        W40010  11.448  20.690  13.528
67685W        W40011  33.107  23.073   3.632
67686W        W40012   8.500  26.571   4.227
67687W        W40013  21.978  14.231  11.148
67688W        W40014  10.113  34.492   2.288
67689W        W40015  39.028  39.004   3.119
67690W        W40016  24.782  33.061  12.513
67691W        W40017  33.341  19.044  13.473
67692W        W40018  31.078  16.663   4.484
67693W        W40019  38.039  42.583   2.980
67694W        W40020   8.160  39.332   0.190
67695W        W40021  35.103  15.730  13.282
67696W        W40022  21.796  38.493  12.042
67697W        W40023  44.860  11.217   3.790
67698W        W40024  21.295  12.509   0.019
67699W        W40025  17.692  11.525   3.788
67700W        W40026  24.461   9.913   1.045
67701W        W40027  17.802  18.114   4.335
67702W        W40028  30.648  23.077  12.518
67703W        W40029  29.978  36.865   4.263
67704W        W40030  17.169  19.062  10.703
67705W        W40031  16.213  44.864   0.881
67706W        W40032  24.015  40.283  12.860
67707W        W40033  19.552  39.769   0.517
67708W        W40034  18.062   5.302  12.385
67709W        W40035  39.793   0.685   2.243
67710W        W40036  21.035   3.033  13.878
67711W        W40037   7.590  27.032  10.320
67712W        W40038  21.982  18.993   4.034
67713W        W40039  27.377   6.596   4.318
67714W        W40040  38.421  43.932  12.693
67715W        W40041   6.033  15.898   2.350
67716W        W40042  28.930  36.515   1.854
67717W        W40043  28.945  18.215  12.339
67718W        W40044  17.614  33.422   2.569
67719W        W40045  28.705  27.605  12.850
67720W        W40046  25.238  10.451  10.639
67721W        W40047  31.776   1.747  10.127
67722W        W40048  44.949  18.075   3.639
67723W        W40049  27.174  27.458   4.916
67724W        W40050   0.343   3.183  14.263
67725W        W40051  18.571   9.504  13.005
67726W        W40052   3.786  31.981   1.197
67727W        W40053   1.879  18.593   2.287
67728W        W40054  37.457  24.973   4.467
67729W        W40055   3.056  20.033  12.178
67730W        W40056   0.993  15.981   4.539
67731W        W40057  35.897  14.187   2.205
67732W        W40058  25.214   7.172  11.221
67733W        W40059  43.982   9.273  14.898
67734W        W40060   4.383  30.944   1.213
67735W        W40061  43.274  39.978  12.302
67736W        W40062  40.769  29.985   1.768
67737W        W40063  26.826  23.770  11.544
67738W        W40064  19.691   9.831   1.975
67739W        W40065  22.286  18.097   3.999
67740W        W40066   8.076  15.804  13.066
67741W        W40067  24.791  14.696   1.882
67742W        W40068   0.024   7.888  14.507
67743W        W40069  13.293  31.991   1.841
67744W        W40070  27.357  17.615   0.655
67745W        W40071  29.649  43.420  12.083
67746W        W40072   5.790  23.980  14.956
67747W        W40073  12.890  37.957   4.517
67748W        W40074  11.252  17.989  14.875
67749W        W40075  26.223  24.002  13.004
67750W        W40076  18.291  18.323  11.962
67751W        W40077  36.441  42.842  14.924
67752W        W40078  23.940  44.118   4.210
67753W        W40079  33.026   8.233  13.214
67754W        W40080  29.522  35.377  14.294
67755W        W40081   5.261   2.929   3.433
67756W        W40082  30.997  18.386   3.212
67757W        W40083   3.328  34.500   2.589
67758W        W40084   5.299  28.963  14.227
67759W        W40085  27.420  19.745   1.816
67760W        W40086  18.296  22.906  13.047
67761W        W40087  27.011  39.586  13.687
67762W        W40088  39.412  43.326   3.667
67763W        W40089  28.784  34.666  14.940
67764W        W40090  21.741  13.627   0.337
67765W        W40091  32.424  38.056  10.420
67766W        W40092  20.708  25.016  12.036
67767W        W40093   8.830  30.991  13.817
67768W        W40094  12.417   4.867   3.709
67769W        W40095  41.850   6.932   1.800
67770W        W40096  21.068  17.127  12.112
67771W        W40097  24.550  42.796  11.057
67772W        W40098  19.768  30.083   3.643
67773W        W40099  41.926  44.294  11.422
67774W        W40100   2.642   7.172   2.845
67775W        W40101  44.511  15.261   2.388
67776W        W40102  10.774  44.724   2.380
67777W        W40103  25.137   2.781   4.270
67778W        W40104   6.376  20.021   1.693
67779W        W40105   6.247  32.744   2.433
67780W        W40106  33.306   6.739  11.027
67781W        W40107  28.983  41.531   1.964
67782W        W40108  30.541  40.503  13.481
67783W        W40109  36.143  35.873   3.712
67784W        W40110  33.335  18.204  12.196
67785W        W40111  34.954  25.775  11.146
67786W        W40112   6.414  37.349  10.427
67787W        W40113  40.936   7.379  10.690
67788W        W40114  41.390  12.196   2.729
67789W        W40115  32.513  43.092  13.908
67790W        W40116  24.819  12.819   0.097
67791W        W40117  19.281  38.469  11.334
67792W        W40118   2.466  43.556   3.224
67793W        W40119  35.177  34.786  12.379
67794W        W40120  35.545  24.502  12.356
67795W        W40121  13.344  32.174   0.403
67796W        W40122  43.865  24.014   0.941
67797W        W40123  12.411  19.121   2.874
67798W        W40124  32.996  38.384  12.070
67799W        W40125  31.934   0.918   4.632
67800W        W40126  17.712  12.174   2.949
67801W        W40127   3.913   3.341   3.884
67802W        W40128  36.083   5.682   3.612
67803W        W40129  43.374  19.002  12.474
67804W        W40130  38.297  27.830   1.405
67805W        W40131  26.187  11.718  11.127
67806W        W40132  26.431  16.659  13.869
67807W        W40133  29.457  35.560   4.587
67808W        W40134   6.194  22.687  12.550
67809W        W40135  44.549  38.981   3.668
67810W        W40136  28.788  33.568   4.753
67811W        W40137  11.899   7.750   2.438
67812W        W40138  17.008   9.424  14.530
67813W        W40139   6.166  40.851  14.848
67814W        W40140  39.826  13.722  12.824
67815W        W40141  20.179  43.395  12.818
67816W        W40142  21.545   6.179   2.712
67817W        W40143  17.229  23.596  13.334
67818W        W40144  19.075  38.547  13.721
67819W        W40145  42.353   5.620   0.891
67820W        W40146  37.429  27.057  10.697
67821W        W40147  17.592  23.510  12.207
67822W        W40148  23.255   8.340  10.766
67823W        W40149  41.402   2.714  13.503
67824W        W40150  26.617   2.734  12.155
67825W        W40151   4.022  12.708   1.662
67826W        W40152  25.084  14.648   0.902
67827W        W40153  42.849  26.754   0.486
67828W        W40154   6.386  27.593   1.289
67829W        W40155  42.203   7.448   1.222
67830W        W40156  36.098  43.636   0.799
67831W        W40157  43.362   6.147   2.700
67832W        W40158   5.851   5.249  12.762
67833W        W40159  34.803  37.459  11.994
67834W        W40160   2.298  44.328   3.774
67835W        W40161  26.228  12.124  11.444
67836W        W40162   5.945  40.287   2.793
67837W        W40163  15.642  13.030   4.623
67838W        W40164  26.699  44.418   0.791
67839W        W40165  42.114  44.907   2.107
67840W        W40166  35.379  21.542  14.517
67841W        W40167  22.127  18.973   4.537
67842W        W40168  41.024  14.764   4.710
67843W        W40169  11.179  30.424  11.142
67844W        W40170  40.038  35.580   2.442
67845W        W40171  18.825  23.188   2.305
67846W        W40172   0.362  23.423  13.821
67847W        W40173  22.737  23.471  12.451
67848W        W40174  38.033   9.433   4.568
67849W        W40175  39.887  23.152  12.381
67850W        W40176  15.631  23.800  13.718
67851W        W40177  33.444  22.730  11.236
67852W        W40178  25.581  40.392  10.643
67853W        W40179  22.130   4.481  13.438
67854W        W40180  44.357   0.700   2.812
67855W        W40181  15.130  25.973   4.185
67856W        W40182  39.438  35.847   3.908
67857W        W40183  33.087  28.694  11.947
67858W        W40184  39.909   7.338  12.500
67859W        W40185  36.957  22.191   4.064
67860W        W40186  26.951  43.056   1.509
67861W        W40187  31.486   2.002  14.468
67862W        W40188  42.048  19.618  10.617
67863W        W40189  38.560   2.665   1.387
67864W        W40190  34.989  26.708   0.732
67865W        W40191  43.226  22.239   4.195
67866W        W40192  15.226  10.841   2.443
67867W        W40193  34.546   1.274  12.692
67868W        W40194   4.222   6.910   2.281
67869W        W40195  10.730  30.616   4.077
67870W        W40196  22.111  18.452   4.347
67871W        W40197  16.008  25.946   3.918
67872W        W40198  17.025   9.150   4.765
67873W        W40199  33.805  27.407   3.609
67874W        W40200   5.079   0.497   4.498
67875W        W40201  27.520  22.058  13.607
67876W        W40202   2.211  40.030   1.742
67877W        W40203  29.344   6.173  14.908
67878W        W40204   2.813  22.686  10.006
67879W        W40205  16.787  21.140   2.758
67880W        W40206  38.276  32.081   3.643
67881W        W40207   6.905  20.305  12.147
67882W        W40208  18.212  19.624   2.194
67883W        W40209  37.056  26.777   4.247
67884W        W40210  12.902  13.247  13.554
67885W        W40211  32.106  12.769   3.950
67886W        W40212  24.702  39.604  14.696
67887W        W40213   5.115  30.263  13.763
67888W        W40214  32.587  20.021   2.355
67889W        W40215  37.291  19.609  12.471
67890W        W40216  33.391  34.133  10.190
67891W        W40217   4.714  39.098   5.032
67892W        W40218  37.863  32.167   4.910
67893W        W40219  15.279  14.260   2.344
67894W        W40220  33.186  28.935   0.262
67895W        W40221  25.111  11.741   3.654
67896W        W40222  37.540  25.766  11.529
67897W        W40223   1.380  36.459   2.367
67898W        W40224   3.700  22.954   4.064
67899W        W40225  34.586   4.912   0.440
67900W        W40226  43.532  33.453  11.586
67901W        W40227  34.090   4.724   0.262
67902W        W40228  37.248   6.331   2.511
67903W        W40229  33.252   8.324   2.673
67904W        W40230   1.780  22.742   2.822
67905W        W40231  26.054  10.889  14.849
67906W        W40232  20.541  34.072   4.482
67907W        W40233  26.881  44.450  12.950
67908W        W40234  26.945  38.891  11.186
67909W        W40235  28.152  24.148  12.666
67910W        W40236  28.705  40.423   0.499
67911W        W40237  14.006  30.358   4.200
67912W        W40238   7.144   7.881   0.457
67913W        W40239  25.888  15.062   4.207
67914W        W40240  29.932  23.560  12.611
67915W        W40241  11.279   2.471  10.621
67916W        W40242  40.804   1.877   3.080
67917W        W40243  15.649  28.898   4.305
67918W        W40244  31.779   5.665  12.467
67919W        W40245  25.546  24.016   2.825
67920W        W40246   8.374  12.206   0.433
67921W        W40247   1.070  29.686  13.373
67922W        W40248   7.878  29.172  10.197
67923W        W40249  21.916   8.159   2.454
67924W        W40250  16.114  37.834   1.481
67925W        W40251  17.754  24.352  12.381
67926W        W40252  39.487  14.822  12.652
67927W        W40253  44.324  10.731   2.720
67928W        W40254  37.018   4.856   2.791
67929W        W40255  32.906  19.779   0.250
67930W        W40256  39.764  28.989   4.144
67931W        W40257  21.197  41.361  11.437
67932W        W40258  18.043  23.503   0.786
67933W        W40259   6.247  29.604  12.538
67934W        W40260   1.921  36.386  11.659
67935W        W40261  21.813  29.965  12.429
67936W        W40262  27.281   2.030  14.847
67937W        W40263  37.382  37.394  13.049
67938W        W40264  43.201   1.749  12.534
67939W        W40265  20.800  13.681   0.205
67940W        W40266  13.500  18.329   4.937
67941W        W40267   4.534  38.850  14.258
67942W        W40268  36.935  43.843  11.424
67943W        W40269  41.923  28.897   0.321
67944W        W40270  33.710   0.366   2.915
67945W        W40271  22.701  28.085   3.671
67946W        W40272  33.499   0.748   3.661
67947W        W40273  34.957  36.100  12.849
67948W        W40274  18.020  43.845  11.802
67949W        W40275  25.299  22.681  13.891
67950W        W40276   1.180   6.791  12.045
67951W        W40277  11.904  43.839  10.950
67952W        W40278  17.511   8.784   0.195
67953W        W40279  40.383  37.264  14.950
67954W        W40280  29.435   7.686   1.470
67955W        W40281   2.998  40.292  10.725
67956W        W40282  43.007  39.431  12.482
67957W        W40283  10.315  40.972  12.082
67958W        W40284  27.417  41.994  11.961
67959W        W40285  23.262  15.164  10.621
67960W        W40286  42.783  27.060  13.605
67961W        W40287  30.216  37.683   0.686
67962W        W40288  39.106  28.093   3.705
67963W        W40289  24.001   4.878  14.855
67964W        W40290  29.137   1.192  13.512
67965W        W40291  28.115  15.730   0.177
67966W        W40292   0.027  20.721   0.379
67967W        W40293   4.433  42.395   3.334
67968W        W40294  41.418  35.693   2.816
67969W        W40295  24.045  16.379   2.561
67970W        W40296  36.934  26.013   4.884
67971W        W40297  24.790   3.894   4.858
67972W        W40298  27.228  16.843   2.714
67973W        W40299   9.746  35.493   0.287
67974W        W40300  21.112  41.317  14.375
67975W        W40301  12.173   3.771   3.697
67976W        W40302  36.556  38.380   0.856
67977W        W40303   2.386   5.037  10.172
67978W        W40304   5.841  39.284  14.053
67979W        W40305   0.872  12.872  13.355
67980W        W40306  23.770  29.108   4.492
67981W        W40307  41.099  23.528   3.394
67982W        W40308   8.890  32.042  12.953
67983W        W40309  13.276  10.227  12.890
67984W        W40310   9.021  28.180   3.201
67985W        W40311  43.629  27.851  14.865
67986W        W40312   8.407  23.707  14.267
67987W        W40313  16.584   8.900   0.706
67988W        W40314   3.445  15.606  14.536
67989W        W40315   0.428  44.764  10.969
67990W        W40316  18.828   6.705  10.804
67991W        W40317  15.257  15.267   1.201
67992W        W40318  19.645  29.669   4.889
67993W        W40319  12.164  25.683  11.058
67994W        W40320  23.586  26.466  11.582
67995W        W40321  29.435   4.931  14.336
67996W        W40322  35.549   7.721   3.558
67997W        W40323  22.541  37.975   4.490
67998W        W40324  41.528  32.397   0.044
67999W        W40325  35.945   4.372  14.348
68000W        W40326  10.724  24.752  12.577
68001W        W40327  33.009   1.798   4.476
68002W        W40328  38.869   8.214   0.864
68003W        W40329  24.061  42.373   1.457
68004W        W40330  18.040  20.677  13.637
68005W        W40331  20.008  39.202  12.104
68006W        W40332   2.304  32.868  13.833
68007W        W40333  23.674  40.481  14.290
68008W        W40334  16.506  19.100  11.499
68009W        W40335  44.253  39.886   0.121
68010W        W40336  31.107  40.531   4.073
68011W        W40337  16.363   1.705  11.111
68012W        W40338  12.021   8.880   0.839
68013W        W40339   7.670  12.310   4.651
68014W        W40340   7.010  27.464   3.810
68015W        W40341  37.058  21.969  10.782
68016W        W40342  18.732  12.312   0.444
68017W        W40343  37.005  25.598   4.607
68018W        W40344  34.101  16.700   2.716
68019W        W40345  23.851   9.929  10.648
68020W        W40346  27.458   7.341  11.596
68021W        W40347  37.467  17.157   2.601
68022W        W40348  11.932  26.103   3.301
68023W        W40349  26.334  15.038   0.867
68024W        W40350  21.004  22.458  12.585
68025W        W40351  11.726  39.327   0.851
68026W        W40352  36.732  23.654   1.247
68027W        W40353  11.853   5.022   1.299
68028W        W40354  13.350  33.520  10.628
68029W        W40355   6.739   8.699  11.081
68030W        W40356  10.326   9.313  12.803
68031W        W40357   0.278  19.204   3.703
68032W        W40358   0.997  30.335   2.588
68033W        W40359   4.136   7.677   3.977
68034W        W40360  44.337   9.138  10.666
68035W        W40361   6.298  39.074   0.349
68036W        W40362  26.007   4.876  10.756
68037W        W40363  37.571  37.086  13.456
68038W        W40364   1.426   7.417   0.978
68039W        W40365  31.308  42.682  11.932
68040W        W40366  19.374  16.114  12.116
68041W        W40367   6.958  21.605  12.053
68042W        W40368  20.254  10.185  11.144
68043W        W40369  41.993   0.038   4.690
68044W        W40370   3.150   2.881  13.820
68045W        W40371  19.162  14.751   0.442
68046W        W40372  13.035  40.502   5.080
68047W        W40373  30.478   7.782  14.637
68048W        W40374  19.278  38.097  12.066
68049W        W40375  18.595  38.194   0.241
68050W        W40376   4.633  34.648   0.249
68051W        W40377  44.488  32.048   3.980
68052W        W40378  10.746  33.820   1.176
68053W        W40379  42.992   0.690  13.921
68054W        W40380  32.986  43.901   3.104
68055W        W40381  38.511   7.760   4.623
68056W        W40382  40.457  10.342   3.608
68057W        W40383  24.413   6.613  12.321
68058W        W40384  11.309  27.874   5.005
68059W        W40385  33.843  34.940   2.814
68060W        W40386  17.722  23.636  13.135
68061W        W40387  23.022  35.857   1.636
68062W        W40388   8.191  33.391  12.628
68063W        W40389  37.175  24.998   1.344
68064W        W40390   8.188   4.644   0.889
68065W        W40391   0.401  28.624   0.922
68066W        W40392  13.204   9.331   2.099
68067W        W40393  30.817  31.934  13.376
68068W        W40394   8.703   4.948   2.752
68069W        W40395  15.751   2.987   0.984
68070W        W40396   3.174  27.966   4.291
68071W        W40397   2.342  26.340  13.174
68072W        W40398   0.463  37.606  10.608
68073W        W40399  34.243   2.523   3.299
68074W        W40400  28.650  23.681   0.923
68075W        W40401  44.252  35.450  12.481
68076W        W40402   2.445   3.468   3.714
68077W        W40403  12.276   4.415  14.820
68078W        W40404  35.909   6.779   2.858
68079W        W40405   9.248  28.227  10.317
68080W        W40406  19.306   8.426   0.293
68081W        W40407  33.805  23.883   0.286
68082W        W40408  36.926  39.309  10.574
68083W        W40409  33.169   7.537   4.499
68084W        W40410  36.392  44.931  12.404
68085W        W40411   0.815  11.173   4.767
68086W        W40412  19.777  21.795  13.334
68087W        W40413  29.962   9.621   0.385
68088W        W40414  20.548   5.648  13.442
68089W        W40415  17.645  25.657   2.601
68090W        W40416  41.277  12.863  11.622
68091W        W40417  25.153  13.042  11.531
68092W        W40418   5.196  25.952  11.783
68093W        W40419  40.305  20.123   3.756
68094W        W40420   8.885  27.159  12.467
68095W        W40421  35.659   6.284  13.339
68096W        W40422   6.207   3.036   2.633
68097W        W40423  27.421  32.841  12.273
68098W        W40424  10.665  18.037  12.058
68099W        W40425  11.822   9.391   0.841
68100W        W40426  24.232  10.781  12.143
68101W        W40427   5.364  33.774  11.525
68102W        W40428  16.570   0.048  14.530
68103W        W40429   9.305   9.643  11.105
68104W        W40430  30.825   9.723  13.073
68105W        W40431  18.610  39.304  12.214
68106W        W40432  21.966  14.622   3.466
68107W        W40433  22.475  15.131   3.947
68108W        W40434  24.642  31.130  10.482
68109W        W40435  27.053  19.026  14.121
68110W        W40436  41.845   5.790   0.380
68111W        W40437  42.453  14.794  14.976
68112W        W40438  21.721  34.003   3.379
68113W        W40439   7.880   2.165   2.475
68114W        W40440  17.204  32.632   2.137
68115W        W40441  36.702  28.039  11.428
68116W        W40442   0.961  34.553  13.203
68117W        W40443   8.858   7.626   0.431
68118W        W40444  22.700  14.609   2.710
68119W        W40445  10.260  14.809  10.934
68120W        W40446  21.557  17.849  13.843
68121W        W40447  10.598  23.709   1.681
68122W        W40448  27.484  21.638   4.366
68123W        W40449   0.710   3.834   2.593
68124W        W40450  11.355  15.586   4.254
68125W        W40451  13.129  32.021  14.952
68126W        W40452  23.175  38.072  14.833
68127W        W40453  37.434  12.231  14.521
68128W        W40454  20.744  38.528   5.430
68129W        W40455  26.973  13.560   4.110
68130W        W40456  39.577  34.682   2.728
68131W        W40457  19.037   5.115   1.859
68132W        W40458  31.570   8.452   1.893
68133W        W40459  33.472  44.679   4.821
68134W        W40460  36.524   7.726  10.641
68135W        W40461  38.992  34.982   0.491
68136W        W40462  20.033   8.513   0.472
68137W        W40463  24.325  30.558   1.225
68138W        W40464  44.015  18.162  14.343
68139W        W40465  35.859   2.441  13.370
68140W        W40466  16.655  43.377  14.920
68141W        W40467  17.785   5.751   0.289
68142W        W40468   6.796  30.366  13.463
68143W        W40469  20.263   5.824  12.523
68144W        W40470  23.077  26.465  11.658
68145W        W40471   6.896  32.151  12.002
68146W        W40472  26.240   8.292  13.967
68147W        W40473  24.678   0.485  14.330
68148W        W40474  19.312  44.181   4.065
68149W        W40475  25.181   4.054   3.956
68150W        W40476  29.005  36.111  12.883
68151W        W40477   7.172  40.302   1.926
68152W        W40478  41.487  44.994  11.346
68153W        W40479  20.713   3.141   1.795
68154W        W40480  20.762   4.333  14.468
68155W        W40481   9.410  36.963  14.987
68156W        W40482  23.871  36.981   9.877
68157W        W40483  10.906  22.514  13.004
68158W        W40484  15.612   8.922  12.521
68159W        W40485  34.767  32.175   4.145
68160W        W40486  21.645  25.957   2.116
68161W        W40487  29.589  25.689  13.309
68162W        W40488  12.643  25.132   4.597
68163W        W40489  19.215  34.110   3.312
68164W        W40490  33.698  28.758   0.976
68165W        W40491   5.374  39.506  10.541
68166W        W40492  28.016  27.724   0.362
68167W        W40493  27.393  42.769  11.641
68168W        W40494  39.032   4.779   3.637
68169W        W40495  23.273   0.000  13.961
68170W        W40496  35.643  13.660  14.119
68171W        W40497  30.693  26.424   0.689
68172W        W40498  37.658  37.604   4.208
68173W        W40499  23.540  23.722  14.474
68174W        W40500  19.311   4.821   4.606
68175W        W40501  25.969  21.527   3.286
68176W        W40502  14.119  41.330  13.925
68177W        W40503  26.334  17.612  14.024
68178W        W40504   6.665  12.966   0.026
68179W        W40505  32.981  28.429  11.188
68180W        W40506  27.968  17.228   2.258
68181W        W40507  26.230  32.933  13.563
68182W        W40508  25.577  15.427   9.887
68183W        W40509   9.712  10.406  11.177
68184W        W40510  20.515  17.710   4.771
68185W        W40511  44.532  41.974   1.425
68186W        W40512   8.626   3.928   4.113
68187W        W40513  20.770   0.505   0.392
68188W        W40514   1.717  22.607   2.329
68189W        W40515   5.291   1.938  11.576
68190W        W40516  34.463  11.357   3.818
68191W        W40517   8.639  23.862  13.088
68192W        W40518  24.549  36.378  12.632
68193W        W40519  37.458   9.273  12.015
68194W        W40520  21.005  18.320  14.998
68195W        W40521  16.363  25.580   1.310
68196W        W40522  30.026  36.164  12.454
68197W        W40523  44.793  25.155   3.079
68198W        W40524  38.129   1.024  14.684
68199W        W40525  27.063  22.948  13.807
68200W        W40526   8.851  36.815  14.822
68201W        W40527  18.303  23.515  12.429
68202W        W40528  13.341  31.673   2.279
68203W        W40529  28.722  26.303  10.089
68204W        W40530  26.486  31.784  10.300
68205W        W40531  24.631  15.669  13.339
68206W        W40532  30.480  31.037   3.656
68207W        W40533   1.791  35.901  12.599
68208W        W40534  40.546  22.288   4.185
68209W        W40535  14.401   2.378  10.680
68210W        W40536  32.449   5.283  11.654
68211W        W40537  28.711   8.145  11.704
68212W        W40538  25.141  11.370  14.213
68213W        W40539   0.403  15.679  10.990
68214W        W40540  41.823  24.566   3.881
68215W        W40541  22.966  37.414   3.315
68216W        W40542  38.202   3.484   1.391
68217W        W40543  22.459   5.807   4.564
68218W        W40544   5.093  28.952   0.524
68219W        W40545  22.090   5.122  12.503
68220W        W40546  11.080  30.141  14.859
68221W        W40547  20.934  28.112   3.092
68222W        W40548  19.520  35.535   4.206
68223W        W40549  15.195  26.417   4.412
68224W        W40550  39.867  34.951  13.910
68225W        W40551  41.547  15.213  12.559
68226W        W40552   2.053  43.510  11.003
68227W        W40553  33.957  43.762   0.432
68228W        W40554   4.476   5.709   3.164
68229W        W40555  34.175  27.198   4.319
68230W        W40556  32.919  27.479  14.541
68231W        W40557  20.762  31.419   3.061
68232W        W40558  27.456  18.679   2.962
68233W        W40559   9.307   4.420   4.712
68234W        W40560  27.098  30.099   4.305
68235W        W40561  34.797  33.353   0.491
68236W        W40562  30.415  25.542   4.651
68237W        W40563  10.220   1.022   4.778
68238W        W40564  41.678  13.722  13.863
68239W        W40565  32.289  27.394   4.516
68240W        W40566  19.190   3.318   2.717
68241W        W40567  35.954  18.762   0.291
68242W        W40568  36.973  43.431  14.798
68243W        W40569   4.833  40.591   1.773
68244W        W40570  35.394  22.660  12.696
68245W        W40571  10.591  23.124  14.909
68246W        W40572  19.853  24.109   3.665
68247W        W40573   1.978  10.554  14.996
68248W        W40574  26.314  38.011  11.638
68249W        W40575  38.862  25.754  14.810
68250W        W40576  33.741  26.942  11.659
68251W        W40577   2.075  18.673   1.458
68252W        W40578  25.668  27.885   2.682
68253W        W40579   6.416  24.830  11.090
68254W        W40580  20.151  42.859   1.987
68255W        W40581  22.007  43.944  14.316
68256W        W40582  25.908  28.781  12.064
68257W        W40583  16.677  15.584   2.631
68258W        W40584  31.394  19.224   4.651
68259W        W40585  41.729  18.556  14.353
68260W        W40586   4.903  26.979  10.992
68261W        W40587  44.782  26.158   1.383
68262W        W40588  15.176   8.991   2.282
68263W        W40589   7.179  10.218  14.248
68264W        W40590  16.241  35.947   4.107
68265W        W40591   0.746   7.899  11.635
68266W        W40592  21.393  20.314  12.440
68267W        W40593  11.723  36.102  14.896
68268W        W40594  34.093  40.688   3.192
68269W        W40595  19.958  16.071   0.718
68270W        W40596  33.011   5.379   3.281
68271W        W40597  24.517   0.498  12.347
68272W        W40598   1.451  33.904  14.891
68273W        W40599  32.073   4.845  10.614
68274W        W40600  41.427  44.217   2.316
68275W        W40601  18.341   2.005   1.842
68276W        W40602  35.535  26.117   1.273
68277W        W40603  31.076  11.651   3.205
68278W        W40604  40.006  39.859  12.044
68279W        W40605  14.814   7.793  13.437
68280W        W40606   0.709   0.441  12.010
68281W        W40607  35.784  34.457  14.971
68282W        W40608  41.952  27.184  11.080
68283W        W40609  18.158  34.628  12.746
68284W        W40610  38.390  27.451   1.763
68285W        W40611  36.843   5.341   2.758
68286W        W40612  17.232  31.911  13.073
68287W        W40613  21.549  25.037   0.490
68288W        W40614  24.721  31.851  14.397
68289W        W40615  36.856   8.095  13.107
68290W        W40616  32.236  44.768  13.431
68291W        W40617   2.803  30.788  10.938
68292W        W40618  10.098  10.088   9.955
68293W        W40619  31.671   6.393  11.115
68294W        W40620   4.384  44.095   1.788
68295W        W40621  27.728  10.815  10.646
68296W        W40622   4.034  34.617   1.827
68297W        W40623  34.569  30.233  10.746
68298W        W40624   3.894  36.497  12.016
68299W        W40625  43.301  36.963   3.927
68300W        W40626   0.969   8.882  12.588
68301W        W40627  11.208  41.802  13.970
68302W        W40628  37.068  34.156  13.455
68303W        W40629  36.035  38.310  13.534
68304W        W40630  31.034  21.319  10.779
68305W        W40631  38.564  29.449   3.691
68306W        W40632  39.762  12.716  14.534
68307W        W40633  12.291  22.766   4.995
68308W        W40634  43.309  32.059  11.435
68309W        W40635  15.471   3.316  10.407
68310W        W40636  13.755  29.048  11.604
68311W        W40637   8.374  24.315   2.478
68312W        W40638  30.080  26.431  11.564
68313W        W40639  16.180  17.487   4.108
68314W        W40640  38.077   6.455  10.697
68315W        W40641  42.045  12.746   1.662
68316W        W40642   3.433   2.949  12.284
68317W        W40643  12.719  12.201  11.569
68318W        W40644   5.621  26.015   0.841
68319W        W40645  21.527  38.593  12.470
68320W        W40646  27.455  35.769   4.075
68321W        W40647   2.296  15.128   3.152
68322W        W40648  15.563  41.941   0.778
68323W        W40649  25.005  32.019   2.759
68324W        W40650  23.721  38.390  14.917
68325W        W40651  30.080  23.220   4.752
68326W        W40652   4.443  19.253  12.484
68327W        W40653  32.006  39.610   4.072
68328W        W40654  15.336  38.258   1.288
68329W        W40655  27.579  42.797  14.743
68330W        W40656  16.699   8.478   1.014
68331W        W40657   7.853   6.515  14.893
68332W        W40658  38.645  27.174   3.529
68333W        W40659  25.518  18.601  13.525
68334W        W40660  18.587  17.631  11.745
68335W        W40661  37.852  26.584  14.399
68336W        W40662  16.675   9.268   4.382
68337W        W40663   7.247  40.304  11.528
68338W        W40664  30.742   9.561  11.900
68339W        W40665  12.256  32.109  13.017
68340W        W40666  28.249  44.061  12.405
68341W        W40667   0.281  11.316  13.322
68342W        W40668  31.294  31.904  11.037
68343W        W40669  26.411  15.429   9.663
68344W        W40670   7.857  24.971   3.240
68345W        W40671  28.582  11.217   1.465
68346W        W40672   2.681   5.359   3.711
68347W        W40673  26.506  15.574   4.068
68348W        W40674  27.707   5.831  14.347
68349W        W40675  40.285  12.507   0.370
68350W        W40676   7.026  44.075  14.405
68351W        W40677  41.984  41.795  14.017
68352W        W40678   7.614  41.021   2.735
68353W        W40679   1.488  17.312  10.615
68354W        W40680   5.858  12.344   0.531
68355W        W40681   7.396  13.677   0.754
68356W        W40682   5.929  36.516  10.736
68357W        W40683  28.698  23.124  12.484
68358W        W40684  27.215  15.020  14.948
68359W        W40685   4.369  36.095   1.746
68360W        W40686   6.469  43.417  13.431
68361W        W40687   7.841  13.124   3.677
68362W        W40688  13.004  34.076   0.353
68363W        W40689   1.025   5.468   1.848
68364W        W40690  16.434  14.612  11.999
68365W        W40691  38.361  27.456   0.278
68366W        W40692  41.035  32.999   3.546
68367W        W40693  28.953  28.184  12.504
68368W        W40694  17.325  40.726  10.974
68369W        W40695  30.586  13.835   0.187
68370W        W40696  10.594  15.648   0.448
68371W        W40697  43.845  26.332   4.466
68372W        W40698  23.909  25.683   4.231
68373W        W40699  17.347   5.895   3.624
68374W        W40700  22.052  29.607  10.781
68375W        W40701  22.536   9.326   0.861
68376W        W40702  33.890  43.750  13.960
68377W        W40703   5.926  33.179  12.914
68378W        W40704   8.347   7.811   4.131
68379W        W40705  13.876   9.095  11.061
68380W        W40706   9.923   7.389   1.619
68381W        W40707  23.650  24.626   3.711
68382W        W40708  16.906   7.207  12.893
68383W        W40709   3.495  30.588   0.366
68384W        W40710  10.636  25.021  11.548
68385W        W40711  40.972  23.438  14.318
68386W        W40712  39.208  37.417   1.773
68387W        W40713  38.432  10.251   9.759
68388W        W40714  36.361  20.053   4.229
68389W        W40715   5.035  26.963  11.506
68390W        W40716  16.186  22.697  10.576
68391W        W40717  39.069   0.028  11.731
68392W        W40718   5.413   1.938   0.506
68393W        W40719  38.854  20.810  10.187
68394W        W40720   4.849  21.424  11.611
68395W        W40721  37.304   4.440  10.669
68396W        W40722  34.238  14.434   0.384
68397W        W40723  18.091   6.494   0.295
68398W        W40724  29.738   7.792   2.423
68399W        W40725  11.378  38.862   4.123
68400W        W40726  18.799  23.487   1.007
68401W        W40727   0.244  20.103   3.618
68402W        W40728   9.240  28.908   0.800
68403W        W40729   8.370  26.073   4.160
68404W        W40730  12.140  38.697  11.957
68405W        W40731   2.712  19.178  11.177
68406W        W40732  41.762  24.717  14.010
68407W        W40733  15.337  22.792   0.312
68408W        W40734  22.485  40.544   0.020
68409W        W40735  29.641  35.407   0.628
68410W        W40736   9.735  34.920  14.612
68411W        W40737  20.733  23.035   2.408
68412W        W40738  29.666   6.372  12.905
68413W        W40739  23.418  18.604  12.429
68414W        W40740  43.914  25.327   4.795
68415W        W40741  17.283  43.729   1.362
68416W        W40742  40.387   6.830  11.446
68417W        W40743  43.243  21.546   2.136
68418W        W40744  26.027  15.357   3.812
68419W        W40745  26.146   3.952  10.614
68420W        W40746  42.551  29.951   0.388
68421W        W40747  13.743  21.273   2.381
68422W        W40748  42.522  41.800  12.390
68423W        W40749   0.285  32.162   3.004
68424W        W40750  27.569   7.627  11.157
68425W        W40751  29.358  15.611   2.987
68426W        W40752  24.657  36.992   2.834
68427W        W40753  15.432   4.662   1.510
68428W        W40754  20.776  33.583  11.014
68429W        W40755  28.501  28.768   3.789
68430W        W40756  34.377  36.482  13.846
68431W        W40757  17.144  35.527  14.467
68432W        W40758  12.256  18.849   1.646
68433W        W40759  14.279   7.203  14.979
68434W        W40760  34.907  25.591   3.091
68435W        W40761  22.292  33.648  14.834
68436W        W40762   5.314  14.034   1.401
68437W        W40763  14.157  38.069  11.356
68438W        W40764  27.963  15.360  13.757
68439W        W40765  15.144  22.263   2.946
68440W        W40766   5.599  37.777  14.512
68441W        W40767   4.149  13.709  12.043
68442W        W40768  13.370  38.068  13.958
68443W        W40769  20.714  22.142  11.086
68444W        W40770  27.211   6.115   4.543
68445W        W40771  19.018   2.022   0.225
68446W        W40772  39.325  39.638   4.061
68447W        W40773  22.481   1.742  10.258
68448W        W40774  33.329  38.853   0.494
68449W        W40775  30.684  13.890  12.555
68450W        W40776   3.260  31.156   3.617
68451W        W40777  20.508  44.708  13.530
68452W        W40778   0.735  39.011   4.170
68453W        W40779  38.048   9.167   2.001
68454W        W40780  23.249   7.202  14.749
68455W        W40781  44.829  42.890  14.277
68456W        W40782  39.464  42.440  12.147
68457W        W40783  38.930  26.363  10.579
68458W        W40784   9.092  31.698   2.797
68459W        W40785   8.384  16.993  11.787
68460W        W40786  13.637  23.082   3.383
68461W        W40787  37.635   3.449  13.036
68462W        W40788  41.130  13.680   3.867
68463W        W40789  34.468   8.750  12.874
68464W        W40790  25.105  18.726  11.132
68465W        W40791   4.222  42.476   4.613
68466W        W40792  42.140   3.330   9.965
68467W        W40793  20.984  18.219  13.393
68468W        W40794   5.001  13.732   0.214
68469W        W40795   3.385  13.740  10.753
68470W        W40796  31.946  28.350   1.956
68471W        W40797  24.639  30.175   0.954
68472W        W40798   6.715  10.222   4.587
68473W        W40799   0.729  37.469  13.117
68474W        W40800  41.014   7.921  14.357
68475W        W40801  26.243  29.858   0.315
68476W        W40802  35.392  31.648  10.306
68477W        W40803   5.751  14.593   0.877
68478W        W40804  29.722   2.982  12.480
68479W        W40805  33.986  25.948   2.782
68480W        W40806  14.181  31.268   3.497
68481W        W40807  36.796  22.758  10.743
68482W        W40808   4.026  13.184   4.014
68483W        W40809  36.593  23.503  13.925
68484W        W40810  36.223  41.983   1.226
68485W        W40811  20.085   2.751  14.386
68486W        W40812  19.646   6.894  11.372
68487W        W40813   4.399  32.660   3.887
68488W        W40814  34.435  13.796  12.047
68489W        W40815   8.211  21.069  14.561
68490W        W40816  19.403   0.875  11.690
68491W        W40817  25.132   8.202  13.361
68492W        W40818  27.476   5.466   1.503
68493W        W40819   1.987  16.643  12.221
68494W        W40820  44.231  20.636  13.463
68495W        W40821  29.099  34.688  12.845
68496W        W40822   9.167  34.410   1.270
68497W        W40823  24.643  31.121   2.771
68498W        W40824  30.184  41.235   2.937
68499W        W40825  19.733  34.052   3.156
68500W        W40826  14.698  41.472   5.094
68501W        W40827  15.620  22.974   1.175
68502W        W40828  12.351  12.199   2.864
68503W        W40829  35.458   1.499   1.011
68504W        W40830   0.770  18.314  10.663
68505W        W40831  10.956   7.358  11.529
68506W        W40832   0.560  22.083   4.553
68507W        W40833   4.859   4.425   0.009
68508W        W40834  33.916  39.950  13.836
68509W        W40835  14.703  44.824  13.053
68510W        W40836  29.009  10.363   1.113
68511W        W40837  24.550  43.274   1.368
68512W        W40838  37.680  41.783  13.046
68513W        W40839  16.263  44.218  10.727
68514W        W40840  34.651   1.017   0.334
68515W        W40841  37.809  11.981   4.296
68516W        W40842  13.374  10.438   1.359
68517W        W40843  27.475  29.896   2.728
68518W        W40844  14.358  17.989   0.819
68519W        W40845   8.704   7.237   2.255
68520W        W40846  31.237  29.116  14.370
68521W        W40847  42.420  23.162  12.638
68522W        W40848  44.417  19.835   1.133
68523W        W40849   2.238   0.692  13.936
68524W        W40850   0.691  39.825  13.734
68525W        W40851  30.906  32.535  10.724
68526W        W40852  39.856  16.436  12.105
68527W        W40853  15.262   1.055   1.852
68528W        W40854  27.549  21.181   4.616
68529W        W40855  34.530  28.988  12.887
68530W        W40856  15.030   2.902  12.631
68531W        W40857  27.633  24.110  10.615
68532W        W40858   6.250  19.512   1.952
68533W        W40859  24.430  31.130  11.828
68534W        W40860  22.650  29.527   3.604
68535W        W40861  19.238  40.331  13.161
68536W        W40862  23.546   3.744  12.607
68537W        W40863  32.127  35.777   1.358
68538W        W40864   8.611  29.908   1.356
68539W        W40865  20.652  31.031   3.706
68540W        W40866   2.867  21.267  11.569
68541W        W40867  38.790  34.526  10.668
68542W        W40868  38.697  30.165  11.222
68543W        W40869  15.046  32.445   3.779
68544W        W40870  20.155  27.693   3.347
68545W        W40871   5.861  28.381   2.735
68546W        W40872  43.981  10.813   2.292
68547W        W40873  43.080  43.819  12.386
68548W        W40874  29.009  36.039  10.915
68549W        W40875  43.813  14.217  12.852
68550W        W40876  44.720   5.347  11.391
68551W        W40877   7.777  30.416   1.064
68552W        W40878  30.554  17.364   2.605
68553W        W40879   2.750  16.737  10.552
68554W        W40880  37.356  20.181   2.781
68555W        W40881  15.823  41.913   1.249
68556W        W40882  23.590   4.915   0.937
68557W        W40883  14.403  16.369   1.199
68558W        W40884  11.650   5.270   4.498
68559W        W40885  31.466  34.683  13.995
68560W        W40886  25.901  25.450  13.150
68561W        W40887  24.015  15.051  11.691
68562W        W40888  18.860  24.470   4.566
68563W        W40889  42.303  14.885  11.503
68564W        W40890  26.279   9.626   1.866
68565W        W40891  31.680  26.553  14.327
68566W        W40892  33.610  17.267  10.362
68567W        W40893  28.183  17.806  13.346
68568W        W40894  44.436  24.204  12.888
68569W        W40895  26.690   0.309  10.810
68570W        W40896   6.700  42.888   2.279
68571W        W40897  16.198  43.508   3.300
68572W        W40898   2.713  10.846   3.101
68573W        W40899   1.811  23.751   0.373
68574W        W40900  36.427  43.478  12.397
68575W        W40901  27.471   1.968  11.938
68576W        W40902  30.513   0.223  11.660
68577W        W40903  28.977  44.506  11.070
68578W        W40904  17.532  10.539   0.450
68579W        W40905  28.097  25.398  14.415
68580W        W40906  16.782  15.494   3.608
68581W        W40907   2.938   9.993   9.800
68582W        W40908  17.189   8.204   4.134
68583W        W40909   7.453  20.032  13.841
68584W        W40910   7.133   0.787   3.235
68585W        W40911  38.832  15.285   3.745
68586W        W40912  14.550  34.599   4.659
68587W        W40913  24.228  16.073   4.167
68588W        W40914  43.330  39.455  13.514
68589W        W40915  43.648   6.135  12.444
68590W        W40916  39.283  37.151   1.325
68591W        W40917  23.712  37.307   5.355
68592W        W40918   3.263  38.466   0.233
68593W        W40919  25.172   2.693  14.474
68594W        W40920  22.592  40.042  11.563
68595W        W40921  14.140  19.232   2.577
68596W        W40922  11.627   6.216  11.443
68597W        W40923  37.815  25.995   2.757
68598W        W40924   7.599  21.045   2.760
68599W        W40925  34.648   1.701   1.274
68600W        W40926  30.138  37.984   4.722
68601W        W40927  27.163   6.930   4.700
68602W        W40928  14.351  33.695  10.903
68603W        W40929  37.042  11.257  11.064
68604W        W40930  17.367  22.192  11.596
68605W        W40931   6.108  22.471  10.089
68606W        W40932   6.323   3.790   3.116
68607W        W40933  39.824  27.883  14.777
68608W        W40934  11.722  33.852  12.137
68609W        W40935   5.006  37.954  13.750
68610W        W40936   2.281  30.461  14.872
68611W        W40937  16.879  28.925  12.581
68612W        W40938  10.681   9.396   3.336
68613W        W40939  39.800  39.630   1.443
68614W        W40940  33.976   3.685   3.290
68615W        W40941  39.454   5.354  11.312
68616W        W40942  26.598  22.260  12.004
68617W        W40943  14.678  19.819   1.141
68618W        W40944   3.466   9.579   5.436
68619W        W40945  18.271  10.546   2.636
68620W        W40946  29.998   6.655   0.905
68621W        W40947  24.997   2.869  12.954
68622W        W40948   6.821   3.771   2.903
68623W        W40949  37.544  37.623   3.280
68624W        W40950  19.768  37.927   1.658
68625W        W40951  41.568  23.593  12.128
68626W        W40952  39.985  13.678   0.361
68627W        W40953  40.392  40.724   4.137
68628W        W40954  44.997  17.550  12.476
68629W        W40955  27.476  15.202   1.148
68630W        W40956  22.006  25.994   3.966
68631W        W40957  27.573  26.567  11.979
68632W        W40958  24.685  25.937   2.785
68633W        W40959  32.908  34.670   1.309
68634W        W40960  17.552  22.496   2.245
68635W        W40961   4.175  18.262  14.505
68636W        W40962  15.605   0.733  12.903
68637W        W40963  35.464   9.933  14.968
68638W        W40964  29.301  43.905  12.491
68639W        W40965  34.386  13.164  14.726
68640W        W40966   0.422   2.232   5.221
68641W        W40967  20.548  38.731   4.997
68642W        W40968  16.225  41.830   2.626
68643W        W40969   3.232  40.887   3.636
68644W        W40970  11.158  33.728   4.555
68645W        W40971  44.139  44.478  12.720
68646W        W40972  21.186  21.639   0.405
68647W        W40973  16.227  37.987  10.781
68648W        W40974  31.840  20.262   3.736
68649W        W40975  23.622  25.656  12.567
68650W        W40976  17.618  12.037   3.756
68651W        W40977  39.540  17.858   3.754
68652W        W40978   8.403   7.928   0.572
68653W        W40979  44.057  38.763  13.930
68654W        W40980  35.085  23.959   4.311
68655W        W40981   6.713  11.434  11.818
68656W        W40982   6.149  38.927   2.686
68657W        W40983  12.744   9.743   3.692
68658W        W40984  21.636  40.147   2.213
68659W        W40985   9.248  37.073   1.934
68660W        W40986  13.859  15.180  10.650
68661W        W40987  26.450   2.737  14.943
68662W        W40988  39.494  36.624  10.519
68663W        W40989  34.096  29.010   0.732
68664W        W40990  25.187  43.296  14.410
68665W        W40991  13.693  19.079  10.739
68666W        W40992   8.640  21.195  10.942
68667W        W40993  22.009  32.892  13.744
68668W        W40994  19.985  12.339   3.601
68669W        W40995  34.859   8.806   2.194
68670W        W40996  10.852  17.237   4.884
68671W        W40997  40.997  15.276   3.928
68672W        W40998  14.774  34.976  11.108
68673W        W40999  24.446  44.077  12.579
68674W        W41000  11.995   0.685  12.106
68675W        W41001  20.140  39.970   3.767
68676W        W41002  17.382  10.210   2.606
68677W        W41003  43.884  17.331  11.415
68678W        W41004  33.369   7.299   2.760
68679W        W41005  27.531  35.475  12.289
68680W        W41006   0.490  38.458   1.794
68681W        W41007  31.650  30.456  12.999
68682W        W41008  37.267  17.506  10.341
68683W        W41009  28.611  12.810   1.570
68684W        W41010  16.671  27.064   0.939
68685W        W41011  29.641  29.709   2.294
68686W        W41012   0.041  43.589  12.995
68687W        W41013  37.382  34.590   2.269
68688W        W41014  10.715  37.723  11.488
68689W        W41015  42.639  33.684   4.204
68690W        W41016  11.116  29.082  13.410
68691W        W41017  24.664  18.251  13.967
68692W        W41018   7.282  27.141  13.065
68693W        W41019  13.315   0.721   3.340
68694W        W41020  30.417  14.708  14.558
68695W        W41021  13.285  24.232  13.469
68696W        W41022  20.134   5.277   1.234
68697W        W41023  19.586   3.491  12.521
68698W        W41024   7.703   7.071  11.715
68699W        W41025   1.015  18.673  10.977
68700W        W41026  34.048  17.511   4.705
68701W        W41027  12.139  11.736  11.982
68702W        W41028  35.006  16.668   1.665
68703W        W41029  39.232  40.472  12.885
68704W        W41030  30.527  38.787  13.819
68705W        W41031  22.301  35.401   2.119
68706W        W41032   1.448  40.087   1.272
68707W        W41033  15.266  34.146  14.192
68708W        W41034  25.026  16.432   3.533
68709W        W41035   8.424  13.209  10.675
68710W        W41036  36.424  14.538   4.931
68711W        W41037  11.307   6.282  13.528
68712W        W41038  41.316  42.860   2.392
68713W        W41039   8.009  19.553   1.197
68714W        W41040  13.956   6.400  14.399
68715W        W41041   7.292  32.874  14.217
68716W        W41042  27.735  33.100  10.526
68717W        W41043  35.900  41.590  13.440
68718W        W41044   3.978   0.477  13.384
68719W        W41045   8.661  32.559   3.338
68720W        W41046   3.351   2.449  10.263
68721W        W41047  39.333  40.378   4.723
68722W        W41048  42.093   9.313   2.643
68723W        W41049  16.834  31.843   3.351
68724W        W41050   1.442  20.607  13.098
68725W        W41051  11.036  38.641  12.800
68726W        W41052  23.062  42.361   0.531
68727W        W41053   4.414  34.396  13.879
68728W        W41054  10.605  26.202   2.813
68729W        W41055  34.372  43.108  13.816
68730W        W41056  38.453  30.339   2.764
68731W        W41057   1.796   4.517  13.732
68732W        W41058   1.253  44.374   4.155
68733W        W41059   9.628  37.821   0.373
68734W        W41060   3.745   5.087  13.186
68735W        W41061  32.667  10.415   0.725
68736W        W41062  17.939  38.322  13.974
68737W        W41063  38.882  42.905  10.586
68738W        W41064   0.305  39.075   3.320
68739W        W41065  38.592   1.679   0.374
68740W        W41066  24.699  32.798   3.291
68741W        W41067  23.274  29.709   2.312
68742W        W41068  21.245  39.408   1.839
68743W        W41069  12.405   9.297   2.856
68744W        W41070  41.420   0.538  14.352
68745W        W41071  32.430  43.291  11.713
68746W        W41072  33.852  17.871   2.754
68747W        W41073  34.946  16.086  14.022
68748W        W41074  33.339  38.040  12.994
68749W        W41075  10.233  27.410  12.461
68750W        W41076   6.690  28.210  10.259
68751W        W41077   0.917  35.080   1.841
68752W        W41078  33.488  30.609  10.317
68753W        W41079  42.442   6.420   2.204
68754W        W41080  26.383  38.781  12.785
68755W        W41081  28.038  23.994  11.830
68756W        W41082  41.921  35.526   1.081
68757W        W41083  37.239  34.061   2.343
68758W        W41084   4.223  31.565  14.520
68759W        W41085   1.922  19.998  14.294
68760W        W41086  20.185  32.279   4.528
68761W        W41087  34.841  37.881   0.340
68762W        W41088  43.528  24.896  13.877
68763W        W41089  39.783  13.117   3.278
68764W        W41090  10.223  12.075  13.974
68765W        W41091   0.501   4.277  12.035
68766W        W41092  38.081  10.543   1.952
68767W        W41093  33.956  14.580  11.688
68768W        W41094  43.933  26.513  11.365
68769W        W41095   9.132  34.821   2.714
68770W        W41096  33.098  15.790   3.074
68771W        W41097  44.441  43.523  13.631
68772W        W41098  10.341  35.514  14.586
68773W        W41099  32.705   0.428  11.886
68774W        W41100   3.571  20.073  12.128
68775W        W41101  25.140  14.677   5.043
68776W        W41102   0.935  22.067   2.262
68777W        W41103  30.416   6.919   1.231
68778W        W41104  36.602  13.798  11.833
68779W        W41105  39.263  43.575   2.004
68780W        W41106   4.688  32.865  12.025
68781W        W41107  31.196  38.861   5.014
68782W        W41108   8.754  15.599   3.204
68783W        W41109   0.051  37.414  14.533
68784W        W41110  33.635   7.915   2.494
68785W        W41111   9.270  41.379  11.709
68786W        W41112  14.506  25.653  12.966
68787W        W41113  22.575  26.254   1.826
68788W        W41114  18.952  40.132  13.994
68789W        W41115  29.017  44.905  11.456
68790W        W41116  29.754  36.989   5.003
68791W        W41117  29.185   3.121  11.628
68792W        W41118  20.524  20.855   4.138
68793W        W41119  44.027  17.075   1.818
68794W        W41120  37.869   8.488  12.210
68795W        W41121  37.588  33.015   4.988
68796W        W41122  17.439  37.253  13.998
68797W        W41123   9.698  30.814   0.724
68798W        W41124   3.036  26.487   1.964
68799W        W41125   8.058  44.450  13.969
68800W        W41126  28.355  28.485   0.562
68801W        W41127  12.130  44.965   2.042
68802W        W41128  17.054  10.725   1.948
68803W        W41129   0.591   1.703   1.390
68804W        W41130   7.300  38.511   4.282
68805W        W41131  21.557  27.237   2.758
68806W        W41132  40.463  10.400  13.070
68807W        W41133  29.696  28.423   4.735
68808W        W41134  22.580  34.064  14.981
68809W        W41135  19.278  23.301   2.510
68810W        W41136  29.082   8.219   3.259
68811W        W41137  13.841  19.466   2.177
68812W        W41138  42.228  20.181   4.528
68813W        W41139  10.419  30.085  11.400
68814W        W41140  18.100  13.895  14.891
68815W        W41141  34.506  25.289  14.055
68816W        W41142   2.919  20.667   1.300
68817W        W41143  29.207  33.382  13.890
68818W        W41144  41.287  32.137  14.309
68819W        W41145  21.095   3.838  13.556
68820W        W41146  26.297  12.373  12.203
68821W        W41147  12.323  24.112  10.176
68822W        W41148  12.435   7.819   4.539
68823W        W41149  30.593   8.422   2.728
68824W        W41150  36.459  32.344   1.905
68825W        W41151  17.828   9.726   5.002
68826W        W41152  21.594  12.139   0.752
68827W        W41153  20.024  34.904  14.718
68828W        W41154   5.649   8.613   5.122
68829W        W41155  16.782  29.166   3.272
68830W        W41156  26.733  29.223   3.957
68831W        W41157  33.738   3.835   3.734
68832W        W41158  17.707   2.812  13.052
68833W        W41159  28.150   7.015   0.820
68834W        W41160  12.691  19.357  12.923
68835W        W41161   5.809  10.428  11.500
68836W        W41162  31.085   7.874   4.578
68837W        W41163  43.439  39.451  14.891
68838W        W41164  13.895  30.623  14.372
68839W        W41165  11.754  21.415  13.024
68840W        W41166   9.766  41.889  12.850
68841W        W41167   5.698  20.244  12.532
68842W        W41168  30.230  15.681   4.776
68843W        W41169  14.590  33.712   1.234
68844W        W41170  11.581  40.828  11.656
68845W        W41171   1.969  28.685   3.241
68846W        W41172  16.006  12.058  11.172
68847W        W41173  37.966  12.547  14.116
68848W        W41174  10.832  35.974   4.006
68849W        W41175  16.744  33.833   3.448
68850W        W41176  22.189   8.235  13.930
68851W        W41177  34.523  34.578  12.072
68852W        W41178  12.110   1.370  13.748
68853W        W41179   9.662  14.891  13.596
68854W        W41180  42.481   3.330  13.850
68855W        W41181  28.678  10.926  14.374
68856W        W41182  33.093   4.166  10.441
68857W        W41183   1.916  37.594   4.636
68858W        W41184  27.639  33.313  12.291
68859W        W41185  38.546  23.037  13.542
68860W        W41186  40.911  11.772   1.433
68861W        W41187  37.258  28.419   0.417
68862W        W41188   8.471  10.741   2.822
68863W        W41189   9.718  44.476  11.281
68864W        W41190  43.011  17.600  12.305
68865W        W41191  12.943  33.500   5.483
68866W        W41192  41.099  27.432   2.771
68867W        W41193  20.632   1.852  13.632
68868W        W41194  17.784  25.866   4.786
68869W        W41195  24.223  11.422   3.326
68870W        W41196  29.475  37.087  14.323
68871W        W41197  32.752   6.777  10.786
68872W        W41198  37.393  26.677  11.921
68873W        W41199  30.533  18.082   4.483
68874W        W41200  39.972  33.000  14.842
68875W        W41201   0.642  14.094  11.092
68876W        W41202  15.378  26.071  14.275
68877W        W41203  41.047   3.457   4.161
68878W        W41204   5.245  23.556   0.253
68879W        W41205   5.389  39.921   2.365
68880W        W41206  43.841  37.915   3.587
68881W        W41207  20.140  37.650   1.985
68882W        W41208  23.029  34.684  12.578
68883W        W41209  43.012  23.408  12.758
68884W        W41210  24.630  18.311   3.567
68885W        W41211   9.362   7.423   3.649
68886W        W41212  33.653   2.895   3.914
68887W        W41213  18.203  23.620   1.751
68888W        W41214  16.141  39.252   4.118
68889W        W41215   6.166  31.355   1.856
68890W        W41216  44.272  20.230   1.982
68891W        W41217  10.913  34.785  12.439
68892W        W41218  39.353  29.710   0.035
68893W        W41219  31.374  40.922  14.297
68894W        W41220  32.439   1.714  13.015
68895W        W41221  38.328  37.130   0.223
68896W        W41222  32.822  22.608   0.037
68897W        W41223   0.352  20.380   4.512
68898W        W41224  14.099  19.641  11.597
68899W        W41225  23.735   3.684   0.473
68900W        W41226  37.428  29.967  14.568
68901W        W41227   7.305  17.216   1.684
68902W        W41228  26.730  19.186   0.118
68903W        W41229  29.476   3.172   2.313
68904W        W41230  24.651  21.765   2.357
68905W        W41231   4.767  20.105  12.966
68906W        W41232  40.939  24.536  11.511
68907W        W41233  34.090  41.790   4.544
68908W        W41234  11.278  15.837   1.960
68909W        W41235  13.353  15.064  11.175
68910W        W41236  10.094  17.324   4.175
68911W        W41237  38.946  43.926   5.173
68912W        W41238   0.178   4.718  12.028
68913W        W41239  27.911   7.694  10.754
68914W        W41240  12.199  42.449  10.901
68915W        W41241  12.598  15.867   2.802
68916W        W41242  21.236  23.570   4.930
68917W        W41243  20.097  18.654   4.075
68918W        W41244  19.226  28.914   4.035
68919W        W41245  39.949  25.688  13.032
68920W        W41246  36.546  16.077   3.108
68921W        W41247  22.353  39.836  10.322
68922W        W41248  39.409  25.177   1.612
68923W        W41249   6.089  23.169  14.449
68924W        W41250  14.716  28.333  10.728
68925W        W41251   7.281  34.376  12.896
68926W        W41252   3.435  40.300  13.438
68927W        W41253  36.118  21.440   3.827
68928W        W41254   3.378  29.884   3.225
68929W        W41255   7.396  14.195  10.750
68930W        W41256  12.855  10.661   0.622
68931W        W41257   5.079  31.662   0.561
68932W        W41258  22.787  17.634  13.062
68933W        W41259  21.300  27.619   4.962
68934W        W41260  14.656  10.339  11.647
68935W        W41261  40.606   5.739  12.061
68936W        W41262  38.413  34.592   1.372
68937W        W41263  40.423   7.420  12.619
68938W        W41264   4.165   5.333  11.755
68939W        W41265  15.444  37.253   4.225
68940W        W41266   6.568   9.215   2.971
68941W        W41267   9.007  20.095   1.884
68942W        W41268   4.649   7.368   3.355
68943W        W41269  11.944  24.250   2.042
68944W        W41270  27.634  38.049  11.187
68945W        W41271   5.877  37.564  12.598
68946W        W41272  28.072  30.955  13.480
68947W        W41273   0.322   1.308   4.500
68948W        W41274  16.088  12.574   3.189
68949W        W41275  12.677  32.449   4.733
68950W        W41276  35.386  29.657  13.970
68951W        W41277  43.960  10.486  10.764
68952W        W41278  32.569   2.288  13.903
68953W        W41279   9.621  22.801   0.847
68954W        W41280  39.618   2.699   3.086
68955W        W41281  26.673  15.073  14.971
68956W        W41282   7.337  21.500   2.709
68957W        W41283  30.568   5.759   4.138
68958W        W41284   2.874   4.996  10.080
68959W        W41285  40.741  17.195   0.924
68960W        W41286   1.232  23.641  10.259
68961W        W41287  19.630  29.200   4.136
68962W        W41288  12.290  34.615  11.054
68963W        W41289  43.123  11.346   4.428
68964W        W41290  39.247  17.133   3.600
68965W        W41291  43.028  10.820  13.994
68966W        W41292  35.005  44.642  10.577
68967W        W41293  42.699  17.261  12.535
68968W        W41294  37.594  27.682   0.975
68969W        W41295   4.205  33.917   3.246
68970W        W41296  35.835   6.256  11.094
68971W        W41297  32.202  27.434  12.757
68972W        W41298  36.795  42.589  13.701
68973W        W41299  39.454  40.036  10.918
68974W        W41300  36.385  19.068   2.259
68975W        W41301  28.994   4.971   2.265
68976W        W41302  41.575   4.754   4.187
68977W        W41303  40.314  36.438   2.864
68978W        W41304   2.818  10.808   3.596
68979W        W41305  22.660  39.284   2.179
68980W        W41306  36.043  19.252   0.430
68981W        W41307  15.024  26.230  14.796
68982W        W41308  38.014  20.985  10.507
68983W        W41309   8.087   3.338  12.764
68984W        W41310  41.375   0.688  12.432
68985W        W41311   7.906   0.063  11.684
68986W        W41312  11.834  13.775  14.378
68987W        W41313  11.261   8.526   0.912
68988W        W41314  37.948   1.733   0.790
68989W        W41315  21.756  24.534  10.869
68990W        W41316  15.580   1.376   1.625
68991W        W41317  31.621  32.664  13.953
68992W        W41318   7.580   1.879  11.020
68993W        W41319   7.427  34.600  10.675
68994W        W41320  40.939   3.522  11.133
68995W        W41321  18.692  38.507   1.937
68996W        W41322  23.132   9.454   2.846
68997W        W41323   5.053  22.551   2.304
68998W        W41324  26.993  29.926  13.846
68999W        W41325   5.367  30.688  10.653
69000W        W41326  13.519   6.688   2.211
69001W        W41327   6.551  17.616  12.051
69002W        W41328  35.778   4.387   0.322
69003W        W41329  12.857  13.357   0.834
69004W        W41330   9.666   8.814   1.286
69005W        W41331  16.847  34.372   0.223
69006W        W41332   5.873  21.359  13.413
69007W        W41333   5.069   0.877   3.293
69008W        W41334  33.971  34.134   2.395
69009W        W41335  28.349  17.926   0.779
69010W        W41336  24.924  21.672   1.424
69011W        W41337  39.497  25.051  14.759
69012W        W41338  11.269   1.187   2.568
69013W        W41339  14.806  31.149  12.535
69014W        W41340  12.777  14.901   3.146
69015W        W41341  37.579  43.250  14.015
69016W        W41342  15.690  42.976  13.304
69017W        W41343  25.665   6.216  12.919
69018W        W41344  44.008  35.063   0.310
69019W        W41345  43.534  27.972   3.726
69020W        W41346  14.103  36.503  13.058
69021W        W41347  39.884  40.875  14.506
69022W        W41348  22.748  29.676   1.185
69023W        W41349  24.559  25.152   1.892
69024W        W41350  21.275  26.356   1.864
69025W        W41351  15.433  27.495   3.177
69026W        W41352   2.940  42.984  13.019
69027W        W41353  41.440  32.439  13.933
69028W        W41354  43.378  12.732  13.442
69029W        W41355  19.720  23.146   4.748
69030W        W41356  39.398  14.554   1.867
69031W        W41357   3.802  29.906  13.778
69032W        W41358  43.483  24.178   4.636
69033W        W41359  26.562  25.595   0.880
69034W        W41360   6.714  22.276   0.950
69035W        W41361  11.211  11.118   3.298
69036W        W41362   0.499  32.629  13.999
69037W        W41363   5.822  31.029   0.955
69038W        W41364  19.738  14.746  12.543
69039W        W41365   6.039  26.714   2.095
69040W        W41366  26.676  32.370   2.240
69041W        W41367  18.344  19.668   3.907
69042W        W41368  30.105  41.085   0.272
69043W        W41369  24.142  33.892   2.224
69044W        W41370  39.052   6.223  10.995
69045W        W41371  39.961  20.316  12.060
69046W        W41372  25.956  38.861  14.967
69047W        W41373  44.932  18.133   1.800
69048W        W41374  34.592  29.584   2.653
69049W        W41375  43.014  43.234   0.364
69050W        W41376  43.536  35.095  14.329
69051W        W41377  26.935   6.337  10.608
69052W        W41378  19.510  44.546  13.107
69053W        W41379   8.387  11.312  13.916
69054W        W41380  26.851  44.017  10.133
69055W        W41381  19.829  44.333  11.051
69056W        W41382   0.126   0.685   4.131
69057W        W41383  11.770  41.917  13.030
69058W        W41384   8.335  18.545   2.897
69059W        W41385  17.776  39.290   0.591
69060W        W41386   5.704  23.277  14.113
69061W        W41387  42.512  13.646  14.365
69062W        W41388  22.865   0.246  12.282
69063W        W41389  28.878  43.817  10.565
69064W        W41390  43.780  27.030  13.925
69065W        W41391   4.714  42.436  13.151
69066W        W41392  31.624  29.938  13.052
69067W        W41393  17.321  28.018   4.052
69068W        W41394  16.251  13.851  10.598
69069W        W41395  41.294  30.690  12.087
69070W        W41396  15.145   7.227  14.817
69071W        W41397  40.896  21.695   0.755
69072W        W41398   3.742   9.919  12.494
69073W        W41399  16.947   5.999   1.243
69074W        W41400  11.714  39.903   4.891
69075W        W41401   2.511   9.664  13.107
69076W        W41402   0.040  19.928  11.132
69077W        W41403   6.606  11.858   2.726
69078W        W41404  39.699  35.665   1.711
69079W        W41405  11.619  41.538  12.379
69080W        W41406  26.047  39.982   4.527
69081W        W41407   0.894  26.458  14.512
69082W        W41408  15.391  37.299   2.283
69083W        W41409  24.498  42.264   3.429
69084W        W41410   9.917  31.639   0.860
69085W        W41411  33.487  21.174   4.254
69086W        W41412  25.081  39.393  10.169
69087W        W41413   4.945  17.719   1.139
69088W        W41414  41.955   2.250   4.187
69089W        W41415  22.688  21.613   4.619
69090W        W41416   8.455  19.284   4.514
69091W        W41417  15.827  19.112  13.899
69092W        W41418   7.725   7.667   1.859
69093W        W41419  43.353  42.282  11.589
69094W        W41420  43.736  18.175  12.905
69095W        W41421  35.889   1.294   1.284
69096W        W41422   5.127  20.885   1.950
69097W        W41423  25.947   6.980  12.398
69098W        W41424  29.346  18.004  14.051
69099W        W41425  43.622  29.170  14.319
69100W        W41426  38.872   9.103   4.655
69101W        W41427  36.560  28.767  10.807
69102W        W41428  20.537  11.409  13.856
69103W        W41429  27.759   9.158   1.004
69104W        W41430   7.447  29.548  12.966
69105W        W41431  19.697  14.428   3.212
69106W        W41432   9.676  13.884  10.754
69107W        W41433  35.935  30.087   2.285
69108W        W41434  14.063  28.488  13.892
69109W        W41435   1.299  21.111   3.523
69110W        W41436   8.495   7.242   1.753
69111W        W41437   9.002  15.198  14.993
69112W        W41438  11.922  18.153  14.194
69113W        W41439  40.409  16.395  14.815
69114W        W41440   0.339  19.366  14.840
69115W        W41441  19.287  36.884   2.260
69116W        W41442  41.927   3.607   5.386
69117W        W41443  18.029   4.845   2.938
69118W        W41444  40.968  15.899  13.388
69119W        W41445  40.839  28.230  14.375
69120W        W41446  19.337  18.240   2.778
69121W        W41447   7.566   3.689  12.523
69122W        W41448   5.769  30.420  10.833
69123W        W41449   0.879  28.628   4.627
69124W        W41450  20.520  22.125   4.129
69125W        W41451   4.328  14.671  14.394
69126W        W41452  40.755  42.231  12.021
69127W        W41453   5.107  24.470   2.398
69128W        W41454  37.590  13.327  14.319
69129W        W41455  13.579  27.102  13.899
69130W        W41456  25.073  44.833  11.816
69131W        W41457  42.055  35.110   3.296
69132W        W41458  14.996  18.156   1.420
69133W        W41459   2.355  12.609  12.191
69134W        W41460  24.685  18.766  13.658
69135W        W41461  26.366  17.937  10.911
69136W        W41462   5.603  32.887   3.481
69137W        W41463  21.900   2.414   4.119
69138W        W41464  24.020  16.988   4.411
69139W        W41465   4.869  28.993  12.114
69140W        W41466   9.093   3.255   0.830
69141W        W41467  40.877   4.032   1.441
69142W        W41468  18.747   9.978   0.826
69143W        W41469  31.520  32.000   3.216
69144W        W41470  24.805  15.234  14.268
69145W        W41471  12.865   6.453   1.404
69146W        W41472  39.402  37.800  11.959
69147W        W41473  24.558  31.592  10.746
69148W        W41474   9.683  15.203   2.373
69149W        W41475  44.489  43.027  13.615
69150W        W41476  22.674  25.383   4.542
69151W        W41477   6.462  26.454   0.953
69152W        W41478  32.932  22.898  11.178
69153W        W41479  18.507  10.995   2.705
69154W        W41480  19.275  43.826  14.867
69155W        W41481  42.505  39.079   4.504
69156W        W41482  36.885  19.049  11.013
69157W        W41483  19.702  36.520  11.433
69158W        W41484  26.380   4.928  10.397
69159W        W41485   5.216  35.001  13.097
69160W        W41486  19.660  41.656   2.181
69161W        W41487  22.979  22.530   4.591
69162W        W41488  21.175  32.932  13.904
69163W        W41489  44.211  26.182  11.104
69164W        W41490  40.026   0.362  12.813
69165W        W41491   7.565  39.784  14.057
69166W        W41492  39.256  12.290   3.654
69167W        W41493  42.325  30.124  11.695
69168W        W41494   6.282  17.072   0.681
69169W        W41495  42.996  26.578   3.132
69170W        W41496  22.256  31.646   2.307
69171W        W41497  20.016  31.921   1.305
69172W        W41498  41.324  30.231  14.407
69173W        W41499  28.103  29.800  11.406
69174W        W41500  17.616  17.838   3.005
69175W        W41501  20.535  34.892  11.568
69176W        W41502   9.656  36.062   3.124
69177W        W41503  31.517   1.748   1.379
69178W        W41504   0.375  42.935  12.446
69179W        W41505  18.775  42.915   5.100
69180W        W41506  31.987  17.019   4.302
69181W        W41507   4.300  33.340   1.489
69182W        W41508  18.227  20.609  10.747
69183W        W41509  20.986   6.859   0.343
69184W        W41510  35.531   9.831  11.817
69185W        W41511  12.161  39.534  13.946
69186W        W41512  28.207   5.251   1.853
69187W        W41513   4.178  34.000   0.445
69188W        W41514  37.314  10.631   1.172
69189W        W41515  17.312  28.584  11.367
69190W        W41516   6.415  17.041   1.780
69191W        W41517  36.967   0.331   3.022
69192W        W41518  39.379   8.405  13.008
69193W        W41519  21.954  33.479   1.773
69194W        W41520  17.494  25.105  12.032
69195W        W41521  40.716  16.059   3.637
69196W        W41522  35.068  29.536   0.298
69197W        W41523  16.097   5.932   0.187
69198W        W41524   4.709   7.075   1.302
69199W        W41525  31.190  32.439  11.574
69200W        W41526  22.694  41.709   2.499
69201W        W41527  30.006  39.628   2.192
69202W        W41528  42.625  41.756   1.146
69203W        W41529  27.020  29.533  13.495
69204W        W41530   6.271  18.349  13.388
69205W        W41531  38.278  23.655  10.454
69206W        W41532  21.245  38.497   3.346
69207W        W41533  27.879   4.048   1.281
69208W        W41534  36.940  32.074   2.736
69209W        W41535   6.353   5.720   3.316
69210W        W41536   4.203  30.308  11.957
69211W        W41537  27.453  10.645   1.973
69212W        W41538  13.783   0.839   0.182
69213W        W41539   5.401  27.183  12.846
69214W        W41540   2.292  36.306  13.740
69215W        W41541  19.850  38.984   4.550
69216W        W41542  36.439  26.161   4.935
69217W        W41543  33.477  29.028   3.889
69218W        W41544  20.354  15.634   3.195
69219W        W41545  32.361  29.691  13.535
69220W        W41546  18.803  32.698  13.945
69221W        W41547  39.513  29.142   3.717
69222W        W41548   6.895   3.527   2.227
69223W        W41549  15.498  37.828   2.292
69224W        W41550  27.082  22.975   3.574
69225W        W41551  37.668  14.092  10.131
69226W        W41552  34.114  26.583   4.589
69227W        W41553   9.824  31.521   1.749
69228W        W41554  36.232  34.947   5.441
69229W        W41555   5.052  19.001  14.461
69230W        W41556  36.479  11.779   4.554
69231W        W41557  34.554   6.181  11.499
69232W        W41558  28.863  36.491  10.718
69233W        W41559  16.122  40.242  14.336
69234W        W41560  17.184  42.873   3.191
69235W        W41561  33.087  25.476   4.701
69236W        W41562   3.432  12.582   1.320
69237W        W41563   1.810   3.867   4.718
69238W        W41564  34.413   9.932   0.443
69239W        W41565  38.925  42.853   5.395
69240W        W41566  11.652  15.647   3.835
69241W        W41567   3.840   4.803  13.651
69242W        W41568   4.235  16.748   1.830
69243W        W41569   4.934  44.193  14.928
69244W        W41570   4.014  13.936  14.017
69245W        W41571   7.636  26.911   1.669
69246W        W41572  15.055  12.348  13.802
69247W        W41573  32.097  21.531  10.704
69248W        W41574  21.553  38.787   1.719
69249W        W41575   1.009  25.551  14.464
69250W        W41576  20.608   8.405   1.689
69251W        W41577  18.219  15.569   0.616
69252W        W41578   5.816   9.201  12.348
69253W        W41579  38.850  26.890  10.638
69254W        W41580  39.837  41.344  12.854
69255W        W41581  32.093   2.266   1.014
69256W        W41582   9.849  16.412   2.748
69257W        W41583  40.835  25.156  14.936
69258W        W41584  19.605  31.593  13.586
69259W        W41585  20.621  38.529  11.519
69260W        W41586  23.940  16.150   3.739
69261W        W41587  41.691  22.256  13.831
69262W        W41588  40.451  13.175   1.623
69263W        W41589   3.487  41.327   3.568
69264W        W41590  10.294   3.924   1.687
69265W        W41591   2.151  38.939  12.979
69266W        W41592   0.703  22.809   5.580
69267W        W41593  15.338  17.224   2.677
69268W        W41594  40.706  31.641  12.880
69269W        W41595  16.731   0.438  14.858
69270W        W41596  33.567  11.531   4.025
69271W        W41597   2.977  19.281  10.747
69272W        W41598  38.050  17.150  12.521
69273W        W41599  40.915  17.081   4.017
69274W        W41600  23.676   5.332   4.608
69275W        W41601  44.972  41.021   1.266
69276W        W41602  11.156  33.752   1.984
69277W        W41603  22.116  14.109  14.748
69278W        W41604  14.720  38.265  13.631
69279W        W41605  31.218   2.863   3.791
69280W        W41606  39.964  14.697   2.920
69281W        W41607   3.455   7.676   0.820
69282W        W41608  23.150  35.092   0.999
69283W        W41609  39.855  17.754  10.532
69284W        W41610   7.237  44.329   0.716
69285W        W41611   6.828  37.572  10.176
69286W        W41612   2.314   5.651  14.379
69287W        W41613  36.392  19.105  14.328
69288W        W41614  30.894  37.924  11.711
69289W        W41615  16.031  13.757  11.054
69290W        W41616   7.327  15.646  11.542
69291W        W41617   2.854   5.349  13.251
69292W        W41618  18.581  23.271  13.344
69293W        W41619  18.725  37.434  14.280
69294W        W41620  27.530  29.941   4.003
69295W        W41621   9.169   9.353   0.462
69296W        W41622  37.701  14.532   2.279
69297W        W41623  23.825   7.429   4.839
69298W        W41624  27.919  31.158  11.703
69299W        W41625  16.722  15.828   1.763
69300W        W41626  28.452  27.739   1.799
69301W        W41627   2.373  10.025  12.789
69302W        W41628  27.665   4.232   0.306
69303W        W41629  29.181  35.977  11.933
69304W        W41630   5.730   6.659   0.223
69305W        W41631  26.692  39.269  10.977
69306W        W41632  37.502  26.400   0.347
69307W        W41633   2.797  28.541  12.637
69308W        W41634  42.812  31.296  12.128
69309W        W41635  39.394  40.049  14.387
69310W        W41636   0.598  40.100   3.733
69311W        W41637  20.063  29.267  12.015
69312W        W41638   3.970  30.585  12.634
69313W        W41639  12.619  35.007  12.927
69314W        W41640   0.553  19.871  11.182
69315W        W41641   3.895  33.100  12.453
69316W        W41642  28.712  28.945   9.773
69317W        W41643  38.278   5.971  10.796
69318W        W41644  33.919   5.670   3.327
69319W        W41645  41.118  10.333  14.948
69320W        W41646   5.483  42.063  13.899
69321W        W41647  20.056  21.030  11.665
69322W        W41648  23.647  43.518   2.657
69323W        W41649   1.300  40.516   2.162
69324W        W41650   2.071  31.944  10.195
69325W        W41651  21.808   4.945  14.025
69326W        W41652  43.389   5.723  13.129
69327W        W41653   2.945  11.820  10.641
69328W        W41654   3.420  17.787   1.333
69329W        W41655  16.672  36.874  13.553
69330W        W41656   8.030  40.104   9.872
69331W        W41657   2.251  27.923  10.320
69332W        W41658  19.075  15.289  13.498
69333W        W41659  28.478  10.430   4.236
69334W        W41660   3.642   8.402  13.889
69335W        W41661  19.040  14.810   1.388
69336W        W41662  39.366   2.248  14.178
69337W        W41663  25.964  28.913  12.583
69338W        W41664  20.467  29.461   2.242
69339W        W41665   0.731  43.543   4.061
69340W        W41666  19.908  39.961   1.870
69341W        W41667  22.781  20.534  11.592
69342W        W41668  31.162  26.465   2.634
69343W        W41669   5.743  16.098   2.727
69344W        W41670  29.493  25.465  14.314
69345W        W41671  17.339   3.441   3.276
69346W        W41672  14.353  34.948  13.467
69347W        W41673  41.910  13.341   2.276
69348W        W41674  39.328  19.200   3.631
69349W        W41675  44.368   2.061   3.202
69350W        W41676   1.196  11.950   4.514
69351W        W41677  36.252  31.449  11.540
69352W        W41678   6.658  25.698  11.033
69353W        W41679   0.441  37.610   4.187
69354W        W41680  35.592  43.493   0.546
69355W        W41681  41.502   9.856  10.694
69356W        W41682   0.964  12.357   3.309
69357W        W41683  27.661   0.690   4.023
69358W        W41684  40.681  32.746  11.561
69359W        W41685  24.077  15.780  14.077
69360W        W41686  12.091  31.408   2.645
69361W        W41687  33.987   7.388   4.094
69362W        W41688  12.802   1.668   0.924
69363W        W41689  36.961  32.512   0.766
69364W        W41690   0.817  35.556  14.311
69365W        W41691  35.669  34.348  13.055
69366W        W41692  21.569   2.028   4.114
69367W        W41693  42.922  36.925   0.842
69368W        W41694  28.485   0.720   1.934
69369W        W41695  26.906  19.375  11.599
69370W        W41696  19.826  41.167   2.377
69371W        W41697  30.154  34.478  12.645
69372W        W41698  24.736  23.405   1.091
69373W        W41699  19.326   2.016  11.664
69374W        W41700  15.096  26.638   3.409
69375W        W41701  18.012   4.160  13.805
69376W        W41702  18.213  40.948  12.841
69377W        W41703  42.144  17.479  12.470
69378W        W41704  14.363   6.301  14.936
69379W        W41705  36.395  15.650   3.379
69380W        W41706  38.849   3.851   0.199
69381W        W41707   6.623  37.449   1.206
69382W        W41708  30.878  29.160  13.892
69383W        W41709  29.680  11.799   3.272
69384W        W41710  41.516  43.385  12.043
69385W        W41711  15.474  43.346   2.807
69386W        W41712   9.733  43.011  11.698
69387W        W41713  14.867  22.435   4.575
69388W        W41714   2.977  29.213   3.719
69389W        W41715  15.314  21.662   4.664
69390W        W41716   1.316  12.637   1.211
69391W        W41717  22.411  26.165  14.314
69392W        W41718  13.765   4.684  14.902
69393W        W41719  30.196  44.313   0.998
69394W        W41720  15.035  10.462   3.346
69395W        W41721  16.391  14.121  11.018
69396W        W41722  38.120  23.646   3.293
69397W        W41723  21.391  16.332  14.980
69398W        W41724  42.512  18.141   3.700
69399W        W41725  44.912  44.631   0.940
69400W        W41726  11.748   2.371   0.415
69401W        W41727  30.765  21.104   0.268
69402W        W41728  21.832  14.066  12.585
69403W        W41729  32.480  27.064  10.743
69404W        W41730  36.504  31.235  13.796
69405W        W41731  21.178  35.966   2.430
69406W        W41732  17.528  41.530  13.535
69407W        W41733  18.486  14.058   3.284
69408W        W41734  26.179   2.423   4.737
69409W        W41735   3.827   7.507   9.967
69410W        W41736   0.414   9.387  12.006
69411W        W41737  14.570  18.870  11.656
69412W        W41738  28.172  32.130  13.048
69413W        W41739  17.364  38.590   1.457
69414W        W41740   5.356  31.597  14.505
69415W        W41741   7.924  27.742   1.202
69416W        W41742  20.776  15.647  14.550
69417W        W41743  24.537  11.588   0.534
69418W        W41744  34.616  29.961  11.540
69419W        W41745  42.853   2.479  14.539
69420W        W41746  36.401  32.928  12.800
69421W        W41747  24.891  26.434   2.608
69422W        W41748  35.096  34.223  12.314
69423W        W41749   5.275  42.450  11.248
69424W        W41750  22.949  32.179  10.284
69425W        W41751  26.193   9.923   3.145
69426W        W41752  39.430  20.458  13.368
69427W        W41753   1.914  42.044  13.746
69428W        W41754  22.183  28.402   2.117
69429W        W41755  37.406   9.039  14.430
69430W        W41756  32.347   1.522   0.024
69431W        W41757  16.779  24.002   0.290
69432W        W41758  19.543  36.837  11.063
69433W        W41759  21.193  15.528   4.099
69434W        W41760  26.855  22.663   2.687
69435W        W41761  15.164   2.178   0.238
69436W        W41762  40.076  28.362   4.285
69437W        W41763   6.421   5.393  11.202
69438W        W41764  35.813  36.235   5.049
69439W        W41765  10.785  15.512  10.999
69440W        W41766  24.482  12.284  14.397
69441W        W41767  17.165  24.755  11.577
69442W        W41768  43.920  40.562   1.458
69443W        W41769  41.780  33.084   3.125
69444W        W41770   5.223  31.578   4.591
69445W        W41771  34.684  21.322  11.133
69446W        W41772  43.518  12.574   0.435
69447W        W41773  34.601  35.985   2.196
69448W        W41774  33.507  35.139  13.400
69449W        W41775  38.624   2.004  10.321
69450W        W41776   6.507  33.048   4.582
69451W        W41777  29.960  36.965   3.712
69452W        W41778   5.434   6.174  11.158
69453W        W41779  21.404   7.274  14.273
69454W        W41780  27.876  29.071   4.655
69455W        W41781  11.838  35.993   3.601
69456W        W41782  35.659   3.629   0.198
69457W        W41783  44.268  36.775   1.772
69458W        W41784  29.839  20.568  12.034
69459W        W41785  17.281  11.410   4.932
69460W        W41786   0.787  17.589   1.715
69461W        W41787  24.493  19.730   2.110
69462W        W41788  28.473  12.020   3.859
69463W        W41789   7.738  36.928   1.761
69464W        W41790  36.656  14.166   3.711
69465W        W41791  21.708  30.902  12.490
69466W        W41792  13.147  28.683  11.711
69467W        W41793   1.209   1.868   3.134
69468W        W41794  10.666  23.497  12.927
69469W        W41795  40.271  30.069   1.596
69470W        W41796   4.974  30.881  11.839
69471W        W41797  14.785  14.357   1.272
69472W        W41798  26.475  28.632  13.407
69473W        W41799  27.009  44.950   4.383
69474W        W41800   5.310   3.952  13.873
69475W        W41801  25.679  22.100   4.489
69476W        W41802  23.337  35.398   2.842
69477W        W41803  24.002  32.824   3.732
69478W        W41804  41.768  19.077  13.588
69479W        W41805  30.948  16.321   4.101
69480W        W41806  40.710   7.779  13.966
69481W        W41807  31.320  19.616   5.174
69482W        W41808   4.975   2.329   0.733
69483W        W41809  35.390   9.099  12.044
69484W        W41810   9.234  19.311   0.746
69485W        W41811  35.422  18.442   1.022
69486W        W41812  35.281  16.826   0.842
69487W        W41813  30.548  34.851   4.437
69488W        W41814  27.703  31.349  13.364
69489W        W41815  38.997  10.886   0.812
69490W        W41816   6.772  21.107  13.762
69491W        W41817   6.017   0.796  14.755
69492W        W41818   5.992  27.607   3.745
69493W        W41819   1.480  17.057  14.043
69494W        W41820   7.323  14.748   2.207
69495W        W41821  35.412  30.093   0.320
69496W        W41822  20.178   2.784   3.425
69497W        W41823  29.637  27.618  13.949
69498W        W41824  26.658  10.734  10.630
69499W        W41825  20.927  28.866   4.055
69500W        W41826  33.541  40.323  14.411
69501W        W41827  40.286  23.791   0.939
69502W        W41828   9.182  39.241  13.851
69503W        W41829  32.008  25.313  12.140
69504W        W41830  27.634  20.102  10.727
69505W        W41831  26.080  41.729   0.491
69506W        W41832  11.630  38.075  12.161
69507W        W41833  32.424   2.176   4.712
69508W        W41834  17.164  11.820  11.960
69509W        W41835  15.030   4.338   0.317
69510W        W41836  28.664   4.918  10.746
69511W        W41837  34.926  37.610   1.215
69512W        W41838  44.493  31.435   2.524
69513W        W41839  12.307  42.952  14.361
69514W        W41840  31.888  11.029   4.855
69515W        W41841  25.431   5.634  11.973
69516W        W41842  36.025  42.032   2.247
69517W        W41843  39.125  11.251   1.437
69518W        W41844  12.837  43.229   4.173
69519W        W41845  22.021   8.687  13.782
69520W        W41846  44.488   4.257   2.738
69521W        W41847  12.552  40.899  12.533
69522W        W41848  12.057  42.361   4.876
69523W        W41849  35.596  22.980  12.285
69524W        W41850  30.451  38.553  12.173
69525W        W41851  28.838  39.314   0.792
69526W        W41852  27.108   2.301  12.156
69527W        W41853  28.979  17.708  10.648
69528W        W41854   7.961   3.714  11.271
69529W        W41855  22.040  35.576   4.561
69530W        W41856  25.608  41.485   4.586
69531W        W41857  24.990  14.124   2.641
69532W        W41858  31.537  17.560   1.241
69533W        W41859   7.881  24.734  11.674
69534W        W41860   4.151  29.769  12.775
69535W        W41861   7.997  30.999   4.373
69536W        W41862   4.359  20.628   3.666
69537W        W41863  12.030   1.945  14.116
69538W        W41864  22.867  14.745   5.192
69539W        W41865   6.884  26.689  14.415
69540W        W41866  40.361  14.992  11.988
69541W        W41867  39.086  41.859   1.308
69542W        W41868  23.413   3.565   3.207
69543W        W41869  15.454   5.475  12.031
69544W        W41870  16.607  40.729   2.203
69545W        W41871  34.851  44.040   3.227
69546W        W41872   4.630  42.149   0.739
69547W        W41873  18.108  15.923   3.259
69548W        W41874  18.597  29.508   0.739
69549W        W41875   9.838   5.897  13.023
69550W        W41876  30.515   0.563   4.174
69551W        W41877  20.563  31.665   1.112
69552W        W41878   9.252  12.317  11.230
69553W        W41879  13.193  10.836  10.810
69554W        W41880  31.060  39.344  12.984
69555W        W41881  23.974  24.643  11.914
69556W        W41882  11.935   8.927  14.041
69557W        W41883  28.401  11.147   0.019
69558W        W41884  32.941  44.372  14.719
69559W        W41885  43.260  40.302  13.361
69560W        W41886  12.194  43.052   1.272
69561W        W41887  21.244  37.823  12.078
69562W        W41888  12.226  28.462   1.299
69563W        W41889  32.166   5.130   0.291
69564W        W41890  41.586   5.735   1.426
69565W        W41891   8.861  15.353  10.560
69566W        W41892   5.815  33.922   4.964
69567W        W41893  41.615  29.115  11.135
69568W        W41894  33.941  37.663  10.547
69569W        W41895   3.904  16.192   3.075
69570W        W41896  23.070  30.950  14.196
69571W        W41897  19.440  26.752   2.417
69572W        W41898  25.370  30.173   1.208
69573W        W41899   2.934  24.645   3.116
69574W        W41900   1.804  38.908   0.823
69575W        W41901   2.834  15.074  14.913
69576W        W41902  14.362  25.167   0.543
69577W        W41903  27.174  32.437  14.402
69578W        W41904  29.154  32.945   2.816
69579W        W41905  13.306  44.958  10.999
69580W        W41906  24.266  15.825  12.489
69581W        W41907  34.661  29.522  14.380
69582W        W41908  38.927   6.073   3.534
69583W        W41909  35.859  37.321   0.310
69584W        W41910  33.242  16.654   2.865
69585W        W41911   6.485  11.777  11.516
69586W        W41912  12.714  23.733  11.409
69587W        W41913   2.843  29.533  10.957
69588W        W41914   3.848  42.517  14.649
69589W        W41915   2.999   4.231  14.447
69590W        W41916  41.545  12.737  12.051
69591W        W41917  11.183  33.572   0.554
69592W        W41918  21.990  25.079  11.506
69593W        W41919  38.007  38.346  14.250
69594W        W41920  31.909  20.898   4.211
69595W        W41921  32.035  24.503  11.008
69596W        W41922  10.802  43.064  10.749
69597W        W41923   6.299  25.882   2.399
69598W        W41924   1.782   8.304   3.042
69599W        W41925  22.958  28.927   2.080
69600W        W41926  29.336   2.501  13.282
69601W        W41927  44.725  13.125  12.006
69602W        W41928  29.119  44.756  13.094
69603W        W41929  13.615  34.551   4.568
69604W        W41930  31.360   3.983  11.672
69605W        W41931   0.222   1.891   3.550
69606W        W41932  30.119  27.066  13.417
69607W        W41933  44.943   4.974  14.544
69608W        W41934  17.623  34.016   1.433
69609W        W41935  36.490   9.425   2.175
69610W        W41936  27.689  13.121   3.278
69611W        W41937  28.669   2.211  11.167
69612W        W41938  18.834  36.385  12.028
69613W        W41939  12.467  32.021   4.530
69614W        W41940   8.794  37.515  12.855
69615W        W41941  28.562  40.538  13.002
69616W        W41942  19.125  22.522   1.395
69617W        W41943  31.906   9.868   0.752
69618W        W41944  33.604   1.833   3.566
69619W        W41945  22.587  25.501   2.373
69620W        W41946  17.624   5.078   3.190
69621W        W41947   5.864  14.179  14.585
69622W        W41948  39.077  32.511   2.127
69623W        W41949  35.482  21.581   1.878
69624W        W41950  27.054  39.956  14.519
69625W        W41951  10.191  31.225   3.903
69626W        W41952   7.772  41.147  12.102
69627W        W41953  37.070  13.685  11.103
69628W        W41954   4.006  34.062   4.607
69629W        W41955   3.268  14.072  10.351
69630W        W41956  39.308  31.343   1.689
69631W        W41957  23.696   5.987  12.485
69632W        W41958  14.233  27.719  12.471
69633W        W41959  16.955  44.808  12.036
69634W        W41960  31.584  18.489   4.194
69635W        W41961  40.975  31.859   1.978
69636W        W41962   9.187  36.225   2.861
69637W        W41963  26.259   1.220   3.972
69638W        W41964  38.116  34.643   1.797
69639W        W41965  22.075   0.963  14.951
69640W        W41966  25.669  30.570  13.811
69641W        W41967  17.782  25.885  12.481
69642W        W41968   1.232  27.696  12.673
69643W        W41969  43.161  28.627  11.417
69644W        W41970  41.465  14.383  13.163
69645W        W41971  11.806  15.232   3.557
69646W        W41972  40.121  20.952   1.800
69647W        W41973  19.528  23.807  13.852
69648W        W41974  38.147   4.716   3.285
69649W        W41975  35.371  35.751   4.124
69650W        W41976   2.234  39.943   1.220
69651W        W41977  27.037  10.367   4.075
69652W        W41978   0.412  41.017   3.288
69653W        W41979  33.689  27.672  12.537
69654W        W41980  16.537  23.644  14.010
69655W        W41981  39.499  30.924  10.711
69656W        W41982   8.208  17.194   2.302
69657W        W41983   0.271   0.966  14.405
69658W        W41984  38.726  27.947  10.775
69659W        W41985  24.952  42.912   2.331
69660W        W41986   3.993  31.556   1.720
69661W        W41987  38.901  28.689  12.594
69662W        W41988  37.783  41.409   4.591
69663W        W41989   2.779  25.043  14.834
69664W        W41990  19.023   9.090   3.480
69665W        W41991  43.974  13.766  14.365
69666W        W41992   4.411  33.066   4.259
69667W        W41993  10.603  29.486   2.209
69668W        W41994  42.723   9.445  13.848
69669W        W41995  30.711  28.576  10.692
69670W        W41996   9.480   0.718  14.489
69671W        W41997  25.465  14.767   4.201
69672W        W41998  16.640  14.894   1.329
69673W        W41999  11.628   7.906   1.138
69674W        W42000   9.390   6.999  13.825
69675W        W42001  33.106  30.158  11.322
69676W        W42002  19.316  32.027   4.578
69677W        W42003   4.302  32.132  11.098
69678W        W42004   7.473  25.730  11.614
69679W        W42005  31.694   6.092  12.866
69680W        W42006  15.811   7.711   2.844
69681W        W42007  26.238   0.707  13.446
69682W        W42008   8.129  24.275  11.129
69683W        W42009   7.459  27.947  13.332
69684W        W42010  16.571  21.999  11.116
69685W        W42011  38.099  21.083  12.540
69686W        W42012  17.727  12.389   3.408
69687W        W42013  44.266  14.355   4.627
69688W        W42014  37.656  17.089  12.866
69689W        W42015  26.669   8.765   4.692
69690W        W42016   7.114   1.255   3.732
69691W        W42017  43.577  31.918   0.635
69692W        W42018  24.720   9.812   1.487
69693W        W42019   2.234   6.656   4.395
69694W        W42020  23.298  28.182   4.638
69695W        W42021  20.242  36.843   2.340
69696W        W42022  30.947  29.981  12.464
69697W        W42023   7.967  11.305  12.978
69698W        W42024  13.586  17.817   3.754
69699W        W42025  20.001   3.781   0.418
69700W        W42026  33.380  31.351   1.298
69701W        W42027  40.256  44.296  13.827
69702W        W42028  34.607  23.077   2.807
69703W        W42029  24.893  26.131  14.937
69704W        W42030   3.658  24.582  12.076
69705W        W42031   6.704  39.231  14.040
69706W        W42032  13.221   0.387  12.050
69707W        W42033   4.434  28.765  13.103
69708W        W42034  39.291  40.495  11.072
69709W        W42035  34.996  44.213  10.296
69710W        W42036  12.078   0.019   0.303
69711W        W42037  40.446  11.564   0.790
69712W        W42038  30.464  26.119   4.699
69713W        W42039  24.528  13.944  10.447
69714W        W42040  43.756  41.523   3.259
69715W        W42041   4.499   2.368   3.766
69716W        W42042  29.082   4.454  12.983
69717W        W42043  24.904  26.193  13.433
69718W        W42044  20.431  14.247  10.205
69719W        W42045  15.293  42.483  14.989
69720W        W42046  19.158  25.975  12.521
69721W        W42047  28.400  44.687   3.117
69722W        W42048  12.077  40.925  11.503
69723W        W42049  41.894  30.442  12.182
69724W        W42050  44.079  43.946  11.539
69725W        W42051   9.898  21.648   4.680
69726W        W42052  21.300  14.213   3.798
69727W        W42053  23.635   8.122  14.940
69728W        W42054  25.475   7.153   1.233
69729W        W42055  13.090  18.194  14.905
69730W        W42056  15.081  15.324   1.694
69731W        W42057  13.733  39.483  12.430
69732W        W42058  41.171  26.926  14.792
69733W        W42059  20.741   0.948  14.424
69734W        W42060  36.062  30.372  10.711
69735W        W42061  13.226   7.714  14.374
69736W        W42062   8.611  11.006   1.207
69737W        W42063  31.595  41.779   2.353
69738W        W42064   3.716  26.471  13.918
69739W        W42065  17.711  36.801  14.058
69740W        W42066  18.190  34.616  12.014
69741W        W42067  17.281  28.362  13.382
69742W        W42068  41.396  43.294   5.020
69743W        W42069  18.242  42.676  11.650
69744W        W42070   2.976  21.994  14.040
69745W        W42071  23.373  18.296   1.709
69746W        W42072  20.810  34.424  14.771
69747W        W42073  43.463  15.601   1.485
69748W        W42074  30.887  26.061  14.488
69749W        W42075  17.536  26.044  13.478
69750W        W42076  19.972   5.722   1.426
69751W        W42077  11.265  35.608  12.981
69752W        W42078  29.135  20.122  10.688
69753W        W42079  11.359  22.734  10.878
69754W        W42080   2.683  11.226  10.300
69755W        W42081   1.560  42.932  11.711
69756W        W42082  30.433  27.693   2.671
69757W        W42083  41.941  44.807  11.644
69758W        W42084  23.548  11.625  13.030
69759W        W42085  43.069  26.472  12.995
69760W        W42086  41.220  30.413  14.938
69761W        W42087  32.077   3.401  10.601
69762W        W42088   8.167  22.492   2.399
69763W        W42089   5.894   8.729  10.740
69764W        W42090  29.999   3.589  10.706
69765W        W42091  19.524  20.787  13.405
69766W        W42092  32.070  30.135   3.335
69767W        W42093   3.564  33.391   4.072
69768W        W42094  32.559  41.765  13.571
69769W        W42095  27.009  43.859   3.632
69770W        W42096  44.312  20.976  14.748
69771W        W42097  33.883  26.414  11.501
69772W        W42098  10.697   8.256   2.804
69773W        W42099  17.730  16.867   0.084
69774W        W42100   6.488  26.043   3.410
69775W        W42101  25.133   5.144   4.258
69776W        W42102  18.632  24.505  14.750
69777W        W42103   5.217  35.058  11.175
69778W        W42104  44.349  36.642  14.941
69779W        W42105  23.553  40.033   3.264
69780W        W42106  24.446  21.436   4.215
69781W        W42107  26.761  36.945   0.004
69782W        W42108  23.504  30.418   2.468
69783W        W42109  36.354  18.738   0.703
69784W        W42110  32.540  44.487   0.901
69785W        W42111  24.006  39.947  13.491
69786W        W42112   7.186  21.635   1.269
69787W        W42113  10.427  25.266   2.396
69788W        W42114   6.045   8.235   1.246
69789W        W42115  25.166   4.976  13.357
69790W        W42116  31.073  34.567   3.279
69791W        W42117  39.908  42.333   4.486
69792W        W42118  35.495   6.552   5.036
69793W        W42119  23.237  39.104  10.058
69794W        W42120  37.844   0.886  11.552
69795W        W42121  19.098   6.106  11.923
69796W        W42122  39.106  17.570  10.049
69797W        W42123  20.148   7.905  13.728
69798W        W42124  13.303  38.383  12.218
69799W        W42125  32.566  40.983  14.030
69800W        W42126   1.753  28.874  11.700
69801W        W42127  37.306  38.551  12.465
69802W        W42128  12.240  29.055   0.354
69803W        W42129  31.630  23.247   1.920
69804W        W42130  18.848  26.632   1.343
69805W        W42131  38.305  30.158  13.408
69806W        W42132   4.251  13.714   1.273
69807W        W42133  40.823   4.881   1.987
69808W        W42134  32.342  14.724  14.015
69809W        W42135  14.481  20.312  10.962
69810W        W42136  22.167  36.790  10.728
69811W        W42137  33.093   3.457  10.687
69812W        W42138  44.913  34.446   0.858
69813W        W42139  34.034  26.026  14.121
69814W        W42140  30.398  12.687  13.808
69815W        W42141   8.834  12.173   2.801
69816W        W42142  27.042  44.807   0.252
69817W        W42143   9.273  42.854   2.341
69818W        W42144  23.525  31.798   2.598
69819W        W42145  40.363   0.419   0.859
69820W        W42146  27.965   1.924  13.776
69821W        W42147  22.251  22.448  13.890
69822W        W42148  29.525  31.661   2.722
69823W        W42149  12.325  29.068   3.621
69824W        W42150   7.725  42.642  12.728
69825W        W42151  26.610  44.039   1.802
69826W        W42152  26.509  43.973  10.555
69827W        W42153  11.262   3.437   3.239
69828W        W42154  28.061   1.753   9.836
69829W        W42155   4.710   4.881  10.606
69830W        W42156  44.756  15.730   0.495
69831W        W42157  31.520  28.952  13.396
69832W        W42158  43.225  18.198  12.923
69833W        W42159   4.498  12.689   3.960
69834W        W42160   5.764  21.085   3.712
69835W        W42161  36.174  26.006   2.461
69836W        W42162   2.191  37.622   3.862
69837W        W42163  15.552  30.605  12.918
69838W        W42164  29.181  18.028   2.305
69839W        W42165   3.911  44.102  10.695
69840W        W42166  29.824  12.778   2.896
69841W        W42167   9.058  34.382   0.762
69842W        W42168   4.235  37.856   2.298
69843W        W42169   3.317  37.849  10.911
69844W        W42170  28.941  23.955  11.034
69845W        W42171  35.552  16.229   0.333
69846W        W42172  26.754   0.106  11.286
69847W        W42173  10.709  28.149  13.447
69848W        W42174  33.166  20.240  11.040
69849W        W42175  19.777  23.049   3.875
69850W        W42176  35.429  32.921  10.754
69851W        W42177  16.754  13.639  10.596
69852W        W42178  12.851  34.412   4.118
69853W        W42179   9.193   4.705  13.454
69854W        W42180  13.781  18.123  13.224
69855W        W42181  15.126  17.680   0.705
69856W        W42182  13.104  16.540   4.413
69857W        W42183  18.885  27.161   2.350
69858W        W42184  24.664  14.191  13.032
69859W        W42185  21.129  42.452  13.981
69860W        W42186  32.380  44.526  14.260
69861W        W42187  19.776  28.986  14.153
69862W        W42188  31.477  31.169   2.224
69863W        W42189  29.332   9.683   2.177
69864W        W42190  44.015  17.084   2.853
69865W        W42191  24.522  42.517  14.661
69866W        W42192   7.796  19.250   1.867
69867W        W42193  18.068  40.296   0.949
69868W        W42194  18.998   6.494   3.298
69869W        W42195  29.171  27.162   4.032
69870W        W42196  21.411  12.680   1.920
69871W        W42197  36.663  35.347   1.584
69872W        W42198  40.874   0.424   4.085
69873W        W42199  22.202  30.303   3.899
69874W        W42200  37.464  38.644  10.783
69875W        W42201  31.895  36.677   1.776
69876W        W42202   0.934  37.135   0.791
69877W        W42203  19.925  24.081   0.960
69878W        W42204  22.098  33.419  10.597
69879W        W42205   9.622  26.517  14.778
69880W        W42206  25.260  23.601   2.700
69881W        W42207  37.433  40.247  13.147
69882W        W42208  33.016  29.114  11.021
69883W        W42209  29.358  41.329  13.013
69884W        W42210  31.640  23.772   1.322
69885W        W42211   9.724  40.306   1.391
69886W        W42212  21.158  22.607   3.797
69887W        W42213  29.168   8.761  13.978
69888W        W42214   4.968  37.985  10.027
69889W        W42215  12.764  28.457   3.284
69890W        W42216  15.505  11.016   0.426
69891W        W42217   3.693   5.306   2.421
69892W        W42218  40.297  26.637  13.339
69893W        W42219  11.207  30.928   3.163
69894W        W42220  18.551  12.388   3.651
69895W        W42221  10.148  37.592   4.238
69896W        W42222  20.503  23.204  14.619
69897W        W42223  19.820  41.495  13.352
69898W        W42224  24.286  28.162   2.619
69899W        W42225  41.844   1.946  11.662
69900W        W42226  27.525  30.239  14.582
69901W        W42227  27.214  28.538   1.983
69902W        W42228   2.368   8.470   0.693
69903W        W42229   2.693  39.388  13.554
69904W        W42230   8.222  21.034  13.528
69905W        W42231  17.639  43.241   2.371
69906W        W42232  24.580  36.856  11.155
69907W        W42233  12.648   3.452  11.282
69908W        W42234   5.833  33.578   0.798
69909W        W42235   7.347  29.616   0.195
69910W        W42236   2.892  20.230   0.397
69911W        W42237  39.055  30.549  13.983
69912W        W42238   0.695  22.216  10.950
69913W        W42239  28.571  24.732   2.474
69914W        W42240  37.567  21.866   3.776
69915W        W42241   2.909   0.948   2.338
69916W        W42242  29.783  44.900  12.016
69917W        W42243  23.195  13.327   0.268
69918W        W42244  32.397  39.493  11.128
69919W        W42245   2.586  38.781  13.944
69920W        W42246  43.376  16.819  13.157
69921W        W42247   4.714  26.787   2.408
69922W        W42248  21.066  28.883   4.546
69923W        W42249  12.042  16.789  11.535
69924W        W42250  29.338  18.767   0.317
69925W        W42251   0.929  36.809   0.363
69926W        W42252  10.587  12.535   0.775
69927W        W42253  29.598  36.389  10.043
69928W        W42254  11.573  37.884   3.793
69929W        W42255  27.371  14.315   1.109
69930W        W42256  27.631  44.186  14.067
69931W        W42257  12.546   5.877  13.455
69932W        W42258  27.658  15.176   0.667
69933W        W42259  16.695  22.744  12.687
69934W        W42260  35.509  43.351   2.791
69935W        W42261  10.178   2.911  12.081
69936W        W42262  19.472  18.401   1.373
69937W        W42263  16.295  38.749   4.043
69938W        W42264  42.927  17.106   0.267
69939W        W42265   7.148  39.976   1.160
69940W        W42266  25.385  27.671   4.375
69941W        W42267  30.468   1.072   4.076
69942W        W42268  30.016  27.011   1.445
69943W        W42269  25.269   1.634  14.907
69944W        W42270  34.203  43.928  10.714
69945W        W42271   8.152  36.795  13.791
69946W        W42272  42.925   4.804   0.437
69947W        W42273  44.725   3.503   1.810
69948W        W42274  18.081  33.612  12.012
69949W        W42275   9.145   2.445   3.234
69950W        W42276  31.555  14.217   1.910
69951W        W42277  24.604   4.598  13.749
69952W        W42278  15.201   5.495  12.485
69953W        W42279  15.915  40.999   3.184
69954W        W42280  13.851  25.967   3.441
69955W        W42281  34.887  16.690   1.150
69956W        W42282  13.742  21.181   0.264
69957W        W42283   4.796  35.812  11.073
69958W        W42284  21.970  41.730   4.556
69959W        W42285  22.532  18.744  11.805
69960W        W42286  44.701  13.312  10.609
69961W        W42287  27.691  14.284  12.022
69962W        W42288  27.043   1.281  12.089
69963W        W42289  18.926  41.543  12.565
69964W        W42290  29.029  21.040  11.515
69965W        W42291  33.124  35.395   3.149
69966W        W42292   1.668  16.977   3.401
69967W        W42293  12.174  44.612  12.572
69968W        W42294  34.954  38.472  12.431
69969W        W42295  14.636  11.802   1.261
69970W        W42296  19.429   2.833   2.187
69971W        W42297  33.935  32.890  13.370
69972W        W42298  17.772  40.538  10.646
69973W        W42299  41.292  10.553   1.358
69974W        W42300  22.082  17.214   1.314
69975W        W42301   0.582  36.761  13.383
69976W        W42302  41.521  41.071   1.583
69977W        W42303  42.398  13.095  10.639
69978W        W42304  27.158  17.601   4.558
69979W        W42305   0.381  16.261   3.718
69980W        W42306   4.194  27.273  12.868
69981W        W42307  28.870  20.150  11.663
69982W        W42308  26.894  28.113   1.843
69983W        W42309  42.730  21.361   2.285
69984W        W42310  34.518  28.963  12.368
69985W        W42311  20.542  38.042  11.461
69986W        W42312  33.662   1.220   3.554
69987W        W42313  15.546  15.639   3.193
69988W        W42314  28.489  10.381  10.767
69989W        W42315  10.730  27.063   1.101
69990W        W42316  10.876   0.297  11.994
69991W        W42317  25.813   6.214  14.316
69992W        W42318  24.529  43.832   0.302
69993W        W42319  32.074  15.591   0.213
69994W        W42320  38.606  10.468   0.682
69995W        W42321  13.587  40.086   0.872
69996W        W42322   5.504   5.109  11.194
69997W        W42323  30.351  19.272   2.815
69998W        W42324  36.836   8.715   4.159
69999W        W42325   6.962  13.452   3.098
70000W        W42326  38.979  22.013  13.035
70001W        W42327  25.066  43.329   1.275
70002W        W42328  30.731  18.889   4.016
70003W        W42329  41.497  26.968  13.839
70004W        W42330   7.227  13.859   2.726
70005W        W42331  11.852  19.841   2.251
70006W        W42332  28.954  27.339  11.155
70007W        W42333  23.117  24.620   2.958
70008W        W42334   2.738  10.075   4.993
70009W        W42335  28.919  30.415  13.503
70010W        W42336  37.452  42.044  11.183
70011W        W42337  37.403  44.460   3.758
70012W        W42338  23.782   3.884   2.444
70013W        W42339  36.569   7.748   3.617
70014W        W42340   9.000  15.577  13.165
70015W        W42341  11.491  36.331   2.200
70016W        W42342  16.089  40.880   2.175
70017W        W42343  25.226   6.256  10.640
70018W        W42344  43.468  36.510  13.846
70019W        W42345  34.913  35.394  13.634
70020W        W42346  25.659  32.757   2.420
70021W        W42347  33.393  38.346  11.181
70022W        W42348  26.104   9.394  13.792
70023W        W42349  20.933   8.087   4.696
70024W        W42350  20.639  31.371  14.456
70025W        W42351  37.111  14.086  10.791
70026W        W42352  26.790  30.974   3.738
70027W        W42353  12.748  13.621   4.592
70028W        W42354  16.014  28.898   5.009
70029W        W42355  38.650  44.860   1.237
70030W        W42356  19.141   7.382   0.325
70031W        W42357  30.637  32.799   1.389
70032W        W42358  35.282  22.641  14.863
70033W        W42359  27.175  44.401   4.229
70034W        W42360  39.012  17.080  11.384
70035W        W42361  33.721   9.660  12.512
70036W        W42362  36.405  38.856   0.888
70037W        W42363   1.519  32.085  12.409
70038W        W42364  28.628   4.664  14.962
70039W        W42365  28.811  33.436   3.864
70040W        W42366  15.679  12.756   1.719
70041W        W42367  29.932   8.939   1.412
70042W        W42368  21.455  33.905   0.915
70043W        W42369  33.655  30.200   0.782
70044W        W42370   5.492  42.337   4.145
70045W        W42371  12.786   8.302  10.533
70046W        W42372  44.792  44.602  14.339
70047W        W42373   3.786  26.361  14.742
70048W        W42374  21.404  14.582   1.054
70049W        W42375  41.298   9.507   3.755
70050W        W42376  10.371  20.077  11.168
70051W        W42377  27.901   5.716  12.033
70052W        W42378  20.327   3.940   4.676
70053W        W42379  21.714   1.812   0.878
70054W        W42380  31.476  28.497   1.781
70055W        W42381  40.060  27.579  14.373
70056W        W42382  24.111  15.985  11.094
70057W        W42383  39.877  12.594  13.372
70058W        W42384  23.934   3.503   3.196
70059W        W42385   0.414  34.059   1.279
70060W        W42386  18.246  17.714   2.483
70061W        W42387  32.674  40.069   3.316
70062W        W42388  43.421  39.556   1.878
70063W        W42389  44.370  18.568   0.015
70064W        W42390  30.103  31.248  12.603
70065W        W42391  35.478   5.493   3.297
70066W        W42392  29.518   4.283  11.566
70067W        W42393  22.968  15.857  11.704
70068W        W42394  40.957  16.211  13.836
70069W        W42395   8.164   5.751   4.770
70070W        W42396  12.912   6.743  12.090
70071W        W42397  34.644  20.543   1.888
70072W        W42398   0.934  42.162   0.165
70073W        W42399  26.836   5.915   0.607
70074W        W42400  43.237   3.751   1.897
70075W        W42401  12.625  19.961   1.360
70076W        W42402  17.111  15.728   3.973
70077W        W42403  43.825  44.255   4.108
70078W        W42404   5.232  20.587  13.797
70079W        W42405  32.901  27.898   1.615
70080W        W42406  19.488  40.893   3.942
70081W        W42407  31.563  38.964   1.120
70082W        W42408   3.447  41.466   0.868
70083W        W42409  18.141  19.833  12.078
70084W        W42410  30.612  27.225   1.751
70085W        W42411  28.994  41.226   0.715
70086W        W42412  27.230  24.550   3.759
70087W        W42413  18.576  30.881  10.644
70088W        W42414  17.628  36.361  13.816
70089W        W42415  13.855   7.888   4.088
70090W        W42416  38.666  10.952  11.510
70091W        W42417   9.793  23.203   3.042
70092W        W42418  36.948  29.482  13.848
70093W        W42419  14.626  30.995  13.497
70094W        W42420  37.511  28.031  12.614
70095W        W42421   5.411  25.608   4.040
70096W        W42422  11.700  37.075  12.413
70097W        W42423   6.753  18.817   1.692
70098W        W42424  30.511   5.337  13.312
70099W        W42425   3.726  27.696   4.399
70100W        W42426   1.283   2.378   1.918
70101W        W42427  16.067   8.654  14.313
70102W        W42428  36.298  37.539  12.353
70103W        W42429  17.402  31.568  13.541
70104W        W42430  13.086  44.230  11.538
70105W        W42431  34.001  23.235   2.678
70106W        W42432  43.145   6.334  10.305
70107W        W42433  40.843  19.648   4.584
70108W        W42434  23.234  29.028  12.369
70109W        W42435   3.839   7.958   2.790
70110W        W42436  35.526  41.635  14.039
70111W        W42437  44.754  23.019  13.372
70112W        W42438  41.262  18.689   0.329
70113W        W42439  17.180  41.915   2.240
70114W        W42440  22.161  25.215   1.245
70115W        W42441  41.681  27.983  13.661
70116W        W42442  36.133  35.312   2.843
70117W        W42443   6.985   6.845  14.862
70118W        W42444  30.850  30.077  10.859
70119W        W42445  24.360  43.266  13.962
70120W        W42446  10.195  10.412  13.539
70121W        W42447  28.609  16.274   0.771
70122W        W42448  32.578  32.712  10.507
70123W        W42449  22.737   2.749  12.525
70124W        W42450  16.383  18.123   0.860
70125W        W42451  20.950  33.552   1.860
70126W        W42452  38.560  13.348   1.401
70127W        W42453   4.830  33.077  11.555
70128W        W42454  30.922  31.044   2.483
70129W        W42455  29.030  30.597   1.801
70130W        W42456  25.877  11.376  14.952
70131W        W42457  10.628   9.905  10.782
70132W        W42458   6.853  20.043   2.555
70133W        W42459  23.287  33.714  11.017
70134W        W42460  27.375  12.135  11.069
70135W        W42461  39.237  44.929  12.225
70136W        W42462  35.476  37.880  13.106
70137W        W42463  10.202  23.240   3.337
70138W        W42464  10.349  26.095  10.986
70139W        W42465   5.404  25.535   3.513
70140W        W42466   4.872  14.131   1.165
70141W        W42467  34.640  24.915   4.223
70142W        W42468  18.251  27.210   2.977
70143W        W42469  15.837  21.645   1.319
70144W        W42470  26.896  22.948  11.639
70145W        W42471  14.598   6.693   1.283
70146W        W42472  28.669  10.873  10.793
70147W        W42473  27.771  40.907   2.261
70148W        W42474   2.762  39.939   4.655
70149W        W42475  17.030  30.723  10.199
70150W        W42476  30.291   3.051  12.109
70151W        W42477  26.595  14.640   2.444
70152W        W42478  39.109  33.068   3.948
70153W        W42479  18.448  13.191  12.437
70154W        W42480  34.596  11.137  11.134
70155W        W42481  35.820  44.865   4.410
70156W        W42482  29.027  34.139  14.260
70157W        W42483  19.312  24.639   4.320
70158W        W42484  16.883  21.083  13.533
70159W        W42485   9.261   2.986  14.020
70160W        W42486  41.784  17.301   1.837
70161W        W42487  24.910   6.790   2.873
70162W        W42488  26.010   8.499   4.463
70163W        W42489  33.063  31.554   3.379
70164W        W42490  16.727   1.457   4.007
70165W        W42491  29.184  19.662  13.400
70166W        W42492  27.561  30.372   4.269
70167W        W42493  32.877   4.650   4.137
70168W        W42494  21.524  18.540  11.937
70169W        W42495  25.587   3.764  11.383
70170W        W42496  25.585  19.681   1.624
70171W        W42497  13.353  17.848   4.235
70172W        W42498  25.558  22.733   2.581
70173W        W42499  42.858  15.935   3.317
70174W        W42500  12.819  18.323  13.971
70175W        W42501   8.804  32.015  14.614
70176W        W42502  40.443  34.431  12.510
70177W        W42503  17.791  40.737  11.150
70178W        W42504  17.350  32.815   3.669
70179W        W42505   2.371  15.443   2.724
70180W        W42506   3.493   8.876   2.782
70181W        W42507   7.800  13.133   2.183
70182W        W42508  37.779  44.482   3.388
70183W        W42509  42.201  44.294   1.427
70184W        W42510  37.072  31.492   4.098
70185W        W42511  29.465  38.456   3.831
70186W        W42512  34.185   0.200   2.859
70187W        W42513  21.954  29.561  11.517
70188W        W42514  21.974   1.332   2.287
70189W        W42515  31.390  36.978  13.197
70190W        W42516   1.825  10.642   3.302
70191W        W42517  38.945  15.570  12.669
70192W        W42518  11.281  35.622  13.945
70193W        W42519  17.550  27.633   2.269
70194W        W42520  30.873  10.406   0.949
70195W        W42521   6.743  35.781   3.323
70196W        W42522  42.057  14.139   1.208
70197W        W42523  16.075  15.615   4.038
70198W        W42524   8.304  36.147  11.431
70199W        W42525  21.148  12.275  14.133
70200W        W42526  29.254  18.538   2.247
70201W        W42527   4.433  16.830   0.916
70202W        W42528  20.347  28.554  13.365
70203W        W42529  22.615  42.752  11.936
70204W        W42530   4.241   3.693   5.032
70205W        W42531  33.554   8.887   3.675
70206W        W42532   4.699  21.974   0.739
70207W        W42533  40.794   6.306  11.998
70208W        W42534   4.879  39.329  13.911
70209W        W42535  31.302  12.834  12.455
70210W        W42536  40.925  12.868   4.131
70211W        W42537   1.921  11.394   4.070
70212W        W42538  33.938  37.386   2.437
70213W        W42539  18.475   2.740  11.108
70214W        W42540   9.982  14.171   4.974
70215W        W42541  27.000  37.580  13.746
70216W        W42542  44.512  40.669  11.622
70217W        W42543  35.311  18.140   2.635
70218W        W42544  38.073   0.969  13.973
70219W        W42545  40.014  26.568  10.636
70220W        W42546  24.455  24.638   4.722
70221W        W42547  26.613  42.926   4.196
70222W        W42548  29.430  40.011   0.106
70223W        W42549  28.459  18.945   0.572
70224W        W42550  34.342  13.271  12.944
70225W        W42551  34.423   0.514   3.186
70226W        W42552  28.407  24.510   0.368
70227W        W42553  31.450  22.734   2.676
70228W        W42554  24.457  29.036   1.676
70229W        W42555   4.941  34.348   1.971
70230W        W42556  42.369   2.273   2.391
70231W        W42557   0.857   4.270   1.414
70232W        W42558  30.574   5.745  14.929
70233W        W42559  29.158   8.904   3.712
70234W        W42560  42.505   7.500   2.090
70235W        W42561   5.335  42.537   0.302
70236W        W42562  33.139  17.667  12.065
70237W        W42563  14.579  37.814  11.507
70238W        W42564  34.080   9.073  12.941
70239W        W42565  21.492  10.254  13.571
70240W        W42566   6.192   1.251   3.923
70241W        W42567  34.157  24.649  12.448
70242W        W42568  34.430  21.686   2.625
70243W        W42569  14.379  36.375  13.982
70244W        W42570   3.851  13.343  11.104
70245W        W42571   6.744  36.051   1.446
70246W        W42572  37.355  20.732  13.541
70247W        W42573  30.410   9.058   4.122
70248W        W42574  20.030   2.727  12.024
70249W        W42575   9.317   1.661   1.769
70250W        W42576   3.660  17.576  14.832
70251W        W42577   6.878  26.083  10.634
70252W        W42578  41.460   3.734   3.103
70253W        W42579  10.127   3.597   0.164
70254W        W42580  37.851  14.356  11.513
70255W        W42581  23.751   4.566  14.049
70256W        W42582  26.231  17.534   3.375
70257W        W42583  29.627   9.278   4.649
70258W        W42584  42.265  14.694  12.068
70259W        W42585  40.772  28.305  10.496
70260W        W42586   5.362   0.512  14.027
70261W        W42587  23.770  37.884   3.221
70262W        W42588  39.996  41.266  14.842
70263W        W42589  31.221   8.711   2.329
70264W        W42590  36.323  36.197  10.245
70265W        W42591  33.969  29.703   4.530
70266W        W42592  41.234  19.467   1.899
70267W        W42593  32.192  14.720  12.639
70268W        W42594  32.343  43.976  12.052
70269W        W42595  20.567   7.820  14.028
70270W        W42596   8.048  35.459  12.502
70271W        W42597   5.543  38.897   1.413
70272W        W42598   4.708  23.595  13.973
70273W        W42599  33.888   3.892  12.466
70274W        W42600  16.824  18.153  10.430
70275W        W42601  23.201  34.043   1.316
70276W        W42602  22.746  37.752   4.905
70277W        W42603  39.796  21.010   2.574
70278W        W42604  23.203  16.089  14.276
70279W        W42605  35.094  43.770  10.539
70280W        W42606  37.665  18.116   3.965
70281W        W42607  30.069  11.763   4.222
70282W        W42608  41.602  26.040  10.755
70283W        W42609   9.500  44.940  13.218
70284W        W42610  42.853   5.648  14.582
70285W        W42611  24.488  13.207  14.994
70286W        W42612   7.846  43.290   0.919
70287W        W42613  35.560   6.632  12.385
70288W        W42614  25.084  30.185   0.337
70289W        W42615   2.097   1.487   1.426
70290W        W42616  41.110   7.542  13.326
70291W        W42617  16.751  41.046  14.578
70292W        W42618  24.058  27.937  13.363
70293W        W42619  40.849   0.300   2.605
70294W        W42620  13.348  37.510  12.517
70295W        W42621  26.005   6.949  13.818
70296W        W42622  26.036  21.734  11.442
70297W        W42623  42.812  27.725  14.518
70298W        W42624  43.718  41.821   1.763
70299W        W42625   3.151  25.139  12.318
70300W        W42626  18.062  17.991  14.768
70301W        W42627  29.209  42.779  14.104
70302W        W42628  26.185  30.095  13.464
70303W        W42629  34.317   1.329   0.062
70304W        W42630  12.817  19.715  14.292
70305W        W42631  37.788   9.881   1.284
70306W        W42632  14.174  13.616  13.374
70307W        W42633  30.082  22.963  14.646
70308W        W42634  38.171  36.368   1.866
70309W        W42635  23.436   8.184   3.677
70310W        W42636   1.434  22.542   3.597
70311W        W42637   0.706  28.176   2.345
70312W        W42638  24.460  22.909  11.259
70313W        W42639  40.993   0.254  13.432
70314W        W42640   6.753   1.447   2.193
70315W        W42641   6.288  36.984   1.036
70316W        W42642  33.362  16.062  12.872
70317W        W42643  24.050  43.051  11.117
70318W        W42644  12.430  44.052  13.277
70319W        W42645  33.142  21.690  14.142
70320W        W42646   8.171  32.625  14.315
70321W        W42647  25.554  11.116   0.984
70322W        W42648  22.139  35.819   0.235
70323W        W42649  37.418  27.982  14.449
70324W        W42650  40.422   7.611  12.132
70325W        W42651  40.775  12.698  11.574
70326W        W42652  33.358  24.106  11.036
70327W        W42653  34.947  27.981   1.665
70328W        W42654  15.203  25.156   1.676
70329W        W42655  28.774  17.659   2.345
70330W        W42656  35.643  25.277   1.473
70331W        W42657   9.888  23.983  13.840
70332W        W42658  14.051  15.633  14.034
70333W        W42659   9.792  27.627   3.406
70334W        W42660   5.228   2.962  11.159
70335W        W42661   5.144  30.463   2.816
70336W        W42662   5.871  32.643   4.054
70337W        W42663  25.653  30.217  14.833
70338W        W42664   8.228  27.056  14.289
70339W        W42665  32.424  39.058  13.822
70340W        W42666  18.292  40.991   2.655
70341W        W42667  17.708  41.400  14.843
70342W        W42668  17.662   9.607  13.883
70343W        W42669  37.309   9.793  12.307
70344W        W42670  17.828  37.355  12.887
70345W        W42671  39.354  33.553  10.668
70346W        W42672  28.496   4.010   1.974
70347W        W42673  18.614  31.409  10.535
70348W        W42674   8.311  27.707  14.846
70349W        W42675  19.227   5.770  14.249
70350W        W42676  11.946  19.135  10.480
70351W        W42677  39.082  40.957  11.199
70352W        W42678   7.825  31.072  11.432
70353W        W42679  17.033  30.038  10.572
70354W        W42680  14.546  16.124   4.590
70355W        W42681  25.125   5.421  13.916
70356W        W42682  35.759  32.093  11.106
70357W        W42683  10.904  13.696   2.573
70358W        W42684  39.430  12.319  14.511
70359W        W42685  36.872  16.088  11.086
70360W        W42686  43.312  35.655  10.439
70361W        W42687  20.223  40.534   2.880
70362W        W42688  36.694   6.472  12.785
70363W        W42689  13.383  43.458  12.064
70364W        W42690  36.686  10.824  11.095
70365W        W42691   3.238  23.200   1.259
70366W        W42692  42.257  12.650  13.807
70367W        W42693  15.964  30.160  13.999
70368W        W42694  23.764  19.763  13.347
70369W        W42695   1.459  11.156   4.305
70370W        W42696   7.279  39.108   0.364
70371W        W42697  30.926  32.476   0.676
70372W        W42698   8.956  35.847   4.156
70373W        W42699  22.451   3.158  13.358
70374W        W42700  24.011  27.937  11.631
70375W        W42701  32.803  23.263   1.145
70376W        W42702   9.051   0.868  11.822
70377W        W42703  44.473   4.413   1.354
70378W        W42704  15.795  22.407   4.620
70379W        W42705   5.917   9.758   4.556
70380W        W42706   4.602  26.688   1.451
70381W        W42707  32.072  44.279   1.353
70382W        W42708  21.968  19.538   0.549
70383W        W42709  26.918  15.582  12.118
70384W        W42710  14.625  41.012   4.363
70385W        W42711  36.108  17.040  10.603
70386W        W42712  42.467  44.359  14.922
70387W        W42713  34.743  38.849  12.117
70388W        W42714  25.541  44.970   2.582
70389W        W42715  41.794  15.990  12.194
70390W        W42716  24.485   1.052   4.298
70391W        W42717   8.123  20.180  11.195
70392W        W42718  26.235  32.154   3.688
70393W        W42719  37.193  17.611   4.637
70394W        W42720  18.264  36.211  12.027
70395W        W42721  18.113  11.330  11.937
70396W        W42722  17.260   8.456   0.502
70397W        W42723   9.880  24.163   1.409
70398W        W42724  39.803  31.675  11.027
70399W        W42725   1.856   9.615   5.041
70400W        W42726  35.798  12.006   1.697
70401W        W42727  10.182  14.169  13.835
70402W        W42728  22.175  32.263  14.978
70403W        W42729  38.954   3.422   0.458
70404W        W42730  40.688  44.665  11.222
70405W        W42731  44.708  33.102  14.258
70406W        W42732  10.688  30.448   2.778
70407W        W42733  28.073  24.981   1.347
70408W        W42734  14.835  42.231   2.851
70409W        W42735  40.420  23.113   2.321
70410W        W42736  42.897  18.592  13.517
70411W        W42737   9.154  12.567  11.850
70412W        W42738  11.622   9.472   3.740
70413W        W42739   6.690  22.039  14.988
70414W        W42740  26.459  10.373  14.451
70415W        W42741  25.644  27.062   2.263
70416W        W42742  42.046   1.796   0.442
70417W        W42743  32.565  15.424  14.811
70418W        W42744  27.581  22.665   4.151
70419W        W42745   1.016   9.328  13.497
70420W        W42746  11.845  38.862  10.670
70421W        W42747  23.091   1.820   4.250
70422W        W42748  20.310   2.360   0.212
70423W        W42749  42.283  31.421  13.794
70424W        W42750   6.003  21.187  12.516
70425W        W42751  20.046   1.374   2.662
70426W        W42752  15.778  21.059  10.197
70427W        W42753   8.879  24.289   2.265
70428W        W42754  19.769  27.586  10.594
70429W        W42755   5.659  27.903  14.517
70430W        W42756  18.622  25.926   0.229
70431W        W42757  18.720  20.537  12.840
70432W        W42758   9.889  18.372  11.665
70433W        W42759  12.817  26.513  12.043
70434W        W42760  38.829  21.466  10.635
70435W        W42761   6.968  34.029  12.663
70436W        W42762  36.700  33.563   0.282
70437W        W42763  34.283  39.833  12.063
70438W        W42764  36.032  17.759  14.400
70439W        W42765  40.293  12.367   4.509
70440W        W42766  36.864  12.294  11.852
70441W        W42767  25.094   1.332  12.510
70442W        W42768  30.350  19.601  14.794
70443W        W42769  14.155   1.832   2.567
70444W        W42770   9.817  36.286   1.383
70445W        W42771   8.409  35.519  12.118
70446W        W42772  33.947  20.220  14.606
70447W        W42773  36.101  26.956   2.249
70448W        W42774  16.324  19.780   1.686
70449W        W42775  33.386   9.243  12.415
70450W        W42776  18.158   1.384  11.373
70451W        W42777   6.019  37.657   1.391
70452W        W42778  39.427  29.984   3.325
70453W        W42779  13.614  35.403   2.634
70454W        W42780   4.219  36.235  13.268
70455W        W42781  14.370   7.273  13.096
70456W        W42782  34.092   8.158   3.196
70457W        W42783  12.986  30.380  13.846
70458W        W42784  24.967  38.962  12.968
70459W        W42785  21.825   5.293   2.674
70460W        W42786  25.205  24.318  11.149
70461W        W42787  27.540   1.943   0.987
70462W        W42788  35.475   9.277  14.374
70463W        W42789  34.350  27.136  10.797
70464W        W42790  34.590   4.706   4.082
70465W        W42791  12.651  25.659   1.409
70466W        W42792  17.340  39.815  13.300
70467W        W42793   8.469  33.425   3.223
70468W        W42794  17.021  36.671   2.259
70469W        W42795   3.072   5.595  11.872
70470W        W42796  39.731  42.979  14.456
70471W        W42797  42.826  17.318   4.589
70472W        W42798  33.605  26.651   4.505
70473W        W42799  32.877   8.662   0.341
70474W        W42800  24.655  28.259   4.879
70475W        W42801   8.817   5.652  13.002
70476W        W42802  13.695   4.374   1.809
70477W        W42803  42.300   9.719   3.212
70478W        W42804   8.425  37.985  14.752
70479W        W42805  35.837  34.383   1.230
70480W        W42806  31.538  24.724   1.401
70481W        W42807  39.140  40.840  11.963
70482W        W42808  27.728  40.079  13.918
70483W        W42809  27.550   5.289   2.390
70484W        W42810  31.461  30.225   3.668
70485W        W42811   5.927  14.618   1.770
70486W        W42812  13.653  39.067   0.774
70487W        W42813  19.612  41.791   1.653
70488W        W42814   0.455   9.229   1.590
70489W        W42815  39.297  42.145   2.813
70490W        W42816   3.206  12.796  12.914
70491W        W42817  29.252  44.293   0.998
70492W        W42818   3.127   3.033   3.574
70493W        W42819   0.488  29.483  14.813
70494W        W42820   7.906  22.230   0.975
70495W        W42821  21.062  32.564   1.008
70496W        W42822  18.981  37.068  13.294
70497W        W42823  13.095   6.871   4.594
70498W        W42824  19.153  33.832   4.789
70499W        W42825  15.560  19.559  14.805
70500W        W42826  30.659  17.710  11.943
70501W        W42827  29.934  31.394   1.099
70502W        W42828  28.427  39.331  13.816
70503W        W42829   6.306   8.319   4.770
70504W        W42830  32.583  34.281  14.934
70505W        W42831  39.613  27.038  14.915
70506W        W42832  26.703  12.558   1.902
70507W        W42833  12.595  27.318  10.216
70508W        W42834   5.287  36.075  13.819
70509W        W42835  21.341  15.105   1.100
70510W        W42836  24.155   1.484   4.191
70511W        W42837   6.789  28.867   2.204
70512W        W42838  21.149  20.220   2.473
70513W        W42839  38.403  35.257  14.979
70514W        W42840  16.363  20.553  12.030
70515W        W42841  17.133  22.509   2.881
70516W        W42842  15.150  37.086  12.438
70517W        W42843  16.653  32.833  13.759
70518W        W42844   4.320  36.640   4.361
70519W        W42845   2.344  37.039  12.984
70520W        W42846  15.056  38.510  12.060
70521W        W42847  38.101  33.018  14.687
70522W        W42848   6.343  30.688   3.128
70523W        W42849   8.512  25.291  14.719
70524W        W42850  44.420  24.271   1.278
70525W        W42851  17.021  32.983  12.515
70526W        W42852  15.438   1.619   2.198
70527W        W42853   3.108  32.094   2.327
70528W        W42854   4.424  32.885   3.392
70529W        W42855   9.603  34.449   2.296
70530W        W42856   4.869  27.661   1.235
70531W        W42857  37.954  28.067   0.711
70532W        W42858   1.842  12.210   4.617
70533W        W42859   9.097  14.622   0.707
70534W        W42860  18.129  15.731  10.484
70535W        W42861  44.964  38.379  10.939
70536W        W42862  22.198  30.978  14.162
70537W        W42863  26.672  34.754  11.632
70538W        W42864  41.601  30.490   1.530
70539W        W42865  32.606  19.142  13.908
70540W        W42866  13.576  16.265   4.585
70541W        W42867  10.221  27.276   3.468
70542W        W42868  40.123  29.562   1.724
70543W        W42869  43.199   7.097  11.117
70544W        W42870  13.339  13.070  12.260
70545W        W42871  44.931   7.438   1.896
70546W        W42872  33.492  24.447  14.358
70547W        W42873  41.669  41.416   3.267
70548W        W42874  32.881   2.240   1.625
70549W        W42875  29.857  14.281   1.338
70550W        W42876  41.089   4.933  14.376
70551W        W42877  22.733  40.857   0.351
70552W        W42878  41.468  44.225  11.130
70553W        W42879  24.526  11.272  14.986
70554W        W42880  20.491  22.063   2.326
70555W        W42881  12.718  41.751   0.337
70556W        W42882  38.869  23.129   4.849
70557W        W42883  18.497  21.557  13.948
70558W        W42884   0.777  32.546  14.723
70559W        W42885  43.420  41.793  12.218
70560W        W42886  16.843  41.201   0.053
70561W        W42887  19.963  19.171  11.678
70562W        W42888  23.071  20.394   2.500
70563W        W42889  28.293  25.651   2.800
70564W        W42890  29.386  20.104   4.203
70565W        W42891  30.538   7.164   3.636
70566W        W42892  21.254  23.959   0.468
70567W        W42893  14.181  28.024  14.079
70568W        W42894  18.532  21.614  11.172
70569W        W42895  12.634  32.831   0.863
70570W        W42896  19.536  42.581  14.491
70571W        W42897  11.048  20.160   4.592
70572W        W42898   4.673   8.728  12.472
70573W        W42899  37.680  33.197   3.787
70574W        W42900  39.382   2.533  13.301
70575W        W42901  26.597  24.200  11.757
70576W        W42902  11.426   6.205   0.719
70577W        W42903  28.646  30.727  13.156
70578W        W42904  27.985  27.269   4.793
70579W        W42905  37.330  28.642   3.761
70580W        W42906  19.701  16.067  12.574
70581W        W42907  13.316  22.406  13.177
70582W        W42908  31.220   0.036   4.664
70583W        W42909  20.339  38.901   2.212
70584W        W42910  13.625  34.606  10.389
70585W        W42911   9.904  44.728  13.458
70586W        W42912   8.388  40.343  13.502
70587W        W42913  21.567  14.603  12.851
70588W        W42914  30.922  24.225   0.324
70589W        W42915  29.365   8.746  11.334
70590W        W42916  44.306  10.144   3.226
70591W        W42917  13.357  20.627  12.011
70592W        W42918  31.242  30.354  13.840
70593W        W42919  16.432  13.264   2.110
70594W        W42920  42.985  30.122  13.038
70595W        W42921  38.308  42.533  11.153
70596W        W42922  44.331  21.763  12.004
70597W        W42923  25.782   2.808  11.515
70598W        W42924  14.124  32.103   2.237
70599W        W42925  43.529  22.958   0.398
70600W        W42926  31.896   7.433  12.954
70601W        W42927  30.064  11.347   1.479
70602W        W42928  11.261  28.830   4.953
70603W        W42929  43.168  14.950  14.482
70604W        W42930   6.887   0.980   0.455
70605W        W42931  44.817  36.184  13.817
70606W        W42932  43.231  35.279  11.663
70607W        W42933  18.374  35.602  12.492
70608W        W42934  18.863  44.029   3.707
70609W        W42935  25.119  43.875  10.980
70610W        W42936  22.154  25.107   3.107
70611W        W42937   7.713   4.249  13.568
70612W        W42938   1.939   9.127   1.774
70613W        W42939  41.194   0.223   2.174
70614W        W42940  32.263  17.071   0.145
70615W        W42941   4.838   2.711   5.047
70616W        W42942  31.787  44.936  10.539
70617W        W42943  43.968  27.433  12.913
70618W        W42944  12.573  42.735   4.227
70619W        W42945  41.790  34.978  10.719
70620W        W42946  17.374   6.221   0.811
70621W        W42947   3.868  33.409   4.535
70622W        W42948  16.283  20.634  11.145
70623W        W42949  22.969  42.816   1.250
70624W        W42950   3.462   9.789  12.898
70625W        W42951   6.938  37.537   2.288
70626W        W42952  13.331  21.101  12.455
70627W        W42953   2.944   4.260  11.079
70628W        W42954  19.655  11.048  12.858
70629W        W42955  39.105   3.080   5.090
70630W        W42956  26.161  25.452   2.458
70631W        W42957  22.408  41.734  13.936
70632W        W42958   9.953  27.579   0.446
70633W        W42959  36.461   9.515  11.160
70634W        W42960  20.565  32.518  10.742
70635W        W42961  13.346   4.800   2.271
70636W        W42962  40.237   5.655  10.711
70637W        W42963  12.143  42.411   3.076
70638W        W42964   9.327  34.287  10.386
70639W        W42965  13.323  25.894  14.009
70640W        W42966  14.340  42.680   4.094
70641W        W42967   6.473  37.886  13.111
70642W        W42968  28.036  13.276  14.207
70643W        W42969  36.955  25.969  10.806
70644W        W42970  39.122  16.504  13.911
70645W        W42971  39.973  15.090   3.244
70646W        W42972  28.591  38.754  13.150
70647W        W42973   0.516   2.143   2.515
70648W        W42974   1.876  28.134  10.978
70649W        W42975  20.899  37.050   1.834
70650W        W42976  13.168   7.441   3.676
70651W        W42977   0.676  26.189   1.455
70652W        W42978  31.451   6.741   4.216
70653W        W42979   3.628  12.304   9.753
70654W        W42980   8.409  29.115  13.461
70655W        W42981   3.505  29.553   4.072
70656W        W42982  35.019  24.501  11.610
70657W        W42983  10.052   6.670   2.810
70658W        W42984  28.071  33.206  14.354
70659W        W42985  22.794  14.904  12.002
70660W        W42986   4.275  11.877   3.753
70661W        W42987  32.169  43.029   2.293
70662W        W42988   5.817  29.338  12.612
70663W        W42989   2.983   9.383  12.325
70664W        W42990   4.214   6.476  13.039
70665W        W42991   1.085  30.035  14.414
70666W        W42992  10.654  34.629  14.338
70667W        W42993   7.104  13.426   0.376
70668W        W42994  38.801  29.282   3.242
70669W        W42995   8.963  21.986   2.047
70670W        W42996  44.989  21.120  13.332
70671W        W42997  39.933   3.781  13.300
70672W        W42998   7.202  42.398   4.117
70673W        W42999  31.021  17.395   1.344
70674W        W43000   3.483  26.423   0.732
70675W        W43001  41.666  30.643   2.470
70676W        W43002  39.518   7.162   0.387
70677W        W43003  15.581  27.177  13.991
70678W        W43004  32.735  43.936  14.453
70679W        W43005   4.423  29.089  12.674
70680W        W43006   1.195  43.604   3.152
70681W        W43007   5.481  32.426  13.845
70682W        W43008  37.021  24.686   1.839
70683W        W43009  10.479  10.260  12.528
70684W        W43010   7.297  33.718  13.941
70685W        W43011  43.207   9.555  12.355
70686W        W43012  36.586  34.991  14.351
70687W        W43013  36.034  26.076  13.482
70688W        W43014  37.450   5.339   3.850
70689W        W43015  37.393  16.615  12.896
70690W        W43016   6.359  35.879   4.117
70691W        W43017  22.253  29.121   2.881
70692W        W43018   2.734  14.232   2.350
70693W        W43019  10.739  30.180  11.014
70694W        W43020  24.006   2.967  14.870
70695W        W43021   9.794  31.450  13.927
70696W        W43022  30.993  33.872   2.002
70697W        W43023   6.398   9.889   2.685
70698W        W43024   9.578  31.710   2.673
70699W        W43025   7.365   4.723  10.517
70700W        W43026  17.160  29.553  13.787
70701W        W43027  41.310  10.940  11.531
70702W        W43028  29.104  36.893  11.458
70703W        W43029  41.953  44.317  10.917
70704W        W43030   5.873  31.063   3.319
70705W        W43031   0.851   5.438  10.524
70706W        W43032  43.587  33.171  13.467
70707W        W43033   9.078  21.012   4.985
70708W        W43034  38.639   5.343   0.889
70709W        W43035  37.409   3.582  10.655
70710W        W43036  14.537  35.434  11.152
70711W        W43037   6.695  40.875  14.782
70712W        W43038  10.817   7.915   1.802
70713W        W43039  28.691   0.772  10.647
70714W        W43040  21.634   5.149   4.681
70715W        W43041  27.417  20.423  12.048
70716W        W43042  19.612  29.123   2.706
70717W        W43043  36.081   3.577   3.132
70718W        W43044  22.075  16.225   1.049
70719W        W43045  29.423  26.136  10.462
70720W        W43046  43.368   1.509   4.608
70721W        W43047  14.821  42.970  13.912
70722W        W43048   6.252   0.480  10.740
70723W        W43049  34.604  31.877   1.988
70724W        W43050  38.113  30.469  10.670
70725W        W43051  10.800  37.391  10.596
70726W        W43052   4.416   9.940   2.877
70727W        W43053  15.718   8.667  12.072
70728W        W43054   1.820  38.934  14.350
70729W        W43055  16.768  11.693   0.224
70730W        W43056  25.612  41.218   0.744
70731W        W43057  10.546  37.331   4.449
70732W        W43058  12.977  35.355   4.085
70733W        W43059  34.892  36.312   2.775
70734W        W43060  38.845   2.639  11.110
70735W        W43061  41.521  17.849   4.541
70736W        W43062  16.633  40.118   4.237
70737W        W43063   0.805  27.774  12.955
70738W        W43064  21.687  35.454  12.422
70739W        W43065   0.340  35.576   1.361
70740W        W43066  32.471   6.842   2.752
70741W        W43067  37.407  25.469   1.238
70742W        W43068  20.202  22.855   1.215
70743W        W43069  27.202   3.972  10.716
70744W        W43070   1.746  25.822   2.783
70745W        W43071  28.218  32.529   2.301
70746W        W43072  17.413  38.460  14.470
70747W        W43073  19.599  43.714   0.267
70748W        W43074  26.538  22.124   9.923
70749W        W43075  42.972  25.203   0.900
70750W        W43076   0.015   9.128   0.833
70751W        W43077   1.164  31.564  13.848
70752W        W43078  44.230  41.944  14.193
70753W        W43079  22.680   7.821  12.835
70754W        W43080   3.223   3.763  10.785
70755W        W43081   5.432  33.123   2.384
70756W        W43082  22.187  26.995   4.840
70757W        W43083  37.460  37.131   4.102
70758W        W43084  14.871  24.738  13.517
70759W        W43085  30.507  32.993  12.010
70760W        W43086   9.953   3.732   3.278
70761W        W43087  11.044  20.671  12.565
70762W        W43088  24.947  33.220   4.655
70763W        W43089  13.644  15.319   2.169
70764W        W43090  10.546   4.927  11.103
70765W        W43091  14.615  17.926  13.143
70766W        W43092   2.931   9.373   2.043
70767W        W43093  19.302  28.071   2.358
70768W        W43094   9.793  11.756   2.722
70769W        W43095  35.959  25.914  14.840
70770W        W43096  26.742  38.876   5.059
70771W        W43097  33.560   4.089  13.667
70772W        W43098   4.770  37.534  12.393
70773W        W43099  29.087  30.011   0.673
70774W        W43100  20.811  28.466   0.446
70775W        W43101  38.251  31.790   0.005
70776W        W43102   3.862  25.017   3.558
70777W        W43103  41.991  11.725  12.220
70778W        W43104  18.659  43.243  14.390
70779W        W43105  15.942  27.411  14.905
70780W        W43106  13.342  14.319  12.178
70781W        W43107   5.211  21.290   0.435
70782W        W43108  15.801   0.418   3.200
70783W        W43109  31.874  12.200  14.708
70784W        W43110   1.556   4.135  12.801
70785W        W43111  14.848  26.766   1.876
70786W        W43112  34.007  20.080   4.552
70787W        W43113  21.599   2.984   3.258
70788W        W43114  26.208  17.361   2.831
70789W        W43115   3.371  27.823  12.009
70790W        W43116  15.254  34.146  11.073
70791W        W43117  13.059   3.355  10.369
70792W        W43118  22.076  17.369   4.521
70793W        W43119  19.858  13.773   1.846
70794W        W43120  34.315  35.768   4.207
70795W        W43121  15.312   9.439   4.265
70796W        W43122  19.635  27.627   3.260
70797W        W43123   0.749  44.793   2.904
70798W        W43124  36.543  40.584  12.801
70799W        W43125  22.977   8.375  12.836
70800W        W43126   4.497  32.477  13.449
70801W        W43127  25.818   1.488   4.835
70802W        W43128  16.327  20.722   4.607
70803W        W43129  41.959  40.486  11.276
70804W        W43130  29.015  41.767   0.784
70805W        W43131  11.341  42.589  14.349
70806W        W43132   6.751  27.737   4.161
70807W        W43133  14.569  12.057  12.733
70808W        W43134  41.926  43.269   0.362
70809W        W43135  27.459  34.925   0.541
70810W        W43136  25.188  33.180   4.190
70811W        W43137  42.139   9.892   4.147
70812W        W43138   6.057  24.038   4.039
70813W        W43139   7.489  32.191  12.016
70814W        W43140  35.403  32.517  13.545
70815W        W43141  27.040  37.759   4.586
70816W        W43142  25.939   5.720  14.450
70817W        W43143  21.151  26.221  14.803
70818W        W43144  21.978  33.943  10.646
70819W        W43145  19.831  22.551  14.965
70820W        W43146   7.690   6.253   4.946
70821W        W43147  35.685  33.037   0.409
70822W        W43148  40.082  33.129   3.580
70823W        W43149   4.671  28.085   0.250
70824W        W43150  19.918  28.838  12.487
70825W        W43151  30.010  15.369  11.806
70826W        W43152  19.078   6.702   1.693
70827W        W43153  24.485  11.425  11.380
70828W        W43154  32.888  40.361   1.223
70829W        W43155  35.024  34.117   1.514
70830W        W43156  10.165  24.373   4.929
70831W        W43157  34.080   3.887   4.117
70832W        W43158   5.484  23.740  14.346
70833W        W43159  27.720  13.018   9.807
70834W        W43160  14.949   7.517   3.103
70835W        W43161  37.048   0.518  13.419
70836W        W43162  29.577   1.501   2.677
70837W        W43163  22.965  17.077  11.416
70838W        W43164   2.826   8.694   0.772
70839W        W43165   4.952   5.137   4.641
70840W        W43166  15.616   2.171  14.863
70841W        W43167  13.388  35.318  10.886
70842W        W43168  26.322   4.817   3.137
70843W        W43169  19.305  33.818  12.497
70844W        W43170   7.917   8.700  12.051
70845W        W43171  33.853  38.507   1.433
70846W        W43172   8.834   5.069   3.658
70847W        W43173  18.664  20.272  10.669
70848W        W43174   7.818  15.571   1.676
70849W        W43175  20.962  14.244  10.236
70850W        W43176  11.727  24.076  14.072
70851W        W43177  32.392  23.444   4.263
70852W        W43178  14.878   6.930  12.470
70853W        W43179   7.217  11.402  11.020
70854W        W43180  13.864   7.162  14.045
70855W        W43181  28.515  25.007   5.004
70856W        W43182  23.228  18.736  13.121
70857W        W43183  11.904  21.551   2.720
70858W        W43184   7.954  44.300  11.202
70859W        W43185  30.076  41.924   2.351
70860W        W43186  37.517  12.884   1.934
70861W        W43187  29.990  41.517  14.414
70862W        W43188  24.100  12.573   1.881
70863W        W43189   7.149  22.309  12.073
70864W        W43190   6.084  43.729  14.440
70865W        W43191   5.099  20.472   3.933
70866W        W43192  18.757   2.891  14.809
70867W        W43193   5.897   3.009   4.294
70868W        W43194  44.327  20.489  14.953
70869W        W43195  26.453  34.356   2.020
70870W        W43196  43.880  25.115   2.123
70871W        W43197  22.585   4.400   3.769
70872W        W43198  37.870  17.153   4.976
70873W        W43199  34.136  37.197  10.649
70874W        W43200  21.197  44.463  13.183
70875W        W43201   6.643  25.896  14.863
70876W        W43202  36.043  38.648  13.937
70877W        W43203   7.857  37.624  11.145
70878W        W43204  35.494  20.214   4.869
70879W        W43205  44.277   4.420   0.434
70880W        W43206  18.000   4.220  14.904
70881W        W43207  38.310  11.861   5.127
70882W        W43208  13.235  26.259   0.902
70883W        W43209  22.319  35.482   3.186
70884W        W43210  41.598   3.381   2.324
70885W        W43211   7.810  30.579  11.992
70886W        W43212  34.044  13.177  11.925
70887W        W43213  34.810  16.001  12.051
70888W        W43214  22.940  26.834   1.302
70889W        W43215   0.287  22.704  14.901
70890W        W43216   7.375  10.890   4.074
70891W        W43217  33.553   2.223  13.474
70892W        W43218  10.820  16.620  14.208
70893W        W43219  35.945  32.616  13.447
70894W        W43220  26.923  15.665   1.802
70895W        W43221  16.011  13.170   1.809
70896W        W43222  19.821   2.676  14.859
70897W        W43223  18.776  31.698  13.332
70898W        W43224  34.364  31.771   4.126
70899W        W43225  14.393  30.694  14.378
70900W        W43226  19.769  28.217   2.286
70901W        W43227  39.299  24.496   4.081
70902W        W43228   7.401  12.341   3.555
70903W        W43229  32.754   7.914   2.509
70904W        W43230  38.545  19.179  14.873
70905W        W43231  15.311  15.302  12.479
70906W        W43232  28.676  30.756   2.558
70907W        W43233  25.585  23.615   3.693
70908W        W43234  20.284  30.677   5.012
70909W        W43235   1.934   2.289   3.140
70910W        W43236  35.343  40.522  12.406
70911W        W43237  16.659   5.720   4.077
70912W        W43238  36.568  31.080   0.716
70913W        W43239  42.795   6.603  12.046
70914W        W43240  35.144  21.215   2.931
70915W        W43241  42.745  15.644  14.897
70916W        W43242  25.655  25.761  11.248
70917W        W43243  31.284  16.509   0.370
70918W        W43244  30.546  21.752   0.267
70919W        W43245  32.626  28.186  12.099
70920W        W43246  16.763   7.295  13.518
70921W        W43247  14.561  19.503  10.728
70922W        W43248  10.672  29.025   1.447
70923W        W43249  37.547   9.076  13.496
70924W        W43250  37.603  37.888  11.580
70925W        W43251  34.387  39.839  12.963
70926W        W43252  41.185   1.430  11.128
70927W        W43253   7.825  39.233   2.260
70928W        W43254  19.205  24.568   2.898
70929W        W43255  15.379  20.279   0.337
70930W        W43256   4.673  43.856  11.280
70931W        W43257   5.291   4.362   2.596
70932W        W43258  14.688  33.880   0.490
70933W        W43259  24.661   9.379  10.705
70934W        W43260   3.434   6.917  10.520
70935W        W43261  34.620  38.604  14.893
70936W        W43262  35.249  37.736   3.219
70937W        W43263   6.479  22.602   0.640
70938W        W43264   5.953  14.336  11.951
70939W        W43265   2.018  11.963   5.048
70940W        W43266  11.462  26.660   4.526
70941W        W43267   4.965  10.535  14.812
70942W        W43268  23.482  44.178  13.282
70943W        W43269  29.452   5.747   4.390
70944W        W43270   9.131  41.533   1.411
70945W        W43271  25.799   1.020   4.599
70946W        W43272  25.713  34.074  12.582
70947W        W43273  29.661   0.087  13.922
70948W        W43274  39.938  33.867  12.102
70949W        W43275  34.264   2.670   2.813
70950W        W43276  27.992  29.984   3.694
70951W        W43277   9.591  27.580  12.053
70952W        W43278  22.443  27.153   1.981
70953W        W43279  35.524  28.139   3.834
70954W        W43280  36.481  18.920  13.798
70955W        W43281  10.641  25.537  12.127
70956W        W43282   4.646  38.197   2.285
70957W        W43283   3.454  23.308   3.237
70958W        W43284  41.731  36.601  11.225
70959W        W43285  33.059  21.622  11.437
70960W        W43286  37.049   6.649   0.043
70961W        W43287  28.048  34.960   0.888
70962W        W43288  21.477  41.844   4.388
70963W        W43289  21.570  23.993  13.504
70964W        W43290   0.766   3.853  10.473
70965W        W43291   6.550   4.266   3.802
70966W        W43292   4.436   1.623   3.686
70967W        W43293  29.401  23.069   3.233
70968W        W43294  38.804  30.191   1.458
70969W        W43295  15.699  33.529  10.747
70970W        W43296  12.819  28.763   2.410
70971W        W43297   6.706   9.341  10.590
70972W        W43298  29.905  19.232  11.995
70973W        W43299   6.853   3.743  11.980
70974W        W43300   0.907  25.222  13.737
70975W        W43301  32.495  11.595  14.873
70976W        W43302  30.551  17.681  10.707
70977W        W43303   7.613   6.846  13.080
70978W        W43304   9.594  21.260  14.487
70979W        W43305   5.776   3.845   4.676
70980W        W43306  18.188  33.417  11.493
70981W        W43307   6.348  19.350  14.636
70982W        W43308   8.258  12.804   1.215
70983W        W43309  34.032  14.105  10.647
70984W        W43310   5.216  42.830  14.844
70985W        W43311  30.048  37.814   3.861
70986W        W43312  21.835  14.994   3.043
70987W        W43313  41.228  13.833   1.653
70988W        W43314  25.654  11.717  11.143
70989W        W43315  33.059  37.815  13.951
70990W        W43316  39.317  24.473   0.988
70991W        W43317  14.918  40.678   2.918
70992W        W43318  10.105  14.643   4.751
70993W        W43319  11.076  41.649   3.330
70994W        W43320  26.214  44.565   0.787
70995W        W43321  17.093  28.023   1.909
70996W        W43322  12.897  30.581   3.375
70997W        W43323  35.855  25.555   4.106
70998W        W43324  39.580  33.083   3.745
70999W        W43325   8.921  19.110  13.887
71000W        W43326  26.232   2.588  11.768
71001W        W43327  37.601   3.152   4.180
71002W        W43328  24.488  24.567  13.087
71003W        W43329  21.340  28.180   1.222
71004W        W43330  44.409  40.318   0.826
71005W        W43331  10.525  20.478  11.465
71006W        W43332  38.580   4.487  13.483
71007W        W43333  35.791   7.339  12.399
71008W        W43334   2.404  39.616   4.354
71009W        W43335  24.488  23.201   2.818
71010W        W43336   3.549  16.903   0.340
71011W        W43337  24.921  36.905   3.259
71012W        W43338   5.890  13.178  11.692
71013W        W43339  26.872  17.932  10.847
71014W        W43340  33.948  33.996   0.057
71015W        W43341  31.710  15.157   3.372
71016W        W43342  22.964  22.214   1.212
71017W        W43343  10.238   0.315   4.199
71018W        W43344   5.458  32.355   1.226
71019W        W43345  22.537  11.041   4.222
71020W        W43346   5.869   9.494  14.417
71021W        W43347  22.511  34.463   3.131
71022W        W43348  40.350  18.205  14.263
71023W        W43349  40.545  13.448   4.505
71024W        W43350  16.514  41.590   1.790
71025W        W43351  31.531   6.311  14.371
71026W        W43352  32.561  40.293  13.500
71027W        W43353  26.478  42.058  13.988
71028W        W43354  34.383  18.167  12.045
71029W        W43355  35.740  12.121   2.209
71030W        W43356  18.576  41.037  11.665
71031W        W43357  35.489  23.701  13.373
71032W        W43358  23.244   0.344   1.294
71033W        W43359   6.021  13.562   0.978
71034W        W43360  38.083  40.783   4.021
71035W        W43361   2.483  21.754  12.172
71036W        W43362  15.090  40.072  13.554
71037W        W43363  31.344   5.742  12.707
71038W        W43364  44.286  10.335  11.597
71039W        W43365  19.281  32.961   2.145
71040W        W43366  12.290  21.770  10.706
71041W        W43367   2.305  22.277  12.093
71042W        W43368  42.888  13.872   3.965
71043W        W43369  19.423  29.836   0.317
71044W        W43370  41.678  12.121   0.368
71045W        W43371  24.634  37.875  11.221
71046W        W43372   7.718  32.900   2.768
71047W        W43373   4.937  20.367  13.402
71048W        W43374  42.528  29.438   0.267
71049W        W43375  40.435  35.403  14.318
71050W        W43376  40.980  19.217   0.885
71051W        W43377   8.666  42.725  11.476
71052W        W43378  16.628   8.767  12.618
71053W        W43379  20.966   2.853  12.832
71054W        W43380  20.876   8.287  12.668
71055W        W43381  28.409  12.777  14.268
71056W        W43382  23.688  31.640   0.830
71057W        W43383   9.648  21.014  12.998
71058W        W43384  39.147  37.196   0.816
71059W        W43385  25.983   7.674  14.328
71060W        W43386  29.507   7.197   4.453
71061W        W43387  37.597  17.145   0.214
71062W        W43388  27.178   6.310   3.163
71063W        W43389  10.076  29.549   4.724
71064W        W43390  38.525   9.656   3.703
71065W        W43391  20.764  33.581  11.869
71066W        W43392  36.325  11.731   0.980
71067W        W43393   1.980  13.607   0.798
71068W        W43394  14.356   1.922  13.111
71069W        W43395  25.802  44.827  12.507
71070W        W43396   2.966  33.567   1.739
71071W        W43397  13.335  34.991   3.748
71072W        W43398  21.532  28.603   2.687
71073W        W43399   7.883  35.071   3.193
71074W        W43400   9.871   3.188   3.187
71075W        W43401  31.651  28.528  11.675
71076W        W43402  35.071  41.532  10.480
71077W        W43403  23.489   7.843  14.017
71078W        W43404  35.038  44.662   1.189
71079W        W43405  30.384  17.175  14.376
71080W        W43406   3.955  23.728  14.464
71081W        W43407  42.554   2.293  10.986
71082W        W43408  33.967  12.121   4.989
71083W        W43409   1.299   4.131   3.222
71084W        W43410  28.156  40.898  13.566
71085W        W43411   1.727  14.692   2.772
71086W        W43412   7.928  18.989  14.764
71087W        W43413   2.371  11.492  10.602
71088W        W43414   1.850  23.182   5.010
71089W        W43415  18.126  23.607   3.200
71090W        W43416  15.079  42.318  11.280
71091W        W43417  22.614   2.843  13.942
71092W        W43418   6.872  18.553   4.140
71093W        W43419  41.450  12.250  14.824
71094W        W43420  14.568  10.630   3.152
71095W        W43421  29.529  23.924  14.995
71096W        W43422  13.651  24.028  12.411
71097W        W43423   8.881  19.033   4.707
71098W        W43424   8.904  38.483   4.232
71099W        W43425   7.401  18.763  11.009
71100W        W43426  11.822   9.261  12.573
71101W        W43427  26.039  32.456   0.746
71102W        W43428  29.728  41.429   3.114
71103W        W43429   3.519  22.737  14.467
71104W        W43430   8.743  43.513  14.306
71105W        W43431  26.790  20.084  11.115
71106W        W43432  12.752  23.321  12.891
71107W        W43433  44.984   0.182   4.071
71108W        W43434  39.344  30.475   0.877
71109W        W43435  36.261  27.955   2.400
71110W        W43436  34.902  11.841  13.365
71111W        W43437  44.089  24.828   4.919
71112W        W43438  15.802  36.469  13.979
71113W        W43439   8.560   5.679   4.404
71114W        W43440  13.224  11.624  13.157
71115W        W43441   7.431  25.722  12.652
71116W        W43442  20.510  32.097   2.798
71117W        W43443   9.332   3.850  12.542
71118W        W43444   6.603  29.222   4.097
71119W        W43445  24.578  12.635   1.359
71120W        W43446   8.632  19.225  11.239
71121W        W43447  40.449  40.600   5.089
71122W        W43448   0.135  42.406  13.596
71123W        W43449  42.719  10.345   1.370
71124W        W43450  24.747  42.065   0.843
71125W        W43451   1.862  18.107  10.357
71126W        W43452   2.035  40.135  11.065
71127W        W43453  16.674  33.035   2.370
71128W        W43454  32.889  40.825  11.105
71129W        W43455  10.325  36.495  14.797
71130W        W43456  25.233   1.064   3.768
71131W        W43457  11.633   4.377   0.499
71132W        W43458  27.532  21.591   0.953
71133W        W43459   9.083   3.250   3.243
71134W        W43460  37.511   7.276   2.644
71135W        W43461  21.726  17.708   3.624
71136W        W43462   7.277   1.828   0.932
71137W        W43463  24.489  31.359   1.944
71138W        W43464  13.223  40.689   2.751
71139W        W43465  35.006   8.674   0.725
71140W        W43466  21.636  10.794  12.789
71141W        W43467   4.815  19.094   0.431
71142W        W43468  28.627   3.156  13.313
71143W        W43469  11.243  19.056  14.912
71144W        W43470  15.714  24.427  13.389
71145W        W43471  24.085   5.244  12.229
71146W        W43472  33.522  16.528   2.440
71147W        W43473  32.589  38.190   4.543
71148W        W43474   2.172  27.082   2.584
71149W        W43475  35.074  10.172   2.744
71150W        W43476  35.403  24.665   3.773
71151W        W43477  25.621  37.785   1.864
71152W        W43478   5.893  35.054   1.331
71153W        W43479  18.144  30.087  10.782
71154W        W43480  39.430  32.803  13.406
71155W        W43481  44.929   9.325   4.956
71156W        W43482  14.104  42.546   0.389
71157W        W43483   3.953  20.282  10.380
71158W        W43484  16.611  30.652   2.579
71159W        W43485  37.834  28.136  14.705
71160W        W43486  34.620  28.919  10.909
71161W        W43487  29.614  34.168  13.539
71162W        W43488   9.370  18.949  14.790
71163W        W43489  24.591  28.746  12.521
71164W        W43490  19.160  29.448   3.756
71165W        W43491  29.905  22.036  10.705
71166W        W43492  11.342  43.158   1.556
71167W        W43493  25.233  11.203  10.879
71168W        W43494  32.615  34.383  11.596
71169W        W43495  12.484  36.960   5.724
71170W        W43496   2.043  25.392  12.125
71171W        W43497   6.446   3.243   2.218
71172W        W43498  37.898  28.957   2.921
71173W        W43499  38.822  26.191  12.446
71174W        W43500  33.122  36.060  10.905
71175W        W43501   4.900   4.083   4.538
71176W        W43502  26.561  29.539  12.408
71177W        W43503   5.691  19.272   0.964
71178W        W43504  11.617  12.721   3.505
71179W        W43505  40.910  41.561   1.730
71180W        W43506  24.039  24.262  13.039
71181W        W43507  13.067  39.464   3.718
71182W        W43508   5.915   0.980   4.261
71183W        W43509   8.806   0.361  14.266
71184W        W43510  24.668  18.696  12.027
71185W        W43511   4.731  20.817  12.368
71186W        W43512  34.073   2.952   0.009
71187W        W43513  26.497  40.928   4.105
71188W        W43514  15.168  31.189   4.413
71189W        W43515  39.891  28.488   2.837
71190W        W43516  13.511  28.168   1.369
71191W        W43517  35.620   2.913  11.885
71192W        W43518  34.787  32.921  12.105
71193W        W43519  16.551  40.770  14.993
71194W        W43520  33.815  36.905  14.476
71195W        W43521  13.889  14.525   5.167
71196W        W43522  11.120  25.145  13.828
71197W        W43523   4.176   2.807  13.848
71198W        W43524  29.410  31.725   0.288
71199W        W43525  17.359  14.380  12.081
71200W        W43526  13.684  19.527  13.932
71201W        W43527  25.600   8.409   3.251
71202W        W43528  44.753   7.405   1.377
71203W        W43529   1.295   4.681  11.478
71204W        W43530  37.541  11.685  12.152
71205W        W43531  14.819  11.745   0.006
71206W        W43532  25.486  15.543   0.647
71207W        W43533  20.667   6.613  13.767
71208W        W43534  22.372   5.230  12.077
71209W        W43535  14.487  14.259  14.906
71210W        W43536   1.364  34.622  13.537
71211W        W43537  20.286   2.902  11.528
71212W        W43538  31.313  41.549   1.571
71213W        W43539  16.061   5.874  10.555
71214W        W43540  30.195  21.102  10.500
71215W        W43541  29.347  28.133  11.685
71216W        W43542  20.195   5.650   0.246
71217W        W43543  32.681  25.710   2.646
71218W        W43544  17.584  15.137  12.368
71219W        W43545  28.034  21.238   2.752
71220W        W43546   7.667  33.353  11.581
71221W        W43547  33.200   1.707  11.698
71222W        W43548   1.385  26.591   1.255
71223W        W43549  33.201  27.613  12.655
71224W        W43550  23.279  43.049   2.028
71225W        W43551  26.839  12.052  14.187
71226W        W43552  27.473  31.242   1.967
71227W        W43553   6.868  12.896  11.846
71228W        W43554  41.183  14.090   4.537
71229W        W43555  15.792  30.427   0.679
71230W        W43556  31.404  13.630  13.327
71231W        W43557   9.597  16.131   3.704
71232W        W43558  15.645  25.030   1.454
71233W        W43559  38.948   2.928   0.740
71234W        W43560  38.200  24.897   3.692
71235W        W43561  18.957  33.422   4.534
71236W        W43562  32.641  26.709   2.867
71237W        W43563  37.043   6.154  12.547
71238W        W43564  44.473  17.041   4.115
71239W        W43565  29.040   3.901   3.323
71240W        W43566  42.470  30.930   1.923
71241W        W43567   1.160  12.096  14.475
71242W        W43568  18.513  25.736   2.209
71243W        W43569  33.583  37.546   2.788
71244W        W43570   7.899  33.587  14.490
71245W        W43571  17.740  37.013   1.325
71246W        W43572  32.061   6.937  13.822
71247W        W43573  37.881   1.016   4.925
71248W        W43574  30.864  15.684  11.459
71249W        W43575  25.356  16.375  13.294
71250W        W43576  44.809  37.390   1.985
71251W        W43577  32.167   9.124  13.477
71252W        W43578  37.796  34.478  12.520
71253W        W43579  22.264  19.398   4.817
71254W        W43580  15.549  18.973  11.566
71255W        W43581   2.886  28.451   2.197
71256W        W43582  42.562  31.512  11.737
71257W        W43583  32.535  33.496  13.200
71258W        W43584  21.549  42.205   0.338
71259W        W43585  13.826  25.479  11.465
71260W        W43586  34.422  14.964   2.262
71261W        W43587  35.913  24.770   2.622
71262W        W43588   7.004  12.898   0.894
71263W        W43589  17.655  35.919   4.430
71264W        W43590   4.446  11.881  13.829
71265W        W43591  15.235  27.967   0.995
71266W        W43592  25.637  13.784  11.767
71267W        W43593  15.216  44.293  12.533
71268W        W43594  43.247  43.009  12.441
71269W        W43595  18.309  39.905  11.060
71270W        W43596  44.758  27.147  14.294
71271W        W43597  36.541  38.357  13.664
71272W        W43598  40.191   2.411  10.639
71273W        W43599  12.176  27.208   3.819
71274W        W43600   5.711   3.368   1.746
71275W        W43601  41.553  13.627   1.983
71276W        W43602  22.667   6.614  10.330
71277W        W43603  24.725  31.682   4.146
71278W        W43604  25.572  14.225  12.847
71279W        W43605   5.290  14.826   0.896
71280W        W43606  35.930  41.024   3.941
71281W        W43607  38.526  16.183   4.162
71282W        W43608  31.129  34.489   1.862
71283W        W43609  27.704  23.531   1.907
71284W        W43610  24.012  28.668  14.730
71285W        W43611  33.865  36.834  11.639
71286W        W43612  40.107  21.430   4.300
71287W        W43613  34.397  35.506   2.249
71288W        W43614   7.504  38.194  13.951
71289W        W43615   3.514  33.637  13.393
71290W        W43616  39.444   8.788  10.741
71291W        W43617  23.457  15.657   1.915
71292W        W43618   2.896   7.325  14.435
71293W        W43619  43.555  17.803  10.607
71294W        W43620  25.944  33.554   2.048
71295W        W43621   8.470  36.550   3.843
71296W        W43622   1.340  10.356  14.006
71297W        W43623  16.996  13.946   2.468
71298W        W43624  41.398  28.448  13.531
71299W        W43625   2.325  39.436   1.840
71300W        W43626  12.470   1.968   2.264
71301W        W43627   4.229  34.445   2.282
71302W        W43628  10.679  19.161   4.147
71303W        W43629  24.376   2.050   4.908
71304W        W43630   0.789   4.192   1.932
71305W        W43631  25.221   6.319  13.626
71306W        W43632  19.046  11.418  13.876
71307W        W43633  37.256  33.043   2.471
71308W        W43634  27.095  23.953  10.641
71309W        W43635  27.665   5.796   2.502
71310W        W43636  23.107  21.006   3.154
71311W        W43637  26.191  44.782   2.372
71312W        W43638  28.541  12.196   2.831
71313W        W43639  39.321  32.571  12.956
71314W        W43640   7.336  41.026   2.212
71315W        W43641  31.943   6.006  14.131
71316W        W43642  35.934  28.499   0.295
71317W        W43643  43.960  15.667  11.691
71318W        W43644  43.935  14.756   4.548
71319W        W43645  18.020  38.891  13.981
71320W        W43646  41.772  33.943   3.921
71321W        W43647   4.793   2.344   3.249
71322W        W43648  30.876  43.041  10.799
71323W        W43649  19.313  44.549  11.976
71324W        W43650  39.131  15.132   4.166
71325W        W43651  25.206  42.687  13.295
71326W        W43652   5.993  16.753   1.010
71327W        W43653  39.343  17.034   4.096
71328W        W43654  22.528   5.471  14.998
71329W        W43655  29.050  42.535  12.353
71330W        W43656   9.028   8.777   2.494
71331W        W43657  28.026  44.403  12.080
71332W        W43658  14.142  41.187  10.680
71333W        W43659  14.274  44.222   1.243
71334W        W43660   8.293  43.409   1.756
71335W        W43661  23.254  17.827  13.119
71336W        W43662   2.728  27.182   3.111
71337W        W43663  15.095  24.181  11.001
71338W        W43664   1.488   2.458   0.679
71339W        W43665  33.101  12.694  12.146
71340W        W43666   2.954  39.797   2.328
71341W        W43667  10.805   9.458   0.946
71342W        W43668  13.273  16.580   1.903
71343W        W43669  36.513  18.664   4.116
71344W        W43670  12.044  10.388   3.686
71345W        W43671  21.210   0.815   2.665
71346W        W43672  30.723  30.088  12.966
71347W        W43673  31.486  38.473   4.682
71348W        W43674   1.425  14.549   2.247
71349W        W43675  31.656  13.877   3.675
71350W        W43676   5.479   6.674  14.736
71351W        W43677   8.148  36.600  11.621
71352W        W43678  32.057  41.319  10.662
71353W        W43679  29.558  27.580  12.249
71354W        W43680  18.979   8.681  11.651
71355W        W43681   1.103  14.676   4.536
71356W        W43682   9.325   7.052   2.201
71357W        W43683   6.207   3.002   0.947
71358W        W43684  10.064  24.610   3.147
71359W        W43685  44.344  43.447   2.474
71360W        W43686   5.726  16.904  10.669
71361W        W43687  40.918  42.465   3.979
71362W        W43688  40.077  28.736   3.300
71363W        W43689  12.296  33.924  13.519
71364W        W43690  41.075  15.153   2.942
71365W        W43691  27.092  35.413   4.149
71366W        W43692  36.345  34.339  11.923
71367W        W43693  24.671  31.427  12.936
71368W        W43694  44.514  18.822   0.908
71369W        W43695  36.096  11.709   4.893
71370W        W43696   9.545  29.105  11.563
71371W        W43697  42.255   8.380   4.137
71372W        W43698  38.815  40.302  12.554
71373W        W43699  27.622  23.025   1.721
71374W        W43700  14.734  16.727   3.813
71375W        W43701  37.325   7.658   4.322
71376W        W43702  35.432  43.708   4.600
71377W        W43703  30.963   9.685   4.513
71378W        W43704  35.936  24.123  14.680
71379W        W43705  22.164  37.138   1.485
71380W        W43706  26.803  23.685  12.476
71381W        W43707  36.632  12.157  14.774
71382W        W43708  25.592   5.986  13.885
71383W        W43709  43.239  35.206  14.750
71384W        W43710  20.717  23.005  13.642
71385W        W43711  14.201  35.513   5.086
71386W        W43712  39.391  40.607  12.363
71387W        W43713  18.780  24.099   4.219
71388W        W43714   5.724  26.040   4.567
71389W        W43715  41.814  34.411   4.166
71390W        W43716  19.608  40.447   1.026
71391W        W43717  11.746  31.726  13.709
71392W        W43718  14.093   9.375  14.329
71393W        W43719  22.763  16.306   5.556
71394W        W43720   3.265  26.716  14.003
71395W        W43721   8.874  22.216  12.581
71396W        W43722  10.923  34.607   2.772
71397W        W43723  17.913  34.643   0.466
71398W        W43724  14.947  28.220   9.955
71399W        W43725  40.771   0.852   1.418
71400W        W43726  40.490  32.723   4.088
71401W        W43727  23.840  35.270   2.858
71402W        W43728  31.037  13.270   4.612
71403W        W43729  39.025  16.215   3.278
71404W        W43730  44.500   2.468  13.979
71405W        W43731  37.752   2.541  13.526
71406W        W43732   8.200  18.008  13.320
71407W        W43733  11.660  44.761   4.254
71408W        W43734  35.716  39.867   0.312
71409W        W43735   4.694  21.245   3.661
71410W        W43736   1.805  14.837  14.103
71411W        W43737  26.437  29.062   3.052
71412W        W43738  11.294  25.041   2.348
71413W        W43739  26.454  38.753  11.064
71414W        W43740  37.566  14.825   4.363
71415W        W43741  18.331   9.992  11.092
71416W        W43742  38.582  43.557  14.012
71417W        W43743  41.450  12.564  14.378
71418W        W43744  36.109   0.536  13.037
71419W        W43745  20.591  42.797   0.244
71420W        W43746   2.321  19.587  12.342
71421W        W43747   0.260  37.286  10.160
71422W        W43748  36.270  43.928  14.769
71423W        W43749  10.830  31.815   1.252
71424W        W43750  35.566  33.297  14.668
71425W        W43751  18.250  17.864   3.965
71426W        W43752   5.480  21.119  12.498
71427W        W43753   8.087  22.729   0.931
71428W        W43754  11.893  10.182   2.955
71429W        W43755  29.715  13.330  10.736
71430W        W43756  13.743  11.704  13.996
71431W        W43757  29.406  31.238   0.440
71432W        W43758  40.815  34.052  11.159
71433W        W43759  26.795  37.653   0.396
71434W        W43760  21.590  35.883  14.012
71435W        W43761  13.171  24.515  12.724
71436W        W43762  30.444  21.280   3.225
71437W        W43763  37.850  30.099  12.183
71438W        W43764  17.716  12.600  11.619
71439W        W43765   5.183   9.648   0.814
71440W        W43766  32.107  42.060   4.656
71441W        W43767  12.666  35.055   1.927
71442W        W43768  24.332  22.626  10.457
71443W        W43769  23.398  19.766  14.815
71444W        W43770   2.618   1.971   1.213
71445W        W43771  37.720  25.025   3.568
71446W        W43772  19.047   1.195   1.111
71447W        W43773  12.451  18.657   3.129
71448W        W43774  37.894  17.109   2.304
71449W        W43775  41.235  43.312   2.717
71450W        W43776   1.266  42.066  12.679
71451W        W43777  14.390  13.419  12.430
71452W        W43778  13.289   1.205  11.595
71453W        W43779  43.489  29.471   0.974
71454W        W43780  42.043  37.039   3.094
71455W        W43781   6.430  19.709   0.147
71456W        W43782  42.096  27.686   1.736
71457W        W43783  11.797  11.573  12.329
71458W        W43784  10.419  29.483   3.032
71459W        W43785  18.854  10.293   3.256
71460W        W43786  42.283  37.010   1.697
71461W        W43787  30.566  19.606   4.546
71462W        W43788  16.552  14.313  14.868
71463W        W43789   6.872   7.428  10.807
71464W        W43790   3.944  15.599  12.865
71465W        W43791   9.175  17.689  10.531
71466W        W43792   7.731  14.342   5.041
71467W        W43793   9.237   1.719  11.517
71468W        W43794  42.892  36.545   0.271
71469W        W43795  22.899  19.808   5.086
71470W        W43796  33.281  21.531  12.099
71471W        W43797  15.560  19.281   3.885
71472W        W43798  12.283  19.642  11.978
71473W        W43799  37.045  42.241  14.033
71474W        W43800  36.067   0.307  12.537
71475W        W43801  18.654   1.505   4.155
71476W        W43802  16.092  42.460   2.355
71477W        W43803  22.287  16.134  10.709
71478W        W43804  37.264  18.079  11.463
71479W        W43805  42.860  35.877  11.625
71480W        W43806  25.156   8.426   2.770
71481W        W43807  16.708  29.649  12.092
71482W        W43808  22.603  35.615   0.388
71483W        W43809  42.305  16.978  12.542
71484W        W43810   9.718  22.779  12.526
71485W        W43811  27.038   4.621   2.260
71486W        W43812  10.130  25.190  10.166
71487W        W43813  30.144  17.120   4.639
71488W        W43814  21.993  24.130  12.548
71489W        W43815  11.566  20.322  14.976
71490W        W43816   1.032  11.085  10.187
71491W        W43817  21.536  39.675   3.165
71492W        W43818  12.570  24.256   4.584
71493W        W43819  24.553  29.280  12.404
71494W        W43820  24.134  41.031   3.821
71495W        W43821  21.665  39.761  14.920
71496W        W43822   3.225   2.824   2.401
71497W        W43823  17.576  34.418  10.855
71498W        W43824  31.086  27.501   2.741
71499W        W43825   8.102  29.987   0.033
71500W        W43826   3.997   3.079  10.052
71501W        W43827  16.855   0.278   1.279
71502W        W43828   1.926   3.270  14.312
71503W        W43829  13.841  43.394  12.463
71504W        W43830  21.251  21.064  12.806
71505W        W43831  43.740  30.925  14.908
71506W        W43832  16.409  16.725   0.187
71507W        W43833  19.099  10.433   3.686
71508W        W43834  44.938  15.126  12.925
71509W        W43835  22.427  28.050   1.793
71510W        W43836  24.681  30.940  14.638
71511W        W43837  42.753  36.503   4.546
71512W        W43838   2.590  16.819  11.419
71513W        W43839  28.706   3.563  14.393
71514W        W43840  28.921  31.933  11.639
71515W        W43841  29.168  43.562  14.916
71516W        W43842   9.858   9.375   4.034
71517W        W43843  37.337  10.760  12.547
71518W        W43844   5.501  14.799  12.452
71519W        W43845  36.459  39.374   0.815
71520W        W43846   4.763  30.006  13.033
71521W        W43847  19.159  19.704  12.374
71522W        W43848   6.508  26.901   2.254
71523W        W43849  28.081  16.519  11.666
71524W        W43850  33.328  39.387   2.258
71525W        W43851  26.983  24.317   1.424
71526W        W43852  23.780  44.012   1.013
71527W        W43853   8.191  36.997   2.125
71528W        W43854   8.343  13.778  13.566
71529W        W43855  37.582  25.560  12.376
71530W        W43856  12.038  30.574  14.175
71531W        W43857  20.761  26.023   5.114
71532W        W43858  22.488   3.197   0.201
71533W        W43859  36.068  16.309   0.407
71534W        W43860  38.336   3.833   2.311
71535W        W43861   7.662  10.187  10.645
71536W        W43862   6.515  10.609   3.643
71537W        W43863  44.747  36.052   2.100
71538W        W43864  39.479   7.417   3.391
71539W        W43865  14.193  15.581   0.002
71540W        W43866   4.921   7.170   0.214
71541W        W43867  34.112   1.223  13.019
71542W        W43868  28.574  35.414   2.272
71543W        W43869  39.732   6.421  12.100
71544W        W43870   8.713  13.774   4.017
71545W        W43871  35.404  20.693   3.638
71546W        W43872  12.915  29.968  11.741
71547W        W43873  31.690  10.858   2.835
71548W        W43874  39.848  19.786   0.502
71549W        W43875  40.294   2.850   2.188
71550W        W43876  13.803  27.010   5.549
71551W        W43877   5.867  37.961   2.731
71552W        W43878  18.644  43.550  14.840
71553W        W43879  32.523   8.791   5.138
71554W        W43880  36.485  36.817  11.542
71555W        W43881  20.973  43.994  13.128
71556W        W43882  38.040   2.934   0.284
71557W        W43883  22.237  41.798  14.947
71558W        W43884  24.845  32.826  13.380
71559W        W43885  24.502  27.056  11.541
71560W        W43886  27.241  21.983  12.672
71561W        W43887  23.199  20.028   0.869
71562W        W43888  24.525  41.302   1.373
71563W        W43889  42.225   5.151   1.784
71564W        W43890   3.213  33.173  14.341
71565W        W43891   6.154  41.192  12.452
71566W        W43892  16.755  40.373  12.467
71567W        W43893  21.267   3.004  11.508
71568W        W43894  38.160  33.883   3.104
71569W        W43895   4.387  12.389  13.989
71570W        W43896   4.158  30.184  13.536
71571W        W43897  11.548   3.270   1.356
71572W        W43898   7.480  34.671   3.663
71573W        W43899  10.554  13.728  14.323
71574W        W43900  44.766  30.391   1.792
71575W        W43901  13.979  43.621  11.489
71576W        W43902  26.971  14.757   1.724
71577W        W43903  28.665  36.919  13.157
71578W        W43904  33.122  41.390   2.780
71579W        W43905  34.786  24.875  14.310
71580W        W43906  14.002   7.491   3.782
71581W        W43907   1.790  44.553   3.747
71582W        W43908  38.449  18.481   4.701
71583W        W43909  35.121  37.864  11.821
71584W        W43910  18.361  37.819  14.554
71585W        W43911  25.929  43.560   0.790
71586W        W43912  40.459   5.736   1.809
71587W        W43913  22.138  35.992   1.220
71588W        W43914  35.514  33.987   1.327
71589W        W43915  19.777  32.149   4.878
71590W        W43916   2.158  30.243  13.599
71591W        W43917  27.340  35.259  14.774
71592W        W43918   7.597  36.106   5.028
71593W        W43919   9.426  23.744  11.106
71594W        W43920   5.498  24.566  14.253
71595W        W43921  13.057   7.757   3.287
71596W        W43922  40.558  29.664   1.413
71597W        W43923   5.240  18.521  12.048
71598W        W43924  12.034  24.930   4.192
71599W        W43925  35.775  40.978   4.412
71600W        W43926   0.150  11.941   4.011
71601W        W43927   9.890  36.300  12.816
71602W        W43928   2.297  34.469  13.952
71603W        W43929  24.004  29.547   4.606
71604W        W43930  26.035  38.036  10.749
71605W        W43931   0.516  21.006   0.422
71606W        W43932  22.615   5.649  14.529
71607W        W43933  13.290   1.781   2.613
71608W        W43934  30.604  14.659   0.506
71609W        W43935  37.782  20.151  11.458
71610W        W43936  10.251  39.495  13.427
71611W        W43937  36.410  13.790   4.893
71612W        W43938  32.601  43.805  10.841
71613W        W43939  29.524  40.598  14.432
71614W        W43940  33.479  17.601  13.379
71615W        W43941  25.984  12.255  14.746
71616W        W43942  19.054  30.760   2.148
71617W        W43943  16.099  37.539   4.718
71618W        W43944   4.242  41.892  14.443
71619W        W43945  25.639  15.624   3.549
71620W        W43946  16.718  20.576  10.832
71621W        W43947   2.714  44.998   2.260
71622W        W43948   4.797  44.331   4.741
71623W        W43949  29.652  10.814   2.331
71624W        W43950  25.997   4.906  11.722
71625W        W43951  33.658  23.024  10.568
71626W        W43952  36.472  25.984  14.868
71627W        W43953  10.253  27.454  13.353
71628W        W43954  17.539   8.880   2.568
71629W        W43955  21.169   3.317   3.222
71630W        W43956  34.664   2.565  11.644
71631W        W43957  38.971  22.301  10.302
71632W        W43958  29.437  32.919  12.011
71633W        W43959  28.851  38.936  11.352
71634W        W43960  23.242   2.643   1.901
71635W        W43961  30.361  44.724  11.817
71636W        W43962   3.384   1.386   2.225
71637W        W43963  42.397  26.424  11.917
71638W        W43964  26.661  16.124   1.762
71639W        W43965  44.317  44.547  11.507
71640W        W43966   5.958   2.168  11.940
71641W        W43967  13.542  12.111  13.746
71642W        W43968   4.361  27.716  14.989
71643W        W43969  22.216  13.596   2.299
71644W        W43970  39.421   7.459  14.973
71645W        W43971  18.848  33.476  12.548
71646W        W43972   4.885  29.997   2.715
71647W        W43973  13.573  36.682   2.088
71648W        W43974  34.936  42.644  13.287
71649W        W43975   8.770  13.543  13.403
71650W        W43976  39.335  25.211   2.832
71651W        W43977  13.283  31.990  11.094
71652W        W43978  22.757   5.245   0.419
71653W        W43979  19.282  19.695  14.453
71654W        W43980  25.233  35.364   0.979
71655W        W43981  42.539   9.062   3.542
71656W        W43982  24.636  36.638   3.754
71657W        W43983  11.804  15.188   2.611
71658W        W43984  24.549   0.751   3.127
71659W        W43985  17.160   9.158   4.214
71660W        W43986  24.185  21.048  14.042
71661W        W43987   8.082  14.682  12.684
71662W        W43988   6.697   0.748   2.392
71663W        W43989  20.509   3.668   2.749
71664W        W43990  15.181  33.186  11.928
71665W        W43991  10.683   8.862   0.502
71666W        W43992  42.929  35.292  12.962
71667W        W43993  14.576  36.927   1.111
71668W        W43994  43.715  12.672   0.927
71669W        W43995  24.686  22.107  13.885
71670W        W43996  37.914   1.153  13.470
71671W        W43997  14.896   4.680   4.976
71672W        W43998  42.857  31.014  12.574
71673W        W43999  38.541  39.922  10.498
71674W        W44000  16.251  31.853   0.580
71675W        W44001  20.942  30.992   0.858
71676W        W44002  37.070  30.251  14.854
71677W        W44003   5.312   0.144  13.628
71678W        W44004   4.820   7.826   0.048
71679W        W44005  21.336  33.969  13.825
71680W        W44006  31.108  17.264  10.710
71681W        W44007  38.851  17.296   0.759
71682W        W44008  16.117  36.574   2.233
71683W        W44009  37.734  28.862  12.381
71684W        W44010  22.925  41.462   0.837
71685W        W44011  40.137   7.044   1.260
71686W        W44012  18.712  14.303   1.975
71687W        W44013  36.452  25.404   1.987
71688W        W44014  32.118   6.286   3.772
71689W        W44015  38.895  40.118   4.703
71690W        W44016  21.685   6.385  10.525
71691W        W44017  36.697  24.595  14.414
71692W        W44018  21.532  18.769   3.179
71693W        W44019   7.915  38.964   1.292
71694W        W44020  42.557   5.963  13.616
71695W        W44021  25.733  19.731   0.387
71696W        W44022  29.077  37.528   1.774
71697W        W44023  41.930  11.400   2.444
71698W        W44024  34.343  33.258   4.994
71699W        W44025   3.684  15.222   3.006
71700W        W44026  43.694  15.352  14.332
71701W        W44027  31.422  39.133  11.332
71702W        W44028   2.264  27.422   3.251
71703W        W44029  17.830  35.863  14.994
71704W        W44030  35.814  36.422   2.643
71705W        W44031  35.373  28.133  13.429
71706W        W44032   6.247  29.281  11.692
71707W        W44033  25.573  31.102   0.068
71708W        W44034  25.064  26.988   1.028
71709W        W44035  27.275   5.812   3.366
71710W        W44036  34.729  30.580   3.390
71711W        W44037  20.600   8.261   3.921
71712W        W44038   9.165   4.889  10.085
71713W        W44039  16.830  22.632  14.082
71714W        W44040  35.442  33.890  13.859
71715W        W44041   0.051  40.887  13.540
71716W        W44042   9.438  40.447   1.786
71717W        W44043  20.806  27.951  14.540
71718W        W44044  39.665  14.882  13.506
71719W        W44045   3.504  10.620   4.066
71720W        W44046  19.071  33.898   1.242
71721W        W44047  37.140  32.544   2.674
71722W        W44048  40.388  19.659  11.435
71723W        W44049  29.859  41.776  12.510
71724W        W44050  28.657  18.573   3.353
71725W        W44051  29.109  43.591   2.195
71726W        W44052  30.611   3.912  12.075
71727W        W44053   9.757   9.382  14.364
71728W        W44054  12.329  17.099   1.674
71729W        W44055  30.060  42.665  13.009
71730W        W44056   2.890   6.949  14.798
71731W        W44057  32.502   0.889  14.419
71732W        W44058  30.680  30.643  13.023
71733W        W44059  23.751   3.516  13.056
71734W        W44060  37.271  26.379   5.074
71735W        W44061  15.875   8.319   3.355
71736W        W44062  19.482   4.245  13.110
71737W        W44063  35.928   4.331   4.460
71738W        W44064  32.065  39.639   0.732
71739W        W44065  15.681   5.731  12.414
71740W        W44066  24.508  19.207  13.893
71741W        W44067  13.395  36.715  11.897
71742W        W44068  25.942  15.661   5.346
71743W        W44069   0.238  19.449   4.926
71744W        W44070  13.707  18.198   2.916
71745W        W44071  29.575  21.074  12.693
71746W        W44072  14.907   6.234   2.696
71747W        W44073  25.210  31.105  13.005
71748W        W44074   8.326  20.679  10.420
71749W        W44075   2.514  28.475  13.838
71750W        W44076  37.806  28.444   2.845
71751W        W44077  10.319  12.455   4.714
71752W        W44078  10.595  14.675  13.533
71753W        W44079  16.046  35.637  11.027
71754W        W44080   1.293  19.711  10.495
71755W        W44081  27.764  21.225   1.767
71756W        W44082  36.904  40.573  14.817
71757W        W44083  20.628  11.529   2.698
71758W        W44084  23.781   6.205  13.388
71759W        W44085   0.266  35.507  12.163
71760W        W44086  17.362  12.216  14.491
71761W        W44087  25.025  36.612  14.412
71762W        W44088  42.489  34.150  14.677
71763W        W44089  26.484  33.220  10.739
71764W        W44090  30.117  33.085   3.112
71765W        W44091  25.688   7.825   4.586
71766W        W44092  33.060  40.571   1.671
71767W        W44093  28.896  22.607   0.802
71768W        W44094  42.066  31.961  14.313
71769W        W44095  25.114  44.022   0.960
71770W        W44096   1.435  13.301   4.323
71771W        W44097  36.847  19.884   4.296
71772W        W44098  15.415  42.833  14.570
71773W        W44099  24.958  38.431  13.031
71774W        W44100   8.213  27.363   2.933
71775W        W44101   6.436  22.681   3.576
71776W        W44102  20.471   0.290   0.852
71777W        W44103   0.447  11.099  10.625
71778W        W44104   6.932  31.754   0.985
71779W        W44105   7.140  16.240   1.271
71780W        W44106  31.670  34.894   1.667
71781W        W44107   1.321   8.630  10.962
71782W        W44108  20.981  23.197   1.150
71783W        W44109  16.252  23.604  10.548
71784W        W44110   8.350   9.210  11.154
71785W        W44111   2.232  12.429   1.235
71786W        W44112   2.928  17.711  14.331
71787W        W44113  12.243  34.983   4.522
71788W        W44114  39.302  20.896  13.642
71789W        W44115  35.910  37.100  13.858
71790W        W44116  35.630  29.258   2.663
71791W        W44117  11.831  19.159  13.370
71792W        W44118  21.272  30.468   4.950
71793W        W44119  18.635  27.371  13.448
71794W        W44120   4.010  18.503  13.207
71795W        W44121  33.382   5.730  11.147
71796W        W44122  23.219  12.564   3.296
71797W        W44123  42.490   1.906   0.701
71798W        W44124  18.475  15.309   5.128
71799W        W44125  21.669  28.658  12.907
71800W        W44126  38.141  35.170  12.106
71801W        W44127   9.279   4.970   2.308
71802W        W44128  44.673  42.790   0.933
71803W        W44129  16.728  16.025   0.372
71804W        W44130   3.056  24.745   2.606
71805W        W44131  39.590  37.820  14.519
71806W        W44132  32.484  34.818  13.303
71807W        W44133  24.186  29.940  11.619
71808W        W44134  19.187  17.029   0.164
71809W        W44135   2.853  22.308  10.357
71810W        W44136  36.360  37.975   4.292
71811W        W44137  30.147  16.649   3.362
71812W        W44138  18.708  38.825  13.479
71813W        W44139  35.617  23.990  11.098
71814W        W44140  30.115  25.029   3.208
71815W        W44141   7.424  42.703  14.383
71816W        W44142  32.945  14.349   0.978
71817W        W44143  17.006  38.498   0.393
71818W        W44144  27.851   5.715   0.784
71819W        W44145  13.648  42.757  12.411
71820W        W44146  44.574  33.090  13.768
71821W        W44147   5.244   8.460   2.357
71822W        W44148  16.045   3.830   4.038
71823W        W44149  29.490  32.555   2.670
71824W        W44150  12.763  20.382   1.011
71825W        W44151  41.616  40.433   4.186
71826W        W44152   2.198  32.646  10.986
71827W        W44153  27.984  36.476  11.491
71828W        W44154   1.825  43.022   2.502
71829W        W44155   2.416  32.170  11.172
71830W        W44156  26.429  41.565  14.182
71831W        W44157  23.200  41.480   4.070
71832W        W44158   6.717  32.956  10.736
71833W        W44159   6.953  41.236   1.925
71834W        W44160  39.051  24.418   1.907
71835W        W44161  25.568  25.575  13.549
71836W        W44162   6.781   8.515   4.698
71837W        W44163  25.196  20.398  14.133
71838W        W44164  40.924  13.198   1.323
71839W        W44165  17.074   0.336  11.998
71840W        W44166  37.015   0.888   1.249
71841W        W44167  44.837  25.784  13.333
71842W        W44168  27.874  10.222  10.213
71843W        W44169  41.558   7.434   1.707
71844W        W44170  17.736   8.910  11.307
71845W        W44171  40.944  33.523  11.101
71846W        W44172  11.759  42.980  11.141
71847W        W44173  20.826  11.260  11.987
71848W        W44174  35.577  18.562  13.449
71849W        W44175   1.774  38.365   2.283
71850W        W44176   1.083   2.329   3.594
71851W        W44177  23.104  20.980   1.683
71852W        W44178  26.535  19.733   4.869
71853W        W44179  24.560  23.046  10.776
71854W        W44180   0.153   4.045   4.191
71855W        W44181  32.522  12.756   4.759
71856W        W44182  13.184   1.760  14.954
71857W        W44183   9.309   6.834  10.527
71858W        W44184  40.266  27.089  13.554
71859W        W44185  29.648  42.220   2.309
71860W        W44186  40.343  30.584  11.910
71861W        W44187   0.013  33.408   2.745
71862W        W44188  10.787  18.350   3.824
71863W        W44189  17.102  23.225  10.658
71864W        W44190   3.404  18.936  10.776
71865W        W44191  10.832  14.689   0.367
71866W        W44192  15.263  12.858  14.879
71867W        W44193  27.660   9.713  11.721
71868W        W44194   8.920  18.079  14.920
71869W        W44195  38.034  30.528  13.100
71870W        W44196  15.355  25.278   3.705
71871W        W44197   8.229  25.063   2.887
71872W        W44198   9.003   9.199   0.947
71873W        W44199  42.111   1.044   4.977
71874W        W44200  24.779  22.184  11.979
71875W        W44201  32.051  29.413  11.126
71876W        W44202  18.831  21.002  12.504
71877W        W44203  27.240  13.522  14.974
71878W        W44204   2.430   9.193   1.431
71879W        W44205   8.298  24.249  12.980
71880W        W44206  23.174  41.488   4.592
71881W        W44207   3.733  40.418   2.430
71882W        W44208  15.248  15.569   2.396
71883W        W44209  16.536  24.054   1.462
71884W        W44210   7.700  15.239   1.241
71885W        W44211   9.267  30.149  14.198
71886W        W44212  12.418  11.248  12.097
71887W        W44213  14.126  36.840  13.470
71888W        W44214  22.653   7.427  13.884
71889W        W44215  39.889  23.527   1.140
71890W        W44216  42.285  14.543   4.306
71891W        W44217   1.283  24.067   4.605
71892W        W44218   3.705  20.800  14.304
71893W        W44219  36.817   8.373  14.392
71894W        W44220  25.527  43.113  11.521
71895W        W44221  36.814  30.623  11.139
71896W        W44222  10.464  21.306   5.073
71897W        W44223  38.010   7.421  10.375
71898W        W44224  36.515  27.599  11.570
71899W        W44225  33.996  36.034  14.438
71900W        W44226   0.904  43.832  12.551
71901W        W44227  19.964  20.674  14.881
71902W        W44228   2.704  16.021  14.932
71903W        W44229   5.042  14.654  13.884
71904W        W44230   3.706  17.987   2.762
71905W        W44231  33.478  25.030   0.501
71906W        W44232   8.805  15.071   3.168
71907W        W44233  38.094   5.695  12.553
71908W        W44234  40.337  13.760  13.066
71909W        W44235  18.404   5.722   2.414
71910W        W44236  38.402   1.990   3.631
71911W        W44237  26.762   5.710   3.328
71912W        W44238   6.791  41.540  13.503
71913W        W44239  19.478  21.544   1.981
71914W        W44240  38.051  18.825   2.773
71915W        W44241  32.157  42.658   0.740
71916W        W44242  15.672  34.498  14.130
71917W        W44243  42.897  17.631   0.436
71918W        W44244  33.394   2.835   4.359
71919W        W44245  42.051  20.749   3.686
71920W        W44246  34.393  29.898  11.093
71921W        W44247  16.572  28.012   1.998
71922W        W44248  11.896   6.794   2.887
71923W        W44249  24.479  23.667   4.713
71924W        W44250  16.226  42.515   4.549
71925W        W44251  19.048  17.202   4.191
71926W        W44252  27.440   6.288  11.489
71927W        W44253   2.973  43.011  14.489
71928W        W44254  31.612  29.188  10.987
71929W        W44255  34.297  12.220   1.702
71930W        W44256  22.060  13.834   2.819
71931W        W44257  39.896   6.052  12.965
71932W        W44258  27.918  43.093  14.489
71933W        W44259  10.614  15.781  11.403
71934W        W44260  31.839  11.247   1.835
71935W        W44261  36.559  37.921   4.777
71936W        W44262  15.598  34.790   3.202
71937W        W44263   4.442  30.094   4.406
71938W        W44264   6.350   2.362  14.853
71939W        W44265  40.105  25.602   1.416
71940W        W44266  42.226  16.755   4.291
71941W        W44267  35.934  18.821  14.402
71942W        W44268  37.324   3.265   1.369
71943W        W44269   9.282   5.170  11.945
71944W        W44270  32.406  26.441  12.438
71945W        W44271  12.454  23.740  10.495
71946W        W44272  13.752   2.147  13.540
71947W        W44273   2.738  42.118  13.564
71948W        W44274  26.692  25.509  14.929
71949W        W44275  22.704  37.556  10.197
71950W        W44276  19.714  17.533  12.319
71951W        W44277  33.491  40.963  13.879
71952W        W44278  36.070   7.234  10.855
71953W        W44279  32.627   9.764  11.184
71954W        W44280   6.273  34.556   4.657
71955W        W44281  28.151  27.952  11.133
71956W        W44282  19.623  29.644   3.862
71957W        W44283  22.671   1.576   3.570
71958W        W44284  40.172   3.762   3.621
71959W        W44285  20.672  11.097  13.002
71960W        W44286  22.798  42.767   0.325
71961W        W44287  27.686  42.759  12.423
71962W        W44288  11.076  25.078   3.837
71963W        W44289  29.474  17.262   1.266
71964W        W44290  29.655  42.892  13.807
71965W        W44291  43.120  20.186   1.435
71966W        W44292   8.881  40.327  13.396
71967W        W44293  31.499  26.317   2.268
71968W        W44294   0.226  22.719   0.904
71969W        W44295  36.136  34.419   2.877
71970W        W44296  32.095  20.571   4.608
71971W        W44297  31.474  36.465  13.225
71972W        W44298  31.469  41.712   4.132
71973W        W44299  25.081  26.884   5.203
71974W        W44300  26.073  30.999   0.906
71975W        W44301  27.215  18.153  14.967
71976W        W44302  37.114  32.302  10.595
71977W        W44303  41.404  38.482  11.508
71978W        W44304  40.023   7.962   0.483
71979W        W44305  41.619   1.536  12.795
71980W        W44306   7.850  24.036  10.770
71981W        W44307  36.032   6.331   3.099
71982W        W44308  38.843  39.780  12.570
71983W        W44309  42.769  43.535   4.161
71984W        W44310  11.863  22.781   5.228
71985W        W44311   0.599   0.525   4.234
71986W        W44312  28.139  22.696  10.739
71987W        W44313   3.663  16.502   4.045
71988W        W44314   2.524   6.687   2.679
71989W        W44315  20.582  17.042  13.400
71990W        W44316  43.903  16.279   2.464
71991W        W44317  28.965  32.471  12.633
71992W        W44318  26.984  22.060  11.708
71993W        W44319  21.277  21.592  12.927
71994W        W44320  26.958  28.983   1.887
71995W        W44321  11.768  33.936  12.644
71996W        W44322  23.526  42.271   2.939
71997W        W44323  40.829   1.482  12.416
71998W        W44324   4.900  29.184   4.731
71999W        W44325  44.851  27.607  12.483
72000W        W44326  17.092  11.801  14.296
72001W        W44327  18.666  23.500  10.814
72002W        W44328   0.821   0.829  13.353
72003W        W44329   5.687  34.998  10.411
72004W        W44330  27.265  27.707  12.036
72005W        W44331  36.851   5.794  14.933
72006W        W44332  42.286  25.694   0.362
72007W        W44333  34.078  37.283  11.463
72008W        W44334  43.545   0.425  13.532
72009W        W44335  10.399  13.732   1.821
72010W        W44336  35.063   6.953  11.704
72011W        W44337  21.128   9.642   0.820
72012W        W44338  16.203  20.713   1.553
72013W        W44339  18.601  25.200  11.073
72014W        W44340  11.868  17.486   2.263
72015W        W44341  24.075  39.926   3.042
72016W        W44342  40.991   6.384  14.480
72017W        W44343  43.972  10.994  10.865
72018W        W44344  11.953  43.829   1.911
72019W        W44345  26.031  21.561  10.903
72020W        W44346  39.790  22.155   1.347
72021W        W44347   1.585  27.414  12.102
72022W        W44348  14.549   7.455   2.764
72023W        W44349   1.500  16.899  10.252
72024W        W44350  41.861  38.768   3.696
72025W        W44351  27.964   4.816  14.408
72026W        W44352  22.015  44.816   2.425
72027W        W44353  35.750  14.182   0.418
72028W        W44354  19.740  29.613  12.886
72029W        W44355  14.633  20.982  14.215
72030W        W44356  16.093   4.488  12.502
72031W        W44357   4.644  34.144   3.118
72032W        W44358  34.039  11.950  14.492
72033W        W44359   2.530   6.186  12.012
72034W        W44360  14.633  30.156  11.567
72035W        W44361  35.783  15.272   4.630
72036W        W44362  16.595   4.291  10.696
72037W        W44363  37.105   8.352  13.503
72038W        W44364   3.028   6.442   1.079
72039W        W44365  29.159  11.251   1.921
72040W        W44366  29.487  31.132  11.406
72041W        W44367  10.776  40.358  14.308
72042W        W44368   2.995   0.478  11.221
72043W        W44369  11.294  34.942   2.018
72044W        W44370  14.243  26.267  14.010
72045W        W44371   8.616   7.916   3.267
72046W        W44372  11.599  19.200  11.634
72047W        W44373  36.836   7.610  10.209
72048W        W44374  33.147  18.104  10.473
72049W        W44375   6.368  14.479   9.841
72050W        W44376  12.627  21.452  14.777
72051W        W44377  33.369   7.279   1.302
72052W        W44378  28.551  15.465   2.629
72053W        W44379  38.534   4.886   1.838
72054W        W44380  41.384  33.634  10.776
72055W        W44381  26.500  44.381   2.183
72056W        W44382  27.848   6.593   2.248
72057W        W44383  20.849  36.333   3.204
72058W        W44384  12.925  44.493   4.682
72059W        W44385   0.723  40.599   2.249
72060W        W44386  19.423  22.462   4.614
72061W        W44387  18.306  13.581   3.647
72062W        W44388  42.316  33.291  14.212
72063W        W44389   8.487  24.891   0.056
72064W        W44390   2.669  11.225   1.906
72065W        W44391   0.814  29.607   0.256
72066W        W44392   2.384  31.411   3.666
72067W        W44393  34.068  14.653   2.510
72068W        W44394  40.028  22.193   3.465
72069W        W44395   1.314  11.615  10.668
72070W        W44396  44.547  37.926  12.491
72071W        W44397  19.385  10.840   3.329
72072W        W44398  19.998   4.051   3.238
72073W        W44399   8.701   1.437  12.717
72074W        W44400  32.093  28.959   3.623
72075W        W44401   1.743  25.646  11.133
72076W        W44402   0.704   4.385   0.408
72077W        W44403  24.021  12.842  13.677
72078W        W44404  41.637   8.957  12.849
72079W        W44405  32.412  43.859   1.741
72080W        W44406   3.846   7.067   1.908
72081W        W44407  18.073  22.057  13.328
72082W        W44408  20.220  36.343  11.836
72083W        W44409  13.626   3.215   0.902
72084W        W44410  30.894  22.928   0.795
72085W        W44411  22.067  24.682  14.828
72086W        W44412  23.583   3.352   0.841
72087W        W44413  14.333   7.893   3.804
72088W        W44414  29.032   7.425   2.827
72089W        W44415   3.076  26.059  11.638
72090W        W44416  23.607  15.620  13.257
72091W        W44417  44.918  38.071   2.624
72092W        W44418  13.036  40.198   2.818
72093W        W44419  25.729  22.985  14.900
72094W        W44420  17.273  33.674   2.242
72095W        W44421  15.029  22.132   1.978
72096W        W44422   5.661  12.200   2.845
72097W        W44423  17.269  10.143  11.956
72098W        W44424  10.970  20.046  12.020
72099W        W44425  29.463  29.004  11.632
72100W        W44426  22.634  43.552   0.885
72101W        W44427  42.355  30.413   1.957
72102W        W44428  24.546  26.578  13.338
72103W        W44429  22.567  31.387  13.425
72104W        W44430  36.267  21.080  14.237
72105W        W44431  19.497   6.292   5.061
72106W        W44432  13.669  44.337   0.480
72107W        W44433  25.986  16.765   5.285
72108W        W44434  43.988  37.073  10.565
72109W        W44435  39.604   4.667   0.274
72110W        W44436   3.298  15.139  14.707
72111W        W44437   5.192  30.440   4.136
72112W        W44438  27.504  19.137   0.814
72113W        W44439   2.478  15.582   1.336
72114W        W44440  18.156  16.098  12.863
72115W        W44441  38.986  13.679  13.458
72116W        W44442  21.473  24.141  12.469
72117W        W44443  34.179   7.324   0.948
72118W        W44444  33.415   9.667   1.897
72119W        W44445  37.558  28.968   1.357
72120W        W44446  24.625  38.875   0.882
72121W        W44447   8.519  35.172   5.329
72122W        W44448  31.117   4.317  14.783
72123W        W44449   2.177  29.314  12.311
72124W        W44450  23.465  38.305   3.311
72125W        W44451  27.133  39.583  11.688
72126W        W44452  37.980   9.396   3.632
72127W        W44453   2.675  44.454  13.291
72128W        W44454  12.302  34.143   0.884
72129W        W44455  18.820   5.598  13.447
72130W        W44456  37.699  40.640   0.415
72131W        W44457   3.760  25.513   0.657
72132W        W44458  30.688  35.841   3.648
72133W        W44459  18.098  10.352  11.836
72134W        W44460  11.225   9.670  12.418
72135W        W44461  19.527  10.704   1.615
72136W        W44462  43.711  42.722   1.542
72137W        W44463  27.738  28.464   1.902
72138W        W44464   2.274  32.513  14.825
72139W        W44465  30.999   2.195  14.420
72140W        W44466   8.768  43.973  14.549
72141W        W44467  15.569  20.084  14.883
72142W        W44468   6.350   7.033   2.858
72143W        W44469   6.767  42.908   3.671
72144W        W44470   1.743  19.308   1.836
72145W        W44471  31.086   1.947  13.961
72146W        W44472  35.568  38.102  13.568
72147W        W44473  14.125  35.011   1.355
72148W        W44474  43.052  12.207  12.014
72149W        W44475   1.221  18.571   4.730
72150W        W44476   6.152   8.531   2.324
72151W        W44477   6.155  33.141   0.946
72152W        W44478  41.714  25.592   2.686
72153W        W44479  16.642   4.751  13.475
72154W        W44480  17.776  19.487   3.330
72155W        W44481   8.165   3.463  14.199
72156W        W44482  20.088   6.729   4.136
72157W        W44483  24.189  23.627   1.346
72158W        W44484   8.595   3.712   2.087
72159W        W44485  14.112  14.633   0.879
72160W        W44486   7.929  29.684  14.340
72161W        W44487  14.290  23.617  13.912
72162W        W44488  22.550  42.827   3.820
72163W        W44489  37.474  12.322  10.544
72164W        W44490  37.882  27.996  14.180
72165W        W44491  42.513  34.881   3.271
72166W        W44492  35.355   5.502  12.994
72167W        W44493  12.372  39.734  12.142
72168W        W44494  30.658  12.865   0.367
72169W        W44495  22.067  20.155  11.199
72170W        W44496   6.095   6.861   3.273
72171W        W44497  27.973  20.631   0.983
72172W        W44498  25.074  16.575   1.815
72173W        W44499  10.877   8.127   2.290
72174W        W44500  28.218  31.581   1.541
72175W        W44501  35.402  43.960  11.184
72176W        W44502  42.506  38.257  12.877
72177W        W44503  35.619   2.005  13.548
72178W        W44504  32.391   4.660  10.975
72179W        W44505  34.359   1.879  12.918
72180W        W44506  33.509   9.617   4.223
72181W        W44507  36.423   2.832  14.839
72182W        W44508  20.533  32.177  12.098
72183W        W44509  41.802  29.177  14.883
72184W        W44510   4.931  20.142   1.199
72185W        W44511   8.620  39.947  13.762
72186W        W44512  44.209  35.578   4.595
72187W        W44513  19.756  12.242  10.913
72188W        W44514  18.113  33.060   1.272
72189W        W44515   2.239  24.608   0.170
72190W        W44516  22.124  11.449  11.889
72191W        W44517  19.284  22.296  13.973
72192W        W44518  22.247  18.089   0.721
72193W        W44519  25.886   5.308   0.855
72194W        W44520   0.652  16.671  12.440
72195W        W44521  12.849  36.651  11.097
72196W        W44522  44.062   2.791   1.898
72197W        W44523  44.743   0.821  10.376
72198W        W44524  24.974  24.967  13.952
72199W        W44525  43.316  19.521  12.411
72200W        W44526  22.092  10.534  11.656
72201W        W44527  40.418  33.372   1.154
72202W        W44528  31.926   0.356  13.167
72203W        W44529  35.102   4.858   3.239
72204W        W44530   8.750  31.054   0.362
72205W        W44531  38.623  27.590  12.660
72206W        W44532  28.933  30.490  14.035
72207W        W44533  31.730  34.555  14.415
72208W        W44534  11.816   8.247   2.208
72209W        W44535  40.460  21.010  12.089
72210W        W44536  22.754  22.208   4.938
72211W        W44537  40.817  44.817  13.699
72212W        W44538  33.999  38.172  13.883
72213W        W44539   5.465  30.960  12.003
72214W        W44540  37.047   4.448   2.118
72215W        W44541  28.861   7.791  11.017
72216W        W44542  35.388   4.422   3.243
72217W        W44543   6.447  30.293   1.033
72218W        W44544  28.983  24.420   2.285
72219W        W44545  19.614  10.282  11.690
72220W        W44546   5.527  27.156  11.521
72221W        W44547   9.389   8.292  10.747
72222W        W44548   8.932  15.794  13.981
72223W        W44549  24.247   2.228  12.927
72224W        W44550  22.822   2.003  12.862
72225W        W44551  44.780   0.921  13.143
72226W        W44552  35.026   1.429  11.981
72227W        W44553   7.876  31.092   3.352
72228W        W44554   6.070   8.844   2.733
72229W        W44555   2.419  15.661   4.128
72230W        W44556  43.987  44.020   4.581
72231W        W44557  19.624   8.669  12.425
72232W        W44558  14.140  30.458  14.821
72233W        W44559  23.484  26.958  11.673
72234W        W44560   0.370  43.338  12.104
72235W        W44561   4.218   5.219   3.262
72236W        W44562  11.840  39.077   4.244
72237W        W44563  21.117  26.855   1.875
72238W        W44564   8.316   3.295   1.335
72239W        W44565  12.415  15.086  10.932
72240W        W44566   4.006  12.200  14.958
72241W        W44567  28.861   6.722   4.119
72242W        W44568  28.205  22.674  14.964
72243W        W44569   4.888  30.388   1.444
72244W        W44570  18.576  38.301   2.424
72245W        W44571  43.049  41.058  13.464
72246W        W44572  19.136  43.048   3.248
72247W        W44573  13.881  11.626   1.862
72248W        W44574  27.422  36.532  11.619
72249W        W44575  15.717   4.265  11.774
72250W        W44576   2.416   1.037   2.177
72251W        W44577  43.662  37.864  11.433
72252W        W44578  21.197  36.334  14.901
72253W        W44579  20.353  43.444   4.321
72254W        W44580  27.129   1.272  12.607
72255W        W44581   6.310  27.399   4.160
72256W        W44582   9.901  44.603   2.870
72257W        W44583   4.267  36.782  11.095
72258W        W44584  12.183  13.885  10.691
72259W        W44585  17.199  42.285   0.033
72260W        W44586   1.554  25.907  11.609
72261W        W44587  42.321  26.426   3.895
72262W        W44588  35.024  10.173   1.921
72263W        W44589  33.864  20.657   3.175
72264W        W44590  25.515  34.074   1.279
72265W        W44591   9.815   7.580   3.893
72266W        W44592   8.722  35.878   1.821
72267W        W44593  16.515  42.598   0.564
72268W        W44594  31.828  23.151   3.267
72269W        W44595  10.469  21.106  11.926
72270W        W44596  11.231  17.210  13.626
72271W        W44597  17.049   2.700  11.010
72272W        W44598  11.599   2.963   0.068
72273W        W44599  25.538  22.610   4.577
72274W        W44600   0.031  21.710  13.995
72275W        W44601  33.112  42.482  14.371
72276W        W44602   4.010  15.579  10.680
72277W        W44603   5.342  31.623   2.033
72278W        W44604  16.625  16.154  13.940
72279W        W44605  19.502   5.095  14.594
72280W        W44606  30.178  15.188  14.358
72281W        W44607  37.385  39.567   4.261
72282W        W44608  18.552  19.837  14.773
72283W        W44609  44.757  21.462  11.903
72284W        W44610  43.534  25.775   1.463
72285W        W44611  40.802   9.399   1.156
72286W        W44612  29.378  14.793  14.402
72287W        W44613   4.363  33.567   3.667
72288W        W44614  11.713  11.682   0.772
72289W        W44615  23.798  21.466  13.321
72290W        W44616  42.354  35.510  12.413
72291W        W44617   3.847  32.413   4.608
72292W        W44618  26.777  33.468   3.807
72293W        W44619  19.530  43.131  12.155
72294W        W44620  32.471   7.464   2.651
72295W        W44621  39.839  42.540  11.399
72296W        W44622  10.908  36.885  11.996
72297W        W44623  22.970  44.390   0.531
72298W        W44624  15.569  38.472   3.326
72299W        W44625  34.836   0.755  14.417
72300W        W44626  30.474  42.699  10.772
72301W        W44627   4.001  42.773   5.023
72302W        W44628   5.400  43.090   1.371
72303W        W44629  23.967  39.505   2.718
72304W        W44630  18.044   2.474   1.728
72305W        W44631  38.555  43.574  10.761
72306W        W44632   9.619  12.399   1.205
72307W        W44633   7.146  42.326  11.231
72308W        W44634  41.388  17.734  12.015
72309W        W44635  43.887  42.939  10.734
72310W        W44636  19.963  36.549  10.922
72311W        W44637  32.485  31.822   2.770
72312W        W44638   4.031  38.495  14.060
72313W        W44639  23.609  37.491   2.575
72314W        W44640   1.346   2.367  12.847
72315W        W44641  44.454  38.034  11.955
72316W        W44642  39.080  29.490   3.667
72317W        W44643  30.074  34.840  12.299
72318W        W44644  20.767  14.115   2.743
72319W        W44645  36.931  16.209   1.829
72320W        W44646   6.454  34.915   2.097
72321W        W44647  26.931   2.146  11.138
72322W        W44648  24.076  13.180   4.835
72323W        W44649  24.919  34.391  12.445
72324W        W44650  28.555  16.697   1.066
72325W        W44651  10.914  18.334  10.694
72326W        W44652   0.788  16.567  13.917
72327W        W44653  19.224  31.382  12.005
72328W        W44654   2.513   4.341   4.100
72329W        W44655  24.541  15.698  14.430
72330W        W44656  43.290  16.588   2.360
72331W        W44657  11.206  11.683   0.967
72332W        W44658   4.552   6.020  13.877
72333W        W44659  37.630  27.522  14.263
72334W        W44660  41.458  21.730  12.200
72335W        W44661  16.415  35.558   1.823
72336W        W44662  41.018   2.814   0.922
72337W        W44663  37.433  40.690   2.171
72338W        W44664  35.005  10.914   1.421
72339W        W44665  24.308  20.071  12.044
72340W        W44666  32.944   1.390   4.160
72341W        W44667   3.382  14.654   1.489
72342W        W44668   9.191  41.062   0.874
72343W        W44669  22.813  38.923   4.991
72344W        W44670  13.142  36.352  10.767
72345W        W44671  40.463  44.102  14.302
72346W        W44672   9.309   0.606   2.400
72347W        W44673  17.111  30.035   3.605
72348W        W44674  33.999  19.556  13.388
72349W        W44675  15.696   2.679   0.022
72350W        W44676  30.196   6.440  12.036
72351W        W44677  42.855  10.359  14.250
72352W        W44678   4.140  43.542  12.462
72353W        W44679  10.170  10.442   1.512
72354W        W44680  44.537  35.444  10.962
72355W        W44681   2.029  39.041  11.452
72356W        W44682   9.649  20.015  11.306
72357W        W44683  15.992   1.671  11.523
72358W        W44684   3.917   1.880  12.656
72359W        W44685   0.777  18.046   0.156
72360W        W44686  35.482   6.829   3.693
72361W        W44687  28.628   5.961  10.703
72362W        W44688  38.294   5.399  10.621
72363W        W44689  27.609  25.398   0.767
72364W        W44690  13.384  40.570  14.998
72365W        W44691  31.031  17.261  12.960
72366W        W44692   4.153  13.583   2.240
72367W        W44693   1.404  11.766   1.580
72368W        W44694  14.242   6.781   1.683
72369W        W44695  16.163  41.547  14.031
72370W        W44696  22.213  19.092  12.097
72371W        W44697   1.551  16.677   3.804
72372W        W44698  10.229   6.464   3.274
72373W        W44699   4.700  32.995  13.891
72374W        W44700   3.586  37.657   0.523
72375W        W44701  36.102  29.565   1.474
72376W        W44702  38.206   9.258   0.159
72377W        W44703  15.577  42.501  11.143
72378W        W44704  22.546  10.997   1.786
72379W        W44705   8.744  37.802  13.894
72380W        W44706   7.334  43.248   4.703
72381W        W44707  16.503  36.766   0.832
72382W        W44708   0.912  36.883   4.294
72383W        W44709  42.341  38.146   4.232
72384W        W44710  28.222  32.625   3.622
72385W        W44711  16.230  21.138  10.998
72386W        W44712  17.732   6.892  10.696
72387W        W44713  38.048  43.545  14.044
72388W        W44714  41.843  26.100   2.719
72389W        W44715   2.340  12.682  13.592
72390W        W44716  21.576  17.158   2.685
72391W        W44717  44.785  30.449   3.180
72392W        W44718  41.775   7.697   0.431
72393W        W44719   5.955  24.569   4.107
72394W        W44720  21.025   3.615   4.040
72395W        W44721  38.354  17.186  11.663
72396W        W44722  21.589   1.919   0.362
72397W        W44723  22.908  31.541  14.732
72398W        W44724  34.505  24.194   2.702
72399W        W44725  21.649  25.020   1.792
72400W        W44726   1.681   6.676   3.624
72401W        W44727  43.964   6.255  11.593
72402W        W44728   3.751  10.405   2.811
72403W        W44729  11.860   0.544   3.711
72404W        W44730   2.033   5.494  14.813
72405W        W44731  24.708  11.297  10.911
72406W        W44732  33.557  41.217  13.420
72407W        W44733  27.733  40.045   2.234
72408W        W44734  10.588  16.158   0.494
72409W        W44735  12.129  41.592  14.341
72410W        W44736   9.560  29.748  14.351
72411W        W44737  27.599  15.180  11.987
72412W        W44738  17.022  40.868   0.446
72413W        W44739  10.758  33.153  11.927
72414W        W44740  19.029   3.334  13.037
72415W        W44741  36.574  19.325  14.758
72416W        W44742  35.852  42.010  14.913
72417W        W44743  28.766  10.802  14.916
72418W        W44744  35.046  36.588  10.724
72419W        W44745  33.946  34.838  12.699
72420W        W44746  19.201  30.732  13.956
72421W        W44747  28.921  19.091   0.303
72422W        W44748  17.259  20.782  13.374
72423W        W44749  28.609  14.763   4.575
72424W        W44750  39.998   7.523   1.278
72425W        W44751   4.734  34.504   2.421
72426W        W44752  44.878  42.432   3.581
72427W        W44753   3.890  28.459   2.513
72428W        W44754  31.791  10.526  14.618
72429W        W44755  40.905  15.629  14.778
72430W        W44756  44.294  36.015  13.844
72431W        W44757  34.768  23.037  12.256
72432W        W44758  12.849  41.943  12.064
72433W        W44759  35.783   5.654   1.498
72434W        W44760  28.878  33.085   1.973
72435W        W44761   5.310  36.609  13.794
72436W        W44762   5.244  30.940  12.910
72437W        W44763  42.251   8.219   3.121
72438W        W44764   0.157   0.363  12.662
72439W        W44765  36.585  34.548   5.477
72440W        W44766   3.396  26.893   4.600
72441W        W44767  30.233  41.651  13.907
72442W        W44768   0.031  10.397   1.405
72443W        W44769  33.847  31.946   4.142
72444W        W44770  44.312   7.166   1.511
72445W        W44771  16.270  19.105   2.345
72446W        W44772   8.279   2.214   0.426
72447W        W44773  12.754  18.146  12.411
72448W        W44774   6.826  30.681   1.900
72449W        W44775  29.997  15.663  11.170
72450W        W44776  13.246   7.434   1.283
72451W        W44777  43.395  38.520  13.382
72452W        W44778   3.715  11.868  14.297
72453W        W44779  40.809  19.757   1.889
72454W        W44780  44.510  28.594   3.589
72455W        W44781   4.011  27.110  11.462
72456W        W44782  17.976   8.235   4.593
72457W        W44783  33.370  32.029   2.320
72458W        W44784   0.812  38.931  14.749
72459W        W44785  39.020  37.878   1.661
72460W        W44786  22.071  32.672   3.268
72461W        W44787  36.390   8.521  11.100
72462W        W44788  39.038  29.227  14.403
72463W        W44789  18.683  24.767  12.288
72464W        W44790   3.737  17.687  12.381
72465W        W44791   0.322   9.301   4.624
72466W        W44792   6.255  44.360  11.100
72467W        W44793   1.413  28.771  14.758
72468W        W44794  43.246  20.229   3.775
72469W        W44795  43.738  28.855   2.172
72470W        W44796  19.058  36.066  13.107
72471W        W44797  44.069  32.411  11.985
72472W        W44798   4.334  37.459  13.545
72473W        W44799  22.957  25.478   4.110
72474W        W44800  26.560  14.320   3.303
72475W        W44801  25.537  27.247   4.607
72476W        W44802  33.362  32.033   4.246
72477W        W44803  30.073  40.260  10.702
72478W        W44804   4.188  22.296  13.003
72479W        W44805  10.399   3.951   3.368
72480W        W44806  40.360  30.232  14.909
72481W        W44807   2.749   5.879  12.366
72482W        W44808  16.042  19.559   3.129
72483W        W44809  18.806   6.047  14.398
72484W        W44810   8.789   6.782  14.734
72485W        W44811  30.100  18.613  11.256
72486W        W44812  16.066  19.466  12.798
72487W        W44813  22.118  15.718   4.624
72488W        W44814   0.247  12.876   3.015
72489W        W44815  10.877  26.908   3.598
72490W        W44816   5.331  36.263   0.692
72491W        W44817  34.207   5.348   0.899
72492W        W44818  28.402  20.696   0.629
72493W        W44819  37.829  32.058   4.419
72494W        W44820  36.111  26.058   0.315
72495W        W44821  17.776  20.721   4.562
72496W        W44822  27.053  39.934   4.197
72497W        W44823  24.847   6.768   0.153
72498W        W44824   2.980  15.570  14.787
72499W        W44825  31.522  23.326   0.103
72500W        W44826  20.515  30.859  14.412
72501W        W44827  18.535  31.601  12.871
72502W        W44828  18.244  24.049   4.095
72503W        W44829  33.934  40.887  10.756
72504W        W44830  15.897  18.979   4.110
72505W        W44831  33.270  15.519   4.607
72506W        W44832  11.306  27.517  12.427
72507W        W44833  23.111   5.193  12.536
72508W        W44834  43.050  33.368   4.260
72509W        W44835  31.732  13.669  14.758
72510W        W44836  20.177  44.242   2.734
72511W        W44837  25.354  17.327  12.351
72512W        W44838  19.663  10.397  13.922
72513W        W44839  23.195  19.595   0.538
72514W        W44840   6.749  22.797   1.018
72515W        W44841   1.771   3.852   1.463
72516W        W44842  14.904  28.089   2.004
72517W        W44843  18.523  40.487   0.685
72518W        W44844  15.025   7.237   2.677
72519W        W44845  10.356  11.794   1.322
72520W        W44846   4.760  14.802  10.742
72521W        W44847  43.865  24.629   1.934
72522W        W44848  21.356  12.222  13.248
72523W        W44849  27.636  44.898   3.636
72524W        W44850   0.838  38.367   2.639
72525W        W44851  16.574  36.609   1.312
72526W        W44852  37.413  34.577  12.057
72527W        W44853  17.718  30.938  10.657
72528W        W44854  12.965  21.887  10.135
72529W        W44855  28.426  43.310   0.903
72530W        W44856  40.624   0.533   4.555
72531W        W44857  23.663   2.917   4.531
72532W        W44858  40.752  23.971  14.813
72533W        W44859  11.672  42.410   5.260
72534W        W44860  12.226  27.592   5.120
72535W        W44861  30.589   4.197   1.927
72536W        W44862  29.488  35.045   4.572
72537W        W44863  36.847  29.026   4.496
72538W        W44864  41.350  38.791   2.676
72539W        W44865  30.814  21.504  12.045
72540W        W44866   7.795  34.482   4.684
72541W        W44867  10.564   9.937   0.920
72542W        W44868   5.406  23.224   3.855
72543W        W44869  18.713   1.881  12.818
72544W        W44870  11.228   6.038   3.273
72545W        W44871  27.666  42.550   1.883
72546W        W44872  39.271  10.253   1.388
72547W        W44873  10.154   3.787   4.602
72548W        W44874  23.244  40.348  13.340
72549W        W44875   1.345  44.924   1.469
72550W        W44876   4.548  34.463  14.387
72551W        W44877   5.848  10.850  12.903
72552W        W44878  25.212  19.269   1.407
72553W        W44879  36.367   4.901  13.541
72554W        W44880  19.623  22.272  14.364
72555W        W44881  19.788   4.161   2.777
72556W        W44882  27.829  43.806   4.849
72557W        W44883  33.729  33.560   1.987
72558W        W44884  39.110  32.973   1.725
72559W        W44885  22.800  35.332   2.211
72560W        W44886  27.313  41.444  14.167
72561W        W44887  15.493  34.451  10.681
72562W        W44888  39.717  26.581   4.095
72563W        W44889  10.850  15.705   4.228
72564W        W44890  23.719  27.044   4.059
72565W        W44891  41.847  19.745   0.999
72566W        W44892   4.956  44.635  14.567
72567W        W44893  18.846   0.951  12.450
72568W        W44894   3.476  30.752  11.784
72569W        W44895  33.148  35.274  13.756
72570W        W44896   0.386   4.000  12.479
72571W        W44897  44.044  16.707   3.648
72572W        W44898  21.487  26.334  11.076
72573W        W44899  20.584  37.374   1.264
72574W        W44900  37.660   1.288   3.413
72575W        W44901  43.731  16.729   2.626
72576W        W44902  39.965   1.732   0.366
72577W        W44903  18.715  43.055  10.708
72578W        W44904   4.274  31.651   4.639
72579W        W44905   6.602   0.407   2.821
72580W        W44906  39.001   5.227  13.556
72581W        W44907  13.691  35.164   1.760
72582W        W44908  22.322  17.839  10.962
72583W        W44909  21.790  24.492   4.234
72584W        W44910  21.728  25.094   4.631
72585W        W44911  21.594   7.752  14.199
72586W        W44912  11.046  44.311   0.806
72587W        W44913   8.132  11.226  12.092
72588W        W44914  11.572  28.083  10.813
72589W        W44915  38.257   1.994  12.995
72590W        W44916  37.213   9.890  14.517
72591W        W44917   5.217  29.602   3.536
72592W        W44918  12.741   7.815   1.835
72593W        W44919  44.480  43.249  14.100
72594W        W44920  37.420  17.229   3.119
72595W        W44921  14.275  35.353  13.781
72596W        W44922  33.059  18.770  10.988
72597W        W44923  15.071   6.421  11.164
72598W        W44924  32.441   4.288  14.045
72599W        W44925  38.517  22.323  13.730
72600W        W44926   2.129  30.799  13.908
72601W        W44927   6.604  35.090  14.851
72602W        W44928   0.806  19.557  13.437
72603W        W44929   4.905   2.462   5.516
72604W        W44930  29.429  36.992  14.848
72605W        W44931  29.260  21.579  11.003
72606W        W44932  13.630  31.607   2.888
72607W        W44933  27.101   1.750  14.469
72608W        W44934  11.157   4.127  13.067
72609W        W44935  29.598  24.615  10.864
72610W        W44936  26.969  32.195  13.888
72611W        W44937  19.611  14.261  14.805
72612W        W44938  20.977   4.323   3.381
72613W        W44939   5.786   2.800   4.781
72614W        W44940  31.021  16.069  13.994
72615W        W44941  15.066  39.185   2.176
72616W        W44942  31.076  26.072  14.972
72617W        W44943  11.114  30.114  11.943
72618W        W44944  15.828   5.219  14.556
72619W        W44945  37.927   1.697   1.696
72620W        W44946  11.576  35.816  11.061
72621W        W44947  36.307  12.813   3.420
72622W        W44948  40.263   7.859   0.971
72623W        W44949  35.840   3.741  14.308
72624W        W44950  32.435   8.246  11.046
72625W        W44951   4.733  16.840  10.679
72626W        W44952  32.480  11.119   3.099
72627W        W44953  13.769  21.705  14.469
72628W        W44954   7.187  18.983  12.399
72629W        W44955  25.514   9.582  13.010
72630W        W44956  15.566  42.789   1.397
72631W        W44957  24.614  38.249   9.545
72632W        W44958  25.171  12.560   0.906
72633W        W44959  23.859  20.322   0.393
72634W        W44960  11.137  39.985  10.431
72635W        W44961  33.183   7.938   2.234
72636W        W44962  14.571   1.335  10.583
72637W        W44963  24.433  21.696  12.474
72638W        W44964  16.267  37.821   3.858
72639W        W44965  22.236   0.472  14.784
72640W        W44966   4.143  25.177  12.637
72641W        W44967   8.327  17.598   3.587
72642W        W44968  14.306   5.018  13.971
72643W        W44969  23.686  27.192  12.091
72644W        W44970  30.625  39.567  11.594
72645W        W44971  25.951  41.843   3.432
72646W        W44972  17.986  39.364   4.376
72647W        W44973  36.875  17.615  10.644
72648W        W44974  40.029  40.459   2.126
72649W        W44975  42.873  39.345   1.937
72650W        W44976  43.964  18.194   0.238
72651W        W44977   1.349   2.725   3.797
72652W        W44978  28.778  27.951  14.909
72653W        W44979   1.249  11.038   0.361
72654W        W44980   8.332  18.627   1.011
72655W        W44981   0.935  18.341   2.811
72656W        W44982   0.405  19.248  13.349
72657W        W44983  10.882   2.290  12.174
72658W        W44984  21.189  18.988   1.945
72659W        W44985   2.434  28.394  14.876
72660W        W44986  12.772  16.315  13.869
72661W        W44987  34.831  43.551  12.404
72662W        W44988  38.370  44.847  12.452
72663W        W44989  35.580  34.869   2.263
72664W        W44990   2.046  21.059   2.853
72665W        W44991   3.748  27.015  13.922
72666W        W44992  37.585  16.182   0.249
72667W        W44993  17.107  23.278  11.981
72668W        W44994  12.741   0.675   4.471
72669W        W44995   3.178  25.966   2.027
72670W        W44996  14.606  37.860   0.270
72671W        W44997  31.528  29.047   4.585
72672W        W44998  28.118   2.337   4.393
72673W        W44999   7.886  14.590  10.257
72674W        W45000  34.893  27.123  10.853
72675W        W45001  42.428  38.747  13.001
72676W        W45002  12.856  43.467  12.042
72677W        W45003  17.620   3.467  12.877
72678W        W45004  26.268   9.500  13.321
72679W        W45005  17.248  15.765   3.481
72680W        W45006  26.406   2.432   1.653
72681W        W45007  11.174  12.340  11.237
72682W        W45008  23.085  33.390   0.508
72683W        W45009  40.487   8.813  13.843
72684W        W45010  14.773  35.684   1.961
72685W        W45011   5.645  43.555  14.192
72686W        W45012  20.576   9.937   1.964
72687W        W45013  38.274  42.858   0.394
72688W        W45014  40.536   2.701  14.733
72689W        W45015  29.935  13.316   5.192
72690W        W45016  17.216  15.770  10.426
72691W        W45017   4.286  16.529   1.363
72692W        W45018  33.037   2.044   2.970
72693W        W45019  31.437  28.510   1.252
72694W        W45020  38.987  39.352   3.616
72695W        W45021   3.256  21.531   9.803
72696W        W45022  12.370  12.234  14.610
72697W        W45023  40.934  30.911   0.318
72698W        W45024  36.841  16.609   1.012
72699W        W45025   6.464  35.559   0.741
72700W        W45026   3.931  12.861  14.569
72701W        W45027  20.113  25.126   1.831
72702W        W45028  33.671  32.191   4.626
72703W        W45029  16.137  20.736  10.658
72704W        W45030   5.904  10.660   2.659
72705W        W45031  27.286  30.908   2.307
72706W        W45032  32.538  35.830  14.954
72707W        W45033   2.869  32.584   4.173
72708W        W45034   2.408  44.774  14.615
72709W        W45035  22.625  23.607   0.896
72710W        W45036  16.143  37.050   1.905
72711W        W45037  40.396  44.238  12.997
72712W        W45038  31.590  11.444  14.821
72713W        W45039  20.252  13.198   0.660
72714W        W45040  32.619  11.603   3.291
72715W        W45041   3.667  12.382  14.560
72716W        W45042   3.959  32.370   2.288
72717W        W45043  30.184   1.807   4.556
72718W        W45044  13.043  35.007  14.382
72719W        W45045  13.048  20.230   0.002
72720W        W45046  35.335  42.836  13.839
72721W        W45047  11.162   4.915   1.876
72722W        W45048  16.077  28.405  12.466
72723W        W45049  11.014   9.775   4.064
72724W        W45050  24.584  31.978  12.961
72725W        W45051  12.817   8.919   4.051
72726W        W45052   0.535   4.290   4.742
72727W        W45053  37.670  36.481   1.881
72728W        W45054   2.364  27.383   0.893
72729W        W45055  23.245   3.434  12.994
72730W        W45056  27.993   3.382  12.625
72731W        W45057  40.950   4.173   3.223
72732W        W45058  25.679  15.434  14.202
72733W        W45059  10.835   3.772  14.008
72734W        W45060  24.745   4.931   2.658
72735W        W45061  37.069  16.281  11.518
72736W        W45062  41.062  10.870  13.452
72737W        W45063  20.965  34.933   3.421
72738W        W45064  20.985  17.697   4.159
72739W        W45065  42.427   0.908   3.673
72740W        W45066  44.483  17.478  12.477
72741W        W45067  44.205  32.542  13.558
72742W        W45068   5.303  22.053   2.272
72743W        W45069  27.387  43.716  14.020
72744W        W45070   1.345  31.856  10.894
72745W        W45071  40.296  32.100  11.061
72746W        W45072  35.081  11.593   1.751
72747W        W45073   9.352   1.986   3.188
72748W        W45074  12.617   8.158   3.770
72749W        W45075  32.460  15.986   3.085
72750W        W45076   8.666   2.489  14.719
72751W        W45077  43.915  30.147   2.313
72752W        W45078  30.911  10.472   2.888
72753W        W45079  35.563  41.342  13.125
72754W        W45080  19.174  23.653  10.792
72755W        W45081  25.532   1.866   0.279
72756W        W45082  23.340  41.439   3.580
72757W        W45083  19.275  14.097  11.926
72758W        W45084  15.354  24.558  11.203
72759W        W45085  35.113   0.249   0.340
72760W        W45086  24.214  38.899   5.452
72761W        W45087  11.158  16.723  13.810
72762W        W45088  32.087  42.568  14.329
72763W        W45089  39.817   0.193  11.609
72764W        W45090   6.021  17.173  12.470
72765W        W45091  20.319  37.913  11.894
72766W        W45092  19.091  24.091  13.892
72767W        W45093   3.413  18.571   0.440
72768W        W45094  36.528  43.358   0.055
72769W        W45095   0.934   3.972   3.563
72770W        W45096  42.272  36.499   2.825
72771W        W45097  11.804   9.541  14.884
72772W        W45098  35.030  31.376  11.189
72773W        W45099  24.217  24.728   2.395
72774W        W45100  35.522  44.269  12.434
72775W        W45101  10.804  31.950  13.319
72776W        W45102  30.150   2.702  14.252
72777W        W45103   3.907  40.007   0.740
72778W        W45104  22.650   7.942   2.209
72779W        W45105  19.814  33.678  14.248
72780W        W45106  31.485   2.942  14.574
72781W        W45107   0.881  15.344  10.388
72782W        W45108  33.742   5.409  13.489
72783W        W45109  41.878  12.165  11.421
72784W        W45110  12.822   6.179   3.661
72785W        W45111  38.227  18.209  11.462
72786W        W45112  26.250  36.806  11.849
72787W        W45113   5.002  16.347  12.546
72788W        W45114  17.844  41.428   2.314
72789W        W45115   9.189  31.723  13.194
72790W        W45116  44.735  30.528   4.635
72791W        W45117  11.604  16.748   0.462
72792W        W45118  33.224   3.212  12.999
72793W        W45119   5.547   8.651   4.604
72794W        W45120  13.851  21.348   1.889
72795W        W45121  41.328  42.049  13.506
72796W        W45122   9.651   2.346  11.070
72797W        W45123  24.790  37.837  13.464
72798W        W45124  37.374  18.683  11.635
72799W        W45125  23.717  35.546   4.174
72800W        W45126  10.660  18.095  12.946
72801W        W45127  23.194  26.970  12.095
72802W        W45128  31.646  42.846  13.331
72803W        W45129  31.894  13.376  11.120
72804W        W45130  35.645   9.772  14.466
72805W        W45131  31.695  37.128   1.351
72806W        W45132  23.593  19.492   3.626
72807W        W45133  14.663  20.502  14.081
72808W        W45134   3.696   0.480   4.601
72809W        W45135  40.186  26.231   4.982
72810W        W45136  14.854   8.249  14.571
72811W        W45137   5.387  24.478  12.422
72812W        W45138  37.892   5.731   3.674
72813W        W45139  19.328   2.098  12.514
72814W        W45140  13.712  22.805   4.119
72815W        W45141  32.170  30.058   1.236
72816W        W45142  11.738  41.969   4.640
72817W        W45143   5.723   3.335   0.420
72818W        W45144  12.626  10.146  11.290
72819W        W45145  30.058  18.353   2.737
72820W        W45146  39.013   5.239   1.277
72821W        W45147  41.804  28.262  12.057
72822W        W45148   5.212  35.401   4.214
72823W        W45149  12.739  13.781   4.086
72824W        W45150  12.686  35.594   5.032
72825W        W45151  19.622  30.723  11.237
72826W        W45152  14.586   5.447  13.796
72827W        W45153  14.678   0.727  13.189
72828W        W45154  37.807   0.506  14.880
72829W        W45155  18.026  35.680   4.162
72830W        W45156  19.581  36.917   3.060
72831W        W45157  24.208  30.501   4.355
72832W        W45158  16.160  16.566   0.829
72833W        W45159   7.384  28.962   1.620
72834W        W45160  29.633  38.146   1.380
72835W        W45161  35.365  24.462   1.975
72836W        W45162  37.419  14.667  13.555
72837W        W45163  41.736  30.098   0.742
72838W        W45164   5.010   4.851   2.480
72839W        W45165   1.753   5.819   1.413
72840W        W45166  29.137   5.407  13.378
72841W        W45167   1.195  20.607  12.087
72842W        W45168  42.046  22.571   0.998
72843W        W45169  39.018  39.640   4.899
72844W        W45170   9.374  32.049  12.846
72845W        W45171  34.106  32.598  13.752
72846W        W45172  39.847   3.242   0.997
72847W        W45173   4.210   9.107   0.692
72848W        W45174  43.339   0.377   0.555
72849W        W45175  43.997  41.076   1.407
72850W        W45176  20.193   3.234   3.099
72851W        W45177   4.188   4.485  10.746
72852W        W45178  29.011  29.501  13.438
72853W        W45179  27.896  10.649   1.706
72854W        W45180  30.100  35.586   3.198
72855W        W45181  33.552  25.779   4.761
72856W        W45182  33.635  26.014  13.814
72857W        W45183   3.939   4.921   0.479
72858W        W45184  17.209   0.518  14.070
72859W        W45185  18.020  21.851  12.854
72860W        W45186  10.169  15.712  14.579
72861W        W45187   1.383  41.369   3.349
72862W        W45188  43.057  19.187  12.884
72863W        W45189   5.166  28.001  11.739
72864W        W45190  36.090  28.706  11.388
72865W        W45191  35.113   8.714  10.512
72866W        W45192  29.094  16.886  12.882
72867W        W45193  14.808  41.729   2.853
72868W        W45194  23.703   0.554   2.177
72869W        W45195  33.908  39.740   3.173
72870W        W45196  39.967  11.611   3.212
72871W        W45197  35.827  21.032  14.481
72872W        W45198   2.283  13.025  10.608
72873W        W45199  40.862  42.920  11.134
72874W        W45200  28.023  44.021  14.877
72875W        W45201  25.728  41.760   4.136
72876W        W45202  11.304  31.693   0.979
72877W        W45203  27.703   4.232   3.287
72878W        W45204  39.590  19.246  13.835
72879W        W45205   5.769  38.075  13.451
72880W        W45206  26.410  17.486   0.269
72881W        W45207  18.128  38.988   4.025
72882W        W45208  26.267  17.182   5.544
72883W        W45209  19.346   7.741  11.050
72884W        W45210   3.008  11.257  13.937
72885W        W45211  33.929  15.115  10.453
72886W        W45212  12.235  11.084  11.618
72887W        W45213  29.732  27.086   4.710
72888W        W45214  27.005  28.047  11.679
72889W        W45215  37.031  40.542  12.123
72890W        W45216  37.197  42.327   1.208
72891W        W45217  25.241  33.096  11.184
72892W        W45218  36.447   5.603  14.300
72893W        W45219  15.233  18.173   0.563
72894W        W45220  17.815  27.485   2.740
72895W        W45221  33.082  29.263   3.660
72896W        W45222  43.624  25.990  11.904
72897W        W45223  24.349  16.865  11.103
72898W        W45224   0.902  37.908  10.682
72899W        W45225  24.107  11.772  12.055
72900W        W45226  36.329  32.646   0.026
72901W        W45227   1.447  40.053   2.807
72902W        W45228  26.504   0.793  10.811
72903W        W45229  21.281  34.307   1.390
72904W        W45230  25.272  39.655  10.982
72905W        W45231  14.533  11.191   0.772
72906W        W45232  26.225  13.773  11.963
72907W        W45233   1.942  30.238   2.735
72908W        W45234   4.123  21.315   1.330
72909W        W45235  22.617   0.656   3.940
72910W        W45236  27.092  42.001  13.334
72911W        W45237  44.381  27.571  13.653
72912W        W45238  20.815   0.897  10.623
72913W        W45239  24.959  31.153   1.810
72914W        W45240  41.486  31.938   1.371
72915W        W45241  29.582   1.916   3.789
72916W        W45242  13.130  38.268  11.280
72917W        W45243  28.343  12.079  11.379
72918W        W45244  22.785  35.597  14.607
72919W        W45245  22.950  15.619   5.042
72920W        W45246   6.445  29.512  12.096
72921W        W45247  25.533   3.470   2.513
72922W        W45248  15.632  15.581   0.280
72923W        W45249  24.504  20.122  10.777
72924W        W45250  38.817  20.717  13.593
72925W        W45251  36.107   4.265  12.923
72926W        W45252  34.088  35.764  12.429
72927W        W45253  38.983  23.735  12.429
72928W        W45254   3.252  22.672  14.930
72929W        W45255  34.286  43.469  14.215
72930W        W45256  21.776  38.079  11.088
72931W        W45257  19.184  18.102  11.251
72932W        W45258  21.050  17.297  14.392
72933W        W45259  10.550  11.317  13.348
72934W        W45260  16.753  38.132  10.726
72935W        W45261  37.829  28.604   3.732
72936W        W45262  31.596  42.242  12.013
72937W        W45263  33.863  18.638   1.619
72938W        W45264  41.440  41.866   4.363
72939W        W45265  27.213  10.856   1.017
72940W        W45266   0.491   0.736   1.934
72941W        W45267   1.906  30.016   3.758
72942W        W45268  33.516   4.417  10.704
72943W        W45269  38.919   7.693   0.837
72944W        W45270   7.464  36.951   2.725
72945W        W45271  33.506  18.783   4.299
72946W        W45272  40.451  16.300  13.774
72947W        W45273  34.553   1.224  11.145
72948W        W45274   7.456  44.978  14.459
72949W        W45275   5.684  35.509   0.268
72950W        W45276  18.040  18.808   0.451
72951W        W45277  21.690  17.360   3.208
72952W        W45278  21.946  18.637   2.306
72953W        W45279  36.100  12.476   2.117
72954W        W45280  34.711   5.221  10.758
72955W        W45281  25.974  41.499   2.359
72956W        W45282   8.715  43.388   2.716
72957W        W45283  33.890  17.550  10.691
72958W        W45284  20.773  26.768  13.880
72959W        W45285   5.341   2.467  12.465
72960W        W45286   9.670   7.728   4.411
72961W        W45287  42.541  33.090  11.152
72962W        W45288  20.016  38.325  12.501
72963W        W45289  31.701   9.431   4.949
72964W        W45290  23.612   8.081   1.326
72965W        W45291   9.964  37.905   0.786
72966W        W45292   9.181   1.732   0.804
72967W        W45293  28.460  18.239   1.174
72968W        W45294   8.786  35.911  11.546
72969W        W45295  32.466  20.007   0.439
72970W        W45296  43.277  27.743   3.315
72971W        W45297   0.823   5.156   4.209
72972W        W45298  33.961  15.296   3.890
72973W        W45299  42.677  37.830   0.737
72974W        W45300  38.271   6.102  13.825
72975W        W45301   5.876   2.375  14.076
72976W        W45302  40.998  42.423   1.980
72977W        W45303  33.351   5.415   2.640
72978W        W45304  15.128   5.879  14.939
72979W        W45305  16.625  40.029  11.204
72980W        W45306   5.377  29.512  12.427
72981W        W45307  16.593   6.849   0.783
72982W        W45308  19.072   4.928  12.388
72983W        W45309  40.463   8.614   2.319
72984W        W45310  16.199  12.344   2.720
72985W        W45311  29.620  22.960   3.687
72986W        W45312  14.543  24.669  13.137
72987W        W45313  41.914  10.012   4.593
72988W        W45314  38.854  36.084  10.616
72989W        W45315  12.894  44.296   1.477
72990W        W45316  42.115  17.546  10.881
72991W        W45317   8.338   7.931  14.744
72992W        W45318   0.980  18.161  14.692
72993W        W45319  40.394   0.473   2.861
72994W        W45320  34.759  31.463   1.452
72995W        W45321  26.406  16.629   1.762
72996W        W45322   8.936  39.321  13.338
72997W        W45323  16.568  14.438   0.367
72998W        W45324  40.760  39.428   4.525
72999W        W45325   4.137  17.792   2.551
73000W        W45326  31.185  33.891  10.756
73001W        W45327   5.508  14.053  11.970
73002W        W45328  42.576  10.287   0.779
73003W        W45329   1.567  23.596  10.646
73004W        W45330   6.950  29.829  14.377
73005W        W45331   7.783  12.086   1.166
73006W        W45332  28.058  11.321  12.119
73007W        W45333  16.753  37.235   2.475
73008W        W45334  44.384  21.787   4.161
73009W        W45335   7.302  43.944   2.445
73010W        W45336  33.546  44.068  11.199
73011W        W45337   3.322  26.456   4.135
73012W        W45338  13.419   5.905   3.215
73013W        W45339  30.175  23.230   0.483
73014W        W45340  14.350  37.543  14.540
73015W        W45341  21.578  16.818   3.081
73016W        W45342  25.941  32.914   4.713
73017W        W45343  44.419  13.805  10.537
73018W        W45344   2.923   9.709   5.380
73019W        W45345   0.853  31.684   0.479
73020W        W45346  30.162   6.210   0.276
73021W        W45347  44.051   6.623  11.173
73022W        W45348   7.342   4.408   1.167
73023W        W45349  32.866  13.542  13.334
73024W        W45350  10.275  40.135  12.648
73025W        W45351  20.781  16.131   1.197
73026W        W45352  21.052  32.952  13.007
73027W        W45353  40.417  22.285   1.731
73028W        W45354   3.942  26.208   3.332
73029W        W45355   7.329  27.876  11.977
73030W        W45356  15.815  43.724  14.398
73031W        W45357  19.192  13.882  14.314
73032W        W45358  42.014  35.482   3.966
73033W        W45359   6.114   4.697   4.127
73034W        W45360  33.900  39.274  14.432
73035W        W45361  38.833   2.401  14.900
73036W        W45362   6.269  29.940   4.694
73037W        W45363  20.330   2.321   3.607
73038W        W45364   3.447  29.683   0.314
73039W        W45365   0.560  19.624   0.233
73040W        W45366  40.501  30.660   3.214
73041W        W45367  44.857   8.270   4.385
73042W        W45368  37.494   3.519   1.976
73043W        W45369  29.904  19.223   0.518
73044W        W45370  25.658  12.682  12.077
73045W        W45371   6.289  16.294  12.674
73046W        W45372  22.926  41.983   2.889
73047W        W45373  10.002  19.463   4.885
73048W        W45374  36.003  41.789   4.589
73049W        W45375   2.226  34.589  14.844
73050W        W45376  12.121  17.689   0.860
73051W        W45377  12.283  39.801  11.140
73052W        W45378  24.483   4.347   1.227
73053W        W45379  32.948  16.036  13.868
73054W        W45380   3.778  43.529  11.512
73055W        W45381  26.634  44.358  14.447
73056W        W45382  30.672  41.381   2.819
73057W        W45383   4.683  16.680   0.113
73058W        W45384   7.721   7.202  12.514
73059W        W45385  16.650  26.594  11.281
73060W        W45386  17.694  44.538  12.320
73061W        W45387  35.168   4.227  14.895
73062W        W45388  35.591   2.955   3.244
73063W        W45389  37.458  44.382  14.131
73064W        W45390  12.170  18.064   5.024
73065W        W45391  37.384  29.915   0.079
73066W        W45392  18.161  31.436   2.960
73067W        W45393  44.735  22.624   4.661
73068W        W45394  40.303   7.681   4.589
73069W        W45395  39.611  12.952   0.855
73070W        W45396   2.721  19.996  14.964
73071W        W45397   6.667  15.754   4.543
73072W        W45398  14.426  32.343   1.195
73073W        W45399  20.115  37.611  13.770
73074W        W45400   0.074   0.895  14.966
73075W        W45401  43.701  27.092   2.294
73076W        W45402  29.403  22.683   2.866
73077W        W45403  39.494  19.701   4.212
73078W        W45404  31.142   3.462  11.564
73079W        W45405  27.299  42.385  13.662
73080W        W45406  10.341  30.443   0.059
73081W        W45407  33.045  43.057   2.766
73082W        W45408  42.540   7.235   0.805
73083W        W45409  36.904  44.086   2.270
73084W        W45410   4.816  26.779   3.218
73085W        W45411   7.770  40.856   4.183
73086W        W45412  16.635  26.871   4.159
73087W        W45413  30.524  15.589  12.940
73088W        W45414  31.905  40.379  12.873
73089W        W45415  36.443  42.771   2.300
73090W        W45416   4.995  14.160  12.033
73091W        W45417   6.844  28.118   3.207
73092W        W45418  38.973   4.660   4.599
73093W        W45419  20.494  33.546   0.934
73094W        W45420  15.159  33.090   1.826
73095W        W45421  40.959   6.937  11.599
73096W        W45422   8.439   5.780   0.419
73097W        W45423  44.514  42.024   3.302
73098W        W45424   3.353  15.043  13.396
73099W        W45425   8.592   9.768  13.638
73100W        W45426  24.886  17.230  12.142
73101W        W45427  30.759  17.314  14.042
73102W        W45428   4.641  11.864  12.073
73103W        W45429  42.059  43.816  11.611
73104W        W45430  43.281  43.320  13.341
73105W        W45431   2.454   9.326  12.243
73106W        W45432  30.646  37.276  12.526
73107W        W45433  20.310  14.210  13.998
73108W        W45434  26.114  32.938   0.557
73109W        W45435  27.166  25.015   2.852
73110W        W45436   8.607   8.891  13.386
73111W        W45437  26.613  10.463  13.290
73112W        W45438  17.284  17.255  11.481
73113W        W45439  10.423  39.586  11.642
73114W        W45440  11.050  15.164   4.201
73115W        W45441  19.489  35.886  13.789
73116W        W45442  32.609  36.774  11.375
73117W        W45443   1.126  28.525  13.579
73118W        W45444  42.109  35.459  11.942
73119W        W45445  12.207  13.198   1.543
73120W        W45446  39.502  28.078   0.202
73121W        W45447   5.029  28.858   3.744
73122W        W45448  25.481  38.000  14.267
73123W        W45449   4.419  30.519  12.389
73124W        W45450  18.654   1.508  13.631
73125W        W45451  30.190  11.875   0.886
73126W        W45452  37.918   4.629  14.735
73127W        W45453  27.738   5.305  14.465
73128W        W45454  26.707  22.479  11.551
73129W        W45455  39.332  18.086  14.385
73130W        W45456  15.890  34.041  10.586
73131W        W45457  14.166  14.678   4.774
73132W        W45458  35.442  42.767   2.193
73133W        W45459  35.438  27.109  10.726
73134W        W45460  21.816  41.351  10.300
73135W        W45461   1.308  34.171  12.556
73136W        W45462  37.312  35.644  10.353
73137W        W45463  42.405  42.226   4.356
73138W        W45464  39.920   0.376   3.076
73139W        W45465  10.197  12.642  11.677
73140W        W45466  11.673   0.289   1.285
73141W        W45467   6.326   4.458  13.985
73142W        W45468   0.624   4.304   2.403
73143W        W45469   2.481  41.833  14.887
73144W        W45470  32.693  11.755  14.420
73145W        W45471  13.628  34.242  10.845
73146W        W45472  23.211  20.178  13.758
73147W        W45473  44.504  20.789   1.968
73148W        W45474  19.075  29.686   0.982
73149W        W45475   2.219  40.884   3.773
73150W        W45476  26.953   4.439   0.803
73151W        W45477   2.821  41.896  14.455
73152W        W45478  24.340  28.922  14.370
73153W        W45479  23.613  17.492   3.627
73154W        W45480  27.905   8.237  10.795
73155W        W45481   5.259  44.620   2.829
73156W        W45482   2.332  33.831  11.829
73157W        W45483  43.340  25.519  10.600
73158W        W45484  42.243  14.618   1.338
73159W        W45485   7.615  25.535   1.520
73160W        W45486  16.843   6.146   2.044
73161W        W45487  18.836  37.841  12.082
73162W        W45488  34.165  18.844  10.960
73163W        W45489  43.712  21.324   5.243
73164W        W45490  12.065  11.370   3.324
73165W        W45491  38.859  18.321   4.051
73166W        W45492  17.168  41.999  14.610
73167W        W45493  21.654  38.875  13.413
73168W        W45494  15.772  28.667  13.928
73169W        W45495  25.708   7.459   3.666
73170W        W45496   1.781  35.063  10.741
73171W        W45497  40.927  33.874   2.696
73172W        W45498   3.784  26.661  13.449
73173W        W45499  41.980   7.970  12.953
73174W        W45500  39.519  28.650  13.293
73175W        W45501  29.465  10.767  11.510
73176W        W45502  30.890  38.976   4.597
73177W        W45503  29.447   2.287   1.281
73178W        W45504   7.764  37.830  13.630
73179W        W45505  43.342  10.873   4.523
73180W        W45506  43.580  20.044  11.089
73181W        W45507  43.907  41.485   1.109
73182W        W45508  34.285  11.356  10.778
73183W        W45509  28.022  31.160   4.120
73184W        W45510   9.316  24.012   2.243
73185W        W45511  20.460   8.404   0.936
73186W        W45512  18.277  42.542   2.683
73187W        W45513  37.566  29.935   1.061
73188W        W45514  10.604   4.497  14.281
73189W        W45515  29.550   5.433  10.644
73190W        W45516  16.731   7.468   4.899
73191W        W45517  33.470  28.881  11.063
73192W        W45518  33.066  35.891  10.416
73193W        W45519  37.051  24.906  13.520
73194W        W45520  14.083  18.115  14.863
73195W        W45521  25.677  35.371  13.475
73196W        W45522  35.034  43.020  12.915
73197W        W45523   5.754  33.999   2.925
73198W        W45524  13.803  42.390   0.778
73199W        W45525  40.302   6.427   4.073
73200W        W45526  44.143  31.572  13.837
73201W        W45527  34.682   7.251   4.641
73202W        W45528  26.013  10.864   1.097
73203W        W45529   4.741  18.592  14.272
73204W        W45530  30.723  40.415   2.380
73205W        W45531  20.036  16.658   0.016
73206W        W45532   6.299  37.610  14.024
73207W        W45533  35.419  39.355  12.326
73208W        W45534  33.489  21.558   0.739
73209W        W45535  38.995  41.582  13.541
73210W        W45536  11.338  16.487   3.832
73211W        W45537  44.646  20.378   1.689
73212W        W45538  33.686  43.851  10.756
73213W        W45539  38.943  29.679  10.664
73214W        W45540  37.958   0.739   2.768
73215W        W45541  30.193  41.064  11.171
73216W        W45542   8.514   6.032  13.147
73217W        W45543  34.146   0.007   1.250
73218W        W45544  41.822   7.961  10.759
73219W        W45545  31.857   5.795   0.740
73220W        W45546  21.376  14.013   5.008
73221W        W45547   7.006  26.920   3.144
73222W        W45548  38.942  36.446   3.131
73223W        W45549  37.353  21.996  11.212
73224W        W45550  15.848  23.693   1.179
73225W        W45551  29.114  41.329   4.921
73226W        W45552  27.947   2.763   0.039
73227W        W45553  32.148   9.672   4.488
73228W        W45554  34.977  21.450   1.884
73229W        W45555  25.078   7.940  14.277
73230W        W45556   1.688   9.144   0.302
73231W        W45557  22.804   9.665  11.317
73232W        W45558  25.955  41.342   3.334
73233W        W45559  27.637  25.462   3.695
73234W        W45560  35.891  33.094  10.145
73235W        W45561  42.797  29.955  12.583
73236W        W45562   3.522  27.615   1.387
73237W        W45563  36.410   6.394  11.939
73238W        W45564  10.006  42.277  11.464
73239W        W45565  35.246  42.086  12.030
73240W        W45566   6.180  35.891  14.501
73241W        W45567   0.529   9.082  12.397
73242W        W45568  30.412   8.678   3.220
73243W        W45569   8.317  26.143   1.406
73244W        W45570   1.963  18.338  14.006
73245W        W45571   2.495  12.649   5.146
73246W        W45572  34.987   2.191   0.665
73247W        W45573  11.080  17.824   0.809
73248W        W45574   3.972   4.200  11.118
73249W        W45575  10.386  38.379  13.483
73250W        W45576  22.159   7.489  12.365
73251W        W45577  32.088  37.524   4.151
73252W        W45578  23.905  33.223   4.637
73253W        W45579  24.356   3.900   3.920
73254W        W45580  29.099  12.797  14.834
73255W        W45581  33.364  20.681  12.014
73256W        W45582  21.738  26.618  10.309
73257W        W45583  14.898  11.354   1.130
73258W        W45584  23.670   7.638   2.770
73259W        W45585  32.871   0.048   2.661
73260W        W45586  32.092  26.376   3.638
73261W        W45587  26.958   7.695   1.337
73262W        W45588  32.593   1.907   0.300
73263W        W45589   9.807   4.425   4.137
73264W        W45590  23.948  35.882  10.660
73265W        W45591   0.892  26.680  10.730
73266W        W45592   1.900  24.533   4.056
73267W        W45593   7.395  20.527   2.342
73268W        W45594   1.277  40.882   3.500
73269W        W45595  34.954   5.374  12.238
73270W        W45596  25.722   7.877   3.263
73271W        W45597  15.859  12.836   4.183
73272W        W45598  25.690  35.769  10.272
73273W        W45599  32.999  13.777   3.353
73274W        W45600   8.785  38.148   2.607
73275W        W45601   3.870   8.796  14.245
73276W        W45602  16.068   7.204   3.160
73277W        W45603  20.262  41.407   2.204
73278W        W45604   9.263  14.999   2.860
73279W        W45605  10.149  42.306   3.574
73280W        W45606  37.622  16.216   2.215
73281W        W45607   4.175  12.637   3.513
73282W        W45608   9.850  39.985   4.123
73283W        W45609  23.655  32.248   4.435
73284W        W45610  36.316   1.926  12.153
73285W        W45611  12.003  40.332   4.320
73286W        W45612  32.703  16.026  12.531
73287W        W45613  27.099  40.719   2.829
73288W        W45614  39.898  25.778  11.695
73289W        W45615  42.894  44.752  13.322
73290W        W45616  42.289  29.033   1.846
73291W        W45617  40.047  37.656  12.949
73292W        W45618   2.048  33.133  10.845
73293W        W45619  18.170  19.136   1.721
73294W        W45620  18.573  30.809   1.958
73295W        W45621   6.509  25.205   3.570
73296W        W45622   4.490  17.037   0.442
73297W        W45623  23.061  11.330  14.958
73298W        W45624   2.737   5.208  11.887
73299W        W45625  12.025  37.032  11.008
73300W        W45626  22.068  16.596  11.597
73301W        W45627  44.067  35.937  10.792
73302W        W45628   6.409  41.955  10.663
73303W        W45629   6.690   0.558   3.598
73304W        W45630  20.303  33.039  14.787
73305W        W45631   7.017  13.737  10.769
73306W        W45632   0.638  10.818   0.987
73307W        W45633  38.458   2.146   1.442
73308W        W45634   6.368  11.154  14.872
73309W        W45635  23.505  24.469  11.829
73310W        W45636  38.717  29.158   2.113
73311W        W45637  35.879  36.397   2.118
73312W        W45638  39.832  16.416   4.540
73313W        W45639  10.822  27.069  14.696
73314W        W45640  19.736  10.120  11.171
73315W        W45641  13.078  42.401   3.112
73316W        W45642   9.677  27.974   0.246
73317W        W45643   2.313  32.032  13.495
73318W        W45644  23.720  16.550  14.853
73319W        W45645  11.688  25.931   3.731
73320W        W45646   7.859  15.630  11.747
73321W        W45647  28.293  25.747   1.798
73322W        W45648   3.134  21.086  13.581
73323W        W45649   4.414  30.354   1.671
73324W        W45650  18.739  26.408   4.219
73325W        W45651   4.420   1.782   0.282
73326W        W45652  15.320  29.123  13.804
73327W        W45653  11.441  43.432  14.039
73328W        W45654  37.040   0.346  11.345
73329W        W45655  20.641  42.499   3.415
73330W        W45656   6.926  39.589   4.092
73331W        W45657  15.127  26.476  10.576
73332W        W45658   1.324  42.380   1.332
73333W        W45659  19.256  37.895   1.364
73334W        W45660  19.645  33.372   2.772
73335W        W45661  43.841  28.995  13.558
73336W        W45662  33.611  30.446   4.182
73337W        W45663  28.427  18.751  13.279
73338W        W45664  34.692  14.180   0.387
73339W        W45665  39.962  17.037  14.284
73340W        W45666  14.853  27.835  10.699
73341W        W45667  39.553  35.533   2.230
73342W        W45668  13.799  42.847  10.881
73343W        W45669  44.329  16.182   1.442
73344W        W45670  43.786   3.860   3.113
73345W        W45671   0.993   8.199  11.208
73346W        W45672  35.659  43.330   3.285
73347W        W45673  11.365  23.121   0.469
73348W        W45674  40.405   9.262   0.809
73349W        W45675  14.581  38.539   4.591
73350W        W45676   1.251  43.662  10.930
73351W        W45677  20.837  43.393   3.677
73352W        W45678  27.635   1.955  12.474
73353W        W45679  41.602  31.040   3.309
73354W        W45680  33.007  15.325  14.549
73355W        W45681  19.731   5.958   3.376
73356W        W45682  36.058  15.252   3.290
73357W        W45683  43.052  36.061  10.176
73358W        W45684  27.482  22.541   4.656
73359W        W45685  37.421  13.659   2.324
73360W        W45686  34.540  37.839   2.738
73361W        W45687   6.921  25.513   2.350
73362W        W45688  32.820  32.352   4.466
73363W        W45689  20.341   4.986   4.025
73364W        W45690   3.945  23.511   3.221
73365W        W45691  42.877  30.606  10.969
73366W        W45692  29.347   0.825   1.195
73367W        W45693  15.065  38.291   4.049
73368W        W45694  30.129   3.707   1.258
73369W        W45695  11.327   9.844  13.406
73370W        W45696   1.997  41.108  14.840
73371W        W45697  34.072  13.581   2.374
73372W        W45698   6.681   6.852   3.220
73373W        W45699  25.260  10.744   1.624
73374W        W45700  20.162  15.438  11.947
73375W        W45701   9.154  30.458   4.887
73376W        W45702  28.539  11.105  13.890
73377W        W45703   6.613  35.491   0.227
73378W        W45704  25.026  30.059  13.581
73379W        W45705   6.485  14.325  12.019
73380W        W45706  31.499   6.196   4.931
73381W        W45707  44.289  24.890  10.643
73382W        W45708   3.160   9.857  13.826
73383W        W45709  38.078   7.183   4.567
73384W        W45710  14.581   6.951   2.688
73385W        W45711   0.191  14.113  13.298
73386W        W45712  23.287  39.816   0.973
73387W        W45713  28.496  13.974  10.638
73388W        W45714  24.536   6.401  14.386
73389W        W45715   6.214   7.224  12.791
73390W        W45716  29.013  16.711  14.932
73391W        W45717  42.239   5.033  13.313
73392W        W45718  17.236  28.532  13.931
73393W        W45719  22.635  14.162   4.949
73394W        W45720  35.338  17.616  12.632
73395W        W45721  34.600  13.090   1.779
73396W        W45722  15.593   0.987  11.874
73397W        W45723  29.761  41.114   1.198
73398W        W45724  15.568  28.741   0.493
73399W        W45725  44.450  22.792   1.780
73400W        W45726  24.089  14.621   0.088
73401W        W45727   4.347   1.638  12.821
73402W        W45728  10.086  20.241   3.508
73403W        W45729  32.883  37.418   2.300
73404W        W45730  33.598  33.238  12.044
73405W        W45731  23.740  36.258   1.827
73406W        W45732  22.809  22.651  10.598
73407W        W45733  20.195   7.223   3.962
73408W        W45734  11.072  25.192  11.360
73409W        W45735  27.729  40.888  10.617
73410W        W45736  30.898  13.509   1.810
73411W        W45737  43.288  39.947   2.279
73412W        W45738  13.391  25.927  10.838
73413W        W45739   1.826  39.588  13.522
73414W        W45740  24.606   7.141  13.622
73415W        W45741   4.376   4.053   0.815
73416W        W45742  21.009  35.853   3.424
73417W        W45743   0.826  16.115   2.765
73418W        W45744  27.655  34.446  14.306
73419W        W45745  22.062  22.778  13.421
73420W        W45746  19.358  17.599   3.313
73421W        W45747   5.302  33.123   0.506
73422W        W45748  15.367  24.828   0.428
73423W        W45749  28.411  20.819   2.046
73424W        W45750   4.761  37.003  14.308
73425W        W45751  41.796  42.099   0.886
73426W        W45752  44.963  24.624   3.904
73427W        W45753   4.286  26.520   2.427
73428W        W45754  15.657   8.867   2.121
73429W        W45755  13.361   7.231   0.338
73430W        W45756  24.513  19.334   0.658
73431W        W45757  16.592  13.068  12.153
73432W        W45758  13.194  26.207  13.617
73433W        W45759  42.717  44.817  14.783
73434W        W45760  29.203  11.256  13.349
73435W        W45761  39.339   8.097  13.409
73436W        W45762  43.074  39.401  14.437
73437W        W45763  34.878  35.533   3.257
73438W        W45764  20.069  22.752  11.357
73439W        W45765   9.844  18.294   2.690
73440W        W45766  11.362  36.858  13.317
73441W        W45767  39.606   0.206   1.313
73442W        W45768  34.389  35.365  13.433
73443W        W45769  32.051  37.838  13.378
73444W        W45770   7.843  43.617   1.819
73445W        W45771  16.042  11.273  14.957
73446W        W45772  22.214  17.736  11.979
73447W        W45773  13.135  12.184  11.271
73448W        W45774  27.002  21.750   4.206
73449W        W45775   2.954  29.121  11.275
73450W        W45776   4.507  14.792  13.827
73451W        W45777  24.307  17.784   4.493
73452W        W45778   9.639  32.026   3.917
73453W        W45779  34.681  19.739  14.349
73454W        W45780   2.306   6.341   0.809
73455W        W45781   5.371  18.038  10.933
73456W        W45782  18.917  22.347   4.684
73457W        W45783  10.785  27.711  12.470
73458W        W45784  25.970  40.172   0.505
73459W        W45785  15.998  19.702   3.624
73460W        W45786  33.035  44.418   0.670
73461W        W45787  11.613  13.315   4.146
73462W        W45788   7.671   6.782   4.862
73463W        W45789   9.482  25.605   0.981
73464W        W45790  35.423  17.081   3.144
73465W        W45791   8.519  31.645   0.278
73466W        W45792  38.429  24.681  13.233
73467W        W45793  36.935  23.517  12.030
73468W        W45794  12.249  28.140  11.471
73469W        W45795  44.376  42.949  14.562
73470W        W45796  17.174  38.045   0.634
73471W        W45797   0.925   2.240   4.070
73472W        W45798   6.163  29.132   5.181
73473W        W45799  42.392  26.451  14.290
73474W        W45800  27.166  44.828   3.884
73475W        W45801  14.752  13.391   0.353
73476W        W45802  11.601  25.235   0.786
73477W        W45803  38.825   2.728  12.069
73478W        W45804  36.653  25.986  11.456
73479W        W45805  40.414  27.644   2.704
73480W        W45806  25.605   2.323   2.664
73481W        W45807   2.884  31.222   2.346
73482W        W45808   5.462  18.233  12.526
73483W        W45809   0.722  43.076  10.668
73484W        W45810  35.550  19.332   1.201
73485W        W45811  33.666  30.184   2.911
73486W        W45812  44.026   5.314   2.178
73487W        W45813   5.257  41.301  12.450
73488W        W45814  26.155   4.846   0.837
73489W        W45815  19.495   5.034  11.213
73490W        W45816  13.186  38.861   0.932
73491W        W45817  41.048  32.164  13.133
73492W        W45818   8.252  26.172  14.003
73493W        W45819   4.811   6.238  11.523
73494W        W45820   5.962  28.393  10.666
73495W        W45821  27.415  11.364   3.229
73496W        W45822  37.875   1.804  11.732
73497W        W45823   9.609  38.870  12.466
73498W        W45824  13.219  43.808   4.741
73499W        W45825  22.210   8.713  14.800
73500W        W45826  32.669  24.245  14.059
73501W        W45827   5.207  19.956  13.212
73502W        W45828  19.271   1.971   2.706
73503W        W45829   4.782  25.615   2.816
73504W        W45830  15.269   4.498  14.858
73505W        W45831  17.886  12.152  14.396
73506W        W45832  41.888   5.435  13.358
73507W        W45833  35.014  17.120   1.409
73508W        W45834  21.141   7.313   3.563
73509W        W45835  11.773   3.727  10.535
73510W        W45836  22.177  13.363  12.866
73511W        W45837  30.009  42.360  10.733
73512W        W45838  39.858  30.615   2.471
73513W        W45839  38.972  18.018  11.102
73514W        W45840   1.004  43.995  11.698
73515W        W45841  11.743  22.033   2.893
73516W        W45842  24.181  36.878   0.856
73517W        W45843  36.520   4.950   2.751
73518W        W45844  42.791  27.905   2.861
73519W        W45845  12.309  31.640  10.763
73520W        W45846   2.416  31.611  14.497
73521W        W45847  37.432  19.401  13.781
73522W        W45848  16.739  31.376  14.193
73523W        W45849  35.652  10.792   2.668
73524W        W45850  29.187  30.646  12.044
73525W        W45851  15.515  19.789   3.806
73526W        W45852  28.358  40.527   1.800
73527W        W45853   3.313  15.277   2.633
73528W        W45854  24.065  25.080  13.866
73529W        W45855  11.042  19.109  14.403
73530W        W45856  11.233  35.959  11.501
73531W        W45857  16.112  21.419   0.347
73532W        W45858  16.820  29.912  13.861
73533W        W45859  31.042  21.654   4.874
73534W        W45860  31.616  17.491   0.282
73535W        W45861  17.032   5.482   0.388
73536W        W45862  37.150  35.426   0.306
73537W        W45863   9.310  41.103  12.781
73538W        W45864   9.573   1.507  14.810
73539W        W45865   6.843  41.368   1.115
73540W        W45866   8.845   2.824   1.971
73541W        W45867  27.229  23.444  11.619
73542W        W45868  21.769  29.837   2.342
73543W        W45869  14.531  44.963   4.614
73544W        W45870  35.658  30.188  14.843
73545W        W45871  10.117  21.656  12.444
73546W        W45872  39.511   7.195  14.548
73547W        W45873  38.342  37.898   0.835
73548W        W45874   2.968  35.049  11.084
73549W        W45875  34.616   9.624   3.852
73550W        W45876   5.783   2.023   4.122
73551W        W45877  19.505  36.301  11.024
73552W        W45878  40.760  29.964   0.733
73553W        W45879   8.073  42.296   1.527
73554W        W45880  31.901  22.473   2.626
73555W        W45881  43.274   7.000   2.378
73556W        W45882  40.263   0.800   1.405
73557W        W45883  24.222   7.744  12.013
73558W        W45884  14.433  18.361  14.500
73559W        W45885  19.446  26.113   0.512
73560W        W45886  38.790  19.063   0.396
73561W        W45887  42.329  21.964   1.912
73562W        W45888  42.756   3.923   0.523
73563W        W45889  23.375  33.731   2.831
73564W        W45890  24.958  29.572   0.343
73565W        W45891  18.279  30.581   1.600
73566W        W45892  29.062   3.210   1.507
73567W        W45893  28.177  18.357   3.237
73568W        W45894  20.773  16.019  12.320
73569W        W45895   2.849  26.036   0.150
73570W        W45896   1.271  24.015  11.914
73571W        W45897  17.034  31.935   2.292
73572W        W45898  14.589  11.233  14.883
73573W        W45899  15.550  43.792   4.963
73574W        W45900  26.009  29.944  11.065
73575W        W45901   4.827  32.354   2.167
73576W        W45902  18.560  28.709  11.187
73577W        W45903  41.283   0.955   1.437
73578W        W45904  30.443  19.154   4.327
73579W        W45905  25.212   0.462  13.435
73580W        W45906  24.671  22.279   4.628
73581W        W45907  14.587  14.596   4.516
73582W        W45908  27.073  44.336  14.744
73583W        W45909   7.657  39.821  12.626
73584W        W45910  34.850  28.839  14.115
73585W        W45911  35.799  37.537   0.817
73586W        W45912  35.514  29.381   1.822
73587W        W45913  40.524   5.329  12.962
73588W        W45914   7.342  15.252  11.137
73589W        W45915  15.210  23.551  11.968
73590W        W45916   2.241  19.142   0.717
73591W        W45917  31.960  29.978  13.752
73592W        W45918  13.347  30.415   4.656
73593W        W45919  35.455  33.467   3.120
73594W        W45920  37.071  10.296   0.836
73595W        W45921  32.358   8.909   2.612
73596W        W45922  28.191   3.677  11.930
73597W        W45923  42.787  41.781   2.603
73598W        W45924  39.536  42.386  13.587
73599W        W45925  12.723  29.558   0.053
73600W        W45926  30.622  44.852   1.605
73601W        W45927   9.269  36.716  11.622
73602W        W45928  16.360  32.683  12.033
73603W        W45929   3.393  12.329  13.060
73604W        W45930  17.562  44.263   3.630
73605W        W45931   6.432  33.806  13.262
73606W        W45932  12.840  17.770   3.158
73607W        W45933  29.650  38.604  11.704
73608W        W45934  33.909  13.286  14.526
73609W        W45935  13.386  21.260  14.865
73610W        W45936   5.593  27.952   2.309
73611W        W45937  39.961   5.043  11.095
73612W        W45938  11.836  18.788   3.932
73613W        W45939  21.050  22.724   0.943
73614W        W45940   8.669  13.839  14.212
73615W        W45941  13.772  22.920   2.385
73616W        W45942   8.254  27.884   1.869
73617W        W45943  14.197  17.200   4.063
73618W        W45944  42.588  16.774   3.451
73619W        W45945   7.581  44.560   1.018
73620W        W45946  12.146  21.240  14.729
73621W        W45947   1.236   8.441  12.654
73622W        W45948  24.119   8.784  14.290
73623W        W45949  22.674  19.735   1.242
73624W        W45950  20.125  15.408  11.429
73625W        W45951   4.868   3.152   4.754
73626W        W45952  12.236  34.050  14.012
73627W        W45953  42.333  27.534   0.352
73628W        W45954  10.421  19.883  12.454
73629W        W45955  28.440   2.803  13.912
73630W        W45956  43.421  44.057   2.811
73631W        W45957  37.118  37.854   3.083
73632W        W45958  18.816  41.942   0.206
73633W        W45959   8.857  40.774   4.815
73634W        W45960  38.809  43.144  11.855
73635W        W45961  41.285  39.312   4.837
73636W        W45962   3.273  35.765   0.710
73637W        W45963   4.809  27.537  12.282
73638W        W45964   9.182   9.180   4.237
73639W        W45965  32.170  29.647   2.120
73640W        W45966  16.278   6.098   4.562
73641W        W45967  42.694  37.516   4.514
73642W        W45968  37.357  14.844   0.988
73643W        W45969   8.068  28.737   5.132
73644W        W45970  28.944  28.522   4.152
73645W        W45971  32.176  13.103   0.331
73646W        W45972  14.373  24.775   3.752
73647W        W45973   8.883  44.694  12.498
73648W        W45974   3.013  32.437   4.653
73649W        W45975  23.668  25.698  13.492
73650W        W45976  25.400  20.105   0.393
73651W        W45977  22.371  17.711   4.752
73652W        W45978  39.113  30.398  11.471
73653W        W45979  32.031   7.985   3.204
73654W        W45980  22.721  20.243   1.048
73655W        W45981   9.074  19.194   2.854
73656W        W45982  40.442  15.597  14.377
73657W        W45983  36.853   1.341   0.948
73658W        W45984  24.169  42.512  13.431
73659W        W45985  41.917  38.803   0.493
73660W        W45986  15.773  18.263   1.362
73661W        W45987  26.097   7.380   1.479
73662W        W45988  33.996  32.372   0.691
73663W        W45989  12.501  33.868   3.208
73664W        W45990  15.266  23.802  10.609
73665W        W45991  11.072  14.194   0.260
73666W        W45992  18.080  19.562  12.529
73667W        W45993   7.442  31.452   0.033
73668W        W45994  17.465  34.299   0.524
73669W        W45995  21.860  43.286   3.438
73670W        W45996  11.612  26.102  14.930
73671W        W45997   5.384  21.328   2.595
73672W        W45998  35.848   0.614   2.337
73673W        W45999  17.521  10.935  11.220
73674W        W46000   6.150  29.080  13.153
73675W        W46001  38.271  10.383   3.341
73676W        W46002  16.434  30.238  13.801
73677W        W46003  36.674  32.847  11.461
73678W        W46004  18.174  16.368   1.877
73679W        W46005  11.313  19.779  13.913
73680W        W46006   8.138  21.612  12.670
73681W        W46007  18.870  38.459  14.266
73682W        W46008  35.882  34.304   4.196
73683W        W46009  39.964  42.396   3.552
73684W        W46010   2.267  42.345  13.450
73685W        W46011  29.099  18.273   1.815
73686W        W46012  25.516  35.658  10.887
73687W        W46013  20.659  24.148   1.323
73688W        W46014  44.842   5.933   4.021
73689W        W46015  27.627   6.665  14.861
73690W        W46016  40.315  41.450  14.467
73691W        W46017   5.273   5.907  11.586
73692W        W46018   8.171   3.817   2.381
73693W        W46019  32.898   0.318   4.374
73694W        W46020  14.390  34.349   9.817
73695W        W46021  29.889  42.931  12.038
73696W        W46022   2.133  31.449   1.229
73697W        W46023  10.176   2.457  14.825
73698W        W46024  21.486  11.701   0.497
73699W        W46025  14.977  34.554  11.963
73700W        W46026  30.436  38.315   4.425
73701W        W46027  44.354   2.395  12.453
73702W        W46028   2.857   8.122   3.782
73703W        W46029  11.411  44.525  12.118
73704W        W46030  38.725  36.957  12.138
73705W        W46031  20.774   5.161   2.404
73706W        W46032  10.170  20.566   2.331
73707W        W46033  26.958  20.632  12.021
73708W        W46034  21.188   3.364  10.257
73709W        W46035  42.493  10.664  10.657
73710W        W46036  41.726   8.171  11.544
73711W        W46037  14.196  21.461   4.048
73712W        W46038  41.072   6.943   3.716
73713W        W46039  34.114   2.442   2.366
73714W        W46040  21.788  13.720  14.400
73715W        W46041  22.076  38.162  13.375
73716W        W46042   2.822  21.620   5.038
73717W        W46043  35.431  44.855   2.821
73718W        W46044   1.897  21.223   9.679
73719W        W46045  44.151   2.024  12.761
73720W        W46046  26.834  27.639   4.061
73721W        W46047  18.559  40.092  14.770
73722W        W46048   4.243   9.784   3.341
73723W        W46049  35.981  21.120   2.586
73724W        W46050  39.503  18.507   0.696
73725W        W46051   1.320  41.006  10.492
73726W        W46052   7.871  21.735  13.134
73727W        W46053  44.530  20.169   3.261
73728W        W46054  28.673  18.279  13.325
73729W        W46055  17.557  23.676  11.227
73730W        W46056  33.493  15.612  14.989
73731W        W46057  11.574  34.630   2.483
73732W        W46058   7.830  30.756  11.010
73733W        W46059   8.666  40.533  12.947
73734W        W46060   5.243  33.069   1.908
73735W        W46061  34.382   4.786  13.710
73736W        W46062   4.336  35.117  13.221
73737W        W46063   8.874  20.803   0.445
73738W        W46064  32.080  40.936   2.580
73739W        W46065  13.152   4.646  11.677
73740W        W46066  37.341  28.116  12.150
73741W        W46067   2.530  23.080  11.708
73742W        W46068  35.895  38.184  12.986
73743W        W46069  25.034  29.876  11.660
73744W        W46070  20.289   1.454  13.748
73745W        W46071  16.328  12.342   1.682
73746W        W46072  44.967  35.571   2.029
73747W        W46073  10.442  14.993   3.598
73748W        W46074   6.846  14.721  14.474
73749W        W46075   4.338  19.659   2.114
73750W        W46076  37.584   5.834   4.562
73751W        W46077  17.989   1.528   0.881
73752W        W46078  41.812  39.262  12.648
73753W        W46079  23.031  44.309  12.403
73754W        W46080   6.217  34.800   3.817
73755W        W46081  18.808   1.101   2.004
73756W        W46082   6.246  24.130   1.160
73757W        W46083   6.386  14.797   4.852
73758W        W46084  16.510   6.898   4.144
73759W        W46085  41.036  44.708  12.049
73760W        W46086   1.241  10.393   4.834
73761W        W46087  31.705  39.296   3.280
73762W        W46088  12.788  36.757   2.322
73763W        W46089  29.500  16.830  14.732
73764W        W46090  15.394  28.099  11.526
73765W        W46091  28.338  37.578  11.364
73766W        W46092  12.198  27.896  13.414
73767W        W46093   8.135  37.102   0.897
73768W        W46094  39.566  33.773  13.391
73769W        W46095  38.356  22.436  12.447
73770W        W46096  27.501  44.048   1.926
73771W        W46097  35.990  16.068  13.039
73772W        W46098  39.530   6.320  10.794
73773W        W46099  44.420  35.610   3.680
73774W        W46100  41.781  15.773  12.836
73775W        W46101  20.755  23.773   0.439
73776W        W46102  16.222  37.439   2.813
73777W        W46103  35.179  13.333  13.341
73778W        W46104  21.526  30.068   4.217
73779W        W46105  41.762  44.580   3.078
73780W        W46106  16.182   9.411   4.525
73781W        W46107  32.309   0.173   2.668
73782W        W46108  33.060  13.771   0.035
73783W        W46109  14.098  30.794   1.177
73784W        W46110  36.508  11.246   0.838
73785W        W46111  35.042  17.708  11.548
73786W        W46112   3.745   3.724   3.338
73787W        W46113  37.748   2.698  12.435
73788W        W46114   7.905  15.679   3.946
73789W        W46115   0.190   8.384   4.775
73790W        W46116  43.456  21.539  12.772
73791W        W46117  33.558   1.373  11.503
73792W        W46118  29.817  32.424  14.260
73793W        W46119  24.421  35.889  12.526
73794W        W46120  10.049  13.108   0.725
73795W        W46121  20.832   3.746  10.384
73796W        W46122  21.380  28.901   3.122
73797W        W46123  17.415  21.859   1.763
73798W        W46124  39.080  13.884  14.940
73799W        W46125  28.873   2.458  10.763
73800W        W46126  29.555  44.129   1.697
73801W        W46127  34.887  23.215   0.987
73802W        W46128  16.250  25.171   3.826
73803W        W46129  35.335   8.834  11.589
73804W        W46130  26.376  11.577   1.899
73805W        W46131  18.295  24.541   2.711
73806W        W46132   3.983  43.989   4.951
73807W        W46133  21.654  27.160  13.891
73808W        W46134  38.446  31.562  11.075
73809W        W46135   3.781  23.934  10.665
73810W        W46136   5.283  27.185   1.911
73811W        W46137  40.746  40.371   1.434
73812W        W46138  26.329   1.397   0.283
73813W        W46139  23.229  17.806   2.318
73814W        W46140  35.647  36.518  14.381
73815W        W46141  30.007  38.049  11.170
73816W        W46142  42.037  14.617  12.643
73817W        W46143  37.613  42.947   1.922
73818W        W46144  31.658  28.982   1.910
73819W        W46145   7.403  28.395  13.997
73820W        W46146  34.867  40.316  12.447
73821W        W46147  34.191   4.255   0.009
73822W        W46148   8.711   9.812   3.739
73823W        W46149  20.204   6.794  10.637
73824W        W46150  21.485  27.708   1.822
73825W        W46151  25.553  26.992   2.788
73826W        W46152   5.799   0.250  10.940
73827W        W46153   2.403  16.685  11.889
73828W        W46154  28.919  44.888   2.419
73829W        W46155  13.215  12.338  11.751
73830W        W46156  44.386  10.894   0.923
73831W        W46157  16.819  19.544   0.918
73832W        W46158  26.066  33.880  13.516
73833W        W46159  21.185  15.815   1.361
73834W        W46160  15.681  32.115   4.504
73835W        W46161  42.058  21.510  12.805
73836W        W46162  39.988  38.332  10.877
73837W        W46163   6.441  26.439  14.423
73838W        W46164  11.423  18.882   4.216
73839W        W46165   6.010  19.747  12.886
73840W        W46166  11.341  14.825   2.325
73841W        W46167  28.111  44.998   3.398
73842W        W46168  21.494   7.308  10.712
73843W        W46169  39.025  38.339  14.343
73844W        W46170  43.383  34.652   2.573
73845W        W46171  16.320   4.641   2.173
73846W        W46172  10.234  38.963  13.486
73847W        W46173   7.103  42.952   1.926
73848W        W46174  26.557  12.722   4.123
73849W        W46175  38.796  13.222  12.730
73850W        W46176  22.038  23.680  11.939
73851W        W46177  18.789  20.312  13.395
73852W        W46178   4.247  41.143   1.170
73853W        W46179  13.149  13.351   4.761
73854W        W46180  29.551  25.373   4.611
73855W        W46181  15.088  31.600   0.951
73856W        W46182   1.364  12.734   1.728
73857W        W46183  41.013  22.709   0.870
73858W        W46184   9.890  16.267  11.392
73859W        W46185  19.328  37.060  10.657
73860W        W46186  30.326  14.226   0.439
73861W        W46187   5.094  34.889  12.622
73862W        W46188  13.131  26.723   5.424
73863W        W46189  33.044  35.776  13.765
73864W        W46190  29.652   9.823  11.996
73865W        W46191  41.437  40.578  13.802
73866W        W46192  10.255   7.801  13.373
73867W        W46193  40.126  43.412   1.393
73868W        W46194  38.588  37.339  11.049
73869W        W46195  17.998  26.792  12.513
73870W        W46196  19.381  22.527   1.845
73871W        W46197  44.552  27.046   0.494
73872W        W46198   0.847  13.648   2.719
73873W        W46199  32.683  29.795   4.670
73874W        W46200  24.574  23.520   0.259
73875W        W46201  13.943  26.777   9.730
73876W        W46202  41.574  12.240  10.493
73877W        W46203  28.972  26.011   3.974
73878W        W46204   7.805   4.463  12.062
73879W        W46205  43.923  18.866  13.889
73880W        W46206   9.797  23.548   3.921
73881W        W46207  13.721   3.390  13.204
73882W        W46208  38.564  37.448  13.895
73883W        W46209  40.214  12.342  11.105
73884W        W46210  35.023   8.259  11.193
73885W        W46211  27.985  41.369   2.376
73886W        W46212  36.725  34.123   2.359
73887W        W46213   5.486   0.208   4.619
73888W        W46214  17.116  14.443  10.698
73889W        W46215  26.242  13.838  11.108
73890W        W46216  23.560  17.028   0.089
73891W        W46217  33.440   8.190   0.828
73892W        W46218   1.920   3.971   9.971
73893W        W46219  40.432  11.301   2.377
73894W        W46220  22.205  41.585  12.416
73895W        W46221  20.165   2.986  13.823
73896W        W46222  15.595  43.485  14.810
73897W        W46223  39.071  23.829   3.246
73898W        W46224   7.918  19.450  12.936
73899W        W46225  41.005  32.024   3.985
73900W        W46226  18.566  18.807   0.470
73901W        W46227  12.055  34.417   4.453
73902W        W46228   7.223  17.302   4.151
73903W        W46229  30.515   8.227  10.669
73904W        W46230  44.435  41.073   4.124
73905W        W46231  42.360  36.921  12.152
73906W        W46232  23.631  13.629   4.137
73907W        W46233  18.627  24.956   1.762
73908W        W46234  21.284  31.710  10.835
73909W        W46235  42.959  20.695   4.622
73910W        W46236  37.066  16.211   0.299
73911W        W46237   8.122  14.654  14.982
73912W        W46238   5.734   8.582  11.619
73913W        W46239   0.441  28.437   4.419
73914W        W46240  25.480  17.110  10.568
73915W        W46241   5.832   0.948   0.220
73916W        W46242  21.923   1.508  12.084
73917W        W46243  24.283   3.439  13.085
73918W        W46244  26.507  39.870   2.667
73919W        W46245  12.242  32.894  10.386
73920W        W46246  18.594   4.910  11.684
73921W        W46247  18.723  13.952  14.071
73922W        W46248  41.525   2.811   0.730
73923W        W46249   6.884  27.861  12.612
73924W        W46250  38.717  43.537  11.507
73925W        W46251  23.601  39.569  12.937
73926W        W46252  36.901  25.187   1.749
73927W        W46253  35.484  28.234   2.892
73928W        W46254  24.213   1.938   4.426
73929W        W46255  20.662  41.358  13.997
73930W        W46256  41.180   9.346   2.877
73931W        W46257  13.258  36.873   4.626
73932W        W46258   1.270  34.684  12.385
73933W        W46259  40.519  43.304  10.963
73934W        W46260  31.064   6.976   4.473
73935W        W46261  36.061  23.773  12.495
73936W        W46262  28.756  23.205  11.941
73937W        W46263  42.767   2.942  11.955
73938W        W46264  36.525  34.246  11.457
73939W        W46265  33.098   4.859   2.101
73940W        W46266   5.263  22.437   3.210
73941W        W46267  19.469  37.533  12.243
73942W        W46268  39.896  29.979  13.842
73943W        W46269  41.714   3.083  14.783
73944W        W46270  41.159   8.737   1.769
73945W        W46271   9.197  14.038   3.295
73946W        W46272   2.658   9.696  11.942
73947W        W46273  34.386  37.305   2.793
73948W        W46274  44.839  41.761  12.472
73949W        W46275   7.411  20.667   0.294
73950W        W46276   8.363  39.811   0.071
73951W        W46277  34.972   6.233   0.493
73952W        W46278  29.967  31.508   1.610
73953W        W46279  31.915  34.616  11.242
73954W        W46280   1.564  22.231   4.459
73955W        W46281  27.236   6.404  13.126
73956W        W46282  39.473   2.129  13.674
73957W        W46283  25.261  41.841  12.870
73958W        W46284  20.999  40.207   0.913
73959W        W46285  14.706  34.026  14.535
73960W        W46286  22.898   6.939  12.034
73961W        W46287  16.741  34.894  13.472
73962W        W46288  13.149  30.210   0.325
73963W        W46289  29.109  38.619   0.280
73964W        W46290  35.041  28.802  12.965
73965W        W46291  26.531   1.260  11.970
73966W        W46292  14.777  13.697  12.893
73967W        W46293   2.651  28.896  12.989
73968W        W46294  13.152  27.340   2.432
73969W        W46295   4.690   5.220   1.235
73970W        W46296  11.713  16.813  13.579
73971W        W46297  12.206  30.339  10.724
73972W        W46298   6.455  14.352  12.895
73973W        W46299  20.566   8.660   2.134
73974W        W46300  11.828  19.881   4.855
73975W        W46301  13.440  25.858   3.892
73976W        W46302  43.447  41.495   2.844
73977W        W46303  40.346  16.108  13.286
73978W        W46304   2.658  11.622  11.000
73979W        W46305  22.559  25.220  13.970
73980W        W46306  33.873  30.077  13.634
73981W        W46307  36.951  12.601   1.170
73982W        W46308  14.300  39.840   2.942
73983W        W46309   9.044   8.769   4.528
73984W        W46310   6.945  26.555  11.731
73985W        W46311  15.039  32.883   0.880
73986W        W46312  21.804  14.189   3.736
73987W        W46313  43.724   7.425   3.285
73988W        W46314   2.794  35.968  12.612
73989W        W46315  32.423  23.404  14.724
73990W        W46316  44.300  38.635  12.829
73991W        W46317  22.656  30.375   4.144
73992W        W46318  32.370  34.891  11.351
73993W        W46319  33.147  21.492  10.969
73994W        W46320  22.366  18.694  13.445
73995W        W46321  39.009  20.154  12.340
73996W        W46322   2.453  34.239   0.795
73997W        W46323   5.782  40.287   2.299
73998W        W46324  17.343  15.177   2.778
73999W        W46325  39.455  10.757  14.903
74000W        W46326  15.418  12.338   2.327
74001W        W46327  22.360  24.229  13.808
74002W        W46328  12.589   5.934   1.119
74003W        W46329   3.777  26.575   2.468
74004W        W46330  41.912  15.689  13.329
74005W        W46331  43.512  21.625   0.591
74006W        W46332  40.027  27.159  14.005
74007W        W46333  36.816  34.305   3.059
74008W        W46334   1.927  19.099   4.828
74009W        W46335  31.453  41.321  11.917
74010W        W46336   4.931   9.785  12.877
74011W        W46337  38.430  17.489   3.012
74012W        W46338   6.413  19.113  12.737
74013W        W46339  12.447   8.133  13.400
74014W        W46340  35.378  40.830  14.443
74015W        W46341  42.354   4.336  14.072
74016W        W46342  33.324   5.753  14.402
74017W        W46343  22.234  26.479   4.839
74018W        W46344  32.372  37.887   0.193
74019W        W46345  43.831  21.289   0.873
74020W        W46346  35.399  36.087   2.737
74021W        W46347  32.916  42.918   1.184
74022W        W46348  24.742  34.407  10.930
74023W        W46349  38.775   3.672  13.409
74024W        W46350  22.552   7.822  12.338
74025W        W46351  26.429  28.882   4.217
74026W        W46352  29.151   8.481   0.245
74027W        W46353   3.859  15.210  10.344
74028W        W46354  19.731  42.359  13.484
74029W        W46355   2.218  32.504  12.912
74030W        W46356   4.345  40.240  14.867
74031W        W46357   2.449  20.743   3.155
74032W        W46358  44.608  39.922   3.710
74033W        W46359  21.650   6.148   4.422
74034W        W46360  23.887  36.647   4.021
74035W        W46361  15.107  36.804  14.686
74036W        W46362  25.863  22.667   0.282
74037W        W46363  28.555  33.896  12.147
74038W        W46364  10.244   5.886   1.317
74039W        W46365   7.687  28.508   3.375
74040W        W46366   6.713  24.571   3.237
74041W        W46367  30.728  38.065   2.412
74042W        W46368  41.307  34.445   4.012
74043W        W46369  15.220  39.797  13.130
74044W        W46370  27.698   6.634  12.939
74045W        W46371  17.656   4.146   4.819
74046W        W46372   8.325  12.554   2.502
74047W        W46373  12.541  19.485   1.093
74048W        W46374  17.857   2.639   0.060
74049W        W46375  20.265   8.801  11.035
74050W        W46376  21.021  23.504  11.206
74051W        W46377  23.537  37.388  12.915
74052W        W46378   7.592   3.424  11.508
74053W        W46379   5.821   5.762  12.657
74054W        W46380   6.127  36.078  12.521
74055W        W46381  12.209  25.554  11.904
74056W        W46382  40.891  16.414   0.393
74057W        W46383  24.032  22.691  13.609
74058W        W46384   0.984  18.719  12.352
74059W        W46385  22.072  20.165   1.727
74060W        W46386  33.872  19.736   4.196
74061W        W46387  43.041  38.009  12.921
74062W        W46388  24.559   1.706   2.607
74063W        W46389  34.580  39.419  13.885
74064W        W46390  39.464  17.692   1.936
74065W        W46391  34.611  31.023   2.327
74066W        W46392   9.522  38.350  13.747
74067W        W46393  22.800  29.157   1.221
74068W        W46394  17.501  14.108  10.757
74069W        W46395   1.543  13.818   1.769
74070W        W46396  15.270  24.714  14.945
74071W        W46397  35.581  40.835   3.206
74072W        W46398  38.396  31.165   3.776
74073W        W46399  19.296  22.777   0.719
74074W        W46400  23.216  33.690  10.131
74075W        W46401  10.824  35.830  12.869
74076W        W46402  35.520  43.200   1.923
74077W        W46403  12.943   1.740   2.245
74078W        W46404  12.287  42.919  11.228
74079W        W46405  27.903   3.703  13.673
74080W        W46406  13.678  39.184  13.309
74081W        W46407  22.494  25.540   1.459
74082W        W46408  36.787  33.721   9.759
74083W        W46409  17.253  23.632   4.870
74084W        W46410  19.109  43.351  10.561
74085W        W46411  36.870  37.503   0.841
74086W        W46412  38.438  12.458  13.744
74087W        W46413  31.545  34.000   4.534
74088W        W46414  20.716  40.415   3.818
74089W        W46415   7.400  26.078   1.250
74090W        W46416  26.922  21.136   2.137
74091W        W46417  22.873  14.872   3.121
74092W        W46418  12.639   5.206  13.992
74093W        W46419  21.615  10.712  13.783
74094W        W46420   0.995  31.026  14.904
74095W        W46421  33.575  13.728   1.232
74096W        W46422  37.011  22.832   0.075
74097W        W46423   0.833  13.665  12.685
74098W        W46424  38.981  43.286   2.364
74099W        W46425   7.177  34.861   3.313
74100W        W46426   0.358  24.188  14.281
74101W        W46427  30.052  38.067  12.909
74102W        W46428  22.162  35.247  12.396
74103W        W46429  17.271  42.983  10.261
74104W        W46430  25.014  22.640   4.484
74105W        W46431   3.316  29.398   0.933
74106W        W46432  18.107   9.426  12.407
74107W        W46433  17.012   7.983   0.427
74108W        W46434  19.466   5.785   1.554
74109W        W46435  23.284  18.658   2.809
74110W        W46436  40.932  39.076  14.884
74111W        W46437  30.321  32.507  11.407
74112W        W46438  15.151  43.492  10.364
74113W        W46439  31.492  31.959  12.193
74114W        W46440  25.278  17.470   3.729
74115W        W46441  37.337  30.849  14.172
74116W        W46442  37.081  22.564   0.946
74117W        W46443  25.854  11.883   2.660
74118W        W46444  31.623   6.638  11.561
74119W        W46445  34.810  32.143  14.000
74120W        W46446  40.032  10.613   1.694
74121W        W46447  34.310  17.033  12.525
74122W        W46448  39.308  16.195   2.762
74123W        W46449   3.368   2.372  13.867
74124W        W46450   2.953  30.968  11.409
74125W        W46451  16.266  19.524  11.980
74126W        W46452  24.731  37.094   4.909
74127W        W46453  26.013  16.660   3.783
74128W        W46454  13.295  37.379  14.972
74129W        W46455   3.421  31.698   5.263
74130W        W46456  19.807   7.666  13.428
74131W        W46457   0.775   4.236   0.893
74132W        W46458  39.485  12.635   3.313
74133W        W46459  31.366  23.339   1.467
74134W        W46460   9.147  42.741  14.781
74135W        W46461  10.411  13.209  13.455
74136W        W46462  18.079  43.176  11.723
74137W        W46463   4.718  10.836   1.963
74138W        W46464  33.834  15.154   1.748
74139W        W46465   3.039  31.554   0.309
74140W        W46466  14.675  30.097  13.813
74141W        W46467  11.187  39.015   2.351
74142W        W46468  43.489  26.683   1.293
74143W        W46469  12.213  10.922  14.891
74144W        W46470  39.593  38.138   2.644
74145W        W46471  41.847  21.232  13.922
74146W        W46472  28.659  35.212  11.044
74147W        W46473  37.158  22.152   5.117
74148W        W46474  16.241  28.434  13.976
74149W        W46475  32.570  43.742   0.354
74150W        W46476  29.262  36.462  14.830
74151W        W46477  36.578  11.450   1.319
74152W        W46478  16.962  16.117   2.709
74153W        W46479  36.271   5.944  11.105
74154W        W46480  13.779  20.028   3.788
74155W        W46481  24.185  25.972   1.929
74156W        W46482  17.500   4.299   3.354
74157W        W46483  42.301  26.263  12.486
74158W        W46484  42.016  18.558   4.490
74159W        W46485  25.513  37.003  14.514
74160W        W46486   8.951  27.434   4.699
74161W        W46487  28.716  13.878   3.701
74162W        W46488   6.311  16.675   0.364
74163W        W46489  40.271  43.206   4.182
74164W        W46490   2.243  21.668   1.614
74165W        W46491  18.020   2.310  10.632
74166W        W46492  42.561  26.585   4.849
74167W        W46493  41.240   0.336  11.629
74168W        W46494  10.432  33.341   1.075
74169W        W46495  11.575  25.025   3.943
74170W        W46496  20.289  26.855  12.623
74171W        W46497  10.830   0.317   3.482
74172W        W46498   2.970  22.637  12.376
74173W        W46499  10.278  16.273   1.928
74174W        W46500  34.915  19.657   3.331
74175W        W46501  35.711   3.860  12.040
74176W        W46502  26.903  15.763  11.486
74177W        W46503  31.913   7.807  14.609
74178W        W46504  29.297  30.059  12.798
74179W        W46505  29.430   9.331  14.931
74180W        W46506  34.391  25.712  14.352
74181W        W46507  41.429  44.304   0.727
74182W        W46508   2.176  17.562  12.458
74183W        W46509   4.806  19.848   3.323
74184W        W46510  41.743  19.056  14.478
74185W        W46511  23.509   3.438   4.678
74186W        W46512  39.401  30.459  12.805
74187W        W46513  10.284  17.454   5.165
74188W        W46514  15.739  10.214   0.850
74189W        W46515   1.967  42.757  10.840
74190W        W46516  10.687  38.545   0.024
74191W        W46517  31.721  43.332  12.063
74192W        W46518   4.755  35.418   2.910
74193W        W46519  42.457   3.475  10.681
74194W        W46520   2.753  20.735  10.666
74195W        W46521  30.897  17.745  14.881
74196W        W46522  22.742  36.447  14.730
74197W        W46523  43.953   3.742  14.049
74198W        W46524  28.613  18.742   1.028
74199W        W46525  35.137  10.187   9.990
74200W        W46526  43.372  27.052  14.277
74201W        W46527   7.440  40.172  14.398
74202W        W46528   4.809  37.492  14.482
74203W        W46529  40.515  39.890   0.784
74204W        W46530  21.497   2.472  12.058
74205W        W46531  40.018  15.870   4.547
74206W        W46532   8.380   3.897  13.990
74207W        W46533  30.489  30.544   2.966
74208W        W46534  18.258  35.565   4.642
74209W        W46535  38.137  16.326  13.424
74210W        W46536  32.902  11.610   0.253
74211W        W46537  25.031  19.913  14.005
74212W        W46538  44.304  34.674  14.556
74213W        W46539   1.744  22.066  13.532
74214W        W46540  13.300  29.966  13.855
74215W        W46541   5.825  28.737   3.113
74216W        W46542  33.112  36.043   3.727
74217W        W46543  37.778  40.233   0.871
74218W        W46544  31.034  25.213   4.904
74219W        W46545  11.555  27.403  11.131
74220W        W46546  30.509  39.849   2.213
74221W        W46547   5.917  27.514  14.701
74222W        W46548  15.354  14.746   3.156
74223W        W46549   4.564  41.827   4.132
74224W        W46550  11.341  14.687  12.857
74225W        W46551  28.313  25.177   2.574
74226W        W46552  16.790  11.642   2.152
74227W        W46553  16.111  30.633  13.763
74228W        W46554  21.736  18.842  14.002
74229W        W46555  36.722  12.244  10.537
74230W        W46556   3.674   4.986  14.518
74231W        W46557  16.728   7.878  11.134
74232W        W46558  13.391  43.740  13.341
74233W        W46559  36.491  28.268  10.632
74234W        W46560  14.661  14.810  12.050
74235W        W46561  19.932  13.144   3.101
74236W        W46562   1.498  25.305  14.893
74237W        W46563  38.810  39.557   3.159
74238W        W46564   0.583  37.609   2.289
74239W        W46565   3.882  13.640   1.771
74240W        W46566   5.389  44.984   3.669
74241W        W46567  43.718  13.177  10.709
74242W        W46568  17.062  28.025   3.584
74243W        W46569  25.140  15.070  10.714
74244W        W46570  36.380  27.997  14.914
74245W        W46571  23.270  18.506   4.235
74246W        W46572  41.992   5.230   0.767
74247W        W46573  15.775  22.591   1.503
74248W        W46574  11.380   3.895  10.813
74249W        W46575  27.673  31.911   2.762
74250W        W46576   8.911  25.529  11.947
74251W        W46577  24.809  29.987  14.558
74252W        W46578  28.487  36.260   1.677
74253W        W46579   6.964   6.356   3.203
74254W        W46580  44.207  33.883   1.786
74255W        W46581  44.376  16.214  13.110
74256W        W46582   3.017  15.323  11.563
74257W        W46583  12.329   5.158  14.400
74258W        W46584  25.970  42.507   4.672
74259W        W46585  44.934  18.727  13.327
74260W        W46586   2.276   4.899  13.287
74261W        W46587  35.434  36.926  10.801
74262W        W46588  38.485  19.556   4.627
74263W        W46589  26.820  18.703  12.923
74264W        W46590  18.258  14.596   4.754
74265W        W46591   4.410  29.794   3.009
74266W        W46592  39.933  32.886  13.731
74267W        W46593  28.030   5.539   2.262
74268W        W46594  36.667  39.254  14.356
74269W        W46595  44.724  22.074  13.757
74270W        W46596  16.232  27.502   2.770
74271W        W46597  41.432  35.827  11.072
74272W        W46598  43.352  20.505  12.415
74273W        W46599  42.077  40.617   4.378
74274W        W46600  10.332  35.505  14.085
74275W        W46601  13.074  17.571  10.861
74276W        W46602  26.711  31.593   4.162
74277W        W46603  41.481  35.385  13.820
74278W        W46604   8.962  33.584   0.234
74279W        W46605   1.703  16.108   1.126
74280W        W46606  36.044  24.964   1.349
74281W        W46607  44.811   4.174   3.475
74282W        W46608  10.229  36.549   0.803
74283W        W46609   1.024  19.269  10.600
74284W        W46610  32.285  28.734  14.954
74285W        W46611  40.511   6.324   0.420
74286W        W46612  27.876  41.295  12.820
74287W        W46613   3.823  34.673  10.184
74288W        W46614   8.802  13.314   4.392
74289W        W46615  28.595  10.396   0.736
74290W        W46616   1.167  44.957  13.728
74291W        W46617  42.264  44.719  12.532
74292W        W46618  28.217  36.845  12.845
74293W        W46619  33.926   8.694   4.610
74294W        W46620  37.324  19.893  11.616
74295W        W46621  35.437  27.255   3.350
74296W        W46622  23.795  40.396  13.323
74297W        W46623   8.818  13.303   1.770
74298W        W46624  33.073  44.275  12.930
74299W        W46625  19.996  11.910  11.258
74300W        W46626   4.480  11.199   5.054
74301W        W46627  43.848  28.009   4.570
74302W        W46628   8.585   4.195  14.377
74303W        W46629  32.956  33.369  11.320
74304W        W46630  38.138   4.395  14.333
74305W        W46631   5.326   7.924   2.356
74306W        W46632  19.676  32.379   4.418
74307W        W46633   1.302   3.962   4.710
74308W        W46634  27.283   1.015  14.338
74309W        W46635  26.895  24.826   1.484
74310W        W46636   0.064  27.143  11.155
74311W        W46637  30.978  13.161   0.775
74312W        W46638   4.035  10.227   5.007
74313W        W46639  28.047  29.245  12.597
74314W        W46640  18.111  44.873   0.370
74315W        W46641  22.087  17.780  14.494
74316W        W46642  43.570  11.918   3.141
74317W        W46643  37.382  25.911  12.030
74318W        W46644  26.961   9.176   3.109
74319W        W46645  41.893   4.250  12.368
74320W        W46646  12.120  17.568   3.696
74321W        W46647  35.862  37.607  12.877
74322W        W46648  19.158  18.016   1.193
74323W        W46649  32.571   9.476  12.652
74324W        W46650  31.510   5.318  11.708
74325W        W46651  37.048  22.037   2.395
74326W        W46652  15.726   3.492   1.047
74327W        W46653  38.628  14.650  11.433
74328W        W46654  14.981   4.803   1.308
74329W        W46655  15.834  33.117  10.451
74330W        W46656  13.149  11.090   2.717
74331W        W46657  16.745  41.264   3.731
74332W        W46658  11.407  20.282  11.165
74333W        W46659  13.847  28.938  14.053
74334W        W46660   4.908  22.061   0.250
74335W        W46661  30.286  18.303  14.687
74336W        W46662   4.840  10.003   1.593
74337W        W46663   7.574  43.853   4.359
74338W        W46664  29.667   3.966  12.042
74339W        W46665  26.561  25.957   5.436
74340W        W46666  28.205   1.789  13.354
74341W        W46667  10.576  28.712  12.179
74342W        W46668   3.987  10.155  12.098
74343W        W46669   8.642  16.102   2.281
74344W        W46670  34.904   7.368  10.302
74345W        W46671  37.782   9.069   1.587
74346W        W46672   3.440  35.835   0.208
74347W        W46673  30.053  14.358   4.662
74348W        W46674  20.159  42.523   3.185
74349W        W46675   3.455  14.157   1.346
74350W        W46676  32.119  13.685   2.374
74351W        W46677   2.504  42.344   1.841
74352W        W46678  15.346  33.056  14.880
74353W        W46679  22.603  14.897  14.106
74354W        W46680   4.302  28.200   1.403
74355W        W46681  27.433  21.108   2.200
74356W        W46682  15.469   0.914   4.981
74357W        W46683  11.630  44.301   2.726
74358W        W46684  19.182  40.062   2.284
74359W        W46685  27.272  15.488  12.862
74360W        W46686   9.944  20.519   1.858
74361W        W46687  32.822  18.204   2.755
74362W        W46688  30.629  23.150  13.467
74363W        W46689  15.861  16.075   3.145
74364W        W46690  24.820  15.773  12.855
74365W        W46691   7.098  39.596   2.406
74366W        W46692   2.243  31.415   4.169
74367W        W46693  36.915  26.688   1.739
74368W        W46694  28.948  25.375   1.041
74369W        W46695  15.721   3.716   4.482
74370W        W46696  15.272  18.279   4.318
74371W        W46697  36.071  42.333   3.720
74372W        W46698  27.965  31.421   2.894
74373W        W46699   2.445   9.908   2.654
74374W        W46700  31.713  36.581   3.267
74375W        W46701   1.288  23.417  14.514
74376W        W46702  41.545  12.060   1.280
74377W        W46703  35.747  39.774   4.843
74378W        W46704  12.002  27.628  11.993
74379W        W46705  32.508  14.465  14.902
74380W        W46706  12.712  21.542  11.484
74381W        W46707  44.494  23.759  13.939
74382W        W46708  31.996  21.042  11.488
74383W        W46709  41.144   5.323   3.597
74384W        W46710   5.863  31.486  11.557
74385W        W46711   6.696  10.251   0.354
74386W        W46712  31.301  30.509   3.256
74387W        W46713  26.181   6.030  12.866
74388W        W46714  36.657   4.815   3.253
74389W        W46715  12.266  34.023  11.462
74390W        W46716  10.434  29.879   3.355
74391W        W46717  23.923  25.578  13.933
74392W        W46718  14.715   6.997   0.279
74393W        W46719  43.295  41.758   0.826
74394W        W46720  25.992   7.255   0.440
74395W        W46721  39.313  15.172  13.003
74396W        W46722  21.893   9.113  12.034
74397W        W46723  26.430  22.317   0.800
74398W        W46724  23.169  21.538  12.047
74399W        W46725  17.334  17.576   0.848
74400W        W46726  30.904  40.220  14.884
74401W        W46727  42.143  24.602  14.930
74402W        W46728   5.670  24.205  10.757
74403W        W46729  22.738  35.128  13.874
74404W        W46730  42.736  17.224   2.362
74405W        W46731  20.878   2.245   2.274
74406W        W46732  27.506  35.866  12.619
74407W        W46733  33.805  36.904   0.869
74408W        W46734   1.431  11.275  12.961
74409W        W46735  31.668  26.197   1.371
74410W        W46736   6.856  14.275  10.662
74411W        W46737  43.450  28.116   0.279
74412W        W46738  14.291   8.688  12.270
74413W        W46739  43.831   2.447  12.638
74414W        W46740  14.335  38.617   2.322
74415W        W46741  24.771  39.636  11.103
74416W        W46742  31.210  22.123   4.716
74417W        W46743  31.889  16.122  11.158
74418W        W46744   7.728  28.234  10.239
74419W        W46745  42.278  32.477   3.626
74420W        W46746  22.588  17.076   1.170
74421W        W46747   6.883  23.499  13.403
74422W        W46748  17.657  27.607   0.407
74423W        W46749  35.631  35.928   3.322
74424W        W46750  38.447  17.121  12.197
74425W        W46751   3.775   5.808   2.469
74426W        W46752  12.909  28.023  14.825
74427W        W46753  19.539   6.962   1.747
74428W        W46754  40.488  24.739   1.730
74429W        W46755  23.414  34.346  12.416
74430W        W46756   7.589  43.288  11.948
74431W        W46757  44.214  19.281   2.821
74432W        W46758  33.857  22.263   0.889
74433W        W46759   8.666  33.815  14.876
74434W        W46760  24.905  10.284  11.541
74435W        W46761  12.352  14.366  12.141
74436W        W46762   0.873  29.189  12.702
74437W        W46763  40.610  40.766   1.767
74438W        W46764  40.870  27.082  14.386
74439W        W46765  17.609  37.888  11.628
74440W        W46766  25.726  14.141   0.903
74441W        W46767  12.844  12.721   1.516
74442W        W46768  16.310  11.659   2.383
74443W        W46769  21.255  38.447  12.889
74444W        W46770   8.811   2.829   0.921
74445W        W46771  21.729  10.762   4.578
74446W        W46772  29.982  12.839   4.234
74447W        W46773  28.430  20.766  13.812
74448W        W46774  23.449  31.207  14.440
74449W        W46775  13.591  17.862   4.694
74450W        W46776  14.547  35.207   1.948
74451W        W46777   7.724  11.539  13.354
74452W        W46778  26.256  20.331   3.660
74453W        W46779   7.138  34.926  11.685
74454W        W46780  37.442  42.710  14.108
74455W        W46781  23.717  19.831  13.886
74456W        W46782   9.137  24.292   0.749
74457W        W46783  10.712  42.724   4.125
74458W        W46784   6.762  16.579  10.986
74459W        W46785  39.018  31.676  11.080
74460W        W46786  16.803  10.208   0.731
74461W        W46787   6.312   3.185  14.269
74462W        W46788  28.479   1.952  11.583
74463W        W46789   9.812   6.239  11.656
74464W        W46790  28.445   6.330  11.484
74465W        W46791  18.289  21.060   2.740
74466W        W46792  40.886  28.516  13.467
74467W        W46793  20.722  32.557   3.659
74468W        W46794  22.746  14.193  10.693
74469W        W46795  29.988  13.670   0.859
74470W        W46796  23.661  14.838  12.012
74471W        W46797  11.721  10.822   0.763
74472W        W46798  27.939  18.557   2.795
74473W        W46799  35.619  29.066   4.134
74474W        W46800  23.006  43.767  11.679
74475W        W46801  10.813  18.139   4.853
74476W        W46802  26.639  34.886   0.451
74477W        W46803   2.770  25.858   3.712
74478W        W46804  20.926  27.821  11.123
74479W        W46805   8.619  43.899   2.644
74480W        W46806  44.403  44.805  11.941
74481W        W46807  36.005  40.060   2.888
74482W        W46808  18.206  19.811  11.226
74483W        W46809   6.287   6.855  14.324
74484W        W46810  22.151  12.117   3.064
74485W        W46811  35.394   6.795   0.650
74486W        W46812  13.054  17.273   5.086
74487W        W46813  44.433  28.139   3.828
74488W        W46814  13.539   6.887   4.266
74489W        W46815  12.315  12.208  11.891
74490W        W46816  16.696  44.388   4.231
74491W        W46817  17.028  21.707  10.890
74492W        W46818  19.784  32.014  13.358
74493W        W46819  28.517  29.048  12.402
74494W        W46820  16.776  18.569  14.734
74495W        W46821  44.413  32.631   4.668
74496W        W46822   4.384   3.859  13.473
74497W        W46823  40.361  29.760  13.615
74498W        W46824  37.822  23.940  11.119
74499W        W46825  29.020  37.462   0.786
74500W        W46826  18.712  23.250   4.447
74501W        W46827  30.359  28.512   4.030
74502W        W46828   9.841   6.661  12.580
74503W        W46829  12.788   7.895   4.172
74504W        W46830  41.976  24.658   2.238
74505W        W46831  22.604  37.407   4.482
74506W        W46832   9.192   5.260   2.776
74507W        W46833  18.547  12.238   1.319
74508W        W46834  42.233  38.892   4.900
74509W        W46835   3.708  15.197  13.835
74510W        W46836  24.380  14.392   3.196
74511W        W46837   4.398  13.423  13.974
74512W        W46838   3.512  37.347  13.000
74513W        W46839  28.161  27.159  10.813
74514W        W46840  34.695  19.184   0.791
74515W        W46841  19.228  14.164   3.688
74516W        W46842   3.921  42.786  11.044
74517W        W46843  22.049  23.591   3.248
74518W        W46844  16.258  41.402   3.387
74519W        W46845  36.032  30.385   4.398
74520W        W46846   4.252  20.678   4.179
74521W        W46847   9.268   6.627   3.381
74522W        W46848  26.485  24.978   2.221
74523W        W46849  11.131  19.993   1.399
74524W        W46850  41.939  18.804  14.967
74525W        W46851  16.748  37.128   1.141
74526W        W46852  39.917  27.147  11.457
74527W        W46853   6.728  36.664   0.826
74528W        W46854  44.798  33.642   4.203
74529W        W46855  43.456  32.962   1.157
74530W        W46856  27.014  39.024   4.625
74531W        W46857  26.033  28.356  14.968
74532W        W46858  22.264  21.519  12.876
74533W        W46859  36.716   0.476   2.555
74534W        W46860  16.236  14.295   2.435
74535W        W46861  12.549  34.983  14.532
74536W        W46862  26.457   6.372  10.380
74537W        W46863  24.178  18.087   2.315
74538W        W46864  15.843  17.667  11.864
74539W        W46865  41.205  35.948   0.887
74540W        W46866  42.986   0.063   0.321
74541W        W46867   1.141  20.264   2.660
74542W        W46868  23.670  12.932  10.687
74543W        W46869  41.961   3.449   4.292
74544W        W46870   2.685  36.388  11.138
74545W        W46871  33.408  31.474  12.211
74546W        W46872  10.651  18.828   3.720
74547W        W46873   8.510  19.785   4.476
74548W        W46874  40.789  34.500  10.892
74549W        W46875   7.665  42.844  11.688
74550W        W46876  22.489  10.969   2.310
74551W        W46877  11.274   8.920  11.014
74552W        W46878  21.812  34.404  11.563
74553W        W46879  17.271   4.733  13.790
74554W        W46880  41.492  17.725   0.918
74555W        W46881  30.165  26.187   3.821
74556W        W46882  17.635  10.229   3.303
74557W        W46883  27.244   8.455  14.734
74558W        W46884  21.586  13.667  12.368
74559W        W46885  28.116  31.377  12.454
74560W        W46886  42.908   9.932  13.604
74561W        W46887  37.435  17.988  11.949
74562W        W46888   9.781  34.583  11.075
74563W        W46889  35.965  14.782  12.075
74564W        W46890   9.404  17.704  11.908
74565W        W46891  24.204  41.913   0.134
74566W        W46892  40.956  38.056   4.432
74567W        W46893  40.350  40.033   1.416
74568W        W46894  19.025   6.797   4.267
74569W        W46895  43.369  20.291  10.700
74570W        W46896  38.890   0.407   0.509
74571W        W46897  43.561   6.240  14.633
74572W        W46898  32.069   3.132   3.638
74573W        W46899   6.784  42.600   4.359
74574W        W46900   0.267   0.987  11.127
74575W        W46901  38.277  43.997   4.047
74576W        W46902  33.677  24.682   4.492
74577W        W46903  27.240  32.653   1.395
74578W        W46904  31.090   8.447   1.711
74579W        W46905  37.476  11.776   3.101
74580W        W46906  40.371  24.005   2.947
74581W        W46907   0.667  44.980  11.705
74582W        W46908   3.354   1.253  12.029
74583W        W46909   4.879  41.005   3.208
74584W        W46910   5.219   5.762  14.395
74585W        W46911   6.286  28.920   0.955
74586W        W46912  23.901  13.481   0.832
74587W        W46913  24.771  37.843   3.334
74588W        W46914   6.962  29.010  10.693
74589W        W46915   2.318  40.633  12.193
74590W        W46916  44.090   6.044   0.860
74591W        W46917  37.514  32.369  12.004
74592W        W46918  17.765  39.602   2.639
74593W        W46919   9.186   1.807  13.412
74594W        W46920  13.628  41.414  12.127
74595W        W46921   7.138  13.130   4.485
74596W        W46922  28.607  27.672  14.267
74597W        W46923   7.792  41.947  11.170
74598W        W46924   3.949  44.618  10.762
74599W        W46925  34.993  41.886   4.165
74600W        W46926  23.532  25.970  12.968
74601W        W46927   9.697  29.474  13.045
74602W        W46928  16.337   0.396  12.478
74603W        W46929  40.741   8.265   3.827
74604W        W46930  12.320  39.287  11.229
74605W        W46931   5.391  22.087   4.322
74606W        W46932   1.965  10.631  11.021
74607W        W46933  41.831   9.476   3.285
74608W        W46934   5.140  27.704   2.052
74609W        W46935  25.980  31.666  11.615
74610W        W46936  34.003   9.156  13.815
74611W        W46937  15.112  13.661  13.312
74612W        W46938  17.817  14.133  13.862
74613W        W46939  25.500  40.461  11.986
74614W        W46940  44.740  41.900   1.908
74615W        W46941   2.529  18.365   4.262
74616W        W46942  44.035  26.580  12.332
74617W        W46943  32.328  11.572  12.039
74618W        W46944  44.679  37.378   0.489
74619W        W46945  38.374   5.790   1.014
74620W        W46946  14.784  10.831  11.482
74621W        W46947  10.177   9.407   3.178
74622W        W46948  25.009   5.792  13.417
74623W        W46949  26.244  39.134   4.140
74624W        W46950  19.848  20.105  13.861
74625W        W46951   1.302  43.344  14.773
74626W        W46952   9.883   6.799   0.040
74627W        W46953  30.015  42.428  14.541
74628W        W46954  11.363  38.501   2.299
74629W        W46955  15.100   7.357  13.368
74630W        W46956  39.244  37.287  13.398
74631W        W46957  39.816   2.746  14.231
74632W        W46958   5.632   3.944  14.846
74633W        W46959   7.881  16.800   2.408
74634W        W46960  24.399  17.805  11.473
74635W        W46961   0.870  23.448   2.902
74636W        W46962   7.044  15.219  11.581
74637W        W46963  24.970   7.383  11.641
74638W        W46964  13.734  24.961   2.260
74639W        W46965  15.059  12.593  12.374
74640W        W46966  44.002  29.942  13.886
74641W        W46967  18.302  28.442  11.602
74642W        W46968  20.534  10.243   2.388
74643W        W46969  30.717   0.762   3.667
74644W        W46970  33.710   9.419  12.066
74645W        W46971  31.399  17.760  11.322
74646W        W46972  25.816  25.918   0.890
74647W        W46973  28.488   9.175   0.287
74648W        W46974  43.248   3.929  14.482
74649W        W46975  10.212   9.924   2.889
74650W        W46976  13.547  33.309  11.073
74651W        W46977  11.591  18.718   1.020
74652W        W46978  23.162  24.964   1.738
74653W        W46979  26.063  15.835  12.343
74654W        W46980   3.298  23.441  10.217
74655W        W46981   5.512  41.720   2.786
74656W        W46982  11.269   6.808  14.438
74657W        W46983  42.335  39.051   1.516
74658W        W46984  11.140  26.260   4.675
74659W        W46985  13.930  21.985  13.244
74660W        W46986  29.485   0.995   1.674
74661W        W46987  30.403  34.574  13.095
74662W        W46988  43.574   1.391   0.340
74663W        W46989  30.479  21.776  14.683
74664W        W46990  43.367  14.655   3.538
74665W        W46991  13.136   8.856  12.860
74666W        W46992  17.009  26.167  12.135
74667W        W46993  12.812  10.670   2.596
74668W        W46994   3.884   7.810  14.504
74669W        W46995   0.355   1.916   0.968
74670W        W46996  16.655  30.937   4.895
74671W        W46997  30.085  37.813  12.168
74672W        W46998   1.371  13.718   2.591
74673W        W46999  11.940  27.141   2.631
74674W        W47000  16.030  25.047  12.371
74675W        W47001  19.789   3.881   2.316
74676W        W47002  12.010  37.472   3.117
74677W        W47003  14.587  32.628   3.663
74678W        W47004   7.759  39.059   3.265
74679W        W47005  15.585  10.895  14.054
74680W        W47006  10.695  40.810  13.586
74681W        W47007  39.051  33.756   3.246
74682W        W47008  31.034  12.259  10.480
74683W        W47009  35.002  27.656  12.560
74684W        W47010  20.361   5.764   2.315
74685W        W47011  20.840  26.024   0.814
74686W        W47012  37.245   2.408  13.551
74687W        W47013  34.001  13.783  14.311
74688W        W47014  32.002  13.629  11.568
74689W        W47015  18.588  24.525   3.550
74690W        W47016   0.975  14.053  14.939
74691W        W47017  35.958  27.410   4.839
74692W        W47018  24.078  43.658   4.347
74693W        W47019  10.920  33.204   2.453
74694W        W47020  17.569  41.435   2.727
74695W        W47021  26.217  39.429  13.724
74696W        W47022   1.843   0.326  13.826
74697W        W47023  44.277  32.351  10.982
74698W        W47024  31.516   5.837   2.677
74699W        W47025   0.532  22.723  11.021
74700W        W47026  37.731  15.566   0.315
74701W        W47027  16.742  29.766   0.548
74702W        W47028  13.671  38.158   4.337
74703W        W47029   7.578  23.928  11.208
74704W        W47030  14.632   7.286  13.553
74705W        W47031   0.319  18.218   4.951
74706W        W47032   9.870   3.687  14.364
74707W        W47033  23.203  43.503  12.082
74708W        W47034  12.825  43.347  13.288
74709W        W47035  38.395  23.408   3.657
74710W        W47036  37.953   9.142  11.845
74711W        W47037  22.119  18.829  14.389
74712W        W47038  32.916   8.390   2.224
74713W        W47039  12.852  44.306   2.339
74714W        W47040  25.745  42.551   0.163
74715W        W47041  33.448  38.782   4.632
74716W        W47042  15.654  32.910   4.066
74717W        W47043  35.476  39.139  14.915
74718W        W47044   4.260  44.695   0.186
74719W        W47045  16.127  32.217  10.596
74720W        W47046  11.138  41.733  13.472
74721W        W47047  34.576   3.759   4.011
74722W        W47048   4.272   0.905  14.349
74723W        W47049   4.400  30.651   4.548
74724W        W47050  33.810  31.050   4.185
74725W        W47051  16.805  42.893  14.804
74726W        W47052  35.193  16.606   3.176
74727W        W47053  16.894   1.764  11.134
74728W        W47054  39.353   6.989   1.707
74729W        W47055  29.540  30.440   4.074
74730W        W47056  29.939  37.513   1.937
74731W        W47057  35.832   2.766  12.554
74732W        W47058  33.315   0.473   4.619
74733W        W47059  34.968  33.354   0.992
74734W        W47060   1.483  10.272  11.837
74735W        W47061  40.998   0.686   2.281
74736W        W47062  31.403  18.329   2.867
74737W        W47063  13.578  32.062   3.160
74738W        W47064  21.225  30.607  13.910
74739W        W47065   0.364  32.535   1.408
74740W        W47066  13.829  41.032   3.232
74741W        W47067  20.447   6.416   1.865
74742W        W47068  35.394  41.468  12.644
74743W        W47069  32.622   4.871   2.777
74744W        W47070   7.352  22.401   2.131
74745W        W47071  20.729  33.966   3.317
74746W        W47072  10.615   3.434   0.315
74747W        W47073  40.862  27.112  11.091
74748W        W47074  21.695   2.708   1.029
74749W        W47075  19.290   7.149   4.538
74750W        W47076  24.465   7.260  14.483
74751W        W47077   2.574  14.726  11.030
74752W        W47078  17.343  32.860  13.473
74753W        W47079  25.512  32.415   2.049
74754W        W47080  41.953  36.398   3.913
74755W        W47081  35.853  21.632  10.659
74756W        W47082   6.946  27.332  12.674
74757W        W47083  28.088  41.828   4.528
74758W        W47084   5.847   2.616   0.972
74759W        W47085  11.093  34.152  11.475
74760W        W47086  29.065  40.841  12.442
74761W        W47087  12.288  37.525   2.680
74762W        W47088  17.123   8.257  13.825
74763W        W47089   3.703  15.978  10.667
74764W        W47090   1.783   6.231  11.555
74765W        W47091  16.882   8.405  12.320
74766W        W47092  20.052  20.141  10.724
74767W        W47093  38.897  12.611  12.729
74768W        W47094  26.517  30.871  13.844
74769W        W47095  33.485  34.327  14.588
74770W        W47096  41.254  33.888   1.726
74771W        W47097  38.656  32.184   4.105
74772W        W47098   3.477  27.887  12.918
74773W        W47099  21.432  20.973  11.332
74774W        W47100   3.650  19.661   3.761
74775W        W47101  39.035  44.512  13.003
74776W        W47102  20.680  37.557   2.701
74777W        W47103  29.047  36.832   4.198
74778W        W47104  28.544  21.611  13.622
74779W        W47105  14.280   5.404  14.588
74780W        W47106  18.828  33.423   1.205
74781W        W47107  16.175  29.561   3.690
74782W        W47108  35.490  38.243   4.015
74783W        W47109  40.922  26.641   4.759
74784W        W47110  37.023   9.788   4.988
74785W        W47111  31.186  24.361   2.960
74786W        W47112  37.030  18.102  13.797
74787W        W47113   6.653  14.366   4.719
74788W        W47114  21.097  30.645   0.038
74789W        W47115  27.380   0.502  14.275
74790W        W47116  35.280   4.961  14.730
74791W        W47117  12.290  30.937  13.899
74792W        W47118   2.380  10.221   2.234
74793W        W47119  11.217  43.320  10.557
74794W        W47120   0.266  28.828   0.298
74795W        W47121  39.798  33.227   4.600
74796W        W47122   8.731   3.420  13.986
74797W        W47123   5.521  34.631  14.349
74798W        W47124  35.301  29.191   1.390
74799W        W47125  36.065  14.596   0.066
74800W        W47126  22.033  22.771  11.453
74801W        W47127  18.657  30.559   2.403
74802W        W47128  13.469  43.735  11.618
74803W        W47129   6.751  19.659  14.767
74804W        W47130  31.177   0.590   3.940
74805W        W47131  12.172  16.314   3.540
74806W        W47132   6.800  24.226  13.831
74807W        W47133  32.498   9.265  13.861
74808W        W47134  23.958   0.723  13.984
74809W        W47135  35.269  35.350  12.027
74810W        W47136  41.919   9.799  14.397
74811W        W47137  33.847  24.659  14.066
74812W        W47138  27.784  25.062   0.339
74813W        W47139  24.670  15.327  11.143
74814W        W47140  10.295  18.089  12.507
74815W        W47141   7.771  24.649  14.479
74816W        W47142  25.752  36.859  11.704
74817W        W47143   7.826  12.829  10.300
74818W        W47144  25.979  24.088   1.238
74819W        W47145  13.852   4.673   2.232
74820W        W47146  34.606  43.113  12.542
74821W        W47147  13.494  32.164  10.125
74822W        W47148  16.899   7.024  14.533
74823W        W47149  16.660  42.830   4.473
74824W        W47150  42.380  18.860   1.367
74825W        W47151  41.334   3.849   1.663
74826W        W47152  31.485   3.576   0.932
74827W        W47153  23.108   0.319  10.473
74828W        W47154   8.265  43.900   2.002
74829W        W47155  21.838  39.859  10.165
74830W        W47156  27.624  34.926   0.051
74831W        W47157   6.323  22.166  12.484
74832W        W47158  31.049   1.681  14.440
74833W        W47159  29.476   6.951  10.931
74834W        W47160   3.440  40.204   0.638
74835W        W47161  15.830  25.512   1.286
74836W        W47162  10.917  34.403   0.253
74837W        W47163  24.140  13.106  10.575
74838W        W47164  35.443  25.108   3.337
74839W        W47165  44.393   5.760   4.236
74840W        W47166  13.616  29.645   3.716
74841W        W47167   8.287   3.315  11.419
74842W        W47168  26.726  16.162  14.041
74843W        W47169  34.611  31.359   1.935
74844W        W47170   2.303  20.974  10.865
74845W        W47171  22.149  19.260   2.346
74846W        W47172  16.256  38.937  11.389
74847W        W47173  10.677  37.463   2.756
74848W        W47174  12.859  17.061  14.596
74849W        W47175  29.965  44.179  14.980
74850W        W47176  16.723  27.213  14.613
74851W        W47177   2.948   8.593  12.413
74852W        W47178  22.203  36.603   4.486
74853W        W47179  29.760   0.585  13.986
74854W        W47180  26.877  40.263   0.768
74855W        W47181  44.733  26.400   4.243
74856W        W47182  39.123   6.945   1.240
74857W        W47183  17.798  12.876   1.905
74858W        W47184  35.624   4.230  13.421
74859W        W47185  11.120  13.337   3.800
74860W        W47186  39.912  30.707   4.961
74861W        W47187  19.157  42.530  10.979
74862W        W47188  31.150  28.164  11.216
74863W        W47189   9.667   8.152  12.988
74864W        W47190  24.311  41.207  13.791
74865W        W47191  21.547   5.823  11.989
74866W        W47192  39.409  27.119  14.176
74867W        W47193   9.784  21.478   3.392
74868W        W47194  35.665  20.579   1.825
74869W        W47195  14.201  18.205  10.625
74870W        W47196  26.490   9.020   3.349
74871W        W47197   5.209   4.761  14.360
74872W        W47198   1.727  43.761  10.690
74873W        W47199  36.874  44.980  11.660
74874W        W47200  44.999   9.278  13.394
74875W        W47201  15.242  14.025  12.981
74876W        W47202  17.945  38.641   3.639
74877W        W47203  26.117   9.381   2.422
74878W        W47204  13.594  23.935  13.767
74879W        W47205  19.680  20.228   1.691
74880W        W47206  14.402  29.095   1.738
74881W        W47207  42.790  29.050   3.261
74882W        W47208  26.119   8.322   1.776
74883W        W47209  12.824  23.212  11.435
74884W        W47210   0.279  39.917   0.593
74885W        W47211  36.312  14.809   0.945
74886W        W47212   7.484  20.686   5.117
74887W        W47213   6.509  17.644  12.944
74888W        W47214  32.598  25.606   1.750
74889W        W47215  18.199  37.371   2.326
74890W        W47216  41.446   4.224  14.509
74891W        W47217  29.133  26.665  12.843
74892W        W47218  23.538   8.456  12.195
74893W        W47219  22.921  21.133  14.481
74894W        W47220  25.696  37.052   3.547
74895W        W47221  31.374  19.528  14.760
74896W        W47222  24.655  32.434  12.025
74897W        W47223  21.743  44.899   1.959
74898W        W47224  25.923  18.718   4.383
74899W        W47225  25.182  13.925  12.072
74900W        W47226   3.856  15.091   3.829
74901W        W47227  12.243  34.904   1.377
74902W        W47228  31.640  10.499   3.225
74903W        W47229  20.113  43.041   3.358
74904W        W47230  21.575  31.365  13.371
74905W        W47231   4.370  29.366   0.860
74906W        W47232  11.372  19.527   0.113
74907W        W47233   7.970  25.083  14.021
74908W        W47234   4.155  43.768  13.028
74909W        W47235  44.943  21.229  12.365
74910W        W47236  13.248  34.205   3.299
74911W        W47237  30.148  35.265   2.069
74912W        W47238  42.541  41.101  10.728
74913W        W47239   1.566   5.824  13.149
74914W        W47240  14.169  30.193  12.319
74915W        W47241  36.026   1.482  12.136
74916W        W47242  28.383  29.280   1.054
74917W        W47243  13.661  32.808   1.638
74918W        W47244   2.849  37.940  11.092
74919W        W47245   7.131  22.730  11.731
74920W        W47246  11.740  13.305  14.162
74921W        W47247  44.820   5.418   4.170
74922W        W47248  38.235   0.064  12.891
74923W        W47249  19.105  35.074  14.884
74924W        W47250   5.906  10.584  10.610
74925W        W47251  41.368  29.573   3.273
74926W        W47252  34.598  11.950   2.923
74927W        W47253  10.345   5.934  12.893
74928W        W47254  37.115  43.801   1.887
74929W        W47255  36.396  42.624  10.204
74930W        W47256  17.651   3.864   3.130
74931W        W47257   4.140  37.041   2.737
74932W        W47258  27.926  21.345   1.248
74933W        W47259  40.020  44.636   2.366
74934W        W47260  23.000  30.522  12.622
74935W        W47261   7.734  43.468  10.401
74936W        W47262  12.870  31.962  11.657
74937W        W47263  22.281  24.646   3.344
74938W        W47264   0.054  10.400  13.857
74939W        W47265  33.609   5.046  14.928
74940W        W47266  32.546  18.812   0.908
74941W        W47267  27.511   9.793   1.652
74942W        W47268  13.352  14.585  13.873
74943W        W47269   8.751  26.589   2.883
74944W        W47270  37.345   7.949  14.970
74945W        W47271  21.047  37.214   4.450
74946W        W47272  24.651   8.275   3.307
74947W        W47273   5.789  21.587   1.482
74948W        W47274  27.893   0.486  14.348
74949W        W47275  20.061  16.175  10.558
74950W        W47276  23.552   7.204   2.487
74951W        W47277  33.632  44.991   2.098
74952W        W47278  26.244  43.718  13.149
74953W        W47279  34.876  32.658   3.256
74954W        W47280   3.523  23.806   3.195
74955W        W47281  36.861  18.532  12.162
74956W        W47282  24.636  38.435  10.042
74957W        W47283  27.563  35.907   0.446
74958W        W47284  27.048  10.375  14.740
74959W        W47285   8.127   4.337  13.865
74960W        W47286  16.624  37.128   4.440
74961W        W47287   9.899  23.107   4.556
74962W        W47288  15.880  25.228  10.748
74963W        W47289  19.125  35.133   1.696
74964W        W47290  10.349  41.269   4.516
74965W        W47291   4.824  32.774   1.840
74966W        W47292   8.971  34.390  14.812
74967W        W47293  40.937  30.055   1.269
74968W        W47294   0.964   7.703   1.016
74969W        W47295  24.922  25.407  12.958
74970W        W47296  44.270  21.976  14.486
74971W        W47297  41.274   7.152  12.579
74972W        W47298  35.393  14.888   1.796
74973W        W47299  31.086  31.942   2.259
74974W        W47300  35.822  35.275  13.745
74975W        W47301   2.849  22.712   2.241
74976W        W47302  40.128  35.389   4.230
74977W        W47303  41.871  32.771  13.531
74978W        W47304  21.168  17.757   1.257
74979W        W47305  12.860  35.887   0.735
74980W        W47306   6.953  41.623   4.194
74981W        W47307  41.634  10.355   0.012
74982W        W47308   8.472  37.654   2.425
74983W        W47309  30.662  41.532  12.507
74984W        W47310  25.155  30.012   3.526
74985W        W47311   0.022  22.173   4.657
74986W        W47312  38.070  15.975   3.997
74987W        W47313  26.073  30.467   0.844
74988W        W47314  38.068  43.242  11.620
74989W        W47315  44.486  24.969   2.703
74990W        W47316  18.002  44.940  14.403
74991W        W47317  40.327   6.674   0.968
74992W        W47318  27.633  40.770   1.309
74993W        W47319  37.839  19.094  13.838
74994W        W47320  42.366  42.024   2.739
74995W        W47321  15.791  20.824   2.265
74996W        W47322  27.963   2.525   4.864
74997W        W47323   0.533  36.049  13.969
74998W        W47324  28.437  42.008   4.124
74999W        W47325   7.619  25.330   4.087
75000W        W47326  33.239  43.876   4.102
75001W        W47327   1.278  37.542   3.945
75002W        W47328  10.823   3.974  12.519
75003W        W47329  19.099   9.794   3.173
75004W        W47330  26.900  39.569   1.365
75005W        W47331  22.690  30.145  13.761
75006W        W47332  26.519  23.514   2.301
75007W        W47333  28.605  20.029  10.569
75008W        W47334  24.795   5.082  10.656
75009W        W47335   6.981  18.173   1.241
75010W        W47336   0.957   5.728   1.021
75011W        W47337   4.241  26.573  13.932
75012W        W47338   5.251  39.698  14.429
75013W        W47339  40.958   8.187  14.990
75014W        W47340   9.273   1.664   3.632
75015W        W47341  19.057   6.168  12.909
75016W        W47342  14.297  34.027  11.828
75017W        W47343  23.314   8.225   4.391
75018W        W47344  37.138   7.735   3.823
75019W        W47345   8.628  43.007   4.107
75020W        W47346   3.526  31.926  14.792
75021W        W47347   0.943  43.046   4.814
75022W        W47348   0.491  35.774  13.526
75023W        W47349   3.855  12.843   1.176
75024W        W47350  22.179   1.899   2.768
75025W        W47351  21.004  33.243   2.863
75026W        W47352  19.365  32.328   1.470
75027W        W47353  23.034   3.369   0.811
75028W        W47354  28.143  28.046   0.745
75029W        W47355  34.830  43.466   3.314
75030W        W47356  11.479  16.153  14.452
75031W        W47357   2.228  41.917  10.623
75032W        W47358   0.899  29.577   2.620
75033W        W47359  25.714  32.982  12.179
75034W        W47360  15.917  26.003   0.054
75035W        W47361  42.058  42.533   0.951
75036W        W47362   7.129   9.229   2.263
75037W        W47363  35.551  26.633   1.365
75038W        W47364  22.936  38.996  12.468
75039W        W47365  14.575  41.797  10.633
75040W        W47366   7.677  23.118   3.311
75041W        W47367   8.837  29.693   1.787
75042W        W47368   2.288  31.195   0.193
75043W        W47369   1.086  41.592   4.561
75044W        W47370  30.665  26.108   3.906
75045W        W47371   1.764  18.339  13.370
75046W        W47372  44.418  44.421  13.142
75047W        W47373  31.922   1.712  11.069
75048W        W47374  30.500  32.902   3.997
75049W        W47375  12.817   2.343   2.447
75050W        W47376  15.173  28.684   2.209
75051W        W47377   8.150  10.720   1.924
75052W        W47378  36.395  35.038  12.723
75053W        W47379  18.359  23.452   2.250
75054W        W47380   4.901  24.028   4.598
75055W        W47381  37.274  24.151  13.904
75056W        W47382   1.229  40.946   1.887
75057W        W47383  43.348   2.829  11.312
75058W        W47384  37.395  17.011   1.569
75059W        W47385  31.017  23.015   2.726
75060W        W47386  42.195  22.041   0.386
75061W        W47387  33.235   4.208   2.181
75062W        W47388  37.965  34.985  11.632
75063W        W47389   4.895   1.224   2.178
75064W        W47390   2.866  31.151   3.247
75065W        W47391  35.318  25.598   2.765
75066W        W47392  27.338   3.853   4.650
75067W        W47393  33.174  33.974   4.494
75068W        W47394  14.899   6.863  13.318
75069W        W47395   1.464  23.001  14.783
75070W        W47396  16.715  23.400  10.362
75071W        W47397  39.944  15.547  11.608
75072W        W47398   2.845  22.038   1.055
75073W        W47399  34.774  25.380  14.472
75074W        W47400  44.695  18.520   3.699
75075W        W47401  34.518  10.900   2.186
75076W        W47402   0.152  29.662  14.473
75077W        W47403  17.530  25.072   4.642
75078W        W47404  41.984  21.234   0.912
75079W        W47405   8.299  43.488  14.014
75080W        W47406   5.203  39.489   2.143
75081W        W47407   3.194  11.014   4.029
75082W        W47408  20.724  14.145   4.691
75083W        W47409   8.308   7.702  10.932
75084W        W47410   2.866  44.803   3.275
75085W        W47411  16.247  35.533  11.480
75086W        W47412   0.292  26.095   2.164
75087W        W47413  18.235   1.883   4.823
75088W        W47414   5.463  18.237   4.293
75089W        W47415  35.253  21.745  11.626
75090W        W47416   3.942  11.632  12.990
75091W        W47417  13.280  27.905  11.940
75092W        W47418  37.762  38.974   3.853
75093W        W47419  15.743   3.965   3.005
75094W        W47420  22.723  17.181  13.872
75095W        W47421  38.470  12.300  14.747
75096W        W47422  24.746  23.544   1.609
75097W        W47423  16.534  13.328   0.768
75098W        W47424   8.856  40.856   2.210
75099W        W47425  41.816  39.040  14.002
75100W        W47426  32.955  18.523  11.972
75101W        W47427   6.652  44.047  13.594
75102W        W47428  26.052   5.945   2.331
75103W        W47429   5.931   5.200  13.790
75104W        W47430   4.921   7.678  10.622
75105W        W47431   5.377  27.563   0.477
75106W        W47432  42.462  17.370  14.516
75107W        W47433  26.678  43.028   2.819
75108W        W47434  31.626  43.093  13.790
75109W        W47435   5.285  17.343   0.801
75110W        W47436  30.212  32.882  13.696
75111W        W47437  39.518  34.034  10.713
75112W        W47438  12.999  15.830  11.587
75113W        W47439  19.056  31.645   3.284
75114W        W47440  14.745  40.561  12.333
75115W        W47441   7.657  29.103   2.388
75116W        W47442  18.538   2.611   1.801
75117W        W47443  30.620  36.515   3.228
75118W        W47444  35.700  28.817   2.387
75119W        W47445  26.459   8.771  11.561
75120W        W47446  24.613   8.784   3.423
75121W        W47447  27.046  30.897   1.368
75122W        W47448  33.961  18.819   0.248
75123W        W47449  34.912  35.003  10.570
75124W        W47450   8.462   9.395  14.931
75125W        W47451  27.887  32.129   3.205
75126W        W47452  24.633  29.121   1.132
75127W        W47453  41.860  29.621  12.942
75128W        W47454  13.217  29.493  12.936
75129W        W47455  13.635  44.950  14.444
75130W        W47456  15.317  37.585  11.121
75131W        W47457  14.497  17.880   2.770
75132W        W47458   3.821   5.631  13.887
75133W        W47459  12.238  36.574  13.141
75134W        W47460  21.688  37.884   4.567
75135W        W47461  34.430  27.017  12.870
75136W        W47462  19.105  27.711   3.517
75137W        W47463   4.370   4.912  11.003
75138W        W47464   4.906   5.554  10.994
75139W        W47465  19.001  13.994   3.237
75140W        W47466  26.564  27.129   0.710
75141W        W47467  10.030  22.045   5.218
75142W        W47468  15.869  23.115   0.740
75143W        W47469   6.294  42.253  11.073
75144W        W47470  34.427  18.450  11.613
75145W        W47471  44.472   9.171  13.480
75146W        W47472  39.100  42.087  13.636
75147W        W47473  13.835  15.268  11.565
75148W        W47474  17.754  34.193   0.946
75149W        W47475  16.168   1.992   4.145
75150W        W47476  12.653  27.266  11.526
75151W        W47477   8.636  30.174   1.800
75152W        W47478   4.611   9.234  13.368
75153W        W47479  24.696  24.068   4.472
75154W        W47480  39.950  20.139   1.969
75155W        W47481  31.902  28.084  11.616
75156W        W47482   5.734  29.982  10.571
75157W        W47483  34.884  32.435  12.618
75158W        W47484  36.911   2.228   2.944
75159W        W47485  11.261   0.041  10.741
75160W        W47486  44.497  20.698   3.304
75161W        W47487  34.373  16.988   3.304
75162W        W47488  28.085  33.609  12.166
75163W        W47489   4.663  23.106  11.785
75164W        W47490   1.253  40.963   2.993
75165W        W47491  42.798  17.681   4.231
75166W        W47492  16.674  14.157  10.579
75167W        W47493   9.768  36.821   4.116
75168W        W47494  24.741  23.078  12.213
75169W        W47495  13.264  16.166  14.836
75170W        W47496  10.148  26.394   3.060
75171W        W47497   3.468  17.857  13.887
75172W        W47498  15.096  14.190  13.456
75173W        W47499  38.384  20.061  14.777
75174W        W47500  37.809   9.765   4.178
75175W        W47501  26.452   7.156  12.421
75176W        W47502   4.948  19.223  11.587
75177W        W47503  20.693   2.436  11.420
75178W        W47504  24.220  25.518  10.737
75179W        W47505   9.864   8.703   4.195
75180W        W47506  35.887   2.460  14.939
75181W        W47507  34.990  27.489  14.925
75182W        W47508  13.060  33.872  10.282
75183W        W47509  12.280  34.370   1.357
75184W        W47510   6.556   9.377   0.951
75185W        W47511  21.253  44.857   1.671
75186W        W47512  30.244  39.582  13.580
75187W        W47513  33.806  33.479   1.484
75188W        W47514  16.947  22.095   1.784
75189W        W47515  23.144  24.582   4.451
75190W        W47516  39.562  30.016  10.691
75191W        W47517  31.074   8.046  13.973
75192W        W47518  16.587  26.965  13.933
75193W        W47519  43.437   3.624  13.981
75194W        W47520  43.375  37.639   1.564
75195W        W47521  43.551  19.463   0.518
75196W        W47522   2.407  35.190  12.129
75197W        W47523  24.724  33.337  13.545
75198W        W47524  20.465  20.152   4.573
75199W        W47525   0.724  25.646  11.829
75200W        W47526   8.893  25.609   0.877
75201W        W47527  38.052  17.511  12.886
75202W        W47528  43.239  22.045   1.368
75203W        W47529  33.303  10.395   4.714
75204W        W47530  40.050  13.271   3.686
75205W        W47531   5.993  42.583   0.952
75206W        W47532  19.754  21.098   2.695
75207W        W47533  12.147  25.583  12.732
75208W        W47534  34.110  30.510  14.970
75209W        W47535  16.271   2.643  12.064
75210W        W47536  21.639  10.309  11.556
75211W        W47537  39.452  24.216   1.585
75212W        W47538  18.536  32.594   3.759
75213W        W47539  20.554  31.704   4.074
75214W        W47540   1.555  26.161   0.981
75215W        W47541   0.998  41.138  13.617
75216W        W47542  26.571  37.645   4.776
75217W        W47543  21.366  40.095   1.290
75218W        W47544  24.742  20.197   2.218
75219W        W47545  24.802  11.133   0.438
75220W        W47546  22.290  17.552  14.918
75221W        W47547  19.313  38.037   1.887
75222W        W47548  12.633  26.551  14.427
75223W        W47549   8.773  39.454  10.700
75224W        W47550  16.472  16.239  13.434
75225W        W47551  33.356  44.269   5.130
75226W        W47552   1.194  30.342  10.473
75227W        W47553  44.881  20.670  11.120
75228W        W47554   4.939  29.537   2.223
75229W        W47555   6.196  21.562  13.781
75230W        W47556  24.918   6.320  11.092
75231W        W47557  11.332  17.780   3.332
75232W        W47558  17.040  30.398  12.595
75233W        W47559   1.287  25.241   3.745
75234W        W47560   1.847   7.782   4.490
75235W        W47561  44.437  29.030  14.371
75236W        W47562   9.343  35.874  11.591
75237W        W47563  26.427  37.965  14.296
75238W        W47564  33.055  44.785   4.534
75239W        W47565  35.778  12.117  14.347
75240W        W47566  12.857  32.993   4.595
75241W        W47567  23.040  37.749  12.947
75242W        W47568  39.404  24.757   3.623
75243W        W47569  40.812   3.962   0.403
75244W        W47570  29.679  20.149  14.091
75245W        W47571   0.166  27.038  13.304
75246W        W47572  16.533  25.775   2.250
75247W        W47573  36.474  44.856   1.400
75248W        W47574  38.884  25.781   2.130
75249W        W47575  31.948  16.119   4.282
75250W        W47576   7.619  34.830  11.542
75251W        W47577  21.806  14.836   4.325
75252W        W47578  32.726  38.487  12.543
75253W        W47579   0.687  23.494   1.252
75254W        W47580  26.677  17.389   3.671
75255W        W47581  25.112   8.833  11.944
75256W        W47582  10.386  17.487   1.267
75257W        W47583  44.866  32.446   2.834
75258W        W47584   6.938  42.522  14.403
75259W        W47585  17.630  20.548   1.432
75260W        W47586  28.883   8.639  11.488
75261W        W47587  22.719  37.838   2.636
75262W        W47588  15.119  29.970  12.962
75263W        W47589  36.344  32.866  10.798
75264W        W47590  30.829  15.287  11.783
75265W        W47591   7.126  33.048   1.737
75266W        W47592   9.127   6.726  12.909
75267W        W47593  29.205  41.934  14.492
75268W        W47594   6.062  33.498  11.157
75269W        W47595  38.835  10.468   2.726
75270W        W47596  14.855  18.562   3.204
75271W        W47597  16.664   0.699   4.460
75272W        W47598   9.247  12.156  12.201
75273W        W47599   7.900  43.465   5.021
75274W        W47600  32.298  18.811   2.667
75275W        W47601  44.219  19.222  11.068
75276W        W47602  25.494  34.932  12.960
75277W        W47603   8.114   1.327   4.165
75278W        W47604  36.809  42.550  11.614
75279W        W47605  17.126  39.625  10.010
75280W        W47606  32.005  31.099   0.923
75281W        W47607  39.494  30.714  14.184
75282W        W47608  22.999   2.024   3.711
75283W        W47609   4.682   7.432  11.080
75284W        W47610  11.532   5.136  12.915
75285W        W47611  13.137  23.101   5.008
75286W        W47612  39.030  33.036  13.146
75287W        W47613   6.842   1.898   0.412
75288W        W47614  23.460  36.471  12.821
75289W        W47615  12.173  10.016  13.023
75290W        W47616  34.735  31.339  11.616
75291W        W47617   4.376  25.517   1.888
75292W        W47618  40.991  29.574  11.673
75293W        W47619  17.084  10.820  10.397
75294W        W47620   2.948   2.000  12.229
75295W        W47621  19.822  17.977  13.834
75296W        W47622   9.179   2.741   2.812
75297W        W47623  12.839  26.662  12.550
75298W        W47624   3.860  19.601   1.369
75299W        W47625  12.378  42.622   0.731
75300W        W47626  38.050  20.732   4.154
75301W        W47627   9.278  32.051  11.369
75302W        W47628  17.352  18.377   4.093
75303W        W47629  11.857   6.815   3.407
75304W        W47630  39.298   4.304   2.766
75305W        W47631   1.710  18.701   4.590
75306W        W47632  25.596  13.421  14.870
75307W        W47633   1.459  34.447  11.549
75308W        W47634  13.671  36.915   1.213
75309W        W47635  17.066   6.235  11.269
75310W        W47636  15.062  41.092   2.380
75311W        W47637   5.988  12.620   2.808
75312W        W47638  27.563  22.588  12.083
75313W        W47639  24.555  27.689   1.906
75314W        W47640  31.508   4.723  10.223
75315W        W47641  35.660  21.721   3.775
75316W        W47642   8.597  10.659  12.400
75317W        W47643  44.087   8.120   3.952
75318W        W47644  10.249  19.014   5.027
75319W        W47645  43.804  43.442  13.836
75320W        W47646  40.948  10.561  10.764
75321W        W47647  27.556  27.885   2.352
75322W        W47648  25.026  42.607  13.772
75323W        W47649  13.098  12.118   1.864
75324W        W47650  12.262  18.593  13.137
75325W        W47651  18.242  43.940   0.226
75326W        W47652  26.477   6.889   4.213
75327W        W47653  13.096   0.324   2.430
75328W        W47654  41.845  31.221   4.359
75329W        W47655  42.862  41.542   0.094
75330W        W47656  33.077  12.073   0.420
75331W        W47657  26.160  38.870  12.085
75332W        W47658  36.955  43.884   3.424
75333W        W47659   2.205  13.849  11.854
75334W        W47660   3.816  37.496   1.184
75335W        W47661   7.626  34.041   0.923
75336W        W47662  21.055   4.860   0.427
75337W        W47663  13.171  34.072   4.341
75338W        W47664  33.408  44.796   3.351
75339W        W47665  27.899  12.776  14.383
75340W        W47666  44.407  41.066  13.491
75341W        W47667  27.253  27.705  14.520
75342W        W47668  24.228  43.858   3.168
75343W        W47669  22.585  10.847  14.696
75344W        W47670  17.805  31.659   2.629
75345W        W47671   0.787  17.460  10.326
75346W        W47672   2.357  25.821   0.022
75347W        W47673  17.367  14.292   0.271
75348W        W47674  15.380  18.845  12.142
75349W        W47675  11.934  21.158   5.140
75350W        W47676  36.330  34.561  14.943
75351W        W47677  34.529  37.573  11.410
75352W        W47678   8.489  13.235  12.447
75353W        W47679  12.424  17.417   1.278
75354W        W47680  10.241  27.191   1.907
75355W        W47681  22.082  30.381  10.911
75356W        W47682  32.902  31.927   4.106
75357W        W47683  40.966   0.971  12.451
75358W        W47684  19.119  24.640   0.611
75359W        W47685  25.731  38.558  12.018
75360W        W47686  34.573  41.965  12.598
75361W        W47687  27.171  29.014   4.132
75362W        W47688   6.214  10.187  10.748
75363W        W47689  15.728  25.106   0.964
75364W        W47690  43.418  39.978  14.985
75365W        W47691  41.011  15.842   1.280
75366W        W47692  11.510  41.737   5.053
75367W        W47693  43.887  42.000  10.928
75368W        W47694  16.090  17.330  14.114
75369W        W47695  21.155  24.766  13.412
75370W        W47696  28.406   3.737  13.530
75371W        W47697  36.266  35.925   5.047
75372W        W47698  23.877  22.711   1.739
75373W        W47699  37.120  35.040  11.167
75374W        W47700  37.020  39.072   1.775
75375W        W47701  39.402  33.651  14.660
75376W        W47702  40.489   5.378   1.348
75377W        W47703  20.235  33.325   1.412
75378W        W47704  27.477  33.877   0.525
75379W        W47705  28.576  15.266   0.935
75380W        W47706  38.076  43.894  12.302
75381W        W47707   1.716  35.070  14.344
75382W        W47708  42.299   4.114   1.898
75383W        W47709  13.393   5.882  12.502
75384W        W47710  39.152  22.756  13.155
75385W        W47711  23.050  16.055   0.792
75386W        W47712  27.157  13.075  14.384
75387W        W47713   3.017  18.734   1.197
75388W        W47714  19.633  33.020   3.182
75389W        W47715  20.363  18.434   2.900
75390W        W47716  22.942   2.195  14.596
75391W        W47717  21.403  19.313  12.516
75392W        W47718  21.618  11.885   3.572
75393W        W47719   2.817  30.152   4.150
75394W        W47720   9.678  44.444  10.791
75395W        W47721  10.470  44.060   0.919
75396W        W47722  41.795   4.318   1.965
75397W        W47723  15.228  32.984   4.373
75398W        W47724  18.988  30.109   4.208
75399W        W47725  27.395  32.432   2.723
75400W        W47726  12.739  42.983  12.928
75401W        W47727  14.652  26.943  12.477
75402W        W47728  19.588  36.589  10.580
75403W        W47729  14.894  12.306   2.207
75404W        W47730  20.006  19.237  10.753
75405W        W47731  29.674  30.598  10.537
75406W        W47732  20.037  19.152   2.216
75407W        W47733  33.065  36.995   3.726
75408W        W47734   8.393  15.871   1.792
75409W        W47735  11.773  23.040  10.776
75410W        W47736  44.559  17.005  10.067
75411W        W47737   8.783  14.845  13.739
75412W        W47738  36.865  14.283  13.976
75413W        W47739  19.956  43.782   1.112
75414W        W47740  21.242   9.552   4.013
75415W        W47741  23.728  42.495   4.766
75416W        W47742  15.211  42.031   4.734
75417W        W47743  19.052  41.335   2.939
75418W        W47744  28.660  12.672  11.990
75419W        W47745  44.220  21.630  10.094
75420W        W47746  32.823  13.535   1.473
75421W        W47747   8.586  16.592  10.918
75422W        W47748  27.506  11.139  12.155
75423W        W47749  24.521   6.734  13.285
75424W        W47750   7.598  15.855   4.315
75425W        W47751  26.962  21.005   4.674
75426W        W47752  25.015   5.313   0.155
75427W        W47753  25.512  16.613   3.639
75428W        W47754  32.484   6.290   5.016
75429W        W47755  14.208  37.371   2.915
75430W        W47756  10.967  23.751  11.085
75431W        W47757  20.855   0.391  14.342
75432W        W47758  32.895  24.410  11.122
75433W        W47759  11.355  13.720   2.283
75434W        W47760  17.196   0.507  10.947
75435W        W47761  30.534  27.384   4.082
75436W        W47762  19.769  26.043   4.652
75437W        W47763  43.815  10.152  14.006
75438W        W47764  27.913  14.692  12.943
75439W        W47765   1.778  27.994  14.386
75440W        W47766  29.876   7.815   0.353
75441W        W47767  14.082  23.193  11.187
75442W        W47768  43.076  35.058   0.215
75443W        W47769  25.538  25.599  14.934
75444W        W47770   5.964  44.387  10.616
75445W        W47771  21.716   8.630  12.025
75446W        W47772  15.280  17.305   4.045
75447W        W47773  16.350   0.560  10.753
75448W        W47774  43.303  35.480   4.428
75449W        W47775  26.040   7.843  13.842
75450W        W47776  21.732  22.605   3.097
75451W        W47777  23.341  11.759  14.955
75452W        W47778  42.640   7.683  12.528
75453W        W47779  36.571   7.300   0.737
75454W        W47780  30.899   9.430  12.397
75455W        W47781  11.783  27.913   0.793
75456W        W47782  10.379  34.396  10.584
75457W        W47783  36.315  28.857   0.324
75458W        W47784  38.038   1.061  10.689
75459W        W47785   5.986  41.846   2.658
75460W        W47786  25.008  26.521   1.665
75461W        W47787   1.228  34.383  14.848
75462W        W47788  16.306   9.235  11.030
75463W        W47789  37.355  16.668   3.948
75464W        W47790   3.838  35.862  11.212
75465W        W47791  31.205   2.875  12.416
75466W        W47792   8.236  20.921  11.640
75467W        W47793  43.025  15.787   2.415
75468W        W47794  13.504  37.561  13.972
75469W        W47795   6.307   3.791   0.352
75470W        W47796  31.189  10.219   2.220
75471W        W47797  41.806  25.766  11.995
75472W        W47798  23.351   5.618  12.377
75473W        W47799  27.415   3.943  14.340
75474W        W47800   5.903  31.942  10.640
75475W        W47801  29.534  28.648   2.348
75476W        W47802   9.805   1.093  12.298
75477W        W47803  23.196   8.345   3.249
75478W        W47804  12.248  32.913   1.841
75479W        W47805  31.862  35.534   0.998
75480W        W47806  39.507  40.506   2.195
75481W        W47807   0.016  40.184   2.874
75482W        W47808  42.734  19.007   3.601
75483W        W47809  34.349  14.138  14.966
75484W        W47810   3.352  41.851  14.601
75485W        W47811   1.489  37.619  14.190
75486W        W47812  38.306  32.981  14.174
75487W        W47813  14.298  23.409  14.395
75488W        W47814  20.472  10.637   0.488
75489W        W47815  33.588  37.092   3.695
75490W        W47816  23.143  20.924   0.384
75491W        W47817  22.765  17.772  14.836
75492W        W47818  39.605  19.079  10.706
75493W        W47819   7.410  21.077  10.281
75494W        W47820  20.905  31.375   2.201
75495W        W47821   3.941  41.936  12.977
75496W        W47822  35.194  22.024  12.869
75497W        W47823  34.510  29.080   1.955
75498W        W47824  14.119  19.639   2.885
75499W        W47825   2.678  25.973  11.931
75500W        W47826  44.784  34.885   2.134
75501W        W47827  27.661   6.676   1.757
75502W        W47828  38.050   0.358   3.150
75503W        W47829  14.363   9.299  14.997
75504W        W47830  19.796  24.960   2.678
75505W        W47831   7.938  29.215   3.921
75506W        W47832  28.937   6.378   2.799
75507W        W47833  18.591   7.372  12.961
75508W        W47834  30.428  26.918  12.088
75509W        W47835  19.840  30.507   4.224
75510W        W47836  37.801  23.982  10.254
75511W        W47837  26.752  13.763  11.116
75512W        W47838  32.652  33.286  14.766
75513W        W47839  24.732  41.336   1.889
75514W        W47840  39.763  14.570   1.228
75515W        W47841  38.564  43.926  12.174
75516W        W47842   1.432  36.740  14.741
75517W        W47843  43.085  31.459  12.723
75518W        W47844  34.385  43.448  13.422
75519W        W47845  35.414   7.979  13.937
75520W        W47846  38.231   8.136  12.387
75521W        W47847  28.650  44.683  14.915
75522W        W47848  24.190  39.605   1.883
75523W        W47849  21.900  22.938   0.600
75524W        W47850  15.844  37.926  10.432
75525W        W47851  23.428  19.900   1.785
75526W        W47852  30.924  42.023  12.601
75527W        W47853  20.133  38.095   3.785
75528W        W47854  23.635   1.042  14.927
75529W        W47855  11.341  28.229   2.757
75530W        W47856  33.519  26.499  12.833
75531W        W47857  13.716  39.186  11.984
75532W        W47858   4.378  16.814   2.777
75533W        W47859  22.731  41.383  14.401
75534W        W47860  15.194  33.397   5.088
75535W        W47861  30.742  25.043   0.960
75536W        W47862  33.728  12.905  11.014
75537W        W47863  39.962   4.267  13.499
75538W        W47864   3.373  18.008  14.939
75539W        W47865  34.045  44.209   0.914
75540W        W47866   9.173   4.584   0.559
75541W        W47867  18.048  17.341  12.078
75542W        W47868  22.543   1.102  12.023
75543W        W47869  22.806  20.567   1.658
75544W        W47870  23.239  30.386  11.218
75545W        W47871   3.725  20.847   4.723
75546W        W47872  15.647  32.361  12.660
75547W        W47873   1.744   9.395  10.671
75548W        W47874  34.860  17.025  12.037
75549W        W47875   1.782  14.124  14.526
75550W        W47876  24.248  22.637  14.857
75551W        W47877  28.495  32.171   3.704
75552W        W47878  26.590  31.453  12.432
75553W        W47879  31.493   3.879   2.032
75554W        W47880  32.985   6.313  10.677
75555W        W47881  13.336   4.887   0.159
75556W        W47882  26.133  33.274  11.106
75557W        W47883  31.136  22.421  14.784
75558W        W47884  32.864   9.322   3.559
75559W        W47885  39.352   0.247  14.875
75560W        W47886  36.194   0.815  12.574
75561W        W47887  24.995   8.380  12.167
75562W        W47888  24.645  32.179   0.974
75563W        W47889  21.276  34.503  13.777
75564W        W47890   6.195   5.953   2.864
75565W        W47891  28.950  19.211   3.983
75566W        W47892  12.618   1.193   0.960
75567W        W47893  13.330   5.252   3.865
75568W        W47894  43.785  10.731  11.720
75569W        W47895  13.273  21.858   4.843
75570W        W47896  23.750   2.857  13.540
75571W        W47897   0.958   8.882   2.221
75572W        W47898   1.190  37.009   1.693
75573W        W47899  32.234  10.647  14.874
75574W        W47900  32.107  23.800   0.435
75575W        W47901  41.283  41.425   3.636
75576W        W47902  43.461  38.492   2.445
75577W        W47903  29.582  14.888  14.893
75578W        W47904  34.105  24.131  14.967
75579W        W47905  35.874  28.230   1.263
75580W        W47906  42.683  38.875  13.460
75581W        W47907   8.272  13.115  12.923
75582W        W47908  21.614  41.069   2.255
75583W        W47909   5.727  41.321  11.689
75584W        W47910  32.668  10.753  14.532
75585W        W47911  21.245  14.751   0.603
75586W        W47912  25.494  42.336   2.244
75587W        W47913  21.231  37.678   0.589
75588W        W47914  44.397   1.521  11.081
75589W        W47915   0.670   9.712   0.961
75590W        W47916   2.745   2.511  12.938
75591W        W47917  28.742  17.283  10.834
75592W        W47918   3.257   5.980  10.646
75593W        W47919  44.287  25.691  11.265
75594W        W47920  43.217  19.463   4.165
75595W        W47921  30.189   8.158   1.813
75596W        W47922  12.869  16.076  13.423
75597W        W47923   5.717  39.884  10.576
75598W        W47924   9.979  44.262   0.462
75599W        W47925  24.410  29.619  13.009
75600W        W47926   1.433  18.810  14.606
75601W        W47927  31.105  12.727  11.143
75602W        W47928  40.174   7.870  10.864
75603W        W47929   6.464   7.933   1.369
75604W        W47930  38.319  31.573   3.427
75605W        W47931  27.001  37.486   5.036
75606W        W47932   8.020  39.402  13.328
75607W        W47933  38.774   6.656  12.528
75608W        W47934   4.279  33.804  14.974
75609W        W47935  36.064  43.845   3.640
75610W        W47936  31.879  14.728  10.877
75611W        W47937  17.517  21.623  11.027
75612W        W47938  21.623  44.293  10.623
75613W        W47939   9.348  14.122   1.851
75614W        W47940  34.498  32.904  10.760
75615W        W47941  26.142   8.026   4.325
75616W        W47942   9.189  30.120   2.638
75617W        W47943  39.991  20.609   3.723
75618W        W47944  14.911  37.840   2.699
75619W        W47945  24.736   3.410  11.818
75620W        W47946  35.678   2.991  10.396
75621W        W47947  39.078   2.427  13.786
75622W        W47948   9.534  40.403  12.876
75623W        W47949  11.084   8.759  12.503
75624W        W47950  36.876  25.627  14.051
75625W        W47951   6.356  17.565   0.498
75626W        W47952  32.425  27.621  14.513
75627W        W47953   3.527  38.998   1.973
75628W        W47954  26.701  28.138   4.134
75629W        W47955  22.775  44.397  11.041
75630W        W47956  41.038  15.367  13.237
75631W        W47957  23.561  31.085  12.917
75632W        W47958  26.407   4.503  10.016
75633W        W47959  32.040   5.915  12.089
75634W        W47960  34.812  28.805   2.747
75635W        W47961  36.113  37.044   4.557
75636W        W47962  18.156  21.627   4.151
75637W        W47963  44.057  30.016   0.413
75638W        W47964  31.502  34.070  12.070
75639W        W47965  13.667   2.393  13.068
75640W        W47966  14.073  31.188  11.525
75641W        W47967  16.359  32.390  13.855
75642W        W47968   1.217  36.546   3.199
75643W        W47969  18.948  15.803  12.182
75644W        W47970  40.147   9.559  10.755
75645W        W47971  19.020  34.964  10.581
75646W        W47972  16.868   6.394   1.554
75647W        W47973   0.395  41.942  11.675
75648W        W47974  36.750  36.410  12.393
75649W        W47975  34.807  36.451   0.758
75650W        W47976  10.427  18.075   3.583
75651W        W47977  19.185   7.402  13.492
75652W        W47978   0.932  23.270   3.372
75653W        W47979   3.283  26.517   5.029
75654W        W47980  34.605  14.244   9.829
75655W        W47981  17.681   9.181   4.205
75656W        W47982   4.310  18.741  12.379
75657W        W47983  43.581   1.381  12.400
75658W        W47984  36.213  12.793   5.208
75659W        W47985  42.609  29.420  11.031
75660W        W47986  20.528  26.719  14.537
75661W        W47987   9.720  10.205  13.474
75662W        W47988  39.977   8.955   0.250
75663W        W47989   0.872  27.287  12.773
75664W        W47990  19.739  35.286   3.636
75665W        W47991  22.618  26.164   0.367
75666W        W47992  32.942  44.870  11.371
75667W        W47993   5.828  29.034   3.768
75668W        W47994  21.193  42.000  12.631
75669W        W47995   9.376  26.082   0.250
75670W        W47996  16.564  15.536   0.435
75671W        W47997  32.115   1.734   3.540
75672W        W47998  19.364   0.176  12.576
75673W        W47999  21.374  25.870   1.683
75674W        W48000  11.226  26.366   5.160
75675W        W48001  24.154   9.487  13.299
75676W        W48002  20.561  36.359   0.684
75677W        W48003  43.982  40.639  13.573
75678W        W48004   9.195  26.496   0.481
75679W        W48005  43.868  42.833   0.479
75680W        W48006  36.954   6.561   3.367
75681W        W48007  41.740  35.844  14.437
75682W        W48008  28.283  38.931   2.432
75683W        W48009  22.820   8.283   9.851
75684W        W48010  17.505   5.702  13.425
75685W        W48011  27.850  43.605  12.489
75686W        W48012  23.001   7.329   3.221
75687W        W48013   2.552  20.306   1.404
75688W        W48014   5.861  14.680  14.732
75689W        W48015  36.328  36.496   0.803
75690W        W48016  22.261  37.354   9.987
75691W        W48017  30.264  27.107  13.954
75692W        W48018   9.253  11.375   1.687
75693W        W48019  40.295  31.841  11.548
75694W        W48020  38.583  10.891   3.331
75695W        W48021  22.798  37.656  12.486
75696W        W48022   2.197  37.538  14.831
75697W        W48023  15.705  39.216   0.446
75698W        W48024   7.850  40.693  10.807
75699W        W48025   7.690   4.396   4.874
75700W        W48026  35.120  42.562   3.496
75701W        W48027  42.819   1.194  14.739
75702W        W48028  33.957   8.323  14.840
75703W        W48029  25.386   4.294  14.455
75704W        W48030   1.362   2.082   5.181
75705W        W48031  21.621  42.260   2.786
75706W        W48032  10.208  20.262   4.525
75707W        W48033  17.262   3.178  12.128
75708W        W48034  34.689   4.168   2.596
75709W        W48035   1.774  32.006  14.457
75710W        W48036  42.477  33.450  13.746
75711W        W48037  30.361  39.607   3.378
75712W        W48038  27.055  33.940  14.316
75713W        W48039  42.218  13.774   2.654
75714W        W48040   7.992  27.563   3.800
75715W        W48041  24.819  27.275   2.378
75716W        W48042   8.753   3.699   3.684
75717W        W48043   1.161  24.588   0.199
75718W        W48044  33.571  26.647   3.654
75719W        W48045  42.416  22.926   0.837
75720W        W48046  40.012   1.423   4.049
75721W        W48047  36.510  17.779  11.949
75722W        W48048  44.464   2.556  11.097
75723W        W48049   8.259  18.654   0.505
75724W        W48050  11.237  31.820   0.061
75725W        W48051  42.766   3.832   4.231
75726W        W48052   7.492   4.806   0.444
75727W        W48053  15.564  43.383   3.724
75728W        W48054  27.228  33.182   3.924
75729W        W48055   8.086  30.894  13.802
75730W        W48056  29.392  40.218  12.775
75731W        W48057  29.913  40.300  11.543
75732W        W48058   4.332  16.851  12.771
75733W        W48059  25.209  29.398  12.122
75734W        W48060  44.458   4.532  14.104
75735W        W48061  37.483   8.098   3.671
75736W        W48062  26.424   8.046  12.896
75737W        W48063  37.298  18.858  10.758
75738W        W48064   0.701  11.695   0.854
75739W        W48065  10.237  17.622   0.067
75740W        W48066  10.667  28.176   3.966
75741W        W48067  25.361  29.635  11.242
75742W        W48068  17.052  25.469  12.959
75743W        W48069  18.629  13.218  11.046
75744W        W48070  43.770  42.421  10.639
75745W        W48071  15.859   0.515   1.143
75746W        W48072  23.094  25.129  11.411
75747W        W48073  10.341  36.879   4.618
75748W        W48074  35.747  40.346  13.989
75749W        W48075  40.415  35.443  14.840
75750W        W48076  18.499  14.233  13.088
75751W        W48077  12.889  41.372   1.916
75752W        W48078  36.013  30.685   2.227
75753W        W48079  17.045  30.362  11.680
75754W        W48080  31.066  40.278   2.781
75755W        W48081  17.126  18.690   2.853
75756W        W48082  24.640  28.196   3.793
75757W        W48083  36.451  15.407  11.863
75758W        W48084  16.625  35.391   2.271
75759W        W48085  11.350  38.597  10.608
75760W        W48086   9.249  27.022   0.381
75761W        W48087  18.634  38.878   4.054
75762W        W48088  13.351   3.824   3.635
75763W        W48089  43.312  10.374  11.871
75764W        W48090  14.473  32.261   9.943
75765W        W48091  11.721  44.336   9.983
75766W        W48092  14.816   8.710  11.584
75767W        W48093  33.169  23.226   4.522
75768W        W48094   3.894   1.721   2.781
75769W        W48095  17.202  38.110   3.463
75770W        W48096  36.815  31.712   1.305
75771W        W48097  11.530  37.171  11.139
75772W        W48098  41.084  39.048  13.488
75773W        W48099  32.363  27.664   3.248
75774W        W48100   4.808  17.273   4.921
75775W        W48101   7.980  24.195  13.409
75776W        W48102  38.970  34.865  12.099
75777W        W48103  32.645  39.560   3.330
75778W        W48104  34.536  39.091   1.026
75779W        W48105  11.619  39.967  11.696
75780W        W48106   0.814  30.479  10.985
75781W        W48107  24.255  26.735  11.182
75782W        W48108   5.181  15.074   4.061
75783W        W48109  36.033  19.666  13.861
75784W        W48110  24.067  44.000   0.161
75785W        W48111  39.815   9.758   3.928
75786W        W48112  31.025  26.142   1.474
75787W        W48113  41.055  35.665  13.134
75788W        W48114  19.029   3.232   5.092
75789W        W48115  13.377   9.213   0.845
75790W        W48116  28.562  14.720   2.124
75791W        W48117  40.127  28.055   2.755
75792W        W48118  27.018   1.529  13.051
75793W        W48119  22.534   4.302   2.792
75794W        W48120   4.586   1.844   1.402
75795W        W48121  31.057   7.365  14.576
75796W        W48122  36.115  35.344   1.526
75797W        W48123  36.927  43.846  10.907
75798W        W48124  43.827  13.098  11.507
75799W        W48125  28.914  18.728  10.658
75800W        W48126  18.661  28.428   4.647
75801W        W48127  11.128  27.654  10.720
75802W        W48128  36.153  13.668  11.562
75803W        W48129   5.710  39.497   4.168
75804W        W48130  10.862   2.073   1.715
75805W        W48131  38.596  41.144   3.983
75806W        W48132  11.220   7.302   1.552
75807W        W48133  16.881  14.640   1.818
75808W        W48134  35.966  20.796  12.808
75809W        W48135  14.016  34.515   1.517
75810W        W48136  19.181  19.153   1.718
75811W        W48137  34.939  25.115   0.201
75812W        W48138  24.983  16.327   2.263
75813W        W48139  31.160  43.490  12.997
75814W        W48140  32.439  41.844   2.809
75815W        W48141  38.399  22.163  14.217
75816W        W48142  42.783  19.755  13.132
75817W        W48143  26.312  39.084  10.688
75818W        W48144  41.254   4.340   1.882
75819W        W48145  30.373  40.029   4.119
75820W        W48146  27.586  31.672   4.726
75821W        W48147  32.942   2.134  14.491
75822W        W48148  33.069   1.116  10.608
75823W        W48149  15.825  36.983  10.476
75824W        W48150  36.292  43.936   4.163
75825W        W48151   7.912  36.526  14.438
75826W        W48152  44.512  38.350   2.713
75827W        W48153  28.643  34.575  12.008
75828W        W48154   7.776  14.863  13.097
75829W        W48155  43.954  26.180   0.404
75830W        W48156  28.193  34.884  12.068
75831W        W48157  27.089  15.859   3.334
75832W        W48158   5.338  44.102   1.485
75833W        W48159  22.911  27.201  14.957
75834W        W48160  14.841  20.433   4.224
75835W        W48161  17.184  33.766  14.860
75836W        W48162   6.433  44.883   1.092
75837W        W48163  23.197  43.523   2.912
75838W        W48164  43.797  20.081  14.280
75839W        W48165   4.143  39.455  13.510
75840W        W48166  32.926  42.568   1.850
75841W        W48167   9.671   0.973   1.640
75842W        W48168  34.955  23.126   4.096
75843W        W48169  29.597  34.929  11.005
75844W        W48170  16.126   3.670  11.166
75845W        W48171   2.313  18.266  14.580
75846W        W48172  39.934  38.868  14.553
75847W        W48173  30.858  26.981   0.031
75848W        W48174  15.588  28.854  10.448
75849W        W48175  40.803  37.921  13.482
75850W        W48176  10.249  20.088   1.429
75851W        W48177   3.240  34.405   0.719
75852W        W48178   4.684  30.240   3.146
75853W        W48179  31.507   3.307  12.409
75854W        W48180  22.418   2.436   0.808
75855W        W48181  27.505  20.181  12.558
75856W        W48182  27.094  23.042  13.312
75857W        W48183   8.947   0.732   4.538
75858W        W48184  32.938  40.071   4.656
75859W        W48185  34.305  41.707  12.033
75860W        W48186  16.588  27.646  11.036
75861W        W48187  44.332  31.507  13.349
75862W        W48188  11.747  28.923  13.955
75863W        W48189  22.264  17.035  14.917
75864W        W48190   3.896  16.680  11.258
75865W        W48191  32.409  30.462   1.952
75866W        W48192  20.811  35.354  14.849
75867W        W48193  34.389  44.812  11.695
75868W        W48194  23.673   6.996  14.562
75869W        W48195  39.715  20.221   2.946
75870W        W48196  17.573  13.801   0.135
75871W        W48197   4.937  12.002   2.334
75872W        W48198  10.678   8.536  12.923
75873W        W48199  28.591  22.754  12.090
75874W        W48200  12.327  41.210   4.458
75875W        W48201  22.034   7.852   1.507
75876W        W48202  24.515  19.742  13.976
75877W        W48203  19.965  26.891   5.050
75878W        W48204  28.011   4.169  10.195
75879W        W48205  41.271  32.467  11.048
75880W        W48206   6.464   5.271   3.612
75881W        W48207  35.245  38.839  11.090
75882W        W48208   1.047  21.470  13.023
75883W        W48209  11.211  44.319  12.531
75884W        W48210  24.550  18.111  12.960
75885W        W48211  35.406  39.767  14.531
75886W        W48212  27.089  25.496   0.821
75887W        W48213  37.943  29.126  14.757
75888W        W48214  32.708  37.417   3.180
75889W        W48215  10.457   2.183  12.739
75890W        W48216  43.776   0.247  11.553
75891W        W48217  28.944  41.552  11.954
75892W        W48218  22.933  38.370  10.471
75893W        W48219  39.751  37.401  13.300
75894W        W48220  28.164  14.491   0.880
75895W        W48221  16.123  22.637   3.883
75896W        W48222  16.883  21.570  13.430
75897W        W48223  25.768   0.684  12.518
75898W        W48224   2.268   7.323   2.123
75899W        W48225   1.938  22.552   4.148
75900W        W48226  11.363  37.484   1.423
75901W        W48227  43.205   2.432   2.189
75902W        W48228   9.786   1.557  10.476
75903W        W48229   3.795  10.882   3.726
75904W        W48230  15.657   5.898   0.823
75905W        W48231  14.506  37.103   4.238
75906W        W48232  30.898  43.402  10.401
75907W        W48233  12.610   4.043  12.319
75908W        W48234  13.567   3.139   0.014
75909W        W48235  18.010  32.711  10.363
75910W        W48236   0.938  25.416   3.353
75911W        W48237  39.611  34.963   4.107
75912W        W48238  26.670  37.890  14.744
75913W        W48239  19.014  11.844   0.493
75914W        W48240  40.538  34.795   2.884
75915W        W48241  16.381  39.873   2.293
75916W        W48242  25.471  20.735   3.707
75917W        W48243  38.861  14.188  11.562
75918W        W48244  40.527  37.534   4.743
75919W        W48245  10.417  42.373  11.170
75920W        W48246  42.306   6.396  10.845
75921W        W48247  34.537  22.677   0.410
75922W        W48248  12.372  12.391   3.338
75923W        W48249  34.633  34.869   4.122
75924W        W48250  37.356  43.758   0.742
75925W        W48251  27.198  25.247   1.511
75926W        W48252  41.645   0.574   0.084
75927W        W48253   3.329  29.942   4.867
75928W        W48254  28.671  16.710  14.517
75929W        W48255  35.853  24.433  10.723
75930W        W48256  25.452  24.041   1.017
75931W        W48257  17.592   9.685   3.421
75932W        W48258  22.700  25.325  14.447
75933W        W48259  41.938  30.991   4.853
75934W        W48260  37.044   2.173   1.927
75935W        W48261   2.653  37.639   4.186
75936W        W48262  16.902  33.930   4.797
75937W        W48263  20.678  25.050  12.887
75938W        W48264   4.027  23.312   9.906
75939W        W48265   0.674  21.210  14.960
75940W        W48266  15.269  20.312  11.875
75941W        W48267   1.853  29.451   0.548
75942W        W48268  25.903  25.101   0.677
75943W        W48269  21.078   4.323   0.450
75944W        W48270  36.632  43.993  13.768
75945W        W48271  42.621  10.087   4.013
75946W        W48272  34.873  33.019  13.836
75947W        W48273  17.068  30.329   0.074
75948W        W48274   9.269  42.354   1.700
75949W        W48275  35.055  34.075  13.103
75950W        W48276   3.848   3.847   3.836
75951W        W48277  39.791  33.094   2.197
75952W        W48278  12.273  11.751  13.417
75953W        W48279  34.550  18.829  14.357
75954W        W48280  27.640  23.221   4.158
75955W        W48281  12.388  30.044   4.515
75956W        W48282  21.697  35.107   0.308
75957W        W48283  21.226  15.042  11.544
75958W        W48284  19.631  10.280   2.333
75959W        W48285  42.839  16.926   9.959
75960W        W48286  27.468  28.126   4.562
75961W        W48287  25.645  16.593  11.386
75962W        W48288  21.712  41.066   1.337
75963W        W48289   4.239  21.120   3.906
75964W        W48290  23.727  15.349   2.240
75965W        W48291   3.087   0.197   2.597
75966W        W48292  35.081  26.915  14.762
75967W        W48293  44.301   1.300  14.866
75968W        W48294  36.874  29.195   1.254
75969W        W48295  42.756  19.703   2.306
75970W        W48296  16.889  23.385   2.489
75971W        W48297  21.960   9.660  11.531
75972W        W48298  43.085  23.660   2.265
75973W        W48299  41.548  10.339  12.912
75974W        W48300  19.260   8.799   1.409
75975W        W48301  43.694   3.655   1.684
75976W        W48302  15.083  34.575   3.233
75977W        W48303  44.251  38.363  12.412
75978W        W48304   1.676   4.294   0.698
75979W        W48305  39.370  44.207  14.196
75980W        W48306  44.401  28.463   0.441
75981W        W48307   9.383  40.398  11.690
75982W        W48308  37.831   6.667  12.109
75983W        W48309  26.909  18.191   2.905
75984W        W48310  16.784  36.127  13.976
75985W        W48311  11.202  39.355  12.630
75986W        W48312  31.638  41.339  12.405
75987W        W48313  39.914  17.927  11.876
75988W        W48314   3.701  32.893   1.406
75989W        W48315  34.535  19.232   3.653
75990W        W48316   4.240   0.246   4.169
75991W        W48317  38.450  26.028   0.006
75992W        W48318  10.429  40.447   2.682
75993W        W48319  37.268   9.817   4.182
75994W        W48320   1.031   4.673   4.115
75995W        W48321  12.279   8.421  10.559
75996W        W48322  15.036  41.929  13.608
75997W        W48323  26.691  26.208  12.956
75998W        W48324  29.500  34.896   4.075
75999W        W48325  38.407   9.738  12.008
76000W        W48326   2.594  19.638   1.857
76001W        W48327  33.060  11.630   3.854
76002W        W48328  12.302  10.624   4.967
76003W        W48329  42.918  14.067  12.101
76004W        W48330  19.028  35.217  13.675
76005W        W48331  29.843  42.386   1.093
76006W        W48332  31.682   9.159  12.052
76007W        W48333   9.764  30.627   4.205
76008W        W48334  18.702  40.012   0.780
76009W        W48335  13.387  30.183  12.395
76010W        W48336  20.602  30.526  11.159
76011W        W48337  12.778  14.807  14.772
76012W        W48338  44.040  23.326   2.572
76013W        W48339   9.158  17.266  11.636
76014W        W48340  16.064  14.430  13.946
76015W        W48341  11.601  35.420   0.701
76016W        W48342  23.530  35.776   1.987
76017W        W48343  24.149  34.918  10.381
76018W        W48344  35.770  18.807   4.482
76019W        W48345  39.044   6.687  12.985
76020W        W48346  29.844  22.045  11.217
76021W        W48347  30.158  18.103  11.102
76022W        W48348  27.438  25.643   4.424
76023W        W48349   9.785  17.038   1.574
76024W        W48350  33.929   5.263  13.018
76025W        W48351   3.395  12.026   4.120
76026W        W48352  26.713  29.122  13.388
76027W        W48353   6.904  14.652   0.414
76028W        W48354   5.483  41.834   4.055
76029W        W48355   7.268  19.638   2.006
76030W        W48356   0.176   2.650   5.025
76031W        W48357  37.469  42.527  10.734
76032W        W48358  15.393  41.777   0.318
76033W        W48359  39.727   9.486   3.083
76034W        W48360   2.150   4.375  13.388
76035W        W48361  39.915  36.938  13.951
76036W        W48362   5.178  20.950   1.443
76037W        W48363  43.018   3.837  14.982
76038W        W48364  21.321  35.346  14.937
76039W        W48365  13.208   1.166  10.686
76040W        W48366  17.575   0.983  10.735
76041W        W48367  15.740  39.353   3.831
76042W        W48368  41.875  14.771  11.187
76043W        W48369  25.645   7.831  10.729
76044W        W48370  44.768  22.975   0.965
76045W        W48371  24.342  15.550  12.062
76046W        W48372  20.035  20.157   4.899
76047W        W48373  20.104  14.017  14.779
76048W        W48374   5.923   6.445   0.672
76049W        W48375  24.164  43.935   0.680
76050W        W48376  43.000  13.673   2.024
76051W        W48377  30.868  29.145   2.294
76052W        W48378  17.058  43.455  13.985
76053W        W48379  12.917  31.466  11.577
76054W        W48380  34.831   2.258  10.709
76055W        W48381  37.533   8.847  12.566
76056W        W48382  27.547  37.980  10.694
76057W        W48383  35.652  10.883   3.204
76058W        W48384  40.389  38.285  12.564
76059W        W48385  11.705   6.854  13.625
76060W        W48386   5.487  29.124  13.775
76061W        W48387  25.755  23.152   4.459
76062W        W48388  41.531  19.265  12.885
76063W        W48389  24.737  12.753  11.351
76064W        W48390  16.692  34.357   4.578
76065W        W48391  33.048   9.324  14.811
76066W        W48392  26.440  31.041   3.342
76067W        W48393  12.001   7.251   2.226
76068W        W48394  15.854  20.477   0.509
76069W        W48395  22.001  37.346   4.940
76070W        W48396  40.131  18.828  10.756
76071W        W48397  21.195  30.350  12.918
76072W        W48398   3.709  21.753   2.179
76073W        W48399  14.210  34.186  11.035
76074W        W48400  31.449   8.419   2.823
76075W        W48401  37.981  41.412  11.724
76076W        W48402  18.867   7.780   1.622
76077W        W48403  36.530  29.623  12.570
76078W        W48404  29.669  27.430  14.947
76079W        W48405   7.127  26.156   3.643
76080W        W48406  41.970   0.203   1.374
76081W        W48407  35.479  10.661   4.956
76082W        W48408  21.326  21.263   3.657
76083W        W48409  10.802   4.186   3.175
76084W        W48410  40.271  41.289   1.045
76085W        W48411   9.349   8.697   4.111
76086W        W48412  33.892  36.393   0.785
76087W        W48413  25.759  25.065  14.348
76088W        W48414  30.057  27.772   9.679
76089W        W48415  25.561   7.638   4.127
76090W        W48416  40.579  24.101   3.746
76091W        W48417  38.840  12.103  12.536
76092W        W48418   8.829  35.311   4.080
76093W        W48419  36.802   8.636  13.866
76094W        W48420  12.353   5.171   2.336
76095W        W48421  11.056   2.663  11.332
76096W        W48422  36.367  23.888  14.872
76097W        W48423  41.821  24.698   4.377
76098W        W48424  43.246  33.038  13.831
76099W        W48425   8.086   4.304  10.813
76100W        W48426  24.108  20.297   2.868
76101W        W48427  27.904  33.564  10.315
76102W        W48428  35.440  39.261  11.826
76103W        W48429  35.371  33.444   9.859
76104W        W48430  27.089  43.844  14.900
76105W        W48431  41.299  18.222   1.652
76106W        W48432  11.875  21.028   1.987
76107W        W48433  22.600  40.305   3.448
76108W        W48434   3.978  32.413  13.370
76109W        W48435   1.342  22.669  11.616
76110W        W48436  20.095  29.873   2.700
76111W        W48437  31.387  31.036   4.143
76112W        W48438  12.608   9.777   1.687
76113W        W48439  26.056  20.261  10.657
76114W        W48440  34.112   8.710  12.495
76115W        W48441  36.648  38.152  11.907
76116W        W48442  19.306  37.440  11.059
76117W        W48443  19.298  20.793   1.026
76118W        W48444   3.553  41.452  13.649
76119W        W48445   9.381  17.805   4.714
76120W        W48446   4.228  30.224   0.580
76121W        W48447  43.282   1.657  13.968
76122W        W48448   4.281  44.574  11.902
76123W        W48449  28.195  33.579  10.740
76124W        W48450  20.255   4.865   3.523
76125W        W48451   8.394  28.072  13.510
76126W        W48452  32.376  28.462  12.477
76127W        W48453  14.587   7.683  13.907
76128W        W48454  12.079  40.531  13.845
76129W        W48455  30.167  21.032   0.789
76130W        W48456  35.036  24.382   4.619
76131W        W48457  21.274  13.898   0.319
76132W        W48458  40.822  36.522   2.913
76133W        W48459  34.991  17.147  11.208
76134W        W48460  25.542  22.775  12.620
76135W        W48461  43.480  23.617  12.619
76136W        W48462   3.065  16.005  13.950
76137W        W48463  24.811  11.857   2.678
76138W        W48464  22.321  18.066  14.854
76139W        W48465  33.383  33.398   1.167
76140W        W48466  34.042  41.298  12.863
76141W        W48467  19.350   8.342  14.355
76142W        W48468  16.565  29.049   4.403
76143W        W48469  15.652   8.669   3.023
76144W        W48470  22.451  14.202   4.233
76145W        W48471  33.236  18.316  14.517
76146W        W48472   6.486  18.002   1.446
76147W        W48473  37.975  32.557  11.842
76148W        W48474   4.751  40.826  13.891
76149W        W48475  34.726  24.062  12.343
76150W        W48476   8.367  44.492   4.265
76151W        W48477  29.099  16.955  14.447
76152W        W48478   0.166  19.581   0.566
76153W        W48479  35.315  41.027   2.805
76154W        W48480   8.939  27.473   1.451
76155W        W48481   2.743   8.807   3.167
76156W        W48482  36.225  19.608  11.648
76157W        W48483  39.901   4.270   4.591
76158W        W48484   3.991  17.254  12.497
76159W        W48485  30.630  14.006  13.857
76160W        W48486  32.688  31.497  13.525
76161W        W48487  26.697  41.762   1.370
76162W        W48488   5.372  40.714  12.611
76163W        W48489  21.100  14.580  10.635
76164W        W48490  27.641  38.551   4.233
76165W        W48491   9.807  42.031   3.210
76166W        W48492  34.383  26.524  11.517
76167W        W48493   2.689  34.010   0.367
76168W        W48494  10.150   3.868  11.805
76169W        W48495  16.269  39.558   2.714
76170W        W48496   0.281  10.300  14.336
76171W        W48497  10.074  16.119   2.391
76172W        W48498  22.330  28.569   1.638
76173W        W48499  31.128  34.909  11.072
76174W        W48500   0.541  27.937  13.888
76175W        W48501  32.907  11.572  13.980
76176W        W48502  33.445  28.565  13.797
76177W        W48503  25.696   9.927   0.385
76178W        W48504  14.265  38.480  11.680
76179W        W48505   4.848  34.956   2.642
76180W        W48506  41.368  38.366  13.998
76181W        W48507  36.558  17.547   0.514
76182W        W48508  24.615  26.388   4.146
76183W        W48509  44.536  36.405   0.376
76184W        W48510  43.442  31.162   1.665
76185W        W48511  43.968   3.315   4.103
76186W        W48512  31.965   7.223   3.672
76187W        W48513  34.872  16.241   0.872
76188W        W48514   9.816   4.786   1.364
76189W        W48515  21.236  43.502   1.364
76190W        W48516  44.488  40.926  12.634
76191W        W48517  37.003  23.280   2.813
76192W        W48518  32.141  37.435   0.368
76193W        W48519  27.167  16.142   1.899
76194W        W48520  26.038  12.187   0.300
76195W        W48521  36.473  34.134  14.607
76196W        W48522  10.792   3.661   3.188
76197W        W48523   3.836  28.890  10.783
76198W        W48524  37.917   5.188   3.740
76199W        W48525  36.136  17.812   2.740
76200W        W48526  37.845  44.990   4.152
76201W        W48527  14.254  23.436   0.702
76202W        W48528  41.663   5.156   3.603
76203W        W48529  44.419  28.236  12.528
76204W        W48530  31.947  43.672  13.491
76205W        W48531  16.669  44.263  11.603
76206W        W48532  42.932  36.807   2.551
76207W        W48533   7.210   4.843  11.493
76208W        W48534  11.087  12.225   4.246
76209W        W48535  38.054  11.178  10.905
76210W        W48536   8.692  37.490   2.896
76211W        W48537   3.927  41.095  12.889
76212W        W48538  21.564   9.339   1.199
76213W        W48539  11.290  11.812   2.901
76214W        W48540  29.443  19.700  10.639
76215W        W48541  39.159  39.346  11.433
76216W        W48542  16.217  34.434  11.592
76217W        W48543  37.286  32.975  13.044
76218W        W48544  39.520  18.154   4.258
76219W        W48545   3.197  38.904  13.989
76220W        W48546  41.733  11.395   2.938
76221W        W48547   4.853  13.655  13.916
76222W        W48548  11.353   1.665  13.573
76223W        W48549  24.271   8.190  11.006
76224W        W48550  12.182   9.552  12.802
76225W        W48551  41.607  23.710   4.607
76226W        W48552  32.396  30.327   2.959
76227W        W48553   3.159  37.432  11.596
76228W        W48554  37.349   3.461   4.510
76229W        W48555  32.042  36.868  10.688
76230W        W48556  20.059  10.262  13.012
76231W        W48557  43.845   2.331  11.488
76232W        W48558   8.335  15.274   3.301
76233W        W48559  12.275  41.999   0.458
76234W        W48560  36.837  12.362   4.099
76235W        W48561  38.243  29.075   2.303
76236W        W48562  12.362  21.319   1.268
76237W        W48563  22.942  38.213   4.118
76238W        W48564   0.706  27.481  11.558
76239W        W48565  38.894  19.411   2.211
76240W        W48566  21.204  33.937  11.897
76241W        W48567  38.395  25.889   4.813
76242W        W48568  12.604   2.675  11.600
76243W        W48569  33.999   1.054  14.759
76244W        W48570  44.424  25.891  10.754
76245W        W48571  14.367  38.553   0.549
76246W        W48572  23.948   3.356  13.514
76247W        W48573  28.906   8.443   3.699
76248W        W48574  19.677   8.913  14.060
76249W        W48575  18.092   0.670   2.215
76250W        W48576  15.728  42.033  14.352
76251W        W48577   4.775  15.314  14.460
76252W        W48578  26.139  42.007  10.482
76253W        W48579   0.381  22.270   5.003
76254W        W48580  28.848  44.246  12.956
76255W        W48581  22.245  18.161   2.244
76256W        W48582  34.394   5.650   2.185
76257W        W48583   0.880  23.753  13.561
76258W        W48584   7.382  39.506   1.588
76259W        W48585  26.876  32.860  14.519
76260W        W48586  37.819   1.008  12.078
76261W        W48587  27.227  26.965  11.596
76262W        W48588  29.968  39.288   2.608
76263W        W48589   8.151   7.344   1.356
76264W        W48590  29.122  18.174   3.359
76265W        W48591  23.078  20.814   4.993
76266W        W48592  40.437  27.070  11.714
76267W        W48593  15.569  17.050  13.483
76268W        W48594  17.522  14.835   0.334
76269W        W48595  39.879  27.938   3.198
76270W        W48596  27.724  11.683   0.016
76271W        W48597  37.311  11.680  11.057
76272W        W48598  34.465   9.629  13.425
76273W        W48599  21.601   9.055  13.401
76274W        W48600  38.327  17.870  10.649
76275W        W48601  32.741   4.389  13.618
76276W        W48602  36.073  20.768   0.136
76277W        W48603  27.319  24.310   4.824
76278W        W48604   1.432  32.358   3.446
76279W        W48605  16.023  17.812  11.390
76280W        W48606   3.337   9.724   4.472
76281W        W48607  13.717  26.951   0.338
76282W        W48608  11.005   7.718  14.109
76283W        W48609   5.430  29.938   1.833
76284W        W48610  44.781  31.153  12.046
76285W        W48611  11.737  39.400  14.906
76286W        W48612  11.222  13.241  14.339
76287W        W48613  38.857  25.718  13.361
76288W        W48614  38.064   2.420   0.377
76289W        W48615  10.282  30.832   4.241
76290W        W48616  22.776  33.552  14.652
76291W        W48617   1.622  11.665   0.386
76292W        W48618  42.599  16.360  14.436
76293W        W48619   4.045  23.196  11.355
76294W        W48620  40.784  20.311   1.876
76295W        W48621  14.145  11.813   1.407
76296W        W48622  28.013  29.133   0.129
76297W        W48623  13.247  32.232   4.982
76298W        W48624   2.344  11.113   4.178
76299W        W48625  20.305   4.128   2.835
76300W        W48626  39.697   1.410   4.472
76301W        W48627  12.359  16.206  10.607
76302W        W48628  35.866  39.580   2.334
76303W        W48629  35.176  13.572  11.631
76304W        W48630  17.123  40.040  11.045
76305W        W48631  41.210   1.666   1.211
76306W        W48632   8.764  28.116   2.251
76307W        W48633  22.252   8.734  11.957
76308W        W48634   6.415   4.380   0.850
76309W        W48635  37.378  15.143  13.764
76310W        W48636  38.530  30.093  10.745
76311W        W48637  16.207  11.330   2.769
76312W        W48638  33.954  35.194   5.393
76313W        W48639  44.734  43.034  10.442
76314W        W48640   1.737  24.001  12.180
76315W        W48641  15.231  40.645   2.085
76316W        W48642  35.097  13.655  14.004
76317W        W48643  25.965  29.647   3.740
76318W        W48644   5.046  20.802   4.376
76319W        W48645  44.322   5.195   3.530
76320W        W48646  40.760  30.688  12.180
76321W        W48647  42.515   5.326   2.212
76322W        W48648  38.277   5.373  14.567
76323W        W48649   8.692   0.889  14.901
76324W        W48650  23.009  38.864  13.739
76325W        W48651  11.976  28.362   4.594
76326W        W48652  26.750  44.746  12.112
76327W        W48653  34.075  14.799   0.060
76328W        W48654   6.322  25.611   4.598
76329W        W48655   5.827   0.113  11.435
76330W        W48656  25.504  20.933   2.380
76331W        W48657   4.302  10.289  12.552
76332W        W48658  24.011  22.180  13.171
76333W        W48659  15.221  21.562  11.007
76334W        W48660  38.494  22.987   1.819
76335W        W48661  32.873   2.985  11.115
76336W        W48662  44.020  41.054  10.424
76337W        W48663  12.070   2.538   3.135
76338W        W48664   5.274  34.379   5.137
76339W        W48665  17.349  37.839  13.081
76340W        W48666  25.522   2.497  12.828
76341W        W48667  23.967   7.347   3.643
76342W        W48668  39.274   7.779   3.700
76343W        W48669  25.379  15.023   0.643
76344W        W48670  29.634  38.580   3.324
76345W        W48671  25.260   1.821  12.524
76346W        W48672   7.691  30.891  12.404
76347W        W48673  34.888  24.618  14.985
76348W        W48674  41.565   0.475   4.100
76349W        W48675   7.602   1.211   3.989
76350W        W48676  23.035  25.137   0.980
76351W        W48677  23.956  36.941  10.612
76352W        W48678   5.771  27.008  11.940
76353W        W48679  27.945  43.941   1.654
76354W        W48680   4.892   1.998   1.831
76355W        W48681  10.771  29.705  13.539
76356W        W48682  36.495  32.448   0.528
76357W        W48683  27.750  29.784  14.385
76358W        W48684  26.900   6.685   1.445
76359W        W48685  43.540  42.913  11.116
76360W        W48686   9.503  15.012  14.878
76361W        W48687  24.809  13.766   4.454
76362W        W48688  27.929  33.134   4.707
76363W        W48689   0.672  23.072   9.806
76364W        W48690  35.130  35.004   5.031
76365W        W48691  17.646  40.521   2.142
76366W        W48692  27.675   4.772  11.724
76367W        W48693   3.696  22.233   1.256
76368W        W48694  15.625  36.409   1.359
76369W        W48695  34.061   4.815  14.746
76370W        W48696  32.373  20.775   1.451
76371W        W48697  19.242  41.356  11.078
76372W        W48698  22.257  30.082  10.484
76373W        W48699  34.838  29.797   3.701
76374W        W48700  44.944  34.632  11.790
76375W        W48701  18.057  42.328  14.373
76376W        W48702  43.222  22.976   1.400
76377W        W48703  10.859  33.209   0.382
76378W        W48704  29.042  11.638   2.279
76379W        W48705  18.683  17.297  13.888
76380W        W48706  14.110  29.575   3.616
76381W        W48707  28.553  30.225  14.927
76382W        W48708  28.832  14.080  11.614
76383W        W48709   3.978  10.818  13.374
76384W        W48710  21.702   8.731   3.690
76385W        W48711  21.489   7.757   3.160
76386W        W48712  20.700  26.940   0.908
76387W        W48713  44.204  36.114   2.216
76388W        W48714  18.685  29.498  13.728
76389W        W48715  41.415  20.812   3.018
76390W        W48716  44.217  39.034  13.510
76391W        W48717   3.814  23.294  12.634
76392W        W48718  21.993   0.979  12.999
76393W        W48719  15.592  22.149  13.844
76394W        W48720  20.969  34.190  14.104
76395W        W48721  38.308   9.996  11.566
76396W        W48722   0.088  27.120   4.904
76397W        W48723  28.519  26.373   3.092
76398W        W48724   1.105  10.908  14.833
76399W        W48725  26.302  16.017   4.339
76400W        W48726  20.295  24.069  14.227
76401W        W48727  31.985   1.970  13.754
76402W        W48728  24.223  37.330   9.716
76403W        W48729  22.252   6.788  14.001
76404W        W48730  23.494  21.574  13.829
76405W        W48731  12.289  24.471   1.427
76406W        W48732  28.389  44.287   3.431
76407W        W48733  23.113  17.178   1.309
76408W        W48734  35.995  40.644  11.597
76409W        W48735  12.379  13.882   2.350
76410W        W48736   7.350  44.662  10.443
76411W        W48737   7.309  40.128  12.391
76412W        W48738  37.911   4.575   2.302
76413W        W48739  15.477  41.218  10.740
76414W        W48740   4.406  31.145  11.494
76415W        W48741  43.512  15.961   2.349
76416W        W48742   2.951  11.276   2.353
76417W        W48743  24.407  10.871  12.641
76418W        W48744  11.566  33.385   5.063
76419W        W48745  41.896   4.176   0.717
76420W        W48746  18.761  42.496   2.524
76421W        W48747  34.044  43.237   1.906
76422W        W48748  35.441  25.452   0.220
76423W        W48749  42.049  36.067   3.016
76424W        W48750   7.464  25.578  10.646
76425W        W48751  21.319   8.479  12.828
76426W        W48752  12.688  28.871  10.953
76427W        W48753   7.857   4.824   1.697
76428W        W48754  33.960   1.329  14.312
76429W        W48755  29.057   4.720   3.062
76430W        W48756  42.272  17.539   2.881
76431W        W48757   7.159  39.859  13.327
76432W        W48758  30.665   2.197  11.030
76433W        W48759  41.869  42.261   1.389
76434W        W48760   1.793   4.420   9.732
76435W        W48761  15.483  34.256   3.133
76436W        W48762   2.798  31.816  11.146
76437W        W48763   9.452  27.707   2.646
76438W        W48764  14.293  35.875   5.488
76439W        W48765  29.871  28.184  10.764
76440W        W48766   0.756   1.861  12.360
76441W        W48767   0.816   8.464  13.833
76442W        W48768   6.646  13.066  11.202
76443W        W48769  12.696   2.353   3.771
76444W        W48770  29.534  35.882   1.771
76445W        W48771   0.452   8.893   0.635
76446W        W48772  27.896   1.051  10.564
76447W        W48773  16.176  19.704  14.219
76448W        W48774   9.267   3.512  14.002
76449W        W48775  37.040  28.986   3.494
76450W        W48776  40.401  23.329   3.242
76451W        W48777  22.588  11.274  10.651
76452W        W48778  23.076  35.001  11.618
76453W        W48779  10.845  22.620  14.600
76454W        W48780  32.933  31.701  12.100
76455W        W48781   6.356  15.887  11.293
76456W        W48782  10.956  34.484  14.737
76457W        W48783  24.458  43.557  12.576
76458W        W48784  31.012   0.896  10.690
76459W        W48785   9.079  14.842  12.961
76460W        W48786  44.023   7.152  12.496
76461W        W48787  19.748  29.655   4.376
76462W        W48788  40.192  42.871   3.709
76463W        W48789  24.165  31.604   4.128
76464W        W48790  14.201  24.591   3.300
76465W        W48791  27.736  37.335   1.338
76466W        W48792   2.747  18.497  14.830
76467W        W48793  25.723  44.480   4.019
76468W        W48794  10.357  17.283  13.329
76469W        W48795  44.382   2.063  13.227
76470W        W48796   6.655  12.269   4.809
76471W        W48797   2.512  17.598   3.793
76472W        W48798  26.245  32.300  10.981
76473W        W48799  41.245   9.227  11.168
76474W        W48800   0.993  17.357  11.367
76475W        W48801  39.573  39.455  11.923
76476W        W48802  28.368   4.366  12.023
76477W        W48803  29.981  14.878   4.146
76478W        W48804  42.345  19.705  13.822
76479W        W48805  33.894  18.952  12.639
76480W        W48806  16.501   1.977  11.515
76481W        W48807  39.552  16.762  14.845
76482W        W48808   1.778  25.380   3.697
76483W        W48809  24.045  40.776  13.051
76484W        W48810  30.592   8.001  13.578
76485W        W48811  19.163  42.240   2.802
76486W        W48812   0.353  31.701  14.250
76487W        W48813  15.696  30.691   1.215
76488W        W48814  29.438   3.962  12.520
76489W        W48815  42.065   7.463   1.771
76490W        W48816  35.311  43.716  14.605
76491W        W48817  13.325   8.384  11.047
76492W        W48818  38.024   0.923   0.164
76493W        W48819   0.183  16.606  12.613
76494W        W48820  35.051  37.804  14.867
76495W        W48821   7.185  44.800   2.390
76496W        W48822  27.692  38.110  12.064
76497W        W48823  26.091  18.693   2.741
76498W        W48824   7.454  25.473   2.417
76499W        W48825  38.905  24.095  10.294
76500W        W48826  21.212   1.700   0.910
76501W        W48827   5.419   5.882   4.912
76502W        W48828  18.135  13.593   0.300
76503W        W48829   7.906  21.195  10.088
76504W        W48830  19.709  26.897   1.991
76505W        W48831  14.594  31.804   1.189
76506W        W48832   4.227  40.256   3.472
76507W        W48833  21.700  36.365   2.940
76508W        W48834   3.534   9.003   5.475
76509W        W48835   9.817   4.137  12.560
76510W        W48836  41.394  31.165  12.315
76511W        W48837  44.492  26.148  13.524
76512W        W48838  21.504   0.216  11.824
76513W        W48839  16.005  36.800   2.839
76514W        W48840  38.758  27.102  13.750
76515W        W48841  40.690  42.413  11.213
76516W        W48842  31.452  11.674   2.671
76517W        W48843  37.946  31.647   4.730
76518W        W48844  43.337  26.021  13.096
76519W        W48845  13.255  34.517  14.381
76520W        W48846  37.204   7.277  12.827
76521W        W48847  10.916  18.799   0.258
76522W        W48848  43.758  11.393  12.205
76523W        W48849  33.644   7.753  13.408
76524W        W48850  11.536   4.247   2.491
76525W        W48851  24.468  21.062  14.474
76526W        W48852  20.022  43.749  13.472
76527W        W48853  41.565  42.009  10.861
76528W        W48854   6.647  29.378   3.630
76529W        W48855  29.457  38.828  13.067
76530W        W48856  20.560   5.154   2.877
76531W        W48857  33.936  20.302  10.799
76532W        W48858  18.398  24.704   4.554
76533W        W48859  14.840   0.066   3.702
76534W        W48860   1.163  32.530   0.120
76535W        W48861  19.929   8.756   5.043
76536W        W48862   7.916   1.800  10.601
76537W        W48863  41.962  29.648   0.850
76538W        W48864  18.094  42.332  13.552
76539W        W48865  40.211  27.989   1.373
76540W        W48866  11.815  19.423  11.233
76541W        W48867  17.079  24.154  12.746
76542W        W48868   2.411  28.373   2.006
76543W        W48869  26.629  14.604  13.920
76544W        W48870   1.398   1.407   3.939
76545W        W48871  21.419  27.443   4.048
76546W        W48872  32.134  17.703  11.947
76547W        W48873  22.701  10.346   2.402
76548W        W48874  29.642  24.697   0.938
76549W        W48875  36.536  29.448  11.650
76550W        W48876  13.830  22.021  12.374
76551W        W48877  31.536   2.002   2.340
76552W        W48878  11.813  14.736   1.740
76553W        W48879  16.583  36.101   1.372
76554W        W48880   2.321  35.542   3.277
76555W        W48881   4.381  22.336   3.354
76556W        W48882  30.033  36.943  10.721
76557W        W48883   1.235  13.775  11.825
76558W        W48884  10.391  18.458  12.154
76559W        W48885  10.782  22.340   2.840
76560W        W48886  20.739   8.895   3.123
76561W        W48887  25.122  24.111  10.694
76562W        W48888  23.669   2.252   3.691
76563W        W48889  36.220  21.782   2.393
76564W        W48890   6.279   4.048  12.975
76565W        W48891  15.716  30.164  12.057
76566W        W48892  38.546  10.848   2.440
76567W        W48893  20.978  24.627  12.949
76568W        W48894  36.559  18.666   1.182
76569W        W48895  10.225  33.512   4.556
76570W        W48896  17.464  43.996   4.054
76571W        W48897  22.451  15.405   0.343
76572W        W48898  13.052  32.045   4.523
76573W        W48899  25.656   9.028   0.658
76574W        W48900  32.991  37.947   1.827
76575W        W48901   1.141  19.610  14.386
76576W        W48902   2.689  28.663   2.910
76577W        W48903  44.087  42.659  12.552
76578W        W48904   9.780   4.304   1.141
76579W        W48905   5.234   8.927   2.579
76580W        W48906  38.509  28.060  12.437
76581W        W48907  18.194   8.411   0.883
76582W        W48908  31.543  17.288  11.164
76583W        W48909  20.207  24.546  14.067
76584W        W48910  21.322   1.914   2.708
76585W        W48911  36.692   7.291  12.713
76586W        W48912  34.203  36.368   5.086
76587W        W48913  12.672  36.522  12.852
76588W        W48914  14.606  26.264  13.601
76589W        W48915  34.305  40.285   1.422
76590W        W48916   2.761  22.988   4.213
76591W        W48917  11.273  24.762  11.160
76592W        W48918  17.539   3.036  12.606
76593W        W48919   0.821  24.209  14.495
76594W        W48920  26.791  40.990  13.066
76595W        W48921   1.830   1.366   0.135
76596W        W48922  19.534  28.055  12.602
76597W        W48923   7.300  33.033  10.788
76598W        W48924  10.792  28.513   0.397
76599W        W48925  32.669  15.105  10.667
76600W        W48926  15.227  44.249  14.333
76601W        W48927  27.574  25.101   1.191
76602W        W48928   0.668  34.673   1.658
76603W        W48929  36.400  38.840  12.965
76604W        W48930  17.115   5.599   4.378
76605W        W48931   3.721  38.136  14.342
76606W        W48932  37.525  12.861   3.816
76607W        W48933  23.688  23.496  14.931
76608W        W48934   8.104  27.211   4.870
76609W        W48935  31.921  14.789   2.673
76610W        W48936  25.989  12.755   2.334
76611W        W48937   2.619  13.210   2.275
76612W        W48938  42.520   1.387  13.990
76613W        W48939  37.562  42.789  13.034
76614W        W48940   2.248  36.584   3.699
76615W        W48941  19.107  27.764  12.493
76616W        W48942  18.041  34.068  14.796
76617W        W48943  31.901  28.529   1.468
76618W        W48944   5.434  21.997  14.280
76619W        W48945   6.234  34.051   2.664
76620W        W48946  15.144  40.692   1.574
76621W        W48947  15.077  27.254  14.007
76622W        W48948  13.436  19.544  12.015
76623W        W48949  11.048   7.102  14.802
76624W        W48950  30.143   7.406  13.521
76625W        W48951  27.516  31.798  11.369
76626W        W48952  12.614   4.385   3.860
76627W        W48953  13.719  44.056  13.610
76628W        W48954  21.173  31.676  13.472
76629W        W48955  22.726  24.568   1.211
76630W        W48956  34.375  27.443  12.087
76631W        W48957  30.241   2.602  14.998
76632W        W48958  12.468  34.135  11.004
76633W        W48959  37.691   6.373  13.021
76634W        W48960  17.207  15.622   1.849
76635W        W48961  22.488  27.287   2.774
76636W        W48962   5.536  13.321   1.400
76637W        W48963   6.770  26.994  13.076
76638W        W48964  19.260  25.726  12.082
76639W        W48965  10.785  30.230  14.394
76640W        W48966  33.841  25.775   0.334
76641W        W48967  26.687  42.496   0.907
76642W        W48968   7.613  20.094   2.142
76643W        W48969  22.513  39.859  14.412
76644W        W48970  19.775  42.718   3.600
76645W        W48971  43.343  37.774   3.739
76646W        W48972   0.257   2.780   1.289
76647W        W48973  15.981  29.252  12.849
76648W        W48974  43.942  33.970  10.468
76649W        W48975   2.263  30.347  12.003
76650W        W48976   5.863   0.328  14.963
76651W        W48977  26.909   8.297  12.920
76652W        W48978  31.079  44.923   3.147
76653W        W48979   3.996  36.977   0.903
76654W        W48980  40.312  24.163  13.047
76655W        W48981  22.443  37.633  11.646
76656W        W48982   8.460  18.169   0.784
76657W        W48983  18.640  27.248   4.329
76658W        W48984  21.252  18.037  10.634
76659W        W48985  38.559   1.507   3.702
76660W        W48986   8.232  14.105   0.789
76661W        W48987  28.854   0.993   1.149
76662W        W48988   0.897  36.300   2.319
76663W        W48989   2.000  26.072   4.092
76664W        W48990  31.660  33.899   0.766
76665W        W48991   9.245  24.782   3.394
76666W        W48992  35.956  16.297   1.788
76667W        W48993  11.836   0.746  10.740
76668W        W48994  29.697   3.419   4.553
76669W        W48995  35.965  24.705  13.986
76670W        W48996   9.631  18.766   0.255
76671W        W48997  14.362  21.496   1.765
76672W        W48998  15.528   9.473  14.453
76673W        W48999  27.271  42.474  13.083
76674W        W49000  35.061  27.134   4.574
76675W        W49001  21.728  27.660  13.007
76676W        W49002  12.557  29.271  13.401
76677W        W49003  21.517   8.512   4.118
76678W        W49004  24.598   7.680   4.197
76679W        W49005  32.378  20.813  11.134
76680W        W49006   0.753  33.844   3.674
76681W        W49007  17.723  21.491  11.947
76682W        W49008  13.667  22.273   1.788
76683W        W49009  17.270  40.389   3.916
76684W        W49010   5.025  21.681  14.416
76685W        W49011  43.217  16.755  13.846
76686W        W49012  37.086  18.518   4.522
76687W        W49013  20.616  18.865  12.110
76688W        W49014  13.362  33.898   4.771
76689W        W49015   6.736   6.624  14.458
76690W        W49016   6.352   1.221  13.892
76691W        W49017   5.349  19.379  14.692
76692W        W49018   5.813   7.637   4.473
76693W        W49019  33.666  42.820  14.346
76694W        W49020  30.713   4.743  12.504
76695W        W49021  11.810  17.582   2.783
76696W        W49022  27.048   0.824   1.761
76697W        W49023  20.101  28.104  14.085
76698W        W49024  20.515  33.540   4.597
76699W        W49025  22.213  13.566  13.386
76700W        W49026  20.665  40.832  14.049
76701W        W49027  24.034  11.577  10.663
76702W        W49028  41.757  30.690  10.381
76703W        W49029  21.634  23.070  13.480
76704W        W49030   8.597  21.125   2.702
76705W        W49031  28.221   1.218   1.934
76706W        W49032  32.364   3.216   5.033
76707W        W49033  26.118  29.923   2.783
76708W        W49034  24.149  39.317   1.443
76709W        W49035  23.240   1.539  12.056
76710W        W49036  37.402  34.885   1.333
76711W        W49037   1.901   1.553   4.653
76712W        W49038  18.326  23.408  13.872
76713W        W49039  16.563  29.937  13.385
76714W        W49040  38.508   3.745  11.267
76715W        W49041  39.524  28.154  13.426
76716W        W49042  19.500  11.283  11.970
76717W        W49043  27.376   2.269  10.968
76718W        W49044   4.462   0.473  12.468
76719W        W49045  18.469  20.596  11.550
76720W        W49046  22.557  37.065  10.305
76721W        W49047  13.649  18.742  14.512
76722W        W49048  20.580  42.837   1.691
76723W        W49049  21.683  16.360  11.334
76724W        W49050  37.519  24.211   1.101
76725W        W49051   1.460  39.464  10.463
76726W        W49052  31.170  38.005   4.645
76727W        W49053  13.638  15.763  13.762
76728W        W49054   0.342   4.362  13.358
76729W        W49055  19.137  15.330   1.299
76730W        W49056  37.374  36.908   1.621
76731W        W49057  28.662  18.264  11.900
76732W        W49058   6.521   7.524   2.869
76733W        W49059  39.435  34.971   2.282
76734W        W49060  41.867  20.123   3.728
76735W        W49061   6.959   6.387   0.446
76736W        W49062   6.444  26.603   4.650
76737W        W49063  28.936  43.291   0.879
76738W        W49064  37.090  35.672   3.682
76739W        W49065  10.437   4.796   4.566
76740W        W49066  22.813   4.650  10.699
76741W        W49067  16.784  17.655   2.398
76742W        W49068  10.122  25.694   2.342
76743W        W49069   4.038  25.631  13.795
76744W        W49070  37.822   2.250  14.400
76745W        W49071  27.417  25.689   1.198
76746W        W49072  19.168  21.796  14.858
76747W        W49073  29.419  38.942   4.010
76748W        W49074  12.807  27.527  11.132
76749W        W49075  10.371   8.232  10.934
76750W        W49076  24.537  26.197  13.799
76751W        W49077   3.823  27.195  14.430
76752W        W49078   2.446   2.198  14.988
76753W        W49079  31.753   3.937  14.716
76754W        W49080  38.357  38.397   2.641
76755W        W49081  27.159  40.338  11.141
76756W        W49082  33.075  33.157   3.274
76757W        W49083  31.692  29.127  12.427
76758W        W49084  12.892   6.226  11.924
76759W        W49085   7.240  25.513   1.943
76760W        W49086  12.444  43.700  11.030
76761W        W49087  11.522   2.017   0.026
76762W        W49088  27.218  29.755   0.238
76763W        W49089  13.173  36.925   1.130
76764W        W49090  14.237  16.255  10.738
76765W        W49091  14.890  17.072   4.566
76766W        W49092  14.222   8.114   0.627
76767W        W49093   4.754  11.872   4.161
76768W        W49094  12.924  40.014   1.530
76769W        W49095  21.843  35.516   0.864
76770W        W49096   9.513   7.200  13.343
76771W        W49097  38.563   6.015  13.368
76772W        W49098  44.683  27.933  10.149
76773W        W49099  25.267   0.349   1.371
76774W        W49100  30.552  37.887  13.320
76775W        W49101  25.819  17.056  11.206
76776W        W49102  31.053   5.708   1.339
76777W        W49103  41.039  16.231  11.943
76778W        W49104  43.425  19.987   0.455
76779W        W49105  15.320  11.168  10.549
76780W        W49106  33.865  11.083  10.661
76781W        W49107  19.462  39.099   3.721
76782W        W49108   2.501  25.909  13.414
76783W        W49109  44.077  27.619   1.945
76784W        W49110  14.006   3.478   1.246
76785W        W49111  31.661   2.183   4.191
76786W        W49112  35.887  20.552   4.404
76787W        W49113   6.225   6.827   1.328
76788W        W49114  15.798  25.539  14.809
76789W        W49115  41.663  19.659  14.560
76790W        W49116  34.390  26.968   1.424
76791W        W49117  32.219  20.053  11.581
76792W        W49118  14.951  24.707   2.810
76793W        W49119   0.056  24.935  14.774
76794W        W49120  19.057  27.225   0.958
76795W        W49121  33.597   4.022  12.915
76796W        W49122  16.166  35.937   2.632
76797W        W49123  33.525  19.546  13.628
76798W        W49124  13.595  26.537   5.551
76799W        W49125  11.990  13.861   3.697
76800W        W49126  40.251  16.885  12.224
76801W        W49127  39.294  10.611   3.641
76802W        W49128  28.129  15.799   5.088
76803W        W49129  29.010  24.896  10.094
76804W        W49130  11.909  28.401   2.051
76805W        W49131   1.731  39.788   2.451
76806W        W49132   4.936  24.914   0.389
76807W        W49133  21.753  21.562  13.975
76808W        W49134  33.669  15.751  12.579
76809W        W49135  23.164   4.414   4.568
76810W        W49136  42.946  21.506   3.628
76811W        W49137  14.280   4.396   4.021
76812W        W49138  44.527  34.327  12.080
76813W        W49139  15.540  15.744   1.382
76814W        W49140  11.434   2.964   2.445
76815W        W49141   9.919  19.697  13.488
76816W        W49142   3.099   1.457   5.437
76817W        W49143  26.530   6.520   3.736
76818W        W49144  34.962  12.779  10.682
76819W        W49145  21.000  11.557  11.070
76820W        W49146   9.889  28.414   0.397
76821W        W49147  34.328   9.838  11.313
76822W        W49148  37.060  33.425  11.506
76823W        W49149  10.418   2.328   0.801
76824W        W49150   7.206  27.712  14.966
76825W        W49151   0.265   5.418  14.315
76826W        W49152  13.253  28.334  10.804
76827W        W49153   1.674  24.036   0.831
76828W        W49154   2.959  34.635  10.771
76829W        W49155   9.400  44.968   0.430
76830W        W49156  16.373  17.078   2.834
76831W        W49157   2.598  31.577  10.634
76832W        W49158   7.632  44.524   1.668
76833W        W49159   5.700  34.138  14.299
76834W        W49160  17.906  43.813  12.826
76835W        W49161  25.510  13.438   3.199
76836W        W49162  35.510  37.598   2.764
76837W        W49163  42.153   9.892  10.028
76838W        W49164   1.021  27.019   4.139
76839W        W49165  41.118  15.642   3.563
76840W        W49166  30.662   0.169  13.102
76841W        W49167  38.715   1.433   0.951
76842W        W49168  43.111  43.156   2.156
76843W        W49169  44.930  19.569   3.766
76844W        W49170  28.203  16.473  10.292
76845W        W49171  21.459   2.410  14.285
76846W        W49172  18.621  33.542  10.157
76847W        W49173  18.186  38.711  11.681
76848W        W49174  36.201  26.280   4.248
76849W        W49175  19.302   6.166   3.644
76850W        W49176  39.539   2.641  13.806
76851W        W49177  39.739  12.188  11.135
76852W        W49178  39.806  16.256  10.677
76853W        W49179   7.201  31.032   1.825
76854W        W49180  10.431   8.991   2.999
76855W        W49181   2.953  33.082   2.521
76856W        W49182  39.780   0.960   4.196
76857W        W49183  17.165  17.716  13.298
76858W        W49184  12.794  36.452   3.151
76859W        W49185  33.984  14.873   1.045
76860W        W49186  32.517  42.448   0.025
76861W        W49187   4.633  44.373   0.332
76862W        W49188  36.165   3.979  14.639
76863W        W49189  28.548  19.615   0.097
76864W        W49190  44.346  31.917  13.007
76865W        W49191  35.600   3.449   0.867
76866W        W49192  13.235   4.528  13.839
76867W        W49193  35.426  12.549  11.187
76868W        W49194  14.498  17.319   3.653
76869W        W49195  19.866  10.468   3.381
76870W        W49196  20.907  28.628   1.846
76871W        W49197   5.799  33.909  10.645
76872W        W49198   0.262   3.419   3.808
76873W        W49199  23.171  40.287   1.208
76874W        W49200  27.037   5.940  14.760
76875W        W49201   6.203  11.844   3.129
76876W        W49202  40.472  41.951   4.695
76877W        W49203  26.546  40.352  12.839
76878W        W49204  10.036  11.067   2.441
76879W        W49205  26.415  16.566   2.965
76880W        W49206  35.997  15.866  13.588
76881W        W49207  22.475  20.016   2.022
76882W        W49208  14.576  40.969  11.241
76883W        W49209  17.630  23.487   3.194
76884W        W49210  15.102   6.854   1.397
76885W        W49211  14.748   4.310  12.281
76886W        W49212   6.262   8.225   3.824
76887W        W49213  36.891  16.560   3.743
76888W        W49214  21.207  32.340   3.767
76889W        W49215  27.722  34.229   2.404
76890W        W49216   8.923  27.982   4.607
76891W        W49217   8.227  11.888  14.714
76892W        W49218  22.528   1.925  14.826
76893W        W49219  39.283  29.537   0.870
76894W        W49220   4.006  22.797  14.308
76895W        W49221  32.037  11.760   4.174
76896W        W49222  14.306  37.496  12.170
76897W        W49223  12.131  27.467   4.641
76898W        W49224   5.295  30.569  12.543
76899W        W49225  26.131  11.708  12.458
76900W        W49226  27.395   5.157  11.522
76901W        W49227  14.120  10.057  13.747
76902W        W49228  32.274  32.526   3.213
76903W        W49229   9.482   6.941   0.352
76904W        W49230   7.342  20.220   4.255
76905W        W49231  20.418  31.445   1.953
76906W        W49232  29.250  17.251  10.703
76907W        W49233   7.917  42.271   1.020
76908W        W49234  19.127  14.377  11.523
76909W        W49235  15.967  24.053   4.570
76910W        W49236   7.692  30.821   1.830
76911W        W49237  22.167  26.010  11.530
76912W        W49238  40.337  32.936  10.616
76913W        W49239  11.860  25.763  12.331
76914W        W49240  42.059  33.566   3.161
76915W        W49241  41.947  42.296  10.650
76916W        W49242  26.413  19.825  12.945
76917W        W49243  11.790  44.251   3.255
76918W        W49244   4.545  26.549   1.957
76919W        W49245  24.576   3.643   3.213
76920W        W49246  14.963  24.233   4.494
76921W        W49247   8.791  24.280   4.660
76922W        W49248  30.948  10.143   4.921
76923W        W49249  23.229  38.141  12.618
76924W        W49250   4.153  38.301  12.164
76925W        W49251   2.732  21.041   4.568
76926W        W49252  40.482   1.473   2.173
76927W        W49253  11.505  42.989   0.582
76928W        W49254  25.144   7.679  11.106
76929W        W49255  29.605  30.692  11.637
76930W        W49256  34.558  12.230   2.161
76931W        W49257  30.534   7.340   2.648
76932W        W49258  38.602  44.189   4.439
76933W        W49259  33.303  20.356   0.195
76934W        W49260  27.226  23.389  12.398
76935W        W49261  36.736  34.138   4.972
76936W        W49262  39.562  34.631  12.931
76937W        W49263   3.709  15.987   2.037
76938W        W49264  28.580   1.492  12.479
76939W        W49265   3.906  15.202   0.952
76940W        W49266  40.443  13.882  12.560
76941W        W49267  34.819   8.178  12.678
76942W        W49268  33.700  24.178  13.404
76943W        W49269  28.996   5.941   4.639
76944W        W49270  25.462   0.506  12.926
76945W        W49271   9.182  32.653   2.388
76946W        W49272   6.186  30.775   4.107
76947W        W49273  12.402  32.124  10.946
76948W        W49274  31.902  14.361  12.937
76949W        W49275  13.813   8.587  11.073
76950W        W49276   3.360  14.880   3.766
76951W        W49277  24.639  30.990   0.154
76952W        W49278  41.085  26.087  13.473
76953W        W49279  36.774   9.814   1.764
76954W        W49280  15.763  33.601  13.306
76955W        W49281   0.313  31.098   1.497
76956W        W49282  16.335  14.244   4.470
76957W        W49283  21.444   0.753   1.266
76958W        W49284   5.952  20.218   3.164
76959W        W49285   8.841  21.589   2.788
76960W        W49286  32.573  37.650  13.940
76961W        W49287  32.364  32.694  12.948
76962W        W49288  40.067  27.504   0.018
76963W        W49289   0.895   5.228   4.742
76964W        W49290  35.117  31.568  10.735
76965W        W49291   1.847  30.534  11.042
76966W        W49292   8.697  42.021  14.663
76967W        W49293  14.820  23.159   0.920
76968W        W49294  18.385   5.303   0.797
76969W        W49295  37.399  13.207   4.155
76970W        W49296  32.052  39.269   0.381
76971W        W49297  43.100  42.324   2.242
76972W        W49298  37.577  31.552  11.306
76973W        W49299  15.342  31.439   1.798
76974W        W49300  42.080   6.743   0.315
76975W        W49301  12.687   8.791  11.493
76976W        W49302  43.489  11.876  13.799
76977W        W49303   7.873   1.190  13.258
76978W        W49304  37.724  10.160   1.772
76979W        W49305  12.818  10.391   3.168
76980W        W49306   9.831  28.172  12.590
76981W        W49307  16.138  10.429   4.520
76982W        W49308  16.571  11.481   4.241
76983W        W49309  14.999  27.207  12.732
76984W        W49310   4.369  16.036   1.289
76985W        W49311  29.020  30.440  12.970
76986W        W49312  17.818  39.875   0.685
76987W        W49313  16.311  44.807  14.897
76988W        W49314  19.027  10.392   4.546
76989W        W49315  13.752  11.107   4.148
76990W        W49316   4.176  44.888  14.271
76991W        W49317   8.251  43.827  12.136
76992W        W49318  19.747   4.965  12.624
76993W        W49319  31.978   8.925  10.714
76994W        W49320  23.702   9.657  14.912
76995W        W49321  39.468  31.151  14.497
76996W        W49322  34.464  34.107  11.437
76997W        W49323  28.382  29.589   1.471
76998W        W49324  15.280   7.686   2.701
76999W        W49325   5.836  38.905   2.276
77000W        W49326  24.608  40.090  14.879
77001W        W49327   6.923  38.255  12.008
77002W        W49328  27.093  31.343  11.606
77003W        W49329   6.466   6.812  10.580
77004W        W49330  30.001  16.792   0.544
77005W        W49331  22.201  28.753   0.658
77006W        W49332  38.385  27.431  13.614
77007W        W49333  29.266  37.872  12.386
77008W        W49334   9.184  10.225   3.210
77009W        W49335  32.843  39.289   2.153
77010W        W49336   6.390  23.483  13.080
77011W        W49337  44.757  20.783  10.637
77012W        W49338   8.170  19.587   0.264
77013W        W49339   2.485  30.958  14.768
77014W        W49340  34.406   5.497   3.215
77015W        W49341  36.499   0.297   3.796
77016W        W49342   5.866  41.555   0.252
77017W        W49343  35.019  24.061  11.914
77018W        W49344  28.213  43.327  13.266
77019W        W49345  16.763  17.162   4.328
77020W        W49346   1.786   9.379  11.604
77021W        W49347  26.674  42.868  10.557
77022W        W49348  43.085  24.885  11.169
77023W        W49349   5.994   6.333  12.607
77024W        W49350  15.635  27.149   2.834
77025W        W49351   8.729   5.467   2.712
77026W        W49352  44.796   1.497   1.767
77027W        W49353  22.154  20.238  14.724
77028W        W49354  41.337  42.833   2.909
77029W        W49355  16.162   3.162  11.205
77030W        W49356  18.255  34.555   2.826
77031W        W49357  32.461  43.295   4.502
77032W        W49358   0.476  33.060   3.089
77033W        W49359  27.649   2.154   4.520
77034W        W49360  38.935  43.987  12.966
77035W        W49361  24.270  44.927  12.701
77036W        W49362  25.939  31.995  13.847
77037W        W49363  15.765  39.088  11.995
77038W        W49364   6.712  32.729   3.240
77039W        W49365   4.664  20.350   4.191
77040W        W49366  28.412  23.263   1.116
77041W        W49367  29.143  16.364  13.065
77042W        W49368   2.184  33.092  14.359
77043W        W49369   9.699  23.472   1.918
77044W        W49370  12.226   9.188  13.622
77045W        W49371  32.022  17.430  12.411
77046W        W49372  34.383  24.160   1.811
77047W        W49373   0.843   0.432  11.512
77048W        W49374  10.607  24.440   2.266
77049W        W49375  35.858  13.865   0.863
77050W        W49376  41.313  35.881  10.581
77051W        W49377  19.754   9.636  13.453
77052W        W49378  31.341   0.708   1.716
77053W        W49379  27.072  28.418   0.926
77054W        W49380  37.989  14.007  10.546
77055W        W49381   0.560  24.897  12.990
77056W        W49382   0.404  15.589  14.310
77057W        W49383  31.180  30.520   1.146
77058W        W49384  10.838  21.805   2.725
77059W        W49385  18.263   3.356  13.552
77060W        W49386   5.404  33.978   0.551
77061W        W49387   6.628  37.475   3.635
77062W        W49388  42.589  15.674   3.668
77063W        W49389   3.758   6.665  13.937
77064W        W49390  12.291  17.537  13.976
77065W        W49391   4.903  23.326   4.042
77066W        W49392  27.248  28.497  11.506
77067W        W49393   1.239   1.927  12.222
77068W        W49394  21.979   3.968   4.022
77069W        W49395  14.080  30.907  13.460
77070W        W49396  27.506  29.888   3.507
77071W        W49397   9.049  40.169  12.907
77072W        W49398   1.380  25.407   0.733
77073W        W49399  21.506  29.884  14.472
77074W        W49400  31.880  13.808   1.935
77075W        W49401  32.623  35.401   3.053
77076W        W49402  32.524  12.233   3.923
77077W        W49403  43.885   7.879  11.729
77078W        W49404   6.137  38.045   4.572
77079W        W49405  44.569  10.903  14.869
77080W        W49406  13.278  37.419   2.831
77081W        W49407  41.144   0.425   4.548
77082W        W49408  33.001   8.758   1.800
77083W        W49409  44.653  34.059  11.098
77084W        W49410   4.386  35.715   2.619
77085W        W49411  41.989  29.450   1.762
77086W        W49412   8.702   3.824   2.800
77087W        W49413   3.890  22.282  11.532
77088W        W49414  16.081  15.960  13.981
77089W        W49415  25.114  38.934  10.614
77090W        W49416  10.810  20.545  11.945
77091W        W49417  32.107  31.542  10.507
77092W        W49418  29.485  32.143   3.330
77093W        W49419  30.413  12.299  12.341
77094W        W49420  27.052  41.942  12.393
77095W        W49421  15.509  33.857  11.503
77096W        W49422   0.383   3.318   2.990
77097W        W49423  11.168  28.071  12.460
77098W        W49424   5.233   6.351  10.723
77099W        W49425  35.439   7.911   1.702
77100W        W49426   4.949  28.753  14.541
77101W        W49427   3.576  32.770   3.204
77102W        W49428  18.219  14.072  13.498
77103W        W49429   9.418  41.539   0.978
77104W        W49430  30.328   4.773   2.655
77105W        W49431  43.434  24.914   2.827
77106W        W49432  10.055  29.412   1.130
77107W        W49433  42.138  37.434  12.939
77108W        W49434  14.354  21.016   2.675
77109W        W49435  12.347  19.916   3.207
77110W        W49436   5.837  10.632   0.248
77111W        W49437   5.206  25.985  14.403
77112W        W49438  22.629  20.792  11.172
77113W        W49439  19.092  30.847  13.407
77114W        W49440  27.429  19.139   3.160
77115W        W49441  35.135   9.387   4.935
77116W        W49442  16.606  22.291   4.370
77117W        W49443  23.984  32.686  12.040
77118W        W49444  25.052  23.005  13.582
77119W        W49445  23.497  43.575  12.837
77120W        W49446  31.625  17.146  10.671
77121W        W49447  42.563  17.214   4.108
77122W        W49448   3.771  18.053  13.121
77123W        W49449  36.295  20.565  12.436
77124W        W49450  38.452   1.886   0.851
77125W        W49451  17.168  44.276  10.335
77126W        W49452  34.679  28.636  11.481
77127W        W49453  37.309  10.718   0.644
77128W        W49454   5.206  32.870  11.980
77129W        W49455  35.048   0.303  13.311
77130W        W49456   6.278  17.827  12.445
77131W        W49457  35.938  44.764   2.709
77132W        W49458   9.196  14.170  10.693
77133W        W49459  41.375  25.639  14.454
77134W        W49460  35.434   1.146  13.226
77135W        W49461  29.945  16.699  11.185
77136W        W49462  33.749  16.178   4.037
77137W        W49463  27.995  16.796   2.988
77138W        W49464  12.098  26.184  12.527
77139W        W49465  40.876  12.572  12.821
77140W        W49466  11.303  22.645   3.866
77141W        W49467   9.575  44.578  13.960
77142W        W49468  13.191  32.496  10.941
77143W        W49469   9.689  42.986   0.903
77144W        W49470   7.465  17.092   0.255
77145W        W49471  18.305  10.259   0.838
77146W        W49472  35.286   1.950   4.077
77147W        W49473  32.422  38.802   2.644
77148W        W49474   5.657  35.371   2.777
77149W        W49475  10.449  34.508  12.150
77150W        W49476   1.079  44.505  13.473
77151W        W49477   6.088  14.380  13.858
77152W        W49478  39.013  14.833   2.164
77153W        W49479  32.103   0.869   3.606
77154W        W49480  19.566  16.717  12.907
77155W        W49481  37.774  27.381   1.900
77156W        W49482   1.265  24.455  14.299
77157W        W49483   6.847  36.182   2.389
77158W        W49484  40.732  23.772   4.103
77159W        W49485  25.266  15.616   2.288
77160W        W49486  39.354  30.849  13.154
77161W        W49487  12.244  14.442  11.482
77162W        W49488  30.118   9.886   1.459
77163W        W49489  20.247  33.419   0.500
77164W        W49490  12.066  16.394  13.082
77165W        W49491  38.341  14.536  11.878
77166W        W49492   9.826  41.830   3.722
77167W        W49493  43.011  33.987  13.172
77168W        W49494  43.934  27.871   0.817
77169W        W49495  41.963   4.721  12.169
77170W        W49496  26.217  29.748   3.282
77171W        W49497  44.419   0.195   2.647
77172W        W49498  32.921  32.592  11.819
77173W        W49499  27.748   3.172  11.081
77174W        W49500  27.557  36.924  14.562
77175W        W49501  20.476  11.332  14.935
77176W        W49502  17.153  40.545   2.392
77177W        W49503  11.278   0.689   2.714
77178W        W49504  12.543  18.723   1.201
77179W        W49505  38.741   9.283  10.588
77180W        W49506  27.475  20.611   0.824
77181W        W49507  38.508   7.161  12.469
77182W        W49508  10.274  40.088   1.790
77183W        W49509  11.999   5.358  10.982
77184W        W49510  29.108  19.767  12.519
77185W        W49511   5.944  35.968  12.052
77186W        W49512  30.065  17.604   2.772
77187W        W49513  37.821  28.105   3.249
77188W        W49514  22.231   5.853  13.808
77189W        W49515  30.608  18.239   2.418
77190W        W49516   8.473  33.448  13.068
77191W        W49517  21.499   4.379  12.034
77192W        W49518  36.119  30.895   3.145
77193W        W49519  13.457  26.836  10.527
77194W        W49520  22.076  20.205  10.671
77195W        W49521  39.909  28.587   3.777
77196W        W49522  27.725  34.960   3.196
77197W        W49523  10.199   5.720   3.685
77198W        W49524   9.293  16.816   3.373
77199W        W49525  29.381  31.678   4.892
77200W        W49526  34.803   4.243   0.271
77201W        W49527  34.286   5.046  12.073
77202W        W49528  32.113   2.967  11.914
77203W        W49529  18.177  42.539   3.510
77204W        W49530  41.003  17.774   4.556
77205W        W49531  32.374  13.745   2.823
77206W        W49532  30.032  23.147   4.230
77207W        W49533   4.577  24.198   2.335
77208W        W49534  22.984  14.281   1.894
77209W        W49535   0.343   8.077   3.086
77210W        W49536  23.266  11.221  14.499
77211W        W49537  10.168  14.506  14.811
77212W        W49538  29.136  10.646   2.334
77213W        W49539  44.543  33.560   0.905
77214W        W49540  29.986  30.669  11.247
77215W        W49541   5.699  25.156   0.869
77216W        W49542   9.379  12.282  10.723
77217W        W49543  23.131  26.326   0.421
77218W        W49544  20.465  16.117   4.516
77219W        W49545   4.400  14.140   0.944
77220W        W49546  13.216  28.670  10.199
77221W        W49547  37.347  18.266  14.449
77222W        W49548  16.303  34.996  14.845
77223W        W49549  15.118  23.674   3.653
77224W        W49550  15.802  21.147  10.709
77225W        W49551  32.540  20.534   2.315
77226W        W49552  20.173  18.716  11.863
77227W        W49553  22.502   0.582  12.081
77228W        W49554  25.350  33.388  12.909
77229W        W49555  22.509  31.388  11.138
77230W        W49556  17.866   7.217   1.289
77231W        W49557  39.311  40.953   2.370
77232W        W49558  16.620   7.348   1.964
77233W        W49559  42.782   9.628   3.690
77234W        W49560  18.045   4.349   4.039
77235W        W49561  26.544  15.365   2.236
77236W        W49562  39.111  10.273   4.210
77237W        W49563  31.176   1.006   3.556
77238W        W49564  17.803  44.422  11.015
77239W        W49565  40.483  10.896  12.321
77240W        W49566   0.580   9.679   3.367
77241W        W49567  19.696  35.956   1.859
77242W        W49568  44.278  21.193   0.609
77243W        W49569  30.076   3.154   3.184
77244W        W49570  43.891  35.941  14.805
77245W        W49571  12.816  14.537   1.230
77246W        W49572  34.897  30.728   4.270
77247W        W49573  11.105  23.151   4.756
77248W        W49574  21.691  43.808  12.090
77249W        W49575   7.204  26.031   0.736
77250W        W49576   8.484  17.581   2.548
77251W        W49577  15.733  30.144   0.225
77252W        W49578   2.228  21.031   4.598
77253W        W49579   8.941  25.226   0.049
77254W        W49580  18.256   9.085  13.991
77255W        W49581  16.073  24.016   3.738
77256W        W49582  37.470   4.656   0.932
77257W        W49583  41.819  35.018   3.761
77258W        W49584  44.279  34.880   1.936
77259W        W49585  26.749  25.063   3.226
77260W        W49586  42.863  43.172   5.092
77261W        W49587  22.006  27.424   2.594
77262W        W49588  37.805  21.770   3.325
77263W        W49589  29.269  26.642   2.804
77264W        W49590  20.583  25.873   4.637
77265W        W49591   3.982   1.497  14.314
77266W        W49592  37.968  43.622   3.811
77267W        W49593  34.949  19.572  12.889
77268W        W49594  24.761  43.963  13.553
77269W        W49595  16.593  33.896   0.336
77270W        W49596  38.950  26.082   2.870
77271W        W49597  20.977  25.300   0.813
77272W        W49598  26.436  30.456   4.321
77273W        W49599  24.971   9.297  14.989
77274W        W49600  11.866  16.071  14.804
77275W        W49601  44.153  38.842  12.146
77276W        W49602   3.936   4.856   2.369
77277W        W49603  24.981  20.591   3.757
77278W        W49604  30.938  33.921  12.278
77279W        W49605   0.660   7.670   1.425
77280W        W49606  12.598  24.248  11.724
77281W        W49607  42.846   9.203  11.509
77282W        W49608   6.055  10.182  13.328
77283W        W49609  37.502  23.010   1.261
77284W        W49610  26.694  13.852  14.346
77285W        W49611  44.007  33.461  13.337
77286W        W49612  28.038  43.027  14.985
77287W        W49613  21.005  21.263  11.422
77288W        W49614  28.526  31.868   2.405
77289W        W49615  38.878  41.502   0.401
77290W        W49616  40.776  31.946  14.017
77291W        W49617   9.482  10.815   3.871
77292W        W49618  16.497  23.717  14.893
77293W        W49619  23.177  35.405   1.860
77294W        W49620   8.829   6.131   0.478
77295W        W49621   9.744  19.938   3.833
77296W        W49622  17.709  41.547   4.143
77297W        W49623   3.944  35.662  13.953
77298W        W49624  23.116  26.905  14.477
77299W        W49625  44.899  19.505   1.579
77300W        W49626  35.962  32.919   4.120
77301W        W49627  18.999  38.976   1.904
77302W        W49628  24.173  29.405  14.323
77303W        W49629  34.231  20.472  13.893
77304W        W49630  14.609   6.794  14.819
77305W        W49631  15.925  37.505   0.645
77306W        W49632   5.599   3.375  11.130
77307W        W49633  43.026   9.483   2.836
77308W        W49634  39.123   5.671   1.622
77309W        W49635  17.607   5.712   0.769
77310W        W49636  16.639  35.581   1.341
77311W        W49637  21.334  16.009  11.152
77312W        W49638  16.235  32.350  14.356
77313W        W49639  44.787  11.929   4.422
77314W        W49640  43.289  36.022  11.918
77315W        W49641  36.109  14.154   3.705
77316W        W49642  18.953  21.413  13.733
77317W        W49643   3.020   6.896   4.114
77318W        W49644  42.390  27.167   3.142
77319W        W49645  14.097  42.263   3.901
77320W        W49646  42.625  32.075   3.797
77321W        W49647  23.623  14.609   0.316
77322W        W49648  29.395  36.077  14.514
77323W        W49649  22.798   2.684  13.478
77324W        W49650  43.824  35.039   2.305
77325W        W49651  44.763  17.390   0.195
77326W        W49652  39.121  26.422  14.176
77327W        W49653  40.175   1.010   3.024
77328W        W49654   3.135   8.187   1.374
77329W        W49655  22.069  17.893   4.390
77330W        W49656  23.394  36.448   0.844
77331W        W49657   2.156  16.539   4.188
77332W        W49658  26.973  11.548  14.044
77333W        W49659  27.647  11.727  14.503
77334W        W49660  31.171  13.514  12.433
77335W        W49661   6.232  21.720   1.225
77336W        W49662  28.506  14.265   4.748
77337W        W49663  44.714  24.212   0.421
77338W        W49664  10.162  13.671  11.939
77339W        W49665  26.561  39.497   0.023
77340W        W49666   1.940  28.905  12.583
77341W        W49667   4.188  41.512   0.343
77342W        W49668   8.158  44.323  13.006
77343W        W49669   0.756  15.656   0.464
77344W        W49670  31.222  14.673   3.120
77345W        W49671  22.715  37.972   0.100
77346W        W49672   9.304  22.472  12.427
77347W        W49673  34.417  36.403   3.707
77348W        W49674  32.376  10.678  13.074
77349W        W49675  11.455  19.217  12.130
77350W        W49676   4.921  44.483  12.990
77351W        W49677  30.225  24.143   3.179
77352W        W49678  19.039  21.173  12.933
77353W        W49679  28.749  40.833  10.788
77354W        W49680  34.577  39.569   1.931
77355W        W49681   9.386  12.862  12.801
77356W        W49682  32.362  31.754  12.061
77357W        W49683  42.007  23.428  12.408
77358W        W49684  10.903  31.506  12.429
77359W        W49685  40.376  19.693  12.459
77360W        W49686  38.069  40.082   2.730
77361W        W49687   7.270  17.693   3.803
77362W        W49688  30.908  43.858   0.864
77363W        W49689  39.060  14.449   3.628
77364W        W49690  32.375   9.396   3.378
77365W        W49691  44.889  35.497  11.812
77366W        W49692  34.036  33.501  14.890
77367W        W49693  29.192  30.461  10.674
77368W        W49694  29.201  20.111  11.196
77369W        W49695  13.675  16.129   0.262
77370W        W49696  36.017  14.138  10.505
77371W        W49697  42.068   1.054  10.825
77372W        W49698   9.912  42.775   3.661
77373W        W49699   4.334  35.026   0.486
77374W        W49700   7.886  12.163   1.655
77375W        W49701   1.498  18.304   4.361
77376W        W49702  16.702   7.016   4.612
77377W        W49703   8.389  18.168   3.736
77378W        W49704   6.262  23.983  13.738
77379W        W49705   4.736  39.723   1.207
77380W        W49706  40.376   5.879  12.823
77381W        W49707  36.548  10.547  13.961
77382W        W49708  40.720  38.056   2.019
77383W        W49709  25.685   5.007  13.328
77384W        W49710  34.623  16.840  12.892
77385W        W49711   8.712   5.267   3.189
77386W        W49712  17.620  21.049   2.182
77387W        W49713  34.066  41.760   0.450
77388W        W49714   2.142  15.068  13.813
77389W        W49715  31.488  20.466  12.500
77390W        W49716  28.428  44.871   2.631
77391W        W49717   5.510  39.351   0.198
77392W        W49718   4.437  42.886  14.531
77393W        W49719  19.654   3.717  13.931
77394W        W49720  27.414  19.019  14.496
77395W        W49721   9.565   7.651  12.896
77396W        W49722  13.351   2.334   1.700
77397W        W49723  29.530  39.329  13.082
77398W        W49724  35.048  20.946  11.076
77399W        W49725  35.635  39.001   4.970
77400W        W49726   3.887  38.581  14.568
77401W        W49727  26.753   3.943   2.760
77402W        W49728  38.888  33.458  12.503
77403W        W49729   8.638  31.591   4.547
77404W        W49730  18.330  36.869   2.269
77405W        W49731   6.443  20.910  10.930
77406W        W49732   4.814   5.740  11.452
77407W        W49733  44.814   5.487   3.281
77408W        W49734  32.099  40.370  14.563
77409W        W49735  10.331  35.946  10.732
77410W        W49736   8.897   9.770   3.155
77411W        W49737   1.815  13.218  12.583
77412W        W49738  34.001  39.500  11.016
77413W        W49739  26.647  20.165  13.268
77414W        W49740  43.294  44.011  13.062
77415W        W49741  16.096   0.821  12.673
77416W        W49742  26.129   3.047  11.111
77417W        W49743   3.029  37.590   1.946
77418W        W49744  37.982  30.344   3.605
77419W        W49745   2.013  38.377  11.522
77420W        W49746  22.518  13.677   4.124
77421W        W49747  19.485  36.449  13.658
77422W        W49748  12.151   4.296  12.494
77423W        W49749  26.553  22.819   0.807
77424W        W49750   0.869   9.393  14.855
77425W        W49751  20.353  24.193  13.717
77426W        W49752   7.406  41.005  14.000
77427W        W49753  28.638   4.914   1.881
77428W        W49754   0.829  17.824  12.114
77429W        W49755  16.282  12.969   2.925
77430W        W49756  27.495  33.553  13.712
77431W        W49757  35.284  17.982   0.829
77432W        W49758  38.344  14.204  11.462
77433W        W49759   3.741  14.084  10.566
77434W        W49760  36.984  19.354   4.198
77435W        W49761   3.903   6.349   2.702
77436W        W49762  17.064  37.032  14.817
77437W        W49763   7.142  31.701   4.594
77438W        W49764  31.383  41.947   1.913
77439W        W49765  42.396  18.283   4.682
77440W        W49766  20.694  30.001  14.001
77441W        W49767  14.597   8.722  14.836
77442W        W49768  29.290  24.880   4.584
77443W        W49769  27.256  13.598  11.945
77444W        W49770   1.518  26.181   0.057
77445W        W49771   1.954  23.054   3.199
77446W        W49772   0.539  38.868   1.407
77447W        W49773  11.646  35.122   0.289
77448W        W49774  10.165   1.139  11.918
77449W        W49775  44.946   2.719  13.977
77450W        W49776  17.358  26.194  10.628
77451W        W49777  13.599  41.072   4.793
77452W        W49778   7.710   7.418   1.078
77453W        W49779  20.326  19.911  13.905
77454W        W49780   1.483  40.972   1.406
77455W        W49781  20.434  24.158  12.486
77456W        W49782  13.128  40.094  12.415
77457W        W49783  27.683  42.802   3.246
77458W        W49784  19.103   9.170   1.754
77459W        W49785  40.219   7.661  11.342
77460W        W49786   2.491  11.196  13.975
77461W        W49787  22.554  32.861   4.109
77462W        W49788  19.101  30.008  12.829
77463W        W49789  39.088  39.008  14.787
77464W        W49790  34.072   0.697   2.749
77465W        W49791  30.672  41.794  12.995
77466W        W49792  42.842   0.436  12.974
77467W        W49793  19.202  19.363  11.987
77468W        W49794  29.093  25.107  12.579
77469W        W49795  22.279  23.660   1.749
77470W        W49796  37.912  36.323  12.963
77471W        W49797  10.544  28.793   0.769
77472W        W49798   9.820  39.254   4.732
77473W        W49799  44.393  13.360   2.327
77474W        W49800   5.957   7.568   3.442
77475W        W49801  12.840  16.028   1.354
77476W        W49802   0.769  26.406   0.021
77477W        W49803  38.651   1.697   2.242
77478W        W49804   6.495  39.082  14.537
77479W        W49805   1.909  42.216   0.654
77480W        W49806  38.446  22.892   3.634
77481W        W49807   7.442  13.151  13.896
77482W        W49808   6.770   8.862   2.136
77483W        W49809  29.820  14.298   0.449
77484W        W49810  11.686  13.342   2.276
77485W        W49811  22.021  35.041  13.684
77486W        W49812  25.957   2.425  13.712
77487W        W49813   6.515  36.535  14.340
77488W        W49814  14.413  36.526   3.161
77489W        W49815  44.301  37.985  10.898
77490W        W49816  30.988  21.520   3.376
77491W        W49817  26.694  29.214   2.637
77492W        W49818   7.248   0.936   1.298
77493W        W49819  37.734   0.009  12.837
77494W        W49820  35.142   1.942   1.916
77495W        W49821  35.955   5.731  12.574
77496W        W49822   2.195  44.633  13.224
77497W        W49823  32.003   4.741  12.710
77498W        W49824  30.468   9.721   0.313
77499W        W49825  20.992   4.553   4.685
77500W        W49826  38.130   4.774  12.482
77501W        W49827  40.005  11.839   0.878
77502W        W49828  30.808  28.416  13.307
77503W        W49829  10.157  25.957   2.778
77504W        W49830  23.035  24.976   2.609
77505W        W49831  22.721  11.519   4.212
77506W        W49832  13.696  26.097   2.018
77507W        W49833   4.289  44.846  13.022
77508W        W49834  20.740   4.356   0.835
77509W        W49835  30.383  44.840   2.442
77510W        W49836   4.180  11.049  14.868
77511W        W49837  16.313  43.030   3.189
77512W        W49838  30.169   6.785  12.410
77513W        W49839  35.515   6.956  12.790
77514W        W49840  16.183  33.112   2.526
77515W        W49841  31.062  40.562  13.577
77516W        W49842  44.890  19.042   1.222
77517W        W49843  25.155  28.063   4.141
77518W        W49844  22.609  35.548  12.408
77519W        W49845  13.150   6.139  14.530
77520W        W49846  19.015  34.748  13.885
77521W        W49847  15.451   7.425   3.118
77522W        W49848  11.614  18.184   1.699
77523W        W49849  24.210  28.461  11.601
77524W        W49850  24.625  44.573  11.336
77525W        W49851  42.806  11.803   4.278
77526W        W49852   2.711  23.307   3.821
77527W        W49853  35.643  13.227  12.366
77528W        W49854  12.751  37.993   0.158
77529W        W49855   4.180  44.866   2.327
77530W        W49856  35.290   9.318   2.807
77531W        W49857   0.658  37.779  11.134
77532W        W49858  36.950  17.037   2.366
77533W        W49859  31.956  10.733  12.757
77534W        W49860  36.016   7.711  11.080
77535W        W49861   0.546  33.113   0.344
77536W        W49862  37.513  18.881   4.563
77537W        W49863  44.079   1.521  12.655
77538W        W49864  34.149  25.002  13.840
77539W        W49865  28.451  27.477  11.245
77540W        W49866  24.431  41.433  11.533
77541W        W49867   4.325  28.719   2.279
77542W        W49868  18.833  33.433   3.136
77543W        W49869  42.412  25.222   2.754
77544W        W49870  39.614  23.223   0.386
77545W        W49871  23.104  39.333   0.903
77546W        W49872  27.620  14.166   2.631
77547W        W49873   9.179  33.375  13.982
77548W        W49874  31.126  10.874  14.526
77549W        W49875   1.476  21.282   0.308
77550W        W49876   0.892   9.873  10.836
77551W        W49877  32.261   6.961  11.592
77552W        W49878  20.759  22.483  13.606
77553W        W49879  31.216  14.935   1.279
77554W        W49880  35.446   0.274   3.147
77555W        W49881  37.499  33.963   2.786
77556W        W49882  36.400  30.950  11.535
77557W        W49883  40.865   5.880  14.506
77558W        W49884   1.322  31.399  11.166
77559W        W49885  23.326  44.319   2.306
77560W        W49886  37.743   7.510   2.191
77561W        W49887  12.019  11.157  13.501
77562W        W49888   6.215  37.533   4.586
77563W        W49889  40.825  21.297  12.354
77564W        W49890  22.781  19.969   2.429
77565W        W49891   9.324  19.539  13.973
77566W        W49892  40.764  42.049   1.697
77567W        W49893  40.807  10.877   1.413
77568W        W49894   0.918   3.294   4.158
77569W        W49895   2.702   4.993  13.590
77570W        W49896  41.567   4.506   0.518
77571W        W49897  13.966  24.046  11.512
77572W        W49898  15.277  12.248  14.257
77573W        W49899   6.439  39.620  12.003
77574W        W49900  15.268   2.352  13.432
77575W        W49901  35.461  26.992   1.018
77576W        W49902   3.157  19.689  14.874
77577W        W49903  15.695  16.119   0.355
77578W        W49904  18.702  37.226   1.468
77579W        W49905   3.783   6.790  14.463
77580W        W49906   8.716  18.801   2.623
77581W        W49907   8.429  28.221  14.877
77582W        W49908   2.361  14.819  13.404
77583W        W49909  17.673  28.968   2.210
77584W        W49910  30.036  28.184  12.906
77585W        W49911  38.634  28.923  12.185
77586W        W49912   9.366  12.616   3.359
77587W        W49913   4.300  26.162   0.318
77588W        W49914   7.696  15.700  12.752
77589W        W49915  40.620  25.038  13.059
77590W        W49916   1.955   9.780   2.783
77591W        W49917  41.740   4.935  13.419
77592W        W49918   2.305  34.421   4.147
77593W        W49919  39.378  28.501   2.853
77594W        W49920   9.086  24.925  10.569
77595W        W49921  33.699  41.498   3.162
77596W        W49922  34.924  19.003   0.351
77597W        W49923  35.204  44.210  10.789
77598W        W49924  30.848  33.832   0.383
77599W        W49925  29.363  44.884   2.746
77600W        W49926  31.891  14.630   1.781
77601W        W49927  33.831  37.275   4.619
77602W        W49928  35.138  40.307   1.814
77603W        W49929  12.089  44.355  13.023
77604W        W49930  10.899   8.271   0.408
77605W        W49931   1.992  15.083  13.129
77606W        W49932  37.068  29.096  14.175
77607W        W49933   7.006  27.573  11.714
77608W        W49934  12.609  27.487   3.698
77609W        W49935   7.663  41.208  14.917
77610W        W49936   8.570   1.416   2.292
77611W        W49937   2.933  21.122   9.745
77612W        W49938  29.061  20.670   1.347
77613W        W49939  41.692  25.970   4.982
77614W        W49940  25.189  21.643  12.819
77615W        W49941  28.770  39.547   3.493
77616W        W49942  19.353  38.847   4.585
77617W        W49943  36.579  24.929  14.800
77618W        W49944  22.661   8.449  14.929
77619W        W49945   0.379  11.561  10.839
77620W        W49946  13.114  20.456   3.438
77621W        W49947   8.609  24.737   0.558
77622W        W49948  23.880  10.084  11.607
77623W        W49949  37.399  44.831  11.450
77624W        W49950  33.541  43.328   1.758
77625W        W49951  38.817   0.718   3.146
77626W        W49952  31.584  18.140   0.143
77627W        W49953  24.316   6.761  11.225
77628W        W49954  21.694  16.844  11.124
77629W        W49955  29.067  14.602   1.811
77630W        W49956   3.146  17.957   0.938
77631W        W49957  22.111   0.665   3.239
77632W        W49958  23.187  28.485   1.846
77633W        W49959  14.387  20.816   4.610
77634W        W49960  33.880  20.709  12.083
77635W        W49961   7.606  30.929  10.568
77636W        W49962  27.627  42.789   0.810
77637W        W49963  24.413  12.850  12.763
77638W        W49964  18.023  25.129  12.147
77639W        W49965  27.207  17.709   2.130
77640W        W49966   9.199  44.050  12.394
77641W        W49967   8.614  36.025  12.397
77642W        W49968   3.185  39.373  13.715
77643W        W49969  27.114  14.778  13.990
77644W        W49970  39.469  17.746  13.096
77645W        W49971  11.650  32.648  13.854
77646W        W49972  33.941  19.299   0.412
77647W        W49973  32.064  28.936  13.186
77648W        W49974  44.707  30.996   0.793
77649W        W49975   7.745  19.230   0.878
77650W        W49976  17.141  21.212   1.404
77651W        W49977  18.325  37.134  14.421
77652W        W49978  33.387  30.804  10.797
77653W        W49979  36.709  14.658   3.356
77654W        W49980   7.730  29.866   4.192
77655W        W49981  40.643  12.182   4.152
77656W        W49982  43.007  29.918   1.351
77657W        W49983  12.923   2.891  12.894
77658W        W49984  20.026  27.105  13.011
77659W        W49985   3.796  22.563  14.925
77660W        W49986  34.492  39.357  11.358
77661W        W49987  12.251  34.917   2.268
77662W        W49988   1.427  32.667  13.464
77663W        W49989  14.405  33.036  10.092
77664W        W49990  35.613  29.614   1.321
77665W        W49991  17.706  11.814   1.811
77666W        W49992  28.449  13.415   3.680
77667W        W49993  35.585  34.370   0.457
77668W        W49994   6.770   6.747   2.173
77669W        W49995  14.096  30.246   2.190
77670W        W49996  28.274  15.510  11.449
77671W        W49997  19.348  28.716   2.868
77672W        W49998  32.388  29.807   3.068
77673W        W49999  27.988   0.936  12.959
77674W        W50000  29.396  14.469   0.682
77675W        W50001  18.195   1.379   2.665
77676W        W50002  20.063  42.716  11.469
77677W        W50003   5.677   2.408   0.501
77678W        W50004  21.450   2.648   4.166
77679W        W50005  44.033  15.969  12.493
77680W        W50006  37.871  24.975  13.922
77681W        W50007  32.891  23.598  14.867
77682W        W50008  35.426  10.183  12.702
77683W        W50009  30.403  27.736  14.292
77684W        W50010  18.587  24.312  13.926
77685W        W50011  32.936   0.486  13.413
77686W        W50012   9.870  28.064  12.076
77687W        W50013  31.125  40.547  11.465
77688W        W50014   7.924  26.694   3.562
77689W        W50015   6.402  24.746   2.822
77690W        W50016  11.774  28.899   4.180
77691W        W50017  29.917  34.537  11.157
77692W        W50018  33.098   1.195  12.433
77693W        W50019  23.201   4.491  13.916
77694W        W50020  38.279  35.613   4.657
77695W        W50021   4.389  27.628  14.458
77696W        W50022  25.640  34.631   0.871
77697W        W50023  17.884  33.946  10.856
77698W        W50024  20.087   1.348   4.724
77699W        W50025   1.707  39.833  14.323
77700W        W50026  39.884   5.699  13.318
77701W        W50027  25.435   7.993   2.830
77702W        W50028  16.818   8.729  13.973
77703W        W50029  30.948  32.970  13.296
77704W        W50030  24.184  11.340  12.792
77705W        W50031  24.908   2.941   2.841
77706W        W50032   4.968   9.778   2.291
77707W        W50033  27.558  14.729   2.414
77708W        W50034   3.631  13.966   4.594
77709W        W50035  33.382  24.531   0.352
77710W        W50036   1.415  15.801  12.635
77711W        W50037  30.589  42.374  11.952
77712W        W50038   6.469  12.168   0.869
77713W        W50039  11.697  23.783  14.496
77714W        W50040   5.305  40.297   0.874
77715W        W50041   3.886  36.124  11.654
77716W        W50042  21.397   8.083   2.185
77717W        W50043   8.361   0.456   1.015
77718W        W50044  17.552  28.260   3.687
77719W        W50045  20.467  25.962  13.515
77720W        W50046  16.190  27.044  11.967
77721W        W50047  42.503  28.445   2.747
77722W        W50048   0.753   6.380  12.453
77723W        W50049   5.869   8.492   0.830
77724W        W50050  17.961   1.421   4.955
77725W        W50051  33.980  41.966  13.497
77726W        W50052  42.812  19.499  11.110
77727W        W50053  13.628   7.406  14.436
77728W        W50054  17.319  21.365   1.895
77729W        W50055  11.531  26.693  10.719
77730W        W50056   3.600  28.707  14.613
77731W        W50057   8.909  33.443   0.737
77732W        W50058  36.782  21.130  14.336
77733W        W50059  27.693  41.802   2.337
77734W        W50060  42.461   1.492  14.488
77735W        W50061  43.347   5.773  14.735
77736W        W50062  39.810  43.043   1.253
77737W        W50063  28.450  22.376   4.667
77738W        W50064  37.738  40.441   4.169
77739W        W50065  10.162  38.809   2.123
77740W        W50066  33.702   3.105  13.930
77741W        W50067  35.392  11.263  11.522
77742W        W50068  10.884   1.915  12.654
77743W        W50069  16.077  12.676  12.336
77744W        W50070  13.297  38.479   1.269
77745W        W50071   5.337   3.758   3.207
77746W        W50072   2.775  39.893   3.232
77747W        W50073   0.056  21.248   0.315
77748W        W50074  29.050  25.217  14.877
77749W        W50075  17.710  20.700   0.448
77750W        W50076  18.716   4.040   0.635
77751W        W50077  42.113  34.452  14.481
77752W        W50078  31.631   9.667  14.306
77753W        W50079  26.752   2.286   4.356
77754W        W50080   0.289  24.984   0.359
77755W        W50081  36.016  22.718   3.616
77756W        W50082  27.231   9.431  11.483
77757W        W50083   4.344  27.737   3.247
77758W        W50084  34.949  22.609   2.730
77759W        W50085  30.454  36.012  12.949
77760W        W50086  38.977   4.677   5.121
77761W        W50087  23.119   5.299   3.957
77762W        W50088  17.094  41.420   2.881
77763W        W50089  17.501  26.240   1.355
77764W        W50090  30.935  41.460  13.398
77765W        W50091  32.323   4.700   2.370
77766W        W50092  40.048  20.598   2.782
77767W        W50093  26.890  29.875   1.129
77768W        W50094  24.026   3.906  12.518
77769W        W50095   2.674  14.569   1.620
77770W        W50096  10.763  39.316  13.501
77771W        W50097  36.065  29.591  11.820
77772W        W50098  39.940  28.977  14.742
77773W        W50099   7.317  42.049  13.842
77774W        W50100  13.481   6.399  14.206
77775W        W50101  32.566  26.149  11.249
77776W        W50102  14.089  38.389  12.148
77777W        W50103  30.193  40.879  13.606
77778W        W50104   1.551   9.649   0.487
77779W        W50105  13.336  44.185   3.300
77780W        W50106  25.549  19.836  13.579
77781W        W50107  27.995   7.775   0.371
77782W        W50108  24.239  22.439   1.990
77783W        W50109   2.092   5.768   2.753
77784W        W50110  43.788   6.915  12.900
77785W        W50111  20.160  35.650   1.032
77786W        W50112  28.415  10.012   0.299
77787W        W50113  27.985  44.842  10.544
77788W        W50114  28.568   9.355  12.858
77789W        W50115  28.957  11.638  11.701
77790W        W50116   1.213  18.680   1.511
77791W        W50117   0.713   9.408  10.853
77792W        W50118  30.416  37.002  11.653
77793W        W50119   1.475  44.267  14.269
77794W        W50120   3.504  32.733  14.588
77795W        W50121  16.792  25.668   0.753
77796W        W50122  11.462  16.058  11.913
77797W        W50123  10.540  32.623  12.816
77798W        W50124  25.535   4.245  12.184
77799W        W50125  37.639  10.729   4.240
77800W        W50126   8.808  10.327   4.632
77801W        W50127   8.348  40.264  14.308
77802W        W50128  14.676   4.367   1.408
77803W        W50129  34.332  20.703  12.352
77804W        W50130  40.794  39.372  14.498
77805W        W50131   2.696  37.539   3.233
77806W        W50132  38.818  22.950  12.838
77807W        W50133  14.419  44.914   0.053
77808W        W50134  42.758  40.112   4.755
77809W        W50135   7.941  36.308  13.529
77810W        W50136  11.166  12.189   1.457
77811W        W50137  17.715  38.033  11.154
77812W        W50138  14.068  39.230  10.739
77813W        W50139  37.471   8.261   4.669
77814W        W50140  36.049  14.579  11.565
77815W        W50141   5.999  19.825   0.924
77816W        W50142  42.666   3.469  11.836
77817W        W50143  12.574  40.413   1.439
77818W        W50144  40.988   9.472   3.338
77819W        W50145  40.451  33.096   0.741
77820W        W50146   1.739  31.941   3.218
77821W        W50147  15.261  41.471  11.148
77822W        W50148  34.251   4.979   2.784
77823W        W50149  24.668  14.965  13.833
77824W        W50150   3.674  43.314  12.619
77825W        W50151  16.773  18.611   2.290
77826W        W50152  29.418   8.313  13.847
77827W        W50153  31.446   4.857  11.105
77828W        W50154  40.119  42.598   0.664
77829W        W50155   4.196  37.570   3.855
77830W        W50156  16.221  18.754  12.443
77831W        W50157   2.310  38.322   2.238
77832W        W50158  27.988  24.023  13.719
77833W        W50159   1.210  15.398  12.353
77834W        W50160  10.308  18.754  13.016
77835W        W50161  43.016  11.432   1.683
77836W        W50162  32.085  15.206   2.404
77837W        W50163  15.211  42.551   1.886
77838W        W50164  24.528   1.955  12.043
77839W        W50165  26.506  22.375   4.636
77840W        W50166  25.740  42.924  10.302
77841W        W50167  38.027   8.941  12.419
77842W        W50168  10.623   5.332   1.289
77843W        W50169  21.428  20.819   1.788
77844W        W50170  30.982   6.839  11.942
77845W        W50171   9.249  44.445  12.080
77846W        W50172  19.708   6.155   1.307
77847W        W50173  42.323  18.914   2.580
77848W        W50174   3.954  33.557   2.189
77849W        W50175  10.292  30.258  13.012
77850W        W50176   4.658  15.819   1.639
77851W        W50177   3.882  21.551  14.044
77852W        W50178  19.175  25.988  13.416
77853W        W50179  37.567  21.128   4.727
77854W        W50180  23.581   6.030  14.337
77855W        W50181   8.317   9.666   0.836
77856W        W50182   5.817   4.316  14.541
77857W        W50183  34.841  27.306   3.673
77858W        W50184  21.004  38.114  13.656
77859W        W50185   6.765  29.109  12.093
77860W        W50186  10.866  18.726  14.717
77861W        W50187  30.419  43.212  10.628
77862W        W50188  20.889  38.667  11.942
77863W        W50189  21.594  32.897  14.484
77864W        W50190  20.291  22.737   9.929
77865W        W50191   9.544  18.713  13.462
77866W        W50192  14.694  22.446   3.775
77867W        W50193   2.413  20.978   2.193
77868W        W50194  12.794  23.210  14.312
77869W        W50195   9.412  27.872  14.803
77870W        W50196  21.491  21.136  14.081
77871W        W50197  37.525   0.287  11.212
77872W        W50198   8.097   3.390   4.042
77873W        W50199   9.625  14.862  11.671
77874W        W50200  33.662  36.554   1.225
77875W        W50201  39.097  44.068   4.341
77876W        W50202  26.078  28.935   2.686
77877W        W50203  43.184  19.273  14.719
77878W        W50204  36.776  44.901   3.281
77879W        W50205  20.523  14.625  11.338
77880W        W50206  18.351   4.721   4.228
77881W        W50207  33.688   3.801   0.446
77882W        W50208  29.207  43.908   0.317
77883W        W50209  18.108  34.312  13.850
77884W        W50210  34.309  17.191   2.812
77885W        W50211   6.409  39.067  12.877
77886W        W50212  10.359  13.255   0.327
77887W        W50213  39.386  15.731   0.805
77888W        W50214   1.108  27.009  13.554
77889W        W50215  34.397  17.155  10.953
77890W        W50216  16.088  13.731  13.374
77891W        W50217  10.475   7.275  11.642
77892W        W50218   2.828   6.178   4.008
77893W        W50219   5.598  34.861  12.658
77894W        W50220  17.424  11.554  10.221
77895W        W50221   2.031  33.767   1.936
77896W        W50222  24.038  27.012   2.888
77897W        W50223   5.921  20.506   4.571
77898W        W50224   3.171  19.684   4.780
77899W        W50225  13.593  33.990  13.059
77900W        W50226  42.401  28.712   3.235
77901W        W50227  34.106  29.671   2.424
77902W        W50228  18.109  10.834   4.891
77903W        W50229  19.690   1.085  12.497
77904W        W50230  31.638  35.080  14.385
77905W        W50231  14.179   1.291  11.454
77906W        W50232  23.785  37.049  14.293
77907W        W50233  22.684  26.273   3.696
77908W        W50234   7.462   4.218  12.632
77909W        W50235  40.296  37.364  13.282
77910W        W50236  41.334  12.328  12.804
77911W        W50237  30.430   9.228  10.673
77912W        W50238  12.395  10.962   2.412
77913W        W50239   6.597  11.265   4.821
77914W        W50240   2.473  38.629   4.696
77915W        W50241  24.171   2.803  14.389
77916W        W50242  43.289  33.894   2.319
77917W        W50243  27.457  39.539  13.400
77918W        W50244  14.265  14.339  13.158
77919W        W50245  25.061  17.525   1.961
77920W        W50246  41.379  18.159   3.191
77921W        W50247  15.365   2.747  13.009
77922W        W50248  14.096  17.075   4.541
77923W        W50249  37.959  10.621  13.820
77924W        W50250  25.629  18.562   2.598
77925W        W50251  19.845  28.028   5.102
77926W        W50252  31.115   7.916  12.571
77927W        W50253  18.103  44.059  14.434
77928W        W50254  17.528  20.994  11.935
77929W        W50255   6.313  41.020   4.719
77930W        W50256  22.337  31.647   0.930
77931W        W50257   2.043  39.879   3.621
77932W        W50258  25.957  38.778   2.932
77933W        W50259  42.632  43.002   3.400
77934W        W50260  28.459  22.691  13.368
77935W        W50261  28.188  10.684   0.863
77936W        W50262  39.353   9.062   4.867
77937W        W50263  28.972  34.129   4.892
77938W        W50264  12.321  12.677  13.354
77939W        W50265  30.563  42.097   2.221
77940W        W50266  44.491  33.085   1.175
77941W        W50267  39.369  38.864   4.736
77942W        W50268  30.032  29.245   1.778
77943W        W50269  34.516  13.689   4.523
77944W        W50270  41.013  43.079  11.600
77945W        W50271  42.061   4.382   1.298
77946W        W50272  40.240   4.770  11.435
77947W        W50273   4.210   0.751   1.017
77948W        W50274  13.779  27.647  10.966
77949W        W50275   8.047  16.242  13.388
77950W        W50276  12.547  26.951  14.083
77951W        W50277  28.599  42.397   3.747
77952W        W50278  34.461   4.931  14.445
77953W        W50279  27.342   2.128   2.734
77954W        W50280  13.287  42.802   0.743
77955W        W50281   7.225  38.117   4.610
77956W        W50282  15.352  33.587  14.965
77957W        W50283  37.382  23.202  12.068
77958W        W50284  36.503  11.293  12.446
77959W        W50285  43.298  21.130  13.054
77960W        W50286  21.981   4.395  11.782
77961W        W50287  15.068  27.161   4.260
77962W        W50288  44.542  38.430   4.134
77963W        W50289  32.233  11.096  12.152
77964W        W50290  19.957   6.654   1.829
77965W        W50291   2.430  36.302  11.595
77966W        W50292  25.828   6.377  11.633
77967W        W50293  25.491   7.811   1.021
77968W        W50294  43.018  30.940  13.537
77969W        W50295  39.557  24.072  14.419
77970W        W50296  16.557  19.981   4.636
77971W        W50297  24.338  43.010  13.335
77972W        W50298  18.258  37.816   3.182
77973W        W50299   8.227  23.280  11.111
77974W        W50300  41.261   6.519  14.937
77975W        W50301  16.535  24.891  14.472
77976W        W50302  26.801  13.112  12.012
77977W        W50303   6.165  18.555   0.368
77978W        W50304  41.440  29.677   0.958
77979W        W50305  10.180  16.122  12.285
77980W        W50306  34.836  11.140   0.994
77981W        W50307  12.254  28.665   1.779
77982W        W50308  25.236  21.023   2.827
77983W        W50309  22.721  21.189   3.702
77984W        W50310  42.402  17.195  11.193
77985W        W50311  38.358  37.550  12.161
77986W        W50312  22.580   7.956  14.840
77987W        W50313  37.073   4.652  10.247
77988W        W50314  42.716  15.471   4.119
77989W        W50315  33.602  26.532  12.061
77990W        W50316  27.536  18.574   2.434
77991W        W50317  43.022   8.599  13.079
77992W        W50318   3.842  14.787   4.256
77993W        W50319   1.094  10.669   0.753
77994W        W50320  22.812  44.295  14.547
77995W        W50321  36.596  34.153  13.117
77996W        W50322  16.238  38.049   1.050
77997W        W50323  30.748  23.995   2.749
77998W        W50324   9.605   8.923  11.555
77999W        W50325  42.810  14.808  11.509
78000W        W50326  40.935   7.698   2.303
78001W        W50327  16.141  41.376   2.378
78002W        W50328   2.953   9.796  12.897
78003W        W50329   6.917   2.727  12.820
78004W        W50330  28.615  42.971   4.562
78005W        W50331  30.275  34.038  10.662
78006W        W50332   8.211  10.343  13.236
78007W        W50333  44.353   9.680  10.713
78008W        W50334  24.614  18.056  12.437
78009W        W50335   9.817  43.201  14.945
78010W        W50336  23.241  24.592  11.308
78011W        W50337  25.962  27.293   2.889
78012W        W50338  20.791  33.468   0.469
78013W        W50339  13.422  28.211  14.963
78014W        W50340  42.434  19.388  11.906
78015W        W50341  39.991  11.884   2.763
78016W        W50342  40.226   2.053  13.567
78017W        W50343  41.335  28.045   1.923
78018W        W50344   5.977  24.726   0.994
78019W        W50345  34.168  23.390  13.531
78020W        W50346  18.834  42.304  12.088
78021W        W50347   6.223  12.840  12.929
78022W        W50348   7.729  39.287   4.352
78023W        W50349  44.411  25.709  11.774
78024W        W50350   8.208  33.897   3.230
78025W        W50351  42.765  44.445  14.438
78026W        W50352  17.498  19.627   4.443
78027W        W50353   8.938  39.566  12.048
78028W        W50354  37.773  27.232   4.422
78029W        W50355  12.768  31.968   4.961
78030W        W50356  44.984  23.961  11.129
78031W        W50357  20.315  12.318  13.498
78032W        W50358   0.051  42.457   0.802
78033W        W50359  28.091  15.263   4.092
78034W        W50360   9.701  32.479   1.907
78035W        W50361  30.053  27.985   1.333
78036W        W50362   4.782  40.122   9.966
78037W        W50363  37.558  38.960  12.854
78038W        W50364  14.697  16.985   1.882
78039W        W50365  18.041  13.600  11.156
78040W        W50366  34.334  19.591   0.752
78041W        W50367  20.308  15.044  11.105
78042W        W50368  16.218  37.050   2.455
78043W        W50369  31.511  43.132  12.898
78044W        W50370  27.863  14.243   1.216
78045W        W50371  41.849  39.035   1.327
78046W        W50372  33.313  14.171  13.870
78047W        W50373  13.848   8.836  12.047
78048W        W50374  31.576   4.898  12.017
78049W        W50375  33.142   3.148   2.761
78050W        W50376  39.083  13.721  11.523
78051W        W50377  38.531   7.865  11.953
78052W        W50378  13.734  28.697   2.220
78053W        W50379  17.599  29.747  13.127
78054W        W50380   2.221  39.089  11.925
78055W        W50381  31.663  25.014   3.658
78056W        W50382  38.852  11.572   0.033
78057W        W50383  33.180  16.980  14.310
78058W        W50384  20.641  25.022   4.300
78059W        W50385  30.352  33.525  10.557
78060W        W50386  28.066  42.517   0.741
78061W        W50387  12.274  22.565   3.424
78062W        W50388  29.450   7.725   2.852
78063W        W50389  25.604  27.562  11.898
78064W        W50390  38.548  31.408   0.325
78065W        W50391  26.511  43.214  13.355
78066W        W50392  13.864  10.212   1.401
78067W        W50393  40.761  28.769  14.375
78068W        W50394  39.504  13.790  13.632
78069W        W50395  27.908  20.729  13.825
78070W        W50396   6.847  37.854   0.246
78071W        W50397  24.351  23.975  14.447
78072W        W50398  23.506  21.302   0.445
78073W        W50399  41.121   8.126   1.257
78074W        W50400  37.101   5.683   4.385
78075W        W50401  21.756  18.081   4.011
78076W        W50402  23.621  25.318   4.456
78077W        W50403  19.125   6.119  10.577
78078W        W50404   9.355  40.036   0.823
78079W        W50405   4.181  28.663   1.195
78080W        W50406  17.250  12.114   1.811
78081W        W50407  11.641  14.131   9.889
78082W        W50408  43.632   1.299   1.606
78083W        W50409   5.819  37.259   3.220
78084W        W50410  36.594  32.073   3.686
78085W        W50411   7.649  32.681  11.995
78086W        W50412   6.217  39.595   0.285
78087W        W50413  18.334   7.731  13.767
78088W        W50414  30.683  23.326   0.460
78089W        W50415   5.943  41.292  13.976
78090W        W50416  28.866  16.020  12.067
78091W        W50417  26.723   8.638  12.496
78092W        W50418  19.528  15.181  12.367
78093W        W50419  27.060   1.715   1.734
78094W        W50420  42.111  28.079   1.233
78095W        W50421  31.962  19.102   3.648
78096W        W50422  25.202  20.239  11.895
78097W        W50423   4.416   7.212  14.393
78098W        W50424  18.576  24.959   2.675
78099W        W50425  30.858  10.039  12.430
78100W        W50426  11.283   0.193   2.594
78101W        W50427  20.125  38.650   1.817
78102W        W50428  14.520  29.395   0.922
78103W        W50429  14.694  18.627  13.417
78104W        W50430  43.954  20.056  10.724
78105W        W50431  43.417  33.823   3.187
78106W        W50432  31.425  21.021  10.918
78107W        W50433  18.982  19.154  10.699
78108W        W50434  42.241  36.337   4.707
78109W        W50435  19.227  24.522  10.660
78110W        W50436  21.314   4.160  14.628
78111W        W50437  26.683  25.727  11.662
78112W        W50438  10.086   9.431  13.250
78113W        W50439  23.033  39.053  14.992
78114W        W50440  22.146   9.334  14.515
78115W        W50441  35.264  22.171   2.844
78116W        W50442  23.599  34.842  14.841
78117W        W50443  33.333  36.565   2.821
78118W        W50444  27.025  19.610  11.167
78119W        W50445  21.631   5.659   4.591
78120W        W50446   4.768  22.736   1.835
78121W        W50447  22.778   3.973  13.017
78122W        W50448  36.658  16.226   2.265
78123W        W50449  11.116  38.814   0.745
78124W        W50450   8.306  29.557   2.650
78125W        W50451  10.360  22.509  14.789
78126W        W50452   2.909  10.234  11.144
78127W        W50453  26.418  10.842  13.568
78128W        W50454  40.867   6.140   3.256
78129W        W50455  22.552   5.400   0.873
78130W        W50456  15.677  13.579   3.741
78131W        W50457  13.834  20.899  12.068
78132W        W50458  29.209  32.087   1.726
78133W        W50459  26.301  24.230   4.615
78134W        W50460  42.247  28.156   1.733
78135W        W50461  10.462  19.486   5.159
78136W        W50462   0.441  41.793  13.565
78137W        W50463  18.917  22.392   2.777
78138W        W50464  19.490   0.948   5.131
78139W        W50465  15.391  22.849  13.994
78140W        W50466  13.173  11.066   3.837
78141W        W50467  16.826  30.105  12.954
78142W        W50468  10.327  14.511  11.488
78143W        W50469  17.603  31.934   1.321
78144W        W50470  14.656   4.299   3.636
78145W        W50471  31.924  22.481   3.557
78146W        W50472  13.193  37.035   3.776
78147W        W50473  13.104  44.480  10.534
78148W        W50474  34.078  30.958  13.155
78149W        W50475  37.776  28.063  13.056
78150W        W50476   2.827  44.409   4.624
78151W        W50477  44.514   5.761   4.786
78152W        W50478  20.503   4.397  13.913
78153W        W50479   6.002  23.250  11.707
78154W        W50480  29.636   9.563  14.076
78155W        W50481  20.147  24.282   2.248
78156W        W50482   0.741  16.075  14.030
78157W        W50483  26.909   2.246   0.490
78158W        W50484  14.049  37.874   1.362
78159W        W50485   7.718  25.182   2.771
78160W        W50486  28.985  17.444  14.425
78161W        W50487  31.558  27.980   1.948
78162W        W50488   5.713  42.102  12.499
78163W        W50489   4.203   7.932  12.388
78164W        W50490  19.262  29.541   2.827
78165W        W50491  44.676  12.594  14.544
78166W        W50492  11.699  28.103   2.408
78167W        W50493  33.113  12.120  10.964
78168W        W50494  26.960  25.945  13.400
78169W        W50495  17.091  16.782  12.008
78170W        W50496  39.126  39.819  14.784
78171W        W50497  38.915  18.839  14.923
78172W        W50498  34.487  16.849  14.471
78173W        W50499  25.210  33.841   2.731
78174W        W50500  40.096  27.445  12.383
78175W        W50501  28.721  30.699   3.667
78176W        W50502  41.813  35.906  10.726
78177W        W50503  24.051  12.193  13.887
78178W        W50504  36.827  34.078  10.558
78179W        W50505   1.099  43.491  14.222
78180W        W50506   5.010  27.729   3.758
78181W        W50507  15.737  24.019   0.309
78182W        W50508  18.056  44.965   4.828
78183W        W50509   1.014  11.413   4.230
78184W        W50510  17.114  37.194   4.526
78185W        W50511  29.394  28.554   5.142
78186W        W50512  40.386  29.242  13.528
78187W        W50513   2.127   3.111  13.778
78188W        W50514  20.136  14.900  13.834
78189W        W50515  20.661  31.871  14.303
78190W        W50516  11.252  34.939   3.417
78191W        W50517  27.673   3.806  11.971
78192W        W50518  35.949  19.299  12.531
78193W        W50519  43.255  21.801  14.805
78194W        W50520  40.952   0.081   0.743
78195W        W50521  36.524  30.726   4.511
78196W        W50522   7.419  17.988  12.535
78197W        W50523  43.000  35.176  10.404
78198W        W50524  28.985  16.147   2.265
78199W        W50525   9.740  13.021   2.236
78200W        W50526  38.542  41.939  10.615
78201W        W50527  10.140  25.538   3.372
78202W        W50528  36.377  41.089  11.577
78203W        W50529  29.195  37.861   1.366
78204W        W50530  26.556   0.561   4.873
78205W        W50531  37.420   0.788   3.693
78206W        W50532  25.203  41.046   4.365
78207W        W50533  39.235  17.316  14.798
78208W        W50534  36.897  41.314   3.347
78209W        W50535  42.085  15.637   5.060
78210W        W50536  17.064  33.537  11.986
78211W        W50537   4.673  44.977   3.973
78212W        W50538   7.662  44.121  10.478
78213W        W50539  31.095  35.056  13.383
78214W        W50540  14.645  33.828   2.112
78215W        W50541  16.129   6.853  13.033
78216W        W50542   5.941  36.792  12.943
78217W        W50543  16.609   2.267   2.043
78218W        W50544  17.355  29.209   4.074
78219W        W50545  26.595  36.806   1.706
78220W        W50546   0.371  42.594  12.843
78221W        W50547  12.892  10.027  12.637
78222W        W50548  44.689   5.868  14.525
78223W        W50549  39.566  32.309  13.365
78224W        W50550   8.323  40.441   3.914
78225W        W50551  32.173  40.057  12.572
78226W        W50552  17.589  27.126   1.655
78227W        W50553  16.079   1.726   0.450
78228W        W50554  20.221  12.401   0.420
78229W        W50555  44.710  26.745  10.382
78230W        W50556  12.865  22.850   0.192
78231W        W50557   6.652   2.370   1.336
78232W        W50558   4.676  41.418   2.891
78233W        W50559  29.029  12.892   1.166
78234W        W50560  42.358  21.979  14.504
78235W        W50561   2.703  33.397   2.854
78236W        W50562  25.430   3.792  12.401
78237W        W50563   5.786  18.615   2.701
78238W        W50564  38.401  24.215  13.837
78239W        W50565  18.119  19.210  12.937
78240W        W50566  32.884  31.536  11.599
78241W        W50567  33.053  18.924   4.742
78242W        W50568   5.011  36.881   2.822
78243W        W50569  31.992  13.366  13.851
78244W        W50570   7.616  20.169  11.216
78245W        W50571  41.318  37.400   0.743
78246W        W50572  34.529   7.116   1.959
78247W        W50573  38.625  30.602   3.195
78248W        W50574  16.252  37.101  14.358
78249W        W50575  34.573  41.795   0.326
78250W        W50576  43.790  44.442   0.417
78251W        W50577  40.478  31.464   2.774
78252W        W50578   8.077  39.671   2.383
78253W        W50579  23.309   4.705  12.499
78254W        W50580  15.746  44.243  14.260
78255W        W50581  24.220  24.500  13.519
78256W        W50582  35.933  30.645  14.833
78257W        W50583  10.197   6.690   1.915
78258W        W50584  42.384  44.221  11.643
78259W        W50585   9.479   0.521   1.472
78260W        W50586   1.896  24.089   4.317
78261W        W50587   7.368  44.217  14.769
78262W        W50588  43.852   5.484  11.886
78263W        W50589   8.457  42.211   3.446
78264W        W50590  24.329   6.255   4.647
78265W        W50591  38.691   3.308   1.442
78266W        W50592  34.890  18.082  13.057
78267W        W50593  33.528  32.928   3.241
78268W        W50594  29.814  31.461  12.973
78269W        W50595  33.774  24.573  12.104
78270W        W50596   0.991  23.200  14.894
78271W        W50597  23.657  34.904  11.098
78272W        W50598  43.693  39.096  13.430
78273W        W50599  13.311  44.575   5.028
78274W        W50600  28.158  34.061  11.535
78275W        W50601  13.852   6.205  11.577
78276W        W50602  13.809  32.382   0.305
78277W        W50603  44.860  21.559   0.703
78278W        W50604  10.778  21.965   4.064
78279W        W50605   3.513  35.510   1.361
78280W        W50606  42.089  39.917   1.885
78281W        W50607  21.105  39.643  10.588
78282W        W50608  30.461  27.206   1.233
78283W        W50609  10.781  29.046   2.444
78284W        W50610  36.565  41.272   2.364
78285W        W50611   6.576  22.498  14.778
78286W        W50612  19.785  17.028  11.608
78287W        W50613   4.028  13.642  14.932
78288W        W50614  40.335  24.141   0.526
78289W        W50615  32.689  20.610  10.752
78290W        W50616  34.419  10.291  13.090
78291W        W50617   5.104  29.410   0.251
78292W        W50618  37.508  25.490   4.580
78293W        W50619  40.460  32.757  14.396
78294W        W50620   9.437  23.567   5.203
78295W        W50621  14.298  43.850  10.686
78296W        W50622  27.032  22.656   3.174
78297W        W50623  22.860  22.576   2.037
78298W        W50624  43.675  13.004  13.788
78299W        W50625   7.832  44.378   4.971
78300W        W50626   1.405  11.097  13.479
78301W        W50627  14.701  12.202   3.558
78302W        W50628  22.215  18.591   2.750
78303W        W50629  38.905  27.546  13.523
78304W        W50630  13.566   2.853   3.858
78305W        W50631   1.965   2.186   3.644
78306W        W50632  41.894  37.561   3.076
78307W        W50633  25.977  24.618   0.376
78308W        W50634  26.773   0.572   3.427
78309W        W50635  25.274   7.829  11.597
78310W        W50636   3.893  37.576  14.452
78311W        W50637   2.160  24.039  12.502
78312W        W50638  37.869   3.371  14.377
78313W        W50639  25.654  41.525   0.301
78314W        W50640  25.703  44.555   0.825
78315W        W50641   7.937  38.176  13.264
78316W        W50642  22.582  32.142   0.294
78317W        W50643  20.595  32.282   1.812
78318W        W50644  40.421  33.391   2.964
78319W        W50645   4.879   9.548   1.336
78320W        W50646  40.458  12.853  14.310
78321W        W50647  24.607  34.938  13.509
78322W        W50648  11.168   6.913   4.440
78323W        W50649  39.342  23.595  14.460
78324W        W50650  41.421   5.355  11.998
78325W        W50651  19.073  31.916   1.475
78326W        W50652  20.046  35.845  11.635
78327W        W50653  29.130  32.964  11.583
78328W        W50654  40.369  15.331  12.405
78329W        W50655  11.357  24.322   1.254
78330W        W50656  38.897  32.437   4.549
78331W        W50657   3.274  36.876  13.063
78332W        W50658  11.343  35.278   4.663
78333W        W50659  11.287  43.113  12.343
78334W        W50660  40.424  24.055  11.639
78335W        W50661  28.921  21.473  11.969
78336W        W50662  33.661  38.680   1.875
78337W        W50663  23.403   8.246  11.244
78338W        W50664  39.824  16.847  13.533
78339W        W50665  34.482  27.178   2.796
78340W        W50666   7.670  44.034   3.576
78341W        W50667  38.564  28.301   4.998
78342W        W50668  15.900   3.973  14.369
78343W        W50669   6.248  26.612   0.464
78344W        W50670  25.215  39.826   3.731
78345W        W50671   2.421  44.088   3.320
78346W        W50672  16.652  34.499   1.817
78347W        W50673  32.426  27.870   4.652
78348W        W50674  24.785   4.476  14.719
78349W        W50675  25.772  14.721   3.771
78350W        W50676  33.673  35.163   2.155
78351W        W50677  15.333  30.652  10.589
78352W        W50678  25.457  28.885  13.368
78353W        W50679   8.400  16.513  12.497
78354W        W50680  34.078   9.631   0.150
78355W        W50681  14.527  31.997  12.366
78356W        W50682  31.975  31.420  12.909
78357W        W50683  10.147   5.856  11.591
78358W        W50684  25.662  37.973   4.378
78359W        W50685  15.392  41.978  11.077
78360W        W50686   7.678  19.823   0.276
78361W        W50687  20.816   6.425  14.987
78362W        W50688  29.187   5.772   3.116
78363W        W50689  36.391  19.596   2.140
78364W        W50690   7.738  17.120  13.402
78365W        W50691  16.187  28.164   0.294
78366W        W50692  40.473   4.385   3.241
78367W        W50693  33.491  25.387  12.444
78368W        W50694  28.639  32.442  13.075
78369W        W50695   3.332  28.797   3.711
78370W        W50696  32.305  23.356   1.207
78371W        W50697  29.994  24.000   2.304
78372W        W50698   9.726  23.191  11.731
78373W        W50699  24.544   1.920   4.034
78374W        W50700   3.869  43.915   4.427
78375W        W50701  28.706  20.631   4.620
78376W        W50702  31.882  27.116   1.357
78377W        W50703  10.791  25.231   2.003
78378W        W50704  24.784   2.963   0.521
78379W        W50705   6.550  12.850  13.322
78380W        W50706   6.412  28.386   3.873
78381W        W50707  20.154  22.056  13.063
78382W        W50708  18.752  17.272  12.614
78383W        W50709  42.705  25.549  11.560
78384W        W50710  16.229  20.219   4.272
78385W        W50711  10.211  22.468   3.624
78386W        W50712  40.982  18.121  12.341
78387W        W50713  33.029  34.892   2.925
78388W        W50714  12.570  37.436   0.759
78389W        W50715  28.208  42.969   2.688
78390W        W50716  44.065  35.341   1.751
78391W        W50717  21.014  20.216   4.525
78392W        W50718  14.392  32.118   0.746
78393W        W50719   0.303  21.763   0.932
78394W        W50720  19.216  20.663   2.396
78395W        W50721  43.937  14.113  14.868
78396W        W50722  22.637  17.180   9.996
78397W        W50723  22.049  31.918  11.982
78398W        W50724  19.312  15.664   1.828
78399W        W50725  29.111  14.086   0.922
78400W        W50726  43.528  29.033   1.467
78401W        W50727  43.737  30.139  11.214
78402W        W50728  35.000   1.286  12.950
78403W        W50729  31.547  22.582  14.466
78404W        W50730  23.966  11.110   0.917
78405W        W50731   0.239  43.909   4.077
78406W        W50732  27.549   1.204   4.169
78407W        W50733  29.758  18.735  11.594
78408W        W50734  18.521  23.062   3.195
78409W        W50735  17.427   1.931   3.313
78410W        W50736  22.042  11.698   0.223
78411W        W50737  36.214  27.411   1.740
78412W        W50738  31.979  35.667   0.521
78413W        W50739  32.053   7.737   3.656
78414W        W50740   1.627  22.729   1.820
78415W        W50741  34.499  32.542  14.937
78416W        W50742  23.264  10.933  14.039
78417W        W50743  37.867   5.284  12.847
78418W        W50744   8.873  33.436   4.604
78419W        W50745  40.027  34.223   2.686
78420W        W50746  42.472   0.318   4.524
78421W        W50747  36.794  27.267  12.448
78422W        W50748  37.056  44.639  14.403
78423W        W50749   3.705   4.056   4.292
78424W        W50750  40.435  17.082  10.995
78425W        W50751  15.546  13.007  13.457
78426W        W50752  19.499  30.067  13.134
78427W        W50753  17.560  14.100  11.657
78428W        W50754   4.376  33.277  10.722
78429W        W50755  26.862  25.246   1.916
78430W        W50756  39.988  15.924  14.459
78431W        W50757  36.180  44.369  10.768
78432W        W50758  21.719  14.078  12.084
78433W        W50759  24.088  13.632   3.862
78434W        W50760  26.119   2.648  10.740
78435W        W50761  38.496  20.040  13.242
78436W        W50762  23.431  23.433  13.498
78437W        W50763  37.364  15.839  11.580
78438W        W50764  12.582  40.847  13.347
78439W        W50765  26.560  12.822   2.390
78440W        W50766  10.983  42.058   0.845
78441W        W50767  31.512  36.871   2.546
78442W        W50768   3.328   6.982  12.909
78443W        W50769   9.787  12.870   3.580
78444W        W50770  19.555  27.939   1.900
78445W        W50771   3.806   3.988   1.415
78446W        W50772   4.890   3.254  12.534
78447W        W50773   9.151  41.218   0.069
78448W        W50774  23.035  13.110  11.279
78449W        W50775  10.492  12.318   0.296
78450W        W50776  22.003  37.573   2.361
78451W        W50777  43.499  35.705  13.466
78452W        W50778   3.894  15.593   2.383
78453W        W50779  19.542  18.527   3.378
78454W        W50780  27.172   1.304   0.953
78455W        W50781  42.427  29.967  12.984
78456W        W50782  30.692   7.249   1.737
78457W        W50783  20.660  22.477   3.692
78458W        W50784  23.983  12.738  11.056
78459W        W50785  28.581  34.180  14.953
78460W        W50786   7.441  25.553   1.027
78461W        W50787   1.031  29.982   4.649
78462W        W50788  10.108  24.003   2.696
78463W        W50789  40.118  29.463   2.785
78464W        W50790  28.720  43.021   2.602
78465W        W50791  43.255  17.866   1.382
78466W        W50792  41.713  43.378  12.517
78467W        W50793  24.526   2.399   1.973
78468W        W50794  31.031  36.302  12.214
78469W        W50795   9.265  22.286  11.042
78470W        W50796   9.562  17.277   0.722
78471W        W50797  20.959  44.795   1.244
78472W        W50798  41.100  12.826   2.394
78473W        W50799  15.552  29.685   1.273
78474W        W50800  28.205  24.555   4.758
78475W        W50801  42.585  31.947   2.808
78476W        W50802  13.089   8.447  10.097
78477W        W50803  38.915  38.798  12.287
78478W        W50804  20.800  10.983   4.876
78479W        W50805  24.683  40.452   2.779
78480W        W50806  34.051  30.480  11.901
78481W        W50807  19.313   3.122   1.724
78482W        W50808  25.672  39.092   0.347
78483W        W50809  31.066  32.160  12.959
78484W        W50810  44.477  23.468   0.917
78485W        W50811   1.025  42.565  12.020
78486W        W50812  29.396  37.540   5.044
78487W        W50813  31.369  19.834   3.270
78488W        W50814   8.473  35.589   3.712
78489W        W50815  36.354  33.591  13.442
78490W        W50816  35.566  19.986   2.855
78491W        W50817   5.052   8.235   1.479
78492W        W50818  31.472  42.384  10.683
78493W        W50819   1.033  28.226   1.950
78494W        W50820  25.949  26.073   5.762
78495W        W50821  38.323  32.313   1.782
78496W        W50822  11.383   3.191  13.359
78497W        W50823  35.770  11.087   5.041
78498W        W50824  26.173  12.689  12.989
78499W        W50825  16.348   3.220   2.201
78500W        W50826  41.609  36.821  14.853
78501W        W50827  42.771   7.620  13.989
78502W        W50828   0.720  24.167   2.908
78503W        W50829   7.151   5.869  13.438
78504W        W50830  37.245   2.964  14.643
78505W        W50831  39.381   0.522   0.310
78506W        W50832   1.286  42.712   1.888
78507W        W50833   2.358  16.437   2.927
78508W        W50834   9.153   6.279   3.768
78509W        W50835  12.096   9.203  11.716
78510W        W50836   7.566   7.419  12.077
78511W        W50837  12.096  38.338  11.083
78512W        W50838   1.554  20.611   1.291
78513W        W50839  39.124  42.495   3.845
78514W        W50840  33.105   6.319   3.349
78515W        W50841  13.699  27.044  10.120
78516W        W50842  39.801   1.451   1.829
78517W        W50843   0.672  28.025   4.122
78518W        W50844  44.753   9.280  10.946
78519W        W50845   4.960  44.464   2.233
78520W        W50846   1.961  34.513  10.647
78521W        W50847   7.843  17.651   3.144
78522W        W50848   0.878   6.891  13.792
78523W        W50849  21.551  30.871  11.648
78524W        W50850  19.868  33.857   2.703
78525W        W50851  10.404  36.068   0.877
78526W        W50852  17.200  38.480   0.929
78527W        W50853  14.904  38.016  14.050
78528W        W50854  16.734  14.270  13.994
78529W        W50855  26.121  23.559   3.878
78530W        W50856  17.468  32.116   2.557
78531W        W50857  18.855  25.443   3.265
78532W        W50858  37.313  28.046   3.218
78533W        W50859  27.144  37.981  11.053
78534W        W50860   6.471  18.913   2.892
78535W        W50861  14.064   8.246   1.652
78536W        W50862  26.607  38.167  10.630
78537W        W50863  12.006   4.793   4.023
78538W        W50864  13.432  32.135  10.634
78539W        W50865  41.817  36.768  14.360
78540W        W50866  13.190  22.984  11.739
78541W        W50867   3.374   5.910  12.869
78542W        W50868  43.363  42.404  14.869
78543W        W50869   4.019  26.199  13.591
78544W        W50870  37.489  42.572  11.249
78545W        W50871  34.549  27.394  12.550
78546W        W50872   1.796  18.825  13.174
78547W        W50873  10.210  15.595  10.191
78548W        W50874  38.459  33.889   2.664
78549W        W50875   1.833  21.776   1.892
78550W        W50876  39.303  22.545   0.365
78551W        W50877  44.565  13.131   1.916
78552W        W50878   6.853  26.730  13.538
78553W        W50879  17.017  37.913  13.489
78554W        W50880  34.112  19.578   4.679
78555W        W50881  30.042  29.035   0.462
78556W        W50882   8.748  27.590  11.536
78557W        W50883  20.547  43.861  13.376
78558W        W50884   8.123  28.373  14.212
78559W        W50885  28.493  14.376  14.163
78560W        W50886  30.681   6.303   0.297
78561W        W50887  22.033  34.377   1.660
78562W        W50888  37.596  17.308  14.240
78563W        W50889   6.852   2.801   3.680
78564W        W50890   1.508  22.138  10.550
78565W        W50891  21.681  33.942   1.676
78566W        W50892  20.604   1.403   1.352
78567W        W50893   3.134  13.263  10.752
78568W        W50894  44.703  10.166  11.073
78569W        W50895  17.831  24.121   4.409
78570W        W50896  26.064  39.329   0.748
78571W        W50897  34.869   7.813   0.663
78572W        W50898  40.503   4.178   3.709
78573W        W50899  37.075   2.737  13.199
78574W        W50900  34.041  15.114  10.947
78575W        W50901  20.172  38.092  13.248
78576W        W50902  29.940  21.507   0.847
78577W        W50903  30.610  40.838  10.667
78578W        W50904  20.514  34.909  10.794
78579W        W50905  14.732  36.576  14.950
78580W        W50906  39.505  30.212  14.387
78581W        W50907  20.800  43.119   2.670
78582W        W50908  31.160  13.249  11.035
78583W        W50909   2.458  17.150  10.684
78584W        W50910   6.258  31.924   2.744
78585W        W50911  33.447   2.928  12.455
78586W        W50912  29.429  32.907   4.813
78587W        W50913  36.753  37.061  13.998
78588W        W50914  13.357  12.820  10.821
78589W        W50915  37.461  22.449   3.930
78590W        W50916  20.454  26.497   2.369
78591W        W50917  33.880  24.840   3.921
78592W        W50918  22.752  21.809   2.559
78593W        W50919  25.005   0.938   2.290
78594W        W50920  30.082  17.585  12.638
78595W        W50921  35.387  12.659   4.580
78596W        W50922  10.274  37.496   0.862
78597W        W50923   5.692  22.751  13.542
78598W        W50924  20.502   4.443  12.849
78599W        W50925  30.845   6.865  14.168
78600W        W50926   7.066  41.502  11.700
78601W        W50927  41.019   9.721  13.835
78602W        W50928   6.475  28.452  10.672
78603W        W50929  17.911  21.689  12.384
78604W        W50930   1.536  41.852   1.427
78605W        W50931  14.882  28.100  11.521
78606W        W50932  20.992  21.601   0.973
78607W        W50933  18.161   2.911   2.734
78608W        W50934  39.903   3.700  14.352
78609W        W50935  38.948  23.604   1.502
78610W        W50936  39.481  26.260   1.265
78611W        W50937  10.732   4.636  10.666
78612W        W50938  30.969  40.788  14.024
78613W        W50939  41.907  39.210   0.824
78614W        W50940   0.988   5.227  12.887
78615W        W50941  15.361  38.086  11.153
78616W        W50942  11.912  27.841   1.750
78617W        W50943  39.550  42.796  13.984
78618W        W50944  33.904   7.168  12.043
78619W        W50945  31.899  19.165  12.404
78620W        W50946   7.606  43.382  12.851
78621W        W50947   2.921  23.074  12.068
78622W        W50948  38.932  40.409   3.694
78623W        W50949  16.636  30.417   4.104
78624W        W50950  43.103  21.154   1.410
78625W        W50951   9.826  33.823   0.592
78626W        W50952  34.892  36.060  11.945
78627W        W50953  25.526  15.175   3.815
78628W        W50954  23.215   3.519  12.111
78629W        W50955   9.257  20.746  10.847
78630W        W50956  17.531  38.995   0.922
78631W        W50957  19.567  26.296  13.274
78632W        W50958   4.710   9.556   2.689
78633W        W50959  18.238  12.307   0.775
78634W        W50960  43.580  15.715   4.573
78635W        W50961  15.332   9.370  10.961
78636W        W50962  10.277  23.425  14.380
78637W        W50963  14.675   5.362  11.593
78638W        W50964  43.385  30.032  12.396
78639W        W50965  28.666   1.283   2.740
78640W        W50966  15.593  20.703  13.079
78641W        W50967  13.569   3.981  12.509
78642W        W50968   6.132  41.143  11.952
78643W        W50969  36.803   4.192   4.124
78644W        W50970  12.496   8.945  14.866
78645W        W50971  26.459  40.381   0.446
78646W        W50972  20.458  24.945   3.322
78647W        W50973   6.119   8.827   4.943
78648W        W50974   7.930   0.894   4.598
78649W        W50975  11.246   5.493   3.285
78650W        W50976  33.577  21.599   3.484
78651W        W50977  19.843  38.075   2.723
78652W        W50978   4.718   6.036   2.826
78653W        W50979  33.111  42.808   2.323
78654W        W50980  36.842   1.472  13.794
78655W        W50981  16.546  10.249   0.220
78656W        W50982  24.161  18.606  11.185
78657W        W50983  17.327  37.442   1.206
78658W        W50984  22.172  25.520  11.725
78659W        W50985   8.702  42.285  13.736
78660W        W50986  21.025  44.490  12.015
78661W        W50987   7.403   1.245   3.283
78662W        W50988  17.636  35.462   3.194
78663W        W50989  21.131   1.004   3.134
78664W        W50990  24.704  33.918  11.062
78665W        W50991  44.716  22.215   4.227
78666W        W50992  39.798   2.173  14.461
78667W        W50993   5.314   6.820   2.981
78668W        W50994   3.292  31.444  14.868
78669W        W50995  27.784  14.726  11.533
78670W        W50996  23.817  36.876  12.962
78671W        W50997   4.717  40.024  10.718
78672W        W50998  24.901  36.168  14.134
78673W        W50999  40.095  16.064  11.067
78674W        W51000   3.950   8.011   4.523
78675W        W51001  40.211  24.410  11.252
78676W        W51002  24.246   5.708  11.886
78677W        W51003  30.494  37.531  10.696
78678W        W51004  39.045  36.922  14.482
78679W        W51005  11.104   2.985   2.008
78680W        W51006  41.170   7.219  14.571
78681W        W51007   7.664  31.099  14.526
78682W        W51008   7.730  23.474   1.272
78683W        W51009  23.474  19.031  11.532
78684W        W51010  11.662  29.722   1.132
78685W        W51011   2.678  17.651  12.360
78686W        W51012   1.726  10.483   1.142
78687W        W51013  35.929  14.289  14.333
78688W        W51014   6.383  44.804   3.667
78689W        W51015  14.610   3.728  14.807
78690W        W51016  10.407   6.215   9.577
78691W        W51017  11.683  35.555   3.886
78692W        W51018  44.594   9.704   3.185
78693W        W51019   1.030  36.532  12.538
78694W        W51020  42.895   5.659   2.306
78695W        W51021   0.314  40.787  13.108
78696W        W51022  42.398  33.396  10.732
78697W        W51023  35.080   1.449   2.443
78698W        W51024   2.374   2.537  14.582
78699W        W51025  39.446  30.257   0.002
78700W        W51026   8.808  12.839  10.696
78701W        W51027  12.212  26.927  14.488
78702W        W51028  37.587  26.224   1.497
78703W        W51029  21.002  43.059   0.897
78704W        W51030  20.478  38.917   0.341
78705W        W51031  16.472  35.453   4.096
78706W        W51032  22.071  37.116   2.648
78707W        W51033  26.126  35.475  12.052
78708W        W51034   5.852  19.807   1.789
78709W        W51035  38.400  39.442   1.834
78710W        W51036   0.654  27.126   1.267
78711W        W51037  31.487  13.290   0.048
78712W        W51038   0.671  34.824  11.566
78713W        W51039  21.494  44.791   2.407
78714W        W51040  29.175  19.622   4.220
78715W        W51041  36.530  17.148  14.016
78716W        W51042  13.118  30.102  10.854
78717W        W51043   0.178  43.378  11.654
78718W        W51044  41.828  27.652   2.172
78719W        W51045  17.830  40.047  13.347
78720W        W51046  22.724  23.530  14.662
78721W        W51047   8.184   2.518   2.880
78722W        W51048  41.706  22.287   1.284
78723W        W51049  11.575  38.481   1.816
78724W        W51050  22.054  36.688  13.466
78725W        W51051  12.146   4.790   5.030
78726W        W51052  38.401  35.023  13.806
78727W        W51053  33.193  42.920  12.523
78728W        W51054  22.740  22.574  12.478
78729W        W51055   3.887  22.022  14.915
78730W        W51056  35.095  28.008  14.187
78731W        W51057  22.036  25.703  14.935
78732W        W51058  17.737  14.290   1.674
78733W        W51059  13.705  36.080   3.393
78734W        W51060   1.183  36.076   1.481
78735W        W51061  36.948  36.242   1.495
78736W        W51062   8.788   5.123  10.654
78737W        W51063  22.189  43.572   2.701
78738W        W51064  17.125  15.753  10.931
78739W        W51065  29.705  12.016  11.979
78740W        W51066   3.132  23.983  11.587
78741W        W51067  17.128   4.721   2.675
78742W        W51068  40.800   2.950  10.435
78743W        W51069  30.885   9.669   3.166
78744W        W51070  25.552  43.637   3.726
78745W        W51071   6.265  24.214   3.607
78746W        W51072  19.526  38.447  12.697
78747W        W51073  42.017  13.225   3.794
78748W        W51074  25.813   3.179   1.684
78749W        W51075  38.990  32.444  14.374
78750W        W51076  19.349  28.439  14.959
78751W        W51077  18.309   8.681   4.596
78752W        W51078  28.604  38.318  13.484
78753W        W51079  34.190  24.254   0.504
78754W        W51080  17.626  39.374   1.790
78755W        W51081  29.450  17.864   4.491
78756W        W51082  17.261   5.004   1.383
78757W        W51083  26.293   6.734  14.734
78758W        W51084   9.832  27.721   4.893
78759W        W51085  11.653  18.681  13.361
78760W        W51086  11.122  28.892   3.591
78761W        W51087  29.818  27.636  10.967
78762W        W51088  28.657   8.789  14.022
78763W        W51089  42.520  35.562   4.098
78764W        W51090  24.542  32.909  12.955
78765W        W51091  43.897   6.890   2.616
78766W        W51092  42.932  34.538   2.822
78767W        W51093  15.111  31.666  13.864
78768W        W51094   9.170   4.677  12.132
78769W        W51095  15.251   8.592  14.392
78770W        W51096   1.738  12.641  10.931
78771W        W51097  10.340  29.668  13.902
78772W        W51098  36.936  36.091  11.478
78773W        W51099  15.338  29.658   0.383
78774W        W51100  26.257   8.676   2.123
78775W        W51101  23.807   8.146  13.598
78776W        W51102  24.051   2.454  10.797
78777W        W51103  32.403   7.314  14.765
78778W        W51104  18.733  18.305   0.389
78779W        W51105   1.856  24.630  11.546
78780W        W51106  42.070   9.411  11.947
78781W        W51107   3.831   9.996   4.588
78782W        W51108  15.193  23.686   1.879
78783W        W51109   9.910   8.756  11.953
78784W        W51110  41.853  10.399   2.338
78785W        W51111   3.747   1.847  11.188
78786W        W51112  19.328   7.073   2.702
78787W        W51113  35.488  12.049  11.178
78788W        W51114  13.217  21.131  11.942
78789W        W51115   3.285  22.192  12.360
78790W        W51116  18.589  13.840  11.696
78791W        W51117   2.525  15.225  11.682
78792W        W51118  28.743  36.085   1.228
78793W        W51119  26.369  21.330   3.582
78794W        W51120  35.027  11.187   2.783
78795W        W51121   9.677  44.479  13.002
78796W        W51122  19.554  14.474  11.265
78797W        W51123  30.609  39.815  13.874
78798W        W51124   6.902   2.994   2.258
78799W        W51125   1.873  12.071   5.531
78800W        W51126  18.342  39.741   4.499
78801W        W51127   0.311  44.774   2.611
78802W        W51128  12.160  16.014  13.917
78803W        W51129  17.501   1.131   3.414
78804W        W51130   8.151   7.414  12.264
78805W        W51131  40.805   1.981   1.280
78806W        W51132  33.082  32.429   1.188
78807W        W51133  13.154  35.890  14.806
78808W        W51134   8.804  41.047   3.206
78809W        W51135  27.019  33.978  13.291
78810W        W51136   6.308  14.534  14.506
78811W        W51137  35.827  17.798  12.633
78812W        W51138   7.325  21.003   0.691
78813W        W51139  42.866  21.837  13.339
78814W        W51140   5.836   3.686   3.331
78815W        W51141  19.566   1.313  11.503
78816W        W51142  31.394  23.461   3.240
78817W        W51143   4.740  19.672  11.414
78818W        W51144  38.363  43.943  11.682
78819W        W51145  31.496  16.581   2.265
78820W        W51146  33.094  16.807   1.679
78821W        W51147  31.349  44.378  14.335
78822W        W51148  36.807  25.341  14.573
78823W        W51149  20.803  41.084  14.823
78824W        W51150  31.632  37.862  10.991
78825W        W51151  23.932  31.636  13.577
78826W        W51152  15.857  24.628   1.195
78827W        W51153  28.161   7.624  14.879
78828W        W51154  25.316   4.687   4.074
78829W        W51155  15.763  30.504   4.580
78830W        W51156  14.388  18.631   0.541
78831W        W51157   3.542  27.093   1.292
78832W        W51158  43.842  38.806   3.335
78833W        W51159  30.934  40.263  12.127
78834W        W51160  22.066  31.741  14.974
78835W        W51161  25.105   4.300   0.458
78836W        W51162   5.455  14.846  10.646
78837W        W51163  15.725   8.161  14.537
78838W        W51164  27.611  36.534  13.921
78839W        W51165  14.228  16.182   0.308
78840W        W51166  22.182  30.114   0.759
78841W        W51167   4.330  31.681  11.475
78842W        W51168  25.695  21.211   0.381
78843W        W51169  33.492  39.415   4.248
78844W        W51170  39.840   0.860  14.625
78845W        W51171  37.449  26.569  10.894
78846W        W51172  12.374  12.218   0.675
78847W        W51173  30.519  26.662   0.264
78848W        W51174  32.855   4.336  11.901
78849W        W51175  20.054  29.621  14.746
78850W        W51176  15.819  12.731   2.685
78851W        W51177  10.302  27.873  11.490
78852W        W51178  10.277   7.509  13.794
78853W        W51179  42.479   3.939   2.386
78854W        W51180  12.300  18.637  12.631
78855W        W51181  36.506   8.269  10.650
78856W        W51182  25.968  25.119   3.770
78857W        W51183  25.149  19.707  11.949
78858W        W51184   1.867  34.003  12.589
78859W        W51185  21.203  28.390   0.774
78860W        W51186  43.937  37.283   1.004
78861W        W51187  29.519  27.509   2.912
78862W        W51188   1.002  21.131  10.626
78863W        W51189  34.011  14.067  11.577
78864W        W51190   4.505  37.527  10.632
78865W        W51191  34.117   7.638   3.174
78866W        W51192  24.762  34.508  14.970
78867W        W51193  32.163  33.964  14.899
78868W        W51194  14.919  31.079  11.285
78869W        W51195   8.641  21.728   2.340
78870W        W51196  33.476  24.072   3.644
78871W        W51197  41.307  13.311   1.658
78872W        W51198   8.857  15.681  11.399
78873W        W51199  11.169  29.903   4.135
78874W        W51200  23.580  27.042   1.989
78875W        W51201  42.225   1.868   3.593
78876W        W51202   7.166  24.161  14.569
78877W        W51203  44.748  43.305   0.886
78878W        W51204  38.336   0.550  14.892
78879W        W51205  21.049  13.629  11.665
78880W        W51206   9.329   6.489   2.298
78881W        W51207  31.221  39.307   0.334
78882W        W51208  28.200  40.028   0.440
78883W        W51209  25.566  37.827  10.953
78884W        W51210  11.052  39.111   4.945
78885W        W51211  34.020  31.714  14.012
78886W        W51212   3.867  15.878   1.333
78887W        W51213  38.649   0.443  10.389
78888W        W51214  38.574  23.655   0.539
78889W        W51215  16.079  35.535   3.159
78890W        W51216   1.453  10.583  13.546
78891W        W51217   4.343   2.005  11.498
78892W        W51218  41.181   6.019  14.933
78893W        W51219  14.216   4.911  13.454
78894W        W51220   9.967  37.978  10.814
78895W        W51221  26.014  24.185  11.434
78896W        W51222  33.828   1.491   3.145
78897W        W51223   2.207  10.703   2.448
78898W        W51224  11.725  40.814  11.129
78899W        W51225  18.077  34.819  11.446
78900W        W51226  21.171   2.285   3.898
78901W        W51227  35.347  30.617  12.453
78902W        W51228  32.605   7.674  13.450
78903W        W51229  35.823  36.131   1.670
78904W        W51230  38.989  31.038  10.027
78905W        W51231  20.368  10.458  14.962
78906W        W51232  12.294   5.358   3.798
78907W        W51233  33.505   3.890   4.571
78908W        W51234  13.666  17.973   1.433
78909W        W51235  18.213  22.155  12.462
78910W        W51236  43.025   1.276  13.145
78911W        W51237   3.345   9.339   1.213
78912W        W51238  37.424  24.616   2.778
78913W        W51239  20.729  15.499   3.874
78914W        W51240  10.393  37.634   0.368
78915W        W51241  14.258   8.776  11.256
78916W        W51242  23.022  14.739  10.467
78917W        W51243   7.630  34.424   4.203
78918W        W51244  34.844   9.814   1.597
78919W        W51245  11.274  20.266   0.420
78920W        W51246  41.742  10.909   2.692
78921W        W51247  23.097  10.105  13.524
78922W        W51248  30.651   9.231   0.683
78923W        W51249  39.446  42.164   0.040
78924W        W51250  38.757  15.278  10.275
78925W        W51251  15.104  21.499  14.710
78926W        W51252  24.950  42.400   2.300
78927W        W51253  30.425  31.452   1.350
78928W        W51254   4.208  25.656  10.978
78929W        W51255  43.249  27.534  14.149
78930W        W51256   3.872   6.725  10.697
78931W        W51257  10.811   6.286  14.809
78932W        W51258   1.284  11.828   3.541
78933W        W51259  31.976   4.319   2.456
78934W        W51260  23.998  32.488   4.119
78935W        W51261  20.006  37.863  11.417
78936W        W51262  39.775  43.727  11.573
78937W        W51263  37.926   9.644  11.589
78938W        W51264  35.648  43.820  13.930
78939W        W51265   1.479   3.260  13.470
78940W        W51266  13.032  42.938   4.586
78941W        W51267  39.433  38.183  12.306
78942W        W51268  39.573  34.356   3.608
78943W        W51269  25.461  42.251  14.821
78944W        W51270  36.821  39.093  13.092
78945W        W51271  17.751  13.630  13.910
78946W        W51272   2.221  28.412  11.624
78947W        W51273   1.957  40.380  11.888
78948W        W51274  22.116  28.899  12.995
78949W        W51275   4.459   8.311  13.483
78950W        W51276  40.559   6.105  12.408
78951W        W51277  36.378  17.683   2.252
78952W        W51278  43.690  40.311   4.333
78953W        W51279   5.269  36.803  12.508
78954W        W51280  22.578  43.248   0.404
78955W        W51281  37.217   8.351  10.285
78956W        W51282   3.358  23.274  11.897
78957W        W51283  25.782  18.194  13.368
78958W        W51284  26.713  28.502  13.895
78959W        W51285   6.924  34.502  11.931
78960W        W51286  10.782   1.775  12.144
78961W        W51287  25.202   6.021   4.964
78962W        W51288  39.244  34.079  14.882
78963W        W51289  39.752  42.317  12.869
78964W        W51290  16.743   7.878   2.111
78965W        W51291  30.537  15.141   4.567
78966W        W51292  29.688  28.698  13.401
78967W        W51293  24.003  34.390   4.391
78968W        W51294   6.492  17.362  12.518
78969W        W51295  39.008  11.814   1.245
78970W        W51296  37.184   3.176  12.960
78971W        W51297  37.919  19.491  13.008
78972W        W51298  28.982  13.686   4.105
78973W        W51299  19.618  37.995   3.747
78974W        W51300  26.042  17.604  14.925
78975W        W51301  43.853  21.427   3.737
78976W        W51302   9.604  15.371  13.379
78977W        W51303  42.858  18.928  14.966
78978W        W51304  29.161  22.802   1.206
78979W        W51305  43.957  44.422   2.292
78980W        W51306  26.556  29.062  14.738
78981W        W51307  40.294  23.402  11.091
78982W        W51308  25.145  18.014  12.457
78983W        W51309  41.821  39.441   2.638
78984W        W51310  42.960  28.150  11.668
78985W        W51311   3.256   6.796  13.993
78986W        W51312  28.934  42.222   4.077
78987W        W51313  43.882  11.917   0.452
78988W        W51314   2.851  12.146   0.526
78989W        W51315  36.138  32.141   0.808
78990W        W51316   2.023   8.105   0.771
78991W        W51317   7.227   5.934   1.899
78992W        W51318   3.542  21.545   2.641
78993W        W51319  31.372  23.887  13.469
78994W        W51320  29.626  23.898   1.924
78995W        W51321   0.231  30.410  11.171
78996W        W51322  27.585  35.261   4.086
78997W        W51323  12.874  19.098   4.379
78998W        W51324  26.751   6.208   4.091
78999W        W51325  44.724  36.903   4.050
79000W        W51326  15.803  40.016   3.999
79001W        W51327   7.902  18.950  13.038
79002W        W51328  17.815  18.303   2.854
79003W        W51329  18.397  29.112  10.262
79004W        W51330  18.623  25.170   4.558
79005W        W51331  31.036   0.489   4.860
79006W        W51332  26.730  40.511   1.548
79007W        W51333  43.973  20.772  14.117
79008W        W51334  23.149  14.047   2.322
79009W        W51335  18.349   3.255  14.953
79010W        W51336  37.301  30.094  13.430
79011W        W51337   9.781  37.874   2.812
79012W        W51338   2.631   5.226   4.212
79013W        W51339  17.226  23.531   2.885
79014W        W51340  44.469  19.356  13.573
79015W        W51341  28.711  24.193  12.568
79016W        W51342   5.116  23.972  11.563
79017W        W51343   8.896  16.243  11.653
79018W        W51344   3.794   0.659   2.685
79019W        W51345  36.623  37.783   0.430
79020W        W51346   0.289  43.946  14.335
79021W        W51347  32.926  13.761   2.833
79022W        W51348  26.716  22.771  13.078
79023W        W51349  14.307   5.719  12.661
79024W        W51350   4.654   8.967  10.230
79025W        W51351  34.969  38.102   4.006
79026W        W51352  36.873   3.566   0.880
79027W        W51353  39.107  42.980   0.695
79028W        W51354  14.126   4.872   2.736
79029W        W51355  24.408  29.829  10.854
79030W        W51356  13.793   9.574   3.381
79031W        W51357  10.403  27.787   0.609
79032W        W51358  20.243  16.091   0.275
79033W        W51359  12.009  42.091  10.588
79034W        W51360  22.445  20.707   4.384
79035W        W51361  22.467  30.513  13.478
79036W        W51362  38.612  24.143  14.493
79037W        W51363  34.884  19.655  13.799
79038W        W51364   8.176  34.349  13.112
79039W        W51365  25.544   0.105   3.693
79040W        W51366   5.339   1.864  14.454
79041W        W51367  33.978  40.438  14.018
79042W        W51368  37.532  33.804  12.292
79043W        W51369  42.265  21.662   3.473
79044W        W51370  33.382  34.901  11.532
79045W        W51371  16.838   1.866   1.835
79046W        W51372  28.569  20.654   3.055
79047W        W51373  28.964  24.894   0.835
79048W        W51374  41.038  32.460   0.180
79049W        W51375  43.580  16.482  13.514
79050W        W51376  28.383  31.101   1.684
79051W        W51377  21.008   6.872  12.029
79052W        W51378  15.308  21.052   2.354
79053W        W51379  35.998   9.946   3.510
79054W        W51380   3.450  43.223  13.492
79055W        W51381  35.513  21.653  12.061
79056W        W51382   7.266  26.969  11.638
79057W        W51383   4.117   8.390   1.392
79058W        W51384  27.192  38.947   2.278
79059W        W51385  20.292   8.846  12.854
79060W        W51386  22.982  20.138   1.904
79061W        W51387  11.263   8.189   1.894
79062W        W51388  15.235  32.497   4.238
79063W        W51389  29.134  39.915  11.571
79064W        W51390   8.614  34.968  11.213
79065W        W51391  29.919  44.974   2.209
79066W        W51392   1.044  22.967  14.426
79067W        W51393  40.453  31.675   2.287
79068W        W51394  10.380  39.230   1.927
79069W        W51395  34.569  36.530   3.217
79070W        W51396  32.179  14.709   2.227
79071W        W51397   0.823   7.417  13.857
79072W        W51398   1.940  38.849   2.205
79073W        W51399  12.219   0.866  13.900
79074W        W51400  10.169  35.443   0.577
79075W        W51401  43.000  28.474  10.578
79076W        W51402  15.674  35.855   3.334
79077W        W51403   5.739  26.994  10.666
79078W        W51404  19.907  17.663   1.716
79079W        W51405  33.497   7.268   4.195
79080W        W51406  15.356  34.870   4.610
79081W        W51407  30.166  20.556  12.949
79082W        W51408  26.752  19.723  10.737
79083W        W51409  22.646  40.996   3.235
79084W        W51410  31.018  34.077   4.408
79085W        W51411  33.706  14.358  10.197
79086W        W51412  34.812  30.611  11.134
79087W        W51413  22.354  29.560  11.214
79088W        W51414  14.427   0.708  12.712
79089W        W51415  28.437   8.650   1.417
79090W        W51416  16.176  22.510   2.841
79091W        W51417  31.796  26.609   4.432
79092W        W51418  13.442  33.590   1.828
79093W        W51419  41.484  20.834  13.444
79094W        W51420  10.934   3.622  10.743
79095W        W51421  39.205   6.444  14.979
79096W        W51422  15.165   9.846   4.600
79097W        W51423  23.767  19.272   1.745
79098W        W51424  26.253  32.556  12.861
79099W        W51425  16.649  40.536   2.679
79100W        W51426  40.331  16.296  14.288
79101W        W51427  25.196   5.230   2.691
79102W        W51428  13.683  13.265   4.754
79103W        W51429  19.748  15.101  11.911
79104W        W51430  34.857  29.131   0.654
79105W        W51431  39.230  24.582   2.401
79106W        W51432  11.626  41.902   3.734
79107W        W51433  42.736   6.745   0.135
79108W        W51434  26.858  40.804  14.426
79109W        W51435  11.696  13.238  11.330
79110W        W51436  37.345   0.699  11.636
79111W        W51437  42.824  30.041  14.939
79112W        W51438  11.148   1.987   2.184
79113W        W51439  37.475  23.032   4.588
79114W        W51440  44.347  39.314  10.591
79115W        W51441   7.015  30.108  11.121
79116W        W51442   6.117   3.337  11.811
79117W        W51443   0.599  20.901  10.286
79118W        W51444   3.112  12.622  11.056
79119W        W51445  23.774  27.970   2.731
79120W        W51446  20.182  34.384   4.695
79121W        W51447   4.577   8.235  14.823
79122W        W51448  21.254   8.661   0.885
79123W        W51449  23.022   1.868  13.627
79124W        W51450  12.161   7.140   4.166
79125W        W51451   6.283  43.925   2.095
79126W        W51452  31.395  19.232   2.829
79127W        W51453   3.011   2.726   0.396
79128W        W51454  26.201   4.498   0.444
79129W        W51455  35.852  43.931  12.049
79130W        W51456  29.924  43.352   0.282
79131W        W51457  26.464   1.955   2.923
79132W        W51458   0.811  37.325   4.530
79133W        W51459  38.809  10.160  11.599
79134W        W51460  42.479   5.642   2.630
79135W        W51461  38.343  16.068   0.737
79136W        W51462  43.034   0.388  13.460
79137W        W51463  11.765  12.048  10.678
79138W        W51464  14.745  43.953  13.082
79139W        W51465  30.425  20.188   3.829
79140W        W51466  34.358   7.444  12.753
79141W        W51467  39.035   0.252   2.497
79142W        W51468  22.197   3.448  12.966
79143W        W51469   8.737  29.526  14.962
79144W        W51470  39.690  19.275   4.019
79145W        W51471  20.694  11.211  12.496
79146W        W51472  31.478  41.313   1.038
79147W        W51473  18.751  33.901   4.402
79148W        W51474   4.033   8.232  11.204
79149W        W51475  24.114  37.806  12.542
79150W        W51476  20.034   9.210   4.303
79151W        W51477  17.185  13.347   0.234
79152W        W51478  44.730   3.794   2.714
79153W        W51479   5.251  39.809   0.998
79154W        W51480  25.467  16.894  12.626
79155W        W51481  17.298  30.097  14.005
79156W        W51482  23.778  22.618   5.105
79157W        W51483  23.740  15.238  14.508
79158W        W51484   0.307   8.775   1.754
79159W        W51485  24.509   4.698  10.889
79160W        W51486   5.396  43.319  14.559
79161W        W51487  12.412  42.022   4.066
79162W        W51488  39.049   1.411   0.372
79163W        W51489  32.653  43.441  11.234
79164W        W51490  35.398   1.210  12.279
79165W        W51491  22.923   9.664  10.594
79166W        W51492   3.282  44.807  12.901
79167W        W51493  44.412   5.731  10.958
79168W        W51494  21.466  43.332  13.594
79169W        W51495   3.276  16.346   3.713
79170W        W51496  24.959  13.636   3.775
79171W        W51497  24.436   7.433   3.451
79172W        W51498  34.032  37.809  14.286
79173W        W51499   5.631  34.953   0.299
79174W        W51500   7.882  38.805  14.733
79175W        W51501  11.290  17.059  12.837
79176W        W51502  18.746  33.827   1.943
79177W        W51503   9.691   1.343   0.310
79178W        W51504   4.491   0.418  10.761
79179W        W51505  31.873  27.102  13.404
79180W        W51506  16.089  32.147   3.755
79181W        W51507  24.624  41.165  12.452
79182W        W51508   9.596  35.902  13.452
79183W        W51509  33.987  34.796  12.166
79184W        W51510  31.104  30.416   5.091
79185W        W51511  16.136  11.146   1.385
79186W        W51512  11.869  26.504   9.844
79187W        W51513   2.742  23.969  14.779
79188W        W51514  38.039  36.923   2.324
79189W        W51515  21.768  35.451   3.121
79190W        W51516  28.410  32.668  13.484
79191W        W51517   0.696   4.765   4.550
79192W        W51518  16.771   8.932  12.155
79193W        W51519  17.107  35.196   2.397
79194W        W51520  12.683  27.231   2.632
79195W        W51521  20.678  38.266   3.133
79196W        W51522   5.881  15.687   4.212
79197W        W51523  32.379  29.153   2.145
79198W        W51524  33.090  38.559  11.592
79199W        W51525   3.957   7.652   1.019
79200W        W51526  24.465  16.663  13.714
79201W        W51527  19.250   5.726  13.744
79202W        W51528  40.387  40.985   0.215
79203W        W51529  22.658   0.427   2.385
79204W        W51530   1.701  43.446   2.781
79205W        W51531  25.056  39.430   4.062
79206W        W51532   3.306  22.409   3.449
79207W        W51533  37.816   5.903   1.224
79208W        W51534   4.404  41.075   0.216
79209W        W51535  18.298  38.573  13.725
79210W        W51536   4.811  41.797   4.579
79211W        W51537  25.056  32.481  13.977
79212W        W51538  21.725  10.541   2.791
79213W        W51539  42.946  44.562  11.041
79214W        W51540  11.299  39.486  10.602
79215W        W51541  40.279   4.197  12.108
79216W        W51542  42.291  28.577   1.423
79217W        W51543  38.991   0.355   3.533
79218W        W51544  23.587  28.486  10.756
79219W        W51545   7.241  40.781   1.731
79220W        W51546  24.558  32.650  13.895
79221W        W51547   5.797  25.851   1.841
79222W        W51548  22.756  21.762   0.232
79223W        W51549  29.940  38.687   3.715
79224W        W51550  19.491  41.344   0.893
79225W        W51551  26.211   1.635  13.472
79226W        W51552  38.496  30.338   1.842
79227W        W51553  22.721  22.112   4.403
79228W        W51554  22.879  35.618   2.788
79229W        W51555  37.880  25.944  11.104
79230W        W51556   2.433  34.411   2.238
79231W        W51557  34.976   1.526  12.482
79232W        W51558  40.573   8.988   1.386
79233W        W51559  41.274  33.100  13.415
79234W        W51560   9.709  13.986  11.250
79235W        W51561  16.757  26.752  14.399
79236W        W51562   4.929  31.925  12.097
79237W        W51563  40.513  21.596   1.484
79238W        W51564  19.801  38.313  11.231
79239W        W51565   7.370   2.079   3.687
79240W        W51566  21.968  35.564   2.651
79241W        W51567  36.456  11.579  12.858
79242W        W51568   9.412  40.914   2.201
79243W        W51569   9.116  37.572   5.023
79244W        W51570  23.576  34.634   4.126
79245W        W51571  44.306  26.763   1.833
79246W        W51572  24.041   4.831   1.198
79247W        W51573   2.504   0.522  11.129
79248W        W51574  11.757  27.576   2.391
79249W        W51575   1.813  11.107  12.606
79250W        W51576  41.455  43.495  14.410
79251W        W51577   0.521  12.013   4.945
79252W        W51578   2.213   2.823   0.871
79253W        W51579  32.451   0.340   4.119
79254W        W51580  18.785  13.380   3.746
79255W        W51581   2.841   3.923  12.488
79256W        W51582  18.229  39.973   2.290
79257W        W51583   2.172  21.125   5.419
79258W        W51584  36.363  28.656  13.105
79259W        W51585   4.677  18.202  14.610
79260W        W51586  34.490   5.017   5.026
79261W        W51587  10.471  25.577  10.266
79262W        W51588  10.823  19.539  13.941
79263W        W51589  29.304  32.509   3.658
79264W        W51590  21.010   6.989  14.471
79265W        W51591  22.978  27.779   4.549
79266W        W51592  28.326  29.554   2.238
79267W        W51593  17.879  14.638  13.989
79268W        W51594  26.565  24.732  14.153
79269W        W51595   2.663  30.637   4.272
79270W        W51596  12.349  40.477  14.924
79271W        W51597  11.874  26.051   2.382
79272W        W51598  10.174   8.833   1.397
79273W        W51599  41.037  34.258   4.948
79274W        W51600   5.204  15.336   0.895
79275W        W51601  31.141  24.104  10.573
79276W        W51602  44.297  11.941   3.654
79277W        W51603  37.967  44.882  14.152
79278W        W51604  28.054  40.642   3.402
79279W        W51605  31.946  20.058   1.981
79280W        W51606  30.970  17.620  11.059
79281W        W51607  32.028   4.152   4.260
79282W        W51608  15.334  19.693   4.295
79283W        W51609   2.214  26.760  11.192
79284W        W51610  38.072   8.315  14.704
79285W        W51611  37.145  10.834   4.265
79286W        W51612  33.122   4.087   1.676
79287W        W51613   7.498  38.835   2.367
79288W        W51614  13.111  22.720  12.190
79289W        W51615  11.806  44.750  14.412
79290W        W51616   6.328   3.781  11.945
79291W        W51617  11.935  28.546  11.443
79292W        W51618   4.897  15.779  13.718
79293W        W51619   8.760  26.727   2.321
79294W        W51620   4.422  17.623  12.876
79295W        W51621  35.600  38.526   1.782
79296W        W51622   1.560  12.201   4.189
79297W        W51623  36.337  10.906  14.829
79298W        W51624  15.200  33.448   4.585
79299W        W51625  36.048  39.881  10.830
79300W        W51626  29.996  38.003   1.705
79301W        W51627   1.382   0.243   2.675
79302W        W51628  38.532  37.461  13.012
79303W        W51629  41.718  25.164   2.364
79304W        W51630   1.269  20.199   0.940
79305W        W51631  36.291  35.475  13.041
79306W        W51632   8.846  41.526  12.058
79307W        W51633  38.463   3.333   2.335
79308W        W51634  17.785  30.228  12.798
79309W        W51635  43.768  19.234   4.582
79310W        W51636  25.736  22.010  11.129
79311W        W51637  11.669   1.531  13.978
79312W        W51638  12.644  20.299   3.330
79313W        W51639  19.056  32.806  10.806
79314W        W51640  39.344  13.654   4.097
79315W        W51641   9.979  31.840  14.794
79316W        W51642  40.936   2.707   1.899
79317W        W51643   5.991   2.151   0.807
79318W        W51644   1.018  15.092  10.886
79319W        W51645  20.269   2.389   1.361
79320W        W51646   0.901  31.888  10.572
79321W        W51647  42.553  31.795  10.588
79322W        W51648  39.460  16.781  11.361
79323W        W51649  24.829  25.917  11.797
79324W        W51650  26.548   3.745   1.247
79325W        W51651  35.419  19.278   2.264
79326W        W51652   5.994   3.356   1.262
79327W        W51653  14.258  31.893   4.100
79328W        W51654  22.297   6.735   3.088
79329W        W51655  21.289  25.173  14.457
79330W        W51656  21.616  15.639   3.784
79331W        W51657  13.524   7.727  14.847
79332W        W51658  44.305  12.931  10.622
79333W        W51659  12.113  43.389   2.223
79334W        W51660  24.212  30.016   4.590
79335W        W51661  17.748  33.626  11.265
79336W        W51662  31.995  10.733   1.886
79337W        W51663   0.739  12.839   3.198
79338W        W51664  15.135  44.764  14.434
79339W        W51665  20.955  38.050   5.494
79340W        W51666  12.363  26.556   1.242
79341W        W51667  27.953  34.137   4.590
79342W        W51668  27.071  31.097   2.756
79343W        W51669   5.764  20.073   2.230
79344W        W51670  29.166  19.715   3.146
79345W        W51671   8.397   2.011  10.603
79346W        W51672  29.279  11.853  13.059
79347W        W51673  33.048   1.005   3.821
79348W        W51674   4.940  20.596   0.500
79349W        W51675   0.825  23.104  12.118
79350W        W51676  34.042   6.883   3.861
79351W        W51677  32.211  27.439  14.957
79352W        W51678  24.168  26.129   4.082
79353W        W51679  29.239  28.938   4.328
79354W        W51680  27.180   2.277   4.718
79355W        W51681  16.402  40.939   3.139
79356W        W51682  41.046  25.702  12.506
79357W        W51683  38.765  17.576  12.616
79358W        W51684  12.088   9.299   4.789
79359W        W51685  36.564  31.949  11.535
79360W        W51686  20.346  13.259  13.885
79361W        W51687  41.298  30.631  11.153
79362W        W51688  14.828  26.667  12.081
79363W        W51689  39.507  22.154   1.790
79364W        W51690  26.676  23.311  13.654
79365W        W51691  19.180  44.798  14.922
79366W        W51692  41.363  27.462  10.574
79367W        W51693  20.202  14.070  10.658
79368W        W51694  24.615   4.369   4.653
79369W        W51695  36.912  32.947  12.707
79370W        W51696   9.101  16.129   3.877
79371W        W51697  20.318   3.952  12.827
79372W        W51698  12.045   7.370  14.827
79373W        W51699  34.686  12.103   3.407
79374W        W51700   8.931  27.420  11.088
79375W        W51701  28.607   4.690  13.023
79376W        W51702  29.459  22.164  10.420
79377W        W51703   6.404  30.377   1.857
79378W        W51704  42.421  27.272  12.422
79379W        W51705  13.868   3.392   2.754
79380W        W51706  10.329  15.441  12.129
79381W        W51707  19.592  25.473   0.982
79382W        W51708  44.698  16.103  11.439
79383W        W51709   5.758  19.158  11.216
79384W        W51710  23.145   4.730   0.736
79385W        W51711  10.324  24.255  11.808
79386W        W51712  12.169  37.912  12.716
79387W        W51713  26.695  34.953   2.785
79388W        W51714   6.904  35.044   2.323
79389W        W51715  19.158  15.746  13.240
79390W        W51716  16.641  10.988   4.054
79391W        W51717  27.123  25.431   3.543
79392W        W51718   6.036  23.499  12.163
79393W        W51719  42.434  20.299   0.515
79394W        W51720   0.053  41.490   4.524
79395W        W51721  26.194   5.964  14.042
79396W        W51722   4.401  15.798  13.590
79397W        W51723  26.678   3.728  13.804
79398W        W51724   0.942   1.968  13.794
79399W        W51725  34.817  43.730  14.369
79400W        W51726  24.479   5.419  13.145
79401W        W51727  22.764  20.230   4.069
79402W        W51728  41.320  21.961  14.966
79403W        W51729  32.313  35.755   3.260
79404W        W51730  24.827  37.295  12.428
79405W        W51731   7.261   8.582   4.484
79406W        W51732  12.093   5.241   4.750
79407W        W51733  26.688  22.996   4.377
79408W        W51734   8.589   8.889   1.693
79409W        W51735  18.196  13.832   0.768
79410W        W51736  13.374  41.313  11.695
79411W        W51737  34.920   7.746  14.280
79412W        W51738  22.719  16.999   1.656
79413W        W51739  21.539  27.170  11.435
79414W        W51740  39.770  16.940   4.564
79415W        W51741  38.452   6.732  10.436
79416W        W51742   8.466  17.948   4.623
79417W        W51743  10.973   7.859  12.718
79418W        W51744  43.858  27.672  11.913
79419W        W51745  19.963  14.124   4.176
79420W        W51746  31.868  35.909  12.108
79421W        W51747  13.422  14.271  10.802
79422W        W51748  22.284  24.329  11.131
79423W        W51749   7.879  44.593  10.354
79424W        W51750  14.947   5.742   1.986
79425W        W51751   0.738  15.016   1.149
79426W        W51752  36.450   5.933  13.344
79427W        W51753  32.656  38.342   0.791
79428W        W51754  29.752  38.017   0.893
79429W        W51755   4.840  20.323  12.486
79430W        W51756   1.864  27.408  13.792
79431W        W51757  26.243  40.083   3.538
79432W        W51758  37.625   3.461  11.111
79433W        W51759  17.043  10.337  10.169
79434W        W51760  11.298  15.950   4.624
79435W        W51761   6.982  38.423  12.815
79436W        W51762  36.286  44.921   3.511
79437W        W51763  37.803  10.152  14.168
79438W        W51764  15.960  25.728   3.419
79439W        W51765  33.601  33.446   3.119
79440W        W51766   0.737  41.943  12.937
79441W        W51767  14.533  43.575  14.031
79442W        W51768  42.832  42.762   0.463
79443W        W51769   6.291  25.340  11.119
79444W        W51770  10.169  36.389   0.303
79445W        W51771   7.028  34.594  13.340
79446W        W51772   7.290  38.832  12.839
79447W        W51773   4.131   7.063  13.906
79448W        W51774   8.665  42.505  12.803
79449W        W51775  44.081  15.876   4.571
79450W        W51776  42.649  43.891  10.289
79451W        W51777   1.421  30.319  14.673
79452W        W51778  37.022  10.110  11.945
79453W        W51779  21.114  20.135   0.249
79454W        W51780  14.643  21.899   4.683
79455W        W51781  38.513   8.187   2.357
79456W        W51782   1.946  10.007   1.254
79457W        W51783  33.084  35.221  12.260
79458W        W51784  39.326   0.826  11.993
79459W        W51785  30.700   4.941   3.653
79460W        W51786  41.733  19.085  10.702
79461W        W51787  25.582  44.170  14.134
79462W        W51788  28.149  29.502   3.557
79463W        W51789  41.798   6.981   3.228
79464W        W51790  19.295   8.116   3.620
79465W        W51791  37.144  22.037  11.673
79466W        W51792  43.781   3.976  13.136
79467W        W51793  15.572  24.108  12.450
79468W        W51794   1.648   3.698  14.469
79469W        W51795  10.230  38.456  10.012
79470W        W51796   4.336  36.141   4.157
79471W        W51797  12.692  19.510   3.102
79472W        W51798  20.695  42.570  13.006
79473W        W51799  18.365  42.356   2.201
79474W        W51800  16.859  17.582   3.737
79475W        W51801  11.788  34.873  11.377
79476W        W51802  13.780  19.889  12.177
79477W        W51803  25.575  23.655  14.422
79478W        W51804  34.508  35.877   1.251
79479W        W51805  44.941   1.212  14.057
79480W        W51806  15.731  33.960  13.986
79481W        W51807  24.452  13.421   1.800
79482W        W51808  35.155   9.891  10.851
79483W        W51809  39.724  31.910   0.973
79484W        W51810   2.029   8.937   3.790
79485W        W51811   7.748  33.087  14.371
79486W        W51812   6.175  40.626   0.331
79487W        W51813  44.879   4.527  10.699
79488W        W51814  36.941  12.092   3.689
79489W        W51815  37.803  43.864   3.329
79490W        W51816   8.626  36.058  13.838
79491W        W51817   0.006  42.358   1.739
79492W        W51818  30.174  34.535   4.299
79493W        W51819  28.482  28.006  10.047
79494W        W51820  43.061   3.833   3.797
79495W        W51821  24.223   6.626   3.154
79496W        W51822   0.908   1.015   2.068
79497W        W51823  41.859   0.960   2.450
79498W        W51824  41.877  32.102   3.203
79499W        W51825  36.655  38.613   0.060
79500W        W51826  34.508  35.778   0.284
79501W        W51827  12.611  32.314   0.875
79502W        W51828  13.089  22.836  14.048
79503W        W51829  16.916   8.569  11.837
79504W        W51830  20.598   1.452  14.580
79505W        W51831   2.352  39.484   4.840
79506W        W51832  25.533  12.871   1.293
79507W        W51833  42.278  33.102   3.130
79508W        W51834  27.111  43.707   2.169
79509W        W51835  25.094  39.305  11.930
79510W        W51836  17.511  12.969  14.230
79511W        W51837  18.096  15.168  12.372
79512W        W51838  13.809  39.102   4.615
79513W        W51839  29.901  17.263  13.017
79514W        W51840  13.831  38.031   1.815
79515W        W51841  21.463  41.836   1.808
79516W        W51842  32.182   4.552   5.282
79517W        W51843  14.745  37.609  12.857
79518W        W51844   4.935   6.063  11.049
79519W        W51845  17.525  15.201   1.878
79520W        W51846  28.955  26.197  14.949
79521W        W51847   0.819  37.299   4.008
79522W        W51848  44.815  30.915  12.490
79523W        W51849   8.306  18.022  12.828
79524W        W51850  32.239   1.613  12.536
79525W        W51851  10.404  36.425   3.345
79526W        W51852  28.626  42.933   4.048
79527W        W51853  16.087  39.830   0.946
79528W        W51854  25.776  40.508  13.429
79529W        W51855  20.236  42.878  13.998
79530W        W51856  11.478  33.159   1.211
79531W        W51857  17.479  21.716   2.814
79532W        W51858  25.183  14.110   4.292
79533W        W51859  29.565  20.344   1.311
79534W        W51860   5.795  30.086  13.043
79535W        W51861  12.853  21.625  13.694
79536W        W51862   7.233  15.618   2.461
79537W        W51863  24.189  27.537  13.899
79538W        W51864   6.757  11.169   4.266
79539W        W51865  16.782   9.040  13.024
79540W        W51866  24.514  36.056  14.926
79541W        W51867  13.919  44.920  10.672
79542W        W51868  26.739  13.362   3.292
79543W        W51869  28.018  15.773   2.777
79544W        W51870  21.893  33.902   4.521
79545W        W51871  43.818  32.895  12.020
79546W        W51872   4.454  23.990  10.298
79547W        W51873  23.479  23.983  14.922
79548W        W51874  27.489  25.237  11.348
79549W        W51875   8.855   5.204  13.350
79550W        W51876  22.360  22.771   1.855
79551W        W51877   8.574  37.999  10.689
79552W        W51878  30.239  17.643  13.159
79553W        W51879   6.962  16.736   3.057
79554W        W51880  17.849  16.386   1.365
79555W        W51881  22.713  30.120  12.790
79556W        W51882  28.181  14.853   1.801
79557W        W51883   5.732   8.370   3.165
79558W        W51884   6.670  16.655  14.959
79559W        W51885  17.800  10.771  14.523
79560W        W51886   7.745  23.015   3.831
79561W        W51887   7.182  27.153  13.579
79562W        W51888  22.092   1.930   4.071
79563W        W51889   9.277  40.814  10.882
79564W        W51890  22.236  22.566   3.195
79565W        W51891  13.339  26.602   4.226
79566W        W51892  32.612  32.080   2.273
79567W        W51893   2.492   8.587   2.549
79568W        W51894  25.775  23.704  10.723
79569W        W51895   4.256  35.536   3.077
79570W        W51896  20.666  37.055   0.329
79571W        W51897  37.420   1.917  14.335
79572W        W51898  31.540  14.194  14.067
79573W        W51899  11.226   3.663  12.782
79574W        W51900   3.978  21.063  13.934
79575W        W51901   9.979   9.125   1.009
79576W        W51902  28.121  40.577  11.405
79577W        W51903  20.892   1.338   4.276
79578W        W51904  21.131  29.987   1.748
79579W        W51905  11.088  28.345   3.676
79580W        W51906   0.167  40.478   1.412
79581W        W51907   8.137  25.107   2.356
79582W        W51908  19.466  24.026  10.588
79583W        W51909   5.098   7.599  11.897
79584W        W51910  11.994  22.008   2.417
79585W        W51911  34.481  29.499  12.975
79586W        W51912  38.121  43.862  14.472
79587W        W51913  41.098  36.312  14.068
79588W        W51914  10.693  10.957  11.477
79589W        W51915  30.378  35.487  12.975
79590W        W51916  19.489  23.195  11.550
79591W        W51917  26.258  12.272   0.871
79592W        W51918  23.549  13.095   4.929
79593W        W51919  28.175  13.249  13.045
79594W        W51920  21.183   6.797  12.509
79595W        W51921  12.145  21.779  12.380
79596W        W51922  32.227   5.779  11.567
79597W        W51923  41.488  39.848  14.942
79598W        W51924  43.045  31.858  12.388
79599W        W51925  35.001  18.469   0.404
79600W        W51926  18.592  25.637   3.681
79601W        W51927  39.970   9.649   0.934
79602W        W51928  25.531  20.244   1.413
79603W        W51929  43.336  43.526  10.888
79604W        W51930   2.607  10.394  14.215
79605W        W51931  38.445   3.528   1.862
79606W        W51932   3.855  43.985  14.280
79607W        W51933  26.645  41.270   3.143
79608W        W51934  33.942   6.653   0.417
79609W        W51935   8.148  35.932  13.256
79610W        W51936   4.554  15.126  12.853
79611W        W51937  29.751  34.924   3.485
79612W        W51938  31.394  14.567  10.749
79613W        W51939   9.152   0.274   2.818
79614W        W51940  19.073  38.749   2.805
79615W        W51941  26.195  19.676   3.321
79616W        W51942  41.987  31.411  14.263
79617W        W51943  34.886   0.298   2.262
79618W        W51944  36.703  33.185  10.564
79619W        W51945   1.501  27.599  14.967
79620W        W51946  29.958  17.730   4.434
79621W        W51947  22.280  38.820  11.151
79622W        W51948  23.015  42.881  12.858
79623W        W51949  29.407  19.078  11.940
79624W        W51950  10.921  13.212   2.348
79625W        W51951   9.733  11.677   4.373
79626W        W51952  41.773  16.587  13.272
79627W        W51953  36.786  21.231  12.979
79628W        W51954  35.652  19.795  14.264
79629W        W51955   0.861  12.821   1.795
79630W        W51956  34.930  37.519   0.702
79631W        W51957   7.720  24.069   4.521
79632W        W51958   0.615  40.312  13.508
79633W        W51959  20.998  15.124   2.403
79634W        W51960  19.553  16.395   0.750
79635W        W51961  21.705  23.144   3.838
79636W        W51962  11.791  22.615   3.647
79637W        W51963  27.139   0.409  11.535
79638W        W51964  38.727   0.805   4.904
79639W        W51965  18.961  40.450   3.461
79640W        W51966   8.800  23.830   0.711
79641W        W51967   3.424  21.291  11.986
79642W        W51968   1.749  41.283  10.301
79643W        W51969  29.481  16.330   2.166
79644W        W51970  34.114  18.617   2.072
79645W        W51971  40.865  24.197   2.826
79646W        W51972  19.605  13.746  14.992
79647W        W51973  27.593  41.212   4.053
79648W        W51974  42.604  40.299  11.511
79649W        W51975   9.392  43.202   4.463
79650W        W51976  28.129  29.991   0.734
79651W        W51977  14.105  11.485  13.454
79652W        W51978  20.859  21.731   4.245
79653W        W51979  36.569  10.227  10.389
79654W        W51980  34.051  39.367  12.068
79655W        W51981  18.193  11.113  14.269
79656W        W51982  40.876  23.112  13.934
79657W        W51983   2.779  12.159   1.913
79658W        W51984  19.764   5.180   0.874
79659W        W51985  36.540  14.889  14.950
79660W        W51986  16.112  12.899   0.430
79661W        W51987  34.837  20.080  10.761
79662W        W51988  33.026  19.308   2.433
79663W        W51989  32.712  14.934  14.773
79664W        W51990   9.804   0.886  10.994
79665W        W51991  13.361  18.214  11.610
79666W        W51992  23.986   1.952  12.005
79667W        W51993  11.210  31.430  10.325
79668W        W51994  35.059  38.437  10.526
79669W        W51995  32.894  32.545   2.094
79670W        W51996  39.306   2.098   3.690
79671W        W51997   3.003   5.795  11.053
79672W        W51998   5.475  24.128  13.969
79673W        W51999  16.748  43.789   3.588
79674W        W52000  27.454   5.652   2.016
79675W        W52001  31.225  26.152  14.075
79676W        W52002  11.217   7.685   0.597
79677W        W52003  33.727   7.052   0.039
79678W        W52004  43.953   9.118   0.838
79679W        W52005  29.149  27.687  12.571
79680W        W52006  31.477  14.834  11.204
79681W        W52007  21.531  17.557  12.648
79682W        W52008  35.959  21.109   3.099
79683W        W52009   5.334  25.429  12.020
79684W        W52010  42.930  21.911  12.401
79685W        W52011  24.983  30.980  13.507
79686W        W52012   7.923  39.975  14.386
79687W        W52013   8.487  29.003   4.758
79688W        W52014  34.341   3.441   4.870
79689W        W52015  31.897  23.143   0.950
79690W        W52016  10.323   9.147   4.652
79691W        W52017  40.413  41.804  13.449
79692W        W52018  11.645  16.185   2.678
79693W        W52019  11.193  33.439  12.595
79694W        W52020  29.525  19.834   2.339
79695W        W52021   2.023  20.787   0.400
79696W        W52022  34.114  34.390   1.962
79697W        W52023  23.854  37.903   4.653
79698W        W52024  41.313  12.727   2.848
79699W        W52025  37.051  31.808  10.708
79700W        W52026  37.203  39.631   2.347
79701W        W52027  21.557  25.952   4.325
79702W        W52028   0.624  23.564   3.717
79703W        W52029  14.514   1.196  11.946
79704W        W52030  43.321  20.729   3.594
79705W        W52031  42.331  11.585   4.108
79706W        W52032  43.218  42.274   3.276
79707W        W52033  38.015  24.189  11.623
79708W        W52034  37.354   7.268   3.688
79709W        W52035  28.619  34.420  12.953
79710W        W52036  33.027  23.313   2.713
79711W        W52037  39.393  23.397   2.416
79712W        W52038   1.301  28.048  13.710
79713W        W52039  17.695   1.315  12.088
79714W        W52040  28.627  11.406  14.605
79715W        W52041  27.106  27.776  12.563
79716W        W52042  25.706  21.758   0.362
79717W        W52043  16.880   1.676  12.803
79718W        W52044  11.700  12.997   2.653
79719W        W52045  20.058  37.778   0.613
79720W        W52046  19.203  29.941   4.647
79721W        W52047  28.956   5.393   4.949
79722W        W52048  33.705  41.359  10.796
79723W        W52049  13.075  32.077   1.364
79724W        W52050  26.909  23.982   2.810
79725W        W52051  10.450  34.145  13.450
79726W        W52052  26.686  40.928  13.564
79727W        W52053  10.281  31.352   3.419
79728W        W52054  17.553  35.534   2.278
79729W        W52055   1.537  13.772   4.501
79730W        W52056  44.368  29.899   2.120
79731W        W52057  42.394   9.124  12.796
79732W        W52058   3.924  15.766  13.404
79733W        W52059  29.109  15.280  11.855
79734W        W52060  20.602  27.139  12.939
79735W        W52061  28.677  10.588  12.574
79736W        W52062  37.338  40.995   0.278
79737W        W52063  19.970  26.135   0.449
79738W        W52064  33.529  31.497   4.144
79739W        W52065   9.351  18.272   4.517
79740W        W52066  17.754   4.372  11.620
79741W        W52067   5.886  24.674  11.636
79742W        W52068  28.115   4.889   3.692
79743W        W52069   0.218  41.804  14.397
79744W        W52070  14.344  27.669   4.442
79745W        W52071  31.783  36.796  11.147
79746W        W52072  36.822  32.097   3.232
79747W        W52073  44.462   9.559   4.290
79748W        W52074  36.071  16.853  14.047
79749W        W52075  33.113  26.485  14.290
79750W        W52076   6.114  39.892   1.224
79751W        W52077   1.202  31.955   3.224
79752W        W52078  22.956   8.333   2.359
79753W        W52079  43.535  29.216  12.806
79754W        W52080  12.201  40.513   2.679
79755W        W52081  13.616  14.552  11.298
79756W        W52082  14.337  42.318   0.852
79757W        W52083  39.013  35.726  14.884
79758W        W52084  11.830  14.090   2.840
79759W        W52085   3.290  20.588   4.941
79760W        W52086  12.991   2.312   5.098
79761W        W52087   8.134  12.427   3.338
79762W        W52088  16.011  42.513   0.577
79763W        W52089  27.596  37.946  12.541
79764W        W52090   2.320  24.748   4.957
79765W        W52091  24.606  40.755   3.761
79766W        W52092  28.991   8.425   1.199
79767W        W52093   7.682   2.259   4.111
79768W        W52094  30.807  13.485   3.457
79769W        W52095  33.443  41.322  12.561
79770W        W52096   4.965   2.162  14.699
79771W        W52097  27.018  30.535  10.702
79772W        W52098  33.375   0.692   2.194
79773W        W52099  14.687  41.765   0.324
79774W        W52100  14.379   7.648   0.870
79775W        W52101  43.041   8.688   4.610
79776W        W52102  40.036   1.424  11.511
79777W        W52103  40.348  10.644   1.253
79778W        W52104  29.678  10.486   1.647
79779W        W52105  24.163  43.478  14.398
79780W        W52106   6.608   3.675  12.825
79781W        W52107  27.124  10.692   4.869
79782W        W52108  31.023   5.833  14.656
79783W        W52109  26.743  14.172   0.941
79784W        W52110  30.018  27.185  12.902
79785W        W52111  20.522   0.700  14.011
79786W        W52112  10.333  35.988  14.336
79787W        W52113  30.917  44.515  12.084
79788W        W52114   9.304  30.739  12.969
79789W        W52115   3.526  38.926  14.394
79790W        W52116  14.847   9.098   0.083
79791W        W52117  22.777  25.836  14.432
79792W        W52118  20.218   4.391  12.386
79793W        W52119  12.145   3.238   3.682
79794W        W52120  11.648  20.525   0.683
79795W        W52121  19.080  31.748  10.677
79796W        W52122  20.279   4.934   0.874
79797W        W52123  27.499   4.908  12.216
79798W        W52124  32.389   4.296  12.112
79799W        W52125  42.392  14.040   4.302
79800W        W52126  21.629  24.944  11.167
79801W        W52127  11.851  14.764   2.261
79802W        W52128  39.856  13.550   4.071
79803W        W52129  37.563  36.937   2.102
79804W        W52130  30.291  36.995  12.172
79805W        W52131   6.158  43.700   1.628
79806W        W52132   9.173  31.934   2.194
79807W        W52133   0.349  13.628  14.461
79808W        W52134  42.462  39.845   4.050
79809W        W52135  19.635  23.935   0.235
79810W        W52136  36.501  13.426   0.242
79811W        W52137  42.836  41.061  14.907
79812W        W52138  38.226  33.154   3.714
79813W        W52139  29.454  38.677   4.900
79814W        W52140  23.466  38.965  12.472
79815W        W52141   5.476   5.811   4.389
79816W        W52142  22.085  27.208  14.784
79817W        W52143  20.154  40.916  10.787
79818W        W52144  33.614  11.256   3.281
79819W        W52145  30.498  11.337   2.576
79820W        W52146  15.350  36.878  10.644
79821W        W52147  25.730  21.986   3.211
79822W        W52148  37.960  21.568  12.386
79823W        W52149  36.432  33.148   4.137
79824W        W52150  32.406  36.145  12.946
79825W        W52151   7.465  36.273  14.330
79826W        W52152   5.682   4.834  14.617
79827W        W52153  16.797  10.726   2.403
79828W        W52154   8.900  23.181  12.743
79829W        W52155   3.467  25.064   2.572
79830W        W52156  38.455   6.301   4.249
79831W        W52157  30.815   3.433  13.832
79832W        W52158  21.478  40.575  12.982
79833W        W52159  42.338  11.267  11.898
79834W        W52160  32.134  32.959   2.929
79835W        W52161  27.481   9.679   4.112
79836W        W52162  27.335   0.337   3.757
79837W        W52163  24.289  23.616  11.602
79838W        W52164  38.422  37.865   4.637
79839W        W52165  24.416  43.449  10.456
79840W        W52166  20.560   2.746   3.088
79841W        W52167  36.908  24.500  12.204
79842W        W52168  23.645  25.997   3.820
79843W        W52169  34.112  35.117   2.429
79844W        W52170  23.903  11.882   1.421
79845W        W52171  30.398   6.212   1.754
79846W        W52172  43.995   5.853   4.675
79847W        W52173  30.533  17.669  14.312
79848W        W52174  41.812  19.508   1.454
79849W        W52175  35.409   7.633  14.339
79850W        W52176  17.852  44.456   0.920
79851W        W52177   1.121   8.988   2.846
79852W        W52178  14.584  27.678  11.513
79853W        W52179   0.644  21.391  14.029
79854W        W52180   4.258  24.756  10.822
79855W        W52181   4.284  42.780   1.831
79856W        W52182  41.942  26.602   1.348
79857W        W52183  28.551  34.575   1.184
79858W        W52184  38.406  19.906   3.310
79859W        W52185  21.878  28.964   1.437
79860W        W52186  25.296   7.622   3.394
79861W        W52187  13.366  35.829  10.787
79862W        W52188   2.196  11.321  11.677
79863W        W52189  38.312  42.031  11.098
79864W        W52190  12.666   0.462  14.681
79865W        W52191  40.933  35.381  10.933
79866W        W52192  42.800  38.031   3.640
79867W        W52193   2.866  39.587   1.854
79868W        W52194   9.224  34.137  14.428
79869W        W52195  19.470  14.686  12.121
79870W        W52196  14.043  27.714   0.442
79871W        W52197  34.398  33.598  13.490
79872W        W52198  25.180  25.690   1.277
79873W        W52199   4.247  25.004  14.035
79874W        W52200  33.136   6.078  14.022
79875W        W52201  29.244  23.480  13.667
79876W        W52202  17.477   9.913  12.446
79877W        W52203   5.293  35.868   0.323
79878W        W52204  22.602  15.721   2.668
79879W        W52205   7.939  11.224  10.282
79880W        W52206  34.557   6.855  12.920
79881W        W52207  25.293  26.569   1.231
79882W        W52208  15.146   9.983   2.180
79883W        W52209  36.776  27.166   1.001
79884W        W52210  27.486   6.134  14.931
79885W        W52211  36.299  41.247  13.378
79886W        W52212  26.598  13.583  13.897
79887W        W52213  16.753  26.191   0.705
79888W        W52214  28.911  30.485   0.582
79889W        W52215  27.968   7.933  11.220
79890W        W52216  29.112  41.637  10.957
79891W        W52217  29.983   1.394   3.787
79892W        W52218  25.682   0.828  13.263
79893W        W52219  22.372  39.194  12.023
79894W        W52220   1.210  12.177  11.704
79895W        W52221  42.746  15.756  10.568
79896W        W52222  34.034  41.143   3.444
79897W        W52223  16.419   4.626   1.217
79898W        W52224  14.157  35.907  10.627
79899W        W52225   3.398  42.333  14.871
79900W        W52226  16.904   3.886  10.862
79901W        W52227  26.204   1.513  12.942
79902W        W52228  20.153  24.254   1.397
79903W        W52229  28.862   2.182   0.383
79904W        W52230  24.989  21.954   4.892
79905W        W52231  41.841  37.743   3.561
79906W        W52232  27.544  11.237   0.917
79907W        W52233  32.911  24.099   0.004
79908W        W52234  40.765  12.563   4.522
79909W        W52235  19.378  34.507  11.474
79910W        W52236  35.006  13.206   2.117
79911W        W52237  12.299  41.412   0.292
79912W        W52238  37.506   3.360  12.108
79913W        W52239  24.008  38.805  13.030
79914W        W52240  43.425  40.435   3.500
79915W        W52241  44.908  41.130   2.493
79916W        W52242  30.209  16.846   1.024
79917W        W52243  13.655   5.820  10.890
79918W        W52244  25.659  29.123  11.006
79919W        W52245   6.635  44.791   3.165
79920W        W52246  34.878  12.502  12.047
79921W        W52247  40.525  42.203  10.763
79922W        W52248  17.706  26.968  13.340
79923W        W52249  18.623  16.960   5.056
79924W        W52250  14.266  24.485   4.961
79925W        W52251  13.228  10.749   1.788
79926W        W52252  37.536   8.773  10.411
79927W        W52253   0.592   8.988   1.142
79928W        W52254  24.908   8.961   5.231
79929W        W52255  37.160  39.139  14.509
79930W        W52256   2.837  38.036   2.125
79931W        W52257  17.161  17.254  10.167
79932W        W52258  40.849  43.945  14.620
79933W        W52259   0.742  21.080   0.914
79934W        W52260  10.614  37.385   1.836
79935W        W52261   3.679  21.826  14.477
79936W        W52262  10.210  33.929   4.892
79937W        W52263  38.340   2.313  14.396
79938W        W52264   1.799  43.817  11.672
79939W        W52265  23.092  26.980  13.444
79940W        W52266  19.208   0.928   4.685
79941W        W52267   2.069   0.877  12.724
79942W        W52268  34.521  30.820  14.001
79943W        W52269   0.282  34.886  14.878
79944W        W52270  10.392  17.323   2.855
79945W        W52271  38.936  34.931  13.115
79946W        W52272  16.570  23.004  11.162
79947W        W52273  14.301  16.063   3.260
79948W        W52274  30.463  35.561  12.021
79949W        W52275  21.609  19.291  11.277
79950W        W52276  29.788  35.150  13.517
79951W        W52277  44.324  32.663   2.421
79952W        W52278  40.843  43.892   4.061
79953W        W52279   1.541  34.457   2.295
79954W        W52280  27.061   2.701   4.406
79955W        W52281  15.756  36.381  14.517
79956W        W52282  34.679   6.697  14.918
79957W        W52283  34.033  13.752   1.456
79958W        W52284   8.859   3.322   1.301
79959W        W52285  37.915  36.334   1.417
79960W        W52286  14.798   1.168   0.434
79961W        W52287  13.334  19.159  13.438
79962W        W52288  39.971  28.590  12.048
79963W        W52289  41.345  30.886   1.737
79964W        W52290  30.906   9.208   1.420
79965W        W52291  43.528   0.615  14.855
79966W        W52292  35.105  31.406  13.837
79967W        W52293  32.590  36.352  12.169
79968W        W52294  34.637   6.746   2.585
79969W        W52295  39.866  16.681   5.010
79970W        W52296  38.820  44.781  10.785
79971W        W52297  43.249  13.649  14.821
79972W        W52298  34.595  23.153  10.913
79973W        W52299  34.316  34.572   2.426
79974W        W52300  38.409  21.005  13.408
79975W        W52301  19.600  29.062  12.153
79976W        W52302  44.509  21.624  14.091
79977W        W52303  20.494  30.455   0.459
79978W        W52304  12.079  16.589   2.663
79979W        W52305  35.847  28.538   3.700
79980W        W52306  12.379   9.671  13.829
79981W        W52307  29.443  16.592  11.143
79982W        W52308  36.549   6.779   4.540
79983W        W52309  22.696  42.377   3.614
79984W        W52310  44.980  27.008   2.014
79985W        W52311  29.906  41.278   3.787
79986W        W52312  31.986  36.070   0.824
79987W        W52313  36.611   7.610  12.311
79988W        W52314  16.631  20.242  13.588
79989W        W52315  38.775   1.966   4.413
79990W        W52316   1.534  39.525   2.856
79991W        W52317  18.537   0.013   0.682
79992W        W52318  40.539  17.090   2.423
79993W        W52319  34.954  29.713  12.936
79994W        W52320  20.492   6.797  12.852
79995W        W52321  14.194  39.025  14.597
79996W        W52322  35.197  17.601  11.071
79997W        W52323  23.230   5.490   2.283
79998W        W52324  37.882  20.996   2.876
79999W        W52325   4.510  17.272  12.502
80000W        W52326  38.070   4.475   0.317
80001W        W52327  10.812  27.444  14.048
80002W        W52328  36.733   6.079   4.275
80003W        W52329  43.362  19.703   1.461
80004W        W52330  32.735   5.696  11.538
80005W        W52331  18.601  12.399  13.884
80006W        W52332  39.954  26.730   2.642
80007W        W52333  35.891   1.974   2.413
80008W        W52334   4.430  31.512   2.183
80009W        W52335   1.708  14.339   3.364
80010W        W52336  43.318  20.864  11.896
80011W        W52337  27.286  41.142  13.000
80012W        W52338  33.978  31.511   4.397
80013W        W52339  22.731   5.917  14.022
80014W        W52340  35.317   0.543   0.761
80015W        W52341  37.585  15.591  13.512
80016W        W52342   6.057   6.331   1.652
80017W        W52343  35.253  32.542   0.790
80018W        W52344  37.014  16.580  11.084
80019W        W52345   0.884   4.969  13.791
80020W        W52346  23.296  39.045  11.140
80021W        W52347  25.030  24.702   1.280
80022W        W52348  20.581  26.009   2.181
80023W        W52349  35.459  11.873  10.696
80024W        W52350  38.810   5.750  12.948
80025W        W52351  30.904   2.257  11.488
80026W        W52352   4.864   4.667   3.828
80027W        W52353  43.833  31.905  12.824
80028W        W52354  19.216  17.676  14.412
80029W        W52355  27.159  38.572  14.689
80030W        W52356  21.547  27.052  10.581
80031W        W52357  28.120  41.859   2.831
80032W        W52358   1.558  41.886   2.334
80033W        W52359  33.918  36.558   3.584
80034W        W52360  35.947  44.744  10.510
80035W        W52361   0.660   8.543   4.953
80036W        W52362  25.130  39.944  14.917
80037W        W52363  30.065  34.609  14.370
80038W        W52364  17.134  28.530   3.537
80039W        W52365  36.388  44.980   2.916
80040W        W52366  34.979  25.087   4.596
80041W        W52367  44.293  19.906  14.786
80042W        W52368  39.502  41.984  14.522
80043W        W52369  39.915   7.031  13.914
80044W        W52370  18.967  11.184   2.773
80045W        W52371  11.677  26.024   1.267
80046W        W52372  43.816   3.258  13.882
80047W        W52373  44.882  29.975  11.117
80048W        W52374  23.174  12.838   4.274
80049W        W52375   1.788   0.817  14.550
80050W        W52376  43.568   0.350  12.079
80051W        W52377  14.238   1.634  12.659
80052W        W52378  26.779  30.655  11.170
80053W        W52379  16.557   9.469  11.429
80054W        W52380  33.390  31.600  11.682
80055W        W52381  21.519  20.881  14.961
80056W        W52382  42.566  14.063  10.389
80057W        W52383  34.520  38.701   0.688
80058W        W52384  29.207   0.338   2.955
80059W        W52385   7.418   0.323   3.207
80060W        W52386   0.696  21.206   2.296
80061W        W52387  36.744  10.481   4.465
80062W        W52388  22.209  36.350  12.049
80063W        W52389  42.482  22.772   2.179
80064W        W52390  12.950  27.857  12.337
80065W        W52391  41.893  19.672   2.411
80066W        W52392  14.161  34.037   3.325
80067W        W52393  12.543   3.976  12.827
80068W        W52394  17.690   6.745   1.915
80069W        W52395  14.932  38.652  11.145
80070W        W52396   7.961  24.164   3.670
80071W        W52397   2.210  34.167   3.354
80072W        W52398  30.130  41.949  14.724
80073W        W52399  20.612  39.039  10.632
80074W        W52400  28.637  28.604  10.611
80075W        W52401  43.423  31.642   1.449
80076W        W52402  26.629  17.611   3.031
80077W        W52403  20.367  43.865  12.227
80078W        W52404  33.298  36.902   1.041
80079W        W52405  39.267  17.612   3.380
80080W        W52406  22.748  33.072   3.281
80081W        W52407   4.547   4.006   2.630
80082W        W52408  28.586  15.587  10.397
80083W        W52409  29.001  33.632  14.315
80084W        W52410  29.247  25.210   4.193
80085W        W52411  40.360  29.260  14.860
80086W        W52412  25.069  21.449  10.664
80087W        W52413   9.682  14.271   3.975
80088W        W52414  28.938  37.051   1.951
80089W        W52415  14.520  38.713  13.459
80090W        W52416   9.752  27.070   2.119
80091W        W52417  20.228  25.204  13.408
80092W        W52418   8.792  28.957   1.262
80093W        W52419  35.596  31.223  12.146
80094W        W52420  27.441  44.891   0.728
80095W        W52421  38.104  29.374   2.694
80096W        W52422  13.159  18.004   1.301
80097W        W52423  25.599  21.079  10.924
80098W        W52424   6.166   4.217  12.176
80099W        W52425   3.443  35.201  11.146
80100W        W52426   1.862  14.168   0.033
80101W        W52427   1.522  24.944   0.951
80102W        W52428  37.042  26.719  13.951
80103W        W52429  15.932  10.365  13.875
80104W        W52430   8.412   2.800   1.268
80105W        W52431  37.519  37.368   1.792
80106W        W52432  15.773  27.552   4.733
80107W        W52433  33.929  33.377  13.513
80108W        W52434  43.747  22.073  11.730
80109W        W52435  22.286  14.332   0.169
80110W        W52436   3.329  26.613   1.203
80111W        W52437  20.444  11.832  14.791
80112W        W52438  44.876   2.506   4.110
80113W        W52439   9.102  30.051  14.680
80114W        W52440  26.623  24.008  13.819
80115W        W52441   3.813  44.087  13.284
80116W        W52442  34.300   5.949  12.689
80117W        W52443  15.869   8.869  11.614
80118W        W52444  26.445  42.844  11.901
80119W        W52445  35.044  22.112   1.438
80120W        W52446  32.630   4.338  10.648
80121W        W52447  41.425   7.912   4.760
80122W        W52448  15.499   6.409   0.823
80123W        W52449  25.103   6.155   0.456
80124W        W52450  38.579  39.163  11.169
80125W        W52451  23.140  13.134  14.256
80126W        W52452  14.529  44.391  13.872
80127W        W52453  15.697  44.936  12.492
80128W        W52454  37.884  16.171   4.846
80129W        W52455  13.773  29.539  11.810
80130W        W52456   3.163   5.476   4.976
80131W        W52457  17.558   5.693  14.847
80132W        W52458  30.910  16.502   2.818
80133W        W52459  34.989  12.176   0.644
80134W        W52460  17.521  41.192  12.475
80135W        W52461   4.000  30.666  13.472
80136W        W52462  42.242  10.723   2.657
80137W        W52463  29.655   0.319   4.022
80138W        W52464   6.908   7.188   2.838
80139W        W52465  21.541  12.694  12.018
80140W        W52466  34.347  22.758  12.444
80141W        W52467  19.617   2.196  10.519
80142W        W52468  32.998  39.816   3.663
80143W        W52469  31.969  41.539  13.412
80144W        W52470  37.383  24.643  12.376
80145W        W52471  18.149  34.610  13.282
80146W        W52472  10.124  22.149  14.481
80147W        W52473   8.284  15.375   4.807
80148W        W52474  18.737  17.612   0.715
80149W        W52475  42.595  17.183   1.128
80150W        W52476  30.901  41.956  11.372
80151W        W52477  23.407   2.400  14.462
80152W        W52478  42.528  17.613   0.862
80153W        W52479   9.124  24.920   2.282
80154W        W52480  11.370  43.903  11.521
80155W        W52481  31.279   4.878   2.919
80156W        W52482  41.759  44.590  13.082
80157W        W52483  29.483  31.962  14.837
80158W        W52484  42.441  34.101  11.974
80159W        W52485  11.787  20.869   4.738
80160W        W52486   1.181   3.503   4.535
80161W        W52487  43.375  35.741  14.861
80162W        W52488   9.684  36.475   2.796
80163W        W52489  32.074  39.834  13.750
80164W        W52490  43.265  42.520   2.819
80165W        W52491   8.634   0.583   4.162
80166W        W52492  37.849   8.572  11.686
80167W        W52493   4.778  23.642  10.595
80168W        W52494  20.572   2.237  14.016
80169W        W52495  34.826  23.619  11.214
80170W        W52496  28.642   4.951   0.407
80171W        W52497  17.087  42.422   1.452
80172W        W52498   5.967  26.114  12.469
80173W        W52499  22.296  18.747  10.726
80174W        W52500  16.112  27.468  13.314
80175W        W52501  22.533  31.417   1.383
80176W        W52502  19.185   6.588  12.058
80177W        W52503  29.543  40.029   2.754
80178W        W52504  35.565  36.567  13.427
80179W        W52505  15.176  31.304  12.243
80180W        W52506   8.279  24.173  14.469
80181W        W52507  32.883  27.645  14.034
80182W        W52508  38.934   9.635   2.194
80183W        W52509  27.541  27.903   3.648
80184W        W52510   0.051  23.674   0.266
80185W        W52511  37.032  21.596  12.713
80186W        W52512  44.641   0.822   4.057
80187W        W52513  39.782   2.853  13.307
80188W        W52514  43.476   7.845  12.023
80189W        W52515  29.617  34.486   3.264
80190W        W52516   7.395   2.933  12.938
80191W        W52517  40.313   6.132   4.496
80192W        W52518   8.287  29.823  12.196
80193W        W52519  20.728  30.954   0.370
80194W        W52520   3.692  32.869   0.141
80195W        W52521   1.072   4.399   0.032
80196W        W52522  11.654  12.299  11.128
80197W        W52523  15.329  15.738   1.887
80198W        W52524  12.345  10.615   1.279
80199W        W52525   8.729   0.385  14.786
80200W        W52526  12.300  37.880   3.267
80201W        W52527  16.262  38.896  11.893
80202W        W52528  32.041  42.541   3.215
80203W        W52529  22.190  22.625  12.515
80204W        W52530  28.224  16.153   4.151
80205W        W52531  22.692  38.890   1.260
80206W        W52532  28.208   7.633   3.191
80207W        W52533  10.213  14.740  10.402
80208W        W52534   0.680  36.906   1.797
80209W        W52535  38.711  29.637  14.372
80210W        W52536  36.596  25.036  10.584
80211W        W52537  36.410  11.948  10.264
80212W        W52538  39.480   5.295   1.521
80213W        W52539   3.418  28.935   3.236
80214W        W52540  31.667  29.106   3.176
80215W        W52541   1.669  13.322   2.271
80216W        W52542  18.805   2.179   1.884
80217W        W52543   2.777  36.977   2.322
80218W        W52544  38.880  18.512   0.314
80219W        W52545  29.872  25.135  12.030
80220W        W52546  39.490   7.902   3.213
80221W        W52547  37.537  43.025   1.399
80222W        W52548   3.690  44.964  11.608
80223W        W52549  30.085  22.216   4.788
80224W        W52550  43.477  10.275   3.722
80225W        W52551   0.383  29.116  13.404
80226W        W52552  29.137   9.771  14.947
80227W        W52553  15.314   4.356   4.294
80228W        W52554  27.869  37.243  12.886
80229W        W52555  39.542  43.904   4.182
80230W        W52556  42.715  22.551   3.024
80231W        W52557   0.130  20.213   1.785
80232W        W52558  38.259   5.880   4.021
80233W        W52559   1.576  36.276  14.965
80234W        W52560  16.210  26.524  13.082
80235W        W52561   9.712  36.970  11.572
80236W        W52562  21.698   8.121  12.080
80237W        W52563   4.930  28.400  14.920
80238W        W52564  18.139   6.532   1.846
80239W        W52565  18.141  12.750  10.757
80240W        W52566  35.095   1.969  13.538
80241W        W52567  22.550  13.678   3.618
80242W        W52568  29.945  43.715  13.893
80243W        W52569  35.183   2.631  11.928
80244W        W52570  17.185  38.484  10.707
80245W        W52571  19.870  29.090   3.187
80246W        W52572  24.805  23.586  11.570
80247W        W52573  38.832  11.933   5.122
80248W        W52574  16.319  23.759   3.153
80249W        W52575  22.780   3.438   1.844
80250W        W52576  32.157   3.571  12.056
80251W        W52577  28.636  17.419  10.344
80252W        W52578  15.595  23.345   1.991
80253W        W52579  15.547  43.979  14.929
80254W        W52580  19.276  21.604   4.316
80255W        W52581  19.362  41.761   2.960
80256W        W52582   2.683   4.976  14.861
80257W        W52583  30.538  16.295  14.806
80258W        W52584  44.114  41.323  14.874
80259W        W52585  13.286  25.997  12.160
80260W        W52586  15.228  21.345  11.968
80261W        W52587   3.698  41.484  10.122
80262W        W52588  23.119   4.386   3.616
80263W        W52589  40.949  32.476   4.722
80264W        W52590  29.665  10.912   3.799
80265W        W52591  26.677  31.918   3.726
80266W        W52592  25.397  28.057   2.049
80267W        W52593  31.054  36.067  14.104
80268W        W52594  44.846  42.882   2.824
80269W        W52595  35.615   8.229  13.521
80270W        W52596  34.135  10.575   2.658
80271W        W52597  15.383  40.511  14.687
80272W        W52598  25.925  27.002  10.573
80273W        W52599  13.763  19.051  12.654
80274W        W52600  18.368  38.303  14.288
80275W        W52601  41.801  41.831  11.300
80276W        W52602  21.503  32.978   2.406
80277W        W52603  31.994   2.380   2.408
80278W        W52604  12.268  36.587   2.887
80279W        W52605  22.971  34.570   2.838
80280W        W52606  42.476   6.165   2.653
80281W        W52607  25.387   5.361  14.801
80282W        W52608  30.513  20.124   2.752
80283W        W52609   1.481  37.997   1.445
80284W        W52610  21.666  43.371   2.444
80285W        W52611   7.399  35.628  12.015
80286W        W52612  12.382  22.139  13.732
80287W        W52613  27.028  12.185   2.748
80288W        W52614  10.234   2.942   2.411
80289W        W52615  33.905  26.988   3.911
80290W        W52616   8.249  34.595   1.334
80291W        W52617  30.672  26.539  12.937
80292W        W52618  28.474   0.978  12.591
80293W        W52619  42.333  25.010   1.713
80294W        W52620  44.671  30.604  10.501
80295W        W52621  13.296  44.735   4.376
80296W        W52622  21.224  17.605  12.018
80297W        W52623   3.622  31.287  14.473
80298W        W52624  40.391  30.395  14.422
80299W        W52625  18.702   0.004  12.577
80300W        W52626   5.599   4.118   1.055
80301W        W52627  16.382  15.839   2.199
80302W        W52628  31.354   8.739   3.233
80303W        W52629  20.056  14.540   1.466
80304W        W52630   8.167  24.585  14.102
80305W        W52631   4.289  20.122   3.397
80306W        W52632  10.123  43.805  12.220
80307W        W52633   2.027   1.768  12.871
80308W        W52634  23.131  40.837   1.953
80309W        W52635  40.484  22.304   3.269
80310W        W52636  17.945  30.537  12.404
80311W        W52637  21.711   9.219  11.560
80312W        W52638  11.239  25.229   1.152
80313W        W52639  14.621   5.767  10.758
80314W        W52640  13.187  24.557   1.194
80315W        W52641  29.492  19.569  12.231
80316W        W52642   8.119  22.132   3.665
80317W        W52643  14.659  29.147   4.669
80318W        W52644  22.076  34.790  14.526
80319W        W52645  35.026  26.262  12.885
80320W        W52646  29.474  23.720  12.836
80321W        W52647   9.345  22.703   1.914
80322W        W52648  29.975  31.683   4.166
80323W        W52649  44.395  18.967  10.657
80324W        W52650  42.034  32.324   0.110
80325W        W52651  37.056  23.038   2.357
80326W        W52652  27.887  39.996  12.979
80327W        W52653   3.480   8.851   0.006
80328W        W52654  26.673  26.531  14.914
80329W        W52655  24.161  42.951   1.788
80330W        W52656  21.759  17.081  14.977
80331W        W52657  28.394  33.953   0.792
80332W        W52658  21.303  39.555   0.271
80333W        W52659  21.095  43.954  10.614
80334W        W52660  18.599  25.680   0.937
80335W        W52661  19.602  24.613   0.360
80336W        W52662  14.537  19.767   0.045
80337W        W52663  33.514   6.361   0.326
80338W        W52664   5.815   3.281  12.637
80339W        W52665  39.780  24.612   0.756
80340W        W52666   6.660  21.851  11.216
80341W        W52667   5.318   1.931  12.471
80342W        W52668  32.438  27.678   1.380
80343W        W52669   0.326   8.856  11.978
80344W        W52670   3.891  31.514  13.596
80345W        W52671  11.751  31.052   1.953
80346W        W52672  28.030  36.729  11.036
80347W        W52673  41.887  28.490   3.838
80348W        W52674   5.789  14.085  13.550
80349W        W52675  40.482  31.550  13.824
80350W        W52676   1.336  42.864   5.066
80351W        W52677   4.903  39.171   4.548
80352W        W52678  38.797  25.251  12.600
80353W        W52679  31.550  30.938   3.137
80354W        W52680   1.361  30.866   3.776
80355W        W52681  39.333   0.860   3.929
80356W        W52682  18.645  33.756   4.870
80357W        W52683  28.103   9.092  12.847
80358W        W52684  39.110  30.055  12.921
80359W        W52685  43.024  41.304   3.749
80360W        W52686  20.255  12.100  12.539
80361W        W52687  22.830  31.025  10.876
80362W        W52688  44.331  44.801   2.313
80363W        W52689  15.509  18.731  13.041
80364W        W52690  24.700  15.274  12.984
80365W        W52691  15.397  25.785   3.799
80366W        W52692  16.615   7.735  11.621
80367W        W52693  44.828  12.667   3.774
80368W        W52694  27.020  33.466  13.537
80369W        W52695  27.398   0.313   4.278
80370W        W52696  42.908  21.590  13.849
80371W        W52697  42.044  31.697   4.370
80372W        W52698  18.121  12.935   3.051
80373W        W52699   3.856  15.312  14.358
80374W        W52700  23.501   6.182   1.693
80375W        W52701  27.182  11.183  14.334
80376W        W52702  31.425  16.100  11.946
80377W        W52703  26.737   9.398   1.781
80378W        W52704  26.158  40.536   0.857
80379W        W52705  13.078  28.468   2.853
80380W        W52706  13.809  28.512  10.987
80381W        W52707  36.355  28.039   0.806
80382W        W52708  41.900  27.974   3.071
80383W        W52709  33.718  41.683  12.841
80384W        W52710   2.488   9.247   3.277
80385W        W52711   6.265  43.592   2.724
80386W        W52712  40.442  24.657   0.272
80387W        W52713  31.315  44.818   2.191
80388W        W52714  27.014  25.263   4.513
80389W        W52715   1.765   6.228  13.443
80390W        W52716   5.994   7.309   1.935
80391W        W52717  38.430  26.999  13.321
80392W        W52718   4.341   3.279  12.037
80393W        W52719  26.058   8.883   1.068
80394W        W52720  31.440  32.538  13.049
80395W        W52721  40.521  34.871   1.437
80396W        W52722  25.235   9.284   4.425
80397W        W52723  11.883  23.464  12.526
80398W        W52724  30.496  22.999   2.704
80399W        W52725  26.062  41.207   0.483
80400W        W52726  17.386  28.532   0.738
80401W        W52727  18.220  40.872  14.979
80402W        W52728  44.963  28.655   4.467
80403W        W52729  19.319   5.235  12.005
80404W        W52730  21.319   3.937   3.265
80405W        W52731  23.112  16.977  10.932
80406W        W52732  15.562  12.014  14.626
80407W        W52733  36.254  30.386   3.152
80408W        W52734  30.310   6.926  11.897
80409W        W52735  21.639  23.948  14.539
80410W        W52736  16.395  37.579  14.212
80411W        W52737  33.890  40.917  14.220
80412W        W52738   1.764  27.222  10.762
80413W        W52739  17.031   5.338   4.834
80414W        W52740  27.242  13.130   0.927
80415W        W52741  34.596  21.826  11.016
80416W        W52742   6.452   2.781  13.090
80417W        W52743  44.858   1.538   2.732
80418W        W52744  38.862  44.963  13.925
80419W        W52745  14.299  34.443  14.329
80420W        W52746  31.510  40.948  10.623
80421W        W52747  27.580  39.912   3.564
80422W        W52748   3.309  24.157  10.819
80423W        W52749  37.587   4.876  10.776
80424W        W52750  43.113  29.023  14.384
80425W        W52751  15.949  23.602   1.685
80426W        W52752  19.125   3.680  11.667
80427W        W52753  24.650  14.878   3.755
80428W        W52754  24.519  35.535   0.836
80429W        W52755  37.273  26.274   3.293
80430W        W52756  39.883  19.040  11.159
80431W        W52757  13.740  40.786   1.414
80432W        W52758   8.601   8.152  12.090
80433W        W52759  20.953  15.922   2.377
80434W        W52760  23.003  43.457   0.055
80435W        W52761  32.501  11.845  13.386
80436W        W52762  37.550  20.374  10.069
80437W        W52763  17.228   1.401  11.424
80438W        W52764  42.400  36.169  13.851
80439W        W52765  43.601  24.905  11.141
80440W        W52766  16.054  36.017  11.605
80441W        W52767   1.525  41.366  13.854
80442W        W52768  36.528  34.027  14.099
80443W        W52769   5.222  20.454   1.641
80444W        W52770  13.763   5.178   2.203
80445W        W52771   7.137   9.578   1.834
80446W        W52772  34.243  30.460  13.728
80447W        W52773   7.012  12.889  13.622
80448W        W52774   0.252  21.560  12.050
80449W        W52775   3.756  24.071  13.904
80450W        W52776  11.021  44.810  12.412
80451W        W52777  26.713  24.092  14.975
80452W        W52778   3.857  14.266   4.202
80453W        W52779  21.198  29.693  13.446
80454W        W52780  26.140  16.142  14.953
80455W        W52781  19.936   0.936   1.314
80456W        W52782   9.035  28.191  12.910
80457W        W52783  44.120  28.002   1.314
80458W        W52784   6.021   2.145  10.223
80459W        W52785  33.855   2.339  10.686
80460W        W52786  19.512   7.529   4.203
80461W        W52787   4.418  32.063   1.993
80462W        W52788  36.502  26.061  12.847
80463W        W52789  39.610  18.153  13.377
80464W        W52790  37.298  14.191   2.254
80465W        W52791  35.048  27.959   2.905
80466W        W52792  30.759  25.472   2.150
80467W        W52793   2.972   4.561  14.874
80468W        W52794  18.094   7.517   2.003
80469W        W52795  15.088  17.470  13.866
80470W        W52796  41.202   2.259   4.635
80471W        W52797  35.465   4.225   3.723
80472W        W52798  34.490  20.277   1.453
80473W        W52799  14.273  44.696   1.466
80474W        W52800   2.010  21.643  14.844
80475W        W52801  11.130  26.424  13.054
80476W        W52802   0.025  11.692  13.588
80477W        W52803  31.865  14.538  11.382
80478W        W52804  39.225  28.927  13.603
80479W        W52805  40.991  23.231   0.874
80480W        W52806  37.464  20.770   1.406
80481W        W52807  26.647  35.455  12.118
80482W        W52808  10.595  24.644   3.160
80483W        W52809   8.838  17.992  10.811
80484W        W52810   8.242  36.062   1.914
80485W        W52811  40.126  19.548   2.670
80486W        W52812  41.431  15.115  13.514
80487W        W52813  43.178  43.044   3.005
80488W        W52814  28.489  11.897  12.734
80489W        W52815  39.372  27.957   3.265
80490W        W52816  31.932   1.830  12.922
80491W        W52817  30.433   5.465  14.217
80492W        W52818  37.083  37.944  12.277
80493W        W52819  42.559  40.076  14.403
80494W        W52820  44.316  41.924  12.549
80495W        W52821  34.078  16.533  13.731
80496W        W52822  11.410  13.696   4.539
80497W        W52823  39.296   8.277  13.917
80498W        W52824  39.971  44.314  14.854
80499W        W52825  20.675  13.673  12.860
80500W        W52826  38.429  13.327  13.829
80501W        W52827  12.101  19.756  11.520
80502W        W52828  16.247  33.421   3.160
80503W        W52829  25.933  14.955   9.650
80504W        W52830  36.491  41.804   2.091
80505W        W52831   6.205   9.855  12.542
80506W        W52832  39.961  27.252  10.656
80507W        W52833  34.897   4.861   2.019
80508W        W52834  29.313  20.193   0.402
80509W        W52835  11.617  30.196  11.026
80510W        W52836  13.357  20.532  12.930
80511W        W52837  15.399   6.222   2.740
80512W        W52838   8.139  44.299   3.814
80513W        W52839  18.367   4.771   3.322
80514W        W52840  38.453  25.548   4.161
80515W        W52841  39.642   3.929   2.778
80516W        W52842  23.472  14.787  14.400
80517W        W52843  27.224  10.155  12.137
80518W        W52844  29.953  35.131  14.395
80519W        W52845  13.770  33.999   5.455
80520W        W52846  34.140  20.725  12.842
80521W        W52847  31.531  38.336   2.855
80522W        W52848  32.049  12.857  14.367
80523W        W52849  24.181  26.676  12.868
80524W        W52850  15.453  24.658   2.678
80525W        W52851  13.570   3.370  14.288
80526W        W52852  17.545  19.252  14.967
80527W        W52853  26.954  25.926   2.711
80528W        W52854  44.737  38.065  13.415
80529W        W52855  14.577  30.951   0.482
80530W        W52856   1.966  26.585  12.067
80531W        W52857   9.710   5.198   3.512
80532W        W52858  44.809  39.502  11.886
80533W        W52859  18.598  29.927   1.965
80534W        W52860  25.804  16.760   1.116
80535W        W52861  21.800   2.081   5.074
80536W        W52862  32.362  18.967  13.414
80537W        W52863  15.817  14.695  11.386
80538W        W52864  39.819  35.608   2.929
80539W        W52865  27.473  24.781   2.331
80540W        W52866  26.679  32.032   1.844
80541W        W52867  39.117   8.697   4.448
80542W        W52868  30.543  40.985  11.657
80543W        W52869  39.313  44.503   1.808
80544W        W52870  10.805   5.729  14.082
80545W        W52871  40.121  18.066  10.165
80546W        W52872  10.781  32.130  13.798
80547W        W52873  30.662  22.388  13.083
80548W        W52874  34.495  18.077  14.956
80549W        W52875  22.679  16.649   9.882
80550W        W52876   7.124  32.668   1.337
80551W        W52877  15.808  33.009  13.432
80552W        W52878  15.361  15.663   4.572
80553W        W52879  44.183  14.251   0.766
80554W        W52880  38.497  18.707   0.600
80555W        W52881  44.486  19.588  14.331
80556W        W52882  27.255  32.249  11.466
80557W        W52883   8.140  12.863   4.611
80558W        W52884  43.451  40.533  13.792
80559W        W52885   1.462   7.828  14.423
80560W        W52886   8.305   9.135   4.398
80561W        W52887   4.497  21.493  14.794
80562W        W52888  11.553  10.327   3.907
80563W        W52889  36.336   3.114   3.643
80564W        W52890  36.335  20.136  11.660
80565W        W52891  43.920  31.417   4.779
80566W        W52892  33.838   1.421  12.078
80567W        W52893  39.363   7.053  13.576
80568W        W52894  27.111   9.960   3.713
80569W        W52895   8.320  43.227  14.451
80570W        W52896  18.715   9.991   2.854
80571W        W52897  22.909  44.833  10.409
80572W        W52898  18.230  17.765   1.412
80573W        W52899  11.798  11.579  13.291
80574W        W52900   1.288  14.162  14.341
80575W        W52901   9.391  30.921   4.481
80576W        W52902  35.835  26.637   4.153
80577W        W52903  31.485  22.031  12.111
80578W        W52904  33.648  31.874  12.970
80579W        W52905  15.132   3.209  13.109
80580W        W52906  37.338  13.132  14.741
80581W        W52907  29.578   6.463   2.074
80582W        W52908  39.653  23.702  11.937
80583W        W52909   4.303  11.962  12.849
80584W        W52910  10.355  35.826  11.652
80585W        W52911  34.022  17.032  13.884
80586W        W52912  22.194   0.769  14.312
80587W        W52913  24.607  22.063   1.926
80588W        W52914  26.742   6.691   0.056
80589W        W52915  20.431   8.329  13.527
80590W        W52916  24.057  21.667   2.988
80591W        W52917  21.564  20.339   3.683
80592W        W52918  28.924  26.836   3.716
80593W        W52919  23.698  26.165   4.327
80594W        W52920   3.715  30.587  13.074
80595W        W52921   6.939  36.986  13.099
80596W        W52922  10.801   1.400   2.726
80597W        W52923  30.570   3.370  12.988
80598W        W52924   9.986  22.547  13.477
80599W        W52925  31.141  16.492   1.912
80600W        W52926  33.978  40.723   4.225
80601W        W52927  18.198   0.102   1.942
80602W        W52928  13.105  27.375  10.732
80603W        W52929  34.858  36.728   9.558
80604W        W52930  44.495  29.680   2.954
80605W        W52931  42.990   5.688   3.906
80606W        W52932   9.712  33.017   3.547
80607W        W52933  36.437   2.733   2.305
80608W        W52934  27.011  13.286   4.903
80609W        W52935  21.076  26.134   2.311
80610W        W52936   0.935  39.868  11.120
80611W        W52937  38.537  40.051   1.218
80612W        W52938  22.084  40.477  10.519
80613W        W52939  42.545  22.666  11.931
80614W        W52940  27.140  29.232   0.395
80615W        W52941  22.688  44.402   4.561
80616W        W52942   5.483   7.443  13.846
80617W        W52943   4.677   1.767   3.249
80618W        W52944   4.761  33.925  14.790
80619W        W52945  43.599   2.306  11.937
80620W        W52946  19.780  30.188   1.845
80621W        W52947  18.337  11.168  13.319
80622W        W52948  11.169  24.788   1.430
80623W        W52949  37.530   3.959   2.851
80624W        W52950  12.386  31.346  12.500
80625W        W52951  12.009  27.254   1.999
80626W        W52952  27.672  16.550  14.379
80627W        W52953  30.129   3.609  12.904
80628W        W52954  32.654   3.038  13.417
80629W        W52955  15.941  38.560  11.126
80630W        W52956  32.507  25.982   2.205
80631W        W52957  12.333  36.199   0.047
80632W        W52958  32.531  30.809  11.088
80633W        W52959   1.432  40.715   3.964
80634W        W52960   8.435  32.934  12.556
80635W        W52961  13.834  26.359   4.723
80636W        W52962  24.271  32.083   1.347
80637W        W52963   5.464  11.213   1.847
80638W        W52964  34.092  25.576  11.717
80639W        W52965  10.905   2.078   0.853
80640W        W52966  24.078  40.362   9.988
80641W        W52967   0.736  22.757  13.981
80642W        W52968  33.389  25.139   2.344
80643W        W52969  32.480  36.089   5.059
80644W        W52970  10.312  14.666   0.427
80645W        W52971  20.377  44.813  13.036
80646W        W52972  32.176  36.856  14.067
80647W        W52973  38.177  35.237  11.203
80648W        W52974  11.493  15.506   0.727
80649W        W52975  43.339   2.395   0.437
80650W        W52976  11.707   3.985  12.281
80651W        W52977   6.940  30.399   2.334
80652W        W52978  18.725  26.892   2.787
80653W        W52979  13.112  11.620   2.741
80654W        W52980  35.453  38.661   2.733
80655W        W52981   8.814  22.549  11.128
80656W        W52982  27.220   2.680   0.585
80657W        W52983  41.101   4.184   2.737
80658W        W52984  26.091  13.112  13.634
80659W        W52985  44.006  17.832  13.932
80660W        W52986   0.706  21.419   1.810
80661W        W52987  21.654   6.207   3.570
80662W        W52988  41.921  41.565  11.724
80663W        W52989  10.613  12.706  14.953
80664W        W52990   4.985  15.621   2.340
80665W        W52991   1.273  41.825   1.895
80666W        W52992  35.864  20.543   3.846
80667W        W52993  25.996  40.453  12.699
80668W        W52994  29.418  14.705  12.935
80669W        W52995  12.443  18.833  14.436
80670W        W52996  27.970  18.204  11.614
80671W        W52997  12.022  19.143  14.434
80672W        W52998  20.590  25.651  11.622
80673W        W52999   0.702   2.645   5.045
80674W        W53000  32.974  34.552   3.677
80675W        W53001  14.148  43.819  13.804
80676W        W53002   0.851  12.305   1.432
80677W        W53003  34.386  33.012   2.756
80678W        W53004   9.327  36.861   4.758
80679W        W53005  19.702  10.228   2.876
80680W        W53006  33.067   0.981   2.483
80681W        W53007  40.950  31.541  14.793
80682W        W53008  21.725  44.584  13.842
80683W        W53009   8.681  35.429  10.958
80684W        W53010   3.886   3.810  13.610
80685W        W53011  10.632  41.096   1.777
80686W        W53012  20.219  40.481   3.979
80687W        W53013  29.886  15.198   0.259
80688W        W53014  26.138  23.974  10.445
80689W        W53015  16.616  15.003   0.463
80690W        W53016   5.325  41.452   3.755
80691W        W53017  10.676  39.466   3.393
80692W        W53018  10.765  20.142   1.733
80693W        W53019  12.772  20.553   3.787
80694W        W53020  27.585  22.456   3.225
80695W        W53021  37.962  42.781   1.573
80696W        W53022   4.188  16.991   2.289
80697W        W53023  22.220  32.891  12.555
80698W        W53024  42.865   6.696   2.350
80699W        W53025  44.432  42.037   2.317
80700W        W53026  44.335  30.957   0.434
80701W        W53027  43.677   2.242   2.362
80702W        W53028  39.471  30.464   2.777
80703W        W53029  42.315  17.362  12.950
80704W        W53030  15.756   4.470  13.021
80705W        W53031  42.858  37.823   2.678
80706W        W53032  43.760   3.978  14.482
80707W        W53033  16.780  10.272  12.143
80708W        W53034  24.517  34.815  11.150
80709W        W53035  21.456   6.609   4.528
80710W        W53036  36.548   7.731  11.494
80711W        W53037  32.397  14.569   2.686
80712W        W53038   8.190   2.969  14.753
80713W        W53039   0.182  10.820  13.494
80714W        W53040  41.053  41.004   1.044
80715W        W53041  34.487  44.300  12.378
80716W        W53042  36.599  19.143  10.586
80717W        W53043  21.782  11.196  14.397
80718W        W53044  26.706  40.470  13.314
80719W        W53045  17.745  15.460  14.071
80720W        W53046  13.877  19.993  14.048
80721W        W53047   2.523   0.967   4.517
80722W        W53048  12.710   4.210  14.575
80723W        W53049  16.995  11.845   4.216
80724W        W53050   5.373  19.618  13.766
80725W        W53051  20.700  37.870   2.165
80726W        W53052  33.089  31.504   4.406
80727W        W53053  12.589  22.724  14.353
80728W        W53054  42.922  11.740  12.938
80729W        W53055  39.085  28.908   3.038
80730W        W53056   9.750   8.673   0.788
80731W        W53057  11.595   3.990  13.302
80732W        W53058  10.091  18.218   1.714
80733W        W53059  24.544  16.254  11.060
80734W        W53060   8.823  24.889  14.631
80735W        W53061  27.368  32.554  13.907
80736W        W53062  19.824  38.217   4.184
80737W        W53063   3.792  29.441   2.316
80738W        W53064   7.632  39.687  13.130
80739W        W53065  24.753  23.577   2.604
80740W        W53066  17.032  39.936  12.359
80741W        W53067  14.866  32.198   0.957
80742W        W53068  27.672  15.688  14.399
80743W        W53069  29.412  13.239   4.531
80744W        W53070  19.800  15.139   3.635
80745W        W53071  37.612  13.627   0.457
80746W        W53072  33.839  29.203   4.623
80747W        W53073  43.280  21.826   2.615
80748W        W53074  23.231   2.263   2.733
80749W        W53075   6.644  44.863  11.650
80750W        W53076  17.049   2.340  10.612
80751W        W53077  30.458  40.532  14.511
80752W        W53078   8.380  14.901   0.429
80753W        W53079  36.111  17.452   1.873
80754W        W53080   5.126  16.212  14.057
80755W        W53081  37.515  22.222  12.061
80756W        W53082   6.242  28.686   4.908
80757W        W53083  23.077  26.627   3.763
80758W        W53084  32.164  34.487  10.389
80759W        W53085  42.339  17.071   2.647
80760W        W53086  32.256  31.509  11.535
80761W        W53087   7.892  21.739   0.803
80762W        W53088  10.951  32.988   4.576
80763W        W53089  18.071  37.328   3.195
80764W        W53090  32.139  30.913  13.982
80765W        W53091  22.595  43.058   0.971
80766W        W53092  15.132  37.597  12.520
80767W        W53093  37.983  28.742  11.638
80768W        W53094  33.125  37.896   2.339
80769W        W53095  42.682   8.848  14.905
80770W        W53096  10.408   5.017  10.556
80771W        W53097  31.885  17.869  12.605
80772W        W53098  16.927  43.095   4.127
80773W        W53099   4.458  16.603  12.348
80774W        W53100  32.653   1.321   3.184
80775W        W53101  44.256  18.112  13.053
80776W        W53102   4.499  40.962   1.589
80777W        W53103   8.247  14.885  11.058
80778W        W53104   3.365  23.236   4.527
80779W        W53105  41.285  18.627  11.254
80780W        W53106  13.064  20.643  13.345
80781W        W53107  14.788  43.054  11.587
80782W        W53108   2.310  42.864  10.438
80783W        W53109  43.233  22.013  11.116
80784W        W53110  37.014   7.429  14.450
80785W        W53111   3.099  41.410   4.523
80786W        W53112  38.827  32.049  13.159
80787W        W53113  13.157   5.708   1.772
80788W        W53114  22.121  41.779  13.490
80789W        W53115   7.792  32.251  14.450
80790W        W53116  30.753   7.851  10.946
80791W        W53117  20.779  30.189  11.495
80792W        W53118  41.519   6.608  11.656
80793W        W53119  42.042  34.592   2.388
80794W        W53120  18.803  27.134  11.272
80795W        W53121  18.682  39.365   4.201
80796W        W53122  18.538  15.282  14.702
80797W        W53123   5.633  40.745   3.619
80798W        W53124  26.737  29.640   0.438
80799W        W53125  35.189  19.563  14.202
80800W        W53126  35.770  13.051  14.994
80801W        W53127  23.996  33.356  10.269
80802W        W53128  33.973  42.464   1.458
80803W        W53129  28.546  33.102   0.023
80804W        W53130  27.119  25.540  14.050
80805W        W53131  23.473  12.200   3.718
80806W        W53132   2.186  40.015  14.273
80807W        W53133   8.605  34.760   2.742
80808W        W53134   9.817  44.451   3.347
80809W        W53135  11.155  26.130   0.989
80810W        W53136  10.390   4.600   0.558
80811W        W53137  18.008  34.833   1.020
80812W        W53138  20.072  17.768  13.427
80813W        W53139  17.117  33.537  10.580
80814W        W53140  42.447   9.316  14.882
80815W        W53141  41.964  11.890   3.168
80816W        W53142  25.093  40.582  10.714
80817W        W53143  23.568  37.153  13.385
80818W        W53144  35.620  11.574   1.941
80819W        W53145  18.573   2.754  13.408
80820W        W53146  28.315  20.311   0.103
80821W        W53147   1.887  32.693  11.937
80822W        W53148  14.507  27.235  12.879
80823W        W53149   2.228  40.306  12.583
80824W        W53150  17.305  21.323  11.626
80825W        W53151  20.342  13.620   1.157
80826W        W53152  15.799  42.336   2.786
80827W        W53153   7.316  30.777  11.993
80828W        W53154  27.989  28.639   3.792
80829W        W53155  29.825  16.646   2.414
80830W        W53156  40.472  35.656  13.857
80831W        W53157  17.610   8.361   2.481
80832W        W53158  14.309  23.759   1.701
80833W        W53159   5.490  34.506   0.807
80834W        W53160  37.670  21.510  11.224
80835W        W53161  27.442  44.498   0.368
80836W        W53162  14.197  12.223   3.682
80837W        W53163  18.106  14.659   1.621
80838W        W53164  37.032  41.507   2.363
80839W        W53165   5.160   8.854   0.438
80840W        W53166  39.972  26.902  11.024
80841W        W53167  26.473  33.975  11.172
80842W        W53168   2.824  22.304   3.677
80843W        W53169  29.222  31.091   1.899
80844W        W53170   2.309   5.159   2.225
80845W        W53171   6.960  35.393   0.686
80846W        W53172  13.854  40.881  14.050
80847W        W53173  37.429   8.905   3.340
80848W        W53174  27.455  44.592   1.254
80849W        W53175  24.718  19.545  12.955
80850W        W53176   9.290   5.332   3.762
80851W        W53177   3.763  31.036   0.503
80852W        W53178  33.885  11.768   1.239
80853W        W53179  34.494   6.496   0.363
80854W        W53180  44.069  18.229  11.715
80855W        W53181  11.875  28.996   1.889
80856W        W53182  27.626  33.411   3.380
80857W        W53183   8.883  44.526   4.177
80858W        W53184  33.561   4.930  10.788
80859W        W53185  41.268  41.561   0.435
80860W        W53186  44.471  34.446  13.508
80861W        W53187   5.123  35.883  13.326
80862W        W53188   6.216   7.951  13.259
80863W        W53189   3.441  12.803  14.335
80864W        W53190  41.995  39.920   2.771
80865W        W53191  23.761  41.500  10.731
80866W        W53192   4.982   5.261  13.694
80867W        W53193  36.483   2.206   2.320
80868W        W53194   1.917   3.243  11.109
80869W        W53195   7.622   3.250   4.140
80870W        W53196  16.158  15.563  12.927
80871W        W53197  33.830  34.357  13.712
80872W        W53198  28.846  43.958  13.383
80873W        W53199  37.967  12.105   1.738
80874W        W53200  20.540  39.107   0.886
80875W        W53201  14.330  12.931   4.154
80876W        W53202  41.878  40.748  14.453
80877W        W53203  27.754  27.581  11.935
80878W        W53204  30.568   1.265   0.787
80879W        W53205  25.477  30.501  11.527
80880W        W53206  26.299  21.478  13.592
80881W        W53207   4.525  31.522  10.467
80882W        W53208   3.368   2.033   2.796
80883W        W53209  31.917  44.745   1.184
80884W        W53210  27.671  20.018   2.217
80885W        W53211  22.197  44.056   1.653
80886W        W53212   3.087  21.485   3.270
80887W        W53213  44.455  19.097  14.521
80888W        W53214  11.142  12.866   4.875
80889W        W53215  19.621   1.265  10.572
80890W        W53216  15.423  30.090   4.987
80891W        W53217  24.670  27.914  12.950
80892W        W53218   8.932  12.817   3.127
80893W        W53219  15.783  25.549  14.293
80894W        W53220  19.952  36.115  11.204
80895W        W53221  24.750  36.567  13.612
80896W        W53222  14.042  11.187   0.916
80897W        W53223  35.834  12.629  14.251
80898W        W53224  12.716  19.852  12.846
80899W        W53225  43.796  33.006  12.541
80900W        W53226  27.191   8.811  12.316
80901W        W53227  11.097   4.210  11.113
80902W        W53228  39.874  22.243   0.425
80903W        W53229   6.331  27.971  11.860
80904W        W53230   4.750  42.850  13.477
80905W        W53231   8.523  15.576  12.966
80906W        W53232  25.646  30.020  11.416
80907W        W53233  17.690   2.920   3.345
80908W        W53234  31.415  33.819   3.546
80909W        W53235  44.482   2.044  11.069
80910W        W53236  33.007  38.882   1.357
80911W        W53237   9.277  38.516  13.330
80912W        W53238   6.239  23.643   1.378
80913W        W53239  14.618  15.657  10.188
80914W        W53240  24.832  10.837  11.682
80915W        W53241  31.030  17.960  13.462
80916W        W53242  18.678   7.780   4.108
80917W        W53243   3.743  33.919   1.314
80918W        W53244  33.490  35.885   5.558
80919W        W53245  21.451  24.043   4.828
80920W        W53246  22.435  12.593   0.314
80921W        W53247  33.128  17.559   4.442
80922W        W53248  25.024  14.668   1.425
80923W        W53249  27.979  25.095  12.625
80924W        W53250  19.096   6.599   2.739
80925W        W53251  44.316   5.171   0.884
80926W        W53252  39.405  17.794  11.215
80927W        W53253  29.279  13.820   3.702
80928W        W53254  21.122  25.589  10.869
80929W        W53255   1.216  25.019  11.950
80930W        W53256  27.120   9.919  14.997
80931W        W53257   6.218  14.232  12.437
80932W        W53258  30.504  29.045  10.531
80933W        W53259  23.652  17.020  11.682
80934W        W53260  10.687  34.610  13.465
80935W        W53261  27.111  34.204  14.953
80936W        W53262  15.820  29.650  13.955
80937W        W53263   6.419  29.292   0.600
80938W        W53264  39.802  41.026  13.490
80939W        W53265   8.279   4.140   2.826
80940W        W53266  24.569  40.796  10.831
80941W        W53267   4.180  20.097   0.724
80942W        W53268  42.847  10.625  12.798
80943W        W53269  39.772   0.724   0.568
80944W        W53270  17.408  28.915   2.641
80945W        W53271  15.645   0.330   4.326
80946W        W53272  34.810   4.868  10.292
80947W        W53273  15.964  37.294  10.068
80948W        W53274  38.247  19.157  11.743
80949W        W53275   4.782  26.910   4.983
80950W        W53276  11.113  29.548   4.514
80951W        W53277   2.701   7.351  10.568
80952W        W53278   1.178  23.676   4.941
80953W        W53279  25.151  20.056  14.945
80954W        W53280  28.926   9.219  13.848
80955W        W53281  40.114   2.720   0.669
80956W        W53282  25.565  39.319  14.467
80957W        W53283  38.370  18.947  12.193
80958W        W53284  37.774  33.142   2.450
80959W        W53285   8.418  33.622  14.408
80960W        W53286  32.008   6.943   3.238
80961W        W53287   0.358  42.850   2.858
80962W        W53288   2.003  26.176  14.832
80963W        W53289   9.247  35.104   0.921
80964W        W53290   6.725  44.725  14.991
80965W        W53291   8.132  11.904   3.278
80966W        W53292   6.364  44.110  10.282
80967W        W53293  36.722  35.089   5.323
80968W        W53294   4.944  13.261  12.948
80969W        W53295  13.913  28.506   4.152
80970W        W53296  43.271  25.653   0.029
80971W        W53297  39.673   4.138   1.795
80972W        W53298  44.861  44.783  12.463
80973W        W53299  43.550   9.379  11.976
80974W        W53300  24.741  12.857   0.933
80975W        W53301  18.497   8.126  14.288
80976W        W53302  11.971  32.476   1.666
80977W        W53303  13.361  11.186  12.423
80978W        W53304  11.606  35.300   1.775
80979W        W53305   8.360   2.656   0.144
80980W        W53306  19.949  21.607  12.882
80981W        W53307  41.391  32.921   1.274
80982W        W53308  31.539   8.738  14.114
80983W        W53309  43.296  34.939   3.014
80984W        W53310  16.620  41.372   4.644
80985W        W53311   3.494  39.797  13.855
80986W        W53312  41.769   0.886  14.500
80987W        W53313  11.213  31.372   3.485
80988W        W53314  19.302  34.361   1.317
80989W        W53315  16.574  29.812   2.313
80990W        W53316  27.624   7.644   1.832
80991W        W53317  22.087  32.404   3.714
80992W        W53318   3.136   0.174  12.015
80993W        W53319   5.518  26.692   1.869
80994W        W53320  33.597  27.506  10.793
80995W        W53321  11.159  43.356   0.718
80996W        W53322  33.027  16.502   3.734
80997W        W53323  41.858  31.230  12.528
80998W        W53324  33.350  36.960   1.975
80999W        W53325   2.014  18.244   4.278
81000W        W53326  31.200   5.443   3.339
81001W        W53327  12.358  43.379  14.028
81002W        W53328  12.007   9.151   1.282
81003W        W53329  16.672  33.436  13.800
81004W        W53330   7.188  18.072  13.466
81005W        W53331  20.265  33.836  12.542
81006W        W53332  16.784   5.750   1.721
81007W        W53333  25.272  34.441  14.921
81008W        W53334  37.248  18.890   0.215
81009W        W53335  31.773   7.713  10.364
81010W        W53336  35.987  32.729   9.796
81011W        W53337  15.666  21.767   3.496
81012W        W53338  24.966  10.226   4.249
81013W        W53339  17.525  31.803   2.165
81014W        W53340  12.092  40.068  14.660
81015W        W53341  11.069  15.798   0.703
81016W        W53342  28.870  41.486  12.883
81017W        W53343   1.932  44.481  14.049
81018W        W53344  29.614  30.980  14.617
81019W        W53345   1.753   0.395   3.031
81020W        W53346  44.870  32.781   4.434
81021W        W53347  15.568  37.801  12.377
81022W        W53348  41.677  15.091   1.178
81023W        W53349  39.080   1.275   2.312
81024W        W53350  40.149  42.667   2.126
81025W        W53351  12.711  30.145   1.201
81026W        W53352   3.182  40.225   4.842
81027W        W53353  41.982  42.848  13.176
81028W        W53354  30.604   8.333   0.466
81029W        W53355  17.249   3.689  12.041
81030W        W53356  31.818   1.941  10.631
81031W        W53357   4.571  33.568  14.460
81032W        W53358  39.920  38.286   1.414
81033W        W53359  14.613  30.898   1.007
81034W        W53360  20.366  21.274  12.623
81035W        W53361   0.392  26.731  14.915
81036W        W53362  18.656  39.782   3.853
81037W        W53363  11.422  39.915  10.841
81038W        W53364  20.097  23.516  14.739
81039W        W53365  10.075  32.101   2.442
81040W        W53366   1.997  26.829   4.470
81041W        W53367  17.009  26.310   1.469
81042W        W53368  26.122  13.697   4.514
81043W        W53369  16.394  18.745   0.486
81044W        W53370  17.771  24.748   0.461
81045W        W53371  26.217  12.864   4.915
81046W        W53372  25.955   8.260  13.023
81047W        W53373  40.255  36.002  12.819
81048W        W53374  39.031  31.204   4.126
81049W        W53375   2.046   6.131  11.131
81050W        W53376  15.530  26.176  10.662
81051W        W53377  40.304  24.058   4.824
81052W        W53378   2.989   4.611   0.770
81053W        W53379  22.554  24.640  14.351
81054W        W53380   5.171   0.801  14.448
81055W        W53381   9.500  29.709   2.744
81056W        W53382   6.904  19.181   4.087
81057W        W53383  28.557  24.746   4.412
81058W        W53384  13.656   7.266  12.318
81059W        W53385  17.281   3.730  10.557
81060W        W53386  10.763  26.902  11.906
81061W        W53387   8.344  44.717  10.630
81062W        W53388  20.056  41.494   1.740
81063W        W53389  22.784  39.841  10.054
81064W        W53390  41.779  39.845   0.371
81065W        W53391  18.685  14.021  12.616
81066W        W53392  16.169  30.618   4.913
81067W        W53393  41.760   1.415   2.231
81068W        W53394   2.708  14.042  14.949
81069W        W53395   1.438  32.326  14.207
81070W        W53396  21.232  24.085  12.010
81071W        W53397   7.971   6.933   3.822
81072W        W53398  11.267  41.226   4.303
81073W        W53399  16.330  12.942  13.899
81074W        W53400  10.769   8.691   5.112
81075W        W53401  19.533   7.680  14.984
81076W        W53402  10.919  34.147   4.263
81077W        W53403  22.196  20.920  12.924
81078W        W53404   9.313  37.493  13.375
81079W        W53405   5.235   4.870   4.288
81080W        W53406  22.946  19.157   1.334
81081W        W53407  33.541  31.702   4.616
81082W        W53408   5.887  23.894   2.750
81083W        W53409  10.666  36.379   0.530
81084W        W53410  20.258   0.009  11.608
81085W        W53411   5.130  16.154  12.083
81086W        W53412   0.535   7.266  12.656
81087W        W53413  42.015   6.958   2.779
81088W        W53414  41.497  37.567   2.371
81089W        W53415   2.922   7.786  14.208
81090W        W53416  35.456   8.941   4.170
81091W        W53417  39.405  14.024   1.965
81092W        W53418  16.005  37.252  12.950
81093W        W53419  24.232   8.416  12.570
81094W        W53420  33.016   9.089   1.261
81095W        W53421  36.396  23.703  13.483
81096W        W53422  22.204  35.758   1.705
81097W        W53423   0.106  35.104   0.342
81098W        W53424   6.176  33.200  11.550
81099W        W53425   4.361  37.637   2.814
81100W        W53426  36.425  41.091  12.850
81101W        W53427  40.786  33.430   3.351
81102W        W53428  42.827  38.857  14.872
81103W        W53429  16.704  36.143   4.311
81104W        W53430  38.904   6.336   3.104
81105W        W53431  44.340  34.057   0.906
81106W        W53432  12.435  12.714  11.788
81107W        W53433  42.062  39.526  10.800
81108W        W53434  19.119  16.623   0.520
81109W        W53435   7.097  43.354  12.114
81110W        W53436  24.696  40.739   3.236
81111W        W53437   7.767   0.407   4.684
81112W        W53438   9.782  44.683   0.204
81113W        W53439  42.255   3.951   0.379
81114W        W53440  33.459  33.939  11.433
81115W        W53441   4.456  15.614  12.700
81116W        W53442  10.359   5.436   4.092
81117W        W53443  19.705  25.194   3.705
81118W        W53444  35.611  21.547   4.707
81119W        W53445  19.539  43.087   2.653
81120W        W53446  40.383  19.586  11.938
81121W        W53447  28.909  25.234  10.464
81122W        W53448   1.701  11.813   3.851
81123W        W53449  42.304  42.212  13.926
81124W        W53450  15.137  33.400   4.072
81125W        W53451   3.702  44.345  11.108
81126W        W53452  15.809   0.004  13.437
81127W        W53453  39.090  38.033  10.527
81128W        W53454  13.545   6.317  11.157
81129W        W53455  11.685  39.413   9.991
81130W        W53456  23.467  25.044  10.718
81131W        W53457  12.473   5.959  12.934
81132W        W53458  26.121  18.550   3.247
81133W        W53459  32.694  36.190  10.651
81134W        W53460  10.718   6.771   2.436
81135W        W53461  40.605  38.375   3.677
81136W        W53462  21.561  14.157   3.266
81137W        W53463  31.008   4.767   4.884
81138W        W53464  20.046  15.822  11.069
81139W        W53465  37.469  13.213   3.276
81140W        W53466  16.759  32.357   2.124
81141W        W53467  16.492  21.803  12.482
81142W        W53468  32.940   1.845  13.025
81143W        W53469  17.758  16.285   0.383
81144W        W53470   8.495   7.865   5.025
81145W        W53471  14.571  38.468   1.859
81146W        W53472  42.982  26.454   4.543
81147W        W53473   4.151   1.723   3.239
81148W        W53474  42.734   3.820   1.951
81149W        W53475   8.629  15.669   4.506
81150W        W53476  17.942  36.667  14.552
81151W        W53477   1.759  41.193  13.096
81152W        W53478  19.874  11.824   3.109
81153W        W53479  15.242  33.489   2.653
81154W        W53480   8.695  15.086   2.424
81155W        W53481  24.059  17.926   5.663
81156W        W53482  20.735  30.390   0.950
81157W        W53483  16.819  19.502  11.143
81158W        W53484  34.818  44.501  14.913
81159W        W53485  25.172   2.964   4.766
81160W        W53486  44.323  36.885   4.357
81161W        W53487  16.887  37.860   1.865
81162W        W53488  13.800  22.536   3.680
81163W        W53489   0.864  28.311   3.714
81164W        W53490  40.478  29.969  10.614
81165W        W53491  42.975  14.650  11.059
81166W        W53492  30.440  18.631   5.012
81167W        W53493  15.155  10.792  13.770
81168W        W53494  18.070  32.346   3.238
81169W        W53495  21.041  15.789   4.563
81170W        W53496  25.592  35.998  12.154
81171W        W53497   6.661  37.276  12.081
81172W        W53498  37.001  24.091   0.889
81173W        W53499  34.692  32.981   0.157
81174W        W53500  12.741  44.979  13.308
81175W        W53501  42.885  43.419  11.668
81176W        W53502  33.019  14.435  12.208
81177W        W53503  28.669  31.547  13.660
81178W        W53504  11.078   8.880  14.962
81179W        W53505  31.306  24.380  13.575
81180W        W53506   1.899  20.767   1.668
81181W        W53507  29.452  11.553  13.908
81182W        W53508   9.995  37.813  12.564
81183W        W53509  33.147  37.093   4.648
81184W        W53510   4.141  11.261  11.575
81185W        W53511  24.694  42.447  12.338
81186W        W53512  44.487  20.804   4.136
81187W        W53513  32.461   7.793  11.409
81188W        W53514  19.274  36.085  14.727
81189W        W53515  18.788   6.097  13.420
81190W        W53516   4.667  40.809  12.143
81191W        W53517  16.785  25.264  12.568
81192W        W53518  24.159  27.387  14.851
81193W        W53519  38.046  34.005  13.453
81194W        W53520  12.270   9.803   2.997
81195W        W53521  32.962   0.591  10.587
81196W        W53522  20.477   4.238   3.302
81197W        W53523   2.570  36.092   4.506
81198W        W53524  23.107  18.353   4.789
81199W        W53525  43.997  42.406   0.756
81200W        W53526  29.565  39.967   2.236
81201W        W53527  38.955   3.681   2.195
81202W        W53528  29.934  15.701   2.939
81203W        W53529  26.934  32.464   4.352
81204W        W53530  11.297   8.844  11.958
81205W        W53531  14.883  19.408   5.151
81206W        W53532   8.462  28.517  12.307
81207W        W53533  31.387  41.855  11.202
81208W        W53534  27.745  35.617  10.491
81209W        W53535  41.368  17.638  14.047
81210W        W53536   8.739  40.018   1.431
81211W        W53537  12.642  17.787   0.983
81212W        W53538  35.914  21.004   3.604
81213W        W53539  10.766  35.118   3.491
81214W        W53540  28.105  41.350  13.829
81215W        W53541  15.901   7.426  12.957
81216W        W53542  25.302   3.849   4.943
81217W        W53543  10.891  41.084   1.002
81218W        W53544  29.427  30.506  14.802
81219W        W53545  31.637   7.263  12.516
81220W        W53546   2.291  23.439  11.413
81221W        W53547   4.800  15.281  14.987
81222W        W53548  18.714  42.813  11.166
81223W        W53549  29.726  32.560   3.157
81224W        W53550  40.935   2.711  13.747
81225W        W53551  21.765  21.847  11.609
81226W        W53552   2.784  27.236   4.069
81227W        W53553  28.515  38.566   4.325
81228W        W53554  31.963  30.670  11.863
81229W        W53555  10.849  23.759  12.420
81230W        W53556  17.150  37.439  11.597
81231W        W53557   2.486   6.211   4.627
81232W        W53558  42.074   0.027  13.070
81233W        W53559  11.615   6.698  10.708
81234W        W53560   4.551   6.408  11.123
81235W        W53561  34.827  34.600   3.290
81236W        W53562  34.004  34.568   4.559
81237W        W53563  30.197  41.812  12.055
81238W        W53564  32.140   5.786   1.238
81239W        W53565  23.611  36.403  12.335
81240W        W53566  37.865  42.288  10.982
81241W        W53567  26.835   7.386   1.755
81242W        W53568   5.919   5.243  13.282
81243W        W53569  23.985  32.965  14.863
81244W        W53570   6.477  21.074  12.354
81245W        W53571  25.879  17.774  12.934
81246W        W53572  35.511  17.541  13.599
81247W        W53573  29.780   9.911   2.327
81248W        W53574  33.099  17.830  14.645
81249W        W53575   1.298  24.177  12.415
81250W        W53576  34.597  33.585   2.544
81251W        W53577  13.697  40.008  13.298
81252W        W53578  32.546  21.227   1.662
81253W        W53579  12.614   3.623  10.460
81254W        W53580  35.306  22.809   0.781
81255W        W53581   4.241   1.254   1.085
81256W        W53582  41.736  14.257  11.310
81257W        W53583  34.299   8.286  10.729
81258W        W53584  25.466  24.594   0.526
81259W        W53585   8.324  41.228  14.300
81260W        W53586   4.130   2.542  13.392
81261W        W53587   8.877  21.629   3.694
81262W        W53588  44.948  24.152  12.596
81263W        W53589  31.146  29.850   1.871
81264W        W53590  19.095  11.379   1.406
81265W        W53591   4.284  43.134  14.091
81266W        W53592  22.457  32.557   1.665
81267W        W53593  22.369  28.122  11.964
81268W        W53594  11.909   5.989  13.045
81269W        W53595  36.293  41.343   2.823
81270W        W53596  43.913  20.725  13.087
81271W        W53597  32.912   1.668  11.286
81272W        W53598  34.475  24.717   0.307
81273W        W53599   2.512  26.570  14.557
81274W        W53600  17.550  32.417  13.581
81275W        W53601  28.306   4.893  12.632
81276W        W53602  26.181  10.766   4.587
81277W        W53603  42.729  40.526  11.985
81278W        W53604  23.334   8.768   5.031
81279W        W53605  22.175  10.385   3.269
81280W        W53606  31.138   9.914   3.570
81281W        W53607  33.545  38.440   4.251
81282W        W53608  37.606  39.314   4.654
81283W        W53609  41.069  13.139   0.814
81284W        W53610  37.293  41.948  12.198
81285W        W53611  37.465  19.234  11.072
81286W        W53612  33.309  43.761  12.006
81287W        W53613   2.370   7.812  10.743
81288W        W53614  31.672  34.386   4.165
81289W        W53615  10.915   4.490  12.484
81290W        W53616  31.619  23.733   2.826
81291W        W53617  14.088  23.787  12.540
81292W        W53618  33.827  10.292   4.660
81293W        W53619   8.920  35.547  14.646
81294W        W53620  27.150  42.689   1.838
81295W        W53621  38.498  30.534   0.265
81296W        W53622  40.949  15.607  10.625
81297W        W53623  28.457  30.630   0.302
81298W        W53624  36.377   8.596  12.502
81299W        W53625  14.319  41.996   3.158
81300W        W53626   6.679  22.590  11.944
81301W        W53627  38.907   6.549   4.265
81302W        W53628  41.015  39.590  14.955
81303W        W53629  19.225  37.356   1.436
81304W        W53630  19.523  27.620   0.840
81305W        W53631  22.743  12.775  11.665
81306W        W53632  43.993  41.578   3.717
81307W        W53633   1.502  23.447   2.211
81308W        W53634  11.109  36.353   4.700
81309W        W53635   7.552  14.413  13.943
81310W        W53636  36.036   1.968   0.705
81311W        W53637  37.109  17.941   1.243
81312W        W53638  36.834  26.985   4.752
81313W        W53639   9.913  35.774  13.892
81314W        W53640  32.630   1.073   0.708
81315W        W53641  15.079  27.369   0.388
81316W        W53642  36.574  40.124  13.071
81317W        W53643  20.463  31.218  13.995
81318W        W53644  42.278  22.140   4.172
81319W        W53645   0.112  31.409  12.938
81320W        W53646  34.022  35.052   0.107
81321W        W53647  31.990  11.886  13.002
81322W        W53648  16.253   0.749   3.614
81323W        W53649   5.959  12.724  14.337
81324W        W53650  12.495  36.901  10.814
81325W        W53651  10.172  43.343   0.298
81326W        W53652   7.249  22.347  12.970
81327W        W53653  20.478  12.314  10.676
81328W        W53654  29.547   9.101  11.650
81329W        W53655  31.997  17.827   0.341
81330W        W53656   8.173  16.736  12.941
81331W        W53657  10.877   6.434  13.330
81332W        W53658  43.746  28.106  13.510
81333W        W53659  15.716  24.629  14.633
81334W        W53660   0.936  27.790   3.692
81335W        W53661  41.729  29.650  11.079
81336W        W53662   3.928  16.326  11.640
81337W        W53663  35.996  29.453   4.087
81338W        W53664  41.482  26.474  14.000
81339W        W53665  13.077  20.736   0.759
81340W        W53666  17.192  22.550  13.430
81341W        W53667  38.954  39.502   1.844
81342W        W53668  18.849   1.026   0.611
81343W        W53669   5.454  25.079   0.414
81344W        W53670   8.610  11.385  12.109
81345W        W53671  26.108  29.359   1.814
81346W        W53672  32.075  25.468  13.899
81347W        W53673  10.846  39.939  13.982
81348W        W53674  12.834   5.332  14.493
81349W        W53675  14.061  18.621  14.784
81350W        W53676  24.498  17.753   4.975
81351W        W53677  28.170   5.124   0.322
81352W        W53678  11.716  39.998   3.843
81353W        W53679  20.454  30.821   0.824
81354W        W53680   8.954  44.017   3.609
81355W        W53681  40.651  20.478   0.393
81356W        W53682  33.917  42.203   1.904
81357W        W53683  31.889  19.096   4.577
81358W        W53684   8.367  19.937  11.604
81359W        W53685  28.869   4.454  12.107
81360W        W53686   2.439  22.154   0.755
81361W        W53687  27.265  12.077   4.145
81362W        W53688  26.330  20.175   3.135
81363W        W53689   7.452  11.046   2.027
81364W        W53690  31.966  30.122   2.096
81365W        W53691   5.393  10.326   3.995
81366W        W53692  43.256   0.233  13.932
81367W        W53693  25.777  10.835  11.466
81368W        W53694  14.174   1.635  10.782
81369W        W53695  15.756  34.039  13.029
81370W        W53696  15.598  38.738   2.751
81371W        W53697   2.952  21.069   0.013
81372W        W53698   6.956  28.393   1.036
81373W        W53699   9.380   7.663  14.764
81374W        W53700  20.527   0.946   4.214
81375W        W53701  33.083  12.574  14.385
81376W        W53702  40.761  36.897   0.273
81377W        W53703  30.724  18.609  14.531
81378W        W53704   3.282  38.228   2.427
81379W        W53705  37.498  32.520   0.856
81380W        W53706   5.689  39.957  11.627
81381W        W53707  40.914  35.480   3.953
81382W        W53708  24.771  14.542   2.867
81383W        W53709  11.741  20.938  10.798
81384W        W53710  33.948  38.454  11.931
81385W        W53711  27.520  15.624  13.891
81386W        W53712  10.558  14.134   3.742
81387W        W53713  12.401  14.160  13.399
81388W        W53714  25.703  21.716  12.803
81389W        W53715  40.241  30.751  14.798
81390W        W53716  12.224   9.206   4.298
81391W        W53717  41.318   3.734  14.530
81392W        W53718  13.265  27.525  13.979
81393W        W53719  41.923  18.164   4.880
81394W        W53720  12.748   1.829   3.735
81395W        W53721   1.443   6.999  12.429
81396W        W53722   0.044   3.195   3.394
81397W        W53723  42.356  29.401  13.830
81398W        W53724  22.182   9.187   0.496
81399W        W53725  20.128   2.197   4.508
81400W        W53726  37.559  35.544   3.555
81401W        W53727   6.948  30.587  14.887
81402W        W53728  22.831  41.364   0.344
81403W        W53729   4.688  30.400  14.817
81404W        W53730  31.144  32.579  14.463
81405W        W53731   6.819  29.946   3.135
81406W        W53732  10.276  36.045   4.908
81407W        W53733  21.570  20.283  10.413
81408W        W53734   4.916  30.972  10.638
81409W        W53735  17.333   0.245   2.306
81410W        W53736   8.412   3.448   5.035
81411W        W53737  25.130  22.651   2.938
81412W        W53738   7.672  41.806   2.313
81413W        W53739  28.131  24.501  11.857
81414W        W53740  19.762   4.134   0.734
81415W        W53741  36.847  40.291   3.727
81416W        W53742  24.529  32.120  10.714
81417W        W53743  42.249  38.523  13.980
81418W        W53744  41.739  29.400  13.522
81419W        W53745  24.386  11.797  13.792
81420W        W53746  13.658  38.472  13.778
81421W        W53747  27.986  16.266  10.715
81422W        W53748   6.298  26.946  13.476
81423W        W53749  33.963   8.703   2.198
81424W        W53750  40.780  39.366  13.134
81425W        W53751  40.474   3.755   1.669
81426W        W53752  33.947  16.621   4.683
81427W        W53753  13.202  27.116  14.845
81428W        W53754   0.837  12.117   3.749
81429W        W53755  12.300  24.438   9.782
81430W        W53756   9.462   7.276   0.749
81431W        W53757  37.054  36.272  11.021
81432W        W53758  10.785   5.228  13.972
81433W        W53759  43.303  12.334   0.989
81434W        W53760  28.906   9.923   0.435
81435W        W53761  37.910  39.558   2.056
81436W        W53762  38.571  42.058   1.391
81437W        W53763  26.776  30.056  14.370
81438W        W53764  43.018   9.347   1.455
81439W        W53765  20.462   6.276  11.637
81440W        W53766   6.659   6.530   4.074
81441W        W53767  20.147  16.685  10.376
81442W        W53768  30.879  33.415  10.574
81443W        W53769  24.157  38.441  12.353
81444W        W53770  37.052  39.586   1.826
81445W        W53771  35.418   9.849   0.918
81446W        W53772  16.403   4.741  11.557
81447W        W53773   5.709  22.012   4.731
81448W        W53774  25.465  26.557   4.014
81449W        W53775  11.549  11.722  14.190
81450W        W53776   7.442  43.244  14.958
81451W        W53777   6.537  35.956  10.578
81452W        W53778  18.881   0.921  11.922
81453W        W53779  40.829  30.140  14.730
81454W        W53780  11.251  34.520  11.066
81455W        W53781  31.312  17.377  11.628
81456W        W53782  37.926  28.240  11.655
81457W        W53783  35.433  27.003  14.337
81458W        W53784   1.228  14.008   0.709
81459W        W53785  33.653  25.529   1.701
81460W        W53786  14.263  18.136  14.024
81461W        W53787  24.434  14.562   4.119
81462W        W53788  33.207  23.214   0.775
81463W        W53789   6.861  27.078  11.927
81464W        W53790   6.186  12.830  11.100
81465W        W53791  17.742  22.634   0.271
81466W        W53792  11.610  12.579   0.785
81467W        W53793   8.092  26.464   1.774
81468W        W53794  30.917  38.338   0.348
81469W        W53795   2.779  41.324   4.124
81470W        W53796  17.247  11.347  14.564
81471W        W53797  14.601  44.377  12.331
81472W        W53798   1.542  40.925   0.015
81473W        W53799  27.133   8.379   1.617
81474W        W53800  14.224  43.696   4.166
81475W        W53801   6.146  37.564   2.948
81476W        W53802  25.076  25.132  10.788
81477W        W53803  25.228  41.347  13.943
81478W        W53804  17.403   0.983   1.756
81479W        W53805  22.704   5.142   2.691
81480W        W53806  25.154  40.830   4.845
81481W        W53807   8.428   9.571  12.018
81482W        W53808  27.003  14.032  12.837
81483W        W53809  38.422  12.735   5.226
81484W        W53810  37.885  27.568  12.932
81485W        W53811  15.796  22.124  11.523
81486W        W53812   4.454   4.233  11.744
81487W        W53813  17.199  36.923   1.311
81488W        W53814  17.863  15.185   2.824
81489W        W53815  39.574  43.399  10.620
81490W        W53816  25.099  30.881   4.045
81491W        W53817   4.616  14.237   4.527
81492W        W53818  20.655   6.699  12.367
81493W        W53819  13.143  14.743  14.373
81494W        W53820  15.738  12.346  12.057
81495W        W53821  32.939  16.709   3.279
81496W        W53822  35.607  37.563  13.541
81497W        W53823  34.299   7.771   4.762
81498W        W53824  28.957  37.011   0.467
81499W        W53825  44.367  17.336  11.926
81500W        W53826  28.222   0.350   2.763
81501W        W53827   3.830  30.511   0.768
81502W        W53828  10.162   9.903  13.476
81503W        W53829  17.770  34.907   4.669
81504W        W53830  30.655  36.316  13.379
81505W        W53831  28.065  42.856   1.779
81506W        W53832  44.992   8.365  14.769
81507W        W53833  20.825  36.376  13.929
81508W        W53834  31.463  21.689  14.085
81509W        W53835  37.407  35.653   0.944
81510W        W53836  28.133  14.352  12.295
81511W        W53837  29.059  24.199  14.756
81512W        W53838  28.200  24.605   1.007
81513W        W53839   4.427  40.126   1.253
81514W        W53840   1.836   7.649   1.898
81515W        W53841  12.001  39.977  13.088
81516W        W53842  44.018  41.762  13.767
81517W        W53843  18.770   4.575  12.659
81518W        W53844  34.768  39.063   2.294
81519W        W53845  14.720  26.371   9.531
81520W        W53846  20.649  32.523   4.585
81521W        W53847   5.386  16.589  11.893
81522W        W53848  42.644   7.815   4.160
81523W        W53849  29.554  22.548  11.754
81524W        W53850  33.995   4.670  10.652
81525W        W53851  15.192   4.970   3.240
81526W        W53852  28.218  22.983  11.192
81527W        W53853   4.393  23.759   1.497
81528W        W53854  21.371  32.901   2.938
81529W        W53855  12.511  38.314  14.353
81530W        W53856  43.083   6.464   4.143
81531W        W53857   9.228  35.776   3.151
81532W        W53858  44.337  26.576  11.689
81533W        W53859   7.755  12.468  12.504
81534W        W53860  20.275  34.215   3.417
81535W        W53861  44.082   0.253   0.703
81536W        W53862  44.805  12.742   4.726
81537W        W53863  15.516  25.167   9.886
81538W        W53864  39.425   7.269  14.039
81539W        W53865  14.276  22.775  12.603
81540W        W53866  31.781  25.575   5.059
81541W        W53867  17.244   2.278  13.793
81542W        W53868  41.707  24.220  11.159
81543W        W53869  21.272   6.241   0.216
81544W        W53870  40.335  35.295   1.213
81545W        W53871  25.548   9.379   3.151
81546W        W53872   0.697  36.674   0.846
81547W        W53873  19.632  21.055   0.712
81548W        W53874  22.797  43.807  13.320
81549W        W53875   4.718  17.072  13.854
81550W        W53876   0.907  14.559  14.903
81551W        W53877  43.826  26.423  14.787
81552W        W53878  10.804  30.430  11.513
81553W        W53879   6.223  35.491  14.877
81554W        W53880  30.537  35.036   2.375
81555W        W53881  35.030  41.143  11.643
81556W        W53882   2.801  34.289   4.208
81557W        W53883   4.813   4.154   3.784
81558W        W53884   2.314  33.640  14.385
81559W        W53885  23.015   0.787  12.944
81560W        W53886  31.736  26.139  14.005
81561W        W53887  42.059  33.170  12.034
81562W        W53888  18.322  14.746  13.071
81563W        W53889   9.260  43.272  14.355
81564W        W53890  26.518  36.221   4.847
81565W        W53891  11.766  39.960  11.210
81566W        W53892  31.423  30.938  14.337
81567W        W53893  18.040   8.863   0.236
81568W        W53894  43.715  26.049   2.329
81569W        W53895  30.690  22.128   3.755
81570W        W53896   2.139   4.673   1.817
81571W        W53897  23.573   1.001  12.000
81572W        W53898  35.893  17.964  11.691
81573W        W53899  29.029  15.727  10.144
81574W        W53900   1.318  30.506   0.561
81575W        W53901  38.538   3.855   1.473
81576W        W53902   1.864  39.669  11.146
81577W        W53903   2.136  33.330   1.683
81578W        W53904   9.445  38.609   3.578
81579W        W53905  15.562   1.350  11.512
81580W        W53906  15.465  20.042  10.908
81581W        W53907  19.178  26.641  10.766
81582W        W53908   2.290   9.693   2.187
81583W        W53909  15.080  42.213   0.415
81584W        W53910  18.149  39.217  11.587
81585W        W53911  39.930   1.191   1.414
81586W        W53912  30.935  23.791  12.483
81587W        W53913   5.038  23.075  11.445
81588W        W53914   1.689   1.126  11.484
81589W        W53915  29.052  32.101  13.006
81590W        W53916  12.622   2.024  10.800
81591W        W53917  33.592  16.430  11.481
81592W        W53918  37.521  17.098  11.787
81593W        W53919  29.496  30.184   0.379
81594W        W53920  32.189  36.293   1.282
81595W        W53921  32.307  32.426   0.523
81596W        W53922  37.217   4.880   4.558
81597W        W53923   6.190  32.538  11.294
81598W        W53924  16.489  40.145   1.858
81599W        W53925   7.470  17.706  12.960
81600W        W53926  11.630  40.513   3.382
81601W        W53927  11.308  37.476   4.105
81602W        W53928  31.713   6.827  10.733
81603W        W53929  32.570  43.743  12.478
81604W        W53930  15.623  37.006   3.111
81605W        W53931  41.023  21.749  12.479
81606W        W53932  29.423   5.606  12.400
81607W        W53933  11.610  30.765  14.335
81608W        W53934  15.127   0.666   0.413
81609W        W53935  32.093  13.875  13.782
81610W        W53936  29.336  21.303   4.151
81611W        W53937  14.482  18.254   1.476
81612W        W53938  26.945  14.720   0.290
81613W        W53939  22.827  23.554  10.787
81614W        W53940  12.602   1.266  13.735
81615W        W53941  42.735  39.051   4.988
81616W        W53942  31.716  36.069   1.258
81617W        W53943   8.788  44.845   3.544
81618W        W53944   9.041  28.984  11.637
81619W        W53945  33.358  35.835   3.313
81620W        W53946  18.793   7.483   3.118
81621W        W53947  41.522   0.597  11.950
81622W        W53948  31.883  33.385   2.659
81623W        W53949  16.718  38.772  13.497
81624W        W53950   6.509  32.546   1.269
81625W        W53951  35.629  24.747   1.615
81626W        W53952  14.811  28.145  13.269
81627W        W53953  15.741  13.288  13.035
81628W        W53954   1.209  34.987  10.729
81629W        W53955  28.034  37.949  10.456
81630W        W53956   0.481  33.534  10.880
81631W        W53957  11.344  26.507  14.744
81632W        W53958  25.436  14.849   9.465
81633W        W53959  30.150   7.231   1.695
81634W        W53960  38.493  43.851  13.183
81635W        W53961  30.940  11.291  11.997
81636W        W53962   2.875  39.098   1.267
81637W        W53963  12.918  36.561   5.026
81638W        W53964  36.469   8.436  13.006
81639W        W53965  42.732  20.059   4.534
81640W        W53966  31.053   5.415  13.738
81641W        W53967   1.918  31.722  11.846
81642W        W53968   7.883  29.553  12.002
81643W        W53969  43.909  19.855   1.798
81644W        W53970  33.049   7.196   0.296
81645W        W53971  40.354   0.309   4.169
81646W        W53972  29.028  15.076   0.751
81647W        W53973  39.068  18.140   3.066
81648W        W53974  44.753  39.882  14.899
81649W        W53975   0.447   3.169  12.828
81650W        W53976  36.943  44.661   1.625
81651W        W53977  37.106  15.801   3.837
81652W        W53978  43.529  37.563   5.075
81653W        W53979  23.729  38.444   3.746
81654W        W53980  41.464  17.270  10.765
81655W        W53981  29.459  33.424   2.637
81656W        W53982  20.010  39.134   1.824
81657W        W53983  18.117   1.866   4.296
81658W        W53984  25.722   4.139   2.192
81659W        W53985   0.505   4.757   4.079
81660W        W53986  23.559   2.499   3.104
81661W        W53987  23.954  25.614   3.365
81662W        W53988   1.674   0.072   3.845
81663W        W53989   1.991  40.498  11.409
81664W        W53990  11.137  26.060   9.774
81665W        W53991  36.828  29.946   2.246
81666W        W53992   9.706  18.481   0.825
81667W        W53993  37.070   8.759  11.139
81668W        W53994  20.047  30.546  13.455
81669W        W53995  22.722  15.111   4.405
81670W        W53996  21.854  30.432  11.746
81671W        W53997  39.018  17.871   4.860
81672W        W53998  32.824  18.148  12.333
81673W        W53999  12.117   8.715  12.856
81674W        W54000  36.582  14.670   3.865
81675W        W54001  24.214  17.347   0.312
81676W        W54002  26.787  25.847  12.523
81677W        W54003  31.838   0.508  11.505
81678W        W54004  29.495   2.896  11.202
81679W        W54005  21.105   7.822  13.974
81680W        W54006  33.081  18.400   0.470
81681W        W54007  11.167  19.336   4.197
81682W        W54008  15.445  22.067  13.363
81683W        W54009  34.856  20.701   3.712
81684W        W54010   4.034  27.097  13.323
81685W        W54011  15.733  11.562  13.152
81686W        W54012  22.336  41.271  10.168
81687W        W54013  32.595  18.384   1.335
81688W        W54014  25.469  15.653   5.557
81689W        W54015  27.471  11.800  11.476
81690W        W54016  36.031   3.275   2.692
81691W        W54017  41.800  32.429   2.795
81692W        W54018  19.859  21.191  12.590
81693W        W54019  39.524  11.197  10.535
81694W        W54020  27.093   7.448  11.948
81695W        W54021   9.787  33.901   4.603
81696W        W54022  35.832   1.352  10.900
81697W        W54023  19.895  22.506   1.860
81698W        W54024  37.279   5.109  10.442
81699W        W54025  33.137  35.095   0.519
81700W        W54026  32.845  25.185  11.588
81701W        W54027  15.884  12.102   2.369
81702W        W54028   8.838  41.084   4.379
81703W        W54029  34.648  41.940   2.347
81704W        W54030  36.426  17.681  14.816
81705W        W54031   0.067  10.885  14.025
81706W        W54032  25.104   8.608  10.940
81707W        W54033  39.304  38.658  13.979
81708W        W54034  37.135  43.030  13.836
81709W        W54035  16.649  20.445  14.123
81710W        W54036  33.535  38.326  11.667
81711W        W54037  35.027   9.239  11.239
81712W        W54038  33.818  23.883  10.935
81713W        W54039  38.952  13.511   2.752
81714W        W54040  35.385  23.764   3.860
81715W        W54041  21.214   0.308  11.394
81716W        W54042  25.736   3.995  13.153
81717W        W54043  15.987  13.692  11.998
81718W        W54044  26.520  11.719  11.520
81719W        W54045  34.038   8.751  10.560
81720W        W54046  26.431  33.049  14.721
81721W        W54047  31.804  20.112   4.616
81722W        W54048   4.283  36.686   4.921
81723W        W54049  26.964  18.620   1.662
81724W        W54050  30.854  19.554  14.805
81725W        W54051  23.823  40.393   2.982
81726W        W54052  19.154  25.604  14.694
81727W        W54053  12.805   1.522  10.768
81728W        W54054   2.745  19.291  12.469
81729W        W54055  38.026  20.675   3.640
81730W        W54056   5.254   3.905   4.885
81731W        W54057  17.630  37.537   2.980
81732W        W54058  29.396  38.131  14.739
81733W        W54059  44.335  11.603   1.826
81734W        W54060  42.173  22.098   2.763
81735W        W54061   3.771   6.729  12.989
81736W        W54062   3.700  40.003   2.757
81737W        W54063  31.834   1.484   2.766
81738W        W54064  11.984   0.941  11.669
81739W        W54065  15.678   7.750   0.563
81740W        W54066  17.418  29.984  11.483
81741W        W54067  27.200  44.447   0.823
81742W        W54068   6.709  28.250  11.135
81743W        W54069  30.682  35.334   1.939
81744W        W54070  14.283  33.341  13.601
81745W        W54071  30.682  25.751   1.451
81746W        W54072  18.327  14.355  12.104
81747W        W54073   3.343  22.556   0.430
81748W        W54074  30.385  38.980   2.767
81749W        W54075  12.733  29.011  12.431
81750W        W54076  22.484   3.359   0.701
81751W        W54077  31.685   2.765  13.170
81752W        W54078   7.378  13.271  14.956
81753W        W54079  41.406  10.646   2.258
81754W        W54080   3.056  21.460   4.612
81755W        W54081   5.135  11.655   1.662
81756W        W54082  39.594  19.823   2.650
81757W        W54083  23.165  10.108   0.673
81758W        W54084  16.221  27.928   0.750
81759W        W54085  32.351   5.311   2.707
81760W        W54086   6.111  14.915   0.648
81761W        W54087  44.713  20.217  13.058
81762W        W54088  24.736  42.585  14.196
81763W        W54089  21.132  38.987  12.786
81764W        W54090  27.073  20.649   2.965
81765W        W54091   4.043   9.475   3.837
81766W        W54092  36.428  16.474   1.867
81767W        W54093  41.493  20.214  12.976
81768W        W54094  41.108  24.530   2.295
81769W        W54095  10.898  15.428  14.052
81770W        W54096   3.820   4.507   1.273
81771W        W54097   6.640  38.537  13.697
81772W        W54098  30.481  41.677  10.603
81773W        W54099  35.510  42.724   1.688
81774W        W54100  31.210  28.517  10.760
81775W        W54101  41.232   7.484   2.647
81776W        W54102  27.487   7.676  14.553
81777W        W54103  31.079  30.934   1.965
81778W        W54104   0.433  16.289  14.942
81779W        W54105  27.950  27.486  11.157
81780W        W54106   9.281  40.575  13.581
81781W        W54107   9.920  17.788   2.426
81782W        W54108  16.042  13.625   2.147
81783W        W54109   5.644   9.277  13.519
81784W        W54110  20.696  13.662   4.905
81785W        W54111   5.951  11.796  14.776
81786W        W54112  22.638  11.581  11.972
81787W        W54113  34.057  44.381   2.438
81788W        W54114  22.010  21.008  13.995
81789W        W54115   3.982  25.412  13.091
81790W        W54116  30.840  44.311  14.528
81791W        W54117   5.003  41.033   4.142
81792W        W54118  10.841  39.893   3.167
81793W        W54119  30.687  43.784   4.098
81794W        W54120  43.744  14.323   4.739
81795W        W54121  43.886  36.372   1.191
81796W        W54122  21.771  39.607  12.952
81797W        W54123  33.294   4.429  13.396
81798W        W54124   8.295  14.084  13.968
81799W        W54125   5.620  34.124  13.102
81800W        W54126  36.550   0.774   4.071
81801W        W54127  26.869  38.402  10.185
81802W        W54128   8.782  19.971  12.930
81803W        W54129  15.620   7.872  11.705
81804W        W54130  11.927  39.974  14.138
81805W        W54131   2.234  14.672  12.922
81806W        W54132  13.856   0.932  12.173
81807W        W54133  29.578  36.576  14.403
81808W        W54134  26.903  36.853  10.549
81809W        W54135  37.943  21.969  14.061
81810W        W54136  41.848  13.613  12.491
81811W        W54137  30.014  14.711  13.071
81812W        W54138  20.314  37.408  11.999
81813W        W54139  19.726  36.029  14.486
81814W        W54140  21.721  15.201   3.512
81815W        W54141  10.318  41.821   1.446
81816W        W54142  19.538  39.805  14.486
81817W        W54143  44.483   1.110   0.353
81818W        W54144  22.711  25.219  11.739
81819W        W54145  26.844  27.421  10.277
81820W        W54146  25.450  17.296  11.470
81821W        W54147  41.674  34.521   3.667
81822W        W54148  31.038  11.361   3.977
81823W        W54149  20.265  37.049   0.705
81824W        W54150   5.935  42.325  13.035
81825W        W54151  12.641  16.201   0.504
81826W        W54152  21.203  33.461  13.891
81827W        W54153  33.099  37.918  11.110
81828W        W54154  37.533  34.052  13.191
81829W        W54155  34.646  41.152  14.100
81830W        W54156  27.085  15.348   2.711
81831W        W54157   9.873   3.980  10.446
81832W        W54158  38.536   0.298  12.299
81833W        W54159  17.073  15.829   1.368
81834W        W54160   2.260  20.071  10.914
81835W        W54161   5.088  34.628  11.453
81836W        W54162  23.440  15.312   5.504
81837W        W54163  18.692  19.703  13.893
81838W        W54164   6.266  22.110  11.468
81839W        W54165  26.452  27.098  13.542
81840W        W54166   7.247  24.711  14.603
81841W        W54167  15.161  16.751   2.860
81842W        W54168  43.839  27.569   2.398
81843W        W54169   5.386  41.996  10.684
81844W        W54170  32.608  27.713  13.074
81845W        W54171  38.264  37.610   1.687
81846W        W54172  10.639  25.252  12.548
81847W        W54173  14.880  41.345  14.387
81848W        W54174  39.824  14.496  13.821
81849W        W54175  32.560   6.813  13.970
81850W        W54176  13.192  13.667  14.010
81851W        W54177   2.793  13.251   1.191
81852W        W54178   6.216  41.224  11.159
81853W        W54179  26.009   8.794   1.579
81854W        W54180  21.526  23.060  12.476
81855W        W54181  18.218  16.630   3.229
81856W        W54182   6.997  12.855   2.639
81857W        W54183  30.652  34.106   1.095
81858W        W54184  19.978  12.565  14.924
81859W        W54185  21.799  44.384   2.241
81860W        W54186  33.782  29.620  13.866
81861W        W54187  38.294  25.199  12.540
81862W        W54188  17.078   0.948  10.664
81863W        W54189  23.226   0.821  10.722
81864W        W54190  20.625  42.967  10.805
81865W        W54191  12.366  25.636   4.681
81866W        W54192  23.092  18.090  11.561
81867W        W54193  43.907  40.440   1.973
81868W        W54194  28.405  21.024   3.841
81869W        W54195  14.370  40.432   2.320
81870W        W54196  44.437  36.484  14.007
81871W        W54197  29.702  19.023  12.924
81872W        W54198  34.583   2.921   3.275
81873W        W54199  26.998  33.715  12.034
81874W        W54200  24.513  20.582  11.098
81875W        W54201   1.747  42.451  11.507
81876W        W54202  37.364  23.660   2.911
81877W        W54203  22.491  40.668   0.910
81878W        W54204  43.000  14.688   3.130
81879W        W54205  32.596  10.633   3.232
81880W        W54206   1.915  33.294   0.209
81881W        W54207  14.556   5.426   0.207
81882W        W54208  33.529  18.132  12.657
81883W        W54209  37.845  36.613   0.987
81884W        W54210  31.169  39.259  10.773
81885W        W54211   2.302   0.389   0.746
81886W        W54212   7.339   1.250   4.829
81887W        W54213  34.284  42.210   0.195
81888W        W54214   3.077   9.637   2.624
81889W        W54215  30.534  36.286  12.503
81890W        W54216  11.169  24.919   4.321
81891W        W54217  41.241   1.426   0.734
81892W        W54218   9.172   5.231   1.826
81893W        W54219  14.856  22.215   0.929
81894W        W54220  25.316  13.895  14.885
81895W        W54221  29.076  31.002  14.025
81896W        W54222  35.618  31.540  13.894
81897W        W54223  21.588  32.118   2.052
81898W        W54224  23.115  33.542   1.489
81899W        W54225   8.519  30.365   2.263
81900W        W54226  20.646  29.930  11.939
81901W        W54227   4.291  19.665   2.634
81902W        W54228   7.747  16.614  11.124
81903W        W54229   1.747  10.830   1.805
81904W        W54230  10.153   4.360  12.895
81905W        W54231  35.551  31.124  13.128
81906W        W54232  21.462   0.944  12.989
81907W        W54233  34.055  38.378  12.972
81908W        W54234  40.821  38.563  14.842
81909W        W54235   4.401  26.110  11.159
81910W        W54236  20.772  26.991  13.419
81911W        W54237   7.770  41.996  12.626
81912W        W54238  23.939  32.494  11.262
81913W        W54239  10.184   1.368  13.825
81914W        W54240  43.479  32.362   3.266
81915W        W54241  29.897   0.010   3.618
81916W        W54242  42.755  29.397  14.264
81917W        W54243  11.122   9.748   1.715
81918W        W54244   7.862  12.316   3.761
81919W        W54245   7.174   4.541  12.929
81920W        W54246  22.669   1.393   1.651
81921W        W54247   2.869  17.996  14.791
81922W        W54248  30.621  24.608   4.725
81923W        W54249  35.328  33.006   3.361
81924W        W54250  18.191  39.570   0.504
81925W        W54251   0.375  18.834  14.851
81926W        W54252  11.227  39.200  14.903
81927W        W54253  13.567  25.509   3.203
81928W        W54254  42.513   0.929   0.727
81929W        W54255  23.256  40.914  11.950
81930W        W54256  22.115   0.504   4.657
81931W        W54257  25.249  42.424   4.613
81932W        W54258  14.785  25.607  10.547
81933W        W54259  34.541  38.317  10.637
81934W        W54260  12.051   8.246  13.095
81935W        W54261  21.542  42.329   4.216
81936W        W54262   2.344  22.956   3.886
81937W        W54263  25.079   2.872  13.970
81938W        W54264  17.640  31.954  10.646
81939W        W54265   4.382  35.478   0.233
81940W        W54266  42.743  16.285  12.281
81941W        W54267  19.883  33.542   4.145
81942W        W54268   2.858  23.169  10.194
81943W        W54269  25.617   5.757   3.190
81944W        W54270   7.403  21.434  13.922
81945W        W54271  21.283  27.685   1.317
81946W        W54272  42.458  36.519   1.830
81947W        W54273  33.802  40.277   2.365
81948W        W54274  34.362  31.785   1.525
81949W        W54275   2.662  16.715  12.910
81950W        W54276  35.548  34.203  11.298
81951W        W54277  23.123  19.169  10.696
81952W        W54278  36.464  24.955  11.494
81953W        W54279  34.571  11.637  13.025
81954W        W54280  27.599  41.422   0.941
81955W        W54281  27.468  10.729   2.514
81956W        W54282  27.860   2.241   0.413
81957W        W54283  26.774  38.495   4.171
81958W        W54284  44.496  41.885  12.080
81959W        W54285   8.633  20.758   0.930
81960W        W54286  22.693  14.292  13.480
81961W        W54287  42.410  37.707  14.024
81962W        W54288   8.321  30.769  14.380
81963W        W54289   5.393  40.493  13.097
81964W        W54290   6.038  12.832  13.440
81965W        W54291   6.433  24.370   4.084
81966W        W54292  10.375  41.164   0.872
81967W        W54293  35.939   1.469   0.797
81968W        W54294  21.596  41.347   4.540
81969W        W54295  30.835  20.548   2.777
81970W        W54296  36.830  33.430   1.192
81971W        W54297  11.701   6.565  14.229
81972W        W54298   2.945   6.317  13.364
81973W        W54299  20.966  32.630   1.880
81974W        W54300  30.671  17.229   1.681
81975W        W54301  44.774  16.818   4.496
81976W        W54302  23.188  38.038  10.100
81977W        W54303  42.334  26.818  11.567
81978W        W54304  30.270  10.082   2.340
81979W        W54305   2.478   4.020  10.191
81980W        W54306  10.193  18.011   0.415
81981W        W54307  11.728  32.008   1.769
81982W        W54308  37.772   8.937  13.011
81983W        W54309  30.419   6.761   1.733
81984W        W54310  24.437  25.062  12.876
81985W        W54311  15.071  11.410  14.708
81986W        W54312  39.355   2.393   2.768
81987W        W54313  40.418   4.318   2.314
81988W        W54314  17.617   1.882   2.257
81989W        W54315  30.932  15.817  10.137
81990W        W54316  38.618   6.542   2.642
81991W        W54317  35.336  42.417  12.430
81992W        W54318   5.907  32.739  14.777
81993W        W54319   0.175  21.859  10.154
81994W        W54320  23.169  43.837   2.249
81995W        W54321  40.829  40.933   2.933
81996W        W54322  42.383  27.723  14.862
81997W        W54323  30.167  22.993  13.272
81998W        W54324   6.868  18.757   0.678
81999W        W54325  20.197   6.326   1.306
82000W        W54326   0.446  27.074   3.524
82001W        W54327  25.412  17.358  10.098
82002W        W54328  25.234  43.980  11.466
82003W        W54329  44.965  13.248  12.943
82004W        W54330  42.594  25.508  12.085
82005W        W54331  27.498  35.349  12.787
82006W        W54332  12.675  25.622  14.297
82007W        W54333   8.744   8.174  14.993
82008W        W54334  32.446  16.953   2.402
82009W        W54335   4.015  44.378   2.059
82010W        W54336   0.982   7.074   4.390
82011W        W54337  39.114  33.273   1.294
82012W        W54338  23.002  24.377  14.320
82013W        W54339  12.834   4.972  13.558
82014W        W54340  38.295  34.297   0.019
82015W        W54341  35.520  40.064  11.081
82016W        W54342  18.115  17.333   0.903
82017W        W54343  25.921  41.527  10.468
82018W        W54344   3.842  19.497  12.994
82019W        W54345  24.153  33.666  10.661
82020W        W54346  38.267  12.215   0.840
82021W        W54347   1.616   8.798   2.884
82022W        W54348  19.198   3.438  10.803
82023W        W54349   3.392  31.637  13.507
82024W        W54350  34.271  31.244   1.504
82025W        W54351  43.710  27.164   1.197
82026W        W54352  39.474  18.194  10.710
82027W        W54353  41.350  18.495   2.784
82028W        W54354  19.556  44.807   0.318
82029W        W54355  31.983   5.322  11.488
82030W        W54356  20.828  31.621  10.630
82031W        W54357  20.532  42.909  10.306
82032W        W54358   0.809   3.864   3.091
82033W        W54359  15.067  17.104  13.487
82034W        W54360   6.648  36.568  13.034
82035W        W54361  13.527  27.686   2.336
82036W        W54362  10.518   8.029  12.859
82037W        W54363  41.261   7.142  13.605
82038W        W54364  17.503  13.992   2.629
82039W        W54365  18.094   7.055   1.747
82040W        W54366   5.664  11.388  11.562
82041W        W54367  11.766  35.128   1.304
82042W        W54368  40.012   2.826   1.713
82043W        W54369  16.094   9.126   1.356
82044W        W54370  20.865  24.001   0.881
82045W        W54371  31.510  36.301  11.179
82046W        W54372  12.168  28.774  10.786
82047W        W54373  43.051  27.578   1.924
82048W        W54374  36.070   2.442  12.885
82049W        W54375  38.049  17.850   3.752
82050W        W54376  24.965  36.773  12.932
82051W        W54377   6.472  13.431   1.186
82052W        W54378  30.112  30.185   0.337
82053W        W54379   5.864  13.746   5.123
82054W        W54380  27.049  20.959  13.971
82055W        W54381  18.244  37.431   1.243
82056W        W54382  28.626  40.531  12.024
82057W        W54383  16.004  26.273   4.347
82058W        W54384  15.975  44.272   3.716
82059W        W54385   0.630  40.239  10.185
82060W        W54386  41.361  29.210   4.153
82061W        W54387   5.063  25.402   0.307
82062W        W54388  34.407  11.821   1.390
82063W        W54389   9.242  33.401  14.825
82064W        W54390  16.567  34.462   2.324
82065W        W54391  42.031  23.542  13.500
82066W        W54392   2.149  23.562   0.021
82067W        W54393  43.192  11.316  13.041
82068W        W54394  37.910  17.347   3.905
82069W        W54395   4.331  39.900  13.331
82070W        W54396  37.419  43.004  10.498
82071W        W54397  36.344   8.938   4.162
82072W        W54398  29.553   6.712   4.670
82073W        W54399  15.811   9.151   3.118
82074W        W54400   2.816  43.869  14.836
82075W        W54401  28.603  42.018   2.772
82076W        W54402  18.550  24.726  12.794
82077W        W54403  23.588  31.579  13.997
82078W        W54404  24.837  11.731  11.588
82079W        W54405  10.716  36.084  12.448
82080W        W54406  38.554  27.400   1.250
82081W        W54407  36.632  37.929   3.374
82082W        W54408  12.342  36.260   3.322
82083W        W54409   1.300  44.925  13.246
82084W        W54410   4.172  30.608   2.551
82085W        W54411  12.722  20.701  12.842
82086W        W54412   5.879  21.620   0.000
82087W        W54413  26.828  29.656   2.384
82088W        W54414  19.589  41.912   1.152
82089W        W54415  13.046  24.018  11.673
82090W        W54416   3.315  32.427  11.046
82091W        W54417   3.866  24.103  12.087
82092W        W54418   6.506   8.248  11.172
82093W        W54419  26.073   9.818   1.382
82094W        W54420  38.835  22.595   1.484
82095W        W54421   3.929  20.286   2.386
82096W        W54422  31.527  18.279   3.724
82097W        W54423  26.435  37.032   2.154
82098W        W54424  18.714  38.473   0.894
82099W        W54425  24.476  37.517  11.587
82100W        W54426  11.714  31.081   2.494
82101W        W54427  20.450   4.203   0.384
82102W        W54428  43.755   9.913   1.700
82103W        W54429   2.066  16.835  14.951
82104W        W54430  25.000  41.515  11.186
82105W        W54431  25.168  15.295   0.272
82106W        W54432  42.980  34.246  10.684
82107W        W54433   0.959  19.609   5.060
82108W        W54434  15.395  23.626  13.012
82109W        W54435   0.987  30.529  14.322
82110W        W54436  44.401  40.443  14.320
82111W        W54437  35.950  34.956   0.013
82112W        W54438  44.759  29.125   4.331
82113W        W54439  44.887  24.641  12.409
82114W        W54440  21.756  39.921   9.658
82115W        W54441  15.806  38.729   4.116
82116W        W54442   8.265  16.678   0.044
82117W        W54443  10.625  29.661  11.158
82118W        W54444  37.041   4.364   4.580
82119W        W54445  31.393  40.075  11.757
82120W        W54446   0.363   3.214  10.378
82121W        W54447  44.935  14.093  12.326
82122W        W54448  33.860  27.012  10.800
82123W        W54449  19.724  14.686   2.290
82124W        W54450   0.205  24.055  10.674
82125W        W54451  38.372  14.798  14.006
82126W        W54452  31.035  15.792   4.180
82127W        W54453  20.443   4.746   2.257
82128W        W54454  37.404  13.717   4.235
82129W        W54455   5.161   3.383  11.437
82130W        W54456   3.364  22.253  14.280
82131W        W54457  14.530  41.351   1.144
82132W        W54458  10.139   4.448  10.383
82133W        W54459   9.227  26.410   4.830
82134W        W54460  15.539   5.715  13.289
82135W        W54461  33.531  18.807   1.256
82136W        W54462  27.956   5.210   4.245
82137W        W54463  21.923  11.752   2.299
82138W        W54464  44.693  27.591   0.358
82139W        W54465  35.076  32.215   4.580
82140W        W54466  23.236  29.374   1.896
82141W        W54467  31.706  24.190   2.640
82142W        W54468   0.533  20.714   4.137
82143W        W54469  38.386   9.539   1.984
82144W        W54470  40.847  20.889   4.232
82145W        W54471  21.525  20.815   0.886
82146W        W54472  13.071  11.802   2.269
82147W        W54473  13.865  14.763   3.151
82148W        W54474   2.953  14.226  13.094
82149W        W54475  10.626  20.533   4.144
82150W        W54476  14.684   5.969  12.923
82151W        W54477  38.608  30.843   2.755
82152W        W54478  34.280  15.146  12.438
82153W        W54479  40.514  38.066  12.112
82154W        W54480   0.263  23.231   5.128
82155W        W54481   0.907  25.474   2.722
82156W        W54482  11.681  11.214  14.486
82157W        W54483  18.478   7.543   2.365
82158W        W54484  18.573   7.422   1.838
82159W        W54485  32.702   6.427   4.576
82160W        W54486   4.648   7.200  10.627
82161W        W54487  35.032   3.491   3.584
82162W        W54488  38.175  31.953  12.473
82163W        W54489  38.610  11.090   1.457
82164W        W54490  13.011  35.523  12.012
82165W        W54491  14.842  16.555  14.512
82166W        W54492  44.274  30.735   4.512
82167W        W54493  15.728  31.612   4.754
82168W        W54494  26.520  44.078  11.067
82169W        W54495  36.399  42.744  11.913
82170W        W54496  17.671  33.708   0.692
82171W        W54497  21.556  44.254   2.880
82172W        W54498   3.135   8.065  11.231
82173W        W54499   3.512  35.852  14.228
82174W        W54500  43.687   9.761   0.035
82175W        W54501  18.033  38.857   0.766
82176W        W54502  19.610   3.511  11.122
82177W        W54503   8.716  29.490   4.525
82178W        W54504  26.283  16.796   2.281
82179W        W54505  39.081  24.673  10.254
82180W        W54506  16.436   7.161  14.392
82181W        W54507  43.517  33.310  12.098
82182W        W54508  17.608  24.519  11.526
82183W        W54509   1.223  19.807  11.536
82184W        W54510  16.276  12.264  13.117
82185W        W54511  29.449  13.343  12.489
82186W        W54512   5.892  29.551  12.146
82187W        W54513  18.608  11.948   5.056
82188W        W54514  15.249  32.708  11.805
82189W        W54515  44.965  44.974  12.930
82190W        W54516  36.273   4.424  11.078
82191W        W54517  31.060   4.165  12.074
82192W        W54518   0.856  11.585   2.209
82193W        W54519   4.844  19.850   2.200
82194W        W54520   1.233   9.260  11.605
82195W        W54521  29.693  17.218   3.737
82196W        W54522  35.560  35.100  11.110
82197W        W54523  18.234  22.301  14.302
82198W        W54524  10.520  26.071  13.919
82199W        W54525  32.079  39.940  10.682
82200W        W54526   3.857  22.678  12.984
82201W        W54527  30.808  32.637  11.254
82202W        W54528  23.737  13.254  11.949
82203W        W54529   8.952  34.864  13.908
82204W        W54530  20.616  28.762   1.410
82205W        W54531  32.355   1.976  14.796
82206W        W54532   2.709  11.375  11.668
82207W        W54533  21.788  34.433  10.665
82208W        W54534  20.235  29.626  13.337
82209W        W54535  15.733  31.489   2.161
82210W        W54536  16.764  18.865  10.448
82211W        W54537   7.256  27.630   4.222
82212W        W54538   8.825  13.829  10.562
82213W        W54539  20.390   4.907  12.443
82214W        W54540  32.504   2.205  12.123
82215W        W54541   3.746  34.168   1.809
82216W        W54542  29.986  10.780  14.374
82217W        W54543  12.385  24.266   3.317
82218W        W54544  29.031  40.856   4.630
82219W        W54545  29.708  36.379   1.790
82220W        W54546  13.627  23.963  10.988
82221W        W54547  35.945  20.730  11.143
82222W        W54548  34.058  42.450   2.346
82223W        W54549   2.629  35.817   3.599
82224W        W54550  24.209   0.979   0.816
82225W        W54551  15.327  31.833  11.552
82226W        W54552  42.969  18.187  14.312
82227W        W54553   7.412  41.847  11.493
82228W        W54554  18.723   1.224   4.737
82229W        W54555  41.476  21.590  13.999
82230W        W54556  33.828  27.464   0.913
82231W        W54557  27.172  26.055  13.888
82232W        W54558  37.457  28.853  10.964
82233W        W54559  20.745  28.476  11.457
82234W        W54560   1.884  18.162  11.377
82235W        W54561   6.438  21.184  11.632
82236W        W54562  36.874  21.080  11.088
82237W        W54563   5.328  22.975  13.853
82238W        W54564  32.387  42.173   1.991
82239W        W54565  38.259  35.914   3.214
82240W        W54566   3.223  38.051  13.752
82241W        W54567  12.330   8.338   4.598
82242W        W54568  14.117  42.974  12.661
82243W        W54569  44.883   7.666   4.443
82244W        W54570  36.329  27.684  12.054
82245W        W54571  39.578  15.566  14.438
82246W        W54572  25.943  21.603   1.798
82247W        W54573  15.872   3.745  10.688
82248W        W54574   2.700   4.394  11.530
82249W        W54575  23.028  12.176  13.312
82250W        W54576  41.780  23.396   0.250
82251W        W54577  19.508  11.362  14.883
82252W        W54578   2.263   9.620  14.081
82253W        W54579  26.095   1.813  10.643
82254W        W54580  13.934  15.673  11.880
82255W        W54581   6.691  36.494   1.742
82256W        W54582  29.503  19.479  12.742
82257W        W54583  12.144  23.126   4.654
82258W        W54584  34.118  10.456  13.493
82259W        W54585  20.667  10.999   0.846
82260W        W54586  33.975  28.190  11.067
82261W        W54587  27.829  11.653   4.988
82262W        W54588  42.322   4.470  12.556
82263W        W54589  38.050  30.649   1.842
82264W        W54590   1.677  24.155  14.451
82265W        W54591  38.802   2.955  11.581
82266W        W54592   3.483   6.315  12.107
82267W        W54593  44.505  28.946   5.215
82268W        W54594  14.183  40.267  11.122
82269W        W54595  13.731  34.210   4.955
82270W        W54596  44.401  24.693  13.564
82271W        W54597  32.250  14.634  11.706
82272W        W54598  17.072  15.237   4.573
82273W        W54599  35.524   5.405  14.857
82274W        W54600  15.794   7.985   1.019
82275W        W54601   1.353   1.308  12.659
82276W        W54602  42.782  36.410   2.820
82277W        W54603  35.558  25.021  14.925
82278W        W54604  31.730  27.213   2.360
82279W        W54605  24.233   7.014   0.739
82280W        W54606  26.106  28.258  13.389
82281W        W54607   4.188  19.226  12.034
82282W        W54608  32.053   7.439  10.709
82283W        W54609   5.913   9.626  10.354
82284W        W54610  30.617  44.929   0.698
82285W        W54611  44.265   8.401  12.552
82286W        W54612  29.724  14.060  14.123
82287W        W54613  24.868  25.872  12.311
82288W        W54614  24.646  11.151   3.166
82289W        W54615  28.149   0.017   3.913
82290W        W54616  43.364  39.544  14.024
82291W        W54617  27.611  26.060  11.397
82292W        W54618  29.124  43.442  11.540
82293W        W54619  27.064  40.200   2.870
82294W        W54620   3.652  34.513  13.385
82295W        W54621  12.130  35.539   2.931
82296W        W54622   0.841  22.812  11.691
82297W        W54623   3.170   3.792  12.102
82298W        W54624  18.765  21.997   3.103
82299W        W54625  39.231  10.151   3.388
82300W        W54626  31.461  13.222   0.929
82301W        W54627  10.638  13.803  11.877
82302W        W54628  33.084   7.171  10.832
82303W        W54629  20.106   4.020  13.903
82304W        W54630  11.111  36.595   2.464
82305W        W54631  16.226  37.407  11.562
82306W        W54632  26.023  23.648  11.168
82307W        W54633  28.578  41.126   1.258
82308W        W54634  31.996   0.206  11.110
82309W        W54635  24.241   5.728   0.156
82310W        W54636  32.618   8.759  13.976
82311W        W54637   7.773  38.933   0.241
82312W        W54638   2.741  26.684  11.122
82313W        W54639  11.337  44.461   2.181
82314W        W54640  19.529  21.018  12.943
82315W        W54641  41.638  16.667   0.079
82316W        W54642   7.646   2.531  13.142
82317W        W54643  33.509  32.119   3.750
82318W        W54644  27.339  25.804  10.625
82319W        W54645  37.445  21.703  12.984
82320W        W54646  10.203  26.161   4.471
82321W        W54647  37.837  26.209  13.304
82322W        W54648   2.564   2.257  10.150
82323W        W54649   1.891  27.159   4.089
82324W        W54650  39.748  34.004   2.274
82325W        W54651   9.852  30.235  13.443
82326W        W54652  27.580   9.450   3.656
82327W        W54653  37.401   7.678  13.135
82328W        W54654  41.314  14.114  14.503
82329W        W54655  20.525  43.487  14.655
82330W        W54656  26.566  19.109   3.728
82331W        W54657  12.203  19.588   2.792
82332W        W54658   6.643  18.995  11.933
82333W        W54659  25.632  35.160   0.314
82334W        W54660  32.382  22.721   3.716
82335W        W54661  35.400  40.026   4.531
82336W        W54662  30.183  14.247  14.009
82337W        W54663  32.550   4.675   3.248
82338W        W54664  24.994  16.822  13.665
82339W        W54665   0.254  21.961  11.021
82340W        W54666  40.507  36.377  11.006
82341W        W54667  32.065  27.282   3.983
82342W        W54668  34.081  13.178   2.795
82343W        W54669  39.722  43.466  14.616
82344W        W54670  17.766  20.060  11.142
82345W        W54671  23.603  40.585  12.844
82346W        W54672  17.036  16.159  12.553
82347W        W54673  23.518  13.900  13.346
82348W        W54674   1.067   5.744   2.779
82349W        W54675   1.043  41.773   3.234
82350W        W54676   3.140  30.156   1.318
82351W        W54677   5.504  27.148   1.360
82352W        W54678  10.223  11.957   4.567
82353W        W54679   6.640   5.439   4.108
82354W        W54680   3.450  10.914   0.755
82355W        W54681  23.945   8.315   3.613
82356W        W54682  30.373  10.397   2.787
82357W        W54683  42.621  31.900  12.087
82358W        W54684   5.239  35.406  12.486
82359W        W54685  19.005  33.393  14.323
82360W        W54686  29.606  27.701  14.478
82361W        W54687   4.522  43.205  14.934
82362W        W54688  16.161  16.488   4.246
82363W        W54689  19.300  44.311  12.529
82364W        W54690  33.055  14.629  11.633
82365W        W54691  43.783  25.241   2.610
82366W        W54692  35.655   2.481  12.173
82367W        W54693   8.457  39.109  13.361
82368W        W54694  13.665  25.951  13.570
82369W        W54695  14.851  13.758   2.064
82370W        W54696  15.969  24.401   4.214
82371W        W54697   4.641   7.030  13.982
82372W        W54698  22.270  41.986  14.400
82373W        W54699  41.392  21.955   0.830
82374W        W54700  40.955  17.045  12.501
82375W        W54701  29.814  40.726  13.999
82376W        W54702  18.481   9.215   2.264
82377W        W54703  29.157  26.463  13.337
82378W        W54704  38.425  10.503  11.564
82379W        W54705   4.905  39.867  12.544
82380W        W54706  15.841   5.854   1.647
82381W        W54707  21.223  23.178   2.562
82382W        W54708  42.075  20.690   0.572
82383W        W54709  11.597   8.805  12.616
82384W        W54710  22.469  17.602   4.250
82385W        W54711  14.235  18.269   3.595
82386W        W54712  35.722  30.802  10.898
82387W        W54713   9.671  10.919   2.119
82388W        W54714   4.251  31.764   0.787
82389W        W54715   4.387   9.400   3.044
82390W        W54716   8.277  25.985  11.607
82391W        W54717  20.577  10.393   3.518
82392W        W54718  23.014  18.293  12.387
82393W        W54719  16.933  33.156  13.406
82394W        W54720  12.431   6.378   0.857
82395W        W54721   4.808  19.550  13.058
82396W        W54722  44.579   1.973   0.355
82397W        W54723  15.022  35.037   1.769
82398W        W54724  40.371  16.724  13.511
82399W        W54725  38.042  10.141  11.995
82400W        W54726  20.376  15.731   4.167
82401W        W54727  23.722  27.475  12.959
82402W        W54728  10.617  42.871   1.813
82403W        W54729  12.958  13.593   2.870
82404W        W54730   9.841  34.399  10.587
82405W        W54731  35.933  33.402   1.321
82406W        W54732  35.132  22.643   4.131
82407W        W54733   1.546  37.239  12.040
82408W        W54734  17.592  10.563  12.016
82409W        W54735  17.767  20.581   0.943
82410W        W54736  21.498  42.023  11.123
82411W        W54737  25.757   7.407  13.851
82412W        W54738  39.354  28.104  11.519
82413W        W54739  43.157   1.459   1.411
82414W        W54740  17.192  42.880   1.703
82415W        W54741  42.827  17.582   1.470
82416W        W54742  31.347  23.221  14.615
82417W        W54743   0.085  31.638   3.340
82418W        W54744   1.936  14.785  11.778
82419W        W54745   9.465  26.734   0.846
82420W        W54746  20.219   4.870   4.530
82421W        W54747  37.356  31.352   2.165
82422W        W54748  41.223  14.986  12.931
82423W        W54749  33.630   6.859   1.445
82424W        W54750   3.679  34.644  13.884
82425W        W54751  34.099  42.322  11.250
82426W        W54752  39.498  40.659   0.371
82427W        W54753  43.181   5.796  11.503
82428W        W54754  17.296   6.336  14.268
82429W        W54755   0.306  44.143   4.544
82430W        W54756  14.794  26.399   1.492
82431W        W54757  11.801  22.605  12.579
82432W        W54758   4.870  18.117  10.163
82433W        W54759  19.062   9.747   1.257
82434W        W54760  42.948   6.945   2.831
82435W        W54761   1.691  12.401  13.491
82436W        W54762  10.925  25.324  13.399
82437W        W54763  20.209  42.407   1.669
82438W        W54764  18.543   3.989  10.628
82439W        W54765  25.699  18.610  11.921
82440W        W54766  26.703   2.426   4.871
82441W        W54767  33.133  20.163  11.987
82442W        W54768  44.607  41.879   0.520
82443W        W54769  14.309  42.010   2.136
82444W        W54770  11.858  12.767   2.216
82445W        W54771  42.251   3.937  12.585
82446W        W54772   1.587  23.464  12.047
82447W        W54773   0.390  13.836  12.430
82448W        W54774  37.588   7.226   0.789
82449W        W54775  33.596  30.251  10.676
82450W        W54776  31.524  36.191  12.374
82451W        W54777  16.481  28.365   1.516
82452W        W54778  28.283  31.033   2.750
82453W        W54779  33.052   5.649   1.546
82454W        W54780  44.283  32.711   0.826
82455W        W54781  33.600  43.858  12.464
82456W        W54782  33.171   6.763   1.783
82457W        W54783  41.762   3.853  12.055
82458W        W54784   2.906  10.692   1.788
82459W        W54785  35.939  42.558   2.347
82460W        W54786  15.764  37.395  11.839
82461W        W54787  17.309  36.902  14.367
82462W        W54788  18.713  19.954   4.156
82463W        W54789   4.733  18.866   2.451
82464W        W54790  38.869   1.889   3.906
82465W        W54791   4.376  24.124  12.029
82466W        W54792  35.336  24.915  14.266
82467W        W54793  16.977  43.958   1.795
82468W        W54794  40.293   1.271  13.013
82469W        W54795  34.884  15.169   2.397
82470W        W54796  23.739  21.193  14.982
82471W        W54797  25.163  28.417   1.618
82472W        W54798  28.626  40.003   2.739
82473W        W54799  30.474  44.378   2.259
82474W        W54800  24.142   6.897  13.630
82475W        W54801  34.364  20.793  11.847
82476W        W54802  44.065  11.690   2.272
82477W        W54803  27.638   9.658   0.253
82478W        W54804  30.911  26.403   2.179
82479W        W54805  15.805  15.776   3.631
82480W        W54806  31.663  12.703  13.398
82481W        W54807   2.314  37.693  10.691
82482W        W54808  41.582  11.579  12.592
82483W        W54809  41.833  11.892   2.154
82484W        W54810  30.110   0.182   0.452
82485W        W54811  28.247  20.966   3.330
82486W        W54812  24.269   9.233  13.755
82487W        W54813  44.749  36.668  11.100
82488W        W54814   7.654  21.751  11.431
82489W        W54815   6.252  38.277  13.353
82490W        W54816  34.533  17.698   2.780
82491W        W54817  24.017  22.783  10.045
82492W        W54818  43.771  34.928  14.831
82493W        W54819   3.323  28.562  11.312
82494W        W54820   5.461   3.148  13.009
82495W        W54821  38.254  29.466  12.973
82496W        W54822  20.878   1.398   3.379
82497W        W54823  39.635  24.308   3.707
82498W        W54824  36.959  27.517   4.724
82499W        W54825  26.624  23.040   3.308
82500W        W54826   8.423  30.004   4.578
82501W        W54827  18.133  32.066  12.596
82502W        W54828  19.946   4.276   0.258
82503W        W54829   0.011  44.251  13.367
82504W        W54830  25.396  28.720  11.183
82505W        W54831  11.595   5.858  13.431
82506W        W54832   7.015   8.398   1.258
82507W        W54833  11.484  39.013   4.626
82508W        W54834  16.284   3.164  12.953
82509W        W54835  34.874  12.103  12.896
82510W        W54836  38.002  32.451   3.419
82511W        W54837  35.607   4.807  14.304
82512W        W54838   4.432  41.000  13.468
82513W        W54839  26.408  22.367  12.786
82514W        W54840  29.025  16.583   0.904
82515W        W54841   9.428  42.048   0.896
82516W        W54842  23.571  33.615   0.495
82517W        W54843  39.350  23.983   0.850
82518W        W54844  42.433  37.143   4.228
82519W        W54845  29.173  12.252  14.463
82520W        W54846  43.981  23.359  13.372
82521W        W54847  22.328  16.118   2.425
82522W        W54848   6.231  32.634  10.796
82523W        W54849  33.488  12.095  14.479
82524W        W54850   6.340  26.971   1.739
82525W        W54851  20.143  43.234  14.413
82526W        W54852  39.202  42.033   4.078
82527W        W54853  15.210  16.773  10.921
82528W        W54854  22.655  23.474  13.317
82529W        W54855   8.719  20.650   2.369
82530W        W54856  15.066  17.009  12.589
82531W        W54857   1.144  36.081   2.798
82532W        W54858  11.352   8.995   3.745
82533W        W54859  13.800  43.913   1.470
82534W        W54860   1.418   3.402   2.617
82535W        W54861  21.688  17.080  14.002
82536W        W54862  29.174   6.662   0.112
82537W        W54863   7.614  19.175  14.363
82538W        W54864  37.881  31.199   0.680
82539W        W54865  40.595  29.446   1.881
82540W        W54866  41.576   6.693   2.178
82541W        W54867  29.672  16.770   3.521
82542W        W54868  26.045  10.758  13.940
82543W        W54869  41.602   5.827  12.090
82544W        W54870  27.462   6.198   2.205
82545W        W54871  34.213  25.918  14.930
82546W        W54872  35.267  36.322   4.943
82547W        W54873  12.042  27.020   9.741
82548W        W54874  15.933   7.977   3.764
82549W        W54875  26.648  25.577   4.784
82550W        W54876  11.211  30.535  13.533
82551W        W54877  22.067   2.692   3.286
82552W        W54878  25.978  35.356  13.946
82553W        W54879  37.504  34.500   4.577
82554W        W54880  34.391  29.370  11.024
82555W        W54881  12.323  24.322  10.647
82556W        W54882  24.171   9.346   4.605
82557W        W54883  27.421  11.317  14.777
82558W        W54884  34.950  14.900  14.848
82559W        W54885   9.347   1.429   4.484
82560W        W54886  22.947  34.193  12.288
82561W        W54887  23.490  20.702  13.875
82562W        W54888  34.466  20.914  14.047
82563W        W54889  20.211  30.219   0.887
82564W        W54890   4.513  36.250  10.026
82565W        W54891   0.316  15.880  11.950
82566W        W54892  27.222  20.126   0.881
82567W        W54893   6.414   3.022   3.575
82568W        W54894  12.800  22.801  12.888
82569W        W54895  41.559  32.905   2.683
82570W        W54896  16.546  43.382   1.366
82571W        W54897   4.182   7.430   2.106
82572W        W54898  30.593  29.568  12.855
82573W        W54899  19.002  12.364  11.980
82574W        W54900  40.379  32.018   5.135
82575W        W54901   1.931  22.520   3.266
82576W        W54902  44.702  21.580  10.802
82577W        W54903   3.774  43.818   3.369
82578W        W54904  29.611  37.208  10.929
82579W        W54905  42.008  40.947   1.406
82580W        W54906  28.531   9.166   1.448
82581W        W54907  38.288  40.306   0.817
82582W        W54908   4.861  10.104  10.888
82583W        W54909  33.400  41.835  11.641
82584W        W54910  30.533  15.301   1.726
82585W        W54911  23.125  27.998  12.511
82586W        W54912   1.097  32.325   1.853
82587W        W54913  42.224  38.451   0.252
82588W        W54914  42.941  26.707   2.218
82589W        W54915  31.150   7.684  10.644
82590W        W54916  13.571  25.223  11.116
82591W        W54917  28.129  19.469   0.331
82592W        W54918  24.974  42.051  11.189
82593W        W54919  25.571  32.952  13.096
82594W        W54920  22.316  43.887   2.220
82595W        W54921  39.976  38.296  10.337
82596W        W54922  10.094  18.566   0.460
82597W        W54923   5.915   4.533   0.993
82598W        W54924   7.786   9.588   4.175
82599W        W54925   6.098   7.193   3.778
82600W        W54926  30.067  40.010   0.064
82601W        W54927  27.629  34.651   2.749
82602W        W54928  44.617   5.587   2.782
82603W        W54929  32.271  14.283  13.306
82604W        W54930  28.249  27.058   3.137
82605W        W54931  33.390  18.769  12.034
82606W        W54932  43.799  30.879   0.947
82607W        W54933  35.433  40.993   1.334
82608W        W54934  22.081  11.264   4.336
82609W        W54935  11.815  23.477   3.615
82610W        W54936  24.924  42.412  12.852
82611W        W54937   8.329  25.058  11.405
82612W        W54938  10.425   3.347  11.964
82613W        W54939  27.046   0.732   2.264
82614W        W54940  16.453  24.572  14.000
82615W        W54941   4.672  13.307   0.241
82616W        W54942  38.769  13.407   5.115
82617W        W54943   1.183  43.282  10.601
82618W        W54944  36.063   2.162  14.369
82619W        W54945   7.780  28.176   2.111
82620W        W54946  23.534  10.690  12.663
82621W        W54947  32.131  35.159  12.540
82622W        W54948  30.068  44.950   3.131
82623W        W54949   1.220  16.287  13.360
82624W        W54950  35.075   8.570  14.668
82625W        W54951  15.146  35.133  12.013
82626W        W54952   7.619   7.237   4.145
82627W        W54953  21.518   6.764  12.119
82628W        W54954  18.119   2.912  12.068
82629W        W54955  36.132  21.270   0.407
82630W        W54956  21.753  24.959  14.470
82631W        W54957   8.233  36.879   3.518
82632W        W54958  21.524  21.728   1.816
82633W        W54959  26.720  22.983   1.278
82634W        W54960  36.713   4.061   0.945
82635W        W54961  13.743   8.169  10.776
82636W        W54962  20.289  10.915   4.219
82637W        W54963  42.294  44.012   0.337
82638W        W54964  34.468  38.083   4.565
82639W        W54965   8.272   6.768  13.932
82640W        W54966  21.708   8.885  11.119
82641W        W54967  23.665  35.389  11.406
82642W        W54968  16.874   9.916   9.894
82643W        W54969  34.956  32.392   5.063
82644W        W54970   9.255  33.077   4.756
82645W        W54971  17.607   5.549   3.341
82646W        W54972  41.984  29.519   3.725
82647W        W54973  30.964  43.568   1.307
82648W        W54974  10.397  13.057   2.206
82649W        W54975  22.212  40.893   1.459
82650W        W54976  19.208   2.731   4.250
82651W        W54977  29.505   1.968  11.178
82652W        W54978  18.684   3.223  11.022
82653W        W54979  40.908  28.701   2.380
82654W        W54980  35.838  28.484  14.444
82655W        W54981  24.005  20.809  12.833
82656W        W54982  24.743  31.333  14.310
82657W        W54983  25.753  42.418   2.759
82658W        W54984  36.656   1.507  10.697
82659W        W54985  26.658  33.662  13.925
82660W        W54986  32.443  18.649  13.855
82661W        W54987  40.333   1.576  13.416
82662W        W54988  24.734  35.811  14.519
82663W        W54989  18.039   9.882  11.537
82664W        W54990   0.060   9.842  11.204
82665W        W54991  22.443  16.637  10.719
82666W        W54992  14.508  39.396  14.426
82667W        W54993   6.668   7.303  14.963
82668W        W54994  22.060   4.826   0.446
82669W        W54995   6.579   6.505   4.912
82670W        W54996  20.984  43.331  13.876
82671W        W54997   1.209  32.944  11.942
82672W        W54998   8.739   4.327   1.929
82673W        W54999  21.711  36.997   2.228
82674W        W55000  14.284  15.233  10.964
82675W        W55001  20.684  24.479  13.362
82676W        W55002  37.394  19.400   0.229
82677W        W55003  38.781  17.787   3.351
82678W        W55004  15.672  10.285  10.479
82679W        W55005  12.302  22.198   4.233
82680W        W55006  33.130  16.290  13.448
82681W        W55007  38.884   8.647  11.363
82682W        W55008   3.942  38.840   2.256
82683W        W55009  43.791  43.338  14.884
82684W        W55010  42.464  36.027   2.679
82685W        W55011  44.857  27.795  11.416
82686W        W55012  38.589  43.936   1.760
82687W        W55013  26.549  28.530   0.919
82688W        W55014  10.805  34.001   1.675
82689W        W55015  30.267   4.306   2.323
82690W        W55016   9.465  11.003   0.853
82691W        W55017  28.728  12.662   0.196
82692W        W55018  41.731   0.010  13.921
82693W        W55019  43.358   9.847   0.841
82694W        W55020  43.869  32.622   1.190
82695W        W55021   2.929  40.842   4.043
82696W        W55022  32.520   5.706  12.848
82697W        W55023   6.273  25.036  13.763
82698W        W55024   6.315   5.815  11.468
82699W        W55025   8.688   3.512  11.712
82700W        W55026   6.917  43.123  13.480
82701W        W55027  34.201  42.909  14.263
82702W        W55028  18.143  38.334  11.178
82703W        W55029  12.791  29.088   0.252
82704W        W55030  23.053  30.642   2.290
82705W        W55031  13.378   9.806   2.172
82706W        W55032  39.895   5.170  10.602
82707W        W55033  27.247  20.115  14.982
82708W        W55034   6.664  36.626  11.796
82709W        W55035  20.346  41.547  10.624
82710W        W55036  25.842  17.414  13.967
82711W        W55037  31.570  32.577   1.905
82712W        W55038  29.692  16.432   3.145
82713W        W55039  20.288   5.381   4.375
82714W        W55040  17.514   4.639   2.987
82715W        W55041  15.798  12.680  14.744
82716W        W55042   9.202  43.773  14.343
82717W        W55043   5.292  21.937   3.147
82718W        W55044  26.622  24.678   0.988
82719W        W55045   7.226  20.504   0.758
82720W        W55046  18.562   4.305  14.382
82721W        W55047  17.372  33.448   1.231
82722W        W55048   6.352   9.285  14.507
82723W        W55049  44.430  42.903  13.117
82724W        W55050  31.689  22.375   4.545
82725W        W55051  36.004  23.493  14.391
82726W        W55052   0.410  18.329   1.915
82727W        W55053  20.605  18.131  14.381
82728W        W55054  28.089  14.091   3.170
82729W        W55055  17.099  30.649   2.751
82730W        W55056  40.783  16.121  12.419
82731W        W55057  41.667  37.976  11.154
82732W        W55058  12.631  40.580   2.956
82733W        W55059  24.515  20.720   3.591
82734W        W55060  17.617  23.204   4.807
82735W        W55061  23.475  15.644   0.452
82736W        W55062  27.152   4.309   4.326
82737W        W55063  18.843  20.110   0.491
82738W        W55064  40.513  26.664  14.300
82739W        W55065  14.560  41.378  10.931
82740W        W55066  22.647   9.596   3.095
82741W        W55067  39.450  43.021   3.223
82742W        W55068   9.630  38.192   3.860
82743W        W55069   4.830   1.894   2.753
82744W        W55070  27.939  34.433  11.226
82745W        W55071  27.594  13.972  13.861
82746W        W55072  21.759  10.355  11.042
82747W        W55073   0.581  10.606   3.384
82748W        W55074   3.660  13.167  14.918
82749W        W55075   9.222   7.811  10.926
82750W        W55076  40.803  36.345  14.513
82751W        W55077  24.248  10.520   3.636
82752W        W55078   3.990  38.918  10.598
82753W        W55079  14.130  19.947  14.755
82754W        W55080  10.767  19.501  11.651
82755W        W55081  29.058   0.384  12.225
82756W        W55082  40.530  44.613  11.937
82757W        W55083  25.980  23.885   3.110
82758W        W55084  44.855  28.472  11.011
82759W        W55085   9.117  10.892  11.614
82760W        W55086  20.256   6.298   2.371
82761W        W55087  19.790   5.460  12.101
82762W        W55088  44.981  27.498   3.726
82763W        W55089  43.248  35.981   1.923
82764W        W55090   1.249  38.771   4.251
82765W        W55091  25.909  37.883   2.286
82766W        W55092   0.525  11.755  13.449
82767W        W55093  30.665   7.760  12.783
82768W        W55094  21.881  15.375  12.158
82769W        W55095   5.440  12.627  14.306
82770W        W55096  29.619  29.852   0.814
82771W        W55097  39.429  16.188   1.655
82772W        W55098  23.169  39.923   5.542
82773W        W55099  35.154  20.571   0.868
82774W        W55100  24.460  33.511   1.698
82775W        W55101   4.205  31.428   3.173
82776W        W55102   7.142   0.487   2.775
82777W        W55103  15.839  43.466  13.566
82778W        W55104  40.774  13.232   3.146
82779W        W55105  44.104  23.815  13.609
82780W        W55106  20.135  25.774   4.356
82781W        W55107  30.439  19.636   2.139
82782W        W55108  36.516  12.166  13.617
82783W        W55109  11.296   2.178  12.485
82784W        W55110  43.566  33.584  12.526
82785W        W55111   0.462   7.197   2.891
82786W        W55112  12.274  19.285   1.937
82787W        W55113  28.257  37.132   4.650
82788W        W55114  31.142  17.753   0.339
82789W        W55115  39.116  27.166  12.350
82790W        W55116  25.514  39.593   5.767
82791W        W55117   0.014   9.644   2.295
82792W        W55118  39.267  14.285  11.914
82793W        W55119   1.222   8.772  11.850
82794W        W55120  21.624  30.801   2.304
82795W        W55121  10.817  32.631  11.992
82796W        W55122  34.049  18.783   3.044
82797W        W55123  25.412  12.662  12.518
82798W        W55124  17.943   5.483   4.627
82799W        W55125  40.369   2.878  10.700
82800W        W55126  13.593   8.330  12.148
82801W        W55127   8.218  39.854   1.416
82802W        W55128   0.458  42.440   4.540
82803W        W55129  37.803  11.319  10.484
82804W        W55130  27.939  26.010  12.406
82805W        W55131  44.611   5.372   2.083
82806W        W55132   0.480   2.649  12.788
82807W        W55133   0.441  43.678   1.790
82808W        W55134   4.076   5.268  13.592
82809W        W55135  34.596   1.823  13.525
82810W        W55136   2.680  16.179   1.338
82811W        W55137   9.434  15.504   2.740
82812W        W55138  29.477  28.873  11.082
82813W        W55139  20.520  38.524  10.691
82814W        W55140   5.909  42.263  10.716
82815W        W55141  41.704  11.351   0.382
82816W        W55142  36.419  24.267  12.069
82817W        W55143  40.040   9.808   2.816
82818W        W55144  42.979  26.134   2.874
82819W        W55145   2.447  14.865  12.497
82820W        W55146  11.265  23.778  13.321
82821W        W55147  40.782  12.109  14.714
82822W        W55148  18.119  29.918   2.237
82823W        W55149  32.611   3.810  12.904
82824W        W55150  41.877   7.911   4.511
82825W        W55151  12.534   6.291  12.497
82826W        W55152  13.780  33.407   2.823
82827W        W55153  23.142  21.493  12.901
82828W        W55154  26.698   1.555  12.359
82829W        W55155  12.197  19.211   2.430
82830W        W55156  22.197  30.335   3.392
82831W        W55157  14.687  10.813  10.988
82832W        W55158  40.275  23.747  14.797
82833W        W55159  42.839  29.977  11.704
82834W        W55160  22.047   4.524   2.883
82835W        W55161  19.797  35.158   2.196
82836W        W55162   8.837  12.685   2.622
82837W        W55163  37.200  30.144   2.905
82838W        W55164  14.039   6.459  11.145
82839W        W55165  18.519  26.783   2.219
82840W        W55166  12.682  13.101   4.842
82841W        W55167  36.578  10.904   4.237
82842W        W55168  10.000  26.059  10.621
82843W        W55169  20.389  37.162  10.840
82844W        W55170   3.406  22.938   3.606
82845W        W55171   1.903  25.202  14.619
82846W        W55172  38.774  41.398   4.812
82847W        W55173  11.593  30.852  13.348
82848W        W55174  32.078  29.217  14.942
82849W        W55175   0.376  21.611   4.503
82850W        W55176   2.945  31.427  13.641
82851W        W55177   8.408  43.870   0.444
82852W        W55178  28.130  38.096  14.397
82853W        W55179  19.631  36.944   0.224
82854W        W55180  32.487  24.721   0.229
82855W        W55181   3.422  32.524   0.405
82856W        W55182  13.618  30.946   1.737
82857W        W55183  19.761  23.481   2.753
82858W        W55184  28.147  30.714  11.625
82859W        W55185  22.674  38.164  12.577
82860W        W55186   0.796  18.192  13.051
82861W        W55187  36.323  10.486  11.765
82862W        W55188   0.942  35.033  13.027
82863W        W55189  36.865  23.749   2.680
82864W        W55190  40.667  21.177  14.176
82865W        W55191  44.564  32.549  12.167
82866W        W55192  23.476  21.273  11.423
82867W        W55193  42.478  18.283  14.522
82868W        W55194  35.782   9.345   0.702
82869W        W55195  41.330  16.367   0.903
82870W        W55196  14.737   2.258  11.073
82871W        W55197  42.551  24.936  14.928
82872W        W55198  40.911  21.014   2.391
82873W        W55199  27.515   3.784   2.274
82874W        W55200   8.091   8.096  12.865
82875W        W55201  20.818  31.969   0.158
82876W        W55202   1.260  18.219   3.382
82877W        W55203  25.105  34.600   4.566
82878W        W55204  37.219  14.574   3.246
82879W        W55205  24.791  35.385  12.425
82880W        W55206   0.842   9.702   3.786
82881W        W55207  30.527  16.700   3.691
82882W        W55208  33.134   5.682   0.307
82883W        W55209  11.770  21.664  14.195
82884W        W55210  22.978  25.570   3.168
82885W        W55211  20.805  23.519   2.646
82886W        W55212  31.247  41.459   2.098
82887W        W55213  10.700  19.503  14.457
82888W        W55214  34.347  39.856  10.704
82889W        W55215  38.545  39.814   2.755
82890W        W55216  15.045  17.776  14.271
82891W        W55217  42.345  44.425   2.317
82892W        W55218  34.517   1.737  12.448
82893W        W55219  21.665  11.778  10.597
82894W        W55220  12.387  44.928  11.613
82895W        W55221  30.226  33.120  12.464
82896W        W55222  44.206   9.625  14.417
82897W        W55223  31.001   8.860  14.261
82898W        W55224  18.500  44.818  14.291
82899W        W55225  41.732  17.354  12.151
82900W        W55226  40.085  12.056  11.526
82901W        W55227   2.992  43.401   4.059
82902W        W55228  44.168   0.247   1.212
82903W        W55229  10.531  41.772   4.324
82904W        W55230  14.322  23.510   2.208
82905W        W55231  14.706   6.487   0.274
82906W        W55232   3.178   4.140  11.524
82907W        W55233   6.446  22.676   4.560
82908W        W55234   0.351  30.352  12.090
82909W        W55235   0.122  23.644   4.812
82910W        W55236  37.421   1.860  11.419
82911W        W55237  23.655   6.320  14.813
82912W        W55238  22.059  32.020   4.745
82913W        W55239  12.198  26.977   4.282
82914W        W55240  28.544  41.005   3.784
82915W        W55241  20.073  37.807  12.338
82916W        W55242   3.501  41.488  11.894
82917W        W55243  32.353  21.918  13.572
82918W        W55244  39.502  31.620  11.447
82919W        W55245  38.230   6.876   2.540
82920W        W55246  17.621  41.954   0.800
82921W        W55247  28.529   3.410   0.446
82922W        W55248  22.948  34.260  13.521
82923W        W55249  11.119  32.661   2.000
82924W        W55250  21.206  32.139   3.299
82925W        W55251   7.023  43.094   0.247
82926W        W55252  20.146  12.383   1.981
82927W        W55253  28.110  14.353   5.091
82928W        W55254  24.941  16.800   3.181
82929W        W55255  35.616  20.029  11.241
82930W        W55256  44.751  39.255  11.441
82931W        W55257  29.805  20.029   1.683
82932W        W55258  26.802  12.265   3.826
82933W        W55259  16.820  15.100   2.809
82934W        W55260  14.958  29.135   1.102
82935W        W55261  24.723  40.791   4.557
82936W        W55262  29.508  16.674   0.731
82937W        W55263  21.237  23.935  12.886
82938W        W55264   7.155  12.798  14.986
82939W        W55265  40.468  29.868  14.470
82940W        W55266  14.213  29.868  13.798
82941W        W55267  13.854  23.044  12.516
82942W        W55268  30.742  33.881  10.421
82943W        W55269  20.753  35.317  12.540
82944W        W55270  40.973  36.407   0.919
82945W        W55271  16.069   0.429   2.677
82946W        W55272  43.443  30.237   2.118
82947W        W55273   9.325   9.653   0.879
82948W        W55274  17.628  19.823  12.524
82949W        W55275  39.513  35.562  13.794
82950W        W55276  14.636  32.107   3.795
82951W        W55277  34.561  43.321   1.108
82952W        W55278  15.895  28.574  13.420
82953W        W55279  41.361  14.581  11.134
82954W        W55280  21.019  39.854  11.804
82955W        W55281  40.767   6.981   1.033
82956W        W55282  14.755  14.240  12.920
82957W        W55283  37.601  10.359  14.933
82958W        W55284   2.633  17.542   3.254
82959W        W55285   6.222  32.967   1.439
82960W        W55286  37.433   2.775  13.886
82961W        W55287   1.034  17.237   4.814
82962W        W55288  15.249  21.814   3.179
82963W        W55289   4.240  17.039  12.098
82964W        W55290  20.914  36.515   4.550
82965W        W55291  27.945  39.106   3.310
82966W        W55292  25.520  40.487   0.336
82967W        W55293  28.966  38.526   3.686
82968W        W55294  32.087  43.421  13.022
82969W        W55295  38.904  29.058   2.583
82970W        W55296  20.134  20.281   3.342
82971W        W55297  44.285  30.198   1.712
82972W        W55298  14.322  25.674  10.749
82973W        W55299   0.661  34.931  13.470
82974W        W55300   3.965   9.353   3.353
82975W        W55301  36.467  12.758   2.925
82976W        W55302  42.836  26.520  13.480
82977W        W55303  34.834  26.853   1.703
82978W        W55304  31.861  28.538  13.438
82979W        W55305   7.874   5.456   3.720
82980W        W55306  38.538  16.225  12.659
82981W        W55307   8.157  27.052  10.541
82982W        W55308  21.782  24.093  12.074
82983W        W55309   3.509  20.082   2.125
82984W        W55310  19.698  22.127   3.722
82985W        W55311   6.818  38.942  14.982
82986W        W55312  30.679  43.539   0.018
82987W        W55313  22.983  32.476   0.216
82988W        W55314  11.365   2.962  10.479
82989W        W55315  11.842  34.114   0.313
82990W        W55316   6.707  15.271  14.304
82991W        W55317   7.994  22.710   9.872
82992W        W55318  36.414   6.877  12.905
82993W        W55319   9.865  24.086   4.624
82994W        W55320  42.490   5.217   3.197
82995W        W55321  26.184  37.383  10.180
82996W        W55322  39.013  17.131   0.272
82997W        W55323  12.663  44.366  14.777
82998W        W55324  19.019  35.318  14.442
82999W        W55325  32.409  17.909  11.475
83000W        W55326  20.127  18.258  10.189
83001W        W55327  20.555  28.184   2.739
83002W        W55328  32.085  29.956  11.122
83003W        W55329  30.870  24.448  13.876
83004W        W55330  28.922   2.934  12.895
83005W        W55331  21.806  11.166   1.125
83006W        W55332  21.238  13.933   1.678
83007W        W55333  43.019   2.254  14.121
83008W        W55334  18.200  30.328   2.588
83009W        W55335   9.822  24.113  14.529
83010W        W55336  30.479  18.897  12.619
83011W        W55337  11.783  30.376   0.197
83012W        W55338   3.715  29.957   2.261
83013W        W55339  27.999   7.367  14.423
83014W        W55340   8.164  10.308  11.020
83015W        W55341   8.620  15.867   0.751
83016W        W55342  37.895  31.156   1.739
83017W        W55343   0.881   7.578   3.635
83018W        W55344  30.211   2.734  12.526
83019W        W55345   0.943  37.769   4.280
83020W        W55346  44.338  44.695  10.357
83021W        W55347  24.633   9.291  12.689
83022W        W55348   4.861  43.893   1.587
83023W        W55349  32.933  14.126  14.639
83024W        W55350   4.247  10.416   2.855
83025W        W55351  35.551  20.824  13.140
83026W        W55352  17.312  29.343   1.768
83027W        W55353  19.728  35.141  14.352
83028W        W55354  10.261   6.991  13.762
83029W        W55355  19.262  21.003  14.201
83030W        W55356  13.905  14.305  10.953
83031W        W55357   9.931  38.595   4.069
83032W        W55358  27.752  18.643   3.832
83033W        W55359   2.234  43.001  13.945
83034W        W55360  19.701  28.450  14.102
83035W        W55361  17.188  21.769  11.865
83036W        W55362  23.759  17.816   9.451
83037W        W55363  35.062  20.037  11.980
83038W        W55364  25.025  11.098  14.930
83039W        W55365   7.965  14.365  14.237
83040W        W55366  40.341  27.506   1.232
83041W        W55367  31.724   1.214  11.140
83042W        W55368   9.724  14.871  12.197
83043W        W55369  18.720  42.591  12.533
83044W        W55370   6.209  40.441   4.652
83045W        W55371  44.750  21.578  13.569
83046W        W55372  12.396   1.572  14.131
83047W        W55373  10.200  28.047   0.191
83048W        W55374   3.068   5.958   2.926
83049W        W55375   3.664  34.869   3.262
83050W        W55376   4.410  25.409  11.380
83051W        W55377   9.027  31.471   0.422
83052W        W55378   7.299  10.119  14.804
83053W        W55379  38.758  19.794   0.080
83054W        W55380  33.193  43.552   2.779
83055W        W55381  14.553  37.583   4.579
83056W        W55382  34.328  32.059   2.769
83057W        W55383  27.840   8.806   3.211
83058W        W55384  14.383  14.121  11.084
83059W        W55385  35.043  11.080  13.715
83060W        W55386  11.733   2.380  11.526
83061W        W55387  16.106  39.341  12.945
83062W        W55388  15.005  16.323  13.260
83063W        W55389   7.293  20.547  12.475
83064W        W55390  22.285  16.068   3.265
83065W        W55391  22.649  37.566   3.706
83066W        W55392  13.896  23.716   0.425
83067W        W55393   5.082  28.201  10.831
83068W        W55394  35.603  22.515   0.252
83069W        W55395  40.042   5.909   2.164
83070W        W55396  32.857  11.852   2.906
83071W        W55397  36.965  12.773   2.136
83072W        W55398  38.508   4.992  13.530
83073W        W55399   8.879  11.293   3.305
83074W        W55400  20.166  35.957   3.624
83075W        W55401  10.086  14.665   0.912
83076W        W55402  18.181  36.598   4.858
83077W        W55403   5.953   3.879  13.463
83078W        W55404  35.282  29.934   4.491
83079W        W55405  25.015  23.283  14.952
83080W        W55406  39.456  26.760   3.676
83081W        W55407  16.185   5.652   2.356
83082W        W55408   7.123  13.810   4.237
83083W        W55409  37.068  30.152  11.187
83084W        W55410  16.208  40.992   4.613
83085W        W55411  14.754  14.505  12.475
83086W        W55412   2.502  29.342  13.429
83087W        W55413  13.397  29.670  12.458
83088W        W55414  26.992   8.994   4.181
83089W        W55415   1.453   7.932   4.816
83090W        W55416  16.775  33.965  13.931
83091W        W55417   6.846  33.451  13.929
83092W        W55418  28.533  37.846   4.128
83093W        W55419   8.532  25.948  13.620
83094W        W55420  41.475   0.854  13.536
83095W        W55421  10.205  19.276   1.883
83096W        W55422  28.414  13.742   4.099
83097W        W55423  29.376  17.407  11.550
83098W        W55424  30.157  42.789   0.899
83099W        W55425  32.171   3.230   4.137
83100W        W55426   1.942   1.761   1.836
83101W        W55427   9.707   5.831  14.879
83102W        W55428  13.332  11.787   3.217
83103W        W55429  42.326  27.853   2.167
83104W        W55430  40.108   4.047   3.112
83105W        W55431  29.692  13.799   0.377
83106W        W55432  40.769  11.752   0.429
83107W        W55433  25.295  15.066   1.149
83108W        W55434  14.262  25.563   2.462
83109W        W55435  42.360   8.779  10.680
83110W        W55436   8.607  38.831  11.301
83111W        W55437  23.271  30.593  12.215
83112W        W55438   7.824  22.704   1.784
83113W        W55439  39.094  21.338  11.048
83114W        W55440  13.557  12.159   1.021
83115W        W55441  25.192  30.666   1.339
83116W        W55442  44.885  21.347   3.669
83117W        W55443   6.190  25.832  12.084
83118W        W55444  21.546  38.310   0.330
83119W        W55445   9.819  33.484   3.268
83120W        W55446  34.704  12.652   0.949
83121W        W55447  31.948   3.841   2.270
83122W        W55448  13.575  34.515  11.651
83123W        W55449  39.836   8.346   4.818
83124W        W55450  36.625   7.348   1.798
83125W        W55451  21.650  41.092  11.362
83126W        W55452   7.336  33.895  13.122
83127W        W55453  15.763  32.596  14.452
83128W        W55454  44.709  36.905   0.196
83129W        W55455  10.666  30.116   1.415
83130W        W55456  23.099   7.728   4.325
83131W        W55457   5.236  31.149  13.381
83132W        W55458  17.168  12.130  11.260
83133W        W55459  35.915  11.885  10.984
83134W        W55460  33.721  14.971  12.387
83135W        W55461  22.910  26.538  12.212
83136W        W55462   4.213  42.393  12.846
83137W        W55463  27.383   6.436   2.665
83138W        W55464   2.856  36.328  10.657
83139W        W55465   0.273   9.251   2.542
83140W        W55466  35.015  30.944  11.465
83141W        W55467  20.539  15.200  14.456
83142W        W55468  18.806  20.579   4.694
83143W        W55469  14.584  36.394  11.555
83144W        W55470  27.917  39.362   2.872
83145W        W55471  40.322  18.266   4.536
83146W        W55472   7.375   8.410   3.085
83147W        W55473  12.863  36.680  11.895
83148W        W55474   4.919  34.767   5.061
83149W        W55475  31.981  33.875   2.924
83150W        W55476  36.585  33.055   0.237
83151W        W55477  25.062  25.893  12.806
83152W        W55478  26.866  24.590  13.137
83153W        W55479  25.197   8.726  13.351
83154W        W55480  24.661  35.115  11.572
83155W        W55481  17.579  43.436   1.020
83156W        W55482   8.292  10.301   9.999
83157W        W55483  17.514  13.642   4.185
83158W        W55484  33.497  29.194  11.498
83159W        W55485  44.309   8.350   3.171
83160W        W55486  10.107  31.913  10.253
83161W        W55487  39.382  28.597   3.709
83162W        W55488  33.994  28.174   4.603
83163W        W55489  42.918  17.246  11.472
83164W        W55490  40.780   4.747  11.642
83165W        W55491  38.798  43.328   1.874
83166W        W55492  20.372  18.370  13.019
83167W        W55493  27.570   8.396   2.259
83168W        W55494  24.220  38.425   1.859
83169W        W55495  28.686  39.579   1.258
83170W        W55496  35.087  26.196   0.527
83171W        W55497  37.329  16.233  14.772
83172W        W55498  27.058  43.960  12.809
83173W        W55499  20.219  17.819   3.535
83174W        W55500  12.833   8.208   1.505
83175W        W55501  30.174  42.067   3.643
83176W        W55502  32.976  21.701   0.626
83177W        W55503  17.624  18.184  13.425
83178W        W55504  14.396  35.084  11.495
83179W        W55505  13.589  27.294   4.598
83180W        W55506  10.814  16.528   0.762
83181W        W55507  38.998  38.959   5.085
83182W        W55508  14.788  27.527   2.957
83183W        W55509   4.717   3.039   0.021
83184W        W55510  28.095  28.477  14.530
83185W        W55511  23.251  26.663  11.207
83186W        W55512  12.573  37.179  12.587
83187W        W55513  28.974   9.889  13.543
83188W        W55514  43.497   4.556   2.597
83189W        W55515   2.201  15.912  11.435
83190W        W55516  40.083  38.921  12.542
83191W        W55517  26.507  27.113  11.979
83192W        W55518   1.416  37.905   0.939
83193W        W55519  21.207  10.169   2.136
83194W        W55520   9.154  32.383   0.804
83195W        W55521  26.061  33.849  14.940
83196W        W55522   0.199  35.809   3.715
83197W        W55523   8.417  25.010   1.913
83198W        W55524  18.038   6.784  11.684
83199W        W55525  43.932  22.700   1.822
83200W        W55526   0.354  25.523  10.458
83201W        W55527  21.171  20.079  12.018
83202W        W55528  30.410  44.820   0.234
83203W        W55529  38.477   6.124   2.941
83204W        W55530  43.566  30.183   0.389
83205W        W55531  22.042  15.807   1.402
83206W        W55532  37.090   9.381  13.323
83207W        W55533  24.439  16.155  13.544
83208W        W55534  14.572  44.664   2.682
83209W        W55535   7.397  22.608  13.434
83210W        W55536  44.888  15.345  10.328
83211W        W55537  17.572   6.041   4.075
83212W        W55538  23.137   9.170  14.762
83213W        W55539  21.670  19.337   1.760
83214W        W55540  42.428  41.831   3.366
83215W        W55541   4.115   3.956  12.115
83216W        W55542  13.375  13.382  13.039
83217W        W55543  24.975  36.498  11.670
83218W        W55544  22.397  13.072  12.488
83219W        W55545  13.310   8.422   1.025
83220W        W55546   6.356  41.787   4.300
83221W        W55547  32.511  34.706   2.103
83222W        W55548   5.999  35.100  12.863
83223W        W55549  38.118  27.076  12.917
83224W        W55550  29.605  20.051  14.973
83225W        W55551   1.286  31.067   0.346
83226W        W55552   0.993  15.258   1.935
83227W        W55553  34.387  20.023  14.807
83228W        W55554  15.079  10.325  13.504
83229W        W55555  31.439  40.725   3.174
83230W        W55556  38.827  34.538   4.075
83231W        W55557  39.058  18.757   0.737
83232W        W55558  21.719  31.926  12.540
83233W        W55559  32.056  17.292  11.187
83234W        W55560  12.412  28.611  12.505
83235W        W55561   4.839  33.353   2.205
83236W        W55562   5.176   7.190   2.245
83237W        W55563  24.694  13.921   4.922
83238W        W55564   7.246   8.206  14.118
83239W        W55565  32.913  20.847   3.385
83240W        W55566  23.334  18.566  10.792
83241W        W55567  15.328  12.799  13.876
83242W        W55568   0.899  26.772   3.675
83243W        W55569   2.404  19.203   2.627
83244W        W55570  35.849   5.756   4.077
83245W        W55571  11.202  23.807  14.258
83246W        W55572  24.497  21.055   1.850
83247W        W55573   2.445  20.206   4.187
83248W        W55574  37.633  43.466  10.709
83249W        W55575   8.089  36.832  12.351
83250W        W55576  19.795   1.957   2.721
83251W        W55577   1.342  17.093  11.665
83252W        W55578  38.065  20.932  14.854
83253W        W55579  44.587  18.509  12.568
83254W        W55580  36.330   6.413   2.246
83255W        W55581  29.066  12.229   0.508
83256W        W55582   0.931  22.937   2.974
83257W        W55583  20.729  26.498   1.938
83258W        W55584   4.248  16.074  14.580
83259W        W55585  42.415  18.763  13.627
83260W        W55586  19.783  20.570  10.843
83261W        W55587  30.786  41.705   0.480
83262W        W55588  14.617   8.220   4.257
83263W        W55589  32.065   2.358   0.520
83264W        W55590  16.484  27.251  10.696
83265W        W55591  39.299  23.891   2.461
83266W        W55592  40.831  16.169   0.862
83267W        W55593   0.320  14.523  14.228
83268W        W55594  20.726  20.549  14.392
83269W        W55595  42.111  34.523  12.359
83270W        W55596  30.648  33.097   0.941
83271W        W55597  36.279  29.737   4.789
83272W        W55598  20.732   3.722  11.013
83273W        W55599  31.496  28.690   2.323
83274W        W55600  29.200  31.330   1.214
83275W        W55601  31.877  15.688  14.708
83276W        W55602  20.030  19.341  13.503
83277W        W55603  38.951  17.137  14.333
83278W        W55604  37.906  44.037  13.724
83279W        W55605  43.367  25.677   4.221
83280W        W55606  13.668  15.676  10.645
83281W        W55607  35.945  38.439  11.413
83282W        W55608  37.343  31.654  12.580
83283W        W55609  31.192  14.049  12.548
83284W        W55610  10.379  39.771   2.242
83285W        W55611  33.553  21.628   4.002
83286W        W55612  38.634  17.931   2.864
83287W        W55613  24.618  41.733  13.843
83288W        W55614   3.840  39.382  13.930
83289W        W55615  42.393   4.145   0.852
83290W        W55616  15.241  38.828   3.138
83291W        W55617  42.842  29.634  12.999
83292W        W55618   1.912  11.729  11.497
83293W        W55619  44.029  24.981  13.869
83294W        W55620   8.597   3.684  14.412
83295W        W55621  26.773  35.316   1.772
83296W        W55622  23.600  37.969   2.750
83297W        W55623  43.272  30.945  11.438
83298W        W55624  11.784  34.958  12.830
83299W        W55625  15.426  11.088   3.388
83300W        W55626   7.728   1.573   2.497
83301W        W55627   7.862  19.751  11.532
83302W        W55628  38.759  42.857   4.163
83303W        W55629  17.474  32.850  11.614
83304W        W55630   2.635  13.279  10.861
83305W        W55631  41.857  31.557   3.376
83306W        W55632  14.196  12.148   1.797
83307W        W55633  31.311  40.384  14.049
83308W        W55634  39.798  21.251   3.073
83309W        W55635  37.982  27.740  11.579
83310W        W55636  35.593  39.811  12.481
83311W        W55637  14.302  41.838   5.181
83312W        W55638  11.550  40.304   0.836
83313W        W55639   2.348  43.479   1.488
83314W        W55640   9.448  17.588  12.917
83315W        W55641  21.609   3.139  13.570
83316W        W55642  23.817  17.972  14.780
83317W        W55643  30.504  35.558  10.676
83318W        W55644   8.204   2.481   3.932
83319W        W55645  12.312   4.786  10.953
83320W        W55646   2.322  16.937  14.212
83321W        W55647  33.939  29.686  11.047
83322W        W55648  33.517  38.802  11.475
83323W        W55649  35.454  41.643   2.908
83324W        W55650  19.383  31.609   3.713
83325W        W55651  33.989  39.276  11.542
83326W        W55652  19.277  33.241   3.954
83327W        W55653  13.121  14.746  12.013
83328W        W55654  42.910  43.852   4.606
83329W        W55655  43.284  11.847   4.490
83330W        W55656  13.729  35.381  14.504
83331W        W55657  17.728  40.091   2.414
83332W        W55658  12.718  15.341   4.098
83333W        W55659  40.623  19.500  10.775
83334W        W55660   0.130  25.555  12.527
83335W        W55661  12.878  24.251   3.133
83336W        W55662  34.126   6.436  13.798
83337W        W55663  15.767   3.455   0.515
83338W        W55664  16.507  10.685  11.960
83339W        W55665  16.913   4.875   3.775
83340W        W55666  29.473   9.413  12.960
83341W        W55667  29.337   2.356   2.635
83342W        W55668   7.442  10.667  10.659
83343W        W55669  16.809  28.492   4.471
83344W        W55670  39.662  28.977  11.183
83345W        W55671  12.569  37.473  10.054
83346W        W55672  24.551  34.561  13.886
83347W        W55673  38.826  17.764  10.656
83348W        W55674  21.741  17.134  12.423
83349W        W55675  30.690  21.164  13.863
83350W        W55676  20.990  13.890  11.190
83351W        W55677   4.963  13.842   4.556
83352W        W55678  24.496  40.615  14.839
83353W        W55679  43.270  31.653   0.973
83354W        W55680  29.590  29.502   1.792
83355W        W55681  31.427  10.612  14.193
83356W        W55682  13.687  10.050   3.191
83357W        W55683  12.643  36.432  10.677
83358W        W55684  39.438   5.931   3.370
83359W        W55685   8.384   3.734  12.075
83360W        W55686  11.465  24.926   9.491
83361W        W55687   1.250  14.816   1.829
83362W        W55688  37.442  12.412  14.015
83363W        W55689  12.710  34.706   1.521
83364W        W55690   8.817  34.857  13.402
83365W        W55691   9.136  32.647  14.519
83366W        W55692  11.377  33.103  12.992
83367W        W55693   0.662  12.251  13.591
83368W        W55694  20.258   2.869   0.018
83369W        W55695  11.311  16.711  14.356
83370W        W55696  36.488  39.431   0.260
83371W        W55697  39.344  24.669  12.823
83372W        W55698  20.113   6.747  12.530
83373W        W55699  28.751   7.857   2.350
83374W        W55700  10.707  34.127   0.753
83375W        W55701   1.336  26.014   1.828
83376W        W55702  41.038  29.434  12.512
83377W        W55703  38.032  17.782   1.211
83378W        W55704  31.916   7.431  13.873
83379W        W55705  36.364   2.188  11.124
83380W        W55706  14.703  43.289   1.897
83381W        W55707  21.761   8.836  12.495
83382W        W55708  30.167  11.584   3.341
83383W        W55709  36.805  18.710  14.938
83384W        W55710  27.753  17.207   0.038
83385W        W55711  12.588  20.652  11.569
83386W        W55712  44.869  18.417  13.754
83387W        W55713  21.248   6.411  12.865
83388W        W55714  29.665  30.596   4.558
83389W        W55715  44.561  44.296  12.463
83390W        W55716  19.089   6.354   0.361
83391W        W55717  39.071   6.974  14.420
83392W        W55718  42.335  43.732  14.144
83393W        W55719  39.356  27.099  11.521
83394W        W55720  10.372  39.472   1.482
83395W        W55721  36.927   7.652   1.296
83396W        W55722  12.476  35.269   4.154
83397W        W55723   3.898  15.686   0.333
83398W        W55724   7.152  12.718  13.155
83399W        W55725  30.411  19.091  12.070
83400W        W55726  12.179  18.102   4.519
83401W        W55727   8.475  42.025   2.710
83402W        W55728  35.329   3.287  10.620
83403W        W55729  39.940  23.546   3.121
83404W        W55730  34.835  16.806   0.138
83405W        W55731  25.208  16.356  11.805
83406W        W55732  33.691  34.167   1.701
83407W        W55733  29.164  43.219  13.819
83408W        W55734  24.245  20.833   1.457
83409W        W55735  11.726   9.148  10.393
83410W        W55736  44.128   3.931  11.774
83411W        W55737  44.427  41.431  12.526
83412W        W55738  13.760  25.070   4.148
83413W        W55739  23.801  28.198   4.835
83414W        W55740   2.964   6.623   3.680
83415W        W55741  14.534  16.245  13.024
83416W        W55742  10.808  12.783  12.595
83417W        W55743  27.479  22.965   3.184
83418W        W55744  39.052  20.218   1.889
83419W        W55745  39.812   2.416  12.416
83420W        W55746   3.858  35.361   3.366
83421W        W55747  11.835   2.099  11.977
83422W        W55748  16.078  31.394   0.796
83423W        W55749  43.484  30.063  12.918
83424W        W55750  43.291  25.300   1.320
83425W        W55751  36.953  28.695  13.489
83426W        W55752   2.193   3.456   4.608
83427W        W55753  11.166  20.695   2.231
83428W        W55754  21.475  25.374  10.243
83429W        W55755  40.589  35.389   1.657
83430W        W55756  40.262  27.516  11.557
83431W        W55757  33.573  39.424  10.700
83432W        W55758  27.013  35.960   0.354
83433W        W55759  22.737  38.825  11.998
83434W        W55760  30.371  36.755   3.955
83435W        W55761  39.606  26.843  12.802
83436W        W55762   8.167  20.607  12.035
83437W        W55763  14.212  28.955   4.845
83438W        W55764  21.669  23.583   3.594
83439W        W55765  21.195   9.889  11.111
83440W        W55766  23.994  25.163  12.015
83441W        W55767  20.501   9.568   3.789
83442W        W55768   7.751  37.007   3.581
83443W        W55769  11.430   7.868  12.115
83444W        W55770  29.450  11.754  12.510
83445W        W55771  37.838  25.359   3.179
83446W        W55772  14.340   4.138  13.000
83447W        W55773  20.620  16.606   4.482
83448W        W55774  22.976  44.370   4.133
83449W        W55775  40.914  40.834  13.152
83450W        W55776  13.615  22.483   4.541
83451W        W55777   8.380  30.198   3.119
83452W        W55778  28.076  21.280  11.698
83453W        W55779  36.841  23.932  12.965
83454W        W55780  13.376  38.861  13.999
83455W        W55781  39.352  35.445   0.232
83456W        W55782   0.429  38.110   0.031
83457W        W55783  32.111  11.711  11.560
83458W        W55784  24.618  44.918  13.115
83459W        W55785  41.310  25.903  13.920
83460W        W55786  14.560   7.015  12.060
83461W        W55787   5.769   4.233  13.797
83462W        W55788  40.367   6.145  10.676
83463W        W55789  29.977   5.710   0.495
83464W        W55790   0.870  13.666  12.170
83465W        W55791  34.523  20.853  11.018
83466W        W55792  24.419  27.093  13.804
83467W        W55793  18.084   2.216   0.294
83468W        W55794  42.995   5.043  11.113
83469W        W55795  23.556  33.523  14.085
83470W        W55796  12.136  21.234   0.796
83471W        W55797  41.894  15.097   3.620
83472W        W55798  16.309  12.264  12.596
83473W        W55799  32.036  12.741   5.032
83474W        W55800  34.863  43.680  10.989
83475W        W55801  14.226  36.217   5.105
83476W        W55802  15.580  21.683  11.387
83477W        W55803  38.602   6.403  10.814
83478W        W55804  42.749  29.490   1.247
83479W        W55805  30.194  28.119   2.873
83480W        W55806  17.007   1.204   3.215
83481W        W55807   1.356  11.980   5.487
83482W        W55808  26.564   5.151   2.338
83483W        W55809  40.982  38.332  14.390
83484W        W55810   6.922  16.120   2.797
83485W        W55811  18.891   6.206   0.816
83486W        W55812  14.199  13.110  12.034
83487W        W55813  24.231  44.937   3.042
83488W        W55814  37.464  30.604   2.648
83489W        W55815  28.787  32.583   3.600
83490W        W55816  40.564  40.609  12.864
83491W        W55817  27.477  24.113   1.448
83492W        W55818  13.449  13.242  13.836
83493W        W55819  12.418  31.037   3.713
83494W        W55820  12.558  38.918   2.648
83495W        W55821  24.739   6.277  13.419
83496W        W55822   1.182  24.188   1.389
83497W        W55823  17.570  42.561   0.298
83498W        W55824  34.864  24.101   1.150
83499W        W55825  19.224   0.994   0.221
83500W        W55826   7.392  23.712   4.904
83501W        W55827   3.518  38.762  10.471
83502W        W55828  40.424  18.542  13.863
83503W        W55829  40.381  37.960   4.458
83504W        W55830  14.232   5.779   4.405
83505W        W55831  26.578   7.622  12.632
83506W        W55832  15.928  10.111  10.878
83507W        W55833  14.341   4.642  13.011
83508W        W55834  12.326  29.835  14.861
83509W        W55835  41.720  34.953  13.404
83510W        W55836  39.567  35.457   4.258
83511W        W55837  31.815  17.320  11.665
83512W        W55838   1.427  38.855   2.136
83513W        W55839  35.997  34.404  11.443
83514W        W55840   1.905   8.387  13.202
83515W        W55841  43.500  17.090   3.399
83516W        W55842   0.881  20.033  14.489
83517W        W55843  17.214  29.424  14.709
83518W        W55844   6.605  20.474   3.759
83519W        W55845  22.984  21.573  13.821
83520W        W55846  25.757  42.943   4.477
83521W        W55847  39.841  24.218  14.831
83522W        W55848  13.850   9.954  14.615
83523W        W55849  16.328   1.859   1.765
83524W        W55850  41.997  14.211  10.109
83525W        W55851  40.632   7.749  11.638
83526W        W55852  40.575  25.675   4.713
83527W        W55853   3.262  18.319   4.876
83528W        W55854   9.515   3.994   2.415
83529W        W55855   9.531  29.455   3.196
83530W        W55856  40.785  20.575   3.416
83531W        W55857  32.565  17.634  13.307
83532W        W55858  22.464  33.015  13.952
83533W        W55859  36.505   8.870   2.902
83534W        W55860  32.503  44.873   3.838
83535W        W55861  32.534  29.179   1.657
83536W        W55862  32.035   2.672   1.366
83537W        W55863  17.687   6.131  11.053
83538W        W55864  21.687  22.215   4.135
83539W        W55865  16.386  44.834   4.459
83540W        W55866  35.979  24.483   5.015
83541W        W55867  40.920  29.564   1.064
83542W        W55868  39.416  28.524  12.366
83543W        W55869  33.698  17.889  10.313
83544W        W55870   0.397  14.399  12.461
83545W        W55871  21.779  42.434  11.404
83546W        W55872  26.066  21.769   4.226
83547W        W55873   6.332  42.597  10.678
83548W        W55874  15.766  30.931  10.709
83549W        W55875  35.960   9.549  12.597
83550W        W55876  37.921  15.678  12.985
83551W        W55877  23.637  30.019  13.899
83552W        W55878  15.724  11.266   4.394
83553W        W55879   8.215  24.787  13.046
83554W        W55880  24.678  15.039   2.707
83555W        W55881  28.090  17.635  11.058
83556W        W55882  10.236  33.426  12.460
83557W        W55883  34.232  25.213   4.115
83558W        W55884  28.408  13.707   0.471
83559W        W55885  43.324  15.963  14.823
83560W        W55886  26.672  28.639   5.504
83561W        W55887  21.847   9.890   4.525
83562W        W55888  27.183  17.670  14.224
83563W        W55889  34.010  10.646  14.972
83564W        W55890  43.527  38.868  11.114
83565W        W55891  23.749  34.727   2.297
83566W        W55892  38.545  34.344   0.922
83567W        W55893  14.146  32.962   1.791
83568W        W55894  29.163  15.755  11.690
83569W        W55895  20.670  35.813  12.575
83570W        W55896  39.656   9.772  12.995
83571W        W55897  15.489  38.765  10.661
83572W        W55898  40.648  22.727  11.800
83573W        W55899  24.664  14.932   5.100
83574W        W55900  43.734  20.621   2.625
83575W        W55901   6.185   9.376   2.634
83576W        W55902  11.416  20.310  13.915
83577W        W55903  10.095   1.655   0.387
83578W        W55904   1.235  38.989  12.098
83579W        W55905  26.415   3.994  13.417
83580W        W55906  20.052  21.305   4.596
83581W        W55907  36.268  18.718   4.578
83582W        W55908   2.737  24.015   2.316
83583W        W55909  36.983  15.589  10.669
83584W        W55910  31.342   2.900   1.942
83585W        W55911  19.706  29.480   1.229
83586W        W55912  40.533  34.440  14.124
83587W        W55913   2.535  18.857   1.310
83588W        W55914   3.304  18.465  11.006
83589W        W55915  27.414  43.528  11.231
83590W        W55916   5.203   8.920   2.074
83591W        W55917  34.368  32.661   0.924
83592W        W55918  30.419  13.325   2.014
83593W        W55919  27.240  32.990  10.437
83594W        W55920  12.177  22.269   4.748
83595W        W55921  28.317   1.888   4.220
83596W        W55922  10.668  27.891  12.983
83597W        W55923  40.943  42.979  13.028
83598W        W55924  39.470   3.438  11.132
83599W        W55925  34.102   0.980   1.745
83600W        W55926  10.792  35.328  12.938
83601W        W55927  21.154  27.695  14.849
83602W        W55928  16.645  28.196  13.019
83603W        W55929  28.724  44.645  14.123
83604W        W55930  25.100  38.178  12.615
83605W        W55931  16.153   1.662  14.040
83606W        W55932  31.574  27.997  13.782
83607W        W55933  32.843  30.823  14.543
83608W        W55934  13.602  15.106  12.945
83609W        W55935  22.196  28.608   3.022
83610W        W55936  40.587   8.888   4.511
83611W        W55937   9.116  43.090  13.892
83612W        W55938  19.601  23.025   0.064
83613W        W55939  13.206  32.559   0.059
83614W        W55940  42.286   3.639   3.322
83615W        W55941  23.250  29.081   4.577
83616W        W55942  18.251   7.511   0.568
83617W        W55943  44.958   0.370  10.624
83618W        W55944  14.217  42.856   2.600
83619W        W55945  30.222  24.077  14.396
83620W        W55946  30.459  40.019  14.724
83621W        W55947  38.861  19.468  11.247
83622W        W55948  28.400  18.418   0.683
83623W        W55949  25.818  31.918   0.513
83624W        W55950  26.355   8.536   3.469
83625W        W55951  29.592  35.078   1.022
83626W        W55952  36.414  24.766  10.976
83627W        W55953  23.241   9.396  14.315
83628W        W55954  33.716  24.268   1.148
83629W        W55955  15.678   2.924   0.479
83630W        W55956  35.127  13.658  12.939
83631W        W55957  36.600  16.285  10.510
83632W        W55958  16.778  28.331  11.751
83633W        W55959   0.064   5.871   2.766
83634W        W55960  34.898  26.995  14.270
83635W        W55961   4.986  28.028   1.636
83636W        W55962  17.859   9.337   0.870
83637W        W55963  37.395  20.968   0.260
83638W        W55964   0.410  31.588  12.484
83639W        W55965  43.290  18.068   0.894
83640W        W55966  41.235   0.864   3.985
83641W        W55967   3.941  24.544   1.001
83642W        W55968  37.000  29.036  10.655
83643W        W55969  28.495  31.664   0.575
83644W        W55970  34.553  24.481  10.563
83645W        W55971   7.674   9.724  13.565
83646W        W55972  18.121  39.807  13.969
83647W        W55973  25.133  30.376  14.829
83648W        W55974  24.268  38.787   3.325
83649W        W55975   7.779  18.497  14.821
83650W        W55976  36.009   8.417   4.505
83651W        W55977  34.869  24.467  11.105
83652W        W55978  35.948  42.411   1.358
83653W        W55979  40.028  16.334   0.189
83654W        W55980   6.596  40.767   2.645
83655W        W55981  17.232  13.167  10.439
83656W        W55982   9.702  37.545  12.176
83657W        W55983  28.450  30.805   1.228
83658W        W55984   3.720  28.630   0.402
83659W        W55985  11.457  32.462   1.664
83660W        W55986   5.956  40.350  14.897
83661W        W55987  17.652  22.565   1.225
83662W        W55988  34.024   5.869  14.885
83663W        W55989  14.250  16.356  13.454
83664W        W55990  38.877  22.036   1.481
83665W        W55991  37.844  18.187  14.398
83666W        W55992  10.092  42.825  14.067
83667W        W55993  28.857  12.932  13.862
83668W        W55994  43.746  38.814   4.120
83669W        W55995   0.441  35.362   1.836
83670W        W55996  10.886  38.974   0.283
83671W        W55997  39.861   6.870   1.717
83672W        W55998  43.915  11.738  12.556
83673W        W55999  35.022   2.915  14.713
83674W        W56000   7.714  30.007   1.407
83675W        W56001  42.711  34.993  13.324
83676W        W56002  39.432  14.735  11.727
83677W        W56003  14.680   6.937   3.765
83678W        W56004  19.782  23.625   4.571
83679W        W56005  18.834   7.339   4.376
83680W        W56006  33.167   8.906  11.946
83681W        W56007  17.766  20.406  10.584
83682W        W56008  40.357  26.435   2.365
83683W        W56009   8.782  42.581  10.616
83684W        W56010  29.372   9.373   3.817
83685W        W56011  38.364  31.106   2.390
83686W        W56012  27.109  31.576  12.672
83687W        W56013  15.655   8.899   1.203
83688W        W56014   5.731   9.634  12.604
83689W        W56015   6.362  21.666   2.564
83690W        W56016  10.825   9.098  11.207
83691W        W56017   1.425  43.787   4.771
83692W        W56018  35.332  27.485  13.135
83693W        W56019  24.479  12.078   0.737
83694W        W56020  33.215  10.056   4.177
83695W        W56021  40.293   8.970   9.766
83696W        W56022   2.777  12.919  12.470
83697W        W56023  19.280   4.463   4.177
83698W        W56024  38.149  22.949   4.525
83699W        W56025  28.655  24.459   0.837
83700W        W56026  44.546   8.151  14.578
83701W        W56027  38.248  22.682  10.732
83702W        W56028  30.157   0.511  14.348
83703W        W56029  17.467  12.934  13.123
83704W        W56030  43.224  22.744  14.375
83705W        W56031  37.142   7.954  14.471
83706W        W56032   5.687   3.101   0.901
83707W        W56033  10.344  31.959  13.574
83708W        W56034  36.914   2.803  12.724
83709W        W56035   6.672  19.524  11.895
83710W        W56036  16.793  29.247   0.542
83711W        W56037  10.108  20.217  12.744
83712W        W56038  19.862  25.960  13.588
83713W        W56039   4.748  43.556   4.131
83714W        W56040  41.100  12.674  11.170
83715W        W56041  26.456  22.623   3.063
83716W        W56042  13.366  17.445  11.268
83717W        W56043  24.058   1.932  13.351
83718W        W56044  44.940  37.836  14.250
83719W        W56045  11.667  13.639  12.034
83720W        W56046  17.227   3.119  11.255
83721W        W56047  11.127  11.346   1.821
83722W        W56048  17.643  16.410  14.875
83723W        W56049  39.567  22.230  12.445
83724W        W56050   7.226  44.774  13.567
83725W        W56051   3.811  20.961   4.224
83726W        W56052   1.255  30.177   1.009
83727W        W56053  39.083  30.202   4.257
83728W        W56054  16.511  21.826   3.185
83729W        W56055  44.258  35.133  14.836
83730W        W56056  41.847  37.557  14.802
83731W        W56057  21.991  40.960  14.076
83732W        W56058  31.692  21.818   1.333
83733W        W56059  34.853  18.854   3.503
83734W        W56060  23.939  30.210   1.253
83735W        W56061  24.073  26.180  14.081
83736W        W56062  35.965  35.105   0.539
83737W        W56063  15.974  16.090  13.482
83738W        W56064  11.010  41.123  12.643
83739W        W56065   6.384   6.252  11.215
83740W        W56066   7.684  39.451   0.407
83741W        W56067  16.343  19.161  14.278
83742W        W56068  18.617  30.458   0.778
83743W        W56069  35.537   9.736   3.765
83744W        W56070  24.384  19.948  10.277
83745W        W56071   5.735   2.871  11.141
83746W        W56072   0.951   4.279   2.800
83747W        W56073   4.834  39.352  14.419
83748W        W56074   6.426  11.434  11.131
83749W        W56075  26.239   8.203  10.502
83750W        W56076  40.389  14.011   0.450
83751W        W56077  25.155  40.156   4.197
83752W        W56078   3.432  21.895   3.358
83753W        W56079   1.688  38.300   2.823
83754W        W56080  10.111  42.795   2.785
83755W        W56081  31.997  19.817  13.629
83756W        W56082  41.465  18.866  12.111
83757W        W56083  27.727  10.360  11.334
83758W        W56084  28.404  30.076  10.491
83759W        W56085  20.342  42.024   2.865
83760W        W56086  32.325  40.626  11.934
83761W        W56087  37.653  10.747  12.960
83762W        W56088   8.003   4.684   5.293
83763W        W56089  41.436  34.431   1.693
83764W        W56090  42.972  13.726  10.549
83765W        W56091  17.629  25.219   2.257
83766W        W56092   0.779  36.448   3.503
83767W        W56093   3.268  30.230   2.242
83768W        W56094  21.368   5.949  10.153
83769W        W56095  23.961  12.305   2.757
83770W        W56096  43.817  26.947  13.011
83771W        W56097  38.774  32.994   2.127
83772W        W56098  22.211  12.763  11.679
83773W        W56099  15.063  25.484  12.810
83774W        W56100  25.052  21.594   4.513
83775W        W56101  26.501   8.236   2.251
83776W        W56102   1.768  36.674   4.791
83777W        W56103  38.637  31.550   2.314
83778W        W56104   3.946   8.403  13.474
83779W        W56105  43.286   5.842   3.134
83780W        W56106  43.285  24.726   4.000
83781W        W56107  22.137  23.417   3.796
83782W        W56108   5.997   0.712  12.631
83783W        W56109   9.009  23.807   4.433
83784W        W56110   7.871  39.457   1.448
83785W        W56111  38.783  33.579   2.875
83786W        W56112  13.361  40.590   3.646
83787W        W56113  25.481  33.617   4.059
83788W        W56114  19.777  23.064   3.355
83789W        W56115  11.255  20.310   1.839
83790W        W56116  40.787  38.280  10.871
83791W        W56117  10.255  40.721   4.510
83792W        W56118   4.995  34.486   0.974
83793W        W56119  35.976  30.614  12.104
83794W        W56120  38.761  18.741  10.562
83795W        W56121  28.074  22.607  13.962
83796W        W56122   1.277  25.425  10.568
83797W        W56123   1.078  21.812  11.157
83798W        W56124  11.687  10.050  14.968
83799W        W56125  19.479  10.690   0.280
83800W        W56126  19.573  27.414  14.788
83801W        W56127   9.093  22.992   2.311
83802W        W56128   3.758  22.499   3.192
83803W        W56129   2.700  10.591  12.163
83804W        W56130  15.287   4.705  12.985
83805W        W56131  26.115   4.737  14.991
83806W        W56132  28.491  42.343   0.979
83807W        W56133  26.405   2.245  14.106
83808W        W56134  39.522   5.665   2.945
83809W        W56135  20.265  20.581  11.050
83810W        W56136   0.263  31.110  13.352
83811W        W56137  29.141  21.301   4.719
83812W        W56138  28.972  35.526  13.557
83813W        W56139   0.145  35.942  11.925
83814W        W56140   2.273  34.864  13.061
83815W        W56141  13.260  12.197   4.822
83816W        W56142  30.057  23.246  10.806
83817W        W56143  29.167  25.633   0.466
83818W        W56144   0.896   3.770   0.633
83819W        W56145  22.685  33.583   0.180
83820W        W56146  29.831  43.844   2.688
83821W        W56147  17.111   3.724  13.836
83822W        W56148  27.572  17.694  14.578
83823W        W56149  24.472  34.831  14.458
83824W        W56150  23.137  14.851  12.438
83825W        W56151  13.108  37.832  14.337
83826W        W56152  39.899  10.308   2.792
83827W        W56153  44.237  12.707   0.982
83828W        W56154   1.729   9.863  12.003
83829W        W56155  30.601  28.678  12.888
83830W        W56156   3.248  30.393  13.087
83831W        W56157   3.843  10.613  13.832
83832W        W56158  29.675  22.489  10.756
83833W        W56159   2.950   3.303  10.931
83834W        W56160   0.477  23.934  13.843
83835W        W56161  24.504  16.618   1.814
83836W        W56162  21.291  22.600   0.499
83837W        W56163  32.923  26.019  14.449
83838W        W56164   9.193   2.569  11.097
83839W        W56165  22.970  40.950   9.642
83840W        W56166  11.751   5.773  11.689
83841W        W56167  15.846   0.885   2.660
83842W        W56168  20.257   1.907  11.577
83843W        W56169  34.529  14.135  11.504
83844W        W56170  12.897  30.245   2.150
83845W        W56171   6.579  18.991  14.285
83846W        W56172  18.437  15.936  12.121
83847W        W56173   4.407   7.860   4.765
83848W        W56174  23.655   2.853   1.691
83849W        W56175  21.798  14.782   0.754
83850W        W56176  10.485  33.599  11.893
83851W        W56177  12.173  10.122  11.636
83852W        W56178  42.238  42.732  12.477
83853W        W56179  12.235   3.817  11.197
83854W        W56180  15.050  40.247  10.601
83855W        W56181  36.798   6.709   0.897
83856W        W56182  38.414  41.327  14.001
83857W        W56183   7.398  23.042  14.893
83858W        W56184  18.041  19.248   3.734
83859W        W56185  36.892  37.004   1.787
83860W        W56186  10.169   3.218  10.719
83861W        W56187  32.144  41.262   1.738
83862W        W56188   0.386  23.663  14.290
83863W        W56189   5.449  22.198  13.496
83864W        W56190  18.588  15.603  10.767
83865W        W56191  17.181  33.598   3.242
83866W        W56192  14.590   6.755  11.592
83867W        W56193  38.238  12.126   4.519
83868W        W56194   9.893  17.748  11.073
83869W        W56195  20.036  27.988   0.381
83870W        W56196   3.262   4.140  14.885
83871W        W56197   6.780  28.821  14.326
83872W        W56198  19.145  13.458  11.125
83873W        W56199  39.019  36.995   2.683
83874W        W56200  11.429  10.599   4.691
83875W        W56201  21.204  43.271  11.564
83876W        W56202  43.450   7.278   0.996
83877W        W56203  20.888  32.176   2.455
83878W        W56204  15.813  42.316   1.929
83879W        W56205  32.468   3.106   4.552
83880W        W56206   9.592  26.696   1.772
83881W        W56207   7.106  39.018   0.876
83882W        W56208  20.708  23.994  12.920
83883W        W56209  12.465  36.348   2.165
83884W        W56210  16.878  13.158  12.577
83885W        W56211  15.505  29.063  11.945
83886W        W56212  15.091  24.738   4.505
83887W        W56213  21.745   0.771  13.405
83888W        W56214  14.065   7.722  13.006
83889W        W56215  29.690   1.588   3.414
83890W        W56216  44.488  38.911   4.582
83891W        W56217  42.306  11.717  11.631
83892W        W56218  41.071  33.358   4.710
83893W        W56219  15.255  35.250   0.761
83894W        W56220   3.523  15.360  10.716
83895W        W56221  20.124  33.871  10.544
83896W        W56222   4.350  15.558  14.576
83897W        W56223  31.394  37.891  11.450
83898W        W56224  27.464  44.270   3.410
83899W        W56225  13.158   2.769   2.381
83900W        W56226  17.842  44.336   3.200
83901W        W56227  12.926  31.036  13.230
83902W        W56228  14.080   3.911  12.527
83903W        W56229  41.292  11.863  11.673
83904W        W56230  27.391  11.889  12.667
83905W        W56231  33.977  23.963   1.467
83906W        W56232  38.509   8.215   4.900
83907W        W56233  36.194  28.203  11.453
83908W        W56234  38.463  17.603   1.537
83909W        W56235  32.526  41.588   4.078
83910W        W56236  39.481   4.999  13.442
83911W        W56237  24.643  44.178  12.109
83912W        W56238  16.154  12.746   5.204
83913W        W56239  41.560   5.501   0.677
83914W        W56240  21.755  31.647   2.163
83915W        W56241  42.474   8.139   0.619
83916W        W56242   0.407  24.205  12.858
83917W        W56243  28.428  43.650   2.322
83918W        W56244  16.695  36.007   1.875
83919W        W56245  42.535  14.878   3.227
83920W        W56246  12.281  28.681   3.286
83921W        W56247  29.148  44.549   0.028
83922W        W56248  38.523   1.908  12.411
83923W        W56249  19.102  16.175   1.796
83924W        W56250  26.641  29.062   1.205
83925W        W56251  23.218  27.062   0.362
83926W        W56252   1.655  31.451   1.439
83927W        W56253   1.823  21.279  11.559
83928W        W56254  18.544  11.203  12.281
83929W        W56255   6.659   4.477   0.388
83930W        W56256   0.891   7.856   4.486
83931W        W56257  43.155  19.775   3.295
83932W        W56258  17.667   2.027  11.565
83933W        W56259  44.174   6.002  14.435
83934W        W56260  20.510  16.077   2.162
83935W        W56261  36.284   1.722   2.193
83936W        W56262  40.036  30.029  10.917
83937W        W56263  39.257  17.771  12.609
83938W        W56264  35.849   5.281  14.195
83939W        W56265  24.240  10.340   0.342
83940W        W56266  15.222  40.560  13.810
83941W        W56267  21.669  22.591  14.637
83942W        W56268  17.153  25.976  14.385
83943W        W56269  33.530  39.986   2.927
83944W        W56270  36.947  37.722  10.649
83945W        W56271  19.078   6.168  13.966
83946W        W56272  16.805  35.838  13.542
83947W        W56273  25.888  18.821   0.408
83948W        W56274  35.030  23.126  10.656
83949W        W56275  30.046  21.569  10.586
83950W        W56276   1.372   1.254  14.360
83951W        W56277  42.334  26.489  10.493
83952W        W56278   2.321   5.365   5.776
83953W        W56279  40.232  14.677   1.386
83954W        W56280  16.081  18.648  13.957
83955W        W56281  13.717   3.938  11.537
83956W        W56282  44.719  15.105   4.415
83957W        W56283   6.432   6.399   1.984
83958W        W56284  16.169  12.716   3.696
83959W        W56285  25.052   0.179  13.022
83960W        W56286  32.135  15.251  13.350
83961W        W56287  20.673   2.325   0.576
83962W        W56288  14.471   7.669   3.211
83963W        W56289   8.622  24.302   0.859
83964W        W56290  11.233  41.581   0.391
83965W        W56291  31.079  17.822   2.361
83966W        W56292  24.190   8.417  10.552
83967W        W56293  36.890  30.758  12.587
83968W        W56294  25.652  10.341  11.338
83969W        W56295  42.655  20.137   2.669
83970W        W56296  29.867   4.679   2.307
83971W        W56297  13.257  16.176  10.425
83972W        W56298  15.691  34.044   4.515
83973W        W56299  12.005  14.905   1.221
83974W        W56300   0.365  21.614  14.404
83975W        W56301  30.292  31.504   0.702
83976W        W56302  22.445   9.208  12.111
83977W        W56303  44.376  10.795  10.628
83978W        W56304  42.958  24.161   4.528
83979W        W56305  37.092  34.994  12.027
83980W        W56306  32.962   2.620  11.438
83981W        W56307  38.527  42.109  12.506
83982W        W56308  29.215  16.940   3.726
83983W        W56309  13.423  34.510   2.783
83984W        W56310  19.605  24.953   1.782
83985W        W56311  11.188  12.819   3.806
83986W        W56312   3.705   0.998   3.669
83987W        W56313  22.091  13.516   1.201
83988W        W56314  41.027   6.326   0.366
83989W        W56315  16.749  15.400   1.435
83990W        W56316  37.031  27.576   0.187
83991W        W56317  34.016  15.093  11.463
83992W        W56318   7.429  16.573  11.539
83993W        W56319  14.648   9.448  10.710
83994W        W56320  33.690  23.590  13.593
83995W        W56321  38.382   7.003  11.966
83996W        W56322  13.726  27.461   1.853
83997W        W56323  26.410  34.692   2.407
83998W        W56324  40.561  14.755   3.200
83999W        W56325   7.604  35.024  14.104
84000W        W56326   0.934  41.248  14.151
84001W        W56327   9.191  33.929  14.894
84002W        W56328  13.709   4.583  10.979
84003W        W56329  26.449  35.016   1.462
84004W        W56330  32.369  20.739   2.756
84005W        W56331  40.376  11.913  14.392
84006W        W56332   2.237   3.464   2.666
84007W        W56333  17.309  23.023  11.590
84008W        W56334  10.823  30.657  10.855
84009W        W56335  25.492  13.418   1.292
84010W        W56336  23.702  16.472  12.956
84011W        W56337  44.306  21.691   1.924
84012W        W56338  21.165  12.310   2.836
84013W        W56339  36.717  29.034  13.811
84014W        W56340   5.193  15.366   2.742
84015W        W56341  11.111  43.270   2.053
84016W        W56342   2.890  27.443   3.607
84017W        W56343  13.079  38.438   0.666
84018W        W56344  28.541  24.254  11.178
84019W        W56345  43.232  28.747   0.204
84020W        W56346  18.788  32.014   4.556
84021W        W56347  12.057  33.715  14.748
84022W        W56348  31.610  33.424   3.090
84023W        W56349  25.640   3.836  13.942
84024W        W56350   0.267   8.512   4.198
84025W        W56351   6.200  25.344   2.490
84026W        W56352   7.615  16.992   0.787
84027W        W56353  32.102   1.599  13.401
84028W        W56354  17.160  39.841   1.216
84029W        W56355  20.927  14.382  11.099
84030W        W56356  11.283   3.172   3.686
84031W        W56357  14.571  16.091   2.808
84032W        W56358  13.802  42.844   3.426
84033W        W56359  39.374  12.876  11.447
84034W        W56360  27.947  31.623  14.361
84035W        W56361  34.163   8.111  11.219
84036W        W56362   0.483   0.233   1.720
84037W        W56363   8.706  15.728  10.895
84038W        W56364  41.311   7.385   0.413
84039W        W56365  24.233  44.428   2.919
84040W        W56366   4.353  21.909   0.163
84041W        W56367  24.894   5.086  11.537
84042W        W56368  22.071  40.163  14.447
84043W        W56369   1.952  24.040   5.196
84044W        W56370  37.296  29.980  11.629
84045W        W56371  28.610  40.192  14.716
84046W        W56372   3.729  25.983   3.749
84047W        W56373  20.719   7.169  12.548
84048W        W56374  20.249  20.396  13.668
84049W        W56375  42.569  33.004   2.726
84050W        W56376   5.271  44.743  10.403
84051W        W56377  24.503  14.860   2.259
84052W        W56378  19.705  40.261  12.061
84053W        W56379  31.118   2.520  13.986
84054W        W56380  18.555  25.464  10.543
84055W        W56381  18.427  39.064  10.877
84056W        W56382  17.537  39.077   2.729
84057W        W56383   6.173  11.195  14.016
84058W        W56384   4.249  10.876  14.122
84059W        W56385  34.141  37.072   0.496
84060W        W56386  36.883  26.278  12.542
84061W        W56387   7.863  17.323   0.470
84062W        W56388   7.183   0.320   1.873
84063W        W56389  24.668  38.679   1.757
84064W        W56390  24.687   2.751  14.288
84065W        W56391  39.568  25.172  13.698
84066W        W56392  32.011  44.501   4.390
84067W        W56393   0.772  25.999   0.989
84068W        W56394   6.993  12.770  10.594
84069W        W56395   6.744  35.488   2.072
84070W        W56396  39.025  15.606   1.159
84071W        W56397   3.482  31.106   4.513
84072W        W56398  34.428   8.700   1.893
84073W        W56399   2.473  16.722  12.416
84074W        W56400   8.374   2.031   3.154
84075W        W56401  18.492  35.926  10.339
84076W        W56402   0.238  31.827   5.045
84077W        W56403  17.590  12.757   1.404
84078W        W56404  33.372  42.251   2.793
84079W        W56405   3.323  43.377  12.993
84080W        W56406  38.542  40.935   0.853
84081W        W56407  42.799   4.326   4.137
84082W        W56408  42.855  27.985  10.321
84083W        W56409  40.504  14.018   2.060
84084W        W56410  11.652  13.125  12.144
84085W        W56411  22.460  35.322  11.980
84086W        W56412   1.969  10.064  14.833
84087W        W56413  35.074  14.858  11.535
84088W        W56414  30.524  39.858  12.037
84089W        W56415   6.527   5.549   2.841
84090W        W56416  17.652  18.589   0.176
84091W        W56417   9.802  39.479  13.002
84092W        W56418  28.841  35.574   1.245
84093W        W56419  14.078  14.014  14.156
84094W        W56420  41.783  17.794   2.230
84095W        W56421   2.810  33.508   4.630
84096W        W56422  19.038  34.076  14.846
84097W        W56423   1.518  37.688  11.218
84098W        W56424  28.572   6.329   0.697
84099W        W56425  29.760  44.588   1.799
84100W        W56426  20.202  15.337   2.789
84101W        W56427  40.060  29.624  12.633
84102W        W56428  18.623  44.293  14.342
84103W        W56429   1.787  30.108  11.920
84104W        W56430  26.197  21.973  13.485
84105W        W56431  27.619  13.163   2.342
84106W        W56432  17.378   7.894   3.780
84107W        W56433  17.555   5.692  10.733
84108W        W56434  28.369  41.855  12.514
84109W        W56435  38.064   6.727  11.634
84110W        W56436  19.859  31.506   1.909
84111W        W56437  11.241  26.846   4.999
84112W        W56438   9.424  33.516   0.811
84113W        W56439  41.348  10.277  13.935
84114W        W56440  15.552  40.257  10.665
84115W        W56441  14.689  29.931  14.300
84116W        W56442   2.966   9.699   1.327
84117W        W56443  31.085  20.114  11.210
84118W        W56444  20.022   9.033  12.438
84119W        W56445  23.170   4.163  12.428
84120W        W56446  20.601  20.079   3.690
84121W        W56447  29.288  30.976   0.019
84122W        W56448  35.699  24.518  14.386
84123W        W56449  10.913  13.115  13.592
84124W        W56450  30.193  25.492   1.472
84125W        W56451  31.651  28.073  11.166
84126W        W56452  17.615   3.220   4.475
84127W        W56453  42.896  30.723   3.789
84128W        W56454  29.704  42.859  14.338
84129W        W56455  28.710  38.361  12.027
84130W        W56456  40.123  27.863   0.848
84131W        W56457   7.276  37.356   4.136
84132W        W56458  42.734  15.070  11.942
84133W        W56459   8.725  14.059  10.085
84134W        W56460  29.617  13.538  11.209
84135W        W56461  35.717  33.990   1.824
84136W        W56462  25.076  29.952  12.208
84137W        W56463  27.766   9.771   2.333
84138W        W56464  39.840  16.520  11.110
84139W        W56465  10.340  28.379  14.786
84140W        W56466  37.558  38.583   0.156
84141W        W56467   1.279  17.337   2.280
84142W        W56468  40.294  34.921  14.836
84143W        W56469  31.633  29.556  13.851
84144W        W56470  14.099   4.049  13.928
84145W        W56471  22.400  35.791   2.782
84146W        W56472   5.482   8.181  13.541
84147W        W56473  36.341  12.336   4.269
84148W        W56474  25.345  24.826  11.147
84149W        W56475   5.222  18.389   0.016
84150W        W56476   2.025   6.271  12.015
84151W        W56477  10.916   1.397  13.358
84152W        W56478  30.964  10.703   1.408
84153W        W56479  36.540  17.333   5.051
84154W        W56480   3.216  14.927  10.833
84155W        W56481   3.440  14.893  12.595
84156W        W56482  10.688   7.853  10.697
84157W        W56483  42.385  43.556  12.883
84158W        W56484  40.385  39.797  11.699
84159W        W56485   6.173  26.625   3.424
84160W        W56486  24.351  13.378  12.876
84161W        W56487  39.305  34.464  14.307
84162W        W56488  20.612   4.274   2.144
84163W        W56489  39.572  27.458   2.403
84164W        W56490  33.139   2.129  11.418
84165W        W56491  13.969  44.968   4.637
84166W        W56492  29.757   7.568  12.595
84167W        W56493  44.957  40.285   0.762
84168W        W56494  36.542  30.154  11.173
84169W        W56495  31.191  32.007   2.774
84170W        W56496  19.335  21.427  14.511
84171W        W56497  24.146  22.484  11.277
84172W        W56498   9.851  20.635  11.601
84173W        W56499   4.721  37.006   1.480
84174W        W56500  18.126  28.704   1.648
84175W        W56501  25.726  33.558  11.459
84176W        W56502  12.617  19.021  13.558
84177W        W56503  29.975   7.368   4.621
84178W        W56504  37.103   4.983   1.876
84179W        W56505   9.188  37.243   2.979
84180W        W56506  13.788   5.028  13.976
84181W        W56507   7.822  16.203  14.544
84182W        W56508  22.422   4.905   4.476
84183W        W56509  36.338   8.201   0.845
84184W        W56510  16.269  22.258   0.009
84185W        W56511  20.852  29.376   0.422
84186W        W56512   9.249  14.781  13.909
84187W        W56513  27.022   8.314  14.276
84188W        W56514  35.975  36.262  13.462
84189W        W56515  12.729   7.576  13.501
84190W        W56516  22.653  17.731   1.040
84191W        W56517  21.226  22.165  11.295
84192W        W56518  28.578  14.393   1.712
84193W        W56519  30.627  25.121   3.354
84194W        W56520  39.608  24.824  11.958
84195W        W56521  44.063  35.002   2.762
84196W        W56522  43.981  32.502   3.276
84197W        W56523   5.722  24.902  14.993
84198W        W56524  33.081  27.441  13.143
84199W        W56525   3.491  35.496  12.788
84200W        W56526  20.425  37.777  14.921
84201W        W56527  17.341   1.900   1.833
84202W        W56528  29.037  38.618  12.844
84203W        W56529  11.444  28.783  12.284
84204W        W56530  33.209   9.782  14.060
84205W        W56531   6.555   3.936  12.385
84206W        W56532  34.672  43.256   2.411
84207W        W56533  16.214  43.504  12.104
84208W        W56534  20.202  20.100  11.749
84209W        W56535  16.160   7.098   4.512
84210W        W56536  37.461  10.889   4.721
84211W        W56537  29.306  19.835  14.360
84212W        W56538  11.255   9.105  11.498
84213W        W56539  42.780  25.578   2.683
84214W        W56540  17.215   1.282  14.785
84215W        W56541  19.103  13.674   0.212
84216W        W56542   2.575   5.655   0.551
84217W        W56543  23.699  41.021   3.501
84218W        W56544  42.868   2.874   1.269
84219W        W56545  39.119  12.900  11.878
84220W        W56546  17.590  43.818  11.493
84221W        W56547  41.971  36.904   4.091
84222W        W56548  10.615  26.540  11.085
84223W        W56549  13.641   5.805  11.889
84224W        W56550  33.100   7.702   0.379
84225W        W56551  37.219   1.125   1.894
84226W        W56552  41.394  16.860   0.975
84227W        W56553  38.486   1.015  13.651
84228W        W56554  13.082   8.627   1.927
84229W        W56555  24.889  38.864   5.575
84230W        W56556   0.351  28.099  11.497
84231W        W56557  37.813  19.675  12.500
84232W        W56558   1.048  23.570  12.118
84233W        W56559  30.034   4.329  11.650
84234W        W56560   2.989  38.036   4.021
84235W        W56561  12.349  36.500   9.862
84236W        W56562  26.448   4.871  11.456
84237W        W56563   1.867  28.306  12.556
84238W        W56564  30.042  18.769   0.806
84239W        W56565  28.279  40.913  11.019
84240W        W56566  20.247  38.641  11.182
84241W        W56567  26.731  38.018   3.917
84242W        W56568  43.169  36.213   5.076
84243W        W56569   1.751  36.043  14.424
84244W        W56570  29.924  19.477  11.483
84245W        W56571  27.898  44.332  14.504
84246W        W56572   2.071   8.107   2.666
84247W        W56573  11.469  10.727   0.292
84248W        W56574   1.729   6.714   4.474
84249W        W56575  32.035  19.008  12.891
84250W        W56576  13.985  42.944   4.461
84251W        W56577  39.071  44.467  13.878
84252W        W56578  28.261   1.838  14.702
84253W        W56579  18.467   6.528  11.561
84254W        W56580  29.400  11.795  10.167
84255W        W56581  27.541  18.281   4.682
84256W        W56582  43.815  13.726   4.182
84257W        W56583  29.655  38.979   0.931
84258W        W56584   7.273   1.991  14.816
84259W        W56585   4.833   4.263  13.967
84260W        W56586  14.773  11.351   3.126
84261W        W56587  39.758  44.974   3.428
84262W        W56588  31.888  13.427   1.146
84263W        W56589  16.635  37.969   3.208
84264W        W56590  43.264  19.710   2.335
84265W        W56591  15.221  42.030   1.150
84266W        W56592  28.503   5.784   4.330
84267W        W56593  35.405  32.013   0.351
84268W        W56594  38.313  22.813   2.749
84269W        W56595  20.498   9.726   4.299
84270W        W56596  43.058   2.991  13.502
84271W        W56597  27.629   3.365   1.979
84272W        W56598  18.599  33.485  11.180
84273W        W56599  32.128  30.374  14.031
84274W        W56600   5.817  13.084   1.053
84275W        W56601  16.718  23.680   3.606
84276W        W56602  41.207  33.492   2.427
84277W        W56603  31.496  21.327   1.327
84278W        W56604  31.069  17.006   1.935
84279W        W56605  13.621  43.457  12.944
84280W        W56606   3.693  18.182   4.607
84281W        W56607  10.372  16.405   2.831
84282W        W56608  16.600  33.628  14.289
84283W        W56609   2.876  34.637   2.398
84284W        W56610  31.470  26.522  11.949
84285W        W56611   5.721  24.157   3.212
84286W        W56612  24.058   8.133  12.984
84287W        W56613  41.233  16.531  13.205
84288W        W56614   5.769   8.135   4.685
84289W        W56615  20.177  32.810   4.630
84290W        W56616  41.814   2.161  10.189
84291W        W56617   2.968  14.943   3.429
84292W        W56618   1.876   2.357   4.111
84293W        W56619  19.009  30.859   1.650
84294W        W56620  38.303  30.521   1.307
84295W        W56621  39.378   4.935   2.053
84296W        W56622   5.931  31.251  14.965
84297W        W56623  19.777  34.952  13.429
84298W        W56624  37.478   4.270   2.380
84299W        W56625  11.278  11.807  10.642
84300W        W56626   0.582  25.320   4.251
84301W        W56627  18.258  39.605  13.517
84302W        W56628  36.059  40.033   3.958
84303W        W56629  23.286  22.519  13.076
84304W        W56630   1.795  39.731  13.009
84305W        W56631  19.145  39.275  13.056
84306W        W56632  23.197  35.989   0.651
84307W        W56633   3.375  35.000   2.829
84308W        W56634   7.190  40.786  13.569
84309W        W56635  11.721   0.491  12.888
84310W        W56636  22.144   0.173   4.224
84311W        W56637  37.509  35.004  12.952
84312W        W56638  21.280  32.470   2.301
84313W        W56639  43.473  20.268   0.934
84314W        W56640  12.383  23.333  12.514
84315W        W56641   9.960  22.726   0.028
84316W        W56642   8.150  44.287  11.678
84317W        W56643  10.451  39.629  12.194
84318W        W56644  42.002  18.308  14.785
84319W        W56645  24.612  26.172   1.703
84320W        W56646  25.447  42.750   0.958
84321W        W56647  41.474  35.397  13.310
84322W        W56648  37.429  25.625  13.877
84323W        W56649  12.773   1.029  12.331
84324W        W56650  22.618  32.653  11.393
84325W        W56651  31.042  10.194   4.401
84326W        W56652   4.713   6.691   1.696
84327W        W56653   1.015  33.487  13.598
84328W        W56654  37.948  21.948  12.028
84329W        W56655   4.928  27.895  14.842
84330W        W56656  25.629   4.501  13.205
84331W        W56657   4.544  28.727  11.742
84332W        W56658  19.344  35.381   2.268
84333W        W56659  34.935  29.152  13.678
84334W        W56660  19.936  42.040   1.945
84335W        W56661  31.964  12.118   2.266
84336W        W56662   6.739  39.535  14.467
84337W        W56663  31.404   3.738  10.739
84338W        W56664  24.110  44.434   0.899
84339W        W56665   6.363  31.197   3.230
84340W        W56666   8.235  43.482   1.238
84341W        W56667  31.727   1.756  12.459
84342W        W56668   5.325  24.556   0.426
84343W        W56669  42.286  13.369  11.073
84344W        W56670  42.861   1.198   1.033
84345W        W56671  41.373  11.585   1.295
84346W        W56672  30.111  18.081   3.179
84347W        W56673  11.130  42.736   1.870
84348W        W56674  34.176   3.534   3.735
84349W        W56675  13.067  24.714  10.487
84350W        W56676   0.831  19.356  12.567
84351W        W56677   8.998  27.376   3.917
84352W        W56678  14.851  24.257  10.550
84353W        W56679  23.576  41.837   4.613
84354W        W56680   0.951  10.410  14.777
84355W        W56681  13.633  34.485   3.662
84356W        W56682  34.650  42.502   0.708
84357W        W56683  24.685  11.825   3.952
84358W        W56684  20.951  29.322   4.332
84359W        W56685  31.476  33.079   1.320
84360W        W56686  17.552   1.032  11.601
84361W        W56687  18.189  42.009  13.964
84362W        W56688  14.733  35.083  13.883
84363W        W56689  25.891  28.524  14.448
84364W        W56690  21.613  36.467  13.273
84365W        W56691   6.240  30.519  10.998
84366W        W56692  22.126  22.940   3.553
84367W        W56693   6.849   7.939   3.103
84368W        W56694  41.907  13.195   3.254
84369W        W56695  39.950   6.412  10.522
84370W        W56696  33.588  36.079  11.141
84371W        W56697  32.669   1.346   1.906
84372W        W56698  21.841   0.751  10.689
84373W        W56699  39.868  41.426  13.802
84374W        W56700  37.590   5.703   0.300
84375W        W56701  29.584   4.803   3.229
84376W        W56702  31.872  22.780  11.152
84377W        W56703  36.134   9.182   3.149
84378W        W56704  16.121  29.264  11.091
84379W        W56705  30.633   3.514  11.459
84380W        W56706  22.271   3.577  13.916
84381W        W56707   1.892  10.896   4.254
84382W        W56708  20.687  38.416   2.235
84383W        W56709  24.654  17.065  13.113
84384W        W56710  41.419  17.501   2.774
84385W        W56711  27.675  41.027  13.843
84386W        W56712  29.482  33.093  14.929
84387W        W56713  21.591  17.789   1.765
84388W        W56714  25.735  23.170   3.941
84389W        W56715  25.173  30.856   4.539
84390W        W56716   7.827  40.289  12.524
84391W        W56717  32.694  30.877  14.047
84392W        W56718  38.567  35.116  11.521
84393W        W56719  38.135  13.200   2.669
84394W        W56720  41.825   7.195   0.279
84395W        W56721  44.145  12.220   2.185
84396W        W56722  34.063  11.737  13.151
84397W        W56723  19.129  22.121   0.293
84398W        W56724   1.371   4.868  12.875
84399W        W56725  31.106  35.902  12.571
84400W        W56726  18.668  40.916   5.109
84401W        W56727  21.240  31.865   0.444
84402W        W56728  43.084  14.166  14.909
84403W        W56729  36.465  22.430   5.256
84404W        W56730  26.026  37.526  10.666
84405W        W56731   2.983  16.758  12.527
84406W        W56732   0.381  39.638   2.436
84407W        W56733  43.395  34.626  13.447
84408W        W56734  26.218  14.798   1.685
84409W        W56735  34.998  29.901   2.797
84410W        W56736  25.580  14.303  11.398
84411W        W56737  29.461  44.808   3.837
84412W        W56738  25.661  37.260   1.786
84413W        W56739  18.664  37.457  14.805
84414W        W56740  18.549  36.898  13.588
84415W        W56741   8.436  18.361  10.698
84416W        W56742  23.729  41.783   2.215
84417W        W56743  26.977  32.194   1.317
84418W        W56744   4.341   7.493  12.879
84419W        W56745  36.899  35.296  10.313
84420W        W56746  33.470  10.125   3.338
84421W        W56747  27.642   5.786   4.704
84422W        W56748  19.006  40.582   2.369
84423W        W56749  11.372  17.780   0.389
84424W        W56750   3.703  14.696   2.893
84425W        W56751  13.790  31.802  10.451
84426W        W56752   9.979   4.276   0.663
84427W        W56753  34.669  35.339   4.396
84428W        W56754  22.743  42.894  12.417
84429W        W56755  35.880  27.012   3.189
84430W        W56756  14.631   7.714   1.388
84431W        W56757  10.081  26.381  14.978
84432W        W56758  37.556  27.617   3.122
84433W        W56759  11.617   3.238  12.866
84434W        W56760   0.955  34.694  14.485
84435W        W56761  44.366  12.077  13.275
84436W        W56762  17.591  19.365  10.731
84437W        W56763   7.277  26.919  10.984
84438W        W56764  43.899  33.936  13.139
84439W        W56765  41.076  41.549   2.262
84440W        W56766  21.175   8.678   3.433
84441W        W56767  33.015  19.781   2.200
84442W        W56768  20.400  12.868   0.273
84443W        W56769   0.432  22.177   0.162
84444W        W56770  36.640  19.786  11.405
84445W        W56771  33.538  14.622  14.753
84446W        W56772  20.292  30.000   0.325
84447W        W56773  32.402   9.879  14.394
84448W        W56774   3.460  19.429  10.635
84449W        W56775  31.458  29.976  13.555
84450W        W56776   1.803  37.016   4.363
84451W        W56777  12.362  22.664   1.028
84452W        W56778  20.965   1.771  14.752
84453W        W56779  21.059  24.938  14.039
84454W        W56780   8.232  21.481   2.129
84455W        W56781  31.180   8.702   4.693
84456W        W56782  42.385  37.598  14.517
84457W        W56783   1.033  20.699  11.611
84458W        W56784  18.477  29.999   4.281
84459W        W56785  44.280   4.630   1.794
84460W        W56786  36.951  29.714  14.871
84461W        W56787  29.898  24.561  10.446
84462W        W56788  12.906   6.160   0.791
84463W        W56789   6.740   6.964   1.215
84464W        W56790  14.650  18.161  11.920
84465W        W56791  11.191  21.921   1.684
84466W        W56792  13.451   1.260   2.805
84467W        W56793   4.667  21.323  12.272
84468W        W56794  28.532  33.988   4.579
84469W        W56795  10.104   5.177  10.950
84470W        W56796  36.120  33.465   3.876
84471W        W56797  20.530  21.064   3.654
84472W        W56798  44.466  25.544   0.767
84473W        W56799  33.494  18.559  12.917
84474W        W56800  18.257  38.681   2.588
84475W        W56801   0.570  10.248  10.645
84476W        W56802  34.694  13.221   1.261
84477W        W56803  25.046  12.839   1.950
84478W        W56804  27.703   8.769  11.949
84479W        W56805   8.752   0.288   3.767
84480W        W56806  22.763   7.711  13.349
84481W        W56807  20.253   2.489  10.717
84482W        W56808  36.007  16.611  13.109
84483W        W56809   7.777  41.698   0.018
84484W        W56810  14.418   3.517   0.255
84485W        W56811  34.150   0.642  13.983
84486W        W56812   1.517   5.438   1.130
84487W        W56813  39.896  39.807  11.539
84488W        W56814  12.911   9.383   2.935
84489W        W56815  21.854  42.225   4.622
84490W        W56816  29.442  39.833   1.749
84491W        W56817  36.451  20.086  12.534
84492W        W56818  19.272  37.930   2.391
84493W        W56819  20.118  44.873  12.087
84494W        W56820  35.293  21.283  13.102
84495W        W56821  28.093  28.216  11.577
84496W        W56822  35.878  14.840  12.670
84497W        W56823  42.395   2.687  12.239
84498W        W56824  29.884  15.713   1.437
84499W        W56825   6.346  15.371  11.182
84500W        W56826  11.986  27.371   3.360
84501W        W56827   5.572  32.176  10.285
84502W        W56828   7.192  17.739   1.849
84503W        W56829  29.818  41.076   1.722
84504W        W56830  17.169  41.047  11.958
84505W        W56831  10.805   5.051  13.434
84506W        W56832  18.177   3.945   0.781
84507W        W56833   2.529  17.738   2.239
84508W        W56834  36.923  13.657   2.854
84509W        W56835  38.164  39.855  11.212
84510W        W56836   2.729  15.503   5.072
84511W        W56837  15.605  35.951  10.649
84512W        W56838   3.125   7.994   5.023
84513W        W56839  42.462  29.072   1.371
84514W        W56840  17.521  44.314   4.476
84515W        W56841   7.102   1.732  10.792
84516W        W56842  20.385  40.974   4.179
84517W        W56843  16.667   4.024  12.083
84518W        W56844  44.046  17.825   4.203
84519W        W56845  18.621  38.516   2.902
84520W        W56846  17.651  15.698   4.960
84521W        W56847  26.001  33.778  11.103
84522W        W56848  10.112  13.334  12.986
84523W        W56849  17.671  15.882  12.937
84524W        W56850  33.390   5.273   1.292
84525W        W56851  14.054   5.435  13.814
84526W        W56852  18.748  16.684   2.342
84527W        W56853  37.411   5.346  12.500
84528W        W56854  18.339   7.793   1.539
84529W        W56855  41.818  25.984   4.479
84530W        W56856  20.227  20.069   2.875
84531W        W56857  39.715   2.493   3.632
84532W        W56858  22.232   2.461  10.994
84533W        W56859  42.698  31.614  14.064
84534W        W56860  21.738  11.989   4.446
84535W        W56861  34.348  10.425   2.215
84536W        W56862  39.788  24.582   2.308
84537W        W56863  41.764   9.800   0.389
84538W        W56864  29.520  33.922  13.095
84539W        W56865  18.696  29.030  13.509
84540W        W56866  27.557   8.238  11.186
84541W        W56867  37.025  22.410  11.038
84542W        W56868   8.726  40.718   0.861
84543W        W56869  39.312  16.137   3.700
84544W        W56870  37.631  18.554   2.752
84545W        W56871   6.375   7.281   3.341
84546W        W56872   3.425   1.793   0.978
84547W        W56873   5.626   4.214  10.945
84548W        W56874  23.129  10.804   1.801
84549W        W56875  29.956  28.974   2.682
84550W        W56876   8.351  29.516   1.786
84551W        W56877  39.771  32.920  12.435
84552W        W56878  32.547  23.102  12.822
84553W        W56879  12.317  43.408  14.539
84554W        W56880  10.152  21.323   0.498
84555W        W56881   4.203  10.454  14.430
84556W        W56882  20.477  26.194  11.044
84557W        W56883   7.456  41.964  10.479
84558W        W56884   6.748  28.350  12.508
84559W        W56885  35.000  37.118  12.980
84560W        W56886  35.129  16.824   2.699
84561W        W56887  37.822  20.705   0.291
84562W        W56888  26.192  20.695  12.462
84563W        W56889   1.878  40.118  13.334
84564W        W56890  19.665  13.433   4.718
84565W        W56891  44.484  40.929  12.111
84566W        W56892  41.029  26.599   1.001
84567W        W56893   3.336   7.297   1.151
84568W        W56894  19.608  27.363   3.701
84569W        W56895  15.186  32.470  14.512
84570W        W56896  12.018  41.850  12.511
84571W        W56897  40.829   3.783  10.661
84572W        W56898   9.925  34.338   2.734
84573W        W56899  44.957  35.155   3.191
84574W        W56900  42.766   8.319  14.785
84575W        W56901   7.825   6.430   4.495
84576W        W56902  37.080  12.707   1.655
84577W        W56903  38.943  25.549   3.060
84578W        W56904   5.466  10.422  12.046
84579W        W56905  10.896   4.500  11.489
84580W        W56906  22.235  36.075   4.487
84581W        W56907  39.128  21.277   1.926
84582W        W56908  23.228  20.793  11.623
84583W        W56909  10.880  23.992   0.419
84584W        W56910  28.140  44.400   2.773
84585W        W56911  18.706  23.459   1.871
84586W        W56912  34.615  11.808  14.438
84587W        W56913  31.469   3.166  13.438
84588W        W56914  37.548   1.306  10.694
84589W        W56915  10.848  44.486  14.432
84590W        W56916   0.847  10.602  11.897
84591W        W56917  40.396  20.335  14.425
84592W        W56918  44.034  19.618  10.449
84593W        W56919  39.438  34.445   2.300
84594W        W56920  31.945  41.934  12.300
84595W        W56921  21.993  35.616   3.577
84596W        W56922   5.923   6.466   2.135
84597W        W56923  40.417  20.128   0.860
84598W        W56924  14.205  16.561  14.854
84599W        W56925  20.612  27.051   1.887
84600W        W56926  35.262  32.185  11.150
84601W        W56927  22.089  13.291  10.955
84602W        W56928  33.112  10.466   3.169
84603W        W56929  20.900  17.418   4.569
84604W        W56930   5.702  19.670   1.316
84605W        W56931  12.884   9.316  14.974
84606W        W56932   1.048  43.911   3.912
84607W        W56933   6.394   9.547  10.125
84608W        W56934  19.340  40.107   3.255
84609W        W56935  16.699  22.302   3.079
84610W        W56936  19.107  20.226  10.955
84611W        W56937  22.829   1.441  12.351
84612W        W56938  13.036  26.480   0.375
84613W        W56939   6.267  23.096   4.338
84614W        W56940   4.692   2.445   1.646
84615W        W56941  36.115   8.189   2.274
84616W        W56942  21.142  28.947   3.596
84617W        W56943  38.428  36.428   3.240
84618W        W56944   9.678  10.757  10.553
84619W        W56945  44.375  25.931   2.644
84620W        W56946  23.964   4.836   1.945
84621W        W56947   4.450  34.315   4.540
84622W        W56948  15.529  40.099  11.967
84623W        W56949   2.800  36.069   4.034
84624W        W56950   4.679  17.617  13.330
84625W        W56951  21.136   9.535  13.412
84626W        W56952  34.473  25.070  12.385
84627W        W56953   6.858  30.436   1.352
84628W        W56954   4.202  27.575   4.586
84629W        W56955  17.482  41.716  12.556
84630W        W56956  19.715  21.693   5.147
84631W        W56957  34.369  38.194   0.779
84632W        W56958  22.692   9.479  14.946
84633W        W56959  22.190   4.757   3.350
84634W        W56960  43.949   4.348  13.918
84635W        W56961  21.219  16.122   0.920
84636W        W56962  36.087  33.901   3.185
84637W        W56963  19.519  20.935   3.640
84638W        W56964  30.958  10.363  14.351
84639W        W56965  31.981   6.928  13.316
84640W        W56966   8.400   3.887  13.089
84641W        W56967   3.741  26.747  11.711
84642W        W56968   9.417  19.768   0.900
84643W        W56969   2.815   7.985   1.970
84644W        W56970   1.375  35.816  14.920
84645W        W56971  28.206  33.582  13.888
84646W        W56972  12.792  18.694   3.553
84647W        W56973  27.964  12.280  13.660
84648W        W56974  12.849  17.286  11.263
84649W        W56975  41.496  39.102   0.397
84650W        W56976  10.307  24.473  12.686
84651W        W56977  21.314   7.208  14.806
84652W        W56978   9.719  13.943  11.754
84653W        W56979  38.627  10.880  13.029
84654W        W56980   3.420  41.299   2.262
84655W        W56981   5.643   4.105  12.286
84656W        W56982  19.029   0.386  12.245
84657W        W56983  40.255  17.567  10.232
84658W        W56984  25.182  21.244   1.646
84659W        W56985  18.773   0.381  11.278
84660W        W56986  26.680  20.641  14.458
84661W        W56987   8.147  41.330   4.902
84662W        W56988  17.249  27.269   0.357
84663W        W56989   1.507   2.785  10.072
84664W        W56990  17.685  35.092  13.909
84665W        W56991  22.404  21.505  14.710
84666W        W56992  34.270   0.791  13.490
84667W        W56993   5.799  36.398   0.823
84668W        W56994  20.280  12.802  12.092
84669W        W56995   1.022  33.662  11.134
84670W        W56996  40.224   1.353   4.537
84671W        W56997  29.369  21.787  12.002
84672W        W56998   9.265  26.166  14.741
84673W        W56999  18.779  14.104  12.098
84674W        W57000  43.026   5.750  12.383
84675W        W57001  19.643   9.857   1.004
84676W        W57002  10.165  42.418  12.941
84677W        W57003  24.593  28.366  10.942
84678W        W57004   8.538  30.806  12.517
84679W        W57005  19.272  43.716   3.836
84680W        W57006  34.426  32.886   3.342
84681W        W57007   0.284  33.546   4.805
84682W        W57008  23.993  25.971  10.618
84683W        W57009  42.697  16.485  11.051
84684W        W57010  23.207  21.184  14.952
84685W        W57011  30.393  11.241   2.092
84686W        W57012  43.318  34.302   1.231
84687W        W57013   0.900  23.986   3.770
84688W        W57014   3.191  34.652   3.175
84689W        W57015  14.064  23.126  13.997
84690W        W57016  17.348  12.479  10.942
84691W        W57017  28.695  20.246   0.725
84692W        W57018  28.929  22.139   3.990
84693W        W57019   9.784  34.609   0.491
84694W        W57020   9.915  19.179   2.304
84695W        W57021  27.984  44.127   4.032
84696W        W57022  15.254  29.617  13.324
84697W        W57023  31.142  16.110  11.502
84698W        W57024  30.082  28.058   4.394
84699W        W57025  13.523  44.420  13.929
84700W        W57026  28.514  42.809   0.772
84701W        W57027   3.505   6.103  10.167
84702W        W57028  24.196   3.901  14.753
84703W        W57029  35.514   6.367  10.711
84704W        W57030  15.111  16.642  14.964
84705W        W57031  22.764  29.414   1.664
84706W        W57032   2.567  15.392   1.828
84707W        W57033   9.147  21.245   1.832
84708W        W57034  28.178  28.456   3.353
84709W        W57035  11.608  19.608   4.437
84710W        W57036  28.567   9.686  11.467
84711W        W57037  13.922  37.186  13.859
84712W        W57038  44.025  43.031   2.289
84713W        W57039  42.283  29.563  11.903
84714W        W57040  14.256  22.997   2.177
84715W        W57041   0.839  15.689   4.968
84716W        W57042   1.985  14.033   4.239
84717W        W57043   6.387  23.113   3.849
84718W        W57044  32.901  24.530   4.184
84719W        W57045  26.369  24.306  14.504
84720W        W57046  26.451   3.793  11.012
84721W        W57047   3.836  25.564   1.693
84722W        W57048  16.565   9.792  12.346
84723W        W57049  26.803  21.452  14.844
84724W        W57050  34.375  41.508   2.172
84725W        W57051   2.184  35.408  13.764
84726W        W57052  14.309  18.643   4.759
84727W        W57053  21.363  21.304   2.713
84728W        W57054  41.801   0.411   1.880
84729W        W57055  42.618  39.622  10.679
84730W        W57056  36.173  17.777   4.511
84731W        W57057  13.722  30.469  12.101
84732W        W57058  17.336  39.296  13.329
84733W        W57059  20.536  33.907   0.553
84734W        W57060  38.511  34.314   1.829
84735W        W57061  40.263  24.284   1.019
84736W        W57062   9.168  15.299   2.301
84737W        W57063   6.766  35.646  10.929
84738W        W57064  10.294  35.154   2.303
84739W        W57065   3.022   3.367  12.346
84740W        W57066   2.865  20.213  11.701
84741W        W57067  21.327  16.117  13.079
84742W        W57068  34.653  19.797   1.364
84743W        W57069   4.638  17.558   3.609
84744W        W57070  38.795  14.264  14.513
84745W        W57071  38.935   7.425  14.130
84746W        W57072   8.429  41.424  12.384
84747W        W57073  16.532  17.113  11.183
84748W        W57074  30.621  44.338   1.737
84749W        W57075  17.280   6.324  11.712
84750W        W57076  17.653  12.378   4.147
84751W        W57077  33.798  16.283   0.811
84752W        W57078  35.322   4.717   3.703
84753W        W57079   5.629  44.417   1.155
84754W        W57080   3.184   0.489   0.399
84755W        W57081  40.377   5.726  14.339
84756W        W57082  43.025  12.693  13.052
84757W        W57083  19.139  40.640  14.122
84758W        W57084  14.258  11.401   3.257
84759W        W57085  32.979  21.361   4.196
84760W        W57086  37.425  12.703   3.346
84761W        W57087  44.549  18.953   4.982
84762W        W57088  30.179  10.864   2.606
84763W        W57089  17.160  17.777   4.288
84764W        W57090   5.818  24.414  11.217
84765W        W57091  24.493  21.634  13.903
84766W        W57092  15.506   7.193   1.306
84767W        W57093  28.500  33.931   1.839
84768W        W57094   2.484  15.246  10.692
84769W        W57095  43.884  21.640   4.206
84770W        W57096  20.927  40.498   2.369
84771W        W57097  23.533   0.264   4.124
84772W        W57098  35.977   8.235  12.325
84773W        W57099  21.782   1.811   3.676
84774W        W57100   2.099  39.078   2.651
84775W        W57101  39.385   3.479   2.866
84776W        W57102  24.764  39.853   2.396
84777W        W57103  25.325  42.297  10.547
84778W        W57104   3.533  12.676   0.799
84779W        W57105  35.445  20.710   4.652
84780W        W57106  24.125  37.108  14.767
84781W        W57107  29.045   4.684   1.643
84782W        W57108  27.624   8.426   3.792
84783W        W57109  40.862  43.692   2.769
84784W        W57110  29.412  28.115   0.485
84785W        W57111   2.638  13.711  11.571
84786W        W57112  20.524  35.018  13.893
84787W        W57113   9.733  14.420  13.768
84788W        W57114  43.432  40.819   0.713
84789W        W57115  43.425   9.324   3.190
84790W        W57116  13.274  32.180   4.045
84791W        W57117  23.098   9.820   3.360
84792W        W57118  38.173   8.142  10.676
84793W        W57119   0.013   5.509   2.389
84794W        W57120  21.827   8.906   0.754
84795W        W57121  19.794  41.860   4.233
84796W        W57122  38.718  20.325   2.609
84797W        W57123  39.786  10.436  13.400
84798W        W57124  27.639  21.097   0.811
84799W        W57125  23.161  43.929   0.348
84800W        W57126  15.119  41.593   2.180
84801W        W57127   7.138  25.505   3.246
84802W        W57128   4.400  38.124   1.849
84803W        W57129   3.854  42.389   4.158
84804W        W57130  38.312   2.864   2.142
84805W        W57131  14.760  42.777   1.734
84806W        W57132  41.227  22.771  12.480
84807W        W57133   4.090  24.140  11.603
84808W        W57134  10.632  29.692  12.037
84809W        W57135   9.367  26.470  13.523
84810W        W57136  36.410  40.000   1.726
84811W        W57137  29.398  13.272  11.608
84812W        W57138  31.527  14.454   4.277
84813W        W57139  16.195  21.095  13.943
84814W        W57140  10.398  19.295   3.730
84815W        W57141  14.177  14.642  12.144
84816W        W57142   5.564  22.009  12.793
84817W        W57143  22.124  13.976   1.456
84818W        W57144  42.073  40.265  14.411
84819W        W57145   1.921   7.189  11.449
84820W        W57146  11.798  22.475   3.157
84821W        W57147  28.103  18.736   0.945
84822W        W57148  26.600  18.339   3.315
84823W        W57149  20.300  18.764   1.229
84824W        W57150  11.272   6.995   4.938
84825W        W57151   3.411  26.693  14.590
84826W        W57152  35.583  16.245  11.493
84827W        W57153  14.836  15.965   1.848
84828W        W57154  39.584  43.754  14.099
84829W        W57155   3.258  11.877   0.370
84830W        W57156  29.515  40.429   0.477
84831W        W57157   5.630  23.661   3.526
84832W        W57158  27.446  17.301   4.217
84833W        W57159   5.815   1.912  14.269
84834W        W57160  32.553   0.005  14.104
84835W        W57161  38.996  17.636  12.150
84836W        W57162  42.215  18.079   2.178
84837W        W57163  18.289   7.465   3.770
84838W        W57164  42.992  30.397   1.167
84839W        W57165  12.547  33.810  10.269
84840W        W57166  43.871  34.844  13.441
84841W        W57167  29.575  31.430  10.976
84842W        W57168  18.366  10.693  11.597
84843W        W57169  43.106  43.834  11.436
84844W        W57170  17.929  26.840  13.762
84845W        W57171   1.962   4.339   4.884
84846W        W57172  29.209  27.233   4.829
84847W        W57173  32.635   4.343  12.574
84848W        W57174   5.752  21.918  11.517
84849W        W57175  41.927  25.436  12.651
84850W        W57176  26.518  11.327   3.754
84851W        W57177  39.038  25.919  11.534
84852W        W57178   9.787  12.135   0.807
84853W        W57179  31.376  19.812   2.398
84854W        W57180  38.842  15.910  14.864
84855W        W57181  19.078  11.757   2.012
84856W        W57182  27.232  13.949   4.986
84857W        W57183  11.607   6.054  14.258
84858W        W57184   9.716   5.266   1.576
84859W        W57185   3.298  18.233  13.098
84860W        W57186  43.340  17.822  13.331
84861W        W57187  23.623  17.309   4.338
84862W        W57188  28.778  18.197  10.644
84863W        W57189  43.501  30.923  10.983
84864W        W57190   7.363  33.364  13.095
84865W        W57191  35.657  38.251   0.777
84866W        W57192  18.478  30.505  12.377
84867W        W57193   9.745   2.961  10.816
84868W        W57194   1.815  24.052  14.945
84869W        W57195  37.811  15.076   2.280
84870W        W57196  39.019   3.977  14.266
84871W        W57197  33.471   4.633   2.378
84872W        W57198   4.671  43.708  12.373
84873W        W57199   3.676  21.981   2.909
84874W        W57200  14.085  33.816   2.886
84875W        W57201  22.671  14.823   3.579
84876W        W57202  36.574  12.865   3.865
84877W        W57203  40.392  26.294   2.881
84878W        W57204   8.212   1.606   3.750
84879W        W57205   1.021  29.065   1.412
84880W        W57206  38.941  20.257  13.399
84881W        W57207  30.396  43.926  14.791
84882W        W57208  36.628  19.516  10.967
84883W        W57209  20.807  14.217   1.802
84884W        W57210  44.389  24.236  13.792
84885W        W57211  11.993  10.406   1.620
84886W        W57212   6.816  20.995  14.259
84887W        W57213   9.489  34.462  14.779
84888W        W57214   4.519  43.739   1.177
84889W        W57215  11.287  36.477  14.309
84890W        W57216  34.731   5.142  13.485
84891W        W57217   4.935   5.969   3.271
84892W        W57218  34.875   7.162   4.081
84893W        W57219  38.017  35.597   0.833
84894W        W57220  33.480  22.012   4.787
84895W        W57221  27.123  33.960  11.568
84896W        W57222  34.754  24.086  11.430
84897W        W57223  43.674  28.039   2.257
84898W        W57224  12.846  40.986   3.214
84899W        W57225   1.500  28.664  12.492
84900W        W57226   6.270   3.494   0.794
84901W        W57227  28.590   6.714   2.992
84902W        W57228   5.470  30.014   4.242
84903W        W57229  10.426   1.561   1.158
84904W        W57230   2.742  29.797   0.430
84905W        W57231  22.300  39.995  11.141
84906W        W57232  27.744  25.893   0.841
84907W        W57233   8.158  44.654  14.784
84908W        W57234  11.845  35.534   3.368
84909W        W57235  23.667  35.577  13.507
84910W        W57236  17.016  20.528   3.116
84911W        W57237  17.582   8.851   0.743
84912W        W57238  13.534  23.096   0.677
84913W        W57239  42.905  34.059   0.350
84914W        W57240  23.943  29.054   1.794
84915W        W57241  43.529   6.268  14.032
84916W        W57242  19.260  27.637  10.690
84917W        W57243  12.197  17.585   4.605
84918W        W57244  30.380   0.413  10.278
84919W        W57245   0.797  11.873   1.767
84920W        W57246  27.029  35.306   0.860
84921W        W57247  24.634  22.762   4.846
84922W        W57248  36.636  22.059   4.914
84923W        W57249  36.210  12.922  14.441
84924W        W57250  24.020   5.910   4.440
84925W        W57251   1.032  16.751  14.756
84926W        W57252  18.688  35.910   4.609
84927W        W57253  21.656  16.732   2.208
84928W        W57254  41.443  21.896   4.531
84929W        W57255  37.606  35.428  10.762
84930W        W57256  40.226  10.884   2.701
84931W        W57257  15.684   0.358  14.671
84932W        W57258  40.631  28.750   1.698
84933W        W57259  15.689  16.538  14.409
84934W        W57260   8.006  22.009   2.804
84935W        W57261  18.525  26.401   4.860
84936W        W57262  37.046  28.718  14.999
84937W        W57263  40.448  37.517  10.721
84938W        W57264  20.624  28.954   3.634
84939W        W57265   3.789  31.153   3.325
84940W        W57266  19.482  17.067   2.865
84941W        W57267  22.196   6.878  11.066
84942W        W57268  12.505  26.231  13.917
84943W        W57269  35.542   7.500  13.840
84944W        W57270  23.041  44.506  13.769
84945W        W57271  22.196  27.099   1.198
84946W        W57272  42.798   4.732  12.494
84947W        W57273  34.604  34.930   1.040
84948W        W57274  42.985   7.346   3.742
84949W        W57275  10.261  39.923   5.051
84950W        W57276  14.352  29.701   0.223
84951W        W57277  43.114  14.439  14.442
84952W        W57278  19.598  27.576  12.438
84953W        W57279   7.321  41.950   0.575
84954W        W57280  28.792  19.748  14.277
84955W        W57281  36.555  22.143   2.211
84956W        W57282   7.698   9.762  13.038
84957W        W57283   9.574   5.843   2.218
84958W        W57284  21.468  13.229   3.146
84959W        W57285  26.204  14.150  14.516
84960W        W57286   1.729  43.705  14.771
84961W        W57287  40.556  12.236  11.503
84962W        W57288   7.758   5.439  13.025
84963W        W57289  29.422  29.552   3.117
84964W        W57290  32.400  24.474  12.377
84965W        W57291  21.014  19.199  14.194
84966W        W57292  40.275  42.054  12.004
84967W        W57293  23.640  24.496  14.902
84968W        W57294   9.055   7.246  14.910
84969W        W57295  21.570   3.651  13.427
84970W        W57296  11.722  42.133   2.427
84971W        W57297  30.739  24.236   3.203
84972W        W57298  24.942  17.760  13.462
84973W        W57299  28.003  34.084  13.967
84974W        W57300   3.220  33.023   0.308
84975W        W57301   3.533  17.592   0.852
84976W        W57302  26.664  20.784  13.077
84977W        W57303  32.816  42.991  12.046
84978W        W57304  29.031  24.803   2.705
84979W        W57305  43.538  33.987   4.485
84980W        W57306  21.793   9.289   4.660
84981W        W57307  20.413   2.308  13.498
84982W        W57308  26.808   1.644  11.148
84983W        W57309  36.598   4.013  11.814
84984W        W57310   6.112  40.577   3.742
84985W        W57311  43.310  10.053  11.457
84986W        W57312  18.640   6.798  14.708
84987W        W57313  12.880  29.415   1.793
84988W        W57314   9.767  28.942   0.317
84989W        W57315  40.794  11.779  11.629
84990W        W57316  22.478  44.219   0.487
84991W        W57317  41.458  14.695  12.576
84992W        W57318  38.952  15.600   4.155
84993W        W57319  27.013   5.412   1.741
84994W        W57320  29.494  18.566  13.991
84995W        W57321  17.609  10.284   1.222
84996W        W57322  42.750  39.638   3.667
84997W        W57323  16.693  18.737  14.243
84998W        W57324   5.351  24.079  12.108
84999W        W57325  22.675  16.598   1.323
85000W        W57326  10.102  29.738  12.076
85001W        W57327  22.745  38.535  14.035
85002W        W57328  32.575  44.527  12.058
85003W        W57329  22.767  36.934   2.242
85004W        W57330  10.570  43.748   4.067
85005W        W57331  44.322   7.693   3.712
85006W        W57332  31.986  11.093  10.967
85007W        W57333  36.089   8.582   0.478
85008W        W57334  16.862  16.525   0.373
85009W        W57335  12.657  11.855   2.623
85010W        W57336  12.625   6.892   4.885
85011W        W57337   5.307   6.585  14.237
85012W        W57338  21.131  21.187  10.442
85013W        W57339  16.808  19.407  12.542
85014W        W57340   9.583  29.948  13.840
85015W        W57341  25.685  30.205   2.596
85016W        W57342  16.697  26.593   1.812
85017W        W57343   0.220  24.719   2.371
85018W        W57344  15.057  31.158  13.753
85019W        W57345  28.510  12.542  13.808
85020W        W57346   4.378  26.005  13.944
85021W        W57347  37.995  30.735   0.909
85022W        W57348  20.074  31.341  12.186
85023W        W57349  33.105   1.924   0.768
85024W        W57350   6.891  30.109  13.918
85025W        W57351  38.500  36.636   0.349
85026W        W57352  23.660  44.319  11.863
85027W        W57353  31.801  20.403   4.208
85028W        W57354   7.250  20.043   2.944
85029W        W57355  23.467  42.087  13.038
85030W        W57356  33.517   8.787   1.916
85031W        W57357  20.456  12.307   3.778
85032W        W57358  22.988  40.512  14.819
85033W        W57359  32.143  26.414  14.193
85034W        W57360  38.536  16.594   4.858
85035W        W57361  37.458  16.092  12.974
85036W        W57362  13.824   9.418  12.968
85037W        W57363   7.855  26.629  11.631
85038W        W57364  21.301  26.586   0.541
85039W        W57365  22.165  19.840   2.457
85040W        W57366  38.355  21.926  12.423
85041W        W57367   4.375  15.836   0.027
85042W        W57368  31.564  43.364  13.336
85043W        W57369   4.682  36.541   3.802
85044W        W57370   4.037  26.401   2.004
85045W        W57371  39.090  15.672  10.362
85046W        W57372  16.664  33.998   1.656
85047W        W57373   1.331  39.037   0.398
85048W        W57374  43.236  25.236   3.202
85049W        W57375   5.256   8.683  14.503
85050W        W57376  37.855  34.039  14.878
85051W        W57377  36.250  19.677   0.686
85052W        W57378  34.474  33.535  10.211
85053W        W57379  37.908  26.987   2.739
85054W        W57380   3.685   5.862  14.362
85055W        W57381  10.485  34.905  10.655
85056W        W57382  29.030  32.444  11.642
85057W        W57383  14.255  20.301  13.844
85058W        W57384  29.649  37.500   3.061
85059W        W57385  17.656   8.187   1.997
85060W        W57386   5.463  44.404   3.693
85061W        W57387  33.781   6.477  11.054
85062W        W57388   6.393  18.506   1.965
85063W        W57389  22.955  33.455   3.655
85064W        W57390  43.200  14.218   3.226
85065W        W57391  19.285   2.936  10.636
85066W        W57392  33.826  44.538   1.350
85067W        W57393  11.699  16.623  12.581
85068W        W57394  20.334  26.083   3.867
85069W        W57395  35.453   4.275  14.244
85070W        W57396  38.379  26.502   1.203
85071W        W57397  39.160  43.769  14.436
85072W        W57398  33.991   6.501   1.355
85073W        W57399  13.258  29.979   3.408
85074W        W57400  39.410   5.713  14.853
85075W        W57401  24.909  37.357   4.472
85076W        W57402  17.344  37.539   0.679
85077W        W57403  23.512  31.420   1.934
85078W        W57404   6.979  39.898   4.508
85079W        W57405   1.244  11.345   1.337
85080W        W57406  22.933  33.440   1.966
85081W        W57407  34.435   4.322   4.404
85082W        W57408  23.961  26.103   1.435
85083W        W57409  21.837  14.119   1.873
85084W        W57410   7.746  42.310   3.332
85085W        W57411  26.623   4.452  13.309
85086W        W57412  29.544  34.867   2.904
85087W        W57413  35.846   8.330   3.589
85088W        W57414   4.555  44.538  14.233
85089W        W57415  29.460  19.267   0.236
85090W        W57416  18.836  22.585   0.379
85091W        W57417  43.870  13.588   3.656
85092W        W57418  25.654   1.796   9.996
85093W        W57419  19.856   7.867  11.123
85094W        W57420  18.106  33.519   3.725
85095W        W57421  11.770  12.721   4.521
85096W        W57422  23.505  34.029  10.418
85097W        W57423  22.084  26.918  12.810
85098W        W57424  12.565  36.225  13.325
85099W        W57425   9.783   0.932   3.712
85100W        W57426  38.678  22.407  12.850
85101W        W57427  33.373   6.610  12.262
85102W        W57428  17.324  32.563  12.497
85103W        W57429  18.363  41.864  14.451
85104W        W57430  44.764  30.483   0.862
85105W        W57431  21.843  42.648   0.397
85106W        W57432  16.876  21.831   0.778
85107W        W57433   8.622  24.056   4.198
85108W        W57434  44.838   8.848  12.086
85109W        W57435   8.549  25.734   5.140
85110W        W57436  39.093  18.565   2.676
85111W        W57437  15.930  19.054   1.784
85112W        W57438  38.890  32.265   2.790
85113W        W57439   7.776  34.352  12.343
85114W        W57440   8.957  29.463   4.002
85115W        W57441  17.459  41.987   4.085
85116W        W57442  38.400  41.951   0.891
85117W        W57443   4.852  11.808   0.261
85118W        W57444   4.493  29.555  12.437
85119W        W57445   2.317  41.166   1.266
85120W        W57446   1.478  37.983   0.420
85121W        W57447  38.951  38.301  12.541
85122W        W57448  28.484  14.669   0.193
85123W        W57449  23.140  16.275  11.070
85124W        W57450   3.706  39.436  12.459
85125W        W57451   8.906   2.167  10.544
85126W        W57452   0.801  14.392  14.409
85127W        W57453  27.173  21.847   1.218
85128W        W57454  25.574  15.940  13.484
85129W        W57455   0.999  22.064  12.208
85130W        W57456   6.620  19.240  13.240
85131W        W57457   8.631  44.234  11.503
85132W        W57458  17.041   2.858   0.303
85133W        W57459  41.352  24.901  13.716
85134W        W57460  38.315   1.986   1.957
85135W        W57461  41.444  29.514  14.119
85136W        W57462  35.647  31.060   2.332
85137W        W57463  39.950   6.404  14.527
85138W        W57464  12.216  39.275   2.442
85139W        W57465  13.561  21.612  13.459
85140W        W57466   5.434  22.557   4.546
85141W        W57467   0.305   9.192  14.226
85142W        W57468  19.765  42.519   0.759
85143W        W57469  38.022  29.278  11.571
85144W        W57470   8.595  18.703  13.212
85145W        W57471  16.674  33.645   0.810
85146W        W57472  36.888   7.608   2.190
85147W        W57473  42.425  42.748  13.958
85148W        W57474  22.051  14.649  11.442
85149W        W57475   9.077  22.470   2.300
85150W        W57476  19.171  19.347   2.187
85151W        W57477  26.500  20.165   4.535
85152W        W57478  11.673  11.245   0.446
85153W        W57479   4.088   8.842  12.841
85154W        W57480   7.130  32.232   4.337
85155W        W57481  43.988  42.996  13.609
85156W        W57482   8.556  26.698   1.815
85157W        W57483  25.046  42.187  13.315
85158W        W57484   5.009  14.285   0.248
85159W        W57485  15.514  10.721   1.902
85160W        W57486   1.719  29.772   2.730
85161W        W57487  34.620  27.567  10.714
85162W        W57488   8.406  15.291   2.802
85163W        W57489   7.695  22.287  12.039
85164W        W57490  21.481  36.035  12.993
85165W        W57491  18.900  23.483   3.741
85166W        W57492  17.563   0.864  14.244
85167W        W57493  19.251  31.978  11.136
85168W        W57494  22.126   4.513  11.307
85169W        W57495  27.590  39.620   4.007
85170W        W57496  18.060  32.846   3.156
85171W        W57497  10.809  15.022  12.901
85172W        W57498  22.850  40.808   2.396
85173W        W57499  23.845  10.621  11.710
85174W        W57500  26.704  44.481   4.064
85175W        W57501   0.508  22.306  14.669
85176W        W57502  33.669   2.266   1.823
85177W        W57503  12.324  23.028  12.945
85178W        W57504  44.209  43.703  14.048
85179W        W57505   9.297  22.344   3.191
85180W        W57506   3.479  10.956  13.359
85181W        W57507  18.271  10.828  14.746
85182W        W57508  37.844  41.704   4.184
85183W        W57509  16.694   7.731  14.025
85184W        W57510  30.186  12.703  13.333
85185W        W57511  18.351  16.699   4.699
85186W        W57512  44.673   7.235  14.317
85187W        W57513  37.119  41.573  14.884
85188W        W57514  18.907  34.467   4.049
85189W        W57515  20.578  21.762  14.223
85190W        W57516  41.660  16.707  14.136
85191W        W57517  29.567   3.243  10.827
85192W        W57518   4.677  44.057   4.142
85193W        W57519   4.570  12.289   3.651
85194W        W57520   3.761   4.047   5.120
85195W        W57521  27.273  20.446   3.958
85196W        W57522  15.132  27.668  12.426
85197W        W57523   1.389  35.594   0.783
85198W        W57524  22.493  29.599  10.520
85199W        W57525  27.198  10.092  13.877
85200W        W57526  31.916  18.797   0.208
85201W        W57527  26.968  17.794  11.492
85202W        W57528  15.404  32.057   4.050
85203W        W57529  44.239  18.637  14.463
85204W        W57530  29.038  42.861   1.965
85205W        W57531  41.986  25.453  14.464
85206W        W57532   8.929  31.024  12.776
85207W        W57533  24.991  21.684  14.044
85208W        W57534   2.961  42.614   2.621
85209W        W57535  29.883   0.854   3.204
85210W        W57536   7.352   1.725   0.378
85211W        W57537  28.197  19.364  14.800
85212W        W57538  36.803  13.216  13.049
85213W        W57539  35.441  21.833  14.081
85214W        W57540  38.317  42.379  13.497
85215W        W57541  14.730  27.995   2.600
85216W        W57542   0.882  19.961   1.415
85217W        W57543  23.673  29.926   2.623
85218W        W57544   2.423  34.138   2.681
85219W        W57545  18.642  39.795  12.003
85220W        W57546  28.669  19.971  12.896
85221W        W57547  31.091  20.182  12.971
85222W        W57548   6.238  37.290  14.983
85223W        W57549  44.228   4.829   0.090
85224W        W57550  39.659  20.266   0.348
85225W        W57551  11.659  35.191  14.418
85226W        W57552  37.043  23.771  14.520
85227W        W57553   1.634  24.503  12.001
85228W        W57554  17.380  13.572   2.350
85229W        W57555  15.285  30.954   3.436
85230W        W57556  38.953  12.574   9.637
85231W        W57557   1.034  20.237   3.155
85232W        W57558   7.049   8.590  12.445
85233W        W57559  34.917  26.016   2.766
85234W        W57560  41.328  43.207  14.854
85235W        W57561  36.406  35.120  14.825
85236W        W57562   9.252  23.721   1.802
85237W        W57563   5.488  37.505  12.955
85238W        W57564  41.733   4.865  10.649
85239W        W57565  29.600  13.072  12.047
85240W        W57566  22.543  13.873  13.777
85241W        W57567  21.504  15.885   2.230
85242W        W57568  22.039   3.380   1.050
85243W        W57569   9.478  27.483   4.576
85244W        W57570   5.732  27.724  13.701
85245W        W57571  29.057   9.241   2.239
85246W        W57572  25.666   6.443  13.388
85247W        W57573  22.505  25.445  12.140
85248W        W57574  14.231  19.177  11.433
85249W        W57575  29.078  30.904  12.480
85250W        W57576  26.497  36.132  14.049
85251W        W57577   5.202  39.331  13.492
85252W        W57578  43.245  15.084  13.625
85253W        W57579  18.756  37.516  11.172
85254W        W57580  30.714  35.260  12.535
85255W        W57581  18.717  36.319  10.635
85256W        W57582  37.634  11.369   4.865
85257W        W57583  13.240  31.535  14.802
85258W        W57584  12.649  23.247   3.054
85259W        W57585  17.775   4.867   2.135
85260W        W57586  41.779  32.107  14.705
85261W        W57587  15.809  41.310   3.584
85262W        W57588  24.737  29.765  13.952
85263W        W57589   1.768   7.746  11.231
85264W        W57590  31.106  31.871  10.071
85265W        W57591  18.977  20.550   2.840
85266W        W57592  44.802  14.903   1.686
85267W        W57593  24.976  30.643   1.866
85268W        W57594  11.713  15.714   3.333
85269W        W57595   8.329   8.403  11.511
85270W        W57596  41.624   5.244   2.237
85271W        W57597  10.351  23.094  12.917
85272W        W57598  17.800  29.068  12.447
85273W        W57599  13.412  40.988  14.329
85274W        W57600  17.674  40.983  11.618
85275W        W57601  42.741  13.876   3.025
85276W        W57602   6.397  28.035   3.501
85277W        W57603  39.084  38.745  10.904
85278W        W57604   3.625  32.479  12.994
85279W        W57605  27.866  38.957  11.326
85280W        W57606  17.478  20.797  11.465
85281W        W57607  35.887  44.185   3.980
85282W        W57608  39.766  29.928   1.664
85283W        W57609  21.844  31.149  13.821
85284W        W57610  33.254   4.692  11.159
85285W        W57611  34.354  12.031  12.786
85286W        W57612  36.327  25.580  12.526
85287W        W57613  27.530  35.425  13.791
85288W        W57614  42.934  14.713   4.483
85289W        W57615  38.952   0.809   0.197
85290W        W57616  13.259  25.797   4.557
85291W        W57617  41.509  17.770   1.804
85292W        W57618  43.737  34.961  12.485
85293W        W57619  20.215  11.055   0.286
85294W        W57620  10.952  37.409  12.013
85295W        W57621  43.822  35.065   1.313
85296W        W57622   0.201  31.236   1.985
85297W        W57623   5.842  22.848  13.063
85298W        W57624  11.239  43.651  13.599
85299W        W57625   1.444   3.446  11.136
85300W        W57626  42.112   0.519   3.236
85301W        W57627  31.056  44.362   0.958
85302W        W57628  24.466  41.533  13.387
85303W        W57629   7.299   9.769  10.355
85304W        W57630   0.010  19.732  13.021
85305W        W57631  43.375   5.412  11.135
85306W        W57632  42.957  28.294   0.288
85307W        W57633   8.803  30.912   3.744
85308W        W57634  26.258  13.319   3.498
85309W        W57635  21.249   8.221  12.327
85310W        W57636   1.467  25.543   2.050
85311W        W57637   6.129  14.164   2.326
85312W        W57638  12.130  11.950   2.477
85313W        W57639  20.613  20.988  11.173
85314W        W57640  14.388  23.651   4.114
85315W        W57641  41.326  21.013   1.206
85316W        W57642  44.353  25.604   4.522
85317W        W57643  39.797  28.706  11.589
85318W        W57644  40.287  11.593  11.695
85319W        W57645  41.884  25.282   1.801
85320W        W57646  30.445  29.172   2.601
85321W        W57647  24.163  42.177   4.613
85322W        W57648  11.414  18.209  13.411
85323W        W57649   3.962  29.637   3.229
85324W        W57650  43.893  16.008   4.005
85325W        W57651  41.911  24.203  14.019
85326W        W57652  40.954  36.421   4.196
85327W        W57653  23.504  30.617  12.686
85328W        W57654  14.687  14.592   4.014
85329W        W57655  39.218  13.990   4.589
85330W        W57656  23.989   6.673  13.171
85331W        W57657  41.780  37.670  10.739
85332W        W57658  14.641   1.859  10.757
85333W        W57659   0.901  41.067   2.291
85334W        W57660  18.578  17.427  14.398
85335W        W57661   0.769  38.557   4.412
85336W        W57662   0.965  41.511   5.041
85337W        W57663   4.222  15.301   1.821
85338W        W57664  31.593  35.881  11.462
85339W        W57665  18.769  17.726   2.461
85340W        W57666  38.826  37.412  11.524
85341W        W57667  43.518  41.839   1.282
85342W        W57668  11.318  10.831   1.202
85343W        W57669  27.550  21.277  10.188
85344W        W57670  36.024   0.271  11.638
85345W        W57671  10.197  10.207   1.977
85346W        W57672  27.581  34.602  12.075
85347W        W57673   1.491   6.408   2.243
85348W        W57674  31.616   2.256  11.886
85349W        W57675  19.043  16.719  12.035
85350W        W57676  38.961  43.494   3.432
85351W        W57677  33.135  33.174  11.788
85352W        W57678   2.398  17.824   4.287
85353W        W57679   9.412  21.798  13.741
85354W        W57680   1.049  16.618   2.524
85355W        W57681  37.386  36.323  11.673
85356W        W57682  32.703  29.988   1.257
85357W        W57683  24.752  29.612  12.063
85358W        W57684  43.852   9.146  11.554
85359W        W57685  33.791  39.041  13.832
85360W        W57686  27.013  25.751  12.073
85361W        W57687  33.210  19.026   2.839
85362W        W57688   3.409   8.804  14.485
85363W        W57689  36.490  40.895  11.101
85364W        W57690  26.071  10.446  12.081
85365W        W57691   8.664  41.771   3.624
85366W        W57692   1.956  44.331   3.287
85367W        W57693  19.785  40.345  14.388
85368W        W57694  29.162  32.791   2.309
85369W        W57695  26.976  30.549  13.372
85370W        W57696   0.727  22.186   1.370
85371W        W57697  11.964  25.467  10.175
85372W        W57698   2.828  13.059   4.590
85373W        W57699   6.112  33.317   0.434
85374W        W57700  36.912  38.047   1.741
85375W        W57701  17.393  28.521  14.897
85376W        W57702   3.229   1.723   5.005
85377W        W57703  28.869  29.063   0.937
85378W        W57704   9.245  26.281  10.932
85379W        W57705   2.198  20.741  13.429
85380W        W57706  37.018  44.996  13.434
85381W        W57707  13.768  32.069   3.631
85382W        W57708  30.480  40.371  12.944
85383W        W57709  13.894  38.752   0.426
85384W        W57710  44.860  25.628   4.705
85385W        W57711   4.980  32.150  14.333
85386W        W57712  16.035  38.480   3.114
85387W        W57713  22.475  18.721  14.758
85388W        W57714  15.151  20.645   1.870
85389W        W57715  20.959  17.542   2.994
85390W        W57716  23.676   3.894   0.943
85391W        W57717  33.366  30.595   4.611
85392W        W57718  13.193  44.943   2.820
85393W        W57719  43.558  35.743   3.182
85394W        W57720  26.027  35.985  11.862
85395W        W57721  26.847  18.700   0.283
85396W        W57722  34.333  11.136   0.813
85397W        W57723   7.622  35.778  12.478
85398W        W57724  39.037   8.513   0.450
85399W        W57725  26.183  16.805  12.892
85400W        W57726  12.313  25.138   3.301
85401W        W57727  18.177  20.360  11.202
85402W        W57728  36.809  17.484  12.454
85403W        W57729  44.041  17.576   1.979
85404W        W57730  35.406  21.043   1.796
85405W        W57731  11.311  13.958   4.996
85406W        W57732  27.994   6.214  12.350
85407W        W57733  15.201  31.434   4.843
85408W        W57734  40.876  11.356  13.404
85409W        W57735  42.927   6.423   2.790
85410W        W57736  18.178  41.951   4.658
85411W        W57737   4.393  26.197  10.652
85412W        W57738  28.536  33.026   3.742
85413W        W57739  30.090   1.883   3.675
85414W        W57740  17.963   4.197   3.552
85415W        W57741   9.333  17.954   0.223
85416W        W57742  27.595  23.769   0.959
85417W        W57743  27.773  16.650  12.535
85418W        W57744  38.477  44.680   4.220
85419W        W57745   2.264   3.374   1.263
85420W        W57746  34.161  19.761  14.428
85421W        W57747  39.498  15.765   3.393
85422W        W57748  35.186  11.068   5.070
85423W        W57749  25.249   7.221   3.710
85424W        W57750  41.505   6.658   3.721
85425W        W57751  10.100  41.421  12.190
85426W        W57752  41.449  24.090   1.304
85427W        W57753  10.043  24.461  13.664
85428W        W57754  15.064  20.643  11.469
85429W        W57755  35.153  41.423   1.502
85430W        W57756  17.578  23.460  10.761
85431W        W57757   6.088  39.384   3.839
85432W        W57758  15.637   6.915  13.165
85433W        W57759   8.262  42.212  13.363
85434W        W57760  26.087  20.437  12.003
85435W        W57761  21.070  24.371  11.605
85436W        W57762  11.718  33.976  10.640
85437W        W57763  43.060  12.316  10.719
85438W        W57764  19.846  40.347   2.424
85439W        W57765  42.205   8.231  14.814
85440W        W57766  27.754  44.830  11.949
85441W        W57767  24.104  14.117  12.258
85442W        W57768  34.040  21.474   0.693
85443W        W57769  21.789   8.135  11.251
85444W        W57770  31.871  23.286   1.461
85445W        W57771  12.247  36.948  13.688
85446W        W57772   4.955  11.637  12.471
85447W        W57773  12.668  28.994   3.192
85448W        W57774  43.284   7.162   4.536
85449W        W57775  33.926  21.525   0.163
85450W        W57776  14.187  18.344  12.571
85451W        W57777  42.198   7.712   2.909
85452W        W57778  10.232  41.035  14.422
85453W        W57779  23.389  38.475   4.186
85454W        W57780  24.654  37.432  14.019
85455W        W57781   1.477  28.643   3.120
85456W        W57782  29.031  37.778   4.215
85457W        W57783  25.097  35.326   1.486
85458W        W57784  20.674   8.613   3.543
85459W        W57785   9.164   9.231   2.285
85460W        W57786  31.831   6.504  13.576
85461W        W57787  11.677   4.146  13.827
85462W        W57788   6.991  16.151  10.751
85463W        W57789   4.428  19.506  13.481
85464W        W57790  42.775  26.759  14.569
85465W        W57791  44.600   8.758   1.251
85466W        W57792  40.657   9.406   2.924
85467W        W57793   8.401  24.967  12.414
85468W        W57794  34.894  43.355   0.719
85469W        W57795  35.056   9.273   2.265
85470W        W57796   5.342  28.881   0.971
85471W        W57797   3.961   0.799   0.112
85472W        W57798  35.955  26.942   4.580
85473W        W57799  36.609  22.464   3.150
85474W        W57800  41.738  38.484  11.066
85475W        W57801   4.127  26.886   1.222
85476W        W57802  18.999   9.901   3.649
85477W        W57803   6.823  25.650   0.357
85478W        W57804  38.783  15.082  14.357
85479W        W57805   8.771  11.845   0.869
85480W        W57806  35.001  35.360  11.552
85481W        W57807  34.837  17.725  13.942
85482W        W57808  26.727  33.620   1.324
85483W        W57809  22.728  13.722   2.236
85484W        W57810  30.444   2.304   0.389
85485W        W57811  29.541  34.778  11.501
85486W        W57812  39.637   9.130  14.344
85487W        W57813  17.129  44.707   9.972
85488W        W57814  28.080  30.713  14.462
85489W        W57815  13.947  24.683   2.835
85490W        W57816  43.745   2.997   1.489
85491W        W57817  33.129  37.461   4.128
85492W        W57818  40.856  38.910  12.136
85493W        W57819  10.340  21.283  13.978
85494W        W57820   1.132   0.794  10.277
85495W        W57821  18.608   5.282  14.729
85496W        W57822   1.958  44.515   2.467
85497W        W57823  37.627  40.433  14.414
85498W        W57824  13.655  25.506  13.307
85499W        W57825  29.942  19.696   1.285
85500W        W57826  15.203  30.297  11.507
85501W        W57827  15.283  32.606  12.341
85502W        W57828  38.548   5.098   3.300
85503W        W57829  41.419  16.974   2.740
85504W        W57830  29.640  34.289  14.438
85505W        W57831  41.910  21.752   2.180
85506W        W57832  16.746  37.317   0.129
85507W        W57833  12.226  34.277   4.941
85508W        W57834  38.643  11.779  10.566
85509W        W57835  42.644  22.317   0.218
85510W        W57836  25.120  34.579   0.899
85511W        W57837  35.859  20.097   4.095
85512W        W57838  37.472  13.558  11.886
85513W        W57839   5.290  18.056  13.489
85514W        W57840   1.799   7.444  12.147
85515W        W57841  19.583  33.581   0.231
85516W        W57842  10.294  44.197   4.143
85517W        W57843  32.829  28.865  13.318
85518W        W57844  43.481   3.353  11.528
85519W        W57845  28.084  15.953   3.276
85520W        W57846  41.523   7.441  14.926
85521W        W57847   1.010   3.004   4.601
85522W        W57848  24.725  24.793   2.308
85523W        W57849  14.331  34.803   3.692
85524W        W57850   3.851  13.583   3.726
85525W        W57851  18.526  13.130  11.941
85526W        W57852  31.333   2.223   1.325
85527W        W57853  44.860   8.354  13.742
85528W        W57854  18.159   8.778   1.885
85529W        W57855  17.191  15.671   2.794
85530W        W57856  35.654   4.528   1.749
85531W        W57857  35.024  34.425  10.691
85532W        W57858  10.883  31.913   3.766
85533W        W57859  24.581   8.820   1.333
85534W        W57860  39.442  36.937   1.802
85535W        W57861   5.815  25.708   2.338
85536W        W57862  40.561  27.547  14.199
85537W        W57863  22.464  27.540   2.332
85538W        W57864  44.208   7.230  11.186
85539W        W57865   9.576  43.771   1.265
85540W        W57866  42.775  15.346  12.372
85541W        W57867   9.434   3.367  12.351
85542W        W57868  36.899  18.118  11.853
85543W        W57869  25.708  42.044  14.423
85544W        W57870  24.053  31.099   4.105
85545W        W57871  30.870   1.962   1.326
85546W        W57872  16.009  34.515  13.746
85547W        W57873   1.372  10.870   1.167
85548W        W57874  44.145  19.015   3.635
85549W        W57875  44.098   1.465  11.627
85550W        W57876  15.423  23.367  11.495
85551W        W57877  28.122   4.798  14.903
85552W        W57878  26.612  37.408  13.463
85553W        W57879  27.590  29.040  14.718
85554W        W57880  29.959   7.786   2.912
85555W        W57881  38.817  32.577  11.807
85556W        W57882  28.986  37.830  14.847
85557W        W57883  28.113   0.202  13.586
85558W        W57884   8.426  41.362   3.354
85559W        W57885   1.476  31.145   2.211
85560W        W57886  12.318  28.761  11.670
85561W        W57887  31.557  13.580  10.781
85562W        W57888   3.862  39.499  10.953
85563W        W57889  30.364  25.225   0.648
85564W        W57890  42.244  25.717   2.694
85565W        W57891  20.782  42.539   2.317
85566W        W57892  42.793   2.110   2.156
85567W        W57893   5.324  32.911  11.461
85568W        W57894  11.050  21.477  12.549
85569W        W57895  22.379  38.302   2.061
85570W        W57896  17.793  17.684  12.372
85571W        W57897  16.945  37.503  13.132
85572W        W57898   3.348  43.479   3.401
85573W        W57899  19.517  19.573   3.402
85574W        W57900  14.654  27.447  12.414
85575W        W57901  12.065  13.543  13.818
85576W        W57902  18.630   6.847  12.971
85577W        W57903  21.802   0.343   1.264
85578W        W57904  26.114  25.891   2.796
85579W        W57905   2.398  33.970  10.861
85580W        W57906  38.322  23.570   2.259
85581W        W57907  11.359  21.651  13.856
85582W        W57908   2.462  44.452   0.720
85583W        W57909  33.826  23.261   1.849
85584W        W57910  23.070  38.898   2.220
85585W        W57911  41.062  30.858  12.553
85586W        W57912   5.387  41.040   1.367
85587W        W57913  20.706  43.325   0.168
85588W        W57914  32.378  15.664   3.763
85589W        W57915  42.293  40.371   4.820
85590W        W57916  37.124  17.119  12.127
85591W        W57917  17.089  16.180   4.230
85592W        W57918  38.535   1.039   0.004
85593W        W57919  29.640  11.479   2.787
85594W        W57920   4.184  14.756   2.717
85595W        W57921  40.730  25.638   3.867
85596W        W57922  23.490   0.210  13.530
85597W        W57923  18.116  37.048   2.743
85598W        W57924   8.192   5.374  11.756
85599W        W57925   1.192   9.795  12.522
85600W        W57926   1.245  38.622   2.937
85601W        W57927  10.609  18.233  11.084
85602W        W57928   6.414  23.495  13.600
85603W        W57929  24.140   6.871  14.378
85604W        W57930  40.850  27.946  11.959
85605W        W57931   1.657   4.324   2.173
85606W        W57932  32.429  35.021  13.784
85607W        W57933  21.572  26.375  12.078
85608W        W57934  21.297   3.153   4.153
85609W        W57935   0.836  27.824   0.130
85610W        W57936   4.293  22.749   3.071
85611W        W57937  38.576  34.990   4.066
85612W        W57938   8.248  28.101   2.355
85613W        W57939  18.798  41.040   2.603
85614W        W57940  14.603  14.541  10.783
85615W        W57941  44.357  35.781   1.857
85616W        W57942  40.884  13.036  14.034
85617W        W57943   3.112  36.077   2.268
85618W        W57944  23.332  22.493   2.990
85619W        W57945  33.385  39.283   0.203
85620W        W57946  12.808   2.059  13.484
85621W        W57947  14.853  27.169   2.220
85622W        W57948  15.880  15.515  14.328
85623W        W57949  13.890  31.496   1.930
85624W        W57950  42.033  42.271  12.414
85625W        W57951  44.228  36.250  12.205
85626W        W57952   6.140   7.627   0.442
85627W        W57953   7.517  30.906   4.208
85628W        W57954  38.577  33.518   5.040
85629W        W57955   0.505   6.972   0.896
85630W        W57956  14.671   2.516   0.437
85631W        W57957   8.987   5.811   1.859
85632W        W57958  38.333  38.204  14.685
85633W        W57959   8.653  12.826   3.676
85634W        W57960   4.954   0.354   4.976
85635W        W57961   9.913  30.971   4.579
85636W        W57962  10.545  12.558   2.159
85637W        W57963  30.292  21.289   0.253
85638W        W57964  16.962  40.566   4.288
85639W        W57965  36.006  35.744   1.208
85640W        W57966  14.353  30.075   4.982
85641W        W57967  12.797  42.922   1.751
85642W        W57968  43.749  37.370   2.861
85643W        W57969  40.457   0.461   2.284
85644W        W57970  14.892  25.119  10.637
85645W        W57971  22.559  29.506   3.093
85646W        W57972  17.156  25.922   3.138
85647W        W57973  20.860  40.844  12.357
85648W        W57974  32.735  28.420   0.822
85649W        W57975  33.918  39.011  10.680
85650W        W57976   7.290  20.971  13.393
85651W        W57977  21.609  34.603   0.379
85652W        W57978  29.525   5.145  14.794
85653W        W57979  30.588  37.099   4.881
85654W        W57980   4.265   4.215   5.045
85655W        W57981  18.629  23.247  12.787
85656W        W57982   1.451  20.393   1.942
85657W        W57983  30.071   3.078  12.912
85658W        W57984  13.688   2.034   3.269
85659W        W57985  15.712  12.536  13.321
85660W        W57986  39.291  32.976   2.223
85661W        W57987  21.771  31.867  11.527
85662W        W57988  37.601  12.262   4.689
85663W        W57989  17.631  19.989   3.187
85664W        W57990  20.300  44.179   4.557
85665W        W57991  34.644  19.027  14.876
85666W        W57992  20.006  22.131   4.256
85667W        W57993  42.002   8.617  11.593
85668W        W57994  42.061  33.965  10.724
85669W        W57995  27.077  16.157   2.410
85670W        W57996  31.640  17.837  11.772
85671W        W57997  22.457   7.019   1.765
85672W        W57998  17.137   9.390  12.906
85673W        W57999  43.044  29.401  13.412
85674W        W58000   9.832  35.795  12.960
85675W        W58001  25.571  29.015  14.807
85676W        W58002   8.716  27.913  11.118
85677W        W58003  35.575  42.835  14.750
85678W        W58004  27.257  21.571   0.044
85679W        W58005  13.149  21.964  12.534
85680W        W58006  36.407  36.846   0.417
85681W        W58007  13.872  35.079   3.659
85682W        W58008  11.187  42.453  10.704
85683W        W58009   3.782  43.110   4.683
85684W        W58010  38.132  25.799  13.126
85685W        W58011  37.341  44.856   4.151
85686W        W58012   9.249   4.682   0.036
85687W        W58013  42.814  34.935  13.827
85688W        W58014  31.677   2.770   0.471
85689W        W58015  11.094  12.623   0.792
85690W        W58016   7.000  13.281   1.833
85691W        W58017  12.711   2.450  13.110
85692W        W58018  13.237  30.148  11.360
85693W        W58019  36.518   4.196  13.672
85694W        W58020  42.869   5.276  11.547
85695W        W58021   3.755  29.448  14.019
85696W        W58022  36.501  44.269   2.698
85697W        W58023  42.776  38.429  14.095
85698W        W58024  34.966  23.889  12.767
85699W        W58025  24.703   4.663   2.167
85700W        W58026  40.847  30.643   4.796
85701W        W58027   0.334  39.281   2.845
85702W        W58028  25.975  30.935  12.534
85703W        W58029   5.061  16.641   3.181
85704W        W58030  39.440  19.238   1.867
85705W        W58031  44.062  35.759  12.088
85706W        W58032  32.475  42.264  11.671
85707W        W58033  42.325  16.570  10.686
85708W        W58034  41.899  31.068   2.609
85709W        W58035   6.275  39.547   3.391
85710W        W58036  31.194  30.152  11.235
85711W        W58037   8.089  41.777  12.998
85712W        W58038  33.399   1.547  14.001
85713W        W58039   7.381  15.789   3.847
85714W        W58040  30.896   8.909   1.850
85715W        W58041  24.296   5.789  10.421
85716W        W58042  36.961  29.099   3.985
85717W        W58043   0.359  17.342   1.824
85718W        W58044  11.965  10.091   4.253
85719W        W58045  34.568  26.327  11.065
85720W        W58046  28.505   7.662   2.766
85721W        W58047  31.669  24.042  11.616
85722W        W58048  43.001  41.035   1.238
85723W        W58049  44.878  13.387  14.349
85724W        W58050  21.562   2.849   4.662
85725W        W58051   8.656  28.171   1.742
85726W        W58052  23.200  28.411  11.589
85727W        W58053   9.625  10.380   0.277
85728W        W58054   5.423  27.406   4.593
85729W        W58055  18.686  27.400   3.733
85730W        W58056   6.540  22.514   2.743
85731W        W58057  44.064   2.775   4.423
85732W        W58058  28.251  27.589  12.076
85733W        W58059  26.737  16.718   2.579
85734W        W58060  36.167  19.719  11.166
85735W        W58061  39.181  32.200  12.556
85736W        W58062  16.361   1.743   0.932
85737W        W58063  14.526  28.584  12.990
85738W        W58064  31.918  35.964   9.934
85739W        W58065   6.715  10.699   2.022
85740W        W58066  41.522  19.519   2.766
85741W        W58067   6.210  42.954  11.644
85742W        W58068   7.818   8.817   2.784
85743W        W58069   1.695  13.064   3.282
85744W        W58070  44.685  33.439   3.667
85745W        W58071  23.593  40.984  10.504
85746W        W58072  40.936  28.571  14.825
85747W        W58073  21.514  38.028  11.533
85748W        W58074   8.833  12.875   0.808
85749W        W58075  25.603  34.641  11.160
85750W        W58076  43.498  43.771  14.781
85751W        W58077  32.224  26.921   4.317
85752W        W58078  22.972  18.173  10.731
85753W        W58079  29.351  28.603  12.556
85754W        W58080  36.825  11.086   0.249
85755W        W58081  11.233  28.241   0.398
85756W        W58082  43.915  33.015  13.068
85757W        W58083   1.002  44.381   2.193
85758W        W58084  15.777  21.085   1.809
85759W        W58085  37.538  32.941   0.072
85760W        W58086  26.172  12.189  12.684
85761W        W58087  10.295   6.878   4.339
85762W        W58088  13.546  41.482   3.174
85763W        W58089  34.890  28.215   2.122
85764W        W58090   8.357  32.499  13.342
85765W        W58091  32.674   2.145  11.215
85766W        W58092  26.153  27.110  14.013
85767W        W58093  23.812  11.525  14.984
85768W        W58094  19.766  41.879   0.680
85769W        W58095  25.183  39.191  12.427
85770W        W58096   9.883  43.461  11.929
85771W        W58097  20.599  14.159   2.266
85772W        W58098  22.104  35.109   2.913
85773W        W58099   7.079  13.828   2.228
85774W        W58100   3.236  37.723   2.394
85775W        W58101  36.496  25.701   0.313
85776W        W58102  30.951  33.375   2.229
85777W        W58103   4.776  32.435   4.579
85778W        W58104  32.710  37.859   0.965
85779W        W58105  33.975   8.570  12.982
85780W        W58106  14.400  37.994  12.852
85781W        W58107  12.472  36.238   1.226
85782W        W58108  25.472  28.144   4.572
85783W        W58109  37.669   8.265  10.532
85784W        W58110  21.953   9.688   1.739
85785W        W58111  18.313   3.694  11.263
85786W        W58112  13.496  32.788  11.244
85787W        W58113  16.255  38.636   2.678
85788W        W58114  27.801  19.069  11.069
85789W        W58115  41.574  36.190   2.793
85790W        W58116  26.420  20.502  14.884
85791W        W58117   9.311   0.228   0.867
85792W        W58118  18.258  22.088  10.481
85793W        W58119  13.248  16.067   1.804
85794W        W58120  12.691   0.170  14.242
85795W        W58121  36.026  26.819  12.561
85796W        W58122  18.895  17.849  14.767
85797W        W58123  14.124  43.663  14.333
85798W        W58124   5.469  29.433  14.327
85799W        W58125   3.797  23.642  13.052
85800W        W58126  33.831  37.146  13.546
85801W        W58127  12.171  22.330   2.789
85802W        W58128   2.797  27.925   2.297
85803W        W58129  42.491  40.592  10.599
85804W        W58130  28.467   4.735  14.479
85805W        W58131  17.103  39.973   3.651
85806W        W58132   2.204  28.924  13.279
85807W        W58133  34.486   2.238   4.532
85808W        W58134  10.611  38.670   1.493
85809W        W58135  35.430   0.847   3.405
85810W        W58136  43.900  36.551  10.453
85811W        W58137  33.410   2.318   0.370
85812W        W58138  25.696  13.192   4.167
85813W        W58139  35.333  22.039   3.467
85814W        W58140   4.176  38.867   1.320
85815W        W58141  13.060  25.452   1.183
85816W        W58142  38.362  14.259  13.735
85817W        W58143  31.477  18.158   4.568
85818W        W58144   8.308   5.101  13.417
85819W        W58145  36.016  42.901  13.113
85820W        W58146   0.976  10.751   5.129
85821W        W58147   1.397  23.908   4.031
85822W        W58148  43.742   8.299   1.012
85823W        W58149  36.184  43.937   1.701
85824W        W58150  22.105  26.493   2.501
85825W        W58151   1.028  34.996   2.347
85826W        W58152  32.986   3.445  13.400
85827W        W58153   1.012  44.030   3.394
85828W        W58154  13.021  42.706   2.697
85829W        W58155  34.937  13.746   1.333
85830W        W58156  25.224  12.365   3.318
85831W        W58157   3.407  16.494   0.040
85832W        W58158  22.714   4.546  13.763
85833W        W58159  28.063  11.276   2.785
85834W        W58160  10.037  20.145   2.970
85835W        W58161  16.351  43.934  11.147
85836W        W58162  41.783   8.480  10.697
85837W        W58163  12.625   2.944  13.324
85838W        W58164  30.873   6.896   4.946
85839W        W58165  24.793  17.173   4.893
85840W        W58166  27.467  33.069   2.279
85841W        W58167  17.126  42.106   0.912
85842W        W58168  28.856  10.310   4.757
85843W        W58169  14.152   6.341  13.427
85844W        W58170  32.838  20.796  13.995
85845W        W58171  42.413  22.432   0.672
85846W        W58172  33.043  41.797  14.820
85847W        W58173  13.157  17.025   4.604
85848W        W58174  22.620  32.574  10.900
85849W        W58175  40.651  43.980   3.574
85850W        W58176  34.051   2.647   4.709
85851W        W58177   7.770  44.827   4.572
85852W        W58178  13.753   1.622  13.508
85853W        W58179  11.359   8.249  13.798
85854W        W58180  27.688   0.193   3.207
85855W        W58181   8.195  35.362   4.505
85856W        W58182  13.299   0.432   2.916
85857W        W58183  24.057  24.593   3.403
85858W        W58184  29.165  15.195  14.669
85859W        W58185   0.322  16.051   0.403
85860W        W58186  19.614   0.233  13.711
85861W        W58187   7.369  12.408   2.258
85862W        W58188  41.625  29.917  13.555
85863W        W58189  18.383  23.146   0.954
85864W        W58190  35.541  27.923  14.459
85865W        W58191   4.085  18.516   1.310
85866W        W58192   2.839  37.872   4.800
85867W        W58193  33.971   7.301  10.757
85868W        W58194  27.819  18.997   2.151
85869W        W58195   3.073  10.602  13.312
85870W        W58196  34.472  22.454  12.857
85871W        W58197  18.982   6.173   4.997
85872W        W58198   1.072  17.097  10.010
85873W        W58199  42.245   0.843   2.144
85874W        W58200  26.663  39.299  13.934
85875W        W58201  31.066  37.457   9.757
85876W        W58202   9.788  27.613  10.697
85877W        W58203  25.614  44.016   2.199
85878W        W58204  12.244  20.285  13.494
85879W        W58205  38.581  24.005  10.720
85880W        W58206   4.908  33.485   4.641
85881W        W58207  26.925  20.446  14.031
85882W        W58208  25.525  36.120   2.633
85883W        W58209  28.629  39.955   0.727
85884W        W58210  41.609  33.805   3.207
85885W        W58211  25.204  13.400  12.993
85886W        W58212  11.024  41.691   4.152
85887W        W58213  37.192   5.216  12.058
85888W        W58214   7.233   4.240  10.243
85889W        W58215  19.697  44.960  11.625
85890W        W58216  41.406  26.449  14.786
85891W        W58217   6.851  10.162   2.735
85892W        W58218  26.111  29.071  11.249
85893W        W58219  17.531  18.572   1.714
85894W        W58220   2.325  44.847  14.121
85895W        W58221  36.392  40.855  13.771
85896W        W58222   9.737  21.002  11.156
85897W        W58223   2.430   2.688  13.683
85898W        W58224  10.323  20.191   1.986
85899W        W58225  29.032  34.660  14.198
85900W        W58226  35.589  23.017   2.451
85901W        W58227  19.124  28.508   1.470
85902W        W58228   7.563  22.088  14.877
85903W        W58229   9.371  41.297  10.732
85904W        W58230   3.627   2.309   3.992
85905W        W58231   4.248  16.340   3.686
85906W        W58232  10.599  25.729   2.535
85907W        W58233  26.234  11.219   3.331
85908W        W58234  42.025   4.251  11.884
85909W        W58235  13.741  43.307   3.663
85910W        W58236  36.435  29.617   3.830
85911W        W58237  28.984  42.273   0.837
85912W        W58238  23.942   5.893  14.720
85913W        W58239  13.333   0.793   2.508
85914W        W58240  27.094   8.273   3.079
85915W        W58241  32.407  38.813   3.759
85916W        W58242   8.120   4.781   4.141
85917W        W58243  38.036  29.483   3.600
85918W        W58244   7.123  32.423   2.296
85919W        W58245   8.949   7.037   1.297
85920W        W58246  31.605  21.141   0.853
85921W        W58247  28.224  16.715   1.460
85922W        W58248   7.733  21.342  10.603
85923W        W58249  18.095  26.031   2.156
85924W        W58250  19.930  11.596  12.036
85925W        W58251  34.525  41.665  11.163
85926W        W58252  25.164  10.302  12.025
85927W        W58253  38.930  23.746  13.352
85928W        W58254   5.482  43.854  12.057
85929W        W58255   5.858  22.291   1.260
85930W        W58256   0.647  38.351  12.477
85931W        W58257   3.806  44.038  12.499
85932W        W58258   5.479  30.919   2.742
85933W        W58259  11.669  35.680   2.781
85934W        W58260   8.928  25.790  13.340
85935W        W58261  23.797  20.169  12.047
85936W        W58262  18.408  37.356  13.874
85937W        W58263  33.416  17.092  13.513
85938W        W58264  25.943  27.770  13.325
85939W        W58265  16.058  18.734   0.877
85940W        W58266  27.114  16.171  13.502
85941W        W58267  40.694   7.277  13.480
85942W        W58268  28.564  10.733  11.280
85943W        W58269  22.942  10.363  13.945
85944W        W58270   6.975  12.066   2.348
85945W        W58271   0.755  25.224   0.365
85946W        W58272  41.047  21.185   0.020
85947W        W58273  24.938   2.798   1.913
85948W        W58274  32.968  42.498  10.599
85949W        W58275  22.595   6.125   1.432
85950W        W58276   5.546   3.270   3.126
85951W        W58277  24.662  14.436   4.972
85952W        W58278  28.852  40.490   4.929
85953W        W58279  38.364  20.264   2.966
85954W        W58280  23.459   2.398  11.611
85955W        W58281  34.024  33.087   4.641
85956W        W58282  29.214  22.189   0.770
85957W        W58283  20.016   5.328   3.572
85958W        W58284   7.838  26.579   4.565
85959W        W58285  11.231   0.474   4.471
85960W        W58286  11.247  32.880  11.072
85961W        W58287  19.981   6.266   4.338
85962W        W58288  39.440  44.434  13.502
85963W        W58289  35.820  10.712   3.760
85964W        W58290  33.959  34.842  13.618
85965W        W58291  35.411   7.742   0.670
85966W        W58292  41.841   3.271  13.346
85967W        W58293  41.054   5.369  12.947
85968W        W58294  35.019   5.674   0.457
85969W        W58295   9.198  17.645   3.751
85970W        W58296  39.474   7.377   1.337
85971W        W58297  28.465   8.078  12.163
85972W        W58298   9.210  20.175  13.228
85973W        W58299  21.624  35.428   4.875
85974W        W58300  19.013  35.608   1.918
85975W        W58301   1.913  25.273   4.556
85976W        W58302   6.977  19.727   3.307
85977W        W58303   1.232  22.677  13.999
85978W        W58304  17.636  35.124  11.314
85979W        W58305  15.214  39.575   2.655
85980W        W58306  39.980  43.409  13.563
85981W        W58307  29.521  31.938  11.069
85982W        W58308   9.844  29.225  13.503
85983W        W58309  22.188  31.494  13.986
85984W        W58310   6.418   7.296  14.092
85985W        W58311  38.025   9.934   9.852
85986W        W58312  33.417   0.312   3.341
85987W        W58313  15.687  26.781   1.736
85988W        W58314  11.788  34.419  12.824
85989W        W58315  37.609  16.437   3.144
85990W        W58316  18.732  32.940   3.371
85991W        W58317  19.536   0.459   4.693
85992W        W58318   8.045  31.624   3.709
85993W        W58319  16.971  25.163  11.840
85994W        W58320   9.690  13.459  11.980
85995W        W58321  10.789  29.192  12.110
85996W        W58322  14.642  10.772  13.950
85997W        W58323   7.899  40.825   2.219
85998W        W58324  14.339   3.646  12.075
85999W        W58325  44.771  41.580   3.229
86000W        W58326  35.974  21.416  11.973
86001W        W58327  11.736  27.511  14.011
86002W        W58328  25.137  35.943   4.681
86003W        W58329   5.266  24.248  13.413
86004W        W58330   3.788   7.342   1.445
86005W        W58331  38.415  23.663  14.550
86006W        W58332  34.616  15.773   0.476
86007W        W58333  35.174  30.554   1.501
86008W        W58334  18.258  18.784  11.098
86009W        W58335  35.998  20.334   0.474
86010W        W58336  38.130   1.522   2.327
86011W        W58337  27.042  15.032  13.006
86012W        W58338  16.320  24.031   4.198
86013W        W58339  22.763   7.706   2.961
86014W        W58340  10.687  14.709  14.032
86015W        W58341  16.295  41.049  13.887
86016W        W58342  37.088  35.946  12.144
86017W        W58343  40.523  41.832  11.605
86018W        W58344  12.377  23.492   4.329
86019W        W58345  43.750   4.453   2.145
86020W        W58346  12.284  27.483   2.387
86021W        W58347  41.437   2.283   4.170
86022W        W58348  11.525  11.870   4.373
86023W        W58349  17.899  22.524   0.750
86024W        W58350  36.849  33.351   2.611
86025W        W58351  23.588  41.760  11.672
86026W        W58352  21.983  38.584  10.589
86027W        W58353  33.526   9.430   1.358
86028W        W58354  24.114  15.118  12.193
86029W        W58355  23.154  28.009   1.381
86030W        W58356   5.342   4.909   3.786
86031W        W58357  13.755  33.431   4.221
86032W        W58358  24.657  20.170  14.970
86033W        W58359  42.892  22.617   0.580
86034W        W58360  15.992  36.908  14.981
86035W        W58361  38.592  34.857   0.954
86036W        W58362   7.916  29.391   0.865
86037W        W58363  36.635  23.182   1.474
86038W        W58364  13.394  33.691   0.365
86039W        W58365  30.337  19.259   0.855
86040W        W58366  29.016   1.944   2.649
86041W        W58367  25.615   7.823   0.128
86042W        W58368   7.271   9.821  13.922
86043W        W58369  24.088  35.599  13.896
86044W        W58370  22.658  15.597   4.547
86045W        W58371  28.218  14.241   0.410
86046W        W58372  39.493  40.914  10.900
86047W        W58373  12.779  20.424   1.557
86048W        W58374  42.308  18.080   0.930
86049W        W58375  24.441   8.756  12.901
86050W        W58376  40.442  28.723   0.735
86051W        W58377   5.042  42.429  13.565
86052W        W58378  37.763  15.236  11.652
86053W        W58379  36.320  43.228  11.052
86054W        W58380  37.098  18.022  10.395
86055W        W58381  18.660  18.982   1.863
86056W        W58382  21.405  26.037  12.979
86057W        W58383  42.093  39.372  14.777
86058W        W58384  22.191   0.302   2.601
86059W        W58385  23.247   2.791  12.444
86060W        W58386  13.316  30.417   3.095
86061W        W58387  10.370   7.144   1.725
86062W        W58388  36.478  15.740   1.225
86063W        W58389  44.724  41.971  14.349
86064W        W58390  37.425   0.998   2.389
86065W        W58391  31.651  40.475  11.448
86066W        W58392  20.127  25.684  13.240
86067W        W58393   1.844   0.793   0.067
86068W        W58394  12.193  11.734   0.446
86069W        W58395  25.045  20.785   3.281
86070W        W58396  16.573  44.852   3.207
86071W        W58397  33.027   9.549   4.916
86072W        W58398  10.917  38.428  13.570
86073W        W58399  11.668  10.280  11.855
86074W        W58400  40.026  22.270   0.906
86075W        W58401  40.863  38.551   2.144
86076W        W58402  44.258   2.764  11.514
86077W        W58403   6.933   5.164   3.764
86078W        W58404  28.929  16.052   3.523
86079W        W58405  32.375  18.692   1.872
86080W        W58406  39.461   1.761  14.369
86081W        W58407  21.029  27.359   1.849
86082W        W58408  29.517  36.090   4.769
86083W        W58409  35.923  26.306  12.525
86084W        W58410  29.298   6.237   5.095
86085W        W58411  24.473  37.252   4.122
86086W        W58412   9.107  40.842   1.757
86087W        W58413  25.116   2.303  10.738
86088W        W58414   4.334  37.592  12.688
86089W        W58415  14.289  26.756  12.779
86090W        W58416  16.260   2.667   2.975
86091W        W58417  32.090  14.358  14.298
86092W        W58418   7.905  37.903   3.091
86093W        W58419  27.730  44.731  13.886
86094W        W58420  30.639  33.659   0.854
86095W        W58421   9.198  36.090   3.598
86096W        W58422   3.949  22.707   1.235
86097W        W58423  37.660  32.872  12.104
86098W        W58424  26.052   1.890   0.271
86099W        W58425  19.772   9.243   3.132
86100W        W58426  10.722   8.419   3.704
86101W        W58427   2.721  38.433  13.475
86102W        W58428  15.063  16.138   4.609
86103W        W58429   2.530   3.021   0.398
86104W        W58430  19.521  38.042  11.603
86105W        W58431  15.322  40.413  11.106
86106W        W58432   1.205  35.866   3.835
86107W        W58433   1.366  21.377   9.806
86108W        W58434  35.823   2.344   4.784
86109W        W58435  22.506  22.141   3.381
86110W        W58436  23.729  35.882  13.067
86111W        W58437   4.449   3.448  14.804
86112W        W58438  18.642  15.861  13.936
86113W        W58439  35.112  13.760   3.292
86114W        W58440  12.896  31.379  12.557
86115W        W58441  19.068   3.988   4.326
86116W        W58442  25.548   4.650  11.864
86117W        W58443  24.179  30.350   0.746
86118W        W58444  30.163   8.714   3.791
86119W        W58445  27.217  30.723   3.545
86120W        W58446  43.232  15.715   0.587
86121W        W58447   8.817  21.746  11.669
86122W        W58448  11.417   5.728  11.050
86123W        W58449  12.839  25.138   2.079
86124W        W58450   7.690   3.668  14.481
86125W        W58451  11.694  19.121   0.260
86126W        W58452  17.116  31.086  14.330
86127W        W58453   0.816  34.470   4.502
86128W        W58454   8.680  44.055  11.976
86129W        W58455  17.077  28.495  12.876
86130W        W58456  18.995  22.287  13.559
86131W        W58457  20.545   1.856   0.436
86132W        W58458  38.502  39.558   3.616
86133W        W58459  13.554  34.929  14.383
86134W        W58460  15.922  28.020   4.900
86135W        W58461  41.950  25.024  11.666
86136W        W58462  23.582  36.050  14.473
86137W        W58463  12.617   2.019  12.480
86138W        W58464   6.713   9.165   3.481
86139W        W58465  24.453  42.397  11.882
86140W        W58466  32.146  32.181   0.966
86141W        W58467   5.356  37.009  14.958
86142W        W58468  36.102   4.011   1.315
86143W        W58469  40.606  44.531   2.228
86144W        W58470  39.591  16.745   1.470
86145W        W58471  41.748  36.062  12.981
86146W        W58472  43.125  39.545  10.618
86147W        W58473  25.054   8.738  11.432
86148W        W58474  41.041   6.769  12.073
86149W        W58475  35.080  36.377  13.480
86150W        W58476   3.428   9.836  11.521
86151W        W58477  42.000  19.153  13.125
86152W        W58478  24.967  39.528   0.746
86153W        W58479  24.260  44.859  14.827
86154W        W58480  26.682  18.587  11.962
86155W        W58481  43.217  38.055  14.799
86156W        W58482  19.265  26.149   4.356
86157W        W58483   5.214   8.435  14.029
86158W        W58484  21.759  17.715   4.732
86159W        W58485  36.955  28.032  10.445
86160W        W58486  26.413   8.380  12.124
86161W        W58487  33.724  36.070   2.387
86162W        W58488  40.906  19.249  11.181
86163W        W58489  35.180  15.435   0.526
86164W        W58490   3.650  40.983   0.863
86165W        W58491  28.559  19.287  14.419
86166W        W58492  13.647  36.600   3.254
86167W        W58493  18.347   7.643  10.738
86168W        W58494  15.522   7.757  13.018
86169W        W58495  21.496  22.097  14.619
86170W        W58496  39.563  18.668  11.556
86171W        W58497  22.468  42.940  11.109
86172W        W58498  29.902  35.157  11.371
86173W        W58499   8.675  32.376   5.011
86174W        W58500  36.656  12.680   9.765
86175W        W58501   4.188  11.562  14.762
86176W        W58502  38.739  12.914  14.540
86177W        W58503  39.964  29.976  13.348
86178W        W58504  13.097  27.735   0.680
86179W        W58505  43.015  16.961   3.203
86180W        W58506  31.717   2.758   3.634
86181W        W58507  29.516  44.756  14.349
86182W        W58508  40.837  30.441  11.738
86183W        W58509  31.998  21.048   2.928
86184W        W58510  40.515   2.805   1.085
86185W        W58511  23.316  34.423   1.764
86186W        W58512   7.139   8.907   1.233
86187W        W58513  38.290  13.205   5.003
86188W        W58514  41.981  44.044   0.752
86189W        W58515  30.553  10.670  10.762
86190W        W58516  25.058  26.950   4.685
86191W        W58517  30.012  40.465   3.399
86192W        W58518  35.110  12.850  13.462
86193W        W58519   1.005   1.494   1.911
86194W        W58520  28.229   7.129   3.141
86195W        W58521  22.198  24.208   1.202
86196W        W58522  41.362  36.619   1.201
86197W        W58523   3.602  31.965   2.229
86198W        W58524  30.799  14.785  14.163
86199W        W58525  40.313   5.366   0.465
86200W        W58526  36.236  31.537  10.689
86201W        W58527  26.323  35.850   1.156
86202W        W58528   6.184  35.115  10.509
86203W        W58529  37.014  25.178  11.565
86204W        W58530  12.818  32.533   2.767
86205W        W58531  16.240  33.330   0.771
86206W        W58532  20.775  36.840   2.295
86207W        W58533   2.383  38.008   0.145
86208W        W58534  11.668  21.170   0.493
86209W        W58535  24.519   5.182  11.068
86210W        W58536  24.991   7.813  13.752
86211W        W58537   0.911   2.769   4.110
86212W        W58538  33.953  33.283   4.178
86213W        W58539  31.598  11.793   0.216
86214W        W58540   7.108  33.531  13.488
86215W        W58541   9.657  15.073   3.218
86216W        W58542  18.758  35.478  14.888
86217W        W58543  36.071  23.523   3.217
86218W        W58544  32.131  15.178   3.873
86219W        W58545  13.042  22.817   2.345
86220W        W58546  40.741   6.320  14.919
86221W        W58547  10.156  11.737   3.108
86222W        W58548   1.110  36.174   5.104
86223W        W58549  29.744   7.294   0.275
86224W        W58550  40.285   9.052  10.783
86225W        W58551  13.840   2.888  13.260
86226W        W58552  32.875   5.242   1.211
86227W        W58553  24.381  16.018   2.758
86228W        W58554  31.080   4.783  12.901
86229W        W58555  38.619  32.169  13.615
86230W        W58556  21.970  39.537   5.125
86231W        W58557   7.969  40.988  11.646
86232W        W58558  36.332  32.757   4.484
86233W        W58559   2.767  14.551   4.814
86234W        W58560  27.965   0.921   0.049
86235W        W58561  42.494  39.733  14.794
86236W        W58562  19.960  42.823  13.500
86237W        W58563  12.842  40.050  13.973
86238W        W58564  25.713  41.944   2.557
86239W        W58565  31.054   3.858   4.863
86240W        W58566   5.331  40.807   0.889
86241W        W58567  10.906   4.529  14.729
86242W        W58568  35.028   9.071  14.628
86243W        W58569  35.758  35.451  12.160
86244W        W58570  32.449  32.852  12.449
86245W        W58571   4.382  42.456  12.318
86246W        W58572  35.881  36.530  14.852
86247W        W58573   6.703  30.523   4.275
86248W        W58574  22.668   8.966  14.901
86249W        W58575  24.129  34.529  12.093
86250W        W58576  12.258  20.474  11.174
86251W        W58577  42.313   4.718  13.723
86252W        W58578  29.247  16.858   9.854
86253W        W58579  43.855  14.828   3.386
86254W        W58580  41.828  34.682   1.436
86255W        W58581  34.960   0.816   9.953
86256W        W58582  10.454  34.510   1.026
86257W        W58583  32.794   5.727  14.343
86258W        W58584   0.780   7.211  12.053
86259W        W58585  24.785  38.143  12.199
86260W        W58586  15.287  17.718  11.871
86261W        W58587  25.739  30.867   0.515
86262W        W58588  40.811  20.794  10.497
86263W        W58589  27.001  44.235   3.162
86264W        W58590  18.822  20.067   2.692
86265W        W58591  42.836  27.484   3.182
86266W        W58592  41.886  33.155   1.310
86267W        W58593  13.948  10.362   4.819
86268W        W58594   0.922  30.874   4.086
86269W        W58595  17.419  27.342  13.547
86270W        W58596  33.073   2.748   1.470
86271W        W58597  16.527  12.226  14.882
86272W        W58598  15.163  32.504   0.566
86273W        W58599  10.112   0.454  14.309
86274W        W58600   9.628   0.876  11.477
86275W        W58601  13.803  13.440   2.821
86276W        W58602  37.906  31.620   1.427
86277W        W58603   4.560   2.284   9.813
86278W        W58604  16.780  11.855   3.323
86279W        W58605  36.908  10.881   4.717
86280W        W58606  10.407   4.260  12.402
86281W        W58607  37.801  32.887  14.288
86282W        W58608  37.605  26.195   2.323
86283W        W58609  36.083  25.088  11.169
86284W        W58610  33.989  11.276  14.089
86285W        W58611  41.753  10.218  11.028
86286W        W58612  18.600   4.787   2.813
86287W        W58613   6.865  11.586   3.723
86288W        W58614  15.123  32.137   2.325
86289W        W58615  25.411  44.814  10.804
86290W        W58616  13.591  20.953   4.289
86291W        W58617  13.764  43.957   4.382
86292W        W58618   0.864  18.328  12.011
86293W        W58619   5.936   0.021   0.393
86294W        W58620  13.739  31.612   0.970
86295W        W58621  17.024   9.841  12.690
86296W        W58622   7.827   9.078   4.233
86297W        W58623   4.170  28.105  14.359
86298W        W58624   3.372   9.903   3.649
86299W        W58625  13.154  28.014   2.194
86300W        W58626  19.565  15.294   4.083
86301W        W58627  19.713  37.386   0.769
86302W        W58628  27.576  44.458   3.900
86303W        W58629  23.761  19.482  11.529
86304W        W58630  16.091   2.998   3.803
86305W        W58631  22.685  24.234   1.934
86306W        W58632  10.166  39.323  11.267
86307W        W58633  20.013  31.948   2.715
86308W        W58634   9.039  14.279   5.067
86309W        W58635  29.903  12.804   1.361
86310W        W58636  30.051  10.690   3.087
86311W        W58637   3.437  11.803   4.579
86312W        W58638  44.886   2.316  14.359
86313W        W58639  26.455  26.504   3.813
86314W        W58640  44.416  38.527   3.200
86315W        W58641  38.523   9.130   0.596
86316W        W58642  14.133  36.918   1.424
86317W        W58643  27.611  31.618  14.790
86318W        W58644  35.098  24.004  11.018
86319W        W58645  29.528  33.951   4.167
86320W        W58646  28.614  21.729   0.419
86321W        W58647  39.995  12.390   2.690
86322W        W58648  14.719   5.622   4.464
86323W        W58649  17.117  44.264   1.403
86324W        W58650  24.501  25.159  12.077
86325W        W58651  16.823  42.969  11.535
86326W        W58652  37.003  29.199  14.676
86327W        W58653  15.216  43.872  12.828
86328W        W58654  33.284  17.267   0.331
86329W        W58655   8.722  21.226  13.418
86330W        W58656  16.767  24.433  14.419
86331W        W58657  20.826  23.803  14.348
86332W        W58658  10.425  32.226   3.697
86333W        W58659  21.567   6.931   4.914
86334W        W58660  43.819  23.606  10.635
86335W        W58661  22.244   1.265   1.382
86336W        W58662  11.741  19.351   2.223
86337W        W58663  27.249   0.439   1.482
86338W        W58664  41.405  33.951  12.577
86339W        W58665   5.366  10.584   0.552
86340W        W58666  13.376   3.438   5.047
86341W        W58667   1.987   5.558  13.300
86342W        W58668  31.897  38.838   3.746
86343W        W58669  43.269   6.205   1.816
86344W        W58670  14.725  44.673   5.035
86345W        W58671  29.104   4.636  10.840
86346W        W58672  26.009  23.386   3.190
86347W        W58673  15.721  40.245  11.520
86348W        W58674   0.319   1.498  11.135
86349W        W58675  43.770  31.155  12.561
86350W        W58676  37.971  33.980   0.401
86351W        W58677  30.737  24.882   5.231
86352W        W58678   3.012  24.634  14.594
86353W        W58679  40.110  40.497  13.077
86354W        W58680  12.252   9.619  13.330
86355W        W58681  17.242  21.225   4.249
86356W        W58682  33.065  40.360   3.098
86357W        W58683  29.522  15.181   4.889
86358W        W58684  17.783  25.380  11.057
86359W        W58685  31.495  33.176  13.956
86360W        W58686  20.176  44.812   0.780
86361W        W58687  37.277   4.134   0.324
86362W        W58688  32.201  31.547  13.351
86363W        W58689  44.920  36.945   0.657
86364W        W58690  43.199  35.200   4.876
86365W        W58691  21.834   5.886  12.433
86366W        W58692  24.007  32.592  13.361
86367W        W58693  44.507  32.234  12.621
86368W        W58694  23.129  15.881   4.649
86369W        W58695  14.850  38.675   2.268
86370W        W58696  28.561   9.836   2.747
86371W        W58697  27.265   9.987  11.525
86372W        W58698  11.754  33.506  14.384
86373W        W58699  30.086  20.259   1.290
86374W        W58700  23.069   6.610  12.417
86375W        W58701  38.396  17.215  14.072
86376W        W58702  11.860  35.814  10.515
86377W        W58703  39.914  34.601  11.003
86378W        W58704  26.132  41.880  11.559
86379W        W58705  29.070  14.279   3.603
86380W        W58706  11.761   3.951   2.121
86381W        W58707   9.620   1.857   0.503
86382W        W58708  15.072  12.244   0.775
86383W        W58709  13.105  26.195  12.583
86384W        W58710  23.391  38.000  13.795
86385W        W58711  12.635   3.285  14.413
86386W        W58712  31.717  16.180  12.404
86387W        W58713  14.875  25.070   4.848
86388W        W58714  39.324   0.436  13.509
86389W        W58715  27.559   7.160  14.634
86390W        W58716  41.836  19.647  13.062
86391W        W58717  40.509  16.076  11.938
86392W        W58718  36.823  43.392  11.187
86393W        W58719   2.389   9.876   3.683
86394W        W58720  29.763  38.427   2.354
86395W        W58721   4.411  20.637  11.698
86396W        W58722  23.038  15.369  11.543
86397W        W58723   9.857  43.931   4.185
86398W        W58724   2.266   0.022  12.872
86399W        W58725  12.727  17.243  14.084
86400W        W58726  34.455  42.514  12.529
86401W        W58727  10.898  17.693  13.890
86402W        W58728  12.586   4.791   4.189
86403W        W58729  27.904  22.230   3.815
86404W        W58730  17.100  39.986   3.116
86405W        W58731  43.438   4.838   1.237
86406W        W58732   5.476  31.338   0.701
86407W        W58733  40.447  12.235   2.404
86408W        W58734   9.898  10.376  11.654
86409W        W58735  35.598  18.011   1.280
86410W        W58736  32.972  40.087   0.745
86411W        W58737  11.345  17.518   2.377
86412W        W58738   8.367  14.828   4.621
86413W        W58739  20.064  42.933  12.579
86414W        W58740   8.662  18.858   0.219
86415W        W58741  20.476  35.589  12.122
86416W        W58742  24.037   6.147  12.116
86417W        W58743  27.692   8.448  12.343
86418W        W58744  16.541  22.014   0.398
86419W        W58745   5.071  37.778   4.329
86420W        W58746  20.034  41.328   3.093
86421W        W58747   6.166  29.805  11.785
86422W        W58748  15.567  36.991  13.094
86423W        W58749  30.876  27.568  14.458
86424W        W58750  36.506  12.616  10.247
86425W        W58751  25.747   2.695   2.320
86426W        W58752  24.437  21.341   2.774
86427W        W58753  30.030   9.433   1.222
86428W        W58754   3.751  18.016   5.102
86429W        W58755  27.539  26.923  12.425
86430W        W58756  22.115  40.868  13.566
86431W        W58757   4.038  41.828   4.123
86432W        W58758  32.855  13.191   2.289
86433W        W58759   7.428   0.611  11.994
86434W        W58760   0.429   3.563   5.039
86435W        W58761  33.146  35.434  10.627
86436W        W58762  32.499   0.213   2.185
86437W        W58763  11.332  21.605  14.938
86438W        W58764  39.588  44.012   1.905
86439W        W58765  40.561   8.042   4.274
86440W        W58766  39.995  10.869   4.913
86441W        W58767  39.521  18.286   2.798
86442W        W58768  13.113  44.973  14.490
86443W        W58769   4.404  13.926  12.465
86444W        W58770   4.631  37.847   1.499
86445W        W58771  28.023  21.845   1.116
86446W        W58772  18.989  14.321  12.963
86447W        W58773  20.134  17.570  14.021
86448W        W58774  10.974  41.593   5.033
86449W        W58775  25.166  29.151  14.485
86450W        W58776   3.612  25.263  12.510
86451W        W58777  16.459  43.429   2.777
86452W        W58778   5.178  17.555  13.465
86453W        W58779  22.484  29.159  13.909
86454W        W58780  44.394  39.046  12.536
86455W        W58781  18.544  27.317  12.065
86456W        W58782  43.611  17.550   4.111
86457W        W58783  29.561  12.520  11.966
86458W        W58784   2.197  14.372  14.266
86459W        W58785  12.861  15.735   2.362
86460W        W58786  44.343   0.018  13.392
86461W        W58787   4.989   8.661   4.514
86462W        W58788  41.277   5.401   4.515
86463W        W58789  44.319  14.651   1.096
86464W        W58790   3.655  20.170  11.295
86465W        W58791  40.976  30.498   1.772
86466W        W58792  18.645  42.013  10.644
86467W        W58793  11.788  33.459  11.487
86468W        W58794  41.947  19.274  11.549
86469W        W58795   6.297  43.842  12.188
86470W        W58796  39.534  29.974   1.014
86471W        W58797  23.128   8.233  14.037
86472W        W58798  40.581  16.111   1.344
86473W        W58799   4.772  35.966  13.987
86474W        W58800  30.150  44.900  13.026
86475W        W58801  26.062  28.061  14.335
86476W        W58802  44.918  24.215  11.618
86477W        W58803  29.959   6.220   3.175
86478W        W58804   7.891  18.249  14.019
86479W        W58805  36.588  30.077  14.721
86480W        W58806  19.464  20.548  14.887
86481W        W58807  27.514   6.228   3.570
86482W        W58808  36.458  30.573  14.487
86483W        W58809  27.221  36.608  14.270
86484W        W58810  20.588  14.310   0.004
86485W        W58811  30.206  29.018  14.472
86486W        W58812  41.911  20.812   2.366
86487W        W58813  22.211  11.742   1.852
86488W        W58814  20.482  20.617  13.258
86489W        W58815  17.747  28.450   1.432
86490W        W58816  28.967  43.304   4.139
86491W        W58817   1.906  35.553  14.556
86492W        W58818  38.002  12.574   4.533
86493W        W58819  41.475  27.612   0.815
86494W        W58820  15.484  17.808  13.865
86495W        W58821   6.699  26.697   2.744
86496W        W58822  12.168  20.396   0.304
86497W        W58823  41.931  11.807  13.238
86498W        W58824  35.656  26.647  10.762
86499W        W58825  23.661  31.928   3.524
86500W        W58826  13.251  34.994   2.687
86501W        W58827   3.424  31.937   3.300
86502W        W58828  44.571  42.467  14.454
86503W        W58829  10.145  24.977  13.685
86504W        W58830  20.246  32.427  14.007
86505W        W58831  26.852   2.507  13.948
86506W        W58832  16.878  12.366   3.347
86507W        W58833  25.222   0.480   2.297
86508W        W58834  44.317   0.959   3.266
86509W        W58835  30.355  33.884   1.997
86510W        W58836  35.197  29.955   0.817
86511W        W58837  26.814  30.697   5.017
86512W        W58838   5.827  32.832  11.626
86513W        W58839   0.707  31.983   1.752
86514W        W58840   4.849   6.613   4.628
86515W        W58841  42.008  13.079  11.581
86516W        W58842  27.391  16.892   3.239
86517W        W58843  44.868  19.216   4.644
86518W        W58844  11.727  44.544  14.905
86519W        W58845   3.287   3.909   1.287
86520W        W58846  27.547   7.680  12.040
86521W        W58847  33.113  15.305  13.546
86522W        W58848  37.348  41.371   2.764
86523W        W58849   3.527  38.128   3.303
86524W        W58850  42.081  38.617  10.667
86525W        W58851  27.018  22.976   0.361
86526W        W58852  11.224  16.345   2.913
86527W        W58853   6.227   3.966  13.930
86528W        W58854  36.723  23.051  12.958
86529W        W58855   2.525  12.505  14.047
86530W        W58856   8.870   2.848   3.437
86531W        W58857  44.738  23.821   3.800
86532W        W58858  24.709   9.984  12.094
86533W        W58859  22.868  39.058   9.688
86534W        W58860   4.511  27.061  11.629
86535W        W58861  16.650   0.776  12.562
86536W        W58862   6.733  21.586  13.931
86537W        W58863  23.464  27.482   3.650
86538W        W58864  30.544  26.300  14.851
86539W        W58865  41.045   2.116  11.016
86540W        W58866  25.197   2.818   3.359
86541W        W58867  17.067  30.702   4.106
86542W        W58868   9.839  40.062  11.037
86543W        W58869   0.235  23.203   1.488
86544W        W58870  22.763  24.998  12.195
86545W        W58871  26.760  26.281  11.095
86546W        W58872   0.758  37.595  14.000
86547W        W58873  16.824  43.918  12.866
86548W        W58874  20.655  30.605  12.064
86549W        W58875  18.192  42.555   4.544
86550W        W58876   4.495  35.549  13.833
86551W        W58877  28.426   5.248  11.488
86552W        W58878  19.151  36.812   2.762
86553W        W58879  44.108   0.089   1.802
86554W        W58880  20.557  13.732  13.858
86555W        W58881   5.904  39.879   3.230
86556W        W58882   1.370  40.594  12.382
86557W        W58883  13.617   1.275  13.863
86558W        W58884  10.038  40.530  12.879
86559W        W58885  31.290  19.561  11.105
86560W        W58886  39.701   3.405   4.439
86561W        W58887  30.074  37.369  11.486
86562W        W58888   8.225   9.821   4.193
86563W        W58889   1.713  42.438   4.658
86564W        W58890  27.682   5.210   3.636
86565W        W58891  28.692   7.831  10.513
86566W        W58892  32.918   8.343  14.897
86567W        W58893  14.912  24.723  10.276
86568W        W58894  30.898   1.980   1.856
86569W        W58895  21.682   6.002  14.982
86570W        W58896   6.316  33.025  13.646
86571W        W58897   8.326  29.085  10.456
86572W        W58898   4.866   7.764  11.453
86573W        W58899   5.995  30.500  12.836
86574W        W58900  36.079  28.493  11.854
86575W        W58901   4.224   1.260  13.156
86576W        W58902  38.425  12.874   4.241
86577W        W58903   7.702  25.008  13.120
86578W        W58904   8.949  32.493   2.903
86579W        W58905   1.874  15.022   4.143
86580W        W58906  19.728  27.638   1.475
86581W        W58907  31.983  41.253  11.158
86582W        W58908  26.022  40.598   1.777
86583W        W58909  32.812   7.609   4.124
86584W        W58910   0.035  28.547  12.378
86585W        W58911  21.066  44.655   2.100
86586W        W58912   3.243  37.815  11.927
86587W        W58913  28.151  15.836  10.480
86588W        W58914  37.092  13.267   5.478
86589W        W58915   6.735  19.728   1.418
86590W        W58916  23.678  25.473  11.519
86591W        W58917  14.267  24.962   0.082
86592W        W58918   7.851   2.246   0.750
86593W        W58919  25.593   7.605   1.514
86594W        W58920  29.242  15.115   3.135
86595W        W58921  33.087   4.692  10.632
86596W        W58922  30.936  13.609  14.375
86597W        W58923   5.785   9.012   0.830
86598W        W58924  13.630  37.554   5.144
86599W        W58925  10.127  14.739  11.897
86600W        W58926  14.228  25.507   4.208
86601W        W58927  42.782   7.937   1.954
86602W        W58928   7.313  43.241  10.586
86603W        W58929   5.926   5.784   1.441
86604W        W58930  26.483  38.462   3.712
86605W        W58931  40.204  36.115   1.018
86606W        W58932  18.137  25.006  12.662
86607W        W58933  14.635  13.107  11.147
86608W        W58934   9.701  22.088  10.884
86609W        W58935  12.343  38.542  12.407
86610W        W58936  26.925  28.927  12.940
86611W        W58937  34.925   1.673  13.949
86612W        W58938  40.600  30.161   2.413
86613W        W58939  16.316  29.123  11.542
86614W        W58940  32.474  12.862  10.634
86615W        W58941  19.601  35.923   2.808
86616W        W58942  17.788  33.443  12.637
86617W        W58943  12.451  20.101  12.141
86618W        W58944   2.469  24.417   3.212
86619W        W58945   4.962  32.944  11.063
86620W        W58946   1.914  13.116   4.261
86621W        W58947  15.778  30.596  10.304
86622W        W58948  40.058  29.476  14.506
86623W        W58949  32.623   1.821   3.270
86624W        W58950  39.522  37.529  14.959
86625W        W58951  16.105  15.653   2.673
86626W        W58952  17.348  22.091  10.725
86627W        W58953   1.678  24.043   5.628
86628W        W58954  27.428  17.759   2.604
86629W        W58955  20.222  24.240  10.735
86630W        W58956  30.425   5.339   3.847
86631W        W58957   6.182  33.870   1.653
86632W        W58958  44.492  42.850   1.413
86633W        W58959  27.488  24.727  11.464
86634W        W58960  10.847  36.422   4.259
86635W        W58961  12.162   0.365  10.585
86636W        W58962  34.563  32.339   4.577
86637W        W58963  22.477   9.724  14.518
86638W        W58964  35.851  30.637  12.620
86639W        W58965  15.045  10.408  14.857
86640W        W58966  39.462  20.096   2.224
86641W        W58967   1.329  14.131  13.833
86642W        W58968   3.803  17.018   1.899
86643W        W58969  31.324  23.585  10.237
86644W        W58970  34.921  17.957   0.453
86645W        W58971  27.515  36.971  12.372
86646W        W58972  44.705  37.610   2.496
86647W        W58973  32.486  42.034  14.030
86648W        W58974  20.070  32.479   0.026
86649W        W58975  33.206   8.931  11.076
86650W        W58976  34.436  16.786   3.884
86651W        W58977  24.209  25.616   3.823
86652W        W58978   3.949  14.169  12.843
86653W        W58979  28.006   3.014  12.984
86654W        W58980   4.644  22.625   3.789
86655W        W58981  11.789  14.160   0.929
86656W        W58982  14.802  29.931   2.078
86657W        W58983  17.568  30.056   0.914
86658W        W58984   9.194  25.706  14.067
86659W        W58985   5.601  42.029   0.400
86660W        W58986  25.404  18.277   4.650
86661W        W58987  16.869   2.918  11.589
86662W        W58988  18.179  21.610  13.555
86663W        W58989   9.579  19.257  14.367
86664W        W58990  21.228  41.290  13.425
86665W        W58991  42.993  32.667   1.235
86666W        W58992  39.550   0.304  10.864
86667W        W58993  35.882  31.164   2.771
86668W        W58994  19.031  18.940  14.948
86669W        W58995  35.956  33.616  11.865
86670W        W58996   5.787  40.788   1.115
86671W        W58997   4.309  36.791  14.341
86672W        W58998  13.648  21.371  12.054
86673W        W58999  13.169  16.685   0.895
86674W        W59000  40.384  10.705   0.186
86675W        W59001  19.838  32.097   0.734
86676W        W59002   4.511  11.867   4.637
86677W        W59003  10.264  28.706  11.133
86678W        W59004  32.546  27.207   1.918
86679W        W59005  42.934  22.120   1.846
86680W        W59006  44.900  38.355   3.094
86681W        W59007  17.716  31.542  12.057
86682W        W59008  17.347  22.043   0.950
86683W        W59009  24.617  35.573   4.717
86684W        W59010  40.514   6.287   1.305
86685W        W59011  17.698   1.308  13.010
86686W        W59012  18.721   6.251   1.305
86687W        W59013   2.207  11.983  10.637
86688W        W59014  43.930  11.245   1.312
86689W        W59015  40.896  42.036  14.259
86690W        W59016  44.983   0.214   0.006
86691W        W59017  20.766  44.000   0.446
86692W        W59018  44.097  26.648  10.348
86693W        W59019  28.127  39.356   4.244
86694W        W59020  22.543  17.137  10.497
86695W        W59021  23.464  28.153  11.164
86696W        W59022   2.275  40.364   3.753
86697W        W59023  16.741  32.456  10.793
86698W        W59024   0.556  43.388   0.280
86699W        W59025   4.387   3.540   0.739
86700W        W59026   9.132  31.304  11.921
86701W        W59027  37.987  40.710   0.924
86702W        W59028  30.622  38.417   3.594
86703W        W59029  42.427  41.300  12.341
86704W        W59030  21.646  24.390   1.383
86705W        W59031  42.473  23.775   4.096
86706W        W59032  43.403  33.427  14.355
86707W        W59033  13.603  39.986  11.560
86708W        W59034  33.157  36.455   1.263
86709W        W59035  18.713  28.530  14.331
86710W        W59036  15.167   6.271   0.296
86711W        W59037  28.054  30.062  12.349
86712W        W59038   1.848  26.886  11.590
86713W        W59039  26.658  36.945  12.109
86714W        W59040   0.156   3.850  13.354
86715W        W59041  18.751   2.507   4.183
86716W        W59042  30.665  25.570   2.642
86717W        W59043  43.868  21.584  11.832
86718W        W59044   9.241  16.817  11.940
86719W        W59045  11.580  32.222  13.580
86720W        W59046  31.545  33.955  14.266
86721W        W59047  31.110  39.910  13.972
86722W        W59048  41.603   6.156  12.502
86723W        W59049  37.315  20.386  11.472
86724W        W59050   6.245  22.685   1.121
86725W        W59051   9.004  42.883  12.564
86726W        W59052  31.703  33.457   1.693
86727W        W59053  16.305  24.007   2.272
86728W        W59054  31.062  40.033   4.122
86729W        W59055  42.579  28.484   1.940
86730W        W59056  34.818  42.850  13.852
86731W        W59057  37.837  18.221   0.748
86732W        W59058  33.471  38.224   4.715
86733W        W59059  41.294   8.568   0.205
86734W        W59060  22.857  31.971   4.094
86735W        W59061  28.866  24.097   1.151
86736W        W59062  17.024  12.145   0.005
86737W        W59063  15.834  10.813   3.270
86738W        W59064  23.861  13.266  12.852
86739W        W59065   4.411   9.333   2.116
86740W        W59066  21.674  34.597   1.263
86741W        W59067   0.676  42.957  14.099
86742W        W59068  25.583   4.042   3.177
86743W        W59069   1.688  22.916  13.241
86744W        W59070  18.871  10.621   4.107
86745W        W59071  43.893   8.603  11.703
86746W        W59072  42.984  34.581   0.955
86747W        W59073   4.926  34.532   2.938
86748W        W59074  12.911  19.954  13.323
86749W        W59075   8.810  31.895   1.566
86750W        W59076  16.217  29.907  12.122
86751W        W59077  18.512  14.561   1.229
86752W        W59078  40.988  10.414  11.471
86753W        W59079  43.330  44.314  11.265
86754W        W59080  28.158  15.044  11.665
86755W        W59081  23.763   8.854   1.798
86756W        W59082  37.450  34.367   1.380
86757W        W59083   3.452  12.639  11.436
86758W        W59084  31.544  19.181  13.101
86759W        W59085  32.179  40.321  11.491
86760W        W59086  22.863  35.979   3.631
86761W        W59087  14.768   7.711   4.041
86762W        W59088  11.657   9.794  11.674
86763W        W59089   4.210   1.830  10.991
86764W        W59090  17.579  27.509  14.467
86765W        W59091  37.053  19.192  14.860
86766W        W59092  31.403  26.677   4.068
86767W        W59093  19.540   9.077  11.204
86768W        W59094  28.558  23.188   2.118
86769W        W59095  15.159   1.690  11.629
86770W        W59096  20.778  36.818  10.745
86771W        W59097  44.125  16.339   3.269
86772W        W59098  26.614  31.123   0.494
86773W        W59099   0.270  25.033   4.566
86774W        W59100   6.846   5.240  14.903
86775W        W59101  11.276   1.750   1.658
86776W        W59102  34.554  24.792   3.311
86777W        W59103  41.763  29.402   1.281
86778W        W59104  16.386  30.162   1.432
86779W        W59105  15.726  14.179  11.560
86780W        W59106  40.970  42.468  14.740
86781W        W59107  14.175   1.765  11.681
86782W        W59108   4.807   1.114  11.698
86783W        W59109  28.612  12.152   0.161
86784W        W59110   3.940   3.544  11.855
86785W        W59111   9.028   0.171  11.476
86786W        W59112  41.510  33.667   4.671
86787W        W59113  30.173  42.425   1.495
86788W        W59114  32.583  36.090  13.968
86789W        W59115  15.635  40.152   4.495
86790W        W59116  33.595  42.070  11.209
86791W        W59117  16.201   9.579  12.643
86792W        W59118  37.967  22.711   9.528
86793W        W59119  27.941  20.394  11.953
86794W        W59120   3.690  21.249  10.034
86795W        W59121  16.081   6.123  11.001
86796W        W59122  42.304   7.378  14.441
86797W        W59123  33.412  38.442   1.181
86798W        W59124   2.809  44.416   1.584
86799W        W59125  16.183  30.639  11.555
86800W        W59126   8.308  29.345  11.238
86801W        W59127  39.326  15.465   3.779
86802W        W59128  15.675   6.184   0.373
86803W        W59129  37.140  30.919   3.327
86804W        W59130  22.277  15.782  14.066
86805W        W59131   8.112  41.614   2.599
86806W        W59132  23.883  34.489  14.556
86807W        W59133  10.731   0.804   3.272
86808W        W59134  30.159   4.804  13.820
86809W        W59135  23.484  20.091  10.716
86810W        W59136   2.471  17.186  12.656
86811W        W59137  32.660  35.439  12.458
86812W        W59138  18.302  31.541   2.464
86813W        W59139  13.197  24.159   3.933
86814W        W59140  29.726  23.573   4.525
86815W        W59141  28.032  20.707   2.892
86816W        W59142  28.940  43.452   0.385
86817W        W59143  35.181  33.408  10.662
86818W        W59144  13.206  25.468   4.124
86819W        W59145  22.948  17.136   5.411
86820W        W59146  14.859  12.144   4.463
86821W        W59147  16.867  38.000  12.278
86822W        W59148   4.795  38.371   3.411
86823W        W59149   1.029  19.690  12.956
86824W        W59150  19.503  16.580  11.900
86825W        W59151  31.533  23.473  13.726
86826W        W59152  18.052  38.016   0.398
86827W        W59153  20.932  24.685  11.207
86828W        W59154   1.458  29.777   0.726
86829W        W59155  21.709  18.502  12.489
86830W        W59156  11.706  28.965  10.598
86831W        W59157  11.764  37.874   3.302
86832W        W59158   8.909  16.827   3.731
86833W        W59159   2.938  14.797   4.406
86834W        W59160  30.402  24.281  13.442
86835W        W59161   1.541  35.581   4.135
86836W        W59162  18.278  31.617  11.656
86837W        W59163  29.925  16.522   1.908
86838W        W59164  40.023  22.539  11.143
86839W        W59165   8.206  34.879  10.920
86840W        W59166  34.440  38.531  12.440
86841W        W59167  29.939  15.491  10.683
86842W        W59168   5.523   9.504  11.107
86843W        W59169  25.323  17.068   1.867
86844W        W59170  22.279  35.377   1.353
86845W        W59171  18.745  12.736  12.266
86846W        W59172  26.219  30.672  12.922
86847W        W59173  15.253   8.035   4.748
86848W        W59174   4.628  12.237   2.710
86849W        W59175  28.493  31.683  13.156
86850W        W59176  42.354  32.524  11.159
86851W        W59177   6.400  25.454  14.525
86852W        W59178  34.056  35.402  10.354
86853W        W59179  37.545  18.246   2.353
86854W        W59180  26.865  24.985  10.708
86855W        W59181  13.646  23.974   0.852
86856W        W59182  27.778  15.531  10.272
86857W        W59183  30.122  38.350   3.340
86858W        W59184  37.118  12.785  12.547
86859W        W59185  36.686  21.288   1.304
86860W        W59186  29.259   6.006   1.150
86861W        W59187   6.884  18.038  13.898
86862W        W59188   8.748   2.719   4.731
86863W        W59189  25.043  16.557   2.738
86864W        W59190  20.220  22.301  10.965
86865W        W59191  40.496  10.829   3.186
86866W        W59192  13.955  15.118  13.310
86867W        W59193  20.775   2.947  11.505
86868W        W59194  35.525   7.878  11.700
86869W        W59195  17.622  26.144  14.419
86870W        W59196   0.253  25.787  12.032
86871W        W59197  24.416  35.005   2.195
86872W        W59198  44.525  26.528   9.946
86873W        W59199  11.383  28.554  10.623
86874W        W59200  43.726  17.264  11.885
86875W        W59201  10.425  32.788  10.838
86876W        W59202  30.416  39.480   2.883
86877W        W59203  21.672  27.984  10.715
86878W        W59204  37.758  17.694  12.502
86879W        W59205  38.513  20.234   0.251
86880W        W59206   5.048  18.535   3.178
86881W        W59207  25.970   0.446  12.088
86882W        W59208  15.095  22.664   1.683
86883W        W59209  41.628  36.286  14.174
86884W        W59210  21.711  35.487  13.670
86885W        W59211  34.521  34.505   4.714
86886W        W59212  13.156  23.831   2.939
86887W        W59213  27.944  29.648   2.668
86888W        W59214  17.656  21.618  14.438
86889W        W59215  25.637   9.553  12.135
86890W        W59216  25.997  22.722  14.539
86891W        W59217  27.510  18.588  14.896
86892W        W59218   7.255  36.830   1.526
86893W        W59219  21.060  24.963  11.641
86894W        W59220  32.445  10.835  12.562
86895W        W59221   1.322  19.115  13.230
86896W        W59222  40.808   2.953   0.129
86897W        W59223  22.141   7.922   2.023
86898W        W59224  38.506  29.136  14.315
86899W        W59225  31.379  26.944  12.278
86900W        W59226  23.937   8.637  12.991
86901W        W59227  19.820  25.058  11.600
86902W        W59228   8.240  40.495  14.972
86903W        W59229  23.575  12.945  14.506
86904W        W59230  43.261  34.388  12.992
86905W        W59231  29.318  15.292   2.234
86906W        W59232  38.369  14.351   1.250
86907W        W59233  12.562  27.495  10.695
86908W        W59234  16.820  19.564   1.881
86909W        W59235  14.386   2.426   1.904
86910W        W59236  34.375  13.673   0.171
86911W        W59237  36.856  22.647   4.380
86912W        W59238  34.482  13.166   0.242
86913W        W59239   3.810  44.160  14.789
86914W        W59240   7.364   5.704  10.406
86915W        W59241   6.940   6.689  13.597
86916W        W59242   0.954  22.428   3.019
86917W        W59243   9.380  24.703   4.319
86918W        W59244  32.563  39.743  10.665
86919W        W59245  43.860  21.965  12.207
86920W        W59246  34.883   3.017  11.646
86921W        W59247  15.559  38.580  11.946
86922W        W59248   8.234   8.865   3.108
86923W        W59249  28.194  13.397  13.717
86924W        W59250   6.423   4.975  14.750
86925W        W59251  11.108  39.526   3.649
86926W        W59252   3.199  23.965  12.548
86927W        W59253  26.731  15.300  11.700
86928W        W59254   5.979   3.195  13.877
86929W        W59255   0.895  44.033  13.530
86930W        W59256  23.210  35.839  13.491
86931W        W59257  21.120  29.487   1.892
86932W        W59258  29.770  32.598   4.553
86933W        W59259  30.050  21.056  12.921
86934W        W59260  22.458   5.989   0.015
86935W        W59261  21.140  31.523  14.291
86936W        W59262  39.851  34.386  10.542
86937W        W59263  14.145  32.171  14.375
86938W        W59264   5.777  20.891  11.586
86939W        W59265   2.930  19.492  13.542
86940W        W59266  33.194   3.257   1.300
86941W        W59267  19.545   7.238  14.418
86942W        W59268  31.123  31.893  13.898
86943W        W59269  29.143  16.708  10.722
86944W        W59270  41.278  16.469   2.845
86945W        W59271  35.453  43.914   4.111
86946W        W59272  19.034  18.871   0.742
86947W        W59273  25.301  28.938  11.876
86948W        W59274  43.847   2.853   0.080
86949W        W59275  14.119  35.372   2.761
86950W        W59276  34.158  27.973  13.911
86951W        W59277   2.818  27.646   0.915
86952W        W59278   8.855  18.280  10.364
86953W        W59279   2.982   2.721   4.647
86954W        W59280   1.425   2.354   2.923
86955W        W59281  40.237  17.384   0.988
86956W        W59282  15.523  42.289   1.495
86957W        W59283  15.354  22.237   0.798
86958W        W59284   1.236  40.752   4.804
86959W        W59285  33.557   3.837  14.102
86960W        W59286   0.054  19.105  12.383
86961W        W59287  42.882  32.399   0.323
86962W        W59288  29.032  23.811   3.811
86963W        W59289  15.824  38.763   5.028
86964W        W59290  43.063  32.916   4.048
86965W        W59291  44.243  44.035  14.434
86966W        W59292  27.645   7.178  12.993
86967W        W59293  33.692  33.431  10.578
86968W        W59294  31.043  27.966   1.913
86969W        W59295  40.598  39.877   3.822
86970W        W59296  26.439   9.675   2.749
86971W        W59297   7.250   0.211  12.769
86972W        W59298   2.399  42.319   0.441
86973W        W59299   7.511   0.260  13.796
86974W        W59300   1.874   8.009  11.880
86975W        W59301   5.777  14.534  14.232
86976W        W59302  30.070  44.004  10.335
86977W        W59303   5.115  34.861  14.611
86978W        W59304  39.828  37.424  10.259
86979W        W59305  16.078   6.523  11.313
86980W        W59306   3.229  32.403   3.312
86981W        W59307  30.080  27.922   2.352
86982W        W59308  17.744  44.974  13.925
86983W        W59309  39.595  10.673   5.669
86984W        W59310  11.856  32.663   1.174
86985W        W59311  17.271  19.555   3.208
86986W        W59312  34.937  36.614   4.110
86987W        W59313  43.427   5.517   0.247
86988W        W59314   9.191  13.302  14.499
86989W        W59315   3.954  20.114   1.370
86990W        W59316  27.625  34.443  13.798
86991W        W59317   1.373   5.237  13.806
86992W        W59318  41.390   0.458  11.151
86993W        W59319   1.488  27.376   2.265
86994W        W59320  26.706  27.832   2.299
86995W        W59321   5.625  30.353  13.806
86996W        W59322  38.731  17.586   2.463
86997W        W59323  34.247   3.375  10.869
86998W        W59324   4.316  16.521   4.170
86999W        W59325  12.185  11.296   4.768
87000W        W59326  18.131  35.625  12.046
87001W        W59327   5.893   5.747  13.160
87002W        W59328  25.311  33.714  11.173
87003W        W59329   4.382  17.524   0.505
87004W        W59330   9.290  23.298   3.173
87005W        W59331  28.129  16.419   0.962
87006W        W59332   1.749  34.234  14.117
87007W        W59333   9.256  18.741  10.513
87008W        W59334  33.933  36.353   4.573
87009W        W59335   1.258  38.459   1.312
87010W        W59336   6.050  19.644   5.180
87011W        W59337  28.031   9.901   1.423
87012W        W59338  18.633  39.763  13.000
87013W        W59339  13.776  10.812   4.586
87014W        W59340   8.312  41.096  12.015
87015W        W59341  34.040   2.481   3.788
87016W        W59342  25.641  15.007  13.922
87017W        W59343   6.219   9.231  10.486
87018W        W59344  30.186  11.193   0.001
87019W        W59345  31.066  31.391   1.650
87020W        W59346  26.421  27.414   2.384
87021W        W59347  37.045   9.379   1.849
87022W        W59348  30.119  33.671   4.674
87023W        W59349  10.879  19.702  14.967
87024W        W59350   3.491  36.868   2.064
87025W        W59351  44.500  18.131   1.401
87026W        W59352  37.347   5.999  12.943
87027W        W59353  29.858   7.326   2.127
87028W        W59354  21.296  32.911  11.774
87029W        W59355   1.271  17.775   2.593
87030W        W59356  37.935   3.657  14.794
87031W        W59357   9.818   2.054  10.683
87032W        W59358   7.731  35.812   4.613
87033W        W59359  24.768   4.821   4.093
87034W        W59360  15.722  24.085   2.471
87035W        W59361  19.485  44.067   4.564
87036W        W59362  29.126  24.577   3.638
87037W        W59363  22.719  21.483  13.381
87038W        W59364   5.471   2.408  13.776
87039W        W59365   2.417  41.355   3.726
87040W        W59366   8.975  38.743   3.760
87041W        W59367  24.639  27.264   4.647
87042W        W59368   5.267  33.825   4.307
87043W        W59369   3.668  41.527   3.120
87044W        W59370  19.577  42.804  12.582
87045W        W59371  32.883  13.759   4.260
87046W        W59372  14.805  22.777  12.074
87047W        W59373   0.021   9.685   0.331
87048W        W59374   1.372  23.595  12.532
87049W        W59375  10.839  10.725   3.668
87050W        W59376  35.482  16.220  12.907
87051W        W59377  10.729  33.734   2.518
87052W        W59378  31.536  38.612  11.519
87053W        W59379  22.961  34.959   2.508
87054W        W59380  33.359   6.284  12.899
87055W        W59381  10.174  19.978   0.235
87056W        W59382   4.928  37.913   3.854
87057W        W59383  14.570  30.658   2.887
87058W        W59384  16.533   9.636   3.381
87059W        W59385   0.481   1.184  11.554
87060W        W59386  31.416  15.758   0.828
87061W        W59387  42.790   3.315   1.722
87062W        W59388  14.308  12.653   0.055
87063W        W59389  26.534  41.342   4.452
87064W        W59390  32.957  41.757  13.942
87065W        W59391   4.943  13.975   0.670
87066W        W59392  32.028  23.698   9.635
87067W        W59393  30.731  17.281  14.748
87068W        W59394   2.595   6.291   1.398
87069W        W59395  21.535  28.669  13.736
87070W        W59396  28.585   2.346   4.140
87071W        W59397   0.352  41.632   0.836
87072W        W59398   9.495  36.478   4.391
87073W        W59399  13.621  40.021   2.238
87074W        W59400  10.112  12.576   2.435
87075W        W59401  44.492   8.171   2.724
87076W        W59402   9.758  13.616  13.376
87077W        W59403  42.339  27.511  14.360
87078W        W59404  34.096  39.452  13.676
87079W        W59405  21.589  14.721  13.847
87080W        W59406  37.265   0.432   1.287
87081W        W59407  33.127  11.832  11.704
87082W        W59408  35.944  18.049  12.201
87083W        W59409  18.129  25.652   0.312
87084W        W59410  40.848  11.340  11.908
87085W        W59411   2.674  13.724   2.335
87086W        W59412  21.772  40.738   2.927
87087W        W59413  42.190  16.686  11.173
87088W        W59414  32.462  36.553  12.621
87089W        W59415   0.737  16.650   0.198
87090W        W59416  34.998  36.107   4.079
87091W        W59417  26.921  32.962  10.834
87092W        W59418  16.138  35.928   1.632
87093W        W59419  30.827  25.133  13.454
87094W        W59420  21.682  28.571   0.660
87095W        W59421  28.203   0.352  13.109
87096W        W59422  13.708  21.057   1.409
87097W        W59423  13.575  42.398   2.115
87098W        W59424   8.105  38.561  12.556
87099W        W59425   0.638  33.393   3.907
87100W        W59426  36.870  20.651  11.441
87101W        W59427  44.019   7.945   0.744
87102W        W59428  40.930   7.671   1.417
87103W        W59429  38.469  12.938   1.772
87104W        W59430   2.329  37.124   3.797
87105W        W59431  32.701  21.162  12.991
87106W        W59432   1.595  29.948  14.317
87107W        W59433  12.733  34.030  12.646
87108W        W59434   2.899   3.728  10.011
87109W        W59435  43.269  36.826   0.467
87110W        W59436  43.145   1.971   1.541
87111W        W59437  21.270  25.025   1.417
87112W        W59438  17.852   6.779  11.168
87113W        W59439   5.391  38.713  14.485
87114W        W59440  29.477  18.311  11.704
87115W        W59441   0.016  42.551  12.439
87116W        W59442  22.478  44.235   3.694
87117W        W59443   0.853  13.620   3.600
87118W        W59444  35.373   3.712   4.557
87119W        W59445  16.705  12.636  13.631
87120W        W59446   8.042  39.896   0.921
87121W        W59447   3.895  20.631   1.217
87122W        W59448  34.110  38.039   2.539
87123W        W59449  14.520  31.938  13.316
87124W        W59450  10.323  15.565   4.218
87125W        W59451   2.742  39.286   4.087
87126W        W59452  20.330  15.787   1.771
87127W        W59453  38.461  22.289   1.238
87128W        W59454  19.141  10.889  11.143
87129W        W59455  13.669  24.934   5.347
87130W        W59456  29.932  42.192  13.165
87131W        W59457  40.595  21.618  13.904
87132W        W59458  42.286  36.459  13.423
87133W        W59459  36.789  28.902   2.233
87134W        W59460  22.691  10.862   2.778
87135W        W59461  19.372   0.551  13.379
87136W        W59462   2.511  21.446  10.289
87137W        W59463  17.122  19.328   3.657
87138W        W59464  19.191  27.037   1.943
87139W        W59465   0.247  34.389   2.802
87140W        W59466  23.792  21.234   0.881
87141W        W59467  20.493  40.053   0.757
87142W        W59468   4.182  31.109   1.979
87143W        W59469  30.365   2.858   2.143
87144W        W59470  26.986  18.651   3.158
87145W        W59471  20.865  34.500  11.547
87146W        W59472   6.191  21.242   0.511
87147W        W59473  23.671   8.322   1.795
87148W        W59474  20.028   9.262  11.174
87149W        W59475   5.112  22.508   4.114
87150W        W59476  12.554   8.639  12.492
87151W        W59477  19.079   2.642  12.503
87152W        W59478  41.928  34.445   1.894
87153W        W59479  33.986  28.236   3.645
87154W        W59480  35.001   3.790  14.659
87155W        W59481   6.108  25.636  12.554
87156W        W59482  20.676   6.062   4.339
87157W        W59483  19.758  33.495  13.017
87158W        W59484  35.865  41.475   4.203
87159W        W59485   9.090   2.536  13.832
87160W        W59486   1.686  11.232  11.685
87161W        W59487   2.404  39.529   0.325
87162W        W59488  22.700  11.331   1.180
87163W        W59489  28.008  38.081  14.900
87164W        W59490  44.245  33.630   2.273
87165W        W59491  29.327  31.403  12.834
87166W        W59492  44.010  30.241  13.434
87167W        W59493  23.055  29.422   4.925
87168W        W59494   3.816  17.635   3.692
87169W        W59495   0.890  42.087   4.568
87170W        W59496   0.525  10.436  13.481
87171W        W59497   6.836  30.834  11.647
87172W        W59498  22.044  36.282   1.636
87173W        W59499  20.787  17.168  13.925
87174W        W59500  23.297   9.173  13.835
87175W        W59501   4.425  36.293   2.259
87176W        W59502   0.876  24.214   4.230
87177W        W59503  32.944  31.991   5.178
87178W        W59504   0.104  39.490  12.319
87179W        W59505  43.790  15.082  14.775
87180W        W59506  14.264   5.379   4.751
87181W        W59507   5.167   0.287  14.507
87182W        W59508  38.341  42.081  14.857
87183W        W59509  32.494  12.836   0.646
87184W        W59510   9.639  21.701   1.299
87185W        W59511   9.369   2.373  10.648
87186W        W59512  20.140  38.341  11.598
87187W        W59513  14.729   3.494   1.869
87188W        W59514  12.820  44.893   3.627
87189W        W59515  38.682   5.983   4.929
87190W        W59516  44.397  22.982  13.943
87191W        W59517   4.463  14.825  11.910
87192W        W59518  28.454   4.310  13.377
87193W        W59519   4.132  28.011   4.247
87194W        W59520  11.268  16.990   3.785
87195W        W59521  33.034  13.977   0.551
87196W        W59522  40.831   9.814   0.297
87197W        W59523  17.671   5.444  12.687
87198W        W59524  29.095  38.996  11.926
87199W        W59525   0.574  33.988  11.090
87200W        W59526  39.724  39.976   4.056
87201W        W59527  10.950  21.052   0.753
87202W        W59528  16.718   5.192  11.615
87203W        W59529   4.122  32.078  14.086
87204W        W59530   3.504  34.661   4.475
87205W        W59531  22.965  11.301  12.429
87206W        W59532   5.446  24.704   0.921
87207W        W59533  27.096   5.804  12.428
87208W        W59534  25.992  29.641  13.157
87209W        W59535  24.712  41.584   4.135
87210W        W59536  29.227  24.258   0.243
87211W        W59537  25.657  30.816  12.918
87212W        W59538  30.428  35.999  11.530
87213W        W59539   5.226  34.977  14.120
87214W        W59540  13.673   2.684   0.901
87215W        W59541   9.694  12.806   2.712
87216W        W59542   0.497  33.526   2.868
87217W        W59543   2.205   2.842  14.201
87218W        W59544   4.890   7.823   0.922
87219W        W59545   7.172   2.943   2.833
87220W        W59546  30.287  22.169  11.445
87221W        W59547  23.282  33.937  13.790
87222W        W59548  25.480  12.194  11.929
87223W        W59549  44.488   2.876   2.728
87224W        W59550  13.780  32.943   5.553
87225W        W59551  42.278  14.096   1.684
87226W        W59552  15.634  38.718   1.343
87227W        W59553  36.989  13.190   0.317
87228W        W59554  25.506  38.500   3.079
87229W        W59555  19.263  36.096  12.044
87230W        W59556  39.908  40.223   1.263
87231W        W59557  18.623   7.237   0.346
87232W        W59558  17.037  11.865   5.117
87233W        W59559  20.566  18.546  14.728
87234W        W59560  10.657  29.178  13.575
87235W        W59561  19.139  33.331   0.360
87236W        W59562  27.628   6.622  11.095
87237W        W59563   7.330  13.117   2.934
87238W        W59564  15.547  10.313   2.211
87239W        W59565  13.013  35.517  10.564
87240W        W59566   9.204  44.951  12.225
87241W        W59567  38.123   0.883  13.059
87242W        W59568  19.221   5.926  11.462
87243W        W59569  10.535  31.170   5.155
87244W        W59570  24.770   8.009  10.912
87245W        W59571  20.384  36.356   2.368
87246W        W59572  41.139  16.732  11.922
87247W        W59573  35.130  38.517   4.278
87248W        W59574  42.914   4.317   0.239
87249W        W59575  44.286   5.766  12.959
87250W        W59576  17.447   5.740  14.341
87251W        W59577  43.262   6.646  11.362
87252W        W59578  37.947  44.688  11.005
87253W        W59579   1.885  40.832   4.190
87254W        W59580   2.613  32.200  13.085
87255W        W59581  21.712   7.562   0.220
87256W        W59582  16.123  42.382  14.221
87257W        W59583   9.142  26.624  14.494
87258W        W59584  34.390  18.477  10.653
87259W        W59585   6.601  44.026   2.775
87260W        W59586  28.608  18.718  13.773
87261W        W59587   6.120  35.479  12.093
87262W        W59588  27.445  29.005  11.432
87263W        W59589  28.202   1.254   2.448
87264W        W59590  30.121  13.730  13.879
87265W        W59591  10.898  20.680   1.796
87266W        W59592   0.945   4.593  10.189
87267W        W59593   5.332   0.447  14.974
87268W        W59594  34.553   9.218  14.463
87269W        W59595  22.999  43.037   2.954
87270W        W59596  36.837  36.526   0.841
87271W        W59597  27.678  19.704  12.475
87272W        W59598  13.279  25.097   3.390
87273W        W59599   9.776  41.443   1.777
87274W        W59600  28.898   9.677   3.108
87275W        W59601   0.256  21.239   0.811
87276W        W59602  16.254  22.125  14.513
87277W        W59603  12.451  20.606   1.956
87278W        W59604  35.332  18.566  11.564
87279W        W59605  29.038  34.675  10.728
87280W        W59606  29.124  30.525   2.317
87281W        W59607  42.743  17.788   3.358
87282W        W59608   2.984  33.524  11.388
87283W        W59609  32.466  22.063   3.358
87284W        W59610  24.521  10.516  13.687
87285W        W59611  12.621   5.783  12.023
87286W        W59612  16.607  41.440   2.694
87287W        W59613  36.550  17.796  12.859
87288W        W59614  40.424  34.197  11.495
87289W        W59615  15.568  40.741   1.257
87290W        W59616  10.703   3.430   2.701
87291W        W59617  24.141  41.938   1.865
87292W        W59618  23.724  23.156  13.010
87293W        W59619  42.813  28.519  11.066
87294W        W59620  37.373   5.797  14.835
87295W        W59621   3.170  24.657   4.689
87296W        W59622  18.714  44.622  14.733
87297W        W59623  40.004  43.585   3.145
87298W        W59624  31.441  44.074  13.932
87299W        W59625  41.458  36.313   4.075
87300W        W59626   5.905  40.804  11.642
87301W        W59627   3.972   2.856   2.599
87302W        W59628   9.319  41.825  10.629
87303W        W59629  23.733  39.937  10.170
87304W        W59630   5.841   6.260  14.727
87305W        W59631  40.085   4.994  14.035
87306W        W59632  26.721  23.079  11.167
87307W        W59633   2.493  19.045  10.726
87308W        W59634  32.476  34.899   2.983
87309W        W59635   1.916  12.522   3.292
87310W        W59636  11.989  15.014   4.079
87311W        W59637  44.605   0.854  12.667
87312W        W59638  43.490  37.943   0.261
87313W        W59639   9.331  41.815   3.139
87314W        W59640   7.084  24.086   4.146
87315W        W59641  35.382   5.374  11.915
87316W        W59642   8.661  36.452  11.632
87317W        W59643  31.572  10.419  12.908
87318W        W59644  19.995  23.104  12.420
87319W        W59645  38.861  24.301   3.213
87320W        W59646  40.458   1.266   2.642
87321W        W59647   6.374  25.030  12.850
87322W        W59648   6.611   9.061  10.167
87323W        W59649   0.749  21.953  14.368
87324W        W59650   5.645   1.556   0.227
87325W        W59651  44.014  32.761  11.155
87326W        W59652  43.673  16.295  14.429
87327W        W59653  29.750  35.542   1.253
87328W        W59654  35.805  33.064   3.190
87329W        W59655  19.528  14.660   3.677
87330W        W59656   1.871  42.475   0.218
87331W        W59657  23.235  44.878  12.482
87332W        W59658  14.397  24.751  10.254
87333W        W59659  18.739  16.746  12.492
87334W        W59660  26.095  15.847   3.870
87335W        W59661  19.973  16.854   2.741
87336W        W59662  35.507  42.548   3.862
87337W        W59663   4.394  18.634  12.900
87338W        W59664  22.460  17.771   1.932
87339W        W59665  39.805   7.919  14.188
87340W        W59666   3.741  14.687   0.238
87341W        W59667   2.291  40.077   3.230
87342W        W59668  39.067  39.873   2.775
87343W        W59669  29.229  33.859   3.370
87344W        W59670  35.420  13.328  10.905
87345W        W59671  22.638   6.813  12.606
87346W        W59672  14.222  42.160  10.719
87347W        W59673  11.822  29.540  11.743
87348W        W59674  10.603  10.200  13.803
87349W        W59675   0.495  22.148   3.693
87350W        W59676  36.274  15.077   2.167
87351W        W59677  24.117  11.720  11.160
87352W        W59678  40.974   2.489   4.216
87353W        W59679  16.300  20.717   4.096
87354W        W59680  35.620  43.249  12.861
87355W        W59681   6.817  38.645   4.121
87356W        W59682  33.661  17.157  14.454
87357W        W59683  17.060  10.678   0.782
87358W        W59684   2.161   0.880   4.853
87359W        W59685  20.465  37.696   3.798
87360W        W59686  38.481  18.116   3.768
87361W        W59687  37.136  39.987   0.407
87362W        W59688  26.971  29.186   4.948
87363W        W59689  25.889   5.968   0.226
87364W        W59690  15.060   2.344  12.966
87365W        W59691  20.774  35.122  14.380
87366W        W59692  11.573  32.387   0.795
87367W        W59693   7.424  38.967   3.685
87368W        W59694  28.947  21.447   1.717
87369W        W59695  32.422  18.127  13.504
87370W        W59696  21.190  39.300   1.177
87371W        W59697  22.526  13.335   1.937
87372W        W59698  16.752  27.178  13.414
87373W        W59699  11.641  26.592  11.642
87374W        W59700  35.359  15.409   1.830
87375W        W59701  22.535  32.908   2.444
87376W        W59702   8.562  28.088  14.374
87377W        W59703   5.698  26.962   0.905
87378W        W59704   2.914  24.189  12.944
87379W        W59705   6.566  43.824  12.618
87380W        W59706   1.024  36.663  11.321
87381W        W59707  43.401  31.110   2.189
87382W        W59708   8.002  10.126  12.817
87383W        W59709  27.621  26.274  10.019
87384W        W59710  10.679  15.149  14.427
87385W        W59711  37.134  21.082   1.164
87386W        W59712  20.408  40.064   1.724
87387W        W59713  40.456  14.753   4.348
87388W        W59714  27.872  21.094  13.462
87389W        W59715   9.436  42.277  14.300
87390W        W59716   6.209  24.450   4.562
87391W        W59717  22.348   8.838   0.833
87392W        W59718  36.470  19.619   4.558
87393W        W59719  26.590   2.813  11.126
87394W        W59720  21.825  25.401  13.439
87395W        W59721  12.996  18.781  13.326
87396W        W59722  24.080  18.860  13.100
87397W        W59723   4.813  41.295  12.162
87398W        W59724  40.871  14.382  11.124
87399W        W59725   0.896  27.737   5.044
87400W        W59726   7.278  43.413   2.681
87401W        W59727  29.898  40.473  12.071
87402W        W59728   0.025   3.011   5.751
87403W        W59729  32.885  21.794  11.890
87404W        W59730  34.555   8.485  11.124
87405W        W59731  30.542  13.367   3.026
87406W        W59732  21.991  32.358  13.085
87407W        W59733  29.188  21.286  13.907
87408W        W59734  32.312   3.263  13.750
87409W        W59735  36.075  29.406  13.287
87410W        W59736  36.634  44.207  11.115
87411W        W59737  34.417  39.289   3.714
87412W        W59738  22.797  28.659  11.187
87413W        W59739  19.551  40.755  12.188
87414W        W59740  42.631  29.670  10.579
87415W        W59741  21.716  14.151  11.581
87416W        W59742  40.871  19.615   3.183
87417W        W59743  36.103  23.169  14.806
87418W        W59744  44.836   5.715   0.488
87419W        W59745  20.578  15.230  10.670
87420W        W59746  26.911  36.326   0.715
87421W        W59747   8.334  32.192  14.052
87422W        W59748   0.802  40.415   0.424
87423W        W59749  32.926   0.491   3.888
87424W        W59750  37.728   9.527   0.917
87425W        W59751   5.588  15.134   4.445
87426W        W59752   4.008  14.571  14.790
87427W        W59753  33.866   9.745   4.589
87428W        W59754  38.572  15.201   4.172
87429W        W59755  14.626  41.372  13.947
87430W        W59756  14.912  28.901  12.882
87431W        W59757  17.287  11.049   1.636
87432W        W59758   1.498   8.284   3.477
87433W        W59759  23.783  10.636   4.542
87434W        W59760  18.657  20.920   1.656
87435W        W59761  13.584  31.384  12.964
87436W        W59762  35.636  37.061  13.423
87437W        W59763   7.626  31.336   1.923
87438W        W59764  20.795   6.734   2.288
87439W        W59765  40.272  44.747  10.918
87440W        W59766   4.305  34.602  11.101
87441W        W59767  39.522  12.679  12.138
87442W        W59768  27.915  18.243  12.442
87443W        W59769  42.412  43.392   0.995
87444W        W59770  35.441  14.398   2.318
87445W        W59771   5.034  15.696  14.208
87446W        W59772  21.329  36.508   4.154
87447W        W59773  39.004  23.879  11.648
87448W        W59774  35.536  21.023  11.255
87449W        W59775  35.926  21.073  13.845
87450W        W59776  13.144   4.313   3.832
87451W        W59777   6.316  19.819  14.351
87452W        W59778  30.933  32.654  12.905
87453W        W59779  24.461  19.043   2.857
87454W        W59780  28.292  19.071  14.043
87455W        W59781  29.581  29.358   4.500
87456W        W59782   1.385   1.756  13.565
87457W        W59783   7.796   7.326   4.627
87458W        W59784   4.274  21.888  13.912
87459W        W59785  12.511   9.653  11.156
87460W        W59786   2.941  42.498  14.647
87461W        W59787   2.617  29.504  12.455
87462W        W59788  12.348  14.761   0.092
87463W        W59789   5.352  43.606   0.443
87464W        W59790  19.502  35.297  12.113
87465W        W59791  22.584  30.942   2.279
87466W        W59792  22.681  31.656  13.855
87467W        W59793  44.576  12.398   2.419
87468W        W59794  11.419  21.137   2.190
87469W        W59795  27.660   3.899  10.475
87470W        W59796  42.530  24.201   1.427
87471W        W59797  20.767   1.945  12.229
87472W        W59798  15.729  33.446  11.264
87473W        W59799  14.129  33.587  12.465
87474W        W59800   1.240  39.110   2.759
87475W        W59801  25.939  31.435  10.701
87476W        W59802  18.479  26.669   0.398
87477W        W59803   3.651   3.657   9.873
87478W        W59804  23.983  30.485  14.910
87479W        W59805  29.097  16.672   4.194
87480W        W59806  28.540  22.076  10.956
87481W        W59807  19.311   3.051  12.727
87482W        W59808  39.459  38.870   3.347
87483W        W59809  11.387  28.383   3.246
87484W        W59810  33.602  30.123   4.607
87485W        W59811  28.706  25.014  14.209
87486W        W59812  32.051  29.866   4.699
87487W        W59813  32.641  28.649   4.292
87488W        W59814  22.540  37.249   4.961
87489W        W59815  12.720   6.816   1.762
87490W        W59816  24.991  39.059   4.698
87491W        W59817  33.446  43.215   3.087
87492W        W59818  18.245  20.584   0.707
87493W        W59819   2.786  39.461  11.078
87494W        W59820   1.206  17.672  13.474
87495W        W59821  38.109  24.108  14.412
87496W        W59822  31.423  43.885  13.318
87497W        W59823  28.508  28.259   3.699
87498W        W59824   2.597  34.470  12.963
87499W        W59825  10.225   7.928   0.281
87500W        W59826  41.600  41.501  10.950
87501W        W59827  11.204  32.321  14.883
87502W        W59828  10.953  35.608   3.236
87503W        W59829   6.180   5.838  10.448
87504W        W59830  22.165  16.525  15.000
87505W        W59831   0.742  44.878   3.736
87506W        W59832  14.710  18.306  12.527
87507W        W59833  16.593  17.158  12.060
87508W        W59834   6.877  29.894   2.205
87509W        W59835   9.285  22.507  14.488
87510W        W59836  14.199  27.657  12.967
87511W        W59837  37.380  22.712  11.232
87512W        W59838  24.093  43.504   0.358
87513W        W59839  27.908   5.665  11.117
87514W        W59840  23.668  29.256   1.271
87515W        W59841  10.730  34.977  14.767
87516W        W59842  44.450  39.438   0.849
87517W        W59843  21.687  20.152   4.145
87518W        W59844  42.766  27.071   0.885
87519W        W59845   1.762   9.245  14.696
87520W        W59846   2.757  30.999   3.732
87521W        W59847   4.321  19.313  12.988
87522W        W59848  23.071   8.904  14.256
87523W        W59849   7.097  10.693  13.977
87524W        W59850  39.601  22.692  12.904
87525W        W59851   6.372  24.853   4.909
87526W        W59852   9.373  41.839  13.320
87527W        W59853  44.225  29.067  10.021
87528W        W59854   8.241  39.924  11.689
87529W        W59855   8.753  30.405   4.575
87530W        W59856  25.853  14.102   2.690
87531W        W59857  43.957   6.297   1.326
87532W        W59858  27.517  39.175  10.609
87533W        W59859  44.293  25.694   3.998
87534W        W59860  37.463  33.712   3.725
87535W        W59861  43.278  37.335   0.384
87536W        W59862   4.063  31.279  11.104
87537W        W59863   2.333  12.929   2.769
87538W        W59864  19.659  20.931   4.618
87539W        W59865  11.960  31.195  13.502
87540W        W59866  17.623  20.927  10.544
87541W        W59867  27.585  12.750  13.666
87542W        W59868   7.150   6.786   2.997
87543W        W59869   3.435  25.325   4.016
87544W        W59870  38.943  30.869  11.681
87545W        W59871  30.664  32.641  13.763
87546W        W59872  27.206  23.711  12.830
87547W        W59873  25.214  26.706  14.238
87548W        W59874  30.518  42.185  10.685
87549W        W59875  15.733  16.088   1.812
87550W        W59876  13.321  19.686   0.803
87551W        W59877  18.415   8.704   4.081
87552W        W59878   1.445  15.756  13.458
87553W        W59879  44.566  34.907   2.894
87554W        W59880  33.363   6.829   0.996
87555W        W59881  17.627   5.492   2.826
87556W        W59882  11.941  41.260   0.655
87557W        W59883   0.216  11.218  12.403
87558W        W59884  10.338   1.994   4.728
87559W        W59885  35.809  14.294  11.938
87560W        W59886  11.830  21.616   3.240
87561W        W59887  10.949  34.551   1.813
87562W        W59888   1.798   8.601   1.820
87563W        W59889  26.637  44.974   2.206
87564W        W59890   0.733  18.536   1.413
87565W        W59891  44.585  22.282  12.824
87566W        W59892  35.527  23.172  13.293
87567W        W59893  32.867  44.560  13.346
87568W        W59894  26.447  20.658   3.309
87569W        W59895  44.366  38.997   9.944
87570W        W59896  44.831  20.241   0.440
87571W        W59897  36.794  18.332   0.862
87572W        W59898  11.790  36.368  12.984
87573W        W59899  19.800  11.221  13.304
87574W        W59900  14.005  14.241  10.042
87575W        W59901  23.060  10.856   3.158
87576W        W59902  15.149  14.309   3.377
87577W        W59903  33.431  25.122  10.057
87578W        W59904  22.216  25.450   0.769
87579W        W59905  26.026  43.733  11.730
87580W        W59906  36.340   0.296   1.168
87581W        W59907  22.236  39.836   9.828
87582W        W59908  21.869  44.563   3.235
87583W        W59909  23.656  10.840  10.893
87584W        W59910  36.831  10.277   0.340
87585W        W59911  25.504  37.313  11.662
87586W        W59912  18.753  12.588  12.965
87587W        W59913  15.294  35.796  12.904
87588W        W59914  25.240  26.573  11.214
87589W        W59915  44.732  42.872  11.784
87590W        W59916   5.269  33.925   3.576
87591W        W59917  27.931  10.421   3.748
87592W        W59918  22.093  39.837  12.625
87593W        W59919  22.548  34.993   4.262
87594W        W59920  37.878  13.618  12.654
87595W        W59921  25.932   8.267   3.654
87596W        W59922  38.410   8.918  10.469
87597W        W59923   8.568  15.982  12.571
87598W        W59924  32.910  43.488   4.309
87599W        W59925  22.260  40.370   1.297
87600W        W59926  27.681  25.036   1.708
87601W        W59927  28.821  21.328   3.971
87602W        W59928  12.814  32.700  13.363
87603W        W59929  18.738  13.657   2.708
87604W        W59930   4.005  41.451  13.298
87605W        W59931  39.983  24.635   1.247
87606W        W59932  14.413   1.784   0.869
87607W        W59933   9.742   5.412  13.930
87608W        W59934  23.062  42.344   0.032
87609W        W59935  35.156  32.915  11.481
87610W        W59936  33.635  25.029  13.729
87611W        W59937  43.084  12.291   0.527
87612W        W59938  44.430  43.829   1.800
87613W        W59939   5.633  22.757   4.103
87614W        W59940  41.430  19.246   2.335
87615W        W59941   7.999  32.622  11.079
87616W        W59942  33.259  27.031  11.458
87617W        W59943  43.881  39.392   2.623
87618W        W59944   9.929   2.948   0.909
87619W        W59945  44.975  24.608   4.437
87620W        W59946  44.039  22.045   4.479
87621W        W59947   0.143  13.423   4.162
87622W        W59948  27.097   6.813   0.926
87623W        W59949  20.690  32.413  14.283
87624W        W59950  28.363   2.053   0.464
87625W        W59951  23.117  37.277   4.252
87626W        W59952  26.701  14.663   0.787
87627W        W59953  44.416  39.385   2.826
87628W        W59954  31.140  22.021   1.778
87629W        W59955  40.320  37.501   3.721
87630W        W59956   1.441  39.962  13.569
87631W        W59957  41.859  19.609  13.587
87632W        W59958  40.009  11.186   0.191
87633W        W59959   7.098   6.823  13.127
87634W        W59960  21.619  40.314  10.303
87635W        W59961  44.613  16.418   3.182
87636W        W59962  19.208   1.440   2.108
87637W        W59963  39.138   6.493   3.778
87638W        W59964   3.484   1.800   5.461
87639W        W59965  12.103  22.125  14.784
87640W        W59966  17.598  22.992  14.429
87641W        W59967  40.026  18.899  14.008
87642W        W59968  36.820  18.152   2.858
87643W        W59969  15.280  40.209   4.121
87644W        W59970  29.593   6.911  10.416
87645W        W59971   3.801  17.851   4.186
87646W        W59972  13.651  18.547  14.031
87647W        W59973  33.404  12.176   1.877
87648W        W59974  40.495  20.290   1.348
87649W        W59975  30.056  35.964   1.751
87650W        W59976  29.698   6.756  13.859
87651W        W59977  41.763  16.411  12.468
87652W        W59978   5.255  40.023   3.708
87653W        W59979  12.791  43.740   2.342
87654W        W59980  11.827  32.924   3.679
87655W        W59981  22.072   0.493  13.846
87656W        W59982  18.736  15.926   5.008
87657W        W59983  37.324   0.419  10.286
87658W        W59984  18.336  25.620   4.667
87659W        W59985  43.240   4.692  10.425
87660W        W59986  23.416  37.181   5.754
87661W        W59987  34.614   8.923   0.429
87662W        W59988  28.112  23.971  11.327
87663W        W59989   6.431   2.700   2.274
87664W        W59990   3.173  31.497   1.264
87665W        W59991  33.936  12.570   2.373
87666W        W59992  24.506  27.643  13.390
87667W        W59993  32.106  10.045  10.179
87668W        W59994  12.682  26.190   0.149
87669W        W59995  43.544  23.656   0.783
87670W        W59996  32.140   6.637   1.907
87671W        W59997  39.828  33.490  10.428
87672W        W59998  34.141  12.231   1.183
87673W        W59999  26.694  26.984   3.255
87674W        W60000  14.362   5.355   2.871
87675W        W60001   7.167  11.117  10.588
87676W        W60002  14.162  17.262  12.067
87677W        W60003  28.095  22.696   4.030
87678W        W60004  27.371  14.676  12.079
87679W        W60005  24.429  39.962  14.367
87680W        W60006  29.518  43.563  13.642
87681W        W60007  44.890  18.736   4.403
87682W        W60008  40.905  29.656   4.556
87683W        W60009  37.602  29.909   2.066
87684W        W60010  19.749  21.564   2.431
87685W        W60011  17.105  18.258  13.383
87686W        W60012  22.496   7.287   3.934
87687W        W60013  37.323  43.511  11.203
87688W        W60014  24.224  33.393   4.133
87689W        W60015  11.659  39.210  14.432
87690W        W60016  36.610  43.494  11.645
87691W        W60017  18.865  10.208  13.616
87692W        W60018  11.186   6.522   4.795
87693W        W60019  28.826  44.007   2.400
87694W        W60020  28.674  31.310  11.086
87695W        W60021  16.200  31.608   3.767
87696W        W60022  26.042  18.952   1.886
87697W        W60023  13.271   0.069   2.009
87698W        W60024  38.987  23.541   0.230
87699W        W60025  19.977  25.035  14.970
87700W        W60026  39.037  39.804  13.058
87701W        W60027  44.927  18.051  14.666
87702W        W60028   4.943  28.382  14.080
87703W        W60029  10.207   3.262  13.433
87704W        W60030  41.235  36.539  11.735
87705W        W60031  21.249  11.812   4.410
87706W        W60032   7.940  40.191  10.717
87707W        W60033  38.070   0.338  12.500
87708W        W60034  16.424  22.054   1.742
87709W        W60035  25.229  10.115   0.514
87710W        W60036  30.185   7.943   1.342
87711W        W60037  17.699   8.775  14.378
87712W        W60038  43.038  27.394   3.656
87713W        W60039  24.974   5.086   3.155
87714W        W60040   7.602  17.099   5.030
87715W        W60041  28.488  36.329   2.204
87716W        W60042  29.648  14.432  13.308
87717W        W60043  38.881  11.686  13.761
87718W        W60044   3.392  10.222   3.212
87719W        W60045  11.815  30.972   0.814
87720W        W60046   0.697  29.999   2.309
87721W        W60047  29.986  24.564  14.380
87722W        W60048   2.702  26.236   2.882
87723W        W60049  12.429  26.221   3.668
87724W        W60050  19.255   5.232   0.985
87725W        W60051  41.244  33.798   5.113
87726W        W60052   8.070  17.683   2.192
87727W        W60053  44.083  43.498   4.512
87728W        W60054  35.165  32.959   0.364
87729W        W60055  35.031  23.869   1.855
87730W        W60056  32.895  36.521  11.005
87731W        W60057  38.464  22.177  10.432
87732W        W60058   0.194  40.399  11.141
87733W        W60059  12.454  43.661   1.953
87734W        W60060   5.667  36.901  12.177
87735W        W60061  25.920   3.279   3.362
87736W        W60062  42.916  15.130   2.847
87737W        W60063  39.524  24.924  10.951
87738W        W60064  12.710  27.558  11.945
87739W        W60065  11.164  29.724  13.913
87740W        W60066  14.458   8.850   2.811
87741W        W60067   3.936  16.042   4.083
87742W        W60068   0.830  33.641   2.466
87743W        W60069  29.389   6.263   3.006
87744W        W60070  30.986  37.674   5.016
87745W        W60071  36.991  24.619  13.968
87746W        W60072  44.759  15.458   3.488
87747W        W60073   0.326   4.138   3.351
87748W        W60074  24.500   5.243   3.907
87749W        W60075  26.938  19.991  12.012
87750W        W60076   3.879   1.899   0.672
87751W        W60077  19.267  10.089  12.036
87752W        W60078  17.154   1.909  13.420
87753W        W60079   2.448  36.417   1.361
87754W        W60080  41.256  23.105  14.581
87755W        W60081  26.940  14.136   4.095
87756W        W60082   2.432  14.640   2.256
87757W        W60083  33.568  37.450   0.019
87758W        W60084   7.850  35.938   3.252
87759W        W60085  15.276  41.385  11.653
87760W        W60086  21.160  36.078   4.359
87761W        W60087  22.563  19.635  12.220
87762W        W60088  12.110  31.186   4.773
87763W        W60089  27.621  40.896   0.807
87764W        W60090  31.034  18.864   4.466
87765W        W60091  28.566  35.530  13.915
87766W        W60092  18.553   4.706  10.307
87767W        W60093  21.251  20.148  14.737
87768W        W60094  35.062  33.608   1.431
87769W        W60095  31.897  36.393  10.839
87770W        W60096   7.444   4.882   1.358
87771W        W60097  12.831  12.728  13.445
87772W        W60098  21.783   6.822   3.102
87773W        W60099   3.119  24.916   0.741
87774W        W60100   2.581  38.775  12.659
87775W        W60101   4.838   9.506   1.864
87776W        W60102  19.995  17.122   4.116
87777W        W60103  22.010   1.764   1.410
87778W        W60104  39.511  14.254  12.753
87779W        W60105  24.318   1.851  11.588
87780W        W60106  36.859  15.795   4.322
87781W        W60107   3.052  24.545   9.691
87782W        W60108  34.577  25.581  11.482
87783W        W60109   0.730   8.456  14.802
87784W        W60110  34.267  37.616   4.640
87785W        W60111  25.132  21.068  11.604
87786W        W60112  19.135  11.145  14.324
87787W        W60113  28.616  25.654  11.144
87788W        W60114  38.962  15.044  12.645
87789W        W60115  13.071  41.728  11.579
87790W        W60116  27.180  17.228   3.776
87791W        W60117  32.204  31.774   3.903
87792W        W60118  41.020  43.512   0.881
87793W        W60119   6.089   8.947  11.586
87794W        W60120   8.602  16.157   1.380
87795W        W60121  17.866  35.581  12.490
87796W        W60122  31.997   4.394  14.820
87797W        W60123  33.927  37.785   1.610
87798W        W60124  33.028  29.663   0.494
87799W        W60125  37.095  35.400  10.775
87800W        W60126  32.577  15.797  10.625
87801W        W60127  30.179  37.309  14.279
87802W        W60128  41.367  13.221   4.615
87803W        W60129  30.545  26.211   1.755
87804W        W60130  21.156  20.558  14.013
87805W        W60131  30.214  36.849  14.984
87806W        W60132  10.294  11.107  14.009
87807W        W60133  39.054  13.045  14.116
87808W        W60134   4.609  28.885   4.082
87809W        W60135  24.918  29.496  14.793
87810W        W60136  29.350  38.055   2.291
87811W        W60137   9.201  21.140  14.817
87812W        W60138  42.012  19.051   0.775
87813W        W60139  13.935  19.130  14.702
87814W        W60140   9.310  39.511   3.618
87815W        W60141  30.504  36.033   2.111
87816W        W60142  22.493  22.976  14.736
87817W        W60143  36.009  10.204   1.680
87818W        W60144  35.226  21.602   1.432
87819W        W60145  24.972   2.699  14.950
87820W        W60146  42.391  39.435   0.658
87821W        W60147   8.267  24.010  11.580
87822W        W60148   0.474  22.712   2.829
87823W        W60149  25.483   3.004  13.014
87824W        W60150  17.135  29.573  12.925
87825W        W60151  36.362  16.826   0.884
87826W        W60152  31.211  36.943   1.281
87827W        W60153  25.770   1.303   3.251
87828W        W60154   6.057   4.931   1.869
87829W        W60155  38.706  42.847  13.640
87830W        W60156  21.519  24.685  14.097
87831W        W60157   0.911  27.218  13.991
87832W        W60158  37.628  26.302   4.178
87833W        W60159  21.198  39.317  14.815
87834W        W60160  25.488   5.323   0.424
87835W        W60161  26.442  22.781   1.680
87836W        W60162  14.855  25.707  10.050
87837W        W60163  28.688  29.120   1.441
87838W        W60164  44.322  30.870   3.714
87839W        W60165   9.851  39.182   2.808
87840W        W60166   3.581  41.762   1.446
87841W        W60167  15.158   0.972  13.103
87842W        W60168  24.743  40.919   1.606
87843W        W60169  40.454  42.216   0.446
87844W        W60170  32.456  30.137   0.802
87845W        W60171  35.631   8.123   3.155
87846W        W60172  36.990  10.405  11.087
87847W        W60173  40.745  38.970  10.459
87848W        W60174  18.035  28.862   0.658
87849W        W60175  28.094   6.845   3.716
87850W        W60176  27.388  13.848   4.090
87851W        W60177  27.857  13.101   4.493
87852W        W60178  40.005  12.998   4.130
87853W        W60179  40.349   7.473  13.113
87854W        W60180  10.671   4.987   4.099
87855W        W60181  33.894  41.950   3.295
87856W        W60182   0.249   4.104   0.382
87857W        W60183  41.383   8.115  14.699
87858W        W60184  27.666  37.547   4.188
87859W        W60185  23.364   4.743  11.532
87860W        W60186  14.149  38.920   0.876
87861W        W60187   4.837  34.066   2.658
87862W        W60188  12.369  23.281   2.194
87863W        W60189   0.452   4.608  13.794
87864W        W60190  28.118  36.733   2.722
87865W        W60191  13.403  21.528   1.325
87866W        W60192  28.468  43.916   2.764
87867W        W60193  26.408   4.097  11.989
87868W        W60194  20.074  15.121  12.402
87869W        W60195  13.043   1.337  12.018
87870W        W60196  32.387  11.851   2.400
87871W        W60197  10.363  12.820   4.360
87872W        W60198  35.395  14.169  11.162
87873W        W60199  36.748  12.831  14.410
87874W        W60200  17.132  17.692   9.837
87875W        W60201  33.654  34.750   0.356
87876W        W60202  14.541  14.234  13.758
87877W        W60203  14.671  22.828  12.958
87878W        W60204  39.941   1.343   2.602
87879W        W60205  11.653  37.623  13.549
87880W        W60206  17.129  42.510  10.465
87881W        W60207   3.685  28.228  14.420
87882W        W60208  44.757  32.930  12.989
87883W        W60209  22.222  22.230  10.085
87884W        W60210  15.668   5.027  14.062
87885W        W60211  13.256  25.206   2.884
87886W        W60212  16.524   9.583  14.481
87887W        W60213  22.635  26.391   0.827
87888W        W60214  16.235  37.478  12.059
87889W        W60215  16.090   2.863  12.505
87890W        W60216   7.624  21.007  12.973
87891W        W60217  14.368  34.499  12.997
87892W        W60218  16.107   9.275  11.899
87893W        W60219  18.223   0.980   4.825
87894W        W60220  34.606   6.887   3.084
87895W        W60221  35.098  25.491  11.562
87896W        W60222  12.686   4.183  10.583
87897W        W60223   9.637  38.963  13.876
87898W        W60224  11.635   6.352   4.642
87899W        W60225  12.213  44.839   1.080
87900W        W60226  16.262   3.633  13.858
87901W        W60227  40.283  43.783  11.692
87902W        W60228   8.226  35.277  11.240
87903W        W60229  19.064   6.118   1.698
87904W        W60230   8.943  12.833   4.179
87905W        W60231  34.814   0.005   4.248
87906W        W60232  20.651  31.483   4.545
87907W        W60233  39.087   9.870  14.472
87908W        W60234   3.202  16.240   1.243
87909W        W60235  41.968  35.894   4.651
87910W        W60236   2.133  37.052   4.738
87911W        W60237  34.046   4.856   0.803
87912W        W60238   0.252  22.645   4.665
87913W        W60239  12.514   6.894   0.624
87914W        W60240  29.076  39.462   4.701
87915W        W60241  16.863  34.397   1.366
87916W        W60242  44.457  10.911  13.992
87917W        W60243  28.451  34.429   1.665
87918W        W60244  13.140  32.307  13.473
87919W        W60245  33.340  26.979  11.971
87920W        W60246  23.370  42.818  11.539
87921W        W60247   8.003  22.705  11.940
87922W        W60248  13.073  43.835  14.926
87923W        W60249  22.499  41.961   4.630
87924W        W60250  39.639   6.899   1.256
87925W        W60251  25.461  31.060  12.053
87926W        W60252  34.715  33.196  13.344
87927W        W60253   9.421   3.193   2.859
87928W        W60254   7.429  36.915  11.651
87929W        W60255  25.702   9.181   4.641
87930W        W60256   2.840  30.475   4.758
87931W        W60257  31.602  29.182  14.714
87932W        W60258   4.787   2.763   3.582
87933W        W60259  16.273   2.644  12.944
87934W        W60260  43.401  37.451   4.200
87935W        W60261  31.412  15.731  13.892
87936W        W60262  17.607  31.013   3.534
87937W        W60263   7.402   3.365  10.698
87938W        W60264  11.102  26.699  10.466
87939W        W60265  32.045   4.990   3.381
87940W        W60266   9.130  21.234   4.499
87941W        W60267   8.380  37.965   2.856
87942W        W60268  30.939  20.101   3.066
87943W        W60269  38.987  30.518   0.034
87944W        W60270   0.770  26.171  11.243
87945W        W60271  42.985  39.131   3.701
87946W        W60272  19.752  43.220   0.274
87947W        W60273  31.559  32.082   4.327
87948W        W60274   5.886  28.611   1.849
87949W        W60275  18.660  32.443  11.621
87950W        W60276   4.379  32.373  10.289
87951W        W60277  16.679  34.972   0.639
87952W        W60278   4.080  36.371   1.395
87953W        W60279  38.120  40.522  14.330
87954W        W60280  43.784  42.378  12.970
87955W        W60281   4.784  25.456   1.337
87956W        W60282  29.826  15.219   1.286
87957W        W60283  35.612  11.571  12.429
87958W        W60284  21.512   9.657  14.286
87959W        W60285  19.703  38.769  13.493
87960W        W60286  10.633  43.564  11.631
87961W        W60287  35.533  27.053  12.043
87962W        W60288   1.618  44.572   0.182
87963W        W60289  34.111   5.187  12.541
87964W        W60290   9.879  34.899  14.016
87965W        W60291  29.167  35.573   3.257
87966W        W60292  19.265  26.916  11.217
87967W        W60293   8.363   4.789  11.532
87968W        W60294   6.579  18.109  14.331
87969W        W60295   1.538  16.041   4.557
87970W        W60296  17.806   8.184  12.552
87971W        W60297   9.889  33.175  13.904
87972W        W60298  18.709  11.802  13.528
87973W        W60299  14.790  13.601  11.544
87974W        W60300  31.339   8.246  12.973
87975W        W60301  37.960  18.745   3.964
87976W        W60302  31.300   6.432   1.823
87977W        W60303   9.751   0.480   0.741
87978W        W60304  23.669  26.063   1.859
87979W        W60305  33.591  21.044  14.398
87980W        W60306  33.572  32.907   1.294
87981W        W60307  18.126   0.351   0.584
87982W        W60308  13.873  33.876   0.624
87983W        W60309  42.880  35.057  10.916
87984W        W60310   6.258  12.634   4.068
87985W        W60311  15.614  34.406  14.984
87986W        W60312   8.712  28.546   4.539
87987W        W60313  19.139   2.817  13.161
87988W        W60314   6.333  38.360  11.368
87989W        W60315  29.644  18.298  11.209
87990W        W60316  40.009  17.440   4.569
87991W        W60317  44.809  35.545  14.318
87992W        W60318  35.128  40.534   2.698
87993W        W60319  28.311  15.187   2.220
87994W        W60320  31.789  42.814  12.079
87995W        W60321  32.881  30.309  14.460
87996W        W60322  26.933  32.307  12.446
87997W        W60323   1.904   1.792   3.317
87998W        W60324  13.227  17.163   0.650
87999W        W60325   1.873  16.699  11.703
88000W        W60326  40.288  32.356   3.750
88001W        W60327  36.344  12.292  13.137
88002W        W60328   1.163  12.427  13.513
88003W        W60329  44.808  12.709  11.729
88004W        W60330  39.416  32.132   2.201
88005W        W60331  44.425  14.045  14.328
88006W        W60332  23.582  24.405   2.838
88007W        W60333  42.725   8.299   3.366
88008W        W60334  43.513  11.178   2.787
88009W        W60335   4.856  25.717   1.803
88010W        W60336  21.726  12.823   0.046
88011W        W60337  12.227  30.234  13.305
88012W        W60338  33.555  23.950  12.418
88013W        W60339  43.283   4.772  12.300
88014W        W60340  24.170  31.414   0.773
88015W        W60341   1.076  23.197   5.625
88016W        W60342  15.304  13.572  11.474
88017W        W60343   8.924  26.139   3.314
88018W        W60344  12.348  38.437   3.884
88019W        W60345  38.990   2.927   1.275
88020W        W60346  31.901  37.916   3.885
88021W        W60347   0.012  15.813   1.973
88022W        W60348  23.102  41.345   1.808
88023W        W60349  28.592  37.971  11.173
88024W        W60350   9.885   0.518  13.817
88025W        W60351   2.825  22.435  13.255
88026W        W60352   9.060  16.584  13.400
88027W        W60353  19.655  32.530   2.926
88028W        W60354   8.237   7.462  14.224
88029W        W60355   9.262   3.737   2.811
88030W        W60356  11.309   2.218  14.385
88031W        W60357   4.009  33.932   3.794
88032W        W60358  21.602  26.147  13.937
88033W        W60359  30.483  34.006   3.932
88034W        W60360  26.746  26.518   1.349
88035W        W60361  38.144  44.704  14.603
88036W        W60362  26.126  29.668   4.671
88037W        W60363  26.059  16.856   2.750
88038W        W60364   4.416  25.655  14.905
88039W        W60365   2.288   0.778  10.225
88040W        W60366   5.127  16.237  11.144
88041W        W60367  16.040  12.211   3.617
88042W        W60368  37.165  20.592   0.968
88043W        W60369   0.541  21.575   3.387
88044W        W60370  29.573  34.685  13.542
88045W        W60371  27.676  18.254  10.849
88046W        W60372  40.498   2.387   1.392
88047W        W60373  14.768   4.664  10.930
88048W        W60374  27.447  20.267   1.805
88049W        W60375  18.837  38.961  10.568
88050W        W60376  10.413  22.275   3.197
88051W        W60377  30.111  42.463   4.611
88052W        W60378  41.552  24.619   3.084
88053W        W60379  11.701  30.174  14.326
88054W        W60380  12.530  41.488  13.956
88055W        W60381  31.127  14.825  12.570
88056W        W60382  28.027  36.253  10.891
88057W        W60383  30.533   0.827  11.605
88058W        W60384  15.634   7.473  12.519
88059W        W60385  24.926  19.695   3.277
88060W        W60386  36.047   6.632   1.309
88061W        W60387  35.613  17.751   2.769
88062W        W60388  16.132  44.078   4.187
88063W        W60389  10.395  21.718  14.682
88064W        W60390  27.289  22.467  12.490
88065W        W60391  16.518  37.759  14.980
88066W        W60392  24.057  16.887   1.270
88067W        W60393   2.707   0.201  12.555
88068W        W60394  25.534  35.387  11.863
88069W        W60395  24.809  37.098  11.549
88070W        W60396   3.497   8.719   3.693
88071W        W60397   5.122  12.790  11.621
88072W        W60398  22.590  12.630   3.110
88073W        W60399   1.355  29.817  14.792
88074W        W60400   1.744  12.191  10.623
88075W        W60401  41.313  11.434   3.222
88076W        W60402  29.597  42.600  13.327
88077W        W60403  43.876  10.919   1.780
88078W        W60404  20.935  25.491   4.569
88079W        W60405   1.446   2.867   2.113
88080W        W60406  26.390  31.884  11.848
88081W        W60407  16.617  34.131  12.994
88082W        W60408  34.364  18.153  13.074
88083W        W60409  11.389  25.131  13.323
88084W        W60410  11.497   9.876   4.170
88085W        W60411  24.939  25.126   3.877
88086W        W60412  28.184  20.653  13.385
88087W        W60413  37.462  28.196   0.902
88088W        W60414  41.873  26.510  10.723
88089W        W60415  39.321  32.019   0.083
88090W        W60416  33.411  37.519  13.649
88091W        W60417   1.425   2.695  11.586
88092W        W60418  38.187  13.799  13.972
88093W        W60419  19.260  27.242  13.620
88094W        W60420  27.842   2.396  10.842
88095W        W60421  44.504  11.738   1.361
88096W        W60422   8.473  34.334  14.964
88097W        W60423   9.226  12.805   0.317
88098W        W60424  28.749  18.964  12.614
88099W        W60425  27.520  13.866   1.295
88100W        W60426  15.217  33.003   0.390
88101W        W60427  42.693   5.759  14.092
88102W        W60428   6.297  14.640   2.192
88103W        W60429  37.355  16.301   2.706
88104W        W60430  41.438  16.297  14.767
88105W        W60431  19.153  37.382  14.578
88106W        W60432   0.506  30.601   4.232
88107W        W60433  26.995  43.184  14.259
88108W        W60434  30.561   4.506   3.371
88109W        W60435   7.939  44.454  13.470
88110W        W60436  38.291  33.445   2.849
88111W        W60437  26.486   2.395   1.145
88112W        W60438  42.272  41.934  14.430
88113W        W60439  33.700   8.400   0.404
88114W        W60440  37.678  41.602   3.697
88115W        W60441  19.227   7.890  12.636
88116W        W60442  36.028  24.276  12.453
88117W        W60443  35.602   5.899   3.664
88118W        W60444  22.158   8.219   1.152
88119W        W60445  11.171  17.548  13.069
88120W        W60446  13.731  17.282   0.690
88121W        W60447  36.420  20.412   3.080
88122W        W60448  25.864  27.672   0.734
88123W        W60449   9.273  40.744   4.162
88124W        W60450  38.094   8.168  11.392
88125W        W60451  20.259  10.921  14.739
88126W        W60452  42.386  25.931  14.504
88127W        W60453   3.382  21.505   0.371
88128W        W60454   6.908   7.021   0.730
88129W        W60455  23.031   9.352   2.286
88130W        W60456  34.132  20.792  10.676
88131W        W60457  33.398  13.054  14.468
88132W        W60458  32.034  30.691   1.270
88133W        W60459  27.755  28.464   5.467
88134W        W60460  36.973  29.650  13.363
88135W        W60461   8.273  13.053   2.367
88136W        W60462  36.629  36.958   4.681
88137W        W60463   9.493  35.079  12.433
88138W        W60464  14.712   8.972  12.026
88139W        W60465  22.685  44.117  14.088
88140W        W60466  31.616   4.244   4.605
88141W        W60467  17.008  44.791   2.290
88142W        W60468  34.392   2.696  11.215
88143W        W60469  23.841  10.696   1.248
88144W        W60470   1.899  28.632  12.143
88145W        W60471  43.505  18.139  14.532
88146W        W60472  35.094  16.208  10.754
88147W        W60473   2.726  26.665  13.282
88148W        W60474  43.499  17.735   2.209
88149W        W60475  21.057   6.872   4.317
88150W        W60476   5.442  19.233  10.798
88151W        W60477  31.675   9.914  12.839
88152W        W60478   7.640  20.186  12.572
88153W        W60479   6.061   4.708   2.374
88154W        W60480  43.658  19.198   3.753
88155W        W60481  34.344  17.894  13.904
88156W        W60482   9.440  40.392  10.647
88157W        W60483  25.167  25.487  12.490
88158W        W60484  17.238  23.546   4.316
88159W        W60485  34.159   9.751   3.614
88160W        W60486  33.053  38.321  13.900
88161W        W60487  44.213  29.662   1.693
88162W        W60488  39.180  15.712  11.233
88163W        W60489  14.626  23.209   1.408
88164W        W60490  23.676   8.752   2.629
88165W        W60491   5.029  33.781  11.933
88166W        W60492  40.331   0.285   1.796
88167W        W60493   7.218  20.102   4.772
88168W        W60494  42.830  36.165  12.690
88169W        W60495  17.130  39.507   1.853
88170W        W60496  34.902  10.233  12.864
88171W        W60497  26.219   2.080  11.569
88172W        W60498  21.009  29.995   1.236
88173W        W60499   5.730   6.114  11.742
88174W        W60500  23.720  24.616  13.388
88175W        W60501  34.959  44.373  12.607
88176W        W60502   6.156  42.240   1.870
88177W        W60503  11.439  15.039  11.125
88178W        W60504  21.305  28.487   0.255
88179W        W60505  16.325   1.226  12.380
88180W        W60506   7.707  44.849   3.216
88181W        W60507  21.116  38.382   2.878
88182W        W60508  20.166   8.680  10.546
88183W        W60509  16.079   1.209   3.408
88184W        W60510  29.525  14.827  13.603
88185W        W60511  31.572  17.631   4.535
88186W        W60512   6.704  39.890   3.616
88187W        W60513  22.698  35.625  14.086
88188W        W60514  30.917   4.210   3.598
88189W        W60515  35.374   9.371  11.598
88190W        W60516  30.793   8.345  11.111
88191W        W60517  36.913  44.788  10.675
88192W        W60518   2.874  32.337  12.677
88193W        W60519  43.358  15.600   3.283
88194W        W60520  10.434  30.638   2.313
88195W        W60521  23.004  13.612  11.991
88196W        W60522   5.575  33.617  11.041
88197W        W60523  15.724   4.179  13.453
88198W        W60524  42.911   8.290   0.317
88199W        W60525  32.455  30.393   0.354
88200W        W60526  39.025  27.153   1.328
88201W        W60527  19.621  25.757  13.174
88202W        W60528  43.289  16.345  12.181
88203W        W60529  40.017  11.122  11.527
88204W        W60530   8.630  24.345  14.838
88205W        W60531  10.280  23.649   3.755
88206W        W60532  38.052  32.872  12.829
88207W        W60533  20.070  24.023   4.847
88208W        W60534   9.206  26.505  12.997
88209W        W60535  39.629  20.742  14.015
88210W        W60536  44.441   0.521  14.337
88211W        W60537  32.016  44.917  11.880
88212W        W60538  31.148  15.176   0.826
88213W        W60539  22.511  11.432  11.501
88214W        W60540  23.415  43.989   2.733
88215W        W60541  42.390  44.075  12.906
88216W        W60542  19.955  11.953   0.564
88217W        W60543  41.596  27.924  10.807
88218W        W60544   5.183   2.987  14.795
88219W        W60545   5.723  19.034   0.281
88220W        W60546  39.456   6.202  14.038
88221W        W60547   6.844  36.635   3.842
88222W        W60548  11.353  43.805  10.501
88223W        W60549   1.448  42.208   0.396
88224W        W60550   2.901  18.506  12.146
88225W        W60551  31.082  16.341  10.641
88226W        W60552   7.720  42.896   4.622
88227W        W60553   7.258  19.055   0.850
88228W        W60554  21.004  32.794  10.775
88229W        W60555  11.300  24.084  12.400
88230W        W60556  38.544  36.494  10.696
88231W        W60557  20.215   9.557   0.290
88232W        W60558   3.671  43.818   2.372
88233W        W60559  21.067   8.709  14.046
88234W        W60560   4.779   7.034   3.713
88235W        W60561  38.774  11.360   3.517
88236W        W60562   6.094  35.889   2.062
88237W        W60563  37.965  25.913   3.542
88238W        W60564  34.864  22.624  12.508
88239W        W60565   4.477  28.974  11.056
88240W        W60566  36.694  16.829  12.091
88241W        W60567  32.612  20.761  11.596
88242W        W60568  41.621  39.038  13.486
88243W        W60569  32.168  14.367   3.199
88244W        W60570  27.994  21.560   2.098
88245W        W60571  12.200   3.524  12.910
88246W        W60572   8.163  19.067   0.212
88247W        W60573  20.571   3.112   4.691
88248W        W60574  37.098  22.150  13.457
88249W        W60575  27.620  27.905   4.993
88250W        W60576   9.119  22.628  10.697
88251W        W60577  13.642  42.789   0.342
88252W        W60578  35.825  39.863  14.812
88253W        W60579  25.179   2.883   0.847
88254W        W60580   4.222  25.834   3.717
88255W        W60581  30.102  26.111   2.015
88256W        W60582  31.925  23.096   4.543
88257W        W60583   5.907  20.126  12.102
88258W        W60584   8.163  36.159   2.832
88259W        W60585  24.236  30.964  12.783
88260W        W60586  17.246  30.134   1.391
88261W        W60587  15.843  33.372  14.907
88262W        W60588   7.896  36.358  12.394
88263W        W60589  22.656  39.609   1.760
88264W        W60590  18.469  20.599   2.877
88265W        W60591  42.089  42.603  13.597
88266W        W60592  44.319  14.299  10.638
88267W        W60593  24.314  39.242  14.633
88268W        W60594  21.599  34.154  14.247
88269W        W60595  44.429   9.173  12.107
88270W        W60596  35.569  16.676   1.759
88271W        W60597  42.133  34.273   3.728
88272W        W60598  29.384  33.500   1.238
88273W        W60599  41.760   9.892   2.378
88274W        W60600  37.205  31.570   2.759
88275W        W60601  26.527  31.864   2.311
88276W        W60602  12.236  41.811  11.221
88277W        W60603   1.762  28.705   4.141
88278W        W60604  17.301  16.090   4.725
88279W        W60605  36.730  31.131  11.193
88280W        W60606   6.347   1.712  11.636
88281W        W60607   7.430  30.869   0.352
88282W        W60608  16.243   8.293  14.798
88283W        W60609   3.692   8.781   4.158
88284W        W60610  43.744  27.687  14.274
88285W        W60611   9.474  39.819  14.872
88286W        W60612  24.335  41.898   2.832
88287W        W60613  23.997   5.393  14.791
88288W        W60614  16.321  36.482   4.151
88289W        W60615  15.631  39.070  14.376
88290W        W60616   3.450  34.138  14.461
88291W        W60617  10.947  23.024   3.326
88292W        W60618  17.200  36.005  14.262
88293W        W60619  41.506  39.410  13.832
88294W        W60620  37.680  22.712  13.551
88295W        W60621  32.401  34.175   2.125
88296W        W60622  34.618  19.320  12.098
88297W        W60623  44.190  33.431  14.964
88298W        W60624  34.686  41.141  12.032
88299W        W60625   0.471  15.648   2.701
88300W        W60626  10.387  10.740   3.380
88301W        W60627  23.581  24.801   4.590
88302W        W60628   7.279  44.777  10.947
88303W        W60629  44.551  37.611  14.554
88304W        W60630   2.138  38.965  14.833
88305W        W60631  20.644  20.530   0.246
88306W        W60632  41.908  12.596  11.701
88307W        W60633  11.338  12.052   2.439
88308W        W60634  27.697  17.164   3.788
88309W        W60635  27.933  26.552  11.175
88310W        W60636  29.868  20.816   2.733
88311W        W60637  42.030   2.729   3.673
88312W        W60638  40.801  14.696  10.703
88313W        W60639  44.503  26.487   5.023
88314W        W60640   3.661   1.457  11.508
88315W        W60641  10.327  41.950   3.883
88316W        W60642  31.877  37.387   9.916
88317W        W60643  21.288  20.501  11.166
88318W        W60644  21.030  13.580  10.782
88319W        W60645  27.623  41.309   1.455
88320W        W60646  31.058  32.175  11.994
88321W        W60647  29.263  12.671   0.301
88322W        W60648  21.235  40.965  11.103
88323W        W60649  27.173  40.956  14.818
88324W        W60650  38.855   2.996   0.207
88325W        W60651  36.296  33.310   3.275
88326W        W60652  12.306  15.567   1.747
88327W        W60653  28.886  40.805   4.115
88328W        W60654  40.891  19.994   1.445
88329W        W60655   7.328   0.157   4.589
88330W        W60656  32.453  32.897  11.567
88331W        W60657  40.599   6.423   2.840
88332W        W60658   8.397  30.153  11.513
88333W        W60659  25.064   3.949  12.035
88334W        W60660  44.896  18.356  12.959
88335W        W60661   7.730  19.602   2.253
88336W        W60662  38.376   5.962   3.527
88337W        W60663   1.005  11.679  14.726
88338W        W60664   4.974   6.191  14.144
88339W        W60665  34.820  22.069   3.382
88340W        W60666  30.361  21.944   5.132
88341W        W60667   8.087  10.390  14.209
88342W        W60668  12.809  43.318  13.783
88343W        W60669  39.430   4.944  10.496
88344W        W60670   6.363  44.354   3.374
88345W        W60671  40.708  36.578  13.811
88346W        W60672  10.841  39.313  10.722
88347W        W60673   6.418   3.286   3.028
88348W        W60674  12.580   4.089   0.086
88349W        W60675  33.552  44.569   4.302
88350W        W60676  23.732  32.158  13.360
88351W        W60677  21.645  30.171  13.080
88352W        W60678  25.284  39.565   1.583
88353W        W60679  21.789  11.841  14.785
88354W        W60680  25.731  44.481   2.643
88355W        W60681  44.310  36.482   4.688
88356W        W60682  34.362  35.492  13.949
88357W        W60683  36.528  43.469   0.574
88358W        W60684  31.397  28.021  11.632
88359W        W60685  41.041  14.805  13.368
88360W        W60686  32.940   3.003  12.332
88361W        W60687  23.226   2.498   3.785
88362W        W60688  14.301  20.412   3.222
88363W        W60689   3.347  40.767  14.907
88364W        W60690  25.595  29.896   1.601
88365W        W60691   5.555  43.283   3.060
88366W        W60692  25.133  14.412  13.077
88367W        W60693  37.307  42.219  14.934
88368W        W60694  18.396  24.196   4.548
88369W        W60695   5.469  11.381   3.283
88370W        W60696   5.166  18.761  14.021
88371W        W60697   5.271  43.334   0.911
88372W        W60698  19.621  44.184   1.165
88373W        W60699  39.086   5.295  14.962
88374W        W60700  27.927  21.763  10.460
88375W        W60701  27.702   0.029   1.152
88376W        W60702  11.793  26.275  10.318
88377W        W60703  42.004   3.981  14.887
88378W        W60704  42.917  41.400   1.815
88379W        W60705  40.089  14.609   3.410
88380W        W60706  38.426   8.204   4.354
88381W        W60707  10.783   7.626   1.340
88382W        W60708   7.640   4.352  14.122
88383W        W60709  13.860  14.220   4.756
88384W        W60710   3.696  16.996   2.400
88385W        W60711  27.566  28.212  14.294
88386W        W60712  10.275  27.527  10.492
88387W        W60713  14.780  42.369   4.621
88388W        W60714  23.603  13.577  13.992
88389W        W60715   8.395  27.543  13.384
88390W        W60716  16.613  38.980  12.627
88391W        W60717  40.349  38.659  13.906
88392W        W60718   6.457  41.879  14.847
88393W        W60719  34.403   2.803  14.521
88394W        W60720  12.301   5.033  11.877
88395W        W60721  13.823  18.655   3.187
88396W        W60722   9.723  14.280   0.873
88397W        W60723  41.721  29.421   2.355
88398W        W60724  37.034  11.825  12.054
88399W        W60725  34.440   9.457  10.995
88400W        W60726  12.685  25.706  10.926
88401W        W60727  28.122  22.869   1.450
88402W        W60728   4.262   3.725   3.320
88403W        W60729  44.723  37.056  11.944
88404W        W60730  14.351  10.723  13.121
88405W        W60731   6.782   3.232  14.490
88406W        W60732  25.864  22.745   3.674
88407W        W60733   4.871  25.605   0.753
88408W        W60734   3.357  30.632  11.288
88409W        W60735  28.492   0.835  14.963
88410W        W60736  42.753   9.715   0.043
88411W        W60737  25.109  24.282   4.100
88412W        W60738   1.804  36.316  12.926
88413W        W60739  18.168  31.737  10.742
88414W        W60740  43.387  32.525  14.961
88415W        W60741  26.461  10.732   2.774
88416W        W60742  37.569   1.482  12.046
88417W        W60743  27.496  43.234  12.553
88418W        W60744  33.957  44.756  12.884
88419W        W60745  29.537  12.658  10.371
88420W        W60746   3.165  43.887  13.016
88421W        W60747  38.946  43.643  11.969
88422W        W60748  12.837  40.249  10.629
88423W        W60749  16.115  31.933  11.069
88424W        W60750  18.058  31.201   1.379
88425W        W60751  26.973  21.130  12.182
88426W        W60752  11.448  38.559   3.699
88427W        W60753  24.615  35.281  12.940
88428W        W60754   6.299  39.569   1.950
88429W        W60755  15.551  43.652  10.002
88430W        W60756  35.880  17.937  10.752
88431W        W60757  14.023  39.045   2.294
88432W        W60758  43.024  38.899   0.376
88433W        W60759  20.757  15.248  13.050
88434W        W60760  25.413   4.291  10.658
88435W        W60761  20.567  44.604   2.757
88436W        W60762  42.569  29.618   4.974
88437W        W60763  34.507  22.075  11.736
88438W        W60764  16.273  26.052  11.390
88439W        W60765  38.980  30.586  10.272
88440W        W60766  25.193  21.731  13.315
88441W        W60767  36.963  42.554   4.697
88442W        W60768  28.394  19.668   4.637
88443W        W60769   7.463   8.353   0.394
88444W        W60770   0.062  15.149   3.148
88445W        W60771  18.747  15.158   3.732
88446W        W60772   2.340  13.885   3.740
88447W        W60773  37.827  38.080   4.059
88448W        W60774   7.262  26.553   1.430
88449W        W60775  42.945   2.162   0.700
88450W        W60776  36.080  14.647  10.673
88451W        W60777   7.383  20.973  14.877
88452W        W60778  35.440  28.959   0.949
88453W        W60779  33.647  29.907   4.131
88454W        W60780   4.257  41.451  13.732
88455W        W60781   2.825  40.345   3.905
88456W        W60782  40.955   3.456  11.698
88457W        W60783  13.499  42.321   1.205
88458W        W60784   2.511  11.603   2.377
88459W        W60785  33.059  10.402  13.358
88460W        W60786   2.415   1.082   1.260
88461W        W60787   8.193   9.153   2.506
88462W        W60788  43.058  27.486  10.423
88463W        W60789  19.176  39.379   4.390
88464W        W60790  18.586   3.047   2.211
88465W        W60791  11.752  35.406  13.118
88466W        W60792  27.953  43.493   0.261
88467W        W60793  15.197   2.017  13.887
88468W        W60794   3.279   8.974  12.439
88469W        W60795  17.670   2.250  12.199
88470W        W60796  23.309  29.519  10.865
88471W        W60797  38.875  34.962  13.609
88472W        W60798   4.299  13.571  11.068
88473W        W60799  13.136  35.038   4.773
88474W        W60800  43.330  42.678  10.717
88475W        W60801   5.931  41.414   3.125
88476W        W60802   2.015  24.219   0.456
88477W        W60803  13.668  35.618  14.961
88478W        W60804   2.317   7.957  12.134
88479W        W60805   5.331  28.583   3.155
88480W        W60806  12.406   2.378   1.810
88481W        W60807  37.973  35.061  10.762
88482W        W60808   4.170  18.994  11.034
88483W        W60809  34.853  33.174   3.354
88484W        W60810  17.984   4.138  13.097
88485W        W60811  30.352  38.648  13.207
88486W        W60812   2.183   2.700   5.125
88487W        W60813  30.460  16.371  13.823
88488W        W60814  42.977   1.767  12.999
88489W        W60815  43.037  24.532  14.544
88490W        W60816  32.168  14.198   1.701
88491W        W60817  16.900  35.074   4.105
88492W        W60818  32.883  19.643   4.200
88493W        W60819  26.684  12.584   2.854
88494W        W60820  40.020  26.925   4.371
88495W        W60821   6.269  22.780  11.662
88496W        W60822  24.921  20.129  14.488
88497W        W60823  24.173  29.615   3.178
88498W        W60824  44.357  21.651   0.865
88499W        W60825  22.966  36.758   1.760
88500W        W60826  26.474  20.767  12.000
88501W        W60827  33.178  16.495  13.998
88502W        W60828  17.301  29.250   0.305
88503W        W60829  35.596  35.983  11.283
88504W        W60830  36.344  24.217  13.501
88505W        W60831  40.549  32.090  13.466
88506W        W60832  16.979   7.152   4.154
88507W        W60833  42.734  15.143   3.704
88508W        W60834  44.566  33.567  14.039
88509W        W60835  29.999  10.350   1.258
88510W        W60836   7.393  26.696  13.575
88511W        W60837  33.016  25.918   3.789
88512W        W60838  10.180  10.731  12.616
88513W        W60839  15.224  28.035  12.920
88514W        W60840  26.499   1.772  13.876
88515W        W60841  31.517  28.531  13.816
88516W        W60842   8.163  39.968   3.232
88517W        W60843  39.819  26.451  13.411
88518W        W60844   0.390  22.389  13.855
88519W        W60845  41.932  37.837  14.341
88520W        W60846  34.190  41.371  14.242
88521W        W60847  19.103  16.860   4.600
88522W        W60848   9.560   9.596  14.802
88523W        W60849  23.200  27.532  11.932
88524W        W60850   1.303  36.277  12.918
88525W        W60851  11.829  33.571  13.432
88526W        W60852   3.081  39.926   3.687
88527W        W60853  28.072  26.578   3.211
88528W        W60854  43.552  14.095   1.417
88529W        W60855  30.627  19.263   3.348
88530W        W60856   8.969  10.793   3.795
88531W        W60857  42.304  36.871  13.014
88532W        W60858  36.775  20.696  12.396
88533W        W60859  32.728  18.157  14.515
88534W        W60860  34.925  41.456   1.030
88535W        W60861  32.970  24.448  12.587
88536W        W60862   3.280  20.436  11.473
88537W        W60863  25.269  20.115   2.357
88538W        W60864  41.636  42.476   3.258
88539W        W60865  37.812  11.627  11.051
88540W        W60866  40.282  32.505   2.803
88541W        W60867  35.461  36.765   4.030
88542W        W60868  34.580  35.345   1.362
88543W        W60869  31.023  19.263  12.895
88544W        W60870   4.831  12.792   1.163
88545W        W60871  44.770  41.835   3.709
88546W        W60872  21.982   6.332   3.169
88547W        W60873  24.273   4.850   2.369
88548W        W60874   5.755  29.169   2.861
88549W        W60875   2.162  13.185  14.985
88550W        W60876  15.710   7.341   4.446
88551W        W60877   4.921  13.196  11.878
88552W        W60878  10.360  44.503  12.341
88553W        W60879  44.750  36.090  11.613
88554W        W60880   7.233   7.018  14.408
88555W        W60881  22.870   1.207  13.228
88556W        W60882  28.037  17.549   0.364
88557W        W60883  24.823  31.046   2.288
88558W        W60884   8.156  43.374   4.081
88559W        W60885  32.517  40.679  14.443
88560W        W60886   8.439  27.558   4.669
88561W        W60887  31.489  14.278  11.164
88562W        W60888   4.292  42.039   3.689
88563W        W60889  26.031  25.073  10.575
88564W        W60890  11.763  12.232   2.182
88565W        W60891   5.132  22.106  13.872
88566W        W60892  10.619  26.564  10.553
88567W        W60893  17.089  37.592  14.759
88568W        W60894   6.750   3.905  11.418
88569W        W60895  40.285  10.345  11.175
88570W        W60896  40.308  18.774   4.569
88571W        W60897   5.189  28.076  14.412
88572W        W60898  22.937  18.888  14.575
88573W        W60899  25.849  18.471   3.906
88574W        W60900  38.553  15.873  14.384
88575W        W60901   6.958  15.249  13.780
88576W        W60902  36.474  30.652   2.740
88577W        W60903  19.301   5.869   0.238
88578W        W60904  16.132  41.329  12.890
88579W        W60905   3.382  21.426  12.828
88580W        W60906  18.464  33.352   4.586
88581W        W60907  36.218  17.307   0.143
88582W        W60908  13.319   9.171   3.297
88583W        W60909  24.413  25.147   3.779
88584W        W60910  24.050  33.173   0.343
88585W        W60911  24.077  13.834  14.074
88586W        W60912  32.596  32.634   4.121
88587W        W60913  17.049  34.601   0.653
88588W        W60914  34.096   0.471   1.548
88589W        W60915  36.901  23.994  11.110
88590W        W60916  26.404  15.162  14.476
88591W        W60917  17.221  23.051   4.150
88592W        W60918  25.025   6.379   4.184
88593W        W60919   7.439  18.030   3.011
88594W        W60920  10.878  25.034  12.973
88595W        W60921  33.135  24.984   3.349
88596W        W60922  22.098   9.117   4.277
88597W        W60923  40.746  20.154   4.678
88598W        W60924   1.050  34.872   0.369
88599W        W60925  41.292  10.654   2.767
88600W        W60926  37.162  30.733   0.082
88601W        W60927   5.650  32.606  12.091
88602W        W60928  36.558   3.708   0.063
88603W        W60929  36.795   6.682   2.895
88604W        W60930  18.304  28.613   2.715
88605W        W60931  20.497  37.022  11.676
88606W        W60932  36.406  41.882   4.111
88607W        W60933  36.887  40.970  13.044
88608W        W60934  25.630  36.575   3.740
88609W        W60935  38.321  44.342  12.396
88610W        W60936  36.662   1.743   0.374
88611W        W60937  16.212  36.047   2.122
88612W        W60938  26.361   6.760   3.286
88613W        W60939  38.037  32.872   1.463
88614W        W60940   0.490  22.188   9.678
88615W        W60941  20.294  27.528  10.659
88616W        W60942   2.950  18.562  13.968
88617W        W60943   0.855   2.343  13.006
88618W        W60944  29.229  21.170  10.670
88619W        W60945  23.816   6.312   2.090
88620W        W60946   0.389  17.534  12.826
88621W        W60947  19.753  41.238  13.906
88622W        W60948   6.445  16.514   1.888
88623W        W60949   0.894  39.449   1.331
88624W        W60950   9.455   4.855  13.044
88625W        W60951  22.669  10.495   0.057
88626W        W60952  34.122  22.841   4.122
88627W        W60953  29.454  10.899   0.677
88628W        W60954  14.034   1.898   1.209
88629W        W60955  14.422  39.849   4.184
88630W        W60956  26.661  23.720   1.843
88631W        W60957  35.852  29.246   2.205
88632W        W60958  11.584  43.437  11.364
88633W        W60959  34.352  11.186  12.923
88634W        W60960   9.618  36.016  14.884
88635W        W60961  12.326   6.496   1.895
88636W        W60962  19.488  44.905  14.354
88637W        W60963  35.739  11.852  11.999
88638W        W60964  36.827  41.993  14.883
88639W        W60965   3.680   1.943  13.587
88640W        W60966   6.396  32.784  11.705
88641W        W60967  25.939  19.068  11.613
88642W        W60968   2.266  29.646   4.973
88643W        W60969   1.274  29.548   4.800
88644W        W60970  18.274   5.880   0.389
88645W        W60971  29.649   9.228  11.157
88646W        W60972  31.157  12.590   0.395
88647W        W60973  40.236   9.304  11.221
88648W        W60974  32.943   2.503  10.946
88649W        W60975   9.245  20.570  12.391
88650W        W60976  37.477   3.455   2.832
88651W        W60977  10.891  31.383   0.894
88652W        W60978  11.798  37.000   1.971
88653W        W60979  31.589   1.738  11.948
88654W        W60980  26.004  42.341  13.877
88655W        W60981  35.073  40.273  11.962
88656W        W60982  42.241  20.916  12.456
88657W        W60983  22.701  16.672   4.603
88658W        W60984   7.484  15.256  13.819
88659W        W60985  42.874  40.263   2.244
88660W        W60986  37.166  15.632  11.146
88661W        W60987   7.398  18.579   4.780
88662W        W60988  34.295  28.878   2.811
88663W        W60989  44.382  28.018  10.561
88664W        W60990  20.184  15.602  10.624
88665W        W60991  10.205  41.728   2.323
88666W        W60992  35.292  11.522  13.515
88667W        W60993  38.510   9.707   9.830
88668W        W60994  29.272  30.381   3.216
88669W        W60995  14.325  27.072   2.353
88670W        W60996  18.034  14.345   4.350
88671W        W60997  11.947  32.106  11.687
88672W        W60998  26.038   2.519   0.923
88673W        W60999  32.123  14.322   0.697
88674W        W61000  12.178  29.347  10.805
88675W        W61001   3.795  33.279  11.277
88676W        W61002  22.758  15.552   4.044
88677W        W61003   1.008   5.805   3.682
88678W        W61004  14.099  43.166  14.525
88679W        W61005  40.380  41.782   1.401
88680W        W61006  23.673  33.701   3.261
88681W        W61007  20.964  31.020  14.255
88682W        W61008   3.789  13.305   3.023
88683W        W61009   8.876  26.206   4.194
88684W        W61010  11.842  15.725   1.419
88685W        W61011  35.219  21.255  10.330
88686W        W61012  17.080  36.434   4.087
88687W        W61013  18.714  42.833  14.015
88688W        W61014   6.394  31.481  14.897
88689W        W61015  27.680  30.055  13.102
88690W        W61016   2.050  32.979   4.904
88691W        W61017  28.117  35.853  12.282
88692W        W61018  15.520  44.204  13.105
88693W        W61019  28.626  16.787   2.409
88694W        W61020   5.150   3.243  13.412
88695W        W61021  28.727   6.261   4.298
88696W        W61022  27.753  43.451  12.987
88697W        W61023  11.580  12.359   4.198
88698W        W61024  23.088  13.064   2.359
88699W        W61025  16.018   9.653  14.440
88700W        W61026  30.942  20.691  13.907
88701W        W61027   1.183  21.197  14.864
88702W        W61028  42.935  17.234  14.298
88703W        W61029  25.151  19.264  12.958
88704W        W61030  18.022  17.970  13.702
88705W        W61031  15.759   8.287   0.575
88706W        W61032  15.090   1.969   2.718
88707W        W61033  10.258  27.624   2.233
88708W        W61034  42.605  32.835   1.865
88709W        W61035   2.309  10.191  10.327
88710W        W61036  35.540  14.639   0.282
88711W        W61037   9.839  28.687  12.649
88712W        W61038  31.829  27.702  11.943
88713W        W61039  22.690  12.385   4.532
88714W        W61040   9.859   9.806   3.237
88715W        W61041  19.624  27.943  13.922
88716W        W61042  33.603   1.874   5.124
88717W        W61043   7.762  19.632   3.795
88718W        W61044  30.498  39.593  14.434
88719W        W61045   7.355   0.742   4.511
88720W        W61046  19.576  32.978  11.504
88721W        W61047   6.513  42.573  11.866
88722W        W61048  31.618   7.419  14.369
88723W        W61049   7.829  32.562  13.460
88724W        W61050  17.073  10.837  10.936
88725W        W61051  33.878  35.508   0.767
88726W        W61052  31.196  23.147   3.638
88727W        W61053  26.905  25.669   1.299
88728W        W61054  25.622   2.476  10.611
88729W        W61055  31.160  29.742  12.863
88730W        W61056  39.773  19.094  14.410
88731W        W61057  19.174  25.683  10.584
88732W        W61058  26.518  23.110   0.364
88733W        W61059   3.879  29.518   0.059
88734W        W61060  24.046  19.474   0.830
88735W        W61061  13.752  30.930  12.754
88736W        W61062  13.158  32.997  10.212
88737W        W61063  35.078  18.224  14.377
88738W        W61064  16.295  14.630  11.082
88739W        W61065  26.236  36.975  14.898
88740W        W61066  22.201  39.427   1.960
88741W        W61067   9.675  13.112  14.460
88742W        W61068  43.939  15.531   4.207
88743W        W61069  32.858  25.158   1.955
88744W        W61070  21.758  43.370  14.022
88745W        W61071  35.511  42.010   4.775
88746W        W61072  14.565   8.249  12.427
88747W        W61073  13.022   6.382  11.179
88748W        W61074  22.597  22.062  11.551
88749W        W61075  26.441  23.307  12.337
88750W        W61076  34.524   4.727  10.702
88751W        W61077  36.604  39.911   0.462
88752W        W61078  25.667  29.338  12.562
88753W        W61079   2.958  13.188  12.078
88754W        W61080  30.319  10.367  13.467
88755W        W61081   7.845  16.918   3.529
88756W        W61082  24.516  13.851   3.575
88757W        W61083  21.221   9.625   2.967
88758W        W61084  27.519  19.991   1.349
88759W        W61085  29.133  36.879  10.949
88760W        W61086  16.021  31.022   4.135
88761W        W61087  44.332  31.064  10.466
88762W        W61088  21.132  16.769   1.214
88763W        W61089  16.874  28.484   0.815
88764W        W61090   1.347  29.441   2.876
88765W        W61091  44.816  39.508   1.309
88766W        W61092   1.802  31.616   4.334
88767W        W61093  23.720  34.764  13.014
88768W        W61094  31.446  37.390  11.139
88769W        W61095  16.103  19.435  10.708
88770W        W61096   4.853  32.632  10.189
88771W        W61097  39.755   2.991  11.767
88772W        W61098  19.583  20.780  11.687
88773W        W61099  28.044  27.150  14.059
88774W        W61100  43.908  29.445   0.645
88775W        W61101  11.353  17.038   1.309
88776W        W61102  16.182  22.837  13.383
88777W        W61103   8.322  12.382   1.493
88778W        W61104  31.130  21.094  12.056
88779W        W61105   1.419  40.233  11.882
88780W        W61106  34.181  38.899   3.114
88781W        W61107  28.918  16.561   4.663
88782W        W61108  38.686  14.826   3.485
88783W        W61109  22.933  39.544   2.838
88784W        W61110  26.936   0.180  11.941
88785W        W61111  20.059  31.944  14.927
88786W        W61112  41.019  36.918  13.312
88787W        W61113  21.987  22.979  14.839
88788W        W61114  18.132  18.417   0.129
88789W        W61115  12.006  14.115  13.036
88790W        W61116   8.626  11.523  13.482
88791W        W61117  38.420  16.679  12.471
88792W        W61118   1.414   0.678  11.460
88793W        W61119   6.717  23.622   2.300
88794W        W61120   1.434  28.885  10.622
88795W        W61121   9.436   0.706   2.885
88796W        W61122  15.830  19.639  12.233
88797W        W61123  39.279  36.158   1.449
88798W        W61124  15.785   2.312   1.385
88799W        W61125  10.710   5.783   1.556
88800W        W61126  22.762  15.685   9.997
88801W        W61127  27.060  16.690   0.321
88802W        W61128  18.777  42.713  10.277
88803W        W61129  14.577  15.653   2.548
88804W        W61130  10.857   1.931  14.458
88805W        W61131  33.789  40.774   2.634
88806W        W61132  15.657  18.167  12.524
88807W        W61133   7.166   4.230  11.238
88808W        W61134   0.694  10.109   4.057
88809W        W61135  22.049  15.607  13.602
88810W        W61136   4.176  24.163   0.676
88811W        W61137   1.399  33.919   3.170
88812W        W61138  15.352  21.433   1.318
88813W        W61139  17.638   0.463  13.777
88814W        W61140  17.634   7.827   1.048
88815W        W61141  18.993  44.896  11.063
88816W        W61142  11.379  22.735   3.368
88817W        W61143  44.485  33.457   1.839
88818W        W61144  11.301  30.073   0.330
88819W        W61145   0.017  24.759   4.961
88820W        W61146  10.755  15.996   1.068
88821W        W61147  25.964  28.776  13.494
88822W        W61148  30.501  16.129   4.756
88823W        W61149  24.419  17.912  13.458
88824W        W61150  10.385  24.045   1.333
88825W        W61151  36.435  31.949  12.951
88826W        W61152  32.060   6.982   1.364
88827W        W61153  10.403  27.823   2.698
88828W        W61154  19.139  30.553   0.752
88829W        W61155  19.010  21.540   1.137
88830W        W61156  24.523  14.609   0.344
88831W        W61157  22.968   3.188  13.374
88832W        W61158   5.676  30.157  14.892
88833W        W61159  33.016   5.790   2.511
88834W        W61160   3.837  13.405  14.497
88835W        W61161   8.272   0.170  14.956
88836W        W61162  31.347  42.924   1.439
88837W        W61163  20.909  16.525  14.996
88838W        W61164  17.391  34.999   3.332
88839W        W61165  42.677  34.541   1.934
88840W        W61166   1.208  23.566   1.035
88841W        W61167  44.887  22.556   1.930
88842W        W61168   8.756  37.434   0.696
88843W        W61169  37.166   5.557  11.281
88844W        W61170  40.762  31.190  13.428
88845W        W61171  29.948  22.937   1.883
88846W        W61172   7.832  40.086   1.692
88847W        W61173  16.116   5.757   4.216
88848W        W61174  21.581  16.799  11.635
88849W        W61175  14.634   8.734   3.302
88850W        W61176  16.715  14.274   4.135
88851W        W61177  26.502  36.339  14.514
88852W        W61178   2.369  15.782  10.521
88853W        W61179  14.558  18.531  10.811
88854W        W61180   7.432   1.907  13.479
88855W        W61181  18.281  35.659  10.737
88856W        W61182  41.042   3.552   1.356
88857W        W61183   8.847  26.761  11.701
88858W        W61184   2.340  32.384   3.641
88859W        W61185   1.529  31.060  11.568
88860W        W61186  44.982  21.261   4.572
88861W        W61187  44.992  37.937  10.651
88862W        W61188   2.224  33.509   1.213
88863W        W61189   0.985   0.825   1.066
88864W        W61190  23.701  39.121   5.367
88865W        W61191   2.023  44.823  14.951
88866W        W61192   8.692   5.212  11.548
88867W        W61193  44.093  28.521  13.569
88868W        W61194  18.353  37.652   0.194
88869W        W61195  39.324  12.329  12.540
88870W        W61196  31.065   2.913  14.924
88871W        W61197  16.132  30.014   3.110
88872W        W61198  17.098   5.003  13.336
88873W        W61199  29.449  33.384   0.372
88874W        W61200  17.900  29.610  10.754
88875W        W61201  19.652  42.215   2.393
88876W        W61202  38.904  16.931   5.122
88877W        W61203  36.099  27.082   4.093
88878W        W61204   5.722  11.323  14.990
88879W        W61205  34.212  29.398  12.547
88880W        W61206   6.733  44.556  12.440
88881W        W61207  17.738  28.512   1.959
88882W        W61208  36.986   2.175  14.475
88883W        W61209   1.304  37.491   1.463
88884W        W61210   9.072  20.623  14.783
88885W        W61211  13.304   7.933  12.904
88886W        W61212  10.395  16.261  11.321
88887W        W61213  40.988  10.142   4.482
88888W        W61214  32.886  17.037  11.630
88889W        W61215  28.936  33.405   0.256
88890W        W61216  32.407  34.041   2.637
88891W        W61217  29.532  37.282   1.714
88892W        W61218  34.819  13.371   4.225
88893W        W61219  39.040   0.245  10.899
88894W        W61220  33.638  21.136   3.766
88895W        W61221   1.824  11.320  11.196
88896W        W61222  33.532  21.510  10.222
88897W        W61223   6.448  20.000   1.114
88898W        W61224  11.786  12.265   3.725
88899W        W61225  37.341  27.062   0.146
88900W        W61226  43.941  38.607   0.841
88901W        W61227   2.287   3.405   3.188
88902W        W61228  37.150  21.207   4.446
88903W        W61229   9.908  22.275   3.048
88904W        W61230  18.954  24.089  10.607
88905W        W61231  18.606  35.564  13.778
88906W        W61232  16.676  30.432   4.624
88907W        W61233   8.071  37.866  10.719
88908W        W61234  36.011   7.694  10.572
88909W        W61235  29.487   0.010   1.727
88910W        W61236   4.825  34.540  10.569
88911W        W61237  27.539   6.801  11.564
88912W        W61238   0.849  39.859   2.508
88913W        W61239  21.807   3.874   4.515
88914W        W61240  33.115  37.911  13.447
88915W        W61241  18.756   9.924   1.649
88916W        W61242  34.839  40.624  10.273
88917W        W61243  27.021  18.604  11.114
88918W        W61244  30.408  17.063   4.039
88919W        W61245  33.081  35.512  10.068
88920W        W61246  20.692  16.465  12.067
88921W        W61247   1.768  37.364  11.529
88922W        W61248  26.123  20.692   2.256
88923W        W61249  35.970  24.817  11.597
88924W        W61250  32.632  40.847   1.389
88925W        W61251  29.931  19.754  12.418
88926W        W61252   1.742   2.444  11.903
88927W        W61253  34.609  34.597   0.245
88928W        W61254  28.094  16.574   0.442
88929W        W61255  33.411   6.681   2.276
88930W        W61256  22.221  43.510  11.914
88931W        W61257  28.367  24.056   0.673
88932W        W61258  23.313  22.018  14.538
88933W        W61259   4.577  12.595   0.758
88934W        W61260   1.198  21.085   2.177
88935W        W61261  13.092   3.268  12.571
88936W        W61262  25.796  27.435  13.739
88937W        W61263   7.196   0.714  10.587
88938W        W61264  33.421   9.439  11.216
88939W        W61265  25.918   2.853   3.676
88940W        W61266  31.639  19.260  13.599
88941W        W61267  23.697   0.898   4.758
88942W        W61268  26.606   6.236  14.859
88943W        W61269  30.493  41.443  14.324
88944W        W61270  18.611  12.780   1.361
88945W        W61271  24.100   0.793   2.407
88946W        W61272  14.941   8.595   4.127
88947W        W61273  38.756  21.667   2.244
88948W        W61274  15.342  34.322  13.065
88949W        W61275  21.765   1.542   4.153
88950W        W61276  41.918  16.876   2.269
88951W        W61277  24.872  25.873  14.071
88952W        W61278  17.213  44.463   4.075
88953W        W61279  38.556  15.121   1.877
88954W        W61280  16.063   4.760  11.122
88955W        W61281  43.231   3.891  10.661
88956W        W61282  27.667  33.523  14.858
88957W        W61283  37.571  23.608   1.269
88958W        W61284  23.424  33.166   2.749
88959W        W61285   4.743  37.540   4.640
88960W        W61286  33.444  38.811  10.687
88961W        W61287   2.276   6.324  14.017
88962W        W61288  24.687  27.992   2.906
88963W        W61289  21.143   7.387   3.056
88964W        W61290  31.031   9.825  13.564
88965W        W61291  25.119  15.814   4.298
88966W        W61292  36.819  35.823  10.391
88967W        W61293  24.378  25.439   4.287
88968W        W61294  19.875  12.037  11.747
88969W        W61295  36.580  19.802  11.965
88970W        W61296  13.121  36.034  10.375
88971W        W61297  24.491  15.108   0.232
88972W        W61298   0.457   1.768   5.007
88973W        W61299   0.509  37.708  13.563
88974W        W61300  27.234  27.435  13.530
88975W        W61301  21.189  29.975  11.190
88976W        W61302   5.211  13.619   2.171
88977W        W61303  12.893  37.187   5.496
88978W        W61304  22.688  35.366  11.237
88979W        W61305  43.499  14.766   1.787
88980W        W61306   4.355  44.426   2.979
88981W        W61307  25.569  39.557  14.009
88982W        W61308   2.221  25.025  10.470
88983W        W61309  25.692  13.412   4.643
88984W        W61310  37.593  25.565   3.667
88985W        W61311  44.761   3.275   2.409
88986W        W61312   1.736  40.053   4.516
88987W        W61313   9.620  13.693   4.610
88988W        W61314  31.659  26.593   2.705
88989W        W61315   5.580  29.496  10.660
88990W        W61316   9.138   0.547  12.870
88991W        W61317  34.597  43.636  10.526
88992W        W61318  27.979  28.260   5.003
88993W        W61319  36.073  16.049   2.270
88994W        W61320  26.484  28.037  10.674
88995W        W61321  14.267  35.869  11.125
88996W        W61322  35.838  35.884   0.320
88997W        W61323  10.687  20.231   0.005
88998W        W61324  39.782  31.404   0.770
88999W        W61325  32.557  33.782   0.781
89000W        W61326  42.506   3.697  12.999
89001W        W61327  23.726  37.896  11.335
89002W        W61328  27.512   4.800   2.213
89003W        W61329  27.967  10.308  12.209
89004W        W61330  14.867  42.799   0.859
89005W        W61331  33.317   4.171   2.705
89006W        W61332   0.081  42.322  14.449
89007W        W61333  38.776  19.885  11.530
89008W        W61334  34.367  15.728  12.078
89009W        W61335  27.288  31.188   3.700
89010W        W61336  24.282  30.745   2.755
89011W        W61337  18.453  23.335  11.906
89012W        W61338  33.596  18.293   0.360
89013W        W61339  11.400  13.226  12.887
89014W        W61340  32.131   8.943  14.036
89015W        W61341  11.195  35.570  11.906
89016W        W61342  39.540   2.192   2.330
89017W        W61343  35.068   9.329   1.686
89018W        W61344  13.729  34.298   3.156
89019W        W61345  22.494  21.583   0.675
89020W        W61346  11.633   5.899   1.322
89021W        W61347  28.586   4.026   2.826
89022W        W61348  35.711   9.250   0.202
89023W        W61349  28.763  29.846  11.958
89024W        W61350  44.075  12.044  11.493
89025W        W61351  35.882  26.429   4.642
89026W        W61352  34.460   7.642   1.926
89027W        W61353  23.933  22.527   3.632
89028W        W61354  37.800  22.697  13.031
89029W        W61355  29.592  28.479  11.400
89030W        W61356  17.996  43.515   2.644
89031W        W61357  23.236   9.682  11.021
89032W        W61358  19.778  11.412  11.127
89033W        W61359  39.176  11.922  14.292
89034W        W61360  42.026   4.019  13.342
89035W        W61361  30.609   5.831  10.731
89036W        W61362  12.584   2.410  11.162
89037W        W61363  19.043  18.278  10.798
89038W        W61364  37.556   5.702  14.330
89039W        W61365  20.529   3.319   2.356
89040W        W61366  28.553  30.122  12.325
89041W        W61367  21.852   0.237  10.735
89042W        W61368   7.732  20.114   4.599
89043W        W61369  34.092   7.025  12.909
89044W        W61370  21.588   2.707  10.617
89045W        W61371   8.676  20.274   2.796
89046W        W61372  42.006  27.741   0.815
89047W        W61373  35.927  28.942  13.115
89048W        W61374   4.770  15.631  13.233
89049W        W61375  44.758  32.030  10.635
89050W        W61376   8.717   8.937   4.168
89051W        W61377  10.386  34.126   1.391
89052W        W61378  19.597   5.450   3.256
89053W        W61379  22.333  13.950   1.950
89054W        W61380  25.164   3.177  11.593
89055W        W61381  15.367  15.523  14.393
89056W        W61382   0.501  40.060  12.515
89057W        W61383  18.730   7.698   0.160
89058W        W61384  24.918  34.871   1.291
89059W        W61385  30.166  34.863   4.904
89060W        W61386  10.647  41.756  13.336
89061W        W61387  20.767   8.553  14.442
89062W        W61388   2.928  13.880   3.143
89063W        W61389  14.765  37.126  11.983
89064W        W61390  11.128  26.541   3.319
89065W        W61391  39.780  28.162   1.169
89066W        W61392  41.944  15.170  13.348
89067W        W61393  16.315  29.076  14.490
89068W        W61394  23.170   1.819   1.930
89069W        W61395   2.532  25.968   2.468
89070W        W61396  18.413  22.218   2.788
89071W        W61397  16.659  23.092   1.287
89072W        W61398  18.149   5.196  11.493
89073W        W61399  32.857  29.023  14.257
89074W        W61400  11.469   9.213   1.251
89075W        W61401  17.453   4.715  10.585
89076W        W61402  43.364  35.177  10.794
89077W        W61403  29.560  26.798  12.507
89078W        W61404  43.310  27.952  14.453
89079W        W61405  33.613   1.459   0.905
89080W        W61406  29.199   9.003   1.743
89081W        W61407  27.771  29.402  11.400
89082W        W61408  14.994   9.195  13.598
89083W        W61409  44.312  42.421   4.230
89084W        W61410   9.247   2.493   1.259
89085W        W61411   2.498  16.595   1.580
89086W        W61412  25.542   6.986  14.053
89087W        W61413  14.716   5.004   2.155
89088W        W61414  23.412   9.859   1.681
89089W        W61415  20.066  40.972  13.015
89090W        W61416  17.491  42.015   3.249
89091W        W61417  43.765  34.910   1.799
89092W        W61418  16.588  14.652  10.634
89093W        W61419   2.003   9.227  13.842
89094W        W61420  44.860  20.437   2.182
89095W        W61421  27.676  16.406   3.156
89096W        W61422  32.028   0.440   0.389
89097W        W61423  18.030   5.859   3.296
89098W        W61424  32.923   7.676  10.693
89099W        W61425  16.894  31.075  10.995
89100W        W61426  35.109  36.537  11.986
89101W        W61427  36.334   0.791  10.308
89102W        W61428  34.575  37.147   0.823
89103W        W61429   8.664  40.947   2.696
89104W        W61430   9.644  36.449   0.498
89105W        W61431  25.849   1.867  12.798
89106W        W61432   6.318  18.536  14.411
89107W        W61433  15.755  37.940   4.594
89108W        W61434  37.502  31.112   1.192
89109W        W61435  33.615  13.043   1.848
89110W        W61436  10.824  44.801  13.050
89111W        W61437  30.198  41.962   4.454
89112W        W61438  32.012   6.355   2.363
89113W        W61439   7.467  28.647  12.187
89114W        W61440  11.249  28.407  11.118
89115W        W61441  12.224  21.704   0.540
89116W        W61442   5.211  39.936   0.482
89117W        W61443  35.593  35.430   1.278
89118W        W61444  28.538   0.185   3.149
89119W        W61445   0.830  30.582  13.295
89120W        W61446  30.692  37.541  12.968
89121W        W61447   9.388  39.560  13.464
89122W        W61448  42.999  36.775   3.157
89123W        W61449  39.219  11.016  10.143
89124W        W61450   6.644  32.270   4.122
89125W        W61451  25.688  27.508  12.900
89126W        W61452  11.066  13.099   1.021
89127W        W61453  21.225  40.539  14.020
89128W        W61454  41.863  43.489   3.273
89129W        W61455  28.375  17.714   3.748
89130W        W61456  31.610  39.031   0.602
89131W        W61457  21.519   2.897  14.036
89132W        W61458  36.272  21.252  12.915
89133W        W61459  13.922  21.527   1.410
89134W        W61460  31.207  14.175   4.553
89135W        W61461  15.203  24.186   1.686
89136W        W61462  35.962   6.714   3.451
89137W        W61463  17.658  16.532   1.833
89138W        W61464  25.016  44.771  14.387
89139W        W61465  34.871   8.589  13.691
89140W        W61466   9.308  24.621  10.950
89141W        W61467  17.875  24.716  13.662
89142W        W61468  18.739   9.422   3.101
89143W        W61469   8.861  25.728   0.341
89144W        W61470   0.212   2.175   0.524
89145W        W61471  38.950  42.839  12.618
89146W        W61472  24.069  18.985   3.200
89147W        W61473  26.042  21.076  10.666
89148W        W61474   4.238   9.270   1.167
89149W        W61475  35.057  21.698  13.278
89150W        W61476  20.987   4.860   2.794
89151W        W61477  19.592  26.260   2.283
89152W        W61478  26.661   6.887   2.889
89153W        W61479   5.180  36.258  14.647
89154W        W61480  39.459  38.591   2.883
89155W        W61481  39.824  14.072  14.591
89156W        W61482  38.953  40.501   2.160
89157W        W61483  15.519  44.292  13.763
89158W        W61484  33.518   0.822   3.159
89159W        W61485  16.646   1.630   4.890
89160W        W61486  14.921  32.046   4.231
89161W        W61487  27.718   3.762  12.845
89162W        W61488  42.911   1.846   3.238
89163W        W61489  33.462  23.087  12.870
89164W        W61490  31.651  32.060   2.169
89165W        W61491  11.645  36.044  12.429
89166W        W61492  37.397  38.875  13.773
89167W        W61493  32.122   1.338   3.203
89168W        W61494  22.023  13.640   3.690
89169W        W61495  30.004  39.262   0.265
89170W        W61496   5.156   7.621  11.070
89171W        W61497  27.140  10.297   2.185
89172W        W61498  34.034   8.178   4.585
89173W        W61499  12.745   4.485  11.373
89174W        W61500  42.441   9.768   0.931
89175W        W61501   3.316  43.716  12.539
89176W        W61502   0.436  29.494  12.735
89177W        W61503   5.210  18.692   2.710
89178W        W61504  29.608  16.924  11.515
89179W        W61505  17.082  25.765   2.267
89180W        W61506   9.878  18.604   3.327
89181W        W61507  12.264   0.291  14.924
89182W        W61508  30.941  40.561   3.216
89183W        W61509  17.524   4.838   0.680
89184W        W61510  41.273  38.918  13.980
89185W        W61511  11.272   5.301   0.494
89186W        W61512  12.073  13.681  13.325
89187W        W61513   7.068   2.325  11.623
89188W        W61514  44.150  10.192  13.553
89189W        W61515   2.644  23.506   9.834
89190W        W61516  26.877  36.425   4.058
89191W        W61517  33.461  17.773   1.224
89192W        W61518  26.932  13.618  11.561
89193W        W61519  23.265  36.581  14.848
89194W        W61520  17.395   6.567  11.067
89195W        W61521   9.011   0.158  13.243
89196W        W61522  44.927  15.103  13.482
89197W        W61523   3.614   3.219   0.743
89198W        W61524  41.382  42.901  11.916
89199W        W61525  12.904  29.117  14.240
89200W        W61526  27.092   4.794   5.132
89201W        W61527  23.453  37.020  10.192
89202W        W61528  39.224   5.275  12.176
89203W        W61529  19.958  16.216  14.740
89204W        W61530  35.144  25.024   1.507
89205W        W61531  21.207  10.797   2.775
89206W        W61532   1.443  39.351  12.384
89207W        W61533  22.092  44.790  14.598
89208W        W61534  35.174  22.715   2.264
89209W        W61535  30.288  30.518   1.242
89210W        W61536  44.542  26.041  12.978
89211W        W61537  36.350   6.843  13.411
89212W        W61538  14.193  12.638  11.791
89213W        W61539  25.523  33.966  13.066
89214W        W61540  41.459  16.210  12.864
89215W        W61541  25.154  39.820   2.704
89216W        W61542  35.607  44.475  14.379
89217W        W61543   8.234  23.711  13.368
89218W        W61544  31.520  33.723  13.784
89219W        W61545  29.325  12.280   1.762
89220W        W61546  44.919   2.313  11.075
89221W        W61547  10.243  40.101   0.922
89222W        W61548  38.781  44.456   2.049
89223W        W61549   0.315   9.019   5.063
89224W        W61550  21.079  35.076   2.413
89225W        W61551   2.386   2.869   4.216
89226W        W61552  26.405  10.474   3.283
89227W        W61553   7.800  26.774  14.361
89228W        W61554  21.678  32.230  12.147
89229W        W61555  11.152   5.754  12.516
89230W        W61556  44.101   1.492   0.341
89231W        W61557  36.933  18.678   1.769
89232W        W61558  10.113  43.321  14.235
89233W        W61559  28.768  24.044   3.053
89234W        W61560  10.640   7.783  11.565
89235W        W61561  37.681  32.285  10.858
89236W        W61562  41.978  38.076  13.861
89237W        W61563  15.231  11.205   2.850
89238W        W61564  33.999  44.535  14.900
89239W        W61565  43.239  34.373   4.295
89240W        W61566   7.022   6.678  11.273
89241W        W61567  17.186  11.768  10.624
89242W        W61568  17.854  36.539  12.313
89243W        W61569   8.363  20.440  11.584
89244W        W61570  43.544  35.340   0.159
89245W        W61571  22.943  20.757   1.194
89246W        W61572   6.442   1.414  13.021
89247W        W61573  10.940   4.718   4.475
89248W        W61574  15.983  43.963  13.336
89249W        W61575  21.879  20.793   3.053
89250W        W61576  36.866   6.325   1.522
89251W        W61577  10.796  37.597   3.591
89252W        W61578   7.312  37.402  12.919
89253W        W61579  26.562  34.051  13.553
89254W        W61580  17.511   2.662  13.541
89255W        W61581  13.640  32.334  14.308
89256W        W61582  17.971  41.395   4.557
89257W        W61583  22.263  17.119  14.138
89258W        W61584  30.114   1.296   1.339
89259W        W61585  33.091  23.140  12.118
89260W        W61586  12.213  28.971   1.330
89261W        W61587  13.989   9.796  11.940
89262W        W61588  31.531  42.802   4.535
89263W        W61589  39.356   3.942  11.012
89264W        W61590  40.370  25.586   4.225
89265W        W61591  37.281  11.917  13.091
89266W        W61592  33.958   2.144   4.585
89267W        W61593  42.482  43.309  14.427
89268W        W61594  30.513  28.599  14.302
89269W        W61595  27.158  24.826   4.196
89270W        W61596  10.207   8.498   2.869
89271W        W61597  16.618  42.275   2.341
89272W        W61598  11.694  42.724   4.864
89273W        W61599  20.090  31.616   0.896
89274W        W61600   0.617  27.386  12.041
89275W        W61601  43.250  20.429  11.608
89276W        W61602   5.923   4.990   2.793
89277W        W61603  42.934  14.834  12.399
89278W        W61604  41.976  27.700  11.161
89279W        W61605   6.763   4.983  10.651
89280W        W61606  36.212  29.188  13.952
89281W        W61607   1.172   9.426  14.094
89282W        W61608   2.396  22.070  12.593
89283W        W61609  26.005  42.329   1.362
89284W        W61610  14.730   2.215  13.382
89285W        W61611  18.999  26.523   2.273
89286W        W61612   3.153  17.987  11.676
89287W        W61613  29.605   6.921   0.668
89288W        W61614  27.393  42.818   2.290
89289W        W61615  41.819  37.036   4.563
89290W        W61616  43.469  26.300   0.892
89291W        W61617   4.753  23.118   1.461
89292W        W61618  38.785  33.801  13.903
89293W        W61619  11.599   4.734   2.664
89294W        W61620  42.948  19.117  10.476
89295W        W61621  24.269   2.319  11.236
89296W        W61622   0.466  44.644   4.531
89297W        W61623  38.209   6.406  11.182
89298W        W61624  29.086  38.086  11.413
89299W        W61625  32.255   4.835  11.430
89300W        W61626  26.760  39.089   4.169
89301W        W61627   1.336  11.599  13.591
89302W        W61628  25.129  38.451   1.665
89303W        W61629   6.710  18.543  14.046
89304W        W61630  24.635   2.184   0.081
89305W        W61631  43.858  15.241   1.161
89306W        W61632  21.766  23.563   1.013
89307W        W61633  11.458  14.803   2.826
89308W        W61634  30.700  25.078   2.856
89309W        W61635  23.024  17.302   3.083
89310W        W61636  42.916  26.246   0.990
89311W        W61637   5.853  39.831  12.094
89312W        W61638  20.757  39.786   1.112
89313W        W61639   5.338  43.219  12.342
89314W        W61640  22.215  43.834   0.752
89315W        W61641  29.400  41.244  10.041
89316W        W61642  19.977  40.844   4.862
89317W        W61643  28.955   5.850  12.086
89318W        W61644  20.750  23.203  14.170
89319W        W61645  43.126  19.318   3.673
89320W        W61646  30.304  40.047   3.130
89321W        W61647  33.607  30.123  11.515
89322W        W61648   4.553  22.167   9.811
89323W        W61649  30.971   0.393  10.933
89324W        W61650  40.339  32.043  14.804
89325W        W61651   9.755   8.625  14.833
89326W        W61652  29.849  14.593   0.912
89327W        W61653   3.844  40.539  10.575
89328W        W61654  27.997  10.146  13.591
89329W        W61655  41.288  20.563  12.423
89330W        W61656  30.400  37.757   4.260
89331W        W61657  34.725  14.104   1.687
89332W        W61658  19.321   0.853  12.186
89333W        W61659  39.085  12.275   4.156
89334W        W61660  37.829  22.564   1.728
89335W        W61661  38.678   1.894  14.890
89336W        W61662   0.022  13.297   2.788
89337W        W61663  31.161  24.943  10.700
89338W        W61664   9.057  30.933  14.903
89339W        W61665  43.931   0.232  14.900
89340W        W61666  31.519  32.081   0.347
89341W        W61667  13.436  15.802  12.466
89342W        W61668  40.598  12.737   2.377
89343W        W61669  15.352  38.056   1.810
89344W        W61670  39.387  29.576  10.424
89345W        W61671  42.252  30.081   0.817
89346W        W61672  23.685   3.812  11.730
89347W        W61673  29.326  40.012   3.293
89348W        W61674   5.504  16.282  12.417
89349W        W61675  42.481  23.551  12.949
89350W        W61676  23.611   7.845  11.547
89351W        W61677  28.507  41.369   0.797
89352W        W61678  30.602   5.674  13.729
89353W        W61679  16.822  20.701   0.524
89354W        W61680  37.346  13.118   9.888
89355W        W61681   2.464  18.090   0.051
89356W        W61682  42.805  42.353  13.984
89357W        W61683  42.993  32.671   0.730
89358W        W61684  24.545  41.315   4.571
89359W        W61685  26.345   6.953   0.231
89360W        W61686  44.806   7.148   4.595
89361W        W61687   2.920  10.626   1.215
89362W        W61688  32.683  18.085   5.041
89363W        W61689  22.237   6.183  12.318
89364W        W61690   2.250  34.462  12.592
89365W        W61691  29.695  23.112   0.370
89366W        W61692  13.796  28.072  10.666
89367W        W61693  16.170  14.096   4.970
89368W        W61694  39.135  36.597   3.604
89369W        W61695  17.595  22.220  14.975
89370W        W61696  34.349  40.331   3.541
89371W        W61697  34.365  19.242  13.565
89372W        W61698  16.253  30.545  14.729
89373W        W61699  30.103   0.284   4.360
89374W        W61700  12.908  17.552   0.460
89375W        W61701  11.603  37.832  14.409
89376W        W61702  10.112  15.639  12.553
89377W        W61703   3.608  17.446   2.676
89378W        W61704   3.355  40.912   1.326
89379W        W61705   8.350  15.914   4.874
89380W        W61706  10.947  35.139  10.678
89381W        W61707  14.265  37.054  12.488
89382W        W61708   7.947  10.768   2.777
89383W        W61709   3.225  22.050  13.313
89384W        W61710  29.709  22.501  12.639
89385W        W61711  35.328  13.269  14.288
89386W        W61712  15.899  14.277  11.084
89387W        W61713  31.402  11.283   0.287
89388W        W61714  39.822  36.000   0.182
89389W        W61715  15.880  11.673   1.788
89390W        W61716  34.072  23.843   3.253
89391W        W61717  22.213  43.202  14.767
89392W        W61718   8.103  28.601   2.292
89393W        W61719   6.239  29.655  10.790
89394W        W61720   9.896  15.518   1.465
89395W        W61721  32.161  38.573   4.152
89396W        W61722  22.497   3.368   4.896
89397W        W61723  23.738   8.786  11.156
89398W        W61724  36.336  38.873  14.467
89399W        W61725  21.490  42.957   4.241
89400W        W61726  25.452  32.145  13.954
89401W        W61727   4.954  19.687   0.942
89402W        W61728  26.517   8.722   2.933
89403W        W61729  11.673  29.678  10.424
89404W        W61730  28.149  44.568  14.961
89405W        W61731  10.767  19.600  12.163
89406W        W61732  14.575  16.821   1.388
89407W        W61733  23.621  12.047  12.721
89408W        W61734  32.333  32.101  11.105
89409W        W61735  15.781  24.149  14.442
89410W        W61736  41.897  12.803   1.149
89411W        W61737  40.211  40.339  12.557
89412W        W61738   2.180  18.120  13.113
89413W        W61739  44.251  23.101  11.481
89414W        W61740  30.148   4.852   4.537
89415W        W61741  30.580   4.467   3.892
89416W        W61742   7.796  18.744   4.210
89417W        W61743  35.633  33.047   1.763
89418W        W61744  44.519  20.592  14.437
89419W        W61745  30.886   8.694  14.746
89420W        W61746  16.301  25.567   0.007
89421W        W61747  39.555  13.842  11.747
89422W        W61748  33.423  40.822  14.424
89423W        W61749  10.606  41.465   3.228
89424W        W61750  35.030  10.639  11.956
89425W        W61751   1.603  28.024   1.459
89426W        W61752  32.486  30.893   4.630
89427W        W61753  26.158  18.221  13.022
89428W        W61754  10.901   3.237   4.525
89429W        W61755  44.956  19.217  10.708
89430W        W61756   8.308  32.131   4.678
89431W        W61757  14.755   0.476   3.990
89432W        W61758  21.541  21.155   2.224
89433W        W61759  17.286  39.599  11.196
89434W        W61760  42.281   7.483  11.176
89435W        W61761  32.132  27.619  11.534
89436W        W61762  13.194   0.191   3.400
89437W        W61763  30.915  42.307  13.058
89438W        W61764   9.996  30.376   2.186
89439W        W61765   3.513  40.040   3.260
89440W        W61766  20.740   9.515  14.060
89441W        W61767  14.176   4.960   1.906
89442W        W61768  25.630  21.488  11.732
89443W        W61769   2.425  20.964   3.702
89444W        W61770  17.676  19.730  14.696
89445W        W61771  34.329  27.466   1.586
89446W        W61772  25.301   0.454   0.458
89447W        W61773  29.687   5.481  14.429
89448W        W61774   4.746  27.436  12.800
89449W        W61775  20.115   6.179  11.260
89450W        W61776  43.292  41.937   4.436
89451W        W61777  15.056  13.300   3.162
89452W        W61778  28.617  30.647  11.455
89453W        W61779   2.370  19.817   1.374
89454W        W61780   9.082  13.178  13.126
89455W        W61781   6.393   0.225   3.352
89456W        W61782  13.849  39.826   2.667
89457W        W61783  33.645  27.768  14.390
89458W        W61784   4.420  14.301  14.050
89459W        W61785  32.037  40.631  13.336
89460W        W61786  19.706   8.433  10.508
89461W        W61787   0.869  33.315  12.105
89462W        W61788   3.495  36.064  14.749
89463W        W61789  44.975  28.677  10.552
89464W        W61790  20.226  14.747   2.191
89465W        W61791  29.053  16.465  12.579
89466W        W61792   4.199  15.275  12.437
89467W        W61793  36.902   2.716  11.710
89468W        W61794  40.815  19.752   0.901
89469W        W61795  37.606  15.599  11.988
89470W        W61796  39.428  23.479   0.857
89471W        W61797   0.835   9.607  12.188
89472W        W61798  28.431   7.760   1.322
89473W        W61799  31.477  12.762  14.246
89474W        W61800  15.613  26.571  11.054
89475W        W61801  34.472  31.847  13.136
89476W        W61802  38.898  35.209   5.144
89477W        W61803  37.288  39.724   4.786
89478W        W61804  39.780  25.986   1.590
89479W        W61805  19.813  38.506   3.745
89480W        W61806   7.618  15.538   2.872
89481W        W61807  23.608   1.919  14.348
89482W        W61808  37.277  43.617  14.427
89483W        W61809  33.027  34.820  12.581
89484W        W61810   0.967   1.470  11.467
89485W        W61811  44.860  10.134   0.996
89486W        W61812  22.198  42.489  11.136
89487W        W61813  15.636  18.764   2.733
89488W        W61814  41.358  34.451  12.731
89489W        W61815  22.007  22.730  14.273
89490W        W61816  42.024  14.096  14.000
89491W        W61817  21.993  30.487  12.329
89492W        W61818  38.884  33.982   1.683
89493W        W61819  21.039  11.571   1.418
89494W        W61820  15.584   6.921   0.816
89495W        W61821  22.033  22.478   3.849
89496W        W61822  22.298  16.043   0.077
89497W        W61823  41.460  44.707   2.675
89498W        W61824  21.041  25.294   4.095
89499W        W61825   9.834  32.737  13.610
89500W        W61826  43.219   7.260  13.318
89501W        W61827  39.248   9.141  13.927
89502W        W61828  44.292  30.053   4.018
89503W        W61829  25.644  25.551   3.851
89504W        W61830  43.842  23.005  13.795
89505W        W61831  21.133   0.086   0.269
89506W        W61832  12.821  34.896   3.928
89507W        W61833  24.818  12.613  14.072
89508W        W61834  43.308  15.770  10.662
89509W        W61835  13.813  26.861   4.716
89510W        W61836  20.584  18.850  13.042
89511W        W61837  31.122  32.442  13.937
89512W        W61838  40.472  24.879  13.878
89513W        W61839   7.930  29.972  10.733
89514W        W61840  38.974  27.469  13.016
89515W        W61841  25.269  33.556   5.001
89516W        W61842  42.724   1.001   2.052
89517W        W61843   0.379  18.370   0.913
89518W        W61844  30.512   2.363  12.280
89519W        W61845  22.972  27.646   3.563
89520W        W61846  14.802  35.834   4.012
89521W        W61847   4.738  23.405   0.350
89522W        W61848   2.425  40.364   2.831
89523W        W61849  13.875  20.781   2.337
89524W        W61850  17.096  38.938   1.199
89525W        W61851   8.317  37.345   0.401
89526W        W61852  14.716  44.730  11.984
89527W        W61853  11.609  32.892   0.781
89528W        W61854  24.070  37.532   2.922
89529W        W61855   1.820  22.417  13.170
89530W        W61856  31.501  23.702   4.085
89531W        W61857  36.033  18.809  13.514
89532W        W61858   2.671   5.463  10.275
89533W        W61859  33.484   7.072   3.519
89534W        W61860  21.461  24.918   4.209
89535W        W61861  43.907  28.897  13.036
89536W        W61862  26.981  31.459  14.556
89537W        W61863   6.363   4.024  11.015
89538W        W61864  42.522  18.367   0.457
89539W        W61865  44.585   1.359   1.308
89540W        W61866  15.723   3.218   0.034
89541W        W61867  25.671   5.749   0.646
89542W        W61868  31.966  35.039  11.635
89543W        W61869  33.131  18.508  11.428
89544W        W61870  32.921  42.564  11.725
89545W        W61871  44.207   0.027  10.745
89546W        W61872  27.926   1.940  11.630
89547W        W61873  43.833  18.097  13.413
89548W        W61874  10.208   3.871  14.728
89549W        W61875  41.592  26.494   4.910
89550W        W61876   8.173  29.882  13.861
89551W        W61877  32.046  23.700  14.492
89552W        W61878   0.867   9.257   0.801
89553W        W61879  25.092  17.574  11.187
89554W        W61880  37.789   5.906  13.905
89555W        W61881  21.687  44.098   3.365
89556W        W61882  14.573  35.821   0.199
89557W        W61883  24.632  37.436  10.036
89558W        W61884   6.800  31.455   3.245
89559W        W61885  36.958  12.606   3.626
89560W        W61886  29.542  42.969   9.754
89561W        W61887   0.872  29.079  12.220
89562W        W61888   0.438  42.015  12.200
89563W        W61889  16.159  22.500   1.838
89564W        W61890  22.751  42.456   4.656
89565W        W61891   0.462  27.687  14.781
89566W        W61892   9.690  38.306   3.140
89567W        W61893  24.196  32.322  11.706
89568W        W61894  30.984  10.668   1.984
89569W        W61895  41.359  40.607   3.216
89570W        W61896  38.236   4.304   3.581
89571W        W61897  17.284  20.559   0.741
89572W        W61898   1.669  26.599  11.189
89573W        W61899  16.738  14.142   1.884
89574W        W61900  43.820  10.664   4.610
89575W        W61901  28.024  11.407   2.259
89576W        W61902  40.460  30.410  10.874
89577W        W61903   9.328  14.686   1.626
89578W        W61904  27.074  32.232   3.571
89579W        W61905  23.218   3.849  11.466
89580W        W61906  39.997  23.436   0.112
89581W        W61907  29.549  31.090   0.907
89582W        W61908  21.081  14.664   3.767
89583W        W61909  26.095  24.672   0.894
89584W        W61910  40.228  33.574  12.697
89585W        W61911  17.581  33.572  12.125
89586W        W61912  13.662  16.843   0.988
89587W        W61913  35.548   5.548  10.441
89588W        W61914  21.537  41.904   3.858
89589W        W61915  37.653  25.059   1.045
89590W        W61916   0.953  35.941  10.866
89591W        W61917  43.353  41.284   4.155
89592W        W61918  14.886  36.010   9.939
89593W        W61919  23.706  11.722   0.975
89594W        W61920  40.183  41.761  14.060
89595W        W61921  22.658  34.908   4.777
89596W        W61922  41.481   9.003   0.441
89597W        W61923  36.418  18.822  12.891
89598W        W61924   3.331  38.330  10.664
89599W        W61925   0.564  11.719  14.973
89600W        W61926  36.594  34.995  11.133
89601W        W61927   7.933  25.699   3.780
89602W        W61928  31.739  16.235   4.746
89603W        W61929   1.895  30.095  12.809
89604W        W61930  18.325  43.923   3.729
89605W        W61931  21.605   3.231   5.026
89606W        W61932  15.555   6.534   4.039
89607W        W61933  37.749  11.972  13.313
89608W        W61934   7.798  29.382   0.351
89609W        W61935  10.193   2.829   4.767
89610W        W61936   3.626   7.171  13.887
89611W        W61937  11.220   0.816  14.168
89612W        W61938   3.920  20.281  13.446
89613W        W61939  35.684  20.300  12.068
89614W        W61940  39.738  21.986  14.830
89615W        W61941  43.216  37.909   0.730
89616W        W61942  29.167  44.916  14.003
89617W        W61943  32.868  15.342   0.576
89618W        W61944  33.903   0.270  14.289
89619W        W61945  10.303  24.222  14.065
89620W        W61946  35.662  11.343  11.936
89621W        W61947  20.153   6.394  12.967
89622W        W61948  44.978   4.288  14.960
89623W        W61949  38.250   1.473  13.781
89624W        W61950  22.444  19.188  11.516
89625W        W61951  37.649  15.219  12.339
89626W        W61952  27.687  10.400  13.219
89627W        W61953  26.675  33.715  12.529
89628W        W61954  35.015   3.435  11.404
89629W        W61955  32.411  30.909   0.360
89630W        W61956  42.236  16.516   0.790
89631W        W61957  30.902   2.463   3.074
89632W        W61958  20.285  28.467   3.974
89633W        W61959  10.500  30.340   3.630
89634W        W61960  38.009  36.009  14.964
89635W        W61961   0.761  32.934   4.289
89636W        W61962   9.851  38.910   1.177
89637W        W61963  30.101  30.441   2.624
89638W        W61964   4.485  30.638  14.390
89639W        W61965   2.697  29.645   3.630
89640W        W61966   7.582  38.581   3.359
89641W        W61967  32.777  31.870  11.191
89642W        W61968  21.978  42.779  14.631
89643W        W61969  13.339   9.249  13.145
89644W        W61970  43.037  37.600  12.136
89645W        W61971  39.579  25.037   2.398
89646W        W61972  38.884  16.998  10.883
89647W        W61973  30.400  31.222  13.778
89648W        W61974  29.597   4.748   1.449
89649W        W61975  13.678  34.934   2.273
89650W        W61976  26.239  11.325  12.835
89651W        W61977   5.897  10.687  12.033
89652W        W61978  31.143  22.702  10.701
89653W        W61979  41.339   5.716  12.525
89654W        W61980   9.474   8.123  13.870
89655W        W61981  31.130  14.187  14.998
89656W        W61982   7.190  21.620   0.385
89657W        W61983  36.322   9.438   4.272
89658W        W61984  28.555  42.499   4.306
89659W        W61985  37.031  44.411   2.656
89660W        W61986  26.572   4.278  13.814
89661W        W61987   7.185  14.215   4.597
89662W        W61988  33.605   6.809   2.774
89663W        W61989   2.323   6.780  11.521
89664W        W61990  17.852   9.449   3.013
89665W        W61991  42.546   2.754   3.756
89666W        W61992  43.039  41.009  10.833
89667W        W61993  25.559  32.235   0.832
89668W        W61994  10.633  42.739  14.897
89669W        W61995  11.834   4.760  10.681
89670W        W61996  24.730  33.917  13.612
89671W        W61997  23.015   5.698   1.813
89672W        W61998   0.273  29.964  14.905
89673W        W61999  18.836  34.088  11.892
89674W        W62000  19.212  12.135   0.901
89675W        W62001   9.379   1.113   2.520
89676W        W62002  41.869  19.424  11.069
89677W        W62003   7.348  10.799   0.355
89678W        W62004  28.592  14.075   2.915
89679W        W62005   8.216   3.736   0.789
89680W        W62006  44.092  18.474  12.713
89681W        W62007  21.315   9.108   3.717
89682W        W62008  32.443  41.433   4.967
89683W        W62009  20.830  10.347   1.795
89684W        W62010  40.992  39.544   2.730
89685W        W62011  21.508  19.604   1.351
89686W        W62012  35.530  41.954  11.613
89687W        W62013  25.502  18.585   3.523
89688W        W62014   5.979  39.084  14.493
89689W        W62015   0.256  39.576   3.293
89690W        W62016   1.797  19.788  10.629
89691W        W62017  33.987  20.027   3.772
89692W        W62018   9.595  30.468  12.003
89693W        W62019  27.011  23.659   2.352
89694W        W62020   2.324   7.788  14.981
89695W        W62021  12.675  39.526  14.794
89696W        W62022  33.382  13.445  12.607
89697W        W62023   0.927  19.128   4.523
89698W        W62024  18.352  21.531  13.084
89699W        W62025  39.768   2.920  12.291
89700W        W62026   7.864  12.608   4.239
89701W        W62027   5.384  12.695   2.719
89702W        W62028  29.192  26.701   3.317
89703W        W62029  35.410  33.003   2.847
89704W        W62030  17.115  23.521  12.422
89705W        W62031  27.412  29.717  12.182
89706W        W62032  28.097   3.578   1.336
89707W        W62033  23.054  17.249   0.261
89708W        W62034  41.888  40.434   2.600
89709W        W62035  17.227  21.689  10.411
89710W        W62036  28.382  29.903   2.682
89711W        W62037  15.152  35.413   9.855
89712W        W62038  12.836  25.377  14.745
89713W        W62039  23.293  25.397   0.173
89714W        W62040  28.849   8.226  12.971
89715W        W62041  38.884  15.258  11.666
89716W        W62042  30.389  22.195   4.363
89717W        W62043  37.756  20.480  12.654
89718W        W62044  24.057   5.018   0.689
89719W        W62045   8.665  19.510   4.077
89720W        W62046  32.544   1.952   2.772
89721W        W62047  33.631   6.405   0.826
89722W        W62048  32.907  15.806  14.768
89723W        W62049   2.167  12.538   1.995
89724W        W62050  10.802  17.710   3.613
89725W        W62051  41.150  18.198   4.255
89726W        W62052   5.305  36.996   2.391
89727W        W62053  36.399  18.261  12.041
89728W        W62054  30.420  24.222   0.360
89729W        W62055  11.214  22.902   1.898
89730W        W62056  19.632  28.688   4.350
89731W        W62057  14.095   5.844  10.595
89732W        W62058  35.152  20.688  13.420
89733W        W62059   2.255  21.845   1.128
89734W        W62060  21.446   3.944   1.702
89735W        W62061  24.204  22.881   0.342
89736W        W62062  27.023   8.750   0.791
89737W        W62063  40.816   2.613   4.694
89738W        W62064  10.149  17.331  11.547
89739W        W62065   5.924  30.881  13.696
89740W        W62066  12.201  11.003  12.990
89741W        W62067   3.408   7.196  11.593
89742W        W62068  17.544  18.783  12.316
89743W        W62069  38.852  36.726  14.983
89744W        W62070   2.780  44.352   3.064
89745W        W62071  32.570  26.850   0.945
89746W        W62072   9.879   0.393   4.566
89747W        W62073  31.588   4.238   0.114
89748W        W62074  16.867  41.581  14.520
89749W        W62075  38.700   7.182   9.954
89750W        W62076  23.255  38.736  13.296
89751W        W62077  42.254  43.977  11.157
89752W        W62078  43.720   7.146  11.211
89753W        W62079  15.415  10.171  10.963
89754W        W62080  36.937  37.648  13.011
89755W        W62081  30.196  31.886  14.023
89756W        W62082  22.450   2.389   1.887
89757W        W62083  30.658  15.248  13.961
89758W        W62084  21.696  11.728   1.857
89759W        W62085   0.784  22.579  12.160
89760W        W62086   1.226  40.981   0.948
89761W        W62087  39.351  23.945  14.962
89762W        W62088  23.692  29.371   2.132
89763W        W62089  24.427  32.403  11.153
89764W        W62090   5.301  29.450   4.501
89765W        W62091  38.744  40.321  13.057
89766W        W62092  15.772  21.098  14.901
89767W        W62093  21.543  10.858   1.899
89768W        W62094  17.839  23.656  12.642
89769W        W62095  20.243  36.345  10.499
89770W        W62096  12.582  40.524   1.951
89771W        W62097   3.246   6.464   0.307
89772W        W62098  21.187  13.091   1.279
89773W        W62099  29.132  33.830   3.874
89774W        W62100   6.627   8.926   1.233
89775W        W62101  12.791   1.170   4.339
89776W        W62102   4.689  12.809  12.917
89777W        W62103  24.589  36.917   0.518
89778W        W62104  40.067  36.525   1.351
89779W        W62105   1.216   8.741   4.125
89780W        W62106   7.881  12.175   2.159
89781W        W62107  37.922  26.709   4.516
89782W        W62108  19.723  43.876   2.882
89783W        W62109   1.019  28.329  11.157
89784W        W62110   9.873   6.269   4.873
89785W        W62111  42.583  27.929  12.890
89786W        W62112   9.945  13.383  10.717
89787W        W62113  25.190  32.328   4.435
89788W        W62114  12.732  39.479   2.446
89789W        W62115  42.852  30.689   2.806
89790W        W62116  20.076  14.769   2.739
89791W        W62117  35.992  39.110  14.177
89792W        W62118  43.380  32.525   4.196
89793W        W62119  16.638  43.544   4.018
89794W        W62120   4.968   1.949   1.058
89795W        W62121  15.819  20.527   4.138
89796W        W62122  11.273  23.657   3.642
89797W        W62123  29.037   3.242  10.738
89798W        W62124   7.853  28.888   0.914
89799W        W62125  24.600  43.799  10.841
89800W        W62126  25.999  42.496   2.245
89801W        W62127   1.240  16.392   0.801
89802W        W62128  21.585   4.754  13.585
89803W        W62129  33.811  12.320   4.317
89804W        W62130  15.757   9.893   4.867
89805W        W62131  13.170  36.457   2.729
89806W        W62132   4.068  12.514   0.831
89807W        W62133   2.934  32.570   0.233
89808W        W62134  24.284  31.586  14.386
89809W        W62135   5.823  22.675  10.914
89810W        W62136   4.202   9.636  12.002
89811W        W62137  12.840  19.048   0.935
89812W        W62138  10.151  34.573  13.478
89813W        W62139  13.682  17.431  11.899
89814W        W62140  11.852  34.290  11.894
89815W        W62141  30.005  32.626  13.279
89816W        W62142  22.960  36.416  11.189
89817W        W62143   6.419  42.094  11.993
89818W        W62144  36.924  41.556  12.155
89819W        W62145  12.064  11.191   2.066
89820W        W62146  26.952  10.286  10.735
89821W        W62147   8.231  23.080   4.065
89822W        W62148  31.326  25.023   1.807
89823W        W62149  20.265  23.749   0.169
89824W        W62150  34.830  35.626  14.897
89825W        W62151  44.486   1.304  12.437
89826W        W62152  13.839  20.517   4.028
89827W        W62153  36.159   3.376  12.957
89828W        W62154  40.677  21.464   2.322
89829W        W62155   0.887   5.360   0.233
89830W        W62156  21.067  44.287   3.697
89831W        W62157  30.610  25.666   3.631
89832W        W62158  38.999   3.059   3.338
89833W        W62159  43.042  44.867  14.264
89834W        W62160  37.565  43.022  11.494
89835W        W62161  26.152  40.258  13.157
89836W        W62162  32.529   6.694   1.365
89837W        W62163  40.622  25.052   4.115
89838W        W62164  36.277  17.127  13.572
89839W        W62165  27.910  26.832   4.518
89840W        W62166   3.973  35.141  10.716
89841W        W62167   7.656   2.798   1.689
89842W        W62168  22.042   8.822   1.810
89843W        W62169  29.453  12.569   1.233
89844W        W62170   4.524   6.028   3.585
89845W        W62171   0.287  17.277   2.326
89846W        W62172  16.683  41.744   2.276
89847W        W62173  43.013  44.273  14.850
89848W        W62174   5.859  17.889  10.840
89849W        W62175  40.271   3.278   1.839
89850W        W62176  36.861  37.803   2.198
89851W        W62177  22.622  32.401  14.758
89852W        W62178   3.428  40.323   1.348
89853W        W62179  27.542   3.451   3.875
89854W        W62180  15.122  40.980  13.495
89855W        W62181  28.677   8.863   1.846
89856W        W62182   2.481  34.059   3.812
89857W        W62183  19.361  35.457   2.794
89858W        W62184  38.454  17.556   1.013
89859W        W62185   2.904  29.594  10.454
89860W        W62186   4.749   2.452  12.950
89861W        W62187  21.114  30.482  11.144
89862W        W62188   9.917  20.644   2.777
89863W        W62189   4.904  21.674  10.528
89864W        W62190   9.329   9.808   0.271
89865W        W62191  44.301   7.265  12.937
89866W        W62192  27.481  18.303  11.595
89867W        W62193  38.863   6.911  13.449
89868W        W62194  10.197   8.320  14.943
89869W        W62195  34.136   5.332  11.629
89870W        W62196  41.086  10.125  12.827
89871W        W62197   2.249  17.618  11.427
89872W        W62198   4.804  10.768   5.022
89873W        W62199  31.069  39.315  11.693
89874W        W62200  13.364  29.718   0.948
89875W        W62201  16.351  11.327  13.916
89876W        W62202  13.242  21.343   5.061
89877W        W62203  20.975  24.553  12.062
89878W        W62204  30.615   2.406   2.090
89879W        W62205  10.472  11.426  11.575
89880W        W62206   9.076  28.331  11.087
89881W        W62207   0.204  44.871  10.530
89882W        W62208  36.123  36.564   1.667
89883W        W62209  40.406  14.592  11.013
89884W        W62210  22.541   7.633  14.440
89885W        W62211   4.871  35.069  10.592
89886W        W62212   0.489  33.634  11.897
89887W        W62213  21.750  36.919  13.040
89888W        W62214  40.855  41.556  13.335
89889W        W62215  18.501   2.499  10.662
89890W        W62216  15.635  29.534   3.665
89891W        W62217  26.891   2.489   1.482
89892W        W62218  26.765  16.177  13.098
89893W        W62219  28.104  36.643   4.606
89894W        W62220  29.666  18.138   0.322
89895W        W62221   0.389  15.611   3.213
89896W        W62222  30.687  19.079  14.258
89897W        W62223   6.878  25.598  13.230
89898W        W62224  17.764  13.665   2.914
89899W        W62225  19.676  37.620   1.245
89900W        W62226   2.072   8.588  12.388
89901W        W62227   0.884  36.063  12.732
89902W        W62228  24.893  18.205   5.688
89903W        W62229   7.440   2.383  10.820
89904W        W62230  25.160  44.628   2.622
89905W        W62231  26.934  16.578   1.735
89906W        W62232   6.240  33.165  10.783
89907W        W62233   7.106  12.826  14.118
89908W        W62234  25.871   7.386   1.010
89909W        W62235  24.014  23.044  12.591
89910W        W62236  17.767  18.662  13.254
89911W        W62237  43.028  15.318  10.664
89912W        W62238  40.849  21.939   1.280
89913W        W62239  30.045   7.760  12.177
89914W        W62240  32.499  33.972   5.050
89915W        W62241  10.511  15.858   2.291
89916W        W62242  23.264  44.582   3.759
89917W        W62243  42.116  16.741  12.937
89918W        W62244  36.250  26.659   3.845
89919W        W62245  28.997   1.595  10.627
89920W        W62246  28.374  21.586  14.162
89921W        W62247   7.707  27.172  10.816
89922W        W62248  15.259  16.122   0.641
89923W        W62249  44.368  33.045   4.317
89924W        W62250  21.420  22.303   0.088
89925W        W62251  18.586  13.557  14.427
89926W        W62252  10.775   3.409   3.663
89927W        W62253  23.712  11.188   1.435
89928W        W62254  30.077   3.340  12.465
89929W        W62255  41.333  15.083   0.374
89930W        W62256  24.484  39.457   2.690
89931W        W62257  17.106   9.770   0.785
89932W        W62258   1.303  32.899   1.345
89933W        W62259   3.177   2.106  13.463
89934W        W62260  13.706  11.633   4.180
89935W        W62261  31.848  43.043  11.622
89936W        W62262  33.587  21.090   5.255
89937W        W62263  25.722  39.940   2.388
89938W        W62264   3.278  18.820   4.983
89939W        W62265  44.942   9.444  14.889
89940W        W62266   6.412   2.972  11.601
89941W        W62267  32.345   4.790  13.922
89942W        W62268  41.983  11.819   1.659
89943W        W62269  34.892   5.084   4.628
89944W        W62270  21.058  43.470  14.751
89945W        W62271  11.035  10.276   3.827
89946W        W62272  37.814  43.337  11.173
89947W        W62273  34.969  44.630   3.913
89948W        W62274  34.959  32.392   1.471
89949W        W62275  39.936  31.412  13.231
89950W        W62276  37.367  27.332   4.075
89951W        W62277  10.389  30.736  12.849
89952W        W62278   0.777   8.041   2.795
89953W        W62279  21.873  14.344   1.050
89954W        W62280  23.177  21.997  13.095
89955W        W62281   9.308  40.884  11.877
89956W        W62282  17.662   0.815   4.680
89957W        W62283  39.415   4.598   0.758
89958W        W62284  20.805   5.758  14.803
89959W        W62285  30.862  41.414   1.145
89960W        W62286  31.521  30.353   0.370
89961W        W62287  40.928  11.319   1.186
89962W        W62288  15.693  44.305   5.093
89963W        W62289  17.921  31.618   1.675
89964W        W62290  27.415  33.503  10.468
89965W        W62291   2.348  12.796  14.434
89966W        W62292  18.353  32.568   1.289
89967W        W62293  14.067   0.276  11.048
89968W        W62294  14.794  11.097  14.393
89969W        W62295  40.540  26.198   3.400
89970W        W62296  20.991  14.648  14.846
89971W        W62297  16.280  18.560  10.275
89972W        W62298  10.406  42.917  11.062
89973W        W62299  27.473  35.605  11.795
89974W        W62300  41.586   3.846   2.103
89975W        W62301  35.746  27.607   1.707
89976W        W62302  10.061   1.947  14.947
89977W        W62303  10.473  16.103  14.567
89978W        W62304  31.685   2.302  11.019
89979W        W62305  20.867  34.102  13.594
89980W        W62306   9.293  22.113   1.244
89981W        W62307  25.193   2.919  13.439
89982W        W62308  12.772  44.632  14.295
89983W        W62309  16.751  23.851  10.630
89984W        W62310   5.096  29.662   1.000
89985W        W62311   9.567  21.605   4.285
89986W        W62312  34.097  11.657   4.199
89987W        W62313  30.969   6.493   4.631
89988W        W62314  25.498  37.007  12.137
89989W        W62315  26.695  30.099  13.432
89990W        W62316  42.951  18.181   2.594
89991W        W62317  20.882  36.818  14.857
89992W        W62318  26.958  17.093   4.228
89993W        W62319  37.892  26.494  11.144
89994W        W62320  34.263   5.369  13.428
89995W        W62321  42.394  39.211  13.195
89996W        W62322  44.445  39.454   0.342
89997W        W62323  16.287  42.773  14.976
89998W        W62324  42.473   6.708   2.691
89999W        W62325  24.257   5.303  12.699
90000W        W62326  39.720  10.403  12.491
90001W        W62327  18.647  19.310  14.843
90002W        W62328  19.067   5.121  11.586
90003W        W62329   1.818  42.595  12.594
90004W        W62330  32.300  15.725  13.498
90005W        W62331  43.283  19.667  12.949
90006W        W62332   9.665  14.426  13.122
90007W        W62333  19.267   4.708   0.879
90008W        W62334   6.478  17.125   0.192
90009W        W62335   9.928  17.540   0.475
90010W        W62336  28.487  39.362   1.703
90011W        W62337   5.748  35.254  12.364
90012W        W62338  28.972  17.088   2.165
90013W        W62339  41.835   0.886   3.941
90014W        W62340  10.270  30.776   2.788
90015W        W62341   2.011  17.673   1.189
90016W        W62342  44.105  34.649   1.506
90017W        W62343  44.342   0.907   1.437
90018W        W62344  22.556  40.085  13.931
90019W        W62345   1.825  34.500   0.708
90020W        W62346  36.514  31.737   4.714
90021W        W62347  42.605  38.361  14.901
90022W        W62348  38.794  39.453  14.924
90023W        W62349  25.108  43.366   2.146
90024W        W62350   2.190  21.801  14.338
90025W        W62351   4.106  37.253  14.995
90026W        W62352   8.465  22.083   1.873
90027W        W62353  43.237  18.205  10.579
90028W        W62354  37.520  28.502  14.953
90029W        W62355  41.964  21.634  14.333
90030W        W62356  17.342  26.525  11.260
90031W        W62357  19.095  23.691   0.598
90032W        W62358  20.697  34.496   2.291
90033W        W62359  36.007  10.769   2.206
90034W        W62360   2.354   6.657  12.014
90035W        W62361  14.817  37.626  11.097
90036W        W62362  13.306  15.279   2.799
90037W        W62363  32.891  31.503   1.110
90038W        W62364  30.936   3.885  12.481
90039W        W62365  23.339   7.487   3.901
90040W        W62366  18.251  39.561   2.882
90041W        W62367  31.395  37.687  14.892
90042W        W62368  25.963  11.661  13.943
90043W        W62369   7.910  34.915   0.591
90044W        W62370   3.405   3.123  11.076
90045W        W62371  41.786  40.869  10.995
90046W        W62372  44.417  28.983   0.460
90047W        W62373  26.257  39.746   0.475
90048W        W62374  10.060  26.900   3.160
90049W        W62375  41.520  16.838   1.884
90050W        W62376  37.849  12.105   3.798
90051W        W62377  23.175   7.818  12.014
90052W        W62378  20.596  22.738  12.682
90053W        W62379   0.651  20.108   2.687
90054W        W62380  22.255   4.328   1.381
90055W        W62381  42.360   2.284   3.879
90056W        W62382  41.767  39.423   5.015
90057W        W62383  32.348   6.904  14.441
90058W        W62384  11.197  16.243   0.961
90059W        W62385  22.114  43.888   0.235
90060W        W62386  17.503  44.807  14.366
90061W        W62387  15.211  25.435  10.293
90062W        W62388   6.189  19.247   0.126
90063W        W62389   8.849   8.182   0.506
90064W        W62390  15.155   0.797  12.623
90065W        W62391  19.485  14.319  14.287
90066W        W62392  35.337   2.378  13.337
90067W        W62393   3.834  15.286  11.557
90068W        W62394  18.196  38.565   3.186
90069W        W62395   4.022  32.013   4.347
90070W        W62396  42.599  17.726  12.654
90071W        W62397  32.387  28.589   1.297
90072W        W62398  30.600   5.382   2.133
90073W        W62399  43.372  26.143  13.997
90074W        W62400  29.654  36.499   3.197
90075W        W62401  38.019  39.410  14.354
90076W        W62402  39.045  18.141  13.489
90077W        W62403  14.381  35.026  12.543
90078W        W62404  28.211  32.219   0.173
90079W        W62405  44.740  43.277   3.239
90080W        W62406  38.456  34.591   2.265
90081W        W62407  24.044  29.464  11.720
90082W        W62408  35.524  12.281  11.632
90083W        W62409  34.058  24.248   3.655
90084W        W62410   0.983  33.445  12.616
90085W        W62411  31.894  32.609  11.808
90086W        W62412   5.277  38.546  11.611
90087W        W62413   9.187   3.054  11.227
90088W        W62414  23.684  17.254  14.090
90089W        W62415  41.560  17.236   2.306
90090W        W62416  38.495  12.772  14.978
90091W        W62417  19.235  22.039   1.820
90092W        W62418  38.858  38.325   1.407
90093W        W62419  19.300  35.399  11.575
90094W        W62420  15.831  17.801   2.419
90095W        W62421  31.378  14.754  13.823
90096W        W62422  33.400   1.662  12.155
90097W        W62423  15.646  16.266  13.908
90098W        W62424   1.302   0.853   4.578
90099W        W62425  29.518  32.447   4.141
90100W        W62426  23.415  37.664  13.349
90101W        W62427  21.217  43.853   0.112
90102W        W62428   1.288  33.976   1.267
90103W        W62429  24.560  18.481  10.248
90104W        W62430   9.623  12.624  11.571
90105W        W62431  40.876   9.205   1.820
90106W        W62432   9.205  42.249   4.564
90107W        W62433  17.727  34.855  13.444
90108W        W62434  36.477  12.044   4.993
90109W        W62435  24.969  39.352   2.538
90110W        W62436  12.381  21.802   4.894
90111W        W62437  30.128  30.709   3.873
90112W        W62438  42.475   5.690  14.965
90113W        W62439  25.814   8.151   0.789
90114W        W62440  21.081  21.440  12.489
90115W        W62441   7.975  14.331   2.777
90116W        W62442  41.423   5.312  10.611
90117W        W62443  26.641  26.303   0.398
90118W        W62444  38.078  23.103   3.928
90119W        W62445  33.131  32.568  13.882
90120W        W62446   6.776   2.274  13.580
90121W        W62447  40.509  33.529   1.626
90122W        W62448  26.622  35.424   1.190
90123W        W62449   5.390   4.866   2.843
90124W        W62450  21.663  44.082  13.918
90125W        W62451  23.471  24.251  14.482
90126W        W62452   1.520   2.153   3.408
90127W        W62453  14.143  39.821  12.332
90128W        W62454  22.431   8.720   0.314
90129W        W62455  31.750  13.334   0.511
90130W        W62456  32.276   7.235  11.154
90131W        W62457  12.089  35.273   5.039
90132W        W62458  34.901  10.365  10.685
90133W        W62459  41.447  21.102   1.720
90134W        W62460  31.925  22.286   1.318
90135W        W62461  23.235  25.632   3.636
90136W        W62462  36.590  15.050   1.329
90137W        W62463  32.593  41.462  14.968
90138W        W62464  29.571  40.975   4.705
90139W        W62465   3.319  40.763  10.659
90140W        W62466  24.317   8.297   0.669
90141W        W62467  34.112   7.886   4.159
90142W        W62468  28.506  15.335  12.568
90143W        W62469   5.485  25.580  10.512
90144W        W62470  35.561  37.564  11.762
90145W        W62471  38.405  35.499   4.101
90146W        W62472   5.628  15.281  12.046
90147W        W62473  36.320  30.522   1.374
90148W        W62474  11.311  36.275   1.717
90149W        W62475  31.987  16.689  14.945
90150W        W62476  26.269   9.882   2.312
90151W        W62477  42.274  19.067  12.466
90152W        W62478  10.568   9.653  14.986
90153W        W62479   0.442  37.586   3.169
90154W        W62480  33.514  40.720  11.549
90155W        W62481  38.884  35.395   1.296
90156W        W62482  21.066   1.793   9.909
90157W        W62483  14.709  30.291  12.935
90158W        W62484  25.932  25.432   2.919
90159W        W62485   6.207  30.407   4.967
90160W        W62486  18.618  36.277  12.917
90161W        W62487   4.028  10.682   4.138
90162W        W62488  33.211   0.836  13.933
90163W        W62489  37.499  31.149   0.267
90164W        W62490   7.247  18.465  14.844
90165W        W62491   4.924  25.009   2.742
90166W        W62492   1.428  36.950   0.690
90167W        W62493  19.396  13.431  14.082
90168W        W62494  36.081  14.477  13.610
90169W        W62495  18.169  17.474  13.569
90170W        W62496  29.163  27.385  11.898
90171W        W62497  28.673   5.359  11.043
90172W        W62498  38.438  39.478   1.300
90173W        W62499  34.009  13.770   4.485
90174W        W62500  10.423  18.990   0.402
90175W        W62501  24.974  14.645   2.395
90176W        W62502  31.964  22.322   2.145
90177W        W62503  27.090  18.510  10.210
90178W        W62504  43.520  38.490  14.740
90179W        W62505  28.322  19.070   2.011
90180W        W62506   7.257  32.003  12.415
90181W        W62507  38.914   1.286  13.490
90182W        W62508  12.697   4.136   1.339
90183W        W62509  11.423   3.884  11.829
90184W        W62510   5.675  19.643  11.934
90185W        W62511   4.309   4.033  12.584
90186W        W62512  29.542  44.832  12.473
90187W        W62513  17.738   2.877   1.947
90188W        W62514  39.569  16.787   3.376
90189W        W62515   1.610  35.583   0.308
90190W        W62516   5.184   3.511  10.398
90191W        W62517  21.744  12.531   4.234
90192W        W62518  30.157  11.699   2.391
90193W        W62519  22.701   9.904  13.834
90194W        W62520  10.640  20.006  11.609
90195W        W62521  31.294  17.579   4.109
90196W        W62522  33.014  32.916   2.454
90197W        W62523  33.040  38.511  12.987
90198W        W62524  39.689  30.835  12.223
90199W        W62525  37.903  38.491  14.769
90200W        W62526   2.210  30.390   4.145
90201W        W62527  35.400  29.589   4.876
90202W        W62528  42.319   9.265   4.520
90203W        W62529  14.682  12.607  10.486
90204W        W62530  27.120   2.751   1.097
90205W        W62531  42.897  12.616   1.300
90206W        W62532   7.781   9.825   3.688
90207W        W62533  38.487  11.170   4.634
90208W        W62534  41.396  14.323   1.646
90209W        W62535  25.035  33.979   1.456
90210W        W62536  10.168   4.697  14.519
90211W        W62537  19.805  44.078   2.395
90212W        W62538   1.360  27.018   0.308
90213W        W62539  17.127  40.572  12.821
90214W        W62540  16.246  41.618  12.044
90215W        W62541  34.000  34.801   4.089
90216W        W62542  12.194  40.100   0.221
90217W        W62543  36.994  40.741  12.593
90218W        W62544  40.941  30.893   3.021
90219W        W62545  33.863  36.079  12.055
90220W        W62546   8.541  19.263  10.596
90221W        W62547  18.117  37.391  14.799
90222W        W62548   8.343  28.577   1.025
90223W        W62549  37.151  37.748   0.467
90224W        W62550  27.891   1.675  12.069
90225W        W62551   9.168  29.077  13.957
90226W        W62552  44.797  13.792  14.009
90227W        W62553  35.061  39.374   1.956
90228W        W62554  44.624  11.440   4.544
90229W        W62555  42.343   3.708   4.507
90230W        W62556  10.070   4.642  12.326
90231W        W62557  16.369  17.342   0.359
90232W        W62558  33.570  21.594  13.359
90233W        W62559   4.248   5.869   2.677
90234W        W62560  10.871   9.078  12.122
90235W        W62561  32.415  37.417  12.107
90236W        W62562  10.735   3.723   2.255
90237W        W62563  20.845  13.665   1.915
90238W        W62564   2.242  15.283   4.411
90239W        W62565  34.434  26.265  13.885
90240W        W62566  22.042  39.297  14.003
90241W        W62567  28.992  26.427  10.922
90242W        W62568  42.066  10.664  14.934
90243W        W62569   7.695  26.506  14.797
90244W        W62570  27.577  15.884   3.158
90245W        W62571  15.568  38.375   3.830
90246W        W62572  37.920  32.049  12.033
90247W        W62573  20.106   6.143   0.419
90248W        W62574  37.321  25.083  13.918
90249W        W62575  26.774   3.163  13.319
90250W        W62576  17.942  37.860  14.908
90251W        W62577   8.242  13.954   4.084
90252W        W62578   6.862  31.991  10.965
90253W        W62579  26.092   1.180   1.917
90254W        W62580  44.816  17.846  12.079
90255W        W62581  41.354  30.475   4.646
90256W        W62582  14.569  12.497  12.462
90257W        W62583  22.758  31.494  12.902
90258W        W62584  18.714  34.413  14.130
90259W        W62585  20.199  24.882  13.014
90260W        W62586  35.290  12.883  12.511
90261W        W62587  25.536  37.558  12.120
90262W        W62588   2.767  33.596   1.215
90263W        W62589   5.866  16.547   1.867
90264W        W62590  10.202  21.530  10.628
90265W        W62591  31.509  35.868  14.772
90266W        W62592  14.532  28.648   5.087
90267W        W62593  36.122  40.127   0.494
90268W        W62594  31.179   9.314  13.429
90269W        W62595   9.495  31.724   0.361
90270W        W62596   8.407   6.404   3.263
90271W        W62597  27.617  34.176   1.483
90272W        W62598  35.505   1.273  11.287
90273W        W62599   6.912   3.721  14.479
90274W        W62600  31.112   4.431  12.498
90275W        W62601  30.157  44.414   4.204
90276W        W62602  36.312  36.080   1.838
90277W        W62603  34.441  44.769  12.192
90278W        W62604  41.295   1.329   4.666
90279W        W62605  17.673  20.595   1.969
90280W        W62606   5.474  36.285  12.476
90281W        W62607  24.651  22.738   0.660
90282W        W62608  13.419  35.980  11.268
90283W        W62609  10.603  12.284  12.587
90284W        W62610  19.132  17.070   1.836
90285W        W62611  39.971  17.902  13.908
90286W        W62612  26.368  27.735  11.114
90287W        W62613  18.090  21.186   4.549
90288W        W62614  36.444  31.924   0.444
90289W        W62615  38.382  10.649   3.764
90290W        W62616  11.270  11.090   4.607
90291W        W62617  25.378  32.711  13.553
90292W        W62618  44.329  10.262  12.209
90293W        W62619  21.194  27.197  14.553
90294W        W62620  40.284  30.723  13.300
90295W        W62621   2.344  41.365  12.465
90296W        W62622  26.114  14.784  13.865
90297W        W62623   4.237  10.160  10.723
90298W        W62624  28.982  10.521  14.536
90299W        W62625  23.796  18.782   2.778
90300W        W62626  40.963  42.465   0.920
90301W        W62627  22.779  24.593  12.494
90302W        W62628  22.586   0.772   3.440
90303W        W62629  40.405  33.927  12.362
90304W        W62630  15.372  42.986   0.946
90305W        W62631  33.115  13.866   1.047
90306W        W62632  25.425  12.903   3.233
90307W        W62633  42.681  19.982  11.351
90308W        W62634   0.151  24.730  11.994
90309W        W62635   2.909  35.156  13.536
90310W        W62636  19.772  29.920   0.991
90311W        W62637  28.728  18.110  14.862
90312W        W62638  43.915   1.861   3.353
90313W        W62639  42.990  17.682   2.385
90314W        W62640  15.355  39.293  11.689
90315W        W62641  19.526   1.835   4.578
90316W        W62642  14.191  21.279  13.912
90317W        W62643  42.869  25.269  10.731
90318W        W62644  28.362  39.013   0.349
90319W        W62645  17.319  20.167   0.381
90320W        W62646  16.046  30.206  12.489
90321W        W62647  26.182  10.105   0.498
90322W        W62648  22.825  23.196   0.450
90323W        W62649   7.770  24.681   1.750
90324W        W62650  10.479  24.572   0.923
90325W        W62651  37.799  20.048   4.297
90326W        W62652  36.476   8.241  11.541
90327W        W62653  12.247  33.828   2.739
90328W        W62654  11.326  27.216   0.449
90329W        W62655  34.850  40.804  14.438
90330W        W62656  25.705   4.657   2.398
90331W        W62657  24.188  41.349  14.326
90332W        W62658  26.066  21.065  13.910
90333W        W62659  19.314  29.940  11.800
90334W        W62660   4.077  41.233   4.365
90335W        W62661   4.848   4.372   2.864
90336W        W62662   4.890  17.532   3.158
90337W        W62663  35.517  44.480   2.183
90338W        W62664   1.351  32.498  12.174
90339W        W62665   5.483  10.685   2.966
90340W        W62666  44.831  39.872   3.251
90341W        W62667   5.743  44.888  10.537
90342W        W62668  10.942  42.845   3.680
90343W        W62669  22.246   4.526   4.160
90344W        W62670   4.694  23.649   9.967
90345W        W62671  20.945  11.229  14.785
90346W        W62672  17.095  14.304  11.653
90347W        W62673  39.876  15.269   2.252
90348W        W62674   5.482  29.058   3.355
90349W        W62675   6.840  34.335   0.002
90350W        W62676  44.127  25.706  10.352
90351W        W62677  26.929  18.214  14.542
90352W        W62678  18.678   5.896  12.654
90353W        W62679  41.323   2.163   1.316
90354W        W62680  25.474  21.860  14.204
90355W        W62681  14.655  21.435   3.763
90356W        W62682  32.082  14.279  10.963
90357W        W62683  34.022  42.727   4.105
90358W        W62684  31.010  22.110   2.271
90359W        W62685  42.731  32.575  12.812
90360W        W62686   0.238  17.618  14.483
90361W        W62687   3.514  24.529  13.843
90362W        W62688  42.940  16.708  11.446
90363W        W62689  30.771  19.736  11.368
90364W        W62690  15.492  14.382   1.893
90365W        W62691   5.979   4.404   1.958
90366W        W62692  22.634  18.242  13.852
90367W        W62693   4.139   3.341  13.497
90368W        W62694  36.807  37.627  11.493
90369W        W62695   2.879  35.506   4.759
90370W        W62696  20.691   0.784   0.843
90371W        W62697  38.684   2.994   2.912
90372W        W62698  40.345  20.581  10.352
90373W        W62699  41.929  38.260   3.617
90374W        W62700  19.299  43.022   4.991
90375W        W62701  15.161  24.458   4.057
90376W        W62702  23.011   5.291  14.951
90377W        W62703  10.886  29.875   3.641
90378W        W62704  41.630  22.996   2.724
90379W        W62705  15.077   8.519   4.759
90380W        W62706  21.950   2.824  11.245
90381W        W62707  32.575   4.801   1.892
90382W        W62708  41.210  28.925   0.729
90383W        W62709  18.263   4.642  14.668
90384W        W62710   2.456  40.380  11.253
90385W        W62711  19.085   3.549  14.259
90386W        W62712  35.861  38.405   2.971
90387W        W62713  34.179  39.613  14.167
90388W        W62714  44.338   1.297   2.274
90389W        W62715  21.481  31.036   2.770
90390W        W62716   4.379  18.725  14.635
90391W        W62717  35.038   8.161   4.115
90392W        W62718  27.539  30.372   3.730
90393W        W62719   2.325  29.605   2.274
90394W        W62720  41.116  23.909  14.461
90395W        W62721  18.160  13.060   0.262
90396W        W62722  44.757  26.562   0.413
90397W        W62723  36.005  35.148   4.186
90398W        W62724   3.536   9.415   2.677
90399W        W62725  35.541  11.081  12.347
90400W        W62726   2.239  39.986   4.692
90401W        W62727  15.817   3.135   4.929
90402W        W62728  14.082  33.080  12.635
90403W        W62729   1.357  43.344  11.386
90404W        W62730  27.554  32.564   0.957
90405W        W62731  12.310  23.974   4.203
90406W        W62732  17.603  15.055   0.938
90407W        W62733  40.433  10.939   1.779
90408W        W62734  19.169   1.922  10.636
90409W        W62735  13.313  10.831   4.300
90410W        W62736  25.101  21.897   0.078
90411W        W62737  32.189  19.630   2.832
90412W        W62738  21.223   9.280  11.615
90413W        W62739   4.458  23.548   4.169
90414W        W62740  30.518  14.593  11.848
90415W        W62741  29.042  23.737   0.068
90416W        W62742  24.146  15.473  11.160
90417W        W62743  35.864  31.431  13.429
90418W        W62744   1.415   4.795  14.961
90419W        W62745  21.530  11.279  10.705
90420W        W62746  30.680  11.080  14.852
90421W        W62747  33.093  10.213  11.251
90422W        W62748  23.130  36.645  13.961
90423W        W62749   6.771  11.409  12.395
90424W        W62750  37.817   7.351   1.246
90425W        W62751  32.962  13.009  10.731
90426W        W62752  39.644  14.328  14.994
90427W        W62753  44.421  44.573   3.551
90428W        W62754  26.253  31.906  12.333
90429W        W62755  22.007   3.525   3.677
90430W        W62756  33.901  30.695  10.943
90431W        W62757   5.433  34.454  14.814
90432W        W62758  33.909  20.024   0.931
90433W        W62759   2.989   6.191   4.498
90434W        W62760   4.503   9.378   4.078
90435W        W62761   7.608  12.691  14.088
90436W        W62762  14.625  11.858  13.245
90437W        W62763  39.691  35.184   2.683
90438W        W62764  13.350   6.881  14.940
90439W        W62765  33.583  30.945   2.230
90440W        W62766  38.873  22.238  11.135
90441W        W62767  43.451  21.603   3.440
90442W        W62768  36.859   0.819  11.440
90443W        W62769   9.328  32.930  12.546
90444W        W62770  11.885  39.703   2.388
90445W        W62771  23.046  42.519   2.919
90446W        W62772  18.254  11.569  11.511
90447W        W62773  38.442  15.667   4.882
90448W        W62774  15.542  20.199   0.850
90449W        W62775  23.858  34.093   4.783
90450W        W62776  28.781  18.056   2.673
90451W        W62777  42.063  16.262   4.201
90452W        W62778   1.669  35.634  11.943
90453W        W62779  21.062  37.368   4.948
90454W        W62780  14.569  19.789  11.668
90455W        W62781   7.172  20.978   2.502
90456W        W62782   5.822  41.231  10.806
90457W        W62783   0.495  20.504   0.270
90458W        W62784  21.922   8.690  10.679
90459W        W62785  21.305  27.725  13.394
90460W        W62786  12.847  40.716   0.586
90461W        W62787  31.606  37.848  14.366
90462W        W62788   8.334  20.707  12.525
90463W        W62789   3.645   0.292  14.348
90464W        W62790   3.911   0.170  13.920
90465W        W62791  38.371  35.128   3.632
90466W        W62792  34.984  28.745  12.472
90467W        W62793  43.857  36.444   4.926
90468W        W62794  30.971   3.435  10.651
90469W        W62795  24.373  31.423   0.297
90470W        W62796  22.653   0.248  11.705
90471W        W62797  32.881  30.479   2.881
90472W        W62798  13.857  40.272   0.441
90473W        W62799  17.108   4.720  12.910
90474W        W62800  38.393  22.122  10.951
90475W        W62801  37.576  32.503  10.409
90476W        W62802  18.023  17.684  11.690
90477W        W62803  43.410   0.355   2.339
90478W        W62804  39.887   0.466   3.586
90479W        W62805   2.967  15.814  11.685
90480W        W62806  15.655  20.609   0.023
90481W        W62807  19.771  35.492  14.806
90482W        W62808  22.607   7.929  14.005
90483W        W62809  15.610  25.452   2.098
90484W        W62810   2.936  42.961   0.918
90485W        W62811  35.631  43.237   4.619
90486W        W62812  44.438  28.768   4.527
90487W        W62813  34.853  36.336   4.592
90488W        W62814  12.338   0.931   4.284
90489W        W62815  13.045   9.102   1.654
90490W        W62816  10.126  27.163   0.218
90491W        W62817  12.130  33.220  12.464
90492W        W62818  18.783  23.681   2.843
90493W        W62819  21.205  38.981   4.385
90494W        W62820  34.958  19.092   2.649
90495W        W62821  17.369   1.381  13.401
90496W        W62822  37.033   4.310  12.497
90497W        W62823  15.328  31.137  12.750
90498W        W62824  13.782  17.062  14.366
90499W        W62825  31.596  31.065  11.041
90500W        W62826  29.316   5.097  12.494
90501W        W62827  13.895   3.932   1.508
90502W        W62828  44.751   0.473  12.341
90503W        W62829  21.477  39.048  13.881
90504W        W62830  36.011   6.814   3.945
90505W        W62831  15.305  10.174   1.194
90506W        W62832   8.226  42.433   0.160
90507W        W62833  28.547   5.877  13.359
90508W        W62834  25.706  28.035   4.132
90509W        W62835  43.841  17.556   2.904
90510W        W62836  43.280  11.648   2.791
90511W        W62837  43.861  30.470   4.720
90512W        W62838   5.235  11.837   3.161
90513W        W62839  38.311  38.392  13.833
90514W        W62840  23.704   3.974   3.331
90515W        W62841  33.145  29.011  14.715
90516W        W62842  21.007  12.375   1.860
90517W        W62843  28.005  13.743   1.322
90518W        W62844  21.243  23.714   1.766
90519W        W62845  26.002  17.478   1.497
90520W        W62846  10.605  15.153   0.293
90521W        W62847  15.400  20.943  13.515
90522W        W62848  26.692   2.029   1.438
90523W        W62849   2.384  38.490   3.690
90524W        W62850   3.295  22.779  10.164
90525W        W62851  37.103  23.268  11.608
90526W        W62852  32.228  13.607  14.715
90527W        W62853   0.593  37.100   2.278
90528W        W62854  26.169   1.286  13.836
90529W        W62855  28.442  17.992  11.523
90530W        W62856  13.287  22.342  13.956
90531W        W62857  31.941  12.423  13.012
90532W        W62858  13.152  25.546   3.597
90533W        W62859  32.529  23.867  14.409
90534W        W62860  21.658   3.308   2.817
90535W        W62861   1.432  21.804   3.073
90536W        W62862  26.023  23.792   0.735
90537W        W62863  24.321  40.760   4.220
90538W        W62864   1.487  23.902   9.808
90539W        W62865  25.135  22.043   1.118
90540W        W62866  18.942   5.399  10.651
90541W        W62867  38.685  35.367   1.773
90542W        W62868  24.740   1.327   3.348
90543W        W62869  24.196  22.064   1.033
90544W        W62870   5.172  29.520  10.981
90545W        W62871  22.793   1.727  10.682
90546W        W62872   6.022  17.526  12.086
90547W        W62873  20.777  32.982  14.621
90548W        W62874   6.922   5.754   1.104
90549W        W62875  16.272  26.065   2.673
90550W        W62876   4.455  23.690  14.405
90551W        W62877  41.971  20.162  11.849
90552W        W62878  44.875  34.398  13.825
90553W        W62879   6.339  42.264   3.118
90554W        W62880  31.081  13.697  12.917
90555W        W62881  10.070  29.561   0.208
90556W        W62882   3.243  24.148  13.578
90557W        W62883  21.401   7.278  11.986
90558W        W62884  17.696  41.472   1.469
90559W        W62885  43.372  13.674   3.848
90560W        W62886  13.594   7.843   4.533
90561W        W62887  17.284  36.494   1.836
90562W        W62888  44.822  21.440   2.773
90563W        W62889  34.539  22.439  13.775
90564W        W62890  20.661  40.282  10.053
90565W        W62891  40.542  18.786  11.680
90566W        W62892   0.771  39.179   1.760
90567W        W62893  13.198  37.766   3.202
90568W        W62894  37.351   0.391   0.712
90569W        W62895   7.780  29.392   4.396
90570W        W62896   0.225  14.954  11.102
90571W        W62897  41.873  33.803   2.742
90572W        W62898  36.039   2.469   2.452
90573W        W62899   6.728  12.331   1.700
90574W        W62900  10.174  40.670   0.868
90575W        W62901  40.444  37.246  12.518
90576W        W62902  19.150  18.063   4.587
90577W        W62903  28.594  26.536  10.603
90578W        W62904  16.567  11.185   2.300
90579W        W62905  25.058  24.045  11.577
90580W        W62906  35.327  28.363  14.625
90581W        W62907  16.581  44.815  10.815
90582W        W62908  14.022  18.558   4.335
90583W        W62909   5.712  22.808  14.479
90584W        W62910  32.469  42.782   4.451
90585W        W62911  36.722  24.745   1.429
90586W        W62912  12.129  24.341   0.720
90587W        W62913  27.744  28.561  11.475
90588W        W62914  43.035  13.771   3.460
90589W        W62915  34.917  11.373   4.108
90590W        W62916  23.529  20.800  11.214
90591W        W62917  14.312  31.022  12.498
90592W        W62918   4.208   3.150   4.262
90593W        W62919  31.550  31.063   1.193
90594W        W62920  32.875  23.504   3.199
90595W        W62921  29.736   4.746  11.642
90596W        W62922   9.169  29.524  13.147
90597W        W62923  44.446  13.049  12.907
90598W        W62924  43.300  33.146  12.622
90599W        W62925   6.347  30.708  11.464
90600W        W62926  42.038  10.402  13.097
90601W        W62927  26.612   8.850  11.062
90602W        W62928   3.538  40.462   4.547
90603W        W62929  17.378   7.607   2.870
90604W        W62930   6.208  27.010  12.195
90605W        W62931   2.185  10.377  14.502
90606W        W62932   1.255  44.519  12.110
90607W        W62933  21.621  32.545   2.694
90608W        W62934   4.471  15.784  10.600
90609W        W62935   9.261  21.933  11.431
90610W        W62936  17.685  16.789  13.356
90611W        W62937  16.746  38.450  12.502
90612W        W62938  18.823  11.836   0.019
90613W        W62939  36.549   5.284  12.047
90614W        W62940  12.078  22.219   3.775
90615W        W62941  32.605  29.519   2.466
90616W        W62942  36.532   4.030   2.725
90617W        W62943   2.013   1.308  13.495
90618W        W62944  13.087  41.415  12.105
90619W        W62945  39.851  20.033   4.398
90620W        W62946   9.388   6.253  14.904
90621W        W62947  30.704  37.835   1.606
90622W        W62948  23.579  12.544   2.099
90623W        W62949  20.657  14.128  13.117
90624W        W62950  40.771   7.183   1.509
90625W        W62951  20.346  18.009  13.842
90626W        W62952   5.224   4.896  10.526
90627W        W62953   7.843  10.362   3.644
90628W        W62954  24.359  29.887  14.270
90629W        W62955   9.795  26.322  10.222
90630W        W62956   2.366  19.410  13.813
90631W        W62957  38.919  19.037  10.948
90632W        W62958  21.402   8.471  11.149
90633W        W62959  37.473  35.721   4.423
90634W        W62960  33.588  43.037  12.858
90635W        W62961  32.995  10.509   4.201
90636W        W62962   5.268  12.128  14.326
90637W        W62963  20.498  43.506  14.128
90638W        W62964   5.818   6.636  14.320
90639W        W62965  17.852  44.529  10.494
90640W        W62966  23.969  20.737   0.747
90641W        W62967  29.200  42.591  11.164
90642W        W62968  32.286  38.869  11.867
90643W        W62969  11.938   0.310  12.461
90644W        W62970  17.768  31.092   3.050
90645W        W62971   8.410  36.664  14.549
90646W        W62972  25.083  11.585   2.327
90647W        W62973  36.533   1.938  14.462
90648W        W62974   4.360  40.398  12.052
90649W        W62975  29.118   3.320  14.617
90650W        W62976  12.756   4.759  12.131
90651W        W62977  38.038  20.449   1.648
90652W        W62978  27.922   2.721  12.098
90653W        W62979   5.511  30.511  13.012
90654W        W62980  19.049  25.134  14.847
90655W        W62981  39.708  22.684   1.320
90656W        W62982  33.539   7.067  10.253
90657W        W62983  33.332  33.659  11.878
90658W        W62984  11.716  21.604   3.802
90659W        W62985   7.730  30.667   4.660
90660W        W62986   9.717  20.265  14.584
90661W        W62987   1.760  37.584   1.231
90662W        W62988   4.894   7.651   4.662
90663W        W62989  29.051   4.968  13.066
90664W        W62990  34.892   2.494   0.257
90665W        W62991  16.849  20.025  10.979
90666W        W62992  27.039  24.191  11.097
90667W        W62993  17.245  17.675  14.886
90668W        W62994   7.570  27.684  10.821
90669W        W62995  13.590  34.658   1.826
90670W        W62996  17.249  24.706   4.860
90671W        W62997   7.655   3.682  13.538
90672W        W62998  34.958  18.543   3.125
90673W        W62999  33.463  11.769  10.304
90674W        W63000  29.807  28.635   9.659
90675W        W63001  43.526  24.646  14.778
90676W        W63002  12.648  36.397   4.599
90677W        W63003  11.176  21.435   2.560
90678W        W63004  21.595  33.501   3.263
90679W        W63005  41.363  21.985   1.541
90680W        W63006  28.538  35.897  12.645
90681W        W63007  23.488  42.569   0.290
90682W        W63008   7.169  34.575   4.057
90683W        W63009  39.468  32.601  11.928
90684W        W63010  23.042  29.081  11.008
90685W        W63011  25.493  26.651  12.403
90686W        W63012  10.120  13.213  11.182
90687W        W63013  42.694  29.928  13.428
90688W        W63014  24.123   2.846   4.266
90689W        W63015   6.914  30.148   0.917
90690W        W63016  43.020  33.987  14.497
90691W        W63017  43.507  23.985   1.353
90692W        W63018  40.092  24.172   3.900
90693W        W63019  30.515  16.725  10.493
90694W        W63020  27.083   0.837   1.177
90695W        W63021  24.728  36.454   1.949
90696W        W63022   4.278   8.900  11.176
90697W        W63023  29.776  39.357  13.595
90698W        W63024  20.759  38.829  11.080
90699W        W63025   8.736  30.670   1.877
90700W        W63026  32.625   3.421  11.623
90701W        W63027   2.823  13.064   2.729
90702W        W63028  29.836  38.662   4.223
90703W        W63029  43.015  30.397   4.181
90704W        W63030  40.978  26.935   2.836
90705W        W63031  37.563  10.882   3.356
90706W        W63032   3.603  37.004  13.444
90707W        W63033  23.447   1.483  14.746
90708W        W63034  20.702  40.825   0.257
90709W        W63035  29.744   9.333  12.046
90710W        W63036  22.027  28.046   4.296
90711W        W63037  37.807   4.263  13.127
90712W        W63038   0.316   0.631   3.376
90713W        W63039   8.210   9.715   2.692
90714W        W63040  29.054  37.451   3.826
90715W        W63041   3.661  13.092   4.373
90716W        W63042  30.405   9.836   1.871
90717W        W63043  18.609   0.902   1.126
90718W        W63044  43.874   3.723  11.387
90719W        W63045  29.076  23.495  13.187
90720W        W63046  32.181  32.482  11.412
90721W        W63047  27.032   7.925  11.794
90722W        W63048  34.463  20.256   3.717
90723W        W63049   3.305  18.146   4.268
90724W        W63050  24.348  18.645  14.038
90725W        W63051  35.426  31.694  11.160
90726W        W63052  14.759   2.382   4.585
90727W        W63053  32.568  15.176  14.297
90728W        W63054  37.552   8.165   3.155
90729W        W63055  30.981   4.173  14.312
90730W        W63056  12.819  10.605   2.072
90731W        W63057  17.165  17.805   1.308
90732W        W63058  43.460  30.180   3.093
90733W        W63059  17.823  11.787   4.717
90734W        W63060  15.987  24.708  13.746
90735W        W63061  44.697   4.966  10.929
90736W        W63062   3.937  13.627  10.656
90737W        W63063  32.693  23.095   3.952
90738W        W63064  25.171  43.450  11.668
90739W        W63065  12.328   7.284  12.962
90740W        W63066  17.680   8.966   3.046
90741W        W63067   2.695  32.700  13.013
90742W        W63068   5.368   7.844  11.531
90743W        W63069  38.243  25.616   0.356
90744W        W63070   8.878  18.069   4.325
90745W        W63071  29.568  36.570  13.029
90746W        W63072  31.059  32.806   1.054
90747W        W63073  31.177  44.726  13.939
90748W        W63074  38.316  36.937   4.230
90749W        W63075  21.107  17.113  11.604
90750W        W63076   4.719  32.626  14.379
90751W        W63077  32.857  33.259   2.818
90752W        W63078  17.088   3.852   1.523
90753W        W63079  42.905  11.073   4.815
90754W        W63080  19.193  20.735   3.255
90755W        W63081   3.686  11.269  14.757
90756W        W63082  25.606  31.220   2.650
90757W        W63083  15.804  21.608  14.960
90758W        W63084  19.272  34.884   2.160
90759W        W63085  25.590  41.257   4.102
90760W        W63086  19.186  26.442  13.962
90761W        W63087  21.921  36.817   3.064
90762W        W63088   9.627   2.349   3.433
90763W        W63089  40.027   9.293  11.771
90764W        W63090  40.921  19.726  12.671
90765W        W63091   1.133  22.300  12.655
90766W        W63092   2.023  17.799   2.107
90767W        W63093   5.677  18.657  13.985
90768W        W63094  28.184  40.794   4.065
90769W        W63095  10.414   0.509  13.890
90770W        W63096  14.319   8.516  14.098
90771W        W63097   1.475  30.471   2.828
90772W        W63098  40.414  39.824  13.621
90773W        W63099  24.501  27.084  14.310
90774W        W63100   0.324  25.009  12.501
90775W        W63101  44.040   9.316   4.469
90776W        W63102  18.218  27.841  12.440
90777W        W63103   0.050  35.950  10.495
90778W        W63104  44.655  32.627   0.391
90779W        W63105  32.956  15.602  12.858
90780W        W63106  41.872  35.931   3.698
90781W        W63107  21.952  35.078   3.432
90782W        W63108   7.273  20.983  11.570
90783W        W63109  29.640   9.610   2.704
90784W        W63110  19.777  36.256  14.031
90785W        W63111  36.510   4.383   1.432
90786W        W63112   5.349  27.053  13.459
90787W        W63113   1.099   9.896  10.375
90788W        W63114  43.330   4.344   3.533
90789W        W63115  42.425  12.761  11.645
90790W        W63116  30.353   1.624   4.093
90791W        W63117  24.123  34.390  13.055
90792W        W63118  30.178  31.013   1.448
90793W        W63119   1.444   1.057  14.875
90794W        W63120  29.915  26.644   4.972
90795W        W63121  22.571  34.851  10.709
90796W        W63122  41.300  37.794  14.844
90797W        W63123   8.759  19.458   3.268
90798W        W63124   2.835   7.790  13.707
90799W        W63125  22.964   2.264  10.668
90800W        W63126  18.117  33.530   2.762
90801W        W63127   1.419  14.490   0.776
90802W        W63128  24.539  15.479   1.265
90803W        W63129  12.674  27.922  13.770
90804W        W63130  37.761   1.409  13.897
90805W        W63131  26.060   2.295   2.418
90806W        W63132  38.926  23.976  12.897
90807W        W63133  27.955   7.149  10.735
90808W        W63134  26.130  28.657   3.154
90809W        W63135  36.321  39.763   2.173
90810W        W63136  33.647  38.532   3.746
90811W        W63137  28.598  44.909  12.353
90812W        W63138   4.633  10.124   2.447
90813W        W63139  40.236  30.455   2.827
90814W        W63140  18.210  33.713   0.191
90815W        W63141  34.874  37.373   2.645
90816W        W63142  37.899  14.847  12.014
90817W        W63143   5.036  34.397   0.476
90818W        W63144  18.817  29.068  14.446
90819W        W63145  39.180   9.549   0.481
90820W        W63146  14.225  40.050  13.219
90821W        W63147  26.993  21.425   3.787
90822W        W63148   9.125  44.897  14.962
90823W        W63149  21.620   7.803   1.205
90824W        W63150  31.428   1.241  10.708
90825W        W63151  10.764  12.891   0.421
90826W        W63152   2.751   9.370  10.591
90827W        W63153  22.609  29.094   0.746
90828W        W63154  23.501  14.888   2.325
90829W        W63155   5.046  12.076   3.594
90830W        W63156   7.366  42.834  13.419
90831W        W63157   9.395  27.973  12.343
90832W        W63158  10.900  33.888  13.413
90833W        W63159  32.630  25.040   3.219
90834W        W63160   4.918   5.315   1.720
90835W        W63161   4.396  27.865  13.964
90836W        W63162  20.158  31.959   1.822
90837W        W63163  23.077  27.539  13.394
90838W        W63164  35.492   4.771   2.699
90839W        W63165  36.408  22.368  14.757
90840W        W63166  43.412   0.891   0.292
90841W        W63167   3.205  39.048   4.119
90842W        W63168  21.325  28.161  12.107
90843W        W63169  28.881   2.876  14.785
90844W        W63170  14.726  20.680   3.296
90845W        W63171  13.236  25.041   4.435
90846W        W63172  26.635   2.277  11.927
90847W        W63173  19.502  17.253  14.485
90848W        W63174  12.836   9.907  13.932
90849W        W63175  26.192  41.837   3.902
90850W        W63176  33.768   7.214   3.105
90851W        W63177   3.924   5.434  14.490
90852W        W63178   5.833  15.617  11.063
90853W        W63179  22.242   2.802   4.074
90854W        W63180  10.419  18.718  13.852
90855W        W63181  43.823  26.133  12.379
90856W        W63182  43.590  21.084   1.304
90857W        W63183  12.774  18.795  11.185
90858W        W63184  25.074   9.615  13.697
90859W        W63185  18.462  22.217   2.257
90860W        W63186  27.197  38.292   3.888
90861W        W63187   3.439  13.578   4.306
90862W        W63188  13.415  16.678  14.458
90863W        W63189  41.191  27.961  13.519
90864W        W63190   7.185  24.281  12.195
90865W        W63191  38.476  16.319   1.663
90866W        W63192  12.333  24.420   3.824
90867W        W63193  10.791  18.585  14.218
90868W        W63194  35.772   0.274   2.721
90869W        W63195  16.795  13.092  10.718
90870W        W63196   5.534  18.713   3.150
90871W        W63197  21.577  10.764   1.381
90872W        W63198  32.077  40.972  14.331
90873W        W63199   9.902  11.974  12.956
90874W        W63200  28.736  10.874   4.173
90875W        W63201  21.591   2.485   3.139
90876W        W63202  18.194  26.607  14.960
90877W        W63203  12.835   4.287   3.413
90878W        W63204  20.030  34.600   1.816
90879W        W63205  40.055   0.906  11.536
90880W        W63206  21.480  35.652   3.611
90881W        W63207  36.984  28.513  10.646
90882W        W63208  23.130  38.870  14.266
90883W        W63209  44.313   8.260   2.253
90884W        W63210  24.632  19.655  12.068
90885W        W63211  15.015   7.365   1.325
90886W        W63212  12.277  33.169  13.813
90887W        W63213  28.293  39.097  12.165
90888W        W63214  17.400  14.723   1.667
90889W        W63215  23.139  16.223  12.058
90890W        W63216   5.996  11.327  14.535
90891W        W63217  10.219  10.455  14.533
90892W        W63218  44.280  39.522  12.780
90893W        W63219   1.829  43.341  11.918
90894W        W63220  14.365  31.612  11.630
90895W        W63221  14.066  13.788   3.679
90896W        W63222  15.683  44.851   0.421
90897W        W63223  18.660  43.773   1.344
90898W        W63224  22.301  28.190   2.737
90899W        W63225  28.509  38.650   2.815
90900W        W63226  43.755  36.302  13.012
90901W        W63227  19.879  29.553   0.287
90902W        W63228   8.869  21.036  13.898
90903W        W63229  31.992  11.563   3.696
90904W        W63230  32.038  10.643  12.252
90905W        W63231  17.110  40.263  13.337
90906W        W63232  18.708  26.492  14.956
90907W        W63233  30.028   1.394   0.809
90908W        W63234  23.534  14.524   3.214
90909W        W63235  27.432  44.291  10.884
90910W        W63236   0.529  44.191  13.920
90911W        W63237   9.644  42.915  10.277
90912W        W63238  20.837   4.014  12.839
90913W        W63239  11.449  29.527  13.515
90914W        W63240  11.552  27.464   0.036
90915W        W63241  43.398  28.462  11.848
90916W        W63242  13.317  22.151   2.639
90917W        W63243  44.804   7.705  11.392
90918W        W63244  23.170  21.106  14.021
90919W        W63245  18.463   0.930   2.497
90920W        W63246  41.287  39.147  12.978
90921W        W63247   6.964  16.960   2.534
90922W        W63248  33.932  10.511  12.467
90923W        W63249  33.246  30.547   0.791
90924W        W63250   0.084  37.447  11.907
90925W        W63251  31.453  40.520   3.673
90926W        W63252  22.212  19.122   0.822
90927W        W63253  32.050  38.430   4.654
90928W        W63254  38.046  39.556   4.463
90929W        W63255  17.032  32.382   2.560
90930W        W63256  29.932  13.326   4.546
90931W        W63257  28.322  27.454   1.328
90932W        W63258  34.474   0.042   2.460
90933W        W63259  11.779   5.282   0.622
90934W        W63260  18.255   8.615   1.397
90935W        W63261  20.492  22.685  13.213
90936W        W63262  30.280  23.616   4.416
90937W        W63263  15.503  30.621   0.260
90938W        W63264   0.558   8.943  11.052
90939W        W63265  38.832   9.455  12.352
90940W        W63266  32.893  25.556   1.254
90941W        W63267  42.336  34.600   1.547
90942W        W63268  14.988  40.806  14.554
90943W        W63269  43.736  22.624  10.854
90944W        W63270  20.888   9.840   1.539
90945W        W63271  24.746  25.137   0.186
90946W        W63272   7.342  21.834  12.994
90947W        W63273  25.605  44.544  11.192
90948W        W63274  38.939  39.764   1.386
90949W        W63275  26.456  30.174   3.081
90950W        W63276   6.445  27.511  12.600
90951W        W63277  14.179   4.680  12.033
90952W        W63278  27.485   1.446  10.487
90953W        W63279  36.922   3.278  12.425
90954W        W63280  44.256  25.161  13.420
90955W        W63281  43.347  23.576   3.795
90956W        W63282  30.195  32.981  11.583
90957W        W63283  30.015  31.250  13.411
90958W        W63284  37.118  34.673   3.819
90959W        W63285   2.868  26.924   3.661
90960W        W63286  15.346   8.635  12.897
90961W        W63287  34.068  21.704  10.922
90962W        W63288   3.476  43.511  13.922
90963W        W63289  29.012   3.400   5.018
90964W        W63290  33.517  16.619   3.879
90965W        W63291   9.278  40.912  10.348
90966W        W63292  43.331  27.516   1.503
90967W        W63293  31.032   5.213  11.941
90968W        W63294   7.214  17.301   0.666
90969W        W63295  13.650  25.239  10.128
90970W        W63296  36.796  10.765   0.719
90971W        W63297   9.667  34.560   3.131
90972W        W63298  23.260  14.742   1.874
90973W        W63299   9.167  22.989   3.575
90974W        W63300  22.444  24.233   3.639
90975W        W63301  13.357  21.252   1.751
90976W        W63302   1.343  10.838   3.183
90977W        W63303  32.855  20.582  12.080
90978W        W63304  10.729  41.855  12.843
90979W        W63305  36.307  16.346  14.946
90980W        W63306  37.445  31.868   4.719
90981W        W63307  23.593  38.363  11.542
90982W        W63308  43.818   0.941   3.435
90983W        W63309  40.504  33.209  11.164
90984W        W63310   4.467  27.800  10.113
90985W        W63311   0.163  37.839   0.795
90986W        W63312  14.201  39.425  12.687
90987W        W63313  26.610   5.821  13.119
90988W        W63314  11.241  22.055   4.282
90989W        W63315  27.445  30.626  12.374
90990W        W63316  36.702  17.263   0.018
90991W        W63317   5.739  39.890  11.089
90992W        W63318  25.343  32.476  13.074
90993W        W63319  15.768  30.658   2.677
90994W        W63320  25.340  14.677  12.665
90995W        W63321   6.270   3.294  12.907
90996W        W63322  40.013   1.985  11.562
90997W        W63323  13.799  27.497  12.646
90998W        W63324   6.499   1.458   3.578
90999W        W63325  15.997  38.059  12.483
91000W        W63326  10.679  37.096   2.278
91001W        W63327  21.220  42.549  12.735
91002W        W63328   4.525  26.194  13.473
91003W        W63329  44.788  28.256   4.185
91004W        W63330  41.392  25.316   1.981
91005W        W63331  36.108  11.686  12.458
91006W        W63332  23.688  34.220   3.293
91007W        W63333  19.879  23.952   3.170
91008W        W63334  19.155  11.824  12.912
91009W        W63335  13.124  26.506   2.337
91010W        W63336  21.722  20.795  14.390
91011W        W63337   4.649  13.239  11.392
91012W        W63338  44.384  42.726   0.479
91013W        W63339  12.106  18.736  10.778
91014W        W63340  10.255  30.511  13.594
91015W        W63341  30.326  24.286   2.622
91016W        W63342  30.375  26.393   4.252
91017W        W63343  33.512  38.362  12.177
91018W        W63344  37.254  38.341   2.746
91019W        W63345  13.840  21.006   2.809
91020W        W63346  33.236  34.400  12.319
91021W        W63347   7.023  27.718   1.752
91022W        W63348  37.400  29.820  12.113
91023W        W63349  41.784  16.534   4.545
91024W        W63350  12.729  14.746  10.735
91025W        W63351  11.633  29.404   0.262
91026W        W63352  31.424  37.873  13.491
91027W        W63353  26.316  22.841  11.473
91028W        W63354  37.487  29.042  14.464
91029W        W63355  36.257  23.638   3.741
91030W        W63356  35.562   4.523   4.136
91031W        W63357  37.040  21.518   1.920
91032W        W63358   0.400   4.059  13.764
91033W        W63359   2.879  17.527   4.693
91034W        W63360  21.323  28.252  13.435
91035W        W63361  32.117  16.460  11.507
91036W        W63362  10.837  12.578   4.541
91037W        W63363   6.059  19.762  14.799
91038W        W63364  13.311  10.380   0.438
91039W        W63365  35.294  25.789   4.151
91040W        W63366  32.010  14.818  12.150
91041W        W63367  17.583   5.505   4.133
91042W        W63368  31.672  44.303   4.048
91043W        W63369   7.640   7.691   0.493
91044W        W63370  12.684  13.816  11.281
91045W        W63371  34.139   9.001  14.281
91046W        W63372  24.075  27.471   0.883
91047W        W63373  44.558  20.296   4.135
91048W        W63374   6.117  44.786   3.202
91049W        W63375  35.657   4.504  13.000
91050W        W63376   3.369  38.343   3.796
91051W        W63377  38.552  21.394   3.577
91052W        W63378   2.326   2.541   0.395
91053W        W63379  11.674  16.097   2.182
91054W        W63380  24.984  18.648  11.627
91055W        W63381  19.649  19.054  13.321
91056W        W63382   1.473  14.684   4.165
91057W        W63383  30.385  19.761  12.619
91058W        W63384  35.699  44.324  10.929
91059W        W63385  39.311  31.017  14.992
91060W        W63386  11.682  29.289   1.430
91061W        W63387  42.582  35.630  11.979
91062W        W63388  29.363  41.583  12.256
91063W        W63389  30.724   8.721   2.330
91064W        W63390  20.407   5.471  10.726
91065W        W63391  18.750  14.731   2.262
91066W        W63392  18.037   0.711  14.399
91067W        W63393  29.216  13.160  14.342
91068W        W63394  41.333  33.028   2.225
91069W        W63395   7.611  27.924   0.218
91070W        W63396   6.173  15.494   3.246
91071W        W63397  17.617  20.316  11.560
91072W        W63398  30.050   7.165   0.927
91073W        W63399  16.843  16.278  14.927
91074W        W63400   5.729  22.625   3.279
91075W        W63401   7.311  13.239  13.359
91076W        W63402   0.246  16.449   0.976
91077W        W63403  20.822  15.673   1.680
91078W        W63404  24.052  17.667   5.211
91079W        W63405  26.276  23.799  12.422
91080W        W63406  12.866   9.744   2.142
91081W        W63407  37.953  20.978   1.489
91082W        W63408  26.504  39.854   1.737
91083W        W63409  38.023  11.499  14.272
91084W        W63410  12.581   4.732   0.873
91085W        W63411   3.878  15.171   0.422
91086W        W63412  26.152  11.809  14.942
91087W        W63413   4.789   4.273  12.553
91088W        W63414  18.185  39.841   0.025
91089W        W63415  13.057  33.611   1.207
91090W        W63416   0.845  35.431   4.596
91091W        W63417  40.916  13.041  10.844
91092W        W63418  18.929   8.839   4.026
91093W        W63419   2.653  25.118  14.322
91094W        W63420   4.959  42.869  12.439
91095W        W63421  18.134  13.423   3.191
91096W        W63422  38.491  44.492   2.807
91097W        W63423   7.234  18.566   0.387
91098W        W63424  24.920  39.785   1.275
91099W        W63425  35.035  39.987   2.615
91100W        W63426  14.682   9.477  11.921
91101W        W63427   9.814  35.285  12.857
91102W        W63428  44.430  38.147   1.309
91103W        W63429  30.458  21.648  13.854
91104W        W63430  12.223  10.892  13.935
91105W        W63431  32.498   2.697   4.269
91106W        W63432  31.267   6.710   0.025
91107W        W63433   7.849  12.957   5.058
91108W        W63434   4.712  17.331   0.852
91109W        W63435   5.595  29.909  14.447
91110W        W63436  44.873  34.844  14.064
91111W        W63437   3.302  32.387  14.916
91112W        W63438  19.324  34.885   1.292
91113W        W63439  21.499  29.157   4.542
91114W        W63440  36.564   6.736   1.407
91115W        W63441  30.925   1.766  11.129
91116W        W63442   5.751  24.172  14.469
91117W        W63443   2.302   7.317   3.810
91118W        W63444  21.318  28.936  12.603
91119W        W63445  13.060  40.542   1.359
91120W        W63446  38.902  42.338  12.827
91121W        W63447   5.426  44.922  12.324
91122W        W63448  15.724  36.155   1.814
91123W        W63449  17.323  20.813  12.419
91124W        W63450   4.381   1.842   1.895
91125W        W63451   2.175  19.796  11.899
91126W        W63452  22.282  41.074  11.020
91127W        W63453  34.601   9.884  12.315
91128W        W63454   8.694  32.416   1.694
91129W        W63455  27.341  18.661  12.932
91130W        W63456  42.086  37.542  12.030
91131W        W63457   7.846  19.224   2.911
91132W        W63458  39.530   1.825   2.848
91133W        W63459  27.947  28.988   0.991
91134W        W63460  11.229  27.371  14.632
91135W        W63461  33.619  20.783  10.849
91136W        W63462  23.240  28.722   4.180
91137W        W63463  40.111   4.371   1.368
91138W        W63464  27.440  36.231  13.522
91139W        W63465  26.677  24.986   2.701
91140W        W63466   4.482  40.769  11.660
91141W        W63467   3.054  34.565   1.513
91142W        W63468  20.836   9.002  12.095
91143W        W63469  43.212  31.553   1.913
91144W        W63470  13.636   6.878  14.428
91145W        W63471  32.916  36.016   1.206
91146W        W63472  22.941  36.780   4.143
91147W        W63473  38.295  36.428  14.341
91148W        W63474  16.510  26.467  14.021
91149W        W63475  34.430  15.859   3.773
91150W        W63476  44.621  27.165   1.011
91151W        W63477  16.049  10.835   2.813
91152W        W63478  21.798  21.601   2.234
91153W        W63479   9.289  27.073  14.196
91154W        W63480  30.620  26.499  14.369
91155W        W63481  30.089  19.577   1.760
91156W        W63482  17.991  32.938  11.597
91157W        W63483  24.067  32.234   0.287
91158W        W63484  36.166   1.635   0.350
91159W        W63485   1.529  38.626  13.843
91160W        W63486   4.964  24.788  11.181
91161W        W63487   7.960  25.595   2.485
91162W        W63488   2.345  37.371  10.283
91163W        W63489  20.152  25.329   3.464
91164W        W63490  30.726  18.007  12.934
91165W        W63491   3.199  41.310  13.303
91166W        W63492   6.648  20.990   0.630
91167W        W63493   2.221   7.635   4.189
91168W        W63494  43.080   0.081  11.084
91169W        W63495  33.864   8.351   1.823
91170W        W63496   0.493  22.838  10.225
91171W        W63497  21.176  19.547  12.941
91172W        W63498  19.613  17.050  12.113
91173W        W63499  13.565  19.626   4.545
91174W        W63500  39.489  21.479  12.419
91175W        W63501  17.719  10.695   4.579
91176W        W63502   7.258  36.620  10.670
91177W        W63503  22.051  24.555  14.306
91178W        W63504   0.850  28.554   3.225
91179W        W63505  35.126  25.133   2.891
91180W        W63506  40.401  44.908   1.454
91181W        W63507   0.858  28.258  10.546
91182W        W63508  21.937  40.123   3.671
91183W        W63509  23.698   9.721   1.279
91184W        W63510  44.795  10.438  11.485
91185W        W63511  39.053  14.470  11.182
91186W        W63512  34.205  19.037  12.242
91187W        W63513  11.818   4.326   2.923
91188W        W63514  40.565  14.642  11.496
91189W        W63515   8.417   2.067   3.693
91190W        W63516   6.748  40.842   1.617
91191W        W63517  12.420  24.597  12.034
91192W        W63518   6.226  39.841  10.724
91193W        W63519  26.836  37.278  12.829
91194W        W63520  44.427  12.920  12.380
91195W        W63521  21.558  43.158  10.202
91196W        W63522   0.546  40.404  11.534
91197W        W63523   4.241  20.152  13.886
91198W        W63524  23.532  22.417  13.539
91199W        W63525   0.341  24.503  13.299
91200W        W63526  18.594  17.279   3.584
91201W        W63527  19.563  15.561   4.526
91202W        W63528  44.392  42.854   5.130
91203W        W63529   3.499  33.055   2.729
91204W        W63530  16.618  13.867   1.354
91205W        W63531   2.540  34.514   1.456
91206W        W63532  38.387  17.086   0.816
91207W        W63533   3.416   5.442  14.643
91208W        W63534  42.304   3.928   1.305
91209W        W63535  30.591   5.491  11.112
91210W        W63536  19.056  19.170   4.859
91211W        W63537  28.189  25.537  11.386
91212W        W63538  34.233  10.299   4.085
91213W        W63539  37.614  17.831   2.698
91214W        W63540   4.803  33.956   4.471
91215W        W63541   4.677  14.821  11.249
91216W        W63542   4.475   2.496  12.508
91217W        W63543  37.907  37.690  10.190
91218W        W63544  35.401  15.322  13.365
91219W        W63545  12.198  43.734   3.597
91220W        W63546   3.052   3.650  14.913
91221W        W63547  32.036  44.374   2.423
91222W        W63548  23.948  24.482  14.490
91223W        W63549   3.172  29.688   2.762
91224W        W63550  22.611   8.343  12.150
91225W        W63551  23.150  23.363  14.354
91226W        W63552   0.228  28.337   0.537
91227W        W63553  14.830   2.966  11.779
91228W        W63554  29.725  26.382   3.650
91229W        W63555   7.664   4.546   0.030
91230W        W63556  42.099  14.750  10.719
91231W        W63557  34.823  33.351  14.369
91232W        W63558   5.094   8.771  12.774
91233W        W63559  38.385  16.894  14.488
91234W        W63560  38.116  43.410   0.354
91235W        W63561   2.535  37.523  13.028
91236W        W63562   5.685  32.847   1.279
91237W        W63563  12.766  23.723   4.044
91238W        W63564  27.050  11.291   0.753
91239W        W63565  24.294  24.696  11.442
91240W        W63566  26.858  23.509   0.364
91241W        W63567  10.835  20.810   1.302
91242W        W63568  25.133  33.658   4.446
91243W        W63569  19.718  17.379   0.886
91244W        W63570  36.993  19.576   4.677
91245W        W63571  30.852  22.459  12.000
91246W        W63572   7.908  26.113   2.678
91247W        W63573  11.289  18.296   0.876
91248W        W63574   9.209  26.029   3.830
91249W        W63575  42.735  34.191   4.322
91250W        W63576  39.278  41.156   0.432
91251W        W63577  13.768  34.616  13.991
91252W        W63578  12.851   6.665   0.939
91253W        W63579  40.429  30.468  10.361
91254W        W63580  20.625  30.958   4.700
91255W        W63581  25.705  25.702   2.541
91256W        W63582  21.690  33.854   2.871
91257W        W63583  39.785  43.870  10.711
91258W        W63584  23.027  36.795  10.411
91259W        W63585  32.181   3.282  14.742
91260W        W63586  42.496  15.759   4.616
91261W        W63587  30.537   2.861   1.197
91262W        W63588  14.680  26.910   3.263
91263W        W63589  19.458  21.119   2.283
91264W        W63590  11.299   7.213   3.511
91265W        W63591  31.495  36.102  12.863
91266W        W63592  29.278  29.639  11.930
91267W        W63593  21.727  18.321   0.299
91268W        W63594  41.539  23.999  10.736
91269W        W63595   5.342  39.091   3.303
91270W        W63596   3.558   9.751   4.957
91271W        W63597  22.281  24.992  11.970
91272W        W63598  17.200  28.618   4.837
91273W        W63599  14.340  10.219   2.797
91274W        W63600   9.658   5.392  13.042
91275W        W63601  31.585  17.335   0.774
91276W        W63602  18.140   1.340  14.905
91277W        W63603  32.908  37.511  12.176
91278W        W63604  15.307  10.167   3.656
91279W        W63605  30.630   8.254   1.004
91280W        W63606   3.195   1.120   5.032
91281W        W63607  39.985  30.214  10.450
91282W        W63608  23.496   0.267   1.803
91283W        W63609  25.479   7.353  11.611
91284W        W63610  15.685  21.610   1.846
91285W        W63611  43.978  25.185  12.976
91286W        W63612  22.178  22.154  12.321
91287W        W63613   5.853  23.985  12.153
91288W        W63614  34.310  40.780   2.717
91289W        W63615   0.363  39.971   2.016
91290W        W63616   2.770   9.700   0.853
91291W        W63617  43.551  10.042   4.157
91292W        W63618  39.214  19.765  14.799
91293W        W63619  42.690  31.447   2.017
91294W        W63620   2.043  27.801   1.339
91295W        W63621   4.404  31.532  13.580
91296W        W63622  37.218  31.576  13.104
91297W        W63623   5.477  29.101  10.985
91298W        W63624  42.049  43.718  10.736
91299W        W63625  25.567   5.708   2.227
91300W        W63626  39.533   6.625  11.678
91301W        W63627  40.760   6.842  14.270
91302W        W63628   7.471  15.157  10.641
91303W        W63629  36.851  15.808  11.540
91304W        W63630  43.059  30.222   2.771
91305W        W63631  20.068  35.593   0.526
91306W        W63632  31.147  25.649  10.878
91307W        W63633  39.765   8.408   3.857
91308W        W63634   4.368  17.872  11.592
91309W        W63635  14.173  41.772   0.251
91310W        W63636  18.219   6.298   1.400
91311W        W63637  18.262   0.048   1.435
91312W        W63638  28.032  33.119   0.300
91313W        W63639  22.080  11.257   2.909
91314W        W63640   3.592  42.040   3.193
91315W        W63641   0.367  18.789   1.705
91316W        W63642  34.646   2.041   1.991
91317W        W63643   0.177  26.141   4.419
91318W        W63644  38.136   9.672   5.047
91319W        W63645  12.152   9.187  11.199
91320W        W63646  11.819  25.624  14.760
91321W        W63647  24.972  25.396  14.251
91322W        W63648  36.912   2.204  11.563
91323W        W63649  44.446  10.731  12.460
91324W        W63650   1.608  16.263   2.167
91325W        W63651  33.371  17.596   0.726
91326W        W63652  14.163  23.207   3.562
91327W        W63653  32.333  37.043  14.512
91328W        W63654  14.353   3.275   2.619
91329W        W63655   2.901  18.625   2.238
91330W        W63656  25.729  15.731  10.319
91331W        W63657  43.332  40.623   4.538
91332W        W63658  36.477  24.454  13.948
91333W        W63659  16.175  38.459  11.590
91334W        W63660  34.780   2.766   2.807
91335W        W63661  42.184  22.946  14.484
91336W        W63662   3.501  11.376  10.612
91337W        W63663  13.087   0.476  14.001
91338W        W63664  36.164  17.654  11.083
91339W        W63665  42.603  25.039  11.131
91340W        W63666  34.034  42.753  13.032
91341W        W63667  10.413  40.410  10.342
91342W        W63668  14.702  23.050  12.496
91343W        W63669  42.458  10.707   3.175
91344W        W63670  19.566  14.759  13.688
91345W        W63671  38.323  23.126   3.173
91346W        W63672  21.847  23.126  13.951
91347W        W63673  14.856  18.822  14.952
91348W        W63674  14.694  44.483   3.158
91349W        W63675  30.929   1.391   2.711
91350W        W63676  25.012  37.136  14.503
91351W        W63677   7.207  33.136  12.466
91352W        W63678  42.808  15.215   4.553
91353W        W63679  23.307  32.013   0.978
91354W        W63680   4.371   4.475  11.296
91355W        W63681  33.040  26.999  14.326
91356W        W63682  26.710  38.494  14.976
91357W        W63683  20.612  25.186   3.790
91358W        W63684   9.189  11.086  13.406
91359W        W63685  11.446  23.626   2.719
91360W        W63686  17.136  15.112   0.626
91361W        W63687  25.104   7.751   1.346
91362W        W63688  14.756   0.948  10.999
91363W        W63689  22.070   3.201   3.172
91364W        W63690   4.257  10.317  11.674
91365W        W63691  39.740  36.907   1.374
91366W        W63692  25.881  37.345  14.825
91367W        W63693  18.721  24.284  11.013
91368W        W63694  33.548  33.587   4.069
91369W        W63695  29.487  42.675   2.142
91370W        W63696  10.810  18.057   2.832
91371W        W63697  44.495  18.061  13.866
91372W        W63698  42.310  12.103  13.017
91373W        W63699   8.446  35.156  12.505
91374W        W63700  28.638   5.381  13.432
91375W        W63701  39.415  22.432  13.421
91376W        W63702  42.809   9.204  12.454
91377W        W63703  23.537  19.086   1.256
91378W        W63704  33.277   0.987   1.428
91379W        W63705   0.871  11.791  11.551
91380W        W63706  27.580  12.139  12.116
91381W        W63707   6.226  16.445  13.609
91382W        W63708   1.190  11.850   4.025
91383W        W63709   4.494  26.047   2.704
91384W        W63710  26.672   4.031   5.119
91385W        W63711  29.532  37.040   4.038
91386W        W63712   9.078  18.906  13.447
91387W        W63713  15.811   4.548   2.430
91388W        W63714  15.656  40.042   3.111
91389W        W63715  19.081  28.628  10.622
91390W        W63716  19.024   9.317  13.116
91391W        W63717  44.744  12.750   1.132
91392W        W63718  30.999  33.985  11.781
91393W        W63719  23.671   4.406   4.713
91394W        W63720  14.274  10.741  11.580
91395W        W63721   4.838  27.038  14.505
91396W        W63722   8.464  27.748   1.172
91397W        W63723  27.378  25.181  13.791
91398W        W63724   6.902  32.186   1.882
91399W        W63725  21.187  17.199   4.151
91400W        W63726   7.851  22.509   4.643
91401W        W63727  39.973  19.476   1.315
91402W        W63728  22.215   0.243   0.319
91403W        W63729  39.414  24.196   3.271
91404W        W63730  34.693   7.743  10.598
91405W        W63731  22.574  38.524  11.601
91406W        W63732   0.043  10.196  11.887
91407W        W63733  35.511   9.795   2.799
91408W        W63734  38.350  39.570  12.580
91409W        W63735  34.416   9.658   4.669
91410W        W63736  33.451  43.729   3.220
91411W        W63737   8.208  33.508   2.303
91412W        W63738  21.748  43.491   1.417
91413W        W63739  40.796   3.335   1.765
91414W        W63740  30.085  11.329  13.556
91415W        W63741   5.888   9.240  12.927
91416W        W63742  34.344   1.416  10.698
91417W        W63743  30.195  19.341  13.398
91418W        W63744  22.165  19.183  14.801
91419W        W63745   2.391  27.188   4.547
91420W        W63746   2.257  33.082  11.304
91421W        W63747  27.136  14.371   0.666
91422W        W63748  19.677  35.618  10.559
91423W        W63749   6.784  31.867   0.496
91424W        W63750  22.632  11.861   4.617
91425W        W63751  29.676  41.922   1.328
91426W        W63752   8.281  22.617   0.444
91427W        W63753  33.363   4.684   3.929
91428W        W63754  21.479  15.663   4.846
91429W        W63755  20.576  25.984   1.275
91430W        W63756   3.224  10.699   3.082
91431W        W63757   8.880   4.610  10.659
91432W        W63758   8.202  32.079   2.883
91433W        W63759  34.973  28.089  12.046
91434W        W63760  15.941  12.425   0.290
91435W        W63761   8.790  26.084  11.077
91436W        W63762  34.512  25.318   4.562
91437W        W63763   7.594  32.613  10.764
91438W        W63764  29.242   8.763   2.209
91439W        W63765  18.600   6.826  13.841
91440W        W63766  13.413  31.069  12.067
91441W        W63767  14.723   9.169   2.464
91442W        W63768  35.550  38.802  11.513
91443W        W63769  24.587  10.142   2.398
91444W        W63770  26.565  14.254  11.164
91445W        W63771  17.028  17.204  14.812
91446W        W63772  14.375  24.462   0.239
91447W        W63773   8.131  43.311  11.995
91448W        W63774  28.132  39.758  13.913
91449W        W63775   7.463  38.822   2.889
91450W        W63776  31.814  25.051  13.287
91451W        W63777  41.923  43.533   0.834
91452W        W63778  14.149  39.418   4.075
91453W        W63779  19.653   2.995   5.160
91454W        W63780   5.295  14.632  12.915
91455W        W63781  22.516  34.812   2.754
91456W        W63782  24.565   9.699   4.638
91457W        W63783  37.994  32.030   2.631
91458W        W63784  16.240  10.848  13.390
91459W        W63785  18.291  37.440   0.685
91460W        W63786  20.680  39.317   1.333
91461W        W63787  19.175  13.588   3.506
91462W        W63788  21.635  21.719   3.803
91463W        W63789   4.265  17.789   3.908
91464W        W63790  31.047   1.953   4.897
91465W        W63791  21.857  24.391  13.837
91466W        W63792  17.640  24.669  12.961
91467W        W63793  25.069  43.081  12.137
91468W        W63794   4.827   4.405   2.304
91469W        W63795  11.705  41.605  10.956
91470W        W63796  24.786  15.046   1.160
91471W        W63797  23.973  18.579   2.280
91472W        W63798  11.306  36.911   3.362
91473W        W63799  29.065  25.896   0.906
91474W        W63800   7.903   8.768  10.305
91475W        W63801  10.247   7.290   4.025
91476W        W63802  22.960  12.896  10.802
91477W        W63803  16.687  40.327   1.394
91478W        W63804  26.234  13.285  14.109
91479W        W63805  16.643  23.942  14.473
91480W        W63806  19.961   4.858  11.102
91481W        W63807   5.807  23.749  13.904
91482W        W63808  34.031   2.041   4.075
91483W        W63809  13.915  34.439   2.709
91484W        W63810  10.416   1.706  12.564
91485W        W63811  15.316  19.045  12.640
91486W        W63812   7.292  22.944  13.817
91487W        W63813  16.801  10.436   3.856
91488W        W63814  38.511   4.364  11.871
91489W        W63815  20.925  26.151  12.777
91490W        W63816  29.166   6.612   2.366
91491W        W63817   7.855  29.645  11.470
91492W        W63818  44.737   4.291   2.284
91493W        W63819  34.506   7.835  12.425
91494W        W63820   9.722  43.573  12.483
91495W        W63821  22.069   5.817  11.969
91496W        W63822   9.668  25.214   4.048
91497W        W63823   3.369  41.805   0.120
91498W        W63824  15.534  12.165   0.501
91499W        W63825   6.321  27.401   3.319
91500W        W63826  17.120  42.401   2.398
91501W        W63827  17.744  36.425  12.797
91502W        W63828  16.279   1.582   3.759
91503W        W63829  38.492  32.809   0.016
91504W        W63830  23.564  25.271   0.918
91505W        W63831  11.851  11.261  13.995
91506W        W63832  29.695  10.947  10.630
91507W        W63833  41.821   6.349   0.821
91508W        W63834  29.456  33.960   1.448
91509W        W63835  29.005   6.463   4.751
91510W        W63836   1.919  29.702  10.541
91511W        W63837  35.324  35.437  14.826
91512W        W63838  28.201  17.284   1.792
91513W        W63839  27.694  42.581  13.383
91514W        W63840  19.950   7.175   2.354
91515W        W63841  19.584  11.661   2.717
91516W        W63842  30.412  10.717   4.872
91517W        W63843   7.250  33.576   2.460
91518W        W63844  12.247   3.844   2.857
91519W        W63845  10.538  22.273  13.539
91520W        W63846  29.226   6.171  11.025
91521W        W63847  13.541  10.157   0.927
91522W        W63848  34.561  40.250   0.227
91523W        W63849  37.536  35.667  12.471
91524W        W63850  37.698  41.100   1.822
91525W        W63851  16.086  39.000   1.314
91526W        W63852  36.668  31.018  14.689
91527W        W63853  12.674   7.279   3.366
91528W        W63854  27.208  28.394   1.484
91529W        W63855  44.868  16.315   4.341
91530W        W63856   4.691  23.636  14.870
91531W        W63857   4.034  23.157   2.673
91532W        W63858  42.617  29.033  14.580
91533W        W63859  41.387  20.546   0.969
91534W        W63860  34.992  40.647   0.977
91535W        W63861  12.625  37.787   3.677
91536W        W63862  32.393  23.617  12.733
91537W        W63863  17.072   6.655   0.698
91538W        W63864  11.998   5.579   4.159
91539W        W63865  17.091  21.267  11.174
91540W        W63866  11.686   7.737   3.471
91541W        W63867  12.594  41.374   2.962
91542W        W63868   0.045  12.055   3.239
91543W        W63869  39.280  43.994  13.730
91544W        W63870  28.872   3.392   3.290
91545W        W63871  19.621  22.587  12.120
91546W        W63872  17.130  40.039  12.850
91547W        W63873   4.740  33.955   1.655
91548W        W63874  17.209  18.594  13.836
91549W        W63875  11.386   7.951   2.355
91550W        W63876   3.472   5.592  10.940
91551W        W63877  25.455  15.655   1.598
91552W        W63878  28.034  29.706  10.558
91553W        W63879  24.560   6.595   4.271
91554W        W63880  23.139  16.746   2.273
91555W        W63881   6.898  23.801   0.795
91556W        W63882  28.171  20.541   3.887
91557W        W63883   4.628  32.571  11.203
91558W        W63884  34.650  18.528  13.335
91559W        W63885   4.670  12.296   5.013
91560W        W63886  20.144  33.332   2.391
91561W        W63887   8.416  30.664   0.383
91562W        W63888  18.182  16.221   2.821
91563W        W63889  11.193  30.749  14.035
91564W        W63890  43.893   3.966   4.891
91565W        W63891  16.438  41.774   3.091
91566W        W63892  36.826  43.847  11.957
91567W        W63893   2.291  30.108  10.608
91568W        W63894  30.509   4.843  11.167
91569W        W63895   0.837  19.998   4.378
91570W        W63896  40.929  13.273  14.479
91571W        W63897  10.062  12.741   1.943
91572W        W63898  37.486  43.373  14.904
91573W        W63899  39.383   1.032   0.418
91574W        W63900  26.342  25.994   4.971
91575W        W63901  20.013  17.032   0.399
91576W        W63902   5.500  23.626   0.700
91577W        W63903  15.184  27.032   3.084
91578W        W63904  41.866  14.591   3.800
91579W        W63905  14.186  27.180  12.460
91580W        W63906  41.023  26.936   2.319
91581W        W63907   0.180  13.650   1.515
91582W        W63908   6.435  23.750   2.716
91583W        W63909  36.796  16.466  12.444
91584W        W63910  20.107   6.871   4.652
91585W        W63911  40.531  27.436  13.321
91586W        W63912  32.930  22.902  13.479
91587W        W63913   3.755   9.276   5.087
91588W        W63914  13.882  42.785   1.877
91589W        W63915  25.572  14.350  14.979
91590W        W63916   2.647  29.947   1.174
91591W        W63917  13.900  15.121  14.887
91592W        W63918   0.298  12.113  14.152
91593W        W63919  35.456  24.209  13.475
91594W        W63920  42.147  36.222  14.321
91595W        W63921  11.208  15.772  13.767
91596W        W63922   0.985  14.854  14.418
91597W        W63923   9.904  36.140  11.066
91598W        W63924  38.781   0.283   1.510
91599W        W63925  14.106  36.617  11.585
91600W        W63926  26.300  11.626   2.775
91601W        W63927  21.548  36.515  12.767
91602W        W63928  16.793  42.082  11.615
91603W        W63929  24.975  11.215  11.350
91604W        W63930  25.236  22.099  13.793
91605W        W63931  10.296  18.378   0.016
91606W        W63932   4.515  38.052   3.131
91607W        W63933  22.748   4.479   4.257
91608W        W63934  20.372  32.654  11.215
91609W        W63935  39.392  38.878  13.080
91610W        W63936   5.648   0.954   1.951
91611W        W63937  39.975  27.775   2.336
91612W        W63938  17.019  19.251   0.039
91613W        W63939  20.175  19.259  11.232
91614W        W63940  18.041  28.963  13.886
91615W        W63941  32.154  15.425   5.141
91616W        W63942  36.759  32.918   3.824
91617W        W63943   6.727  26.207  11.116
91618W        W63944  41.881   8.979  10.688
91619W        W63945   3.218   2.724  14.918
91620W        W63946  33.740  39.041  12.953
91621W        W63947  25.112  31.822   3.770
91622W        W63948   9.699  20.465   3.777
91623W        W63949  33.082  34.920  10.621
91624W        W63950   9.658   0.924  14.057
91625W        W63951  26.630  34.281  10.724
91626W        W63952   9.189  12.227  14.965
91627W        W63953  41.396  20.719  12.917
91628W        W63954  44.916   6.295  14.316
91629W        W63955  36.151  44.401  14.254
91630W        W63956  24.638  35.145   3.675
91631W        W63957  28.727  13.765   0.006
91632W        W63958  33.623  22.220  12.021
91633W        W63959  25.610   5.196  10.997
91634W        W63960  14.081  11.661   0.291
91635W        W63961  32.667  11.828   0.725
91636W        W63962  30.456  20.739  14.937
91637W        W63963  11.596  11.324   3.657
91638W        W63964  26.676  18.290  14.984
91639W        W63965  36.918  11.629  10.699
91640W        W63966  41.367   4.455   0.979
91641W        W63967  41.591   5.780   2.264
91642W        W63968  11.231  14.314  11.601
91643W        W63969  18.517   3.493   4.988
91644W        W63970  17.587  22.491  12.168
91645W        W63971  37.811  23.667  10.685
91646W        W63972   9.136  20.712   1.798
91647W        W63973  43.860  35.153   3.710
91648W        W63974  17.264  38.930  14.665
91649W        W63975  18.446  18.337   9.774
91650W        W63976  21.670  10.299   3.242
91651W        W63977  39.714  15.273   2.771
91652W        W63978  36.113  17.063  11.979
91653W        W63979  15.796  34.404   0.497
91654W        W63980   6.966  12.088   3.651
91655W        W63981   6.664  26.462   3.187
91656W        W63982   4.513   9.899   1.989
91657W        W63983  41.194  17.793   1.372
91658W        W63984  33.526  44.768  13.494
91659W        W63985  31.444   1.548  14.996
91660W        W63986  15.824  33.857   3.160
91661W        W63987  22.756  22.668  11.122
91662W        W63988   2.862  16.658   1.193
91663W        W63989  37.920  18.816   1.441
91664W        W63990  12.248  14.680  12.565
91665W        W63991  25.734   8.283  13.928
91666W        W63992  38.065  27.771  13.369
91667W        W63993  19.814  13.762   2.386
91668W        W63994  20.557  44.305  13.052
91669W        W63995  27.699  25.584  12.531
91670W        W63996  37.324  42.872   0.507
91671W        W63997  34.625  25.006  13.647
91672W        W63998  39.300   9.085  12.629
91673W        W63999   8.405   3.415  10.377
91674W        W64000   2.701  22.014  11.082
91675W        W64001  12.134  32.891   0.803
91676W        W64002  33.211  21.273   3.350
91677W        W64003   3.248  18.931   1.613
91678W        W64004  44.919  42.708  14.760
91679W        W64005   5.096  32.084  11.623
91680W        W64006  42.828  25.996   4.330
91681W        W64007   9.801  36.452   1.892
91682W        W64008  14.954  42.792   4.979
91683W        W64009  17.311  43.425  14.454
91684W        W64010  19.875  15.346  10.980
91685W        W64011  44.328  23.586  12.564
91686W        W64012  20.701  31.145  12.807
91687W        W64013  35.890  30.077  11.961
91688W        W64014  23.228   9.963   1.156
91689W        W64015  16.747  15.879  13.034
91690W        W64016  34.184  41.217  12.063
91691W        W64017  42.448  18.630   4.197
91692W        W64018  13.880  34.045   9.911
91693W        W64019  16.298  36.562  13.376
91694W        W64020  26.652  14.403  13.442
91695W        W64021  38.358  10.101  13.382
91696W        W64022  17.804   0.010  12.506
91697W        W64023  34.519  30.652   2.694
91698W        W64024  14.884  11.660  12.865
91699W        W64025   1.480  30.155   2.426
91700W        W64026  39.531  11.333   2.432
91701W        W64027  39.273  25.520   4.908
91702W        W64028  37.895   9.091   3.221
91703W        W64029  37.576  42.098  14.456
91704W        W64030  35.524  30.246  11.564
91705W        W64031  18.204  12.305   2.315
91706W        W64032  23.043  42.020  11.011
91707W        W64033  10.795   0.877   2.657
91708W        W64034  29.906  41.895   0.193
91709W        W64035  36.596  25.995   0.728
91710W        W64036   5.151  16.181   2.219
91711W        W64037  36.688  15.242   0.332
91712W        W64038  38.140  37.440  12.656
91713W        W64039  17.616  39.154   3.976
91714W        W64040  25.379  34.545   4.107
91715W        W64041  19.454  41.470  12.562
91716W        W64042  21.204   1.407  10.662
91717W        W64043   3.481  19.022   0.223
91718W        W64044  24.626  37.724   4.222
91719W        W64045  22.644  31.162  14.402
91720W        W64046  37.516  22.248   0.818
91721W        W64047   4.771  42.972  14.130
91722W        W64048  22.613  20.635   4.882
91723W        W64049  16.827  12.617   1.792
91724W        W64050   4.050  39.416  10.478
91725W        W64051   0.802  39.476   2.170
91726W        W64052  44.255  40.468  11.056
91727W        W64053  26.915  19.169  14.606
91728W        W64054   6.839  29.903  10.679
91729W        W64055  33.598  27.131   4.292
91730W        W64056   0.416  36.311   4.853
91731W        W64057  22.180   2.789  11.706
91732W        W64058  23.523  12.918  13.532
91733W        W64059  30.933   1.771  12.782
91734W        W64060  41.679  18.396  13.008
91735W        W64061  14.831  12.992   0.691
91736W        W64062   0.855  16.456   1.561
91737W        W64063  42.441  23.813  13.381
91738W        W64064  44.909  13.706  11.463
91739W        W64065  10.058   0.038   3.178
91740W        W64066  14.731  25.234   2.385
91741W        W64067  18.252  34.083  13.403
91742W        W64068  41.480  35.466   3.301
91743W        W64069  42.840   6.131   3.222
91744W        W64070  26.868  23.127   2.363
91745W        W64071   4.110  15.649  10.151
91746W        W64072  37.796   6.221   4.282
91747W        W64073  37.530  22.110   4.752
91748W        W64074  29.555  14.258   3.381
91749W        W64075  18.529  32.661  13.371
91750W        W64076  30.997   0.211   2.272
91751W        W64077  36.514  15.120   3.088
91752W        W64078   8.742  30.888   2.734
91753W        W64079   1.135  44.333  11.280
91754W        W64080  25.619  16.051   0.655
91755W        W64081  23.129  33.928   1.857
91756W        W64082   2.907  30.020  14.008
91757W        W64083  35.521  10.209   1.837
91758W        W64084  10.609  27.397  12.832
91759W        W64085  40.278  32.153   2.434
91760W        W64086  13.800  22.225   0.182
91761W        W64087   5.891   4.365  13.279
91762W        W64088  41.352  33.263   3.860
91763W        W64089  28.414  14.194  13.637
91764W        W64090  32.909  29.103   2.059
91765W        W64091  32.228  26.438   0.933
91766W        W64092  10.370   8.472  12.456
91767W        W64093  26.168  10.913  10.476
91768W        W64094  24.708  29.748  12.587
91769W        W64095  44.850   3.066   1.503
91770W        W64096  32.972  29.348   4.556
91771W        W64097  14.749  17.328  14.272
91772W        W64098  22.101  14.101  14.251
91773W        W64099  44.493  34.610   3.336
91774W        W64100  17.559  31.115  13.349
91775W        W64101  32.192  40.788   4.743
91776W        W64102   4.236  37.657   3.324
91777W        W64103  33.022  33.042   1.966
91778W        W64104  33.866  35.774   3.336
91779W        W64105  25.902  22.684  11.132
91780W        W64106  23.160  12.406  10.810
91781W        W64107   0.867   9.388  12.629
91782W        W64108  21.574  14.730   3.780
91783W        W64109  23.029  23.103   4.051
91784W        W64110  39.533  23.072   4.275
91785W        W64111  32.313   9.159   1.946
91786W        W64112   3.845  38.968   0.925
91787W        W64113  22.635   3.870   3.074
91788W        W64114  18.282  40.952  13.885
91789W        W64115   1.493  33.191  13.486
91790W        W64116  38.247  39.847   2.293
91791W        W64117  34.451  11.269  13.858
91792W        W64118  13.686  17.576   2.417
91793W        W64119   3.977  18.095  13.585
91794W        W64120  16.706  28.836  11.713
91795W        W64121  34.620  33.430  14.892
91796W        W64122   7.693  18.697   1.646
91797W        W64123  36.292  30.651   0.412
91798W        W64124   3.227  27.537   4.000
91799W        W64125   4.204  35.081  11.633
91800W        W64126  24.241  20.278  13.488
91801W        W64127  27.682  24.623   4.614
91802W        W64128   3.266  20.749  12.824
91803W        W64129   0.504  32.331  11.176
91804W        W64130   9.021  26.092  13.775
91805W        W64131   9.595   7.740   4.927
91806W        W64132  26.895   9.427  14.926
91807W        W64133  26.403  25.095   0.758
91808W        W64134  15.257  16.591   3.735
91809W        W64135   5.990   1.830  13.292
91810W        W64136  39.394  19.633   0.283
91811W        W64137  22.314   1.404  12.392
91812W        W64138  42.565  39.920   2.722
91813W        W64139  20.336  19.585  11.839
91814W        W64140  11.687  34.127   1.224
91815W        W64141  37.459  11.185   0.432
91816W        W64142  37.910  14.275  13.468
91817W        W64143  19.692  27.664   4.721
91818W        W64144  19.285  44.452  11.022
91819W        W64145   9.395   9.953  11.529
91820W        W64146   7.026  37.930  13.019
91821W        W64147  18.834  25.990   1.903
91822W        W64148  18.763   1.224  14.212
91823W        W64149  39.055  14.549  12.750
91824W        W64150   8.629  32.446   0.855
91825W        W64151   2.964   7.407   4.093
91826W        W64152  11.282  33.573   2.454
91827W        W64153  36.579  28.439   3.207
91828W        W64154  30.747  39.908  13.008
91829W        W64155  37.000  40.417  11.603
91830W        W64156   3.836  16.918  10.262
91831W        W64157  14.192   5.227  11.514
91832W        W64158  12.884  21.794   2.264
91833W        W64159   5.498  40.500  14.301
91834W        W64160  17.519  19.922  13.341
91835W        W64161  25.994  25.715   4.666
91836W        W64162  18.422  40.068   1.801
91837W        W64163  23.892   1.695  13.854
91838W        W64164  30.939  28.768  12.017
91839W        W64165  33.123   8.575   1.319
91840W        W64166   8.778  42.252   1.862
91841W        W64167  25.528  40.582  12.481
91842W        W64168   8.398   2.106   2.613
91843W        W64169  15.915  22.212   0.754
91844W        W64170  10.559   8.922  13.781
91845W        W64171  12.241  38.543   1.321
91846W        W64172  29.087  24.688  12.024
91847W        W64173  39.299  31.130  11.988
91848W        W64174  28.498  43.391  12.314
91849W        W64175  34.112  32.524   2.782
91850W        W64176  40.070  20.688  11.061
91851W        W64177   3.006  36.606  14.477
91852W        W64178  23.591  10.314   0.904
91853W        W64179  22.927   2.948  14.879
91854W        W64180  40.540  18.798   3.071
91855W        W64181  21.077  34.687  11.133
91856W        W64182  15.292  42.704  13.642
91857W        W64183  14.414  22.484  11.562
91858W        W64184   5.562  19.566   3.605
91859W        W64185  40.346  15.458   2.306
91860W        W64186  11.297  25.183  14.307
91861W        W64187  11.121  14.553   0.797
91862W        W64188  16.087  24.154   1.220
91863W        W64189  33.892   2.507   0.855
91864W        W64190  19.722  28.695  14.578
91865W        W64191  28.908  15.594   3.272
91866W        W64192  23.161  29.518  11.348
91867W        W64193  19.862  25.501   4.698
91868W        W64194  18.542  19.271   3.645
91869W        W64195  19.062  26.423  11.228
91870W        W64196  28.826  32.944  13.354
91871W        W64197  39.057   2.711   3.744
91872W        W64198  13.768  25.793  14.298
91873W        W64199  28.340  35.065  13.872
91874W        W64200   8.915  33.247  13.270
91875W        W64201  20.265   9.575   2.241
91876W        W64202  25.814   1.013   3.694
91877W        W64203  25.501   0.818   3.215
91878W        W64204   6.400  27.988  12.386
91879W        W64205  44.502  44.313   1.076
91880W        W64206  32.378  25.397   4.204
91881W        W64207  22.011  37.858   3.265
91882W        W64208  19.222  20.085  11.444
91883W        W64209  38.657  23.630  12.002
91884W        W64210   0.921  17.659   4.515
91885W        W64211  41.033   6.772  12.897
91886W        W64212  28.378   4.341  10.536
91887W        W64213  21.630  19.101   2.237
91888W        W64214  42.985   6.438  13.013
91889W        W64215  26.417  37.113  10.562
91890W        W64216  24.037   9.220  11.166
91891W        W64217  14.875  26.065   0.258
91892W        W64218  12.343   6.352   3.693
91893W        W64219  29.802  33.277   3.559
91894W        W64220  44.413  34.545  11.081
91895W        W64221  13.808  29.096   0.485
91896W        W64222  31.391   2.426  11.450
91897W        W64223  43.269  11.287  12.168
91898W        W64224  39.345  28.980  12.582
91899W        W64225  35.360  32.495   3.268
91900W        W64226  44.143  19.422  14.753
91901W        W64227  43.731  14.665  13.082
91902W        W64228  32.682   3.847   1.576
91903W        W64229  30.389  33.021   1.825
91904W        W64230  33.356  40.785   0.391
91905W        W64231  26.467  31.490  14.424
91906W        W64232  39.893  33.115   1.290
91907W        W64233  11.379   9.432   2.285
91908W        W64234  16.900  23.274  13.566
91909W        W64235   2.107  27.659  14.168
91910W        W64236  12.685  27.361   5.050
91911W        W64237  38.462  25.137   0.432
91912W        W64238   6.833  18.621  14.556
91913W        W64239   0.648  24.647  12.009
91914W        W64240   8.166   6.005   0.813
91915W        W64241   5.438  17.747  13.936
91916W        W64242   4.604  28.559   3.678
91917W        W64243  37.402  39.849   0.854
91918W        W64244  42.208  34.340  12.919
91919W        W64245  40.896  23.305   4.755
91920W        W64246  37.910  37.957   4.557
91921W        W64247  14.838  19.569   4.301
91922W        W64248  27.543  25.107  11.822
91923W        W64249  41.554   5.736   4.035
91924W        W64250  28.445  30.834  11.002
91925W        W64251  10.570  25.097   3.760
91926W        W64252  25.082  29.375  11.622
91927W        W64253   3.185  35.822  11.853
91928W        W64254   1.821  21.493   4.162
91929W        W64255  32.415  12.749   1.143
91930W        W64256  21.232  24.477  14.953
91931W        W64257  31.107   9.707  14.560
91932W        W64258  29.400  40.111  13.601
91933W        W64259  34.497   7.337   3.318
91934W        W64260  12.507  16.852   3.172
91935W        W64261  28.957  31.035  11.447
91936W        W64262  43.721   8.309   1.535
91937W        W64263  42.893  44.100   2.140
91938W        W64264   6.709   3.006   4.202
91939W        W64265   5.358  14.520  11.475
91940W        W64266  17.267  33.016   0.926
91941W        W64267  34.609  38.712  14.061
91942W        W64268  11.369  42.091   4.241
91943W        W64269  29.927  28.946   0.944
91944W        W64270   7.394  37.457  12.387
91945W        W64271   6.412  37.967   2.730
91946W        W64272  33.448  21.043  13.441
91947W        W64273  37.892  12.361  11.561
91948W        W64274  17.770  35.957  14.093
91949W        W64275  40.506  32.026   2.890
91950W        W64276  23.828  16.030  11.578
91951W        W64277   6.257  20.676   2.808
91952W        W64278  21.301   3.827   0.471
91953W        W64279  25.746   8.733   4.903
91954W        W64280   0.267  39.073  11.410
91955W        W64281  22.179   6.358   0.253
91956W        W64282  42.855  27.067  12.618
91957W        W64283   5.661   0.800  13.116
91958W        W64284  37.317  40.263  13.856
91959W        W64285  32.085  19.103  13.830
91960W        W64286  43.940  27.466   4.542
91961W        W64287  14.336  34.207   0.304
91962W        W64288  11.418  44.410  14.457
91963W        W64289  17.236   3.210  13.828
91964W        W64290  29.678   9.784   3.790
91965W        W64291  29.587   6.247   2.543
91966W        W64292  36.373  44.273   3.749
91967W        W64293   1.476   2.215  14.485
91968W        W64294  14.851  33.577  12.889
91969W        W64295  14.692  24.359   3.135
91970W        W64296  40.775  24.107  14.043
91971W        W64297   6.691  44.826   2.284
91972W        W64298   3.554  17.800   2.289
91973W        W64299  44.032   0.899   2.445
91974W        W64300  20.159  10.602  13.449
91975W        W64301  19.111   1.061   2.955
91976W        W64302   7.161  39.632  12.369
91977W        W64303  34.839  15.890   4.071
91978W        W64304  39.618  13.541  10.689
91979W        W64305  22.732  19.287   3.709
91980W        W64306  23.679  18.573  12.874
91981W        W64307  37.816   4.380   2.759
91982W        W64308   7.094  40.411   3.733
91983W        W64309  16.782  31.074   1.815
91984W        W64310  35.593  42.581   0.608
91985W        W64311  18.019   8.133   1.290
91986W        W64312  23.720  30.162  12.886
91987W        W64313  33.786   3.515   0.872
91988W        W64314  39.330  14.162  14.458
91989W        W64315   9.753  27.890   4.340
91990W        W64316  24.980  37.863  12.997
91991W        W64317  31.397  44.830  10.872
91992W        W64318  43.447  11.785  14.733
91993W        W64319   2.666   2.683   0.013
91994W        W64320   9.756  34.438  13.774
91995W        W64321  31.840  25.733  11.595
91996W        W64322  17.891  34.840  10.957
91997W        W64323  11.835  36.692  13.449
91998W        W64324  23.781   7.819   3.625
91999W        W64325  39.344  12.211   1.228
92000W        W64326  10.819  39.546  14.888
92001W        W64327  41.358  15.635  10.078
92002W        W64328  15.722  16.334  12.098
92003W        W64329  36.914  35.998  14.392
92004W        W64330   9.144  23.813  13.875
92005W        W64331   8.127  16.184  14.975
92006W        W64332  38.097  31.056   2.828
92007W        W64333   6.268  23.100   4.869
92008W        W64334  20.628  43.448  13.089
92009W        W64335  27.230   1.807  13.494
92010W        W64336  34.365  33.827  11.031
92011W        W64337  32.935  43.558   3.804
92012W        W64338  11.807  14.057  13.541
92013W        W64339  24.103  18.343  13.060
92014W        W64340  26.630  28.061  12.568
92015W        W64341   0.553  26.498   0.911
92016W        W64342  18.552  18.180  14.030
92017W        W64343  37.557   7.239  11.175
92018W        W64344  35.365   9.245   3.754
92019W        W64345  20.483  18.533   1.651
92020W        W64346  23.479  43.071  12.903
92021W        W64347  38.587  16.807   2.400
92022W        W64348   9.380  10.746   1.287
92023W        W64349   1.858   7.619   3.519
92024W        W64350  28.028  34.976  13.453
92025W        W64351   1.946  15.775   0.813
92026W        W64352  33.394   9.813  12.146
92027W        W64353  16.933  20.050   1.758
92028W        W64354   1.510  26.107   4.306
92029W        W64355  25.369  13.730  13.581
92030W        W64356  29.594  21.015  12.159
92031W        W64357  40.081  40.761   3.663
92032W        W64358  24.273   3.323   4.105
92033W        W64359   9.286  18.559   3.413
92034W        W64360  39.278  38.072   3.637
92035W        W64361  15.068  21.234  14.267
92036W        W64362  30.461  38.320  13.571
92037W        W64363  18.484   1.638  14.087
92038W        W64364  21.193  42.873   2.409
92039W        W64365  12.550  17.454  14.509
92040W        W64366   5.517   3.607  13.540
92041W        W64367   0.030  11.498   4.249
92042W        W64368   3.658  40.323  11.830
92043W        W64369   3.299   1.355   0.690
92044W        W64370  34.972  13.429  11.177
92045W        W64371  39.792   4.810  14.815
92046W        W64372   7.179  34.710   0.506
92047W        W64373  43.185  43.723   0.239
92048W        W64374  32.920   2.350  11.843
92049W        W64375  10.670   4.274  12.946
92050W        W64376  33.895  35.584   2.396
92051W        W64377  37.573  33.464   4.656
92052W        W64378  28.988   7.477   1.637
92053W        W64379  14.137   0.680  14.386
92054W        W64380  29.477  37.631  14.960
92055W        W64381  18.198  17.315   1.775
92056W        W64382  38.985  39.765  10.831
92057W        W64383  17.322  30.516   3.690
92058W        W64384  15.027  19.498  14.824
92059W        W64385  38.395  31.671   3.915
92060W        W64386   5.374   3.656   0.191
92061W        W64387  17.733  33.792   1.923
92062W        W64388   8.297  17.744  11.638
92063W        W64389   4.781  40.075  12.090
92064W        W64390  16.344   2.956  11.649
92065W        W64391  19.108  18.652   1.671
92066W        W64392  26.197  31.540   0.462
92067W        W64393  38.336  33.629  12.612
92068W        W64394   2.171  32.962  12.314
92069W        W64395  21.275  17.373  14.866
92070W        W64396  41.722  24.202   4.292
92071W        W64397   2.784  30.009  10.747
92072W        W64398  22.674  28.806   2.959
92073W        W64399  26.398  17.688  13.048
92074W        W64400  17.661   7.154   0.174
92075W        W64401  44.473  44.947   0.890
92076W        W64402  22.608  44.493   0.901
92077W        W64403   3.741  38.051  10.545
92078W        W64404  18.266  18.234   1.695
92079W        W64405  40.158  14.673  12.573
92080W        W64406   4.303  38.174   2.699
92081W        W64407  30.633  35.457   3.310
92082W        W64408   5.005   5.266   2.820
92083W        W64409  27.874  25.509   1.372
92084W        W64410  11.662  20.724  11.254
92085W        W64411   6.628  29.620  11.611
92086W        W64412  41.575  34.891   3.265
92087W        W64413  26.714  17.275  14.924
92088W        W64414  29.141  28.934   0.023
92089W        W64415  39.912  33.427   3.189
92090W        W64416  32.024  28.194   4.656
92091W        W64417  13.285   9.663  14.881
92092W        W64418  44.094  22.429  11.630
92093W        W64419  23.904   6.911   4.103
92094W        W64420  24.667   9.280   4.332
92095W        W64421   0.600  10.193   2.682
92096W        W64422   3.465  13.367   1.980
92097W        W64423  43.752   2.772  11.710
92098W        W64424  35.155   7.362  11.226
92099W        W64425   3.979  24.600  14.236
92100W        W64426   4.664  16.176   0.307
92101W        W64427  33.642  22.460   0.434
92102W        W64428   7.890  15.171  12.003
92103W        W64429  26.737  38.503   2.234
92104W        W64430  33.656  18.565  12.411
92105W        W64431  27.642  38.052   4.081
92106W        W64432  42.310  39.490   2.802
92107W        W64433  15.760  14.043  12.542
92108W        W64434   0.744  40.905  14.575
92109W        W64435  36.711   4.776   4.609
92110W        W64436  18.176  12.758   4.020
92111W        W64437  22.572  38.392  13.342
92112W        W64438  20.793  14.188   3.798
92113W        W64439  16.012   1.979  14.468
92114W        W64440  18.471   8.621  14.921
92115W        W64441   2.274  28.028   4.110
92116W        W64442  26.412  36.643   4.159
92117W        W64443  34.594  25.005  14.814
92118W        W64444   3.004  23.557   2.197
92119W        W64445  32.981   9.676   2.505
92120W        W64446  40.798  23.334  12.543
92121W        W64447   8.397   4.744  13.060
92122W        W64448  44.370  31.484  12.060
92123W        W64449   6.953  31.684  14.417
92124W        W64450  32.414   1.338  10.504
92125W        W64451   5.391  10.601  14.013
92126W        W64452  40.153  28.920  13.868
92127W        W64453   8.595  28.432   3.658
92128W        W64454   2.276   5.755  10.633
92129W        W64455  21.953  37.829   5.174
92130W        W64456  18.714  10.860  14.469
92131W        W64457  10.207  41.047  11.569
92132W        W64458  42.228  38.500   2.732
92133W        W64459  27.603  28.634   9.699
92134W        W64460  15.241  22.187  12.011
92135W        W64461  35.018  21.097   1.485
92136W        W64462  30.115  24.369  14.867
92137W        W64463  41.717  41.367  13.871
92138W        W64464   7.910   3.453   4.990
92139W        W64465  33.111  36.278   3.250
92140W        W64466  37.055  36.742  14.862
92141W        W64467   6.900  22.882   0.011
92142W        W64468  44.689  11.680  13.206
92143W        W64469  29.125  38.516  11.742
92144W        W64470  30.021   9.368  12.460
92145W        W64471  37.370  24.304   0.610
92146W        W64472  11.798  41.312   2.876
92147W        W64473  40.949  15.569  14.243
92148W        W64474  24.465  35.993   1.957
92149W        W64475  24.563  37.458   5.233
92150W        W64476   3.242   7.289   2.832
92151W        W64477   7.682  38.350  14.517
92152W        W64478   4.171  30.192  10.736
92153W        W64479  42.772  19.619  10.144
92154W        W64480  42.302   3.677  11.191
92155W        W64481  20.086  40.468   1.815
92156W        W64482  22.592  31.924  11.119
92157W        W64483   7.665  40.540   1.863
92158W        W64484  33.389  43.436  10.666
92159W        W64485  31.242  44.871  11.851
92160W        W64486  29.140  25.718   1.399
92161W        W64487  20.110   7.707  10.684
92162W        W64488  41.856   5.835   0.967
92163W        W64489   9.292  27.427   3.068
92164W        W64490  22.596   9.263  12.623
92165W        W64491  12.068  25.989   4.077
92166W        W64492  40.465  25.046   5.096
92167W        W64493  19.462  19.148  11.593
92168W        W64494  18.611  15.636   2.374
92169W        W64495  27.542  23.169   3.656
92170W        W64496  20.710  21.299  10.750
92171W        W64497  14.642   9.404   0.461
92172W        W64498   3.366  20.392  12.458
92173W        W64499   2.623  35.949   2.285
92174W        W64500  18.764  23.744  11.688
92175W        W64501  41.147  32.446  14.677
92176W        W64502   5.930  31.335  12.531
92177W        W64503  11.592  19.937  12.731
92178W        W64504   1.456   4.408  11.912
92179W        W64505   7.662  32.521  12.975
92180W        W64506  35.415  14.707  14.791
92181W        W64507   9.601  43.996  14.612
92182W        W64508   2.506  22.595  12.647
92183W        W64509  40.011  22.206  11.534
92184W        W64510  29.927  35.883   4.521
92185W        W64511  40.382   5.129   2.701
92186W        W64512  31.848  21.663  11.943
92187W        W64513  36.105  26.569   0.353
92188W        W64514  18.018   1.186   3.521
92189W        W64515  39.286   0.698  11.149
92190W        W64516   0.944  34.187   3.299
92191W        W64517  14.195  17.082  14.863
92192W        W64518  43.758  42.636   2.073
92193W        W64519  29.637  42.216  14.807
92194W        W64520  40.766  32.335  11.038
92195W        W64521  27.758  13.094   0.825
92196W        W64522  30.807  22.218  11.511
92197W        W64523  40.706  18.559  12.108
92198W        W64524   3.716  18.527   5.046
92199W        W64525   2.783  21.579  14.254
92200W        W64526  28.039  25.152   3.527
92201W        W64527  34.864  34.932   4.602
92202W        W64528  30.610  25.647  12.610
92203W        W64529  41.430  30.061   0.263
92204W        W64530   4.226  38.308  11.134
92205W        W64531  25.160  18.146   4.214
92206W        W64532  36.733  24.243   1.295
92207W        W64533   5.852   9.236  10.834
92208W        W64534  36.157  13.913  12.067
92209W        W64535  40.478   0.014  14.493
92210W        W64536   0.776  11.897   0.403
92211W        W64537  14.265  25.478  11.730
92212W        W64538   8.475  10.166   2.773
92213W        W64539  39.973  32.491   3.331
92214W        W64540  39.923  31.111   1.182
92215W        W64541   3.366  14.553   0.975
92216W        W64542   9.240   3.254  13.571
92217W        W64543  22.715  26.722   4.126
92218W        W64544   5.215  42.535  12.921
92219W        W64545  11.539  30.626   1.683
92220W        W64546  41.768   7.440   2.728
92221W        W64547  37.142  18.537  11.194
92222W        W64548   2.918  43.452   1.631
92223W        W64549  34.827   7.665  12.794
92224W        W64550  43.535  42.328  13.461
92225W        W64551  25.737   6.249   4.959
92226W        W64552   6.544   9.283   4.383
92227W        W64553  39.442  24.213   4.506
92228W        W64554  16.358   4.759  12.084
92229W        W64555   4.735  31.888   2.391
92230W        W64556   4.221  43.790  11.586
92231W        W64557  36.923  16.747  13.065
92232W        W64558  15.787  33.365  12.291
92233W        W64559  31.489  38.950   1.648
92234W        W64560  14.865  15.528   4.506
92235W        W64561  20.637   6.934   1.815
92236W        W64562  40.840  42.108  13.338
92237W        W64563  33.026  30.699  11.209
92238W        W64564  41.815   0.752  11.157
92239W        W64565   9.114  17.318   3.322
92240W        W64566  29.435   2.727  13.723
92241W        W64567  25.557   5.884  12.443
92242W        W64568  17.701   2.993  13.915
92243W        W64569  32.579  13.723  10.718
92244W        W64570  43.550  16.762   3.797
92245W        W64571   4.305  39.267   0.920
92246W        W64572  38.465   8.628  12.496
92247W        W64573  22.376   2.164   0.342
92248W        W64574  30.657   1.090  12.785
92249W        W64575  39.662  25.240   4.508
92250W        W64576  33.180  29.641   1.884
92251W        W64577   8.719  34.119  10.436
92252W        W64578  27.519  12.319  11.578
92253W        W64579  42.507  11.601   0.480
92254W        W64580  18.325  36.698  12.197
92255W        W64581  44.645   8.283   1.057
92256W        W64582  15.702   6.292  12.388
92257W        W64583  12.145   3.414  10.363
92258W        W64584  25.580  15.950   5.064
92259W        W64585  12.043   4.331   2.437
92260W        W64586  30.436  18.681   0.003
92261W        W64587  27.085  27.457  14.940
92262W        W64588  42.533   4.515  14.533
92263W        W64589  24.695   4.742  11.861
92264W        W64590  26.781   6.775   1.975
92265W        W64591   9.194  10.236  13.482
92266W        W64592  19.066   7.724  14.778
92267W        W64593   7.453  33.495  14.777
92268W        W64594   1.902  26.913   2.132
92269W        W64595  23.519   4.856   2.909
92270W        W64596  20.675  28.554   3.242
92271W        W64597   0.826  28.633   4.119
92272W        W64598  21.259  18.771  12.567
92273W        W64599   5.940  25.261   0.290
92274W        W64600  15.042  29.427  12.881
92275W        W64601  15.783  18.746  11.157
92276W        W64602  26.442  12.939   0.311
92277W        W64603  31.437   8.767  12.568
92278W        W64604  10.823  37.762  14.934
92279W        W64605  19.905  30.814  10.802
92280W        W64606   2.896  31.534   3.616
92281W        W64607  10.134  12.512  14.865
92282W        W64608   7.230  14.828  14.033
92283W        W64609  43.729  22.633  14.465
92284W        W64610  21.778  27.088   4.232
92285W        W64611  24.453  29.505   0.193
92286W        W64612  23.716  38.416   1.991
92287W        W64613   5.840  21.076   2.701
92288W        W64614  33.044  34.253   9.822
92289W        W64615  11.812   3.834   9.997
92290W        W64616   8.174  20.541   0.315
92291W        W64617  20.034  42.903   2.852
92292W        W64618  34.956   2.924   2.314
92293W        W64619   6.633  13.562   2.307
92294W        W64620  43.561  26.558  10.601
92295W        W64621   8.191   8.613   1.852
92296W        W64622  13.796  42.016   4.416
92297W        W64623  30.011  20.121   3.042
92298W        W64624  38.577  33.595   1.319
92299W        W64625  10.248  40.954  11.057
92300W        W64626  25.357   7.589  12.798
92301W        W64627  15.643  43.457  11.026
92302W        W64628  30.681  14.210   4.591
92303W        W64629  16.289   5.951  13.783
92304W        W64630  33.624  34.704  10.158
92305W        W64631  34.874  20.285  11.573
92306W        W64632  41.308  10.523   0.418
92307W        W64633  33.833   7.669   4.543
92308W        W64634  27.485  28.894   1.728
92309W        W64635  43.873   9.857   3.057
92310W        W64636  44.898   6.911   1.755
92311W        W64637  11.222   9.913  11.942
92312W        W64638  14.142   9.259  10.635
92313W        W64639  12.193  35.062  12.096
92314W        W64640  29.597  26.931   4.230
92315W        W64641  27.091   8.402   4.601
92316W        W64642  12.626  12.592  12.926
92317W        W64643  18.608  19.696   0.280
92318W        W64644  20.960  11.767   0.550
92319W        W64645  20.986  10.880   0.465
92320W        W64646  38.637  20.166   1.160
92321W        W64647  13.302  10.652   0.883
92322W        W64648  31.877   8.810  11.717
92323W        W64649   6.131  16.083  11.753
92324W        W64650  40.850   4.912   2.510
92325W        W64651  39.824  29.398   0.883
92326W        W64652  34.512  21.635   3.523
92327W        W64653   9.287   6.344  11.670
92328W        W64654  40.436  44.251   4.182
92329W        W64655  25.711  37.083   4.549
92330W        W64656   3.399  10.880   1.285
92331W        W64657  40.979  17.720   1.872
92332W        W64658   2.758  35.541  11.974
92333W        W64659   1.991  20.547  11.054
92334W        W64660  32.581  36.626  13.801
92335W        W64661   4.805  18.550   3.631
92336W        W64662  34.532  39.360  12.866
92337W        W64663  19.783  12.114   4.735
92338W        W64664   8.198  18.780  13.986
92339W        W64665  22.561  27.018   3.197
92340W        W64666   2.276   6.663   1.192
92341W        W64667  33.473  44.057  13.823
92342W        W64668  31.178   0.830   4.442
92343W        W64669  25.053   5.913   3.911
92344W        W64670  39.085  24.071  10.776
92345W        W64671  38.956  32.950   4.446
92346W        W64672  24.988  15.112   2.147
92347W        W64673  38.470  29.581   4.607
92348W        W64674   1.275  23.570  11.605
92349W        W64675   6.966  15.151  12.491
92350W        W64676  38.951  24.975  13.041
92351W        W64677  27.160  24.479  10.675
92352W        W64678  21.348  36.065  13.516
92353W        W64679  24.770  27.114   3.219
92354W        W64680  35.317  12.105   2.534
92355W        W64681  19.021  31.024  12.900
92356W        W64682  39.375  19.184  12.343
92357W        W64683   5.821   7.167   4.701
92358W        W64684  36.836   7.095   2.222
92359W        W64685  22.686  16.821   0.274
92360W        W64686  28.870  12.855  12.926
92361W        W64687   5.616  15.368  11.444
92362W        W64688  16.320  10.159  13.026
92363W        W64689  19.614   1.442   4.971
92364W        W64690  44.545  18.236  14.349
92365W        W64691   0.364  35.584   2.352
92366W        W64692   5.897  37.243  13.167
92367W        W64693  21.704  33.685  14.047
92368W        W64694  31.924  26.988  12.906
92369W        W64695  40.841  10.297   0.477
92370W        W64696  24.828  16.650  14.768
92371W        W64697  21.807  15.254   0.932
92372W        W64698  33.844  40.430  12.993
92373W        W64699  27.685  40.685   4.056
92374W        W64700  28.408  25.126  12.360
92375W        W64701  12.341  33.442  13.359
92376W        W64702   3.112  22.031  11.893
92377W        W64703  39.504  39.954  12.008
92378W        W64704  29.369  23.758  10.866
92379W        W64705  42.455  17.208   1.628
92380W        W64706  29.161  26.481  11.803
92381W        W64707  17.880   0.850   2.666
92382W        W64708  29.361  13.246  14.850
92383W        W64709   3.996   0.016  11.140
92384W        W64710  34.193  24.986  12.829
92385W        W64711  18.223  42.525   1.727
92386W        W64712  41.938  32.018   2.127
92387W        W64713  11.837  23.205  10.274
92388W        W64714  41.120  42.852  13.844
92389W        W64715  24.404   5.537   1.757
92390W        W64716  23.666   4.936  13.263
92391W        W64717  35.745  31.518  11.575
92392W        W64718  43.283  26.935  12.904
92393W        W64719  44.989  26.275  13.325
92394W        W64720  24.737  25.172   3.376
92395W        W64721  13.347   6.653  13.377
92396W        W64722   0.251  27.661   3.319
92397W        W64723  12.895  16.197  14.451
92398W        W64724  19.794  35.587   4.650
92399W        W64725  16.342  24.588   2.844
92400W        W64726  18.323  36.870  11.733
92401W        W64727   6.279  10.094   3.162
92402W        W64728  38.390  12.648  10.335
92403W        W64729  23.634  26.732  13.389
92404W        W64730  11.322   1.888   3.288
92405W        W64731   6.636  43.987  11.204
92406W        W64732   5.637   7.799  11.109
92407W        W64733  36.647   6.243   0.714
92408W        W64734  34.246  38.996   4.148
92409W        W64735  17.636  42.546  10.461
92410W        W64736  17.678  34.890  11.764
92411W        W64737  30.841  27.922   2.898
92412W        W64738  23.689   1.303   1.324
92413W        W64739  34.376  35.634   0.788
92414W        W64740   6.746  44.295  11.991
92415W        W64741  43.829  12.133   3.537
92416W        W64742  42.699   1.961  14.417
92417W        W64743  22.802  16.263  10.663
92418W        W64744  31.591  32.896   3.315
92419W        W64745   3.388  16.308   4.711
92420W        W64746  37.457   5.865  12.470
92421W        W64747  20.572  20.088  11.402
92422W        W64748  31.469  35.848  10.952
92423W        W64749  29.406  37.245   0.323
92424W        W64750  39.836   0.230  12.339
92425W        W64751  41.509   6.435   4.536
92426W        W64752  20.135  20.077   0.561
92427W        W64753  17.675  24.563  14.486
92428W        W64754  32.675  22.053   5.060
92429W        W64755   8.665  42.946  13.061
92430W        W64756  25.683  36.383  13.472
92431W        W64757   7.479  25.461  11.146
92432W        W64758   9.771  16.774   3.576
92433W        W64759  10.709  33.109  11.122
92434W        W64760  14.774   0.051  11.519
92435W        W64761   7.312   5.394  14.703
92436W        W64762  22.878  24.725  11.642
92437W        W64763   5.319  10.853   1.455
92438W        W64764  15.187  28.802   4.005
92439W        W64765   0.226  30.318   4.580
92440W        W64766  14.390   3.855   1.421
92441W        W64767   4.497   8.426  11.132
92442W        W64768  21.502  30.608  12.106
92443W        W64769  27.697  16.651  10.926
92444W        W64770   7.870  27.593   4.565
92445W        W64771  44.992  13.128  12.440
92446W        W64772  13.242  30.852   2.791
92447W        W64773  17.621  15.993  12.065
92448W        W64774   3.201  36.711   0.284
92449W        W64775   0.049  31.444   3.831
92450W        W64776   7.443   2.830   0.272
92451W        W64777  43.944  39.977  11.616
92452W        W64778  38.357  41.351   0.245
92453W        W64779  41.824  38.925   2.782
92454W        W64780   2.462   1.772   1.667
92455W        W64781  33.711   8.777   4.150
92456W        W64782  26.393  11.335  14.869
92457W        W64783  18.551  17.374   2.153
92458W        W64784  30.278  17.788   0.830
92459W        W64785  22.252  16.904   4.673
92460W        W64786   4.933  10.286   2.037
92461W        W64787  20.760  35.987  10.991
92462W        W64788  24.192  26.873  14.730
92463W        W64789  23.423  34.630  14.343
92464W        W64790  12.787  39.452  11.914
92465W        W64791  13.700  33.584  14.246
92466W        W64792   4.816  39.462   1.758
92467W        W64793  40.864  29.632  10.790
92468W        W64794  34.860  10.721  11.056
92469W        W64795  28.987  28.122   4.510
92470W        W64796   7.467  10.192  12.880
92471W        W64797  29.711  38.011   2.676
92472W        W64798  16.114  42.685  13.210
92473W        W64799  40.437  12.313   5.016
92474W        W64800  42.917  16.013  10.968
92475W        W64801  34.144  22.964   3.103
92476W        W64802  39.611  35.722   3.404
92477W        W64803  24.824   0.988  14.252
92478W        W64804  20.898  29.141   1.109
92479W        W64805  22.112  39.205   3.717
92480W        W64806   9.164   0.830  10.472
92481W        W64807   0.697  18.698   4.892
92482W        W64808  13.888   7.737  11.022
92483W        W64809  16.517  26.369   1.336
92484W        W64810  40.129  24.658  14.837
92485W        W64811   4.315  15.084  11.478
92486W        W64812  35.012  16.441   4.087
92487W        W64813   6.360  24.619   1.745
92488W        W64814  23.005  21.371   1.381
92489W        W64815  10.706   4.366   0.203
92490W        W64816  17.755  25.332   1.712
92491W        W64817  13.781  42.343   1.635
92492W        W64818  13.148  29.568   1.384
92493W        W64819   6.354  13.382  10.853
92494W        W64820  43.825  40.858  14.037
92495W        W64821   3.983  30.671  10.645
92496W        W64822  40.121  44.980   0.653
92497W        W64823  17.623  39.887  14.776
92498W        W64824   6.858  41.836   0.829
92499W        W64825  11.836  14.671  14.267
92500W        W64826  44.416   3.953  11.345
92501W        W64827  34.357  23.438   3.083
92502W        W64828  29.522  12.464  14.805
92503W        W64829  38.276  26.942  13.826
92504W        W64830  34.806   5.402   3.831
92505W        W64831  41.384  39.476   3.852
92506W        W64832  23.988   5.299  11.736
92507W        W64833  21.689  43.822   4.168
92508W        W64834  38.006  34.156   2.699
92509W        W64835   4.218  27.552  13.546
92510W        W64836  27.061  16.978  13.048
92511W        W64837  24.685  14.263   4.479
92512W        W64838   7.205  10.747   1.677
92513W        W64839  27.022   2.978   1.567
92514W        W64840  22.536   5.473   1.748
92515W        W64841  32.655  33.570  10.930
92516W        W64842  26.321  43.280   1.924
92517W        W64843  37.542  36.344  10.794
92518W        W64844  28.080   1.850   3.745
92519W        W64845  21.536  25.398  14.847
92520W        W64846  38.019   0.500   2.186
92521W        W64847  35.595  15.830  13.259
92522W        W64848   1.860  10.064   4.694
92523W        W64849  17.940   1.834   3.207
92524W        W64850  33.146  28.823  11.450
92525W        W64851  39.415  10.785   4.563
92526W        W64852   2.421  43.151  12.939
92527W        W64853   2.816   2.004   3.274
92528W        W64854   4.794   8.553   0.236
92529W        W64855  19.009   2.037   3.311
92530W        W64856  41.474  10.325   4.583
92531W        W64857  15.587  30.103  10.325
92532W        W64858   0.968  31.160   2.240
92533W        W64859  33.960  17.624   1.345
92534W        W64860  31.499  24.492   4.540
92535W        W64861  15.036   2.052   1.294
92536W        W64862  21.085  32.972   4.315
92537W        W64863  38.044   2.651  14.674
92538W        W64864   8.780   8.599  11.690
92539W        W64865  16.002  40.991   4.121
92540W        W64866   9.946  34.610  14.999
92541W        W64867   2.708  43.517  12.336
92542W        W64868  40.328   4.574  13.838
92543W        W64869   6.505   0.687   0.759
92544W        W64870  12.055   3.493   4.127
92545W        W64871  41.946   9.350  14.740
92546W        W64872  25.486  14.910   9.980
92547W        W64873   7.415  42.571  13.871
92548W        W64874  31.899  18.593  13.831
92549W        W64875  37.416   8.161   1.224
92550W        W64876  39.661  22.168  12.965
92551W        W64877  20.479  39.250  11.109
92552W        W64878   2.451   2.953  11.882
92553W        W64879  34.301  17.826   2.317
92554W        W64880  41.544  30.151  11.212
92555W        W64881   9.830  41.370   0.047
92556W        W64882  36.091  26.560  11.065
92557W        W64883  28.805  41.557   0.363
92558W        W64884   7.669   6.200  14.538
92559W        W64885  10.214  13.038  14.874
92560W        W64886  23.115  32.520   1.030
92561W        W64887   7.075  35.066  13.581
92562W        W64888  12.537  17.311   3.823
92563W        W64889   4.435   3.217   5.007
92564W        W64890  39.273   7.724  10.889
92565W        W64891  26.315  13.149  14.812
92566W        W64892   6.652  32.026   2.389
92567W        W64893  10.879  20.281  11.160
92568W        W64894  22.674  41.337  12.508
92569W        W64895  11.606  22.745  14.515
92570W        W64896   0.145  34.389   3.733
92571W        W64897  28.965   1.205   4.708
92572W        W64898  16.776  24.060  13.152
92573W        W64899  18.740  38.497  14.765
92574W        W64900  41.512  32.066  11.846
92575W        W64901   1.730  25.176  10.502
92576W        W64902  33.014  24.123  10.674
92577W        W64903  15.946  34.903  12.463
92578W        W64904  38.342  18.260   0.345
92579W        W64905  17.741  42.303  13.954
92580W        W64906  10.939  21.031  12.158
92581W        W64907  28.510  36.805  12.408
92582W        W64908  42.009  29.944  12.101
92583W        W64909  40.104  40.801   0.972
92584W        W64910   4.666  16.941   4.100
92585W        W64911  31.950   4.449  11.696
92586W        W64912  43.305  19.721   0.929
92587W        W64913  31.559  10.202  13.815
92588W        W64914  36.526   7.335  13.726
92589W        W64915  39.501  11.713   1.397
92590W        W64916   9.650  14.586   5.025
92591W        W64917  31.807  37.054   0.436
92592W        W64918  17.897  17.279  12.670
92593W        W64919  13.265  35.855  11.725
92594W        W64920  25.572  33.150   0.955
92595W        W64921  23.277  33.329  14.503
92596W        W64922  12.837  41.319  13.407
92597W        W64923  33.680  20.746  13.076
92598W        W64924   6.843  27.186  11.413
92599W        W64925   4.953  27.152   4.530
92600W        W64926  31.994   9.897  14.002
92601W        W64927  13.827  17.386   1.180
92602W        W64928  21.003  41.037   4.725
92603W        W64929  31.462  10.366   0.744
92604W        W64930  44.770  21.943   1.042
92605W        W64931  18.137  40.136  10.628
92606W        W64932  29.618   9.715   1.342
92607W        W64933  13.403  35.475  11.375
92608W        W64934  19.102  25.446  12.545
92609W        W64935  22.206  29.362   3.782
92610W        W64936  40.451  11.289   2.910
92611W        W64937  39.517  26.190   0.327
92612W        W64938  34.767  12.263   4.100
92613W        W64939  35.961  36.729  12.082
92614W        W64940  38.552  39.577  14.359
92615W        W64941  38.356  14.616   3.850
92616W        W64942   6.262  13.135   0.793
92617W        W64943  28.384  33.005   3.261
92618W        W64944  19.783  40.131   1.402
92619W        W64945  40.315  14.334  13.881
92620W        W64946  27.116  41.519  11.634
92621W        W64947  39.392  29.373   4.178
92622W        W64948  15.641   4.896   2.763
92623W        W64949  29.945  19.560   2.244
92624W        W64950  28.981  12.732  10.444
92625W        W64951  22.250  16.360   5.476
92626W        W64952  34.852  43.529  14.877
92627W        W64953   5.716   0.106   3.256
92628W        W64954  44.851  22.733  12.586
92629W        W64955  37.516  14.844  14.581
92630W        W64956  39.937  18.404  14.005
92631W        W64957  14.681   6.367  13.533
92632W        W64958   4.721   5.233   2.237
92633W        W64959  13.680  28.242   2.755
92634W        W64960   1.444  27.006   3.845
92635W        W64961  15.107  37.986  12.120
92636W        W64962  30.550  28.708   0.943
92637W        W64963  15.211  39.805   3.167
92638W        W64964  41.773   5.305  10.987
92639W        W64965   5.689  22.241   2.920
92640W        W64966  32.569  21.260  12.507
92641W        W64967  17.768  14.666   2.033
92642W        W64968  42.355  34.551   2.897
92643W        W64969   3.663  23.048  13.990
92644W        W64970   4.412  31.158  13.954
92645W        W64971  29.161   9.841  12.170
92646W        W64972   2.279   2.898  10.945
92647W        W64973  16.656  20.716   1.858
92648W        W64974  33.399   8.194  13.563
92649W        W64975   9.874  22.033   4.302
92650W        W64976  42.583  13.043   0.327
92651W        W64977  39.829  32.150  10.864
92652W        W64978   9.224   4.232   2.856
92653W        W64979  12.747  20.034   3.790
92654W        W64980   4.359   0.356   3.149
92655W        W64981  29.510  10.189   1.213
92656W        W64982  11.736  11.709   2.223
92657W        W64983   8.765  30.375   2.748
92658W        W64984   7.263  22.860  12.923
92659W        W64985   9.196  42.318  10.875
92660W        W64986  17.582  36.902   3.685
92661W        W64987  11.533  27.553   1.934
92662W        W64988  30.721  31.416   3.395
92663W        W64989  31.967  39.068   1.419
92664W        W64990  37.123  34.536   0.253
92665W        W64991   4.515  22.774  10.617
92666W        W64992  34.531  27.348  11.222
92667W        W64993  33.120  27.542   1.915
92668W        W64994  34.506  42.464   4.100
92669W        W64995  37.925   3.434  10.677
92670W        W64996  37.393  17.748   3.176
92671W        W64997  14.382  26.789  11.646
92672W        W64998  29.569  30.781   3.253
92673W        W64999  20.669  22.277  12.950
92674W        W65000  39.998  10.338  12.046
92675W        W65001  30.860  16.489  13.497
92676W        W65002   6.320  33.580   4.919
92677W        W65003  41.546  14.676  14.477
92678W        W65004  41.734  39.403  14.384
92679W        W65005   1.466  39.716   4.231
92680W        W65006   7.337  39.281   2.081
92681W        W65007  35.877  17.327  12.432
92682W        W65008  30.674  20.261  13.976
92683W        W65009  16.300  43.911  12.870
92684W        W65010  28.313  19.815   2.847
92685W        W65011  17.690  17.259  14.243
92686W        W65012   9.462   3.169   3.593
92687W        W65013  36.934   8.002  10.555
92688W        W65014  33.150  43.971  11.544
92689W        W65015   0.293   5.623  12.820
92690W        W65016  12.758  34.059  13.912
92691W        W65017  36.381  25.202  13.303
92692W        W65018  22.693  17.599  12.563
92693W        W65019   1.955  12.169  11.081
92694W        W65020  19.654  19.097  13.855
92695W        W65021  24.235  19.765  11.509
92696W        W65022  38.554  39.035   1.019
92697W        W65023  18.516   0.220   4.753
92698W        W65024  26.040   7.817   1.753
92699W        W65025   3.774  14.571   3.783
92700W        W65026  24.036  10.650   4.089
92701W        W65027   1.750   8.202   1.215
92702W        W65028  22.736  43.314  11.887
92703W        W65029  44.511  21.675   3.213
92704W        W65030  20.100   6.381   4.880
92705W        W65031  29.063  10.832  11.160
92706W        W65032  14.811  28.396  12.029
92707W        W65033  42.826  23.056  11.735
92708W        W65034  33.963  16.794   3.640
92709W        W65035  27.816  38.870  10.284
92710W        W65036  30.946  41.930  10.859
92711W        W65037  34.081  26.137   1.403
92712W        W65038  37.790   8.667   1.930
92713W        W65039  40.158  19.552   5.017
92714W        W65040  38.906  28.844   4.503
92715W        W65041  13.941  18.505  10.191
92716W        W65042   9.491   5.532   0.296
92717W        W65043  13.709   3.299   3.599
92718W        W65044  30.942  43.045   2.252
92719W        W65045   6.919  11.136   1.844
92720W        W65046  24.174  29.284   3.631
92721W        W65047   6.588  21.515   2.119
92722W        W65048   2.876  34.120   2.407
92723W        W65049  12.605  20.894  11.115
92724W        W65050  10.020  39.032  10.828
92725W        W65051   3.552   1.066  14.339
92726W        W65052   4.805  32.130  11.012
92727W        W65053  43.307  16.551   2.870
92728W        W65054  20.677  30.906   3.201
92729W        W65055   7.166  40.748   1.186
92730W        W65056  42.777  27.499  11.232
92731W        W65057  14.394  38.053  14.006
92732W        W65058  38.567  14.798   0.412
92733W        W65059  41.590  27.800  14.163
92734W        W65060  22.507   6.359  14.065
92735W        W65061  28.686  40.000   0.201
92736W        W65062  14.489  17.852   3.729
92737W        W65063  19.861  14.639  10.445
92738W        W65064  36.476  25.226   1.448
92739W        W65065  44.916  29.037  12.582
92740W        W65066  18.679  35.163   3.846
92741W        W65067   8.175   0.091   4.787
92742W        W65068  16.053   9.595   3.138
92743W        W65069  34.102  22.480   1.333
92744W        W65070  44.555   9.250   1.968
92745W        W65071  17.159  14.258  14.293
92746W        W65072  36.802  15.166  12.182
92747W        W65073  18.995   2.440  11.580
92748W        W65074  29.032  18.009  11.055
92749W        W65075   5.231  20.666  12.540
92750W        W65076  33.545  24.983  10.577
92751W        W65077  34.338  23.123   1.782
92752W        W65078   3.367   1.289  12.838
92753W        W65079  12.060  31.198  11.625
92754W        W65080  31.518  11.371   3.730
92755W        W65081  10.857   0.350  14.853
92756W        W65082  34.827   1.464  14.865
92757W        W65083  38.147   5.520   2.340
92758W        W65084  16.235  21.614   2.277
92759W        W65085  25.025  17.836  10.725
92760W        W65086  39.793  40.567   1.676
92761W        W65087  41.871  25.965  14.456
92762W        W65088  28.020  35.951  12.776
92763W        W65089  19.673  34.861   0.905
92764W        W65090  14.777  23.648   0.213
92765W        W65091   6.724   5.708   4.554
92766W        W65092  28.274  34.566  14.822
92767W        W65093  42.334  19.705   4.389
92768W        W65094   7.638  23.215   2.306
92769W        W65095  27.139  30.434  14.283
92770W        W65096  20.387  36.420  13.389
92771W        W65097  21.318  39.523  12.711
92772W        W65098  42.356  12.354   4.707
92773W        W65099  16.413  43.328  11.576
92774W        W65100  14.020  30.108   0.311
92775W        W65101  20.721   1.088   3.768
92776W        W65102  11.621  20.638  11.750
92777W        W65103  19.760  17.132  14.053
92778W        W65104  32.331  25.103   4.651
92779W        W65105  20.730  28.947  11.661
92780W        W65106  36.021  18.520   4.112
92781W        W65107  10.080  22.655   2.319
92782W        W65108  29.154  22.603   3.298
92783W        W65109   9.407  31.615  10.611
92784W        W65110  10.077  28.913  11.580
92785W        W65111  30.504   4.895   4.156
92786W        W65112   0.637   2.816  14.949
92787W        W65113  12.378  36.077   5.444
92788W        W65114  25.613  16.203  14.784
92789W        W65115  34.987  10.863   4.069
92790W        W65116  38.788  12.244  11.748
92791W        W65117  44.690  31.184   2.122
92792W        W65118  40.614  25.406   1.262
92793W        W65119   0.516  24.709   1.935
92794W        W65120  13.604  26.921   0.926
92795W        W65121  37.001  30.035   4.205
92796W        W65122  33.094  12.799  14.863
92797W        W65123  28.077  14.512  14.898
92798W        W65124  17.868  26.155  14.884
92799W        W65125  14.857  41.480  12.440
92800W        W65126  42.895  31.828   1.578
92801W        W65127   6.826  25.979  14.034
92802W        W65128  28.889  38.145   0.264
92803W        W65129  43.305  41.267  14.353
92804W        W65130  29.547  37.861  12.831
92805W        W65131   1.324  29.690   1.356
92806W        W65132  10.273   1.340   2.667
92807W        W65133  26.204  30.101   3.672
92808W        W65134  11.839  16.195   1.710
92809W        W65135  15.489  17.664  10.508
92810W        W65136  12.286   4.199  11.561
92811W        W65137  12.801   1.299  11.481
92812W        W65138  35.616   1.359  14.538
92813W        W65139  24.960  43.524   0.800
92814W        W65140  16.761   0.747  11.045
92815W        W65141  40.764  17.393  11.245
92816W        W65142  44.151  16.666   2.219
92817W        W65143   7.418   4.302   0.680
92818W        W65144   5.353  39.924   4.754
92819W        W65145  27.082  37.689  11.533
92820W        W65146  23.033  30.616   4.354
92821W        W65147  32.092  13.414   1.666
92822W        W65148  27.469  11.629  11.970
92823W        W65149  19.052  12.219   3.384
92824W        W65150  26.820  26.041  14.922
92825W        W65151  15.566  10.111  13.519
92826W        W65152  30.593  14.314  10.954
92827W        W65153  41.741   8.409  14.988
92828W        W65154  16.574  38.523  13.001
92829W        W65155  14.587   8.452  13.003
92830W        W65156   2.092  22.721   0.439
92831W        W65157  18.229   0.074   4.328
92832W        W65158   6.487  20.703  13.933
92833W        W65159  34.636  24.576  12.278
92834W        W65160  14.377   4.710   3.550
92835W        W65161  26.669   6.147   4.595
92836W        W65162   1.870  40.424  14.105
92837W        W65163   3.235  29.546   4.510
92838W        W65164  15.068  20.544  13.468
92839W        W65165  12.775   7.529   2.924
92840W        W65166  29.472  10.053  12.652
92841W        W65167  34.858  39.544   2.414
92842W        W65168  32.975  16.353   1.477
92843W        W65169   0.817   5.891  10.804
92844W        W65170  14.925  19.087  14.515
92845W        W65171  28.602  39.412  14.407
92846W        W65172  23.694   7.680  12.030
92847W        W65173  42.003   4.466  10.392
92848W        W65174  36.801  34.970   1.895
92849W        W65175  17.082  28.950   4.439
92850W        W65176  31.460  41.405   3.723
92851W        W65177  28.615  37.093  10.600
92852W        W65178  16.767  38.663   4.192
92853W        W65179  43.842   2.219  13.137
92854W        W65180  34.958  29.122  11.211
92855W        W65181  43.327   8.084   1.258
92856W        W65182  29.842  26.472   4.158
92857W        W65183  21.075   9.137   0.941
92858W        W65184  41.594  34.578  14.223
92859W        W65185   6.710  16.578   1.339
92860W        W65186  27.601   1.456  11.295
92861W        W65187  30.613   0.000   2.904
92862W        W65188  26.436   2.008   3.942
92863W        W65189  34.481  35.710   1.745
92864W        W65190  21.169   6.900  11.208
92865W        W65191  11.328  32.476  12.201
92866W        W65192  40.631  33.290   0.296
92867W        W65193  13.118   4.063  12.189
92868W        W65194  44.560  10.320   4.957
92869W        W65195  22.469  12.672  12.116
92870W        W65196  32.305  30.512  11.489
92871W        W65197  30.533  35.770   1.669
92872W        W65198   2.834  29.355   2.310
92873W        W65199  32.793  18.495  10.626
92874W        W65200   3.838  25.488   3.745
92875W        W65201  32.384   6.693  13.044
92876W        W65202  19.982  16.390  12.937
92877W        W65203  19.792   1.717  11.792
92878W        W65204  25.246  38.518  13.880
92879W        W65205   4.712  10.404   4.548
92880W        W65206  37.278  20.291  12.895
92881W        W65207   7.189  10.609   2.175
92882W        W65208   2.903  21.751  12.499
92883W        W65209  13.764  28.206   4.697
92884W        W65210  24.179  40.710   3.430
92885W        W65211   6.165  37.346   5.086
92886W        W65212  41.468  34.943  12.084
92887W        W65213   8.129   9.440  10.730
92888W        W65214  34.276  18.367  14.167
92889W        W65215  29.217  18.646   3.176
92890W        W65216  14.287   9.417  11.103
92891W        W65217  10.043   0.573  11.627
92892W        W65218  17.531  25.638  12.918
92893W        W65219   4.676   5.364  11.781
92894W        W65220  44.295  30.699   0.882
92895W        W65221  24.568  31.190  12.429
92896W        W65222  37.012  28.036  12.760
92897W        W65223  21.455  27.638   3.572
92898W        W65224   1.397  23.586   4.437
92899W        W65225   9.782  14.225  12.648
92900W        W65226  38.640  13.288   9.856
92901W        W65227  32.034   5.741   2.692
92902W        W65228  43.372  25.700  11.532
92903W        W65229  42.843  11.626  10.699
92904W        W65230  14.404  38.019   0.736
92905W        W65231  14.313   7.811   4.329
92906W        W65232  22.013  39.035  11.596
92907W        W65233   2.000  35.491   2.845
92908W        W65234  17.026  21.258   3.792
92909W        W65235  40.840   9.801  14.765
92910W        W65236  36.794  38.448  12.380
92911W        W65237  33.044  43.829  10.517
92912W        W65238  28.978  30.374  14.574
92913W        W65239  30.651   2.549   0.791
92914W        W65240   4.196   3.337  11.462
92915W        W65241   1.496  17.726   1.186
92916W        W65242  33.975  17.068   4.975
92917W        W65243  38.885  26.660   2.819
92918W        W65244  24.712  38.467  10.916
92919W        W65245  41.286  35.098   0.951
92920W        W65246  22.387  35.467  14.927
92921W        W65247  21.358  21.497   1.358
92922W        W65248  29.472  17.743  14.622
92923W        W65249  28.003  18.497   4.589
92924W        W65250  10.624  14.254   0.541
92925W        W65251  12.721  43.793   1.450
92926W        W65252  34.362  19.370  11.111
92927W        W65253  13.791  10.610   1.052
92928W        W65254  14.828  17.606  14.722
92929W        W65255  36.220   8.665   2.111
92930W        W65256  39.557  12.809  14.051
92931W        W65257  15.075   1.236  14.548
92932W        W65258   3.989  25.677   2.188
92933W        W65259  39.728  43.888  13.395
92934W        W65260  17.321   3.212   2.367
92935W        W65261   3.984  19.785  14.425
92936W        W65262  17.311  35.006  12.126
92937W        W65263  32.580  33.985  11.220
92938W        W65264   7.352  17.619   3.303
92939W        W65265   5.364  18.647   4.591
92940W        W65266  31.568   2.461  14.212
92941W        W65267  14.513   7.413   3.647
92942W        W65268  11.699   7.239  10.576
92943W        W65269  17.564  40.053   4.185
92944W        W65270  34.129  15.430  13.285
92945W        W65271   2.264  41.067  13.074
92946W        W65272  23.079  20.533  11.162
92947W        W65273  22.273  39.949   1.750
92948W        W65274  19.151   4.890  14.253
92949W        W65275   2.192  37.865  12.828
92950W        W65276   6.139  43.906  13.448
92951W        W65277   1.408   7.866  12.039
92952W        W65278  42.828  36.465  10.467
92953W        W65279  11.526  15.637   2.378
92954W        W65280  28.720  35.622  10.729
92955W        W65281   9.628   2.373  13.890
92956W        W65282  37.383  17.910  13.428
92957W        W65283   4.505   7.031  11.658
92958W        W65284  21.205  38.150   2.304
92959W        W65285  28.181  35.130   0.406
92960W        W65286  27.819  30.619  10.153
92961W        W65287  14.935  39.754   4.166
92962W        W65288  16.875  34.436  14.227
92963W        W65289   6.475  43.387  14.403
92964W        W65290  34.280  11.754  14.042
92965W        W65291  42.951   0.141   2.364
92966W        W65292  19.939   8.337   4.696
92967W        W65293  15.873  23.417  13.455
92968W        W65294  44.792  44.712  13.318
92969W        W65295  42.230  25.074   3.229
92970W        W65296  21.554  11.695  12.926
92971W        W65297   5.467  37.568   1.268
92972W        W65298   4.692  37.217  11.943
92973W        W65299  11.247  35.889  14.914
92974W        W65300   0.253  35.293  13.546
92975W        W65301  20.618  40.161  12.914
92976W        W65302  36.905  27.908  13.248
92977W        W65303  34.577  43.252   2.919
92978W        W65304   0.186   3.660  14.437
92979W        W65305  10.252  14.930   2.638
92980W        W65306   6.334  12.596   0.281
92981W        W65307  36.280  34.730   0.832
92982W        W65308  28.722  15.132   3.098
92983W        W65309   9.566   5.345  14.765
92984W        W65310  23.535  11.414  11.709
92985W        W65311  38.513  18.220  11.020
92986W        W65312   7.630  17.421   9.895
92987W        W65313  14.183   0.035   0.497
92988W        W65314  41.333   8.555  12.781
92989W        W65315  17.015   8.539  12.954
92990W        W65316   1.057   2.733   2.929
92991W        W65317   2.632  14.069   1.861
92992W        W65318  25.981  19.044  14.918
92993W        W65319  15.163  38.683  13.473
92994W        W65320  23.957   0.973  10.362
92995W        W65321   6.753  24.717  14.048
92996W        W65322   5.063  10.852   4.052
92997W        W65323  12.418  25.674   0.918
92998W        W65324  12.873  41.834   2.213
92999W        W65325  33.460  25.862  14.318
93000W        W65326  28.081   8.336   3.320
93001W        W65327  24.585  27.751   2.441
93002W        W65328  29.535  19.987  13.609
93003W        W65329  25.541  19.226  14.721
93004W        W65330  22.193  26.646   0.952
93005W        W65331   7.642  41.468  10.450
93006W        W65332  21.924   4.984  12.010
93007W        W65333  14.299  35.590  11.589
93008W        W65334  21.215  14.079  13.463
93009W        W65335  16.287   9.111  12.889
93010W        W65336  39.041   3.226   3.837
93011W        W65337  19.917  38.557  14.459
93012W        W65338  20.603  32.186  12.900
93013W        W65339  44.102  44.559   1.807
93014W        W65340  14.844  10.250   2.892
93015W        W65341  12.967  31.064  11.867
93016W        W65342   9.428  17.732   3.304
93017W        W65343  30.500  27.970   4.086
93018W        W65344  41.894  28.367  13.390
93019W        W65345  20.003  35.598  14.356
93020W        W65346  30.204  17.142   3.573
93021W        W65347  18.814  14.785  11.471
93022W        W65348  41.804  37.148  10.746
93023W        W65349   1.933   8.438   3.831
93024W        W65350  31.509   9.674  11.335
93025W        W65351  15.898  16.612   0.310
93026W        W65352  40.406  28.719  13.455
93027W        W65353  42.996  38.454  14.559
93028W        W65354  19.037  26.836   0.150
93029W        W65355  32.043  39.242  12.905
93030W        W65356  31.498  30.591  13.474
93031W        W65357   4.872  43.204   4.984
93032W        W65358  15.899  37.325   5.190
93033W        W65359  29.627  25.512  10.654
93034W        W65360  19.519  12.653   1.268
93035W        W65361  23.310  30.804  10.909
93036W        W65362  13.580   9.421   0.395
93037W        W65363  18.176  40.475  14.097
93038W        W65364  23.226  39.719   5.063
93039W        W65365  30.105  20.043   2.120
93040W        W65366   5.907  35.418  11.079
93041W        W65367  26.531  16.817  10.131
93042W        W65368  43.793   5.924  12.893
93043W        W65369  21.525  11.787   1.397
93044W        W65370  33.344  10.835  13.304
93045W        W65371  40.039  17.243   2.268
93046W        W65372  26.069  38.060   3.665
93047W        W65373  28.036  23.217   3.813
93048W        W65374  21.225  29.694  10.734
93049W        W65375  13.236  11.139  13.854
93050W        W65376  20.276  30.093  11.605
93051W        W65377  40.660  12.202   0.211
93052W        W65378  39.045  19.757  11.986
93053W        W65379  19.315  12.380  11.162
93054W        W65380  30.847  14.183   0.517
93055W        W65381  36.386   2.322  14.757
93056W        W65382  43.350   0.345  13.011
93057W        W65383  41.365  24.567   0.830
93058W        W65384  31.108  40.590   1.381
93059W        W65385  44.345  27.185  14.589
93060W        W65386  32.196   2.083  13.287
93061W        W65387  35.496  12.076   0.432
93062W        W65388  29.927  28.620  11.059
93063W        W65389  36.359  15.808  10.586
93064W        W65390  22.093   7.351  10.748
93065W        W65391  21.854  36.934   9.936
93066W        W65392  34.835  30.805   4.798
93067W        W65393  26.637  23.828  14.536
93068W        W65394  31.514  42.431   1.314
93069W        W65395  36.618  23.504  11.603
93070W        W65396  36.531   2.085   4.168
93071W        W65397  37.417  34.714  14.340
93072W        W65398  20.725   9.765   2.427
93073W        W65399  13.597  28.353  12.951
93074W        W65400   8.533   6.266  14.221
93075W        W65401  26.774  41.876  14.425
93076W        W65402  30.391  23.727  10.761
93077W        W65403   9.871  24.934   5.051
93078W        W65404  39.586  38.543   1.105
93079W        W65405  31.029  44.365   2.410
93080W        W65406  17.480   7.718  14.911
93081W        W65407  14.018   2.428   3.210
93082W        W65408  25.473   8.061  13.003
93083W        W65409  16.141  20.249   4.799
93084W        W65410  36.006  17.186   1.137
93085W        W65411  37.347   3.390   0.810
93086W        W65412   5.595  18.332   1.324
93087W        W65413  31.896   4.405  13.097
93088W        W65414   0.371  39.379   1.471
93089W        W65415  16.074  24.787   1.667
93090W        W65416  38.573  20.947  12.361
93091W        W65417  37.747  12.589   0.412
93092W        W65418  29.398  28.971   2.755
93093W        W65419  18.588  28.380  10.803
93094W        W65420  40.490  38.297  11.654
93095W        W65421  12.770  43.307   0.324
93096W        W65422  31.759  27.396   0.875
93097W        W65423   4.020  14.565  12.003
93098W        W65424  37.337   0.946  14.389
93099W        W65425   3.917  32.118   1.804
93100W        W65426  41.876  11.276   4.079
93101W        W65427  28.127   0.534   3.241
93102W        W65428  20.964  22.632   1.790
93103W        W65429   8.750  19.676   4.919
93104W        W65430  26.159  11.412  10.331
93105W        W65431  19.217  32.847   4.285
93106W        W65432  24.258   9.795   2.233
93107W        W65433  40.949  44.102  11.115
93108W        W65434  13.043  19.509   1.231
93109W        W65435   9.368  44.357   3.109
93110W        W65436   1.511  12.320   5.863
93111W        W65437   6.257  44.976  10.604
93112W        W65438  38.162  10.614   0.452
93113W        W65439  32.465  31.984   4.357
93114W        W65440  14.729  36.138  10.975
93115W        W65441  40.300  17.068  12.932
93116W        W65442  42.426  18.917   2.073
93117W        W65443  24.964  22.571   3.985
93118W        W65444  31.984  18.568   3.671
93119W        W65445  43.072   0.155   1.836
93120W        W65446   1.533  27.139  11.239
93121W        W65447  34.063  18.017   4.581
93122W        W65448  11.717  42.519  10.746
93123W        W65449  44.701  28.679  11.442
93124W        W65450  34.103  34.942   1.103
93125W        W65451  36.375   9.818  12.432
93126W        W65452  35.825  43.902  13.426
93127W        W65453  33.162  12.604  13.577
93128W        W65454  44.476  44.317   2.102
93129W        W65455  36.142  42.282   2.754
93130W        W65456  39.961  26.188   2.062
93131W        W65457  32.594  26.649  10.462
93132W        W65458   6.760  13.413   4.274
93133W        W65459  41.971   4.237  12.876
93134W        W65460  14.199  22.624   1.062
93135W        W65461  30.057  31.235   3.866
93136W        W65462  31.863  31.209   4.082
93137W        W65463  15.483  23.550   4.091
93138W        W65464  35.689  25.427   0.705
93139W        W65465  41.815   3.936   1.156
93140W        W65466  35.294   0.753  11.511
93141W        W65467   3.256  36.796   1.539
93142W        W65468  27.467   7.765   2.732
93143W        W65469  38.020  21.534   3.730
93144W        W65470   8.630  33.316   2.617
93145W        W65471  20.012  30.291  10.755
93146W        W65472  33.586  37.894   5.129
93147W        W65473  22.870   7.424   4.741
93148W        W65474   6.672  31.951   4.571
93149W        W65475  32.802   6.009  14.809
93150W        W65476  33.403  38.476   3.029
93151W        W65477  44.178  42.051   3.692
93152W        W65478   5.607  37.863   4.517
93153W        W65479  23.663  34.259  13.900
93154W        W65480   2.231  30.611  14.387
93155W        W65481  43.358  42.777   2.371
93156W        W65482  12.073   9.777  10.467
93157W        W65483  16.297  26.506  14.531
93158W        W65484   8.547  16.402  13.389
93159W        W65485  25.714  27.510  14.705
93160W        W65486  27.166  27.668   2.069
93161W        W65487  43.388  41.686  10.238
93162W        W65488  41.492   4.279   0.065
93163W        W65489   3.664  36.340  11.111
93164W        W65490  20.550  14.407   1.377
93165W        W65491  10.254  20.706  13.922
93166W        W65492  41.527  37.426   4.899
93167W        W65493  10.777  33.012   1.793
93168W        W65494  43.833  32.292  14.341
93169W        W65495  12.859  11.232  11.055
93170W        W65496  24.756   0.263   1.323
93171W        W65497  23.119  16.871   4.826
93172W        W65498   8.662  18.299  14.524
93173W        W65499  35.249   4.248  12.480
93174W        W65500  23.363   9.801   2.192
93175W        W65501   9.923  24.525  12.341
93176W        W65502  44.804  28.120   0.299
93177W        W65503  21.233  37.788  10.632
93178W        W65504  33.536  33.841  14.742
93179W        W65505  22.457  20.028   2.836
93180W        W65506   1.415   9.135  11.099
93181W        W65507  43.724   6.711  11.559
93182W        W65508  21.036  29.442  13.906
93183W        W65509  35.845   5.788   0.031
93184W        W65510  21.022   6.906   4.865
93185W        W65511   3.273   8.344  11.671
93186W        W65512  35.643  40.659  12.797
93187W        W65513   3.147  29.959  12.065
93188W        W65514  29.049  10.941   0.341
93189W        W65515   0.793  13.344   2.277
93190W        W65516  43.871  32.556  10.711
93191W        W65517  43.863  13.354   4.556
93192W        W65518   4.705  25.964  12.019
93193W        W65519  11.276  16.802  13.298
93194W        W65520  19.161   8.133   0.745
93195W        W65521  19.328  14.645   0.960
93196W        W65522  23.082  19.637  13.131
93197W        W65523  22.592  33.503  13.816
93198W        W65524   3.963  31.784  11.915
93199W        W65525  25.482  36.401  11.596
93200W        W65526  26.533   7.234  13.392
93201W        W65527  43.530  13.734  13.500
93202W        W65528  20.627  16.324   3.146
93203W        W65529  17.648  20.743  14.939
93204W        W65530  26.617   6.735  10.704
93205W        W65531  30.509  44.530  10.907
93206W        W65532   3.327  18.450   0.920
93207W        W65533  32.583   5.578   2.306
93208W        W65534  36.556  34.982  12.005
93209W        W65535  21.808  13.049  12.683
93210W        W65536  10.662  18.853   1.283
93211W        W65537  37.105  43.826  12.413
93212W        W65538  25.638  20.699   0.478
93213W        W65539  31.592  44.184   1.647
93214W        W65540  24.535  20.944   4.093
93215W        W65541  32.123  21.993   2.585
93216W        W65542   0.141  26.764   0.680
93217W        W65543  32.525   5.317  14.027
93218W        W65544  19.634  20.572  13.870
93219W        W65545  25.249   6.681   0.488
93220W        W65546  20.697  31.116  10.558
93221W        W65547  40.712  43.581  14.961
93222W        W65548  24.033  43.105  14.741
93223W        W65549  22.208  15.095  11.237
93224W        W65550   2.228  24.043   2.264
93225W        W65551   9.419   2.764   0.818
93226W        W65552  17.109  21.592   2.370
93227W        W65553  40.849  33.234  11.557
93228W        W65554   9.776  17.037  12.087
93229W        W65555   0.304   9.724  14.332
93230W        W65556  13.760   6.124   1.231
93231W        W65557  39.880   2.943   3.883
93232W        W65558  18.055  40.055  14.482
93233W        W65559  17.060  27.142   4.047
93234W        W65560  28.728   3.060  12.425
93235W        W65561  40.752   2.258   3.757
93236W        W65562  33.970   9.143   3.377
93237W        W65563  30.625  31.055   4.657
93238W        W65564  40.234  23.681   3.949
93239W        W65565  18.315  44.460   0.087
93240W        W65566   6.886  35.060   1.797
93241W        W65567  18.396  42.999   3.297
93242W        W65568  31.424  25.751  13.759
93243W        W65569  23.034  43.436   0.565
93244W        W65570  24.908   1.173   4.610
93245W        W65571  22.064   0.135   3.358
93246W        W65572  11.182   6.258  12.573
93247W        W65573  16.703  31.171  14.685
93248W        W65574  28.718  16.263  13.776
93249W        W65575   0.194  36.813  11.983
93250W        W65576  35.938  38.831  10.604
93251W        W65577  30.405  25.732   1.877
93252W        W65578  21.837  14.652  14.303
93253W        W65579  43.711   0.988  14.411
93254W        W65580  24.053  10.118  11.123
93255W        W65581  25.610  39.248  11.485
93256W        W65582  43.444  24.199  11.557
93257W        W65583  23.797  28.502  12.898
93258W        W65584  20.687  32.902  11.566
93259W        W65585   1.205   0.505  11.898
93260W        W65586  30.117  13.111   0.224
93261W        W65587  16.106   9.979  14.840
93262W        W65588  25.731  15.833   0.203
93263W        W65589   8.035   3.259   0.887
93264W        W65590  17.087  20.759   4.014
93265W        W65591  30.496   8.838  14.330
93266W        W65592   6.732  33.653  11.906
93267W        W65593  28.128  12.412   3.784
93268W        W65594   1.528   2.691   3.296
93269W        W65595   0.464   5.616  14.835
93270W        W65596  17.809  43.707   1.411
93271W        W65597  42.664   8.692  12.701
93272W        W65598  27.310   5.373  10.677
93273W        W65599  43.526  12.587  12.950
93274W        W65600   2.762  36.961   1.341
93275W        W65601  27.552  14.185  13.042
93276W        W65602   9.818  28.712  13.527
93277W        W65603  37.491  31.097  10.510
93278W        W65604  23.518   8.861   4.044
93279W        W65605   3.451   6.084  11.104
93280W        W65606   2.394  38.492  14.859
93281W        W65607  34.545  30.071  12.455
93282W        W65608  23.300  43.267  14.052
93283W        W65609  32.030  15.599   1.657
93284W        W65610  44.884  41.699  14.759
93285W        W65611   0.204  14.701   3.748
93286W        W65612  29.169  39.393   1.300
93287W        W65613  15.118  10.704   0.315
93288W        W65614  13.698   7.436   1.710
93289W        W65615  14.857  28.559   1.799
93290W        W65616   9.101  34.512   2.272
93291W        W65617  18.045  10.662   0.595
93292W        W65618   7.806  13.552   1.865
93293W        W65619  33.223  15.130  13.081
93294W        W65620   5.935  32.697  13.853
93295W        W65621  32.954   6.955   2.235
93296W        W65622  25.883  37.577   3.714
93297W        W65623  32.551  28.704  12.043
93298W        W65624  13.351  18.493   0.281
93299W        W65625  38.001   0.654   1.675
93300W        W65626  15.431   8.156  10.741
93301W        W65627  39.595  14.621   0.416
93302W        W65628  23.242  15.080   5.092
93303W        W65629   0.266  19.396  11.076
93304W        W65630  12.391  27.362   1.348
93305W        W65631  37.144   7.927  11.480
93306W        W65632  28.949  41.936   3.167
93307W        W65633   3.106  23.467  11.510
93308W        W65634  30.583  28.244   0.332
93309W        W65635  26.464  13.797   3.307
93310W        W65636  27.521  39.659   3.096
93311W        W65637  27.765  25.828  14.315
93312W        W65638  34.454  12.691  14.513
93313W        W65639  34.872  18.747   3.991
93314W        W65640  38.806  44.876   5.157
93315W        W65641  39.059  12.756   0.874
93316W        W65642  35.063  40.109  10.821
93317W        W65643  14.796  35.491   0.987
93318W        W65644  14.577  30.477   0.204
93319W        W65645  23.693  36.301  14.971
93320W        W65646   2.932  17.084  13.931
93321W        W65647  20.255  31.366   3.838
93322W        W65648  29.110   5.922  14.516
93323W        W65649  23.516   0.845   2.852
93324W        W65650  43.544  14.651  13.563
93325W        W65651  21.192  27.881   0.828
93326W        W65652  16.852  39.566   0.248
93327W        W65653  44.704  18.085  13.365
93328W        W65654  23.686  14.741  13.875
93329W        W65655  16.728   2.392  12.119
93330W        W65656  30.783   2.887  12.138
93331W        W65657  44.369  43.847   2.825
93332W        W65658  33.924  21.035  12.491
93333W        W65659  16.092  19.775   4.565
93334W        W65660   3.481  23.224   1.819
93335W        W65661  35.836  13.576  14.962
93336W        W65662  28.560  19.244   3.224
93337W        W65663   2.782  14.042   4.667
93338W        W65664   7.439  16.007   2.737
93339W        W65665  35.001  32.346   1.987
93340W        W65666  15.693   9.662  14.930
93341W        W65667  24.616  21.036  11.846
93342W        W65668  25.640  12.653  13.278
93343W        W65669  26.684   1.317  13.749
93344W        W65670  14.587  31.204   1.420
93345W        W65671  13.199  28.854  10.729
93346W        W65672   7.804  27.910   0.725
93347W        W65673   0.885  20.977  14.281
93348W        W65674  32.857  24.559   3.288
93349W        W65675   0.523  25.040   3.356
93350W        W65676  20.142   7.258  10.438
93351W        W65677  37.688  10.724   0.283
93352W        W65678  33.375  27.715  13.963
93353W        W65679  26.177  18.284   4.281
93354W        W65680  29.579   1.550  14.917
93355W        W65681  24.264  32.135  12.550
93356W        W65682  25.977  23.049   2.697
93357W        W65683  43.445   6.436   0.427
93358W        W65684  41.571   8.204   1.496
93359W        W65685   3.281   5.945   2.241
93360W        W65686  18.046   0.319  10.964
93361W        W65687   2.994  34.554   4.613
93362W        W65688   7.002  13.847  11.563
93363W        W65689  44.228  29.587  14.829
93364W        W65690  32.701  38.920  12.865
93365W        W65691   3.409  17.709  12.964
93366W        W65692  40.660  21.822  13.422
93367W        W65693   3.384  20.865  11.717
93368W        W65694  12.582  32.615  12.159
93369W        W65695  32.077  15.280   0.658
93370W        W65696  17.097  34.971   1.003
93371W        W65697  40.315   2.951   4.140
93372W        W65698  24.206   6.223   1.198
93373W        W65699  26.522  42.497   2.243
93374W        W65700  39.503  14.780  14.083
93375W        W65701   2.869  29.472   1.255
93376W        W65702  38.324   8.680  13.869
93377W        W65703  38.858   8.943   4.063
93378W        W65704  39.781  40.076  13.975
93379W        W65705  43.077  37.053  11.104
93380W        W65706  43.667  39.479  10.585
93381W        W65707  37.873  13.948   4.304
93382W        W65708  23.022   5.506  13.885
93383W        W65709  44.811   4.303  13.312
93384W        W65710   8.013  26.515   4.068
93385W        W65711  29.634  27.913   3.229
93386W        W65712  15.818  30.583  14.380
93387W        W65713  34.108  11.668   1.777
93388W        W65714  25.075  22.674   1.809
93389W        W65715  35.032   7.800   3.695
93390W        W65716  32.890   9.711  14.465
93391W        W65717  23.943  11.019   1.917
93392W        W65718   9.670  13.758   4.098
93393W        W65719  43.510  23.926   2.807
93394W        W65720  15.779  25.170  13.927
93395W        W65721  28.672  17.161   0.858
93396W        W65722  35.952   5.930   0.787
93397W        W65723  40.263  22.429  13.992
93398W        W65724   7.415  31.490   0.917
93399W        W65725  23.267  38.726   3.090
93400W        W65726  30.361  38.837  10.652
93401W        W65727   0.871  10.197  13.782
93402W        W65728   8.249  10.577  12.775
93403W        W65729  24.927  25.953   5.022
93404W        W65730   1.189  25.602  11.047
93405W        W65731   2.810  20.817  12.521
93406W        W65732  42.736   4.320   2.119
93407W        W65733  25.262  19.826  10.570
93408W        W65734  36.553  39.848  12.576
93409W        W65735  35.438  11.986   0.932
93410W        W65736  34.831  31.488   2.399
93411W        W65737  24.330  26.523   0.844
93412W        W65738   1.230   8.271   2.991
93413W        W65739  44.426   7.682  11.036
93414W        W65740  30.120   2.964  11.639
93415W        W65741  39.274  16.295   0.761
93416W        W65742   8.138   2.651  11.972
93417W        W65743  40.609  31.626   0.971
93418W        W65744  11.220   3.966  13.708
93419W        W65745  10.956  11.249   0.812
93420W        W65746  35.051   8.644   4.287
93421W        W65747  14.738  10.316   1.725
93422W        W65748  21.699  40.910   0.174
93423W        W65749  18.763   9.709  14.350
93424W        W65750   5.636  38.247   3.139
93425W        W65751   5.798  29.636   4.574
93426W        W65752   7.418  14.676   4.734
93427W        W65753  25.699  12.135  11.457
93428W        W65754  11.595  18.002  11.083
93429W        W65755  36.180  13.408   4.616
93430W        W65756  42.143  40.867  12.485
93431W        W65757   5.995  12.367   3.264
93432W        W65758  19.871  15.567  12.528
93433W        W65759  18.128  27.675  14.524
93434W        W65760  16.174   4.903  14.311
93435W        W65761  40.815  37.402  13.356
93436W        W65762  41.311   2.259  10.594
93437W        W65763  20.252  35.142  11.170
93438W        W65764  12.194  25.545  13.234
93439W        W65765  31.949  28.582  12.100
93440W        W65766  14.147  21.183  12.925
93441W        W65767  25.270  25.626  11.579
93442W        W65768   1.391  43.284   4.763
93443W        W65769   1.881  44.878  12.549
93444W        W65770  41.122  26.683  11.189
93445W        W65771   3.566  22.498   5.199
93446W        W65772  16.897   5.097  13.800
93447W        W65773  10.897   5.003  12.375
93448W        W65774  27.699  10.171   1.957
93449W        W65775   1.407  17.774   3.665
93450W        W65776  37.813   4.480   1.426
93451W        W65777  14.541  15.632   3.075
93452W        W65778  25.175  36.927   4.608
93453W        W65779  42.890  25.742   0.821
93454W        W65780  22.998  26.290   1.203
93455W        W65781  37.691  17.228  10.279
93456W        W65782  37.354  13.712  12.400
93457W        W65783  14.438  26.206   5.512
93458W        W65784  10.008  11.337  10.861
93459W        W65785  44.254  25.097  14.401
93460W        W65786  30.830  26.072  10.998
93461W        W65787   5.334   9.763   0.337
93462W        W65788   0.815  21.140   3.239
93463W        W65789  25.926  18.305  14.365
93464W        W65790   9.493  26.028  10.538
93465W        W65791  32.108  24.420   2.879
93466W        W65792  30.407  29.798   0.163
93467W        W65793  29.214  14.058  14.221
93468W        W65794   8.758  40.979  11.154
93469W        W65795   7.193   3.448   4.372
93470W        W65796  34.512   7.006  11.115
93471W        W65797   5.059  26.684   2.777
93472W        W65798  28.926  23.046   3.463
93473W        W65799  33.890   6.821   0.953
93474W        W65800  28.957   7.907   1.307
93475W        W65801  23.045  36.015   3.134
93476W        W65802  23.753   9.469  11.566
93477W        W65803  20.724   7.130   3.214
93478W        W65804  25.092  23.037  12.608
93479W        W65805  42.050  14.088  11.721
93480W        W65806  22.781   5.582   2.966
93481W        W65807  26.029  36.903  13.814
93482W        W65808   4.337  28.508  11.261
93483W        W65809   6.486  37.526   0.389
93484W        W65810  15.261   3.551  12.231
93485W        W65811  41.588  38.780  12.680
93486W        W65812  13.149  14.605   2.392
93487W        W65813   0.089  10.583   3.271
93488W        W65814  19.057  24.876  12.700
93489W        W65815  18.239  34.586  10.648
93490W        W65816   2.944  40.055  14.603
93491W        W65817  21.914   8.743   0.256
93492W        W65818   2.965  39.442   2.688
93493W        W65819  30.431  26.114  12.788
93494W        W65820  13.354  15.236  10.693
93495W        W65821  17.767   4.304  10.716
93496W        W65822  35.362  21.548   0.372
93497W        W65823  26.994  26.790  12.633
93498W        W65824  13.852   6.781  13.417
93499W        W65825  23.938   0.425   4.855
93500W        W65826   8.734  11.318   2.150
93501W        W65827  25.620   9.710  14.897
93502W        W65828  41.774  26.431   0.363
93503W        W65829  38.448  14.759   4.886
93504W        W65830  12.142   7.726   1.269
93505W        W65831   6.270  29.343   2.833
93506W        W65832  32.956  20.985  13.519
93507W        W65833  16.395  13.913   0.137
93508W        W65834  42.136   7.835   4.081
93509W        W65835  24.659  36.306   2.468
93510W        W65836  24.134  10.299  12.001
93511W        W65837  38.057  17.291  14.455
93512W        W65838   0.015  21.593   3.237
93513W        W65839  37.051  35.989   4.223
93514W        W65840  10.339  10.156   4.548
93515W        W65841  17.168  21.651   3.500
93516W        W65842  16.269  25.240  14.182
93517W        W65843   9.146   3.772  13.557
93518W        W65844  22.646   0.246  10.727
93519W        W65845  23.237  12.843   0.450
93520W        W65846  27.899  21.790   4.124
93521W        W65847   0.586  34.794   2.564
93522W        W65848   2.374   4.836   0.252
93523W        W65849  38.919  20.743   1.917
93524W        W65850  38.043  23.428  12.876
93525W        W65851  13.751  16.309  14.777
93526W        W65852  37.564  20.224   1.826
93527W        W65853  37.318  37.428  14.376
93528W        W65854   7.673  14.744   2.725
93529W        W65855  13.179  37.590   3.790
93530W        W65856  41.215  21.051  12.583
93531W        W65857  22.935  33.015   2.796
93532W        W65858  43.801  22.137   3.205
93533W        W65859  29.840  40.407  12.590
93534W        W65860  37.916   2.218   1.717
93535W        W65861  19.501  41.034   1.320
93536W        W65862  15.155  36.905   1.448
93537W        W65863  30.368  29.377  11.253
93538W        W65864  24.979   6.384   1.818
93539W        W65865  14.470  37.952  10.414
93540W        W65866  13.636  42.180  14.325
93541W        W65867  36.079  21.928   4.060
93542W        W65868  17.307  24.456   0.418
93543W        W65869  15.225   3.413  13.576
93544W        W65870   4.586  20.676   4.584
93545W        W65871  35.854  13.150  14.035
93546W        W65872  16.132  37.310   3.748
93547W        W65873  37.514  21.261  14.836
93548W        W65874  36.246  42.480  10.690
93549W        W65875  15.572  22.600  14.410
93550W        W65876  35.406  32.619   1.284
93551W        W65877  26.610   1.011   3.206
93552W        W65878   1.418  16.283  12.863
93553W        W65879  31.062  13.802   3.770
93554W        W65880  25.549  12.610  10.283
93555W        W65881  34.373  33.064   0.583
93556W        W65882   6.535  24.081  12.851
93557W        W65883  11.453   7.917  12.621
93558W        W65884  33.871  27.628   1.421
93559W        W65885  24.158  24.461  12.577
93560W        W65886   3.990  36.048   2.630
93561W        W65887   7.899   2.369  11.077
93562W        W65888  26.901  26.242   4.147
93563W        W65889  10.179  11.608   3.637
93564W        W65890  12.125  41.891  13.533
93565W        W65891  16.698   2.365   2.938
93566W        W65892  24.735  40.363  13.471
93567W        W65893  23.971  34.965  14.323
93568W        W65894  36.271  13.927  10.087
93569W        W65895  18.703  24.270   1.206
93570W        W65896  16.738  13.068   0.360
93571W        W65897  25.652   0.442  11.645
93572W        W65898  25.692  17.086   9.750
93573W        W65899  21.213  24.173  14.302
93574W        W65900  28.169  13.725   2.793
93575W        W65901  18.791  15.242   1.679
93576W        W65902  10.642  39.026   0.735
93577W        W65903  16.646   6.755  13.836
93578W        W65904   2.379  22.506   2.267
93579W        W65905  40.905  20.253  11.036
93580W        W65906  32.574  22.301  11.237
93581W        W65907  39.672  29.087  13.770
93582W        W65908  31.914  39.222  11.089
93583W        W65909  16.188  15.152   1.403
93584W        W65910  30.895  18.315  13.814
93585W        W65911  34.504   2.912  13.981
93586W        W65912   1.775  40.259  12.327
93587W        W65913  22.959   7.621  14.759
93588W        W65914  15.445  33.109   9.573
93589W        W65915  21.186  41.111   3.362
93590W        W65916  32.569  15.083  13.705
93591W        W65917  15.747  24.969  13.365
93592W        W65918  35.391  11.789   5.414
93593W        W65919   7.769  32.152   4.543
93594W        W65920  19.893  26.406  11.830
93595W        W65921   8.177  34.583   1.873
93596W        W65922  32.014  38.323   1.921
93597W        W65923  27.558  16.345   2.231
93598W        W65924  14.740   0.793  13.817
93599W        W65925  26.153   6.290   3.386
93600W        W65926  13.771  27.048  13.421
93601W        W65927  17.599  17.487   9.961
93602W        W65928   8.605   4.327  11.549
93603W        W65929  20.067  44.383  14.976
93604W        W65930   7.899  18.262   1.476
93605W        W65931  22.384   3.040   4.509
93606W        W65932  19.895  18.109  10.651
93607W        W65933  19.033   5.220   3.881
93608W        W65934  36.471  15.846  13.350
93609W        W65935  32.835  27.588  10.975
93610W        W65936  22.521  32.112  14.044
93611W        W65937  31.176   6.350  11.085
93612W        W65938  28.124  39.087   0.815
93613W        W65939  28.569  25.230  10.861
93614W        W65940  15.162  14.336   0.572
93615W        W65941   9.239  30.432   4.362
93616W        W65942  25.690  25.925   0.361
93617W        W65943  13.639  25.782  11.838
93618W        W65944  17.820   3.122  14.846
93619W        W65945  27.058  43.349   2.961
93620W        W65946  15.797   5.963   2.177
93621W        W65947  20.009  26.042   1.343
93622W        W65948  14.354  23.722  10.673
93623W        W65949  26.055  35.078   1.842
93624W        W65950  20.229  17.189  10.683
93625W        W65951   5.809  39.753  12.601
93626W        W65952   6.803  23.377   4.142
93627W        W65953  43.907   1.736   1.809
93628W        W65954  24.580   8.257   2.770
93629W        W65955  21.025  27.581   4.384
93630W        W65956  44.936   5.910  12.598
93631W        W65957  14.683  24.236   2.320
93632W        W65958  33.779  36.020   4.179
93633W        W65959  34.885  24.719   3.734
93634W        W65960   4.531  42.944   0.411
93635W        W65961  14.257  44.887   0.988
93636W        W65962  20.728  33.471  14.440
93637W        W65963  34.307   4.463   2.800
93638W        W65964  28.474   4.412  11.525
93639W        W65965   0.373  26.380  12.902
93640W        W65966  12.315  33.602   4.214
93641W        W65967  17.175   3.465   1.920
93642W        W65968  43.044  12.065  14.529
93643W        W65969   8.803  37.915   4.095
93644W        W65970  12.664  22.834  11.991
93645W        W65971  33.042  44.785  12.838
93646W        W65972  33.352  11.215   2.787
93647W        W65973  37.106  41.059  12.190
93648W        W65974  21.400  36.870   1.761
93649W        W65975  26.606   7.330  14.370
93650W        W65976   4.939  42.805   3.537
93651W        W65977  35.621  41.028  12.394
93652W        W65978   4.979  21.277   4.112
93653W        W65979   6.649  33.986   1.009
93654W        W65980  24.604   8.692  12.004
93655W        W65981  13.886  35.998   4.354
93656W        W65982  16.354  18.462  12.029
93657W        W65983  30.885  24.069  13.451
93658W        W65984  25.044  10.923  14.417
93659W        W65985  33.556  26.689   0.441
93660W        W65986  13.792  12.532   0.202
93661W        W65987  13.161  31.183  14.421
93662W        W65988  32.003  33.153  11.590
93663W        W65989  12.531  36.005   9.848
93664W        W65990   0.252  15.567   0.605
93665W        W65991   0.080  32.662   1.852
93666W        W65992  44.039  36.337   0.244
93667W        W65993  22.123  10.936   0.784
93668W        W65994  14.676  23.187  14.947
93669W        W65995   4.680   5.724  13.414
93670W        W65996  22.651   1.619  11.907
93671W        W65997   3.186   5.895  14.239
93672W        W65998  23.585  38.492  13.601
93673W        W65999  23.033  28.131   3.264
93674W        W66000  44.750  22.460   2.871
93675W        W66001  33.460   0.812  10.745
93676W        W66002  16.191   3.950  13.409
93677W        W66003  35.125  15.124  11.996
93678W        W66004  28.616  10.138   1.421
93679W        W66005  32.783  32.212  13.748
93680W        W66006  33.488  44.920  11.447
93681W        W66007  18.680  16.567   0.817
93682W        W66008  13.531  11.250  13.365
93683W        W66009  31.443  23.107  14.112
93684W        W66010  18.022  23.579  11.459
93685W        W66011  32.962  24.344   2.842
93686W        W66012  21.008  21.737   1.879
93687W        W66013   9.861   6.771  11.586
93688W        W66014  43.434  18.365   3.237
93689W        W66015  43.739   3.676   0.373
93690W        W66016  16.796  30.400  13.477
93691W        W66017  10.206  25.071   1.295
93692W        W66018  24.223  35.306   5.001
93693W        W66019  20.622   0.877  11.106
93694W        W66020  41.001   7.649   3.099
93695W        W66021   4.714   4.831   1.919
93696W        W66022  24.514   2.925  11.999
93697W        W66023  41.451  23.232   1.181
93698W        W66024   1.516   8.758   3.728
93699W        W66025  41.274  22.463  12.922
93700W        W66026  25.443  13.815  10.747
93701W        W66027  39.906  20.814  10.554
93702W        W66028  42.073   5.182  13.782
93703W        W66029  26.330  19.841   9.978
93704W        W66030  24.624  44.754   1.321
93705W        W66031   7.859  34.357   3.724
93706W        W66032  25.963  25.897   4.143
93707W        W66033  43.561  42.827  13.367
93708W        W66034  25.405  14.712  12.150
93709W        W66035   3.069  10.795  11.425
93710W        W66036  39.350  42.995  10.841
93711W        W66037  18.676  11.907   3.755
93712W        W66038  22.261   0.729  13.409
93713W        W66039  14.908  22.224   1.455
93714W        W66040  20.657  39.963  14.777
93715W        W66041   0.227  21.153  12.886
93716W        W66042  12.115   4.302   0.295
93717W        W66043  20.118  33.861  11.464
93718W        W66044  31.071  23.314  12.327
93719W        W66045  19.744   6.241   2.712
93720W        W66046  19.040  12.447   1.309
93721W        W66047   3.126  15.276  13.801
93722W        W66048  14.097  43.976   3.171
93723W        W66049   8.793  14.572   0.274
93724W        W66050  32.156  36.583   0.388
93725W        W66051  15.742  23.255   2.494
93726W        W66052  19.088  42.360  14.297
93727W        W66053   6.469  29.866   3.712
93728W        W66054  21.319  19.713  14.449
93729W        W66055  36.470   7.392  14.253
93730W        W66056   2.798  21.241   1.943
93731W        W66057  19.663   5.194   4.536
93732W        W66058  40.878  17.210   4.542
93733W        W66059   1.052  37.318   2.118
93734W        W66060  40.851  14.864   0.336
93735W        W66061  20.682   7.464   2.793
93736W        W66062   8.160  23.164   3.564
93737W        W66063  22.272  35.436   4.126
93738W        W66064   2.288  36.693  13.372
93739W        W66065   3.849  33.041   2.309
93740W        W66066  23.924  30.374  11.532
93741W        W66067  14.339  10.113   4.594
93742W        W66068  43.548  22.189  14.995
93743W        W66069  17.800  17.263  11.506
93744W        W66070   4.471  10.762  11.404
93745W        W66071  43.001  16.182   0.691
93746W        W66072  31.021  24.762  12.406
93747W        W66073  37.129  24.957  10.608
93748W        W66074   8.326  14.376  11.004
93749W        W66075   9.829  43.402  10.441
93750W        W66076  20.889  18.104   0.919
93751W        W66077   6.718  39.040  10.727
93752W        W66078  37.114  31.061  10.869
93753W        W66079  27.489  33.905   1.924
93754W        W66080   4.267   4.196   1.294
93755W        W66081   3.873  20.773  12.492
93756W        W66082  13.707   7.632   2.646
93757W        W66083  41.656  41.815   1.553
93758W        W66084  44.553  13.124   2.770
93759W        W66085  32.276  44.741   2.177
93760W        W66086  28.700  37.598  10.504
93761W        W66087  37.926  26.839  14.873
93762W        W66088  43.788  26.253   1.327
93763W        W66089   7.140  20.289  12.880
93764W        W66090  16.677  19.989   4.131
93765W        W66091  42.244  43.225   3.092
93766W        W66092   0.181  42.064  13.966
93767W        W66093  41.979  26.926  12.498
93768W        W66094  10.577   4.292   1.413
93769W        W66095  42.066   8.861  13.107
93770W        W66096  15.512  15.637  10.713
93771W        W66097  17.442   1.414   4.898
93772W        W66098   4.387   9.064  14.698
93773W        W66099  16.501  17.675  11.280
93774W        W66100   5.897   8.571   3.645
93775W        W66101  26.978  34.510   0.359
93776W        W66102  44.845   5.832  11.246
93777W        W66103   5.328  18.899   0.895
93778W        W66104   0.326  25.973  14.301
93779W        W66105  12.863  33.095   1.255
93780W        W66106  42.480  39.557  12.384
93781W        W66107  34.476  16.052  14.902
93782W        W66108  31.969  33.035  12.489
93783W        W66109   3.905  39.540  12.989
93784W        W66110   2.640   7.378  14.915
93785W        W66111   3.609  16.534  13.052
93786W        W66112  43.438   5.355   0.750
93787W        W66113  10.758  34.678   3.234
93788W        W66114  18.741  16.503  14.552
93789W        W66115   3.550  41.008  14.027
93790W        W66116  33.869  14.317   0.009
93791W        W66117   0.866  19.196   0.155
93792W        W66118  25.772  31.555   2.987
93793W        W66119  23.778  30.381   0.378
93794W        W66120  12.731  27.416   2.135
93795W        W66121  23.766  26.602  11.124
93796W        W66122  34.338  33.849  11.948
93797W        W66123  37.968  24.464  13.030
93798W        W66124  37.891  38.707  13.869
93799W        W66125  24.425  17.487   4.067
93800W        W66126  35.241  33.422  11.560
93801W        W66127  21.970  12.305  11.607
93802W        W66128   7.954  28.848   2.725
93803W        W66129  22.236  25.936  10.824
93804W        W66130  15.102  13.614   4.000
93805W        W66131  37.965  38.428   3.460
93806W        W66132   5.097   3.920   2.781
93807W        W66133  11.954  36.382   1.278
93808W        W66134  39.755   0.088   0.298
93809W        W66135   2.453   9.092  13.585
93810W        W66136  36.435  27.122  10.485
93811W        W66137  23.973  16.571   3.018
93812W        W66138  35.519  13.347   2.393
93813W        W66139  17.100  29.860  12.395
93814W        W66140   1.917   6.983  14.350
93815W        W66141  24.725   0.239   3.266
93816W        W66142   6.240  24.135  14.706
93817W        W66143  43.795  42.399   4.447
93818W        W66144  18.156  37.880   0.920
93819W        W66145  34.364  20.130   2.009
93820W        W66146  38.344  10.609  13.382
93821W        W66147  18.505  24.505   4.061
93822W        W66148  17.658  20.423  13.374
93823W        W66149  29.814  39.563   3.697
93824W        W66150  39.723  25.696   3.655
93825W        W66151  29.419  38.317  13.046
93826W        W66152  12.275  28.120   5.215
93827W        W66153  19.049  12.715  14.935
93828W        W66154  20.238  15.257   1.953
93829W        W66155  21.817   3.826   0.325
93830W        W66156  16.347   1.637  11.894
93831W        W66157  30.750  24.558   2.738
93832W        W66158  16.894  13.447   2.254
93833W        W66159  39.614  21.516  11.419
93834W        W66160   0.993  20.387   4.066
93835W        W66161  37.782  34.127   3.697
93836W        W66162  18.452  12.727   2.717
93837W        W66163  18.612   2.701  11.903
93838W        W66164   4.871  15.751  10.936
93839W        W66165  20.678  32.199  13.805
93840W        W66166   9.901  35.443   3.345
93841W        W66167  39.982   7.336   3.354
93842W        W66168   9.245  22.044   0.729
93843W        W66169  16.704   1.255   4.483
93844W        W66170  27.829  12.848   1.288
93845W        W66171  44.802   5.940   1.440
93846W        W66172  19.141  16.691   1.024
93847W        W66173   4.297   4.692   3.259
93848W        W66174  15.359  32.935  14.338
93849W        W66175  31.597  19.566  10.686
93850W        W66176  14.153   2.334   0.922
93851W        W66177  21.141  22.194  10.794
93852W        W66178  29.691  16.060   1.758
93853W        W66179  30.451  31.562   3.828
93854W        W66180  24.641  12.860   2.706
93855W        W66181  40.732  24.357   0.776
93856W        W66182  33.186  44.575   0.214
93857W        W66183  21.582   3.975  11.696
93858W        W66184  25.102  39.483  13.762
93859W        W66185  14.801   6.265  10.760
93860W        W66186  30.631  24.120  10.491
93861W        W66187  34.548  35.198   1.868
93862W        W66188  24.233  28.201  12.929
93863W        W66189  12.210  13.619  12.037
93864W        W66190  10.896  33.037  14.279
93865W        W66191  26.544  23.721   0.909
93866W        W66192  34.344  13.633   2.815
93867W        W66193  18.577  35.578  11.132
93868W        W66194   7.821  16.476   3.274
93869W        W66195  30.663  29.203   3.557
93870W        W66196  27.055   7.690  10.888
93871W        W66197  33.975  12.813   4.292
93872W        W66198  37.539  33.233  11.064
93873W        W66199  14.428  18.698   2.306
93874W        W66200  17.607   0.278  12.067
93875W        W66201  21.408  40.385   1.725
93876W        W66202   3.334   7.335  12.502
93877W        W66203   9.225  38.731   2.540
93878W        W66204  19.208  17.541   0.985
93879W        W66205  33.253  28.317  11.618
93880W        W66206  11.579   7.260   4.211
93881W        W66207  38.896  11.321   0.496
93882W        W66208   8.767   7.694   1.767
93883W        W66209  11.187  10.320   0.516
93884W        W66210   5.398  27.530   1.029
93885W        W66211  39.883  38.804   0.748
93886W        W66212   5.338   1.721   1.841
93887W        W66213  26.958  42.949   3.794
93888W        W66214  31.777  32.054  14.860
93889W        W66215  28.578  38.979   4.664
93890W        W66216   1.444  24.381   4.244
93891W        W66217  36.938  39.555   3.192
93892W        W66218  22.733  18.576   2.814
93893W        W66219  31.108  23.511  14.005
93894W        W66220  43.759   1.158  11.946
93895W        W66221   2.036   4.306  12.896
93896W        W66222  14.650  16.076  10.488
93897W        W66223  42.276  33.853  12.817
93898W        W66224  27.951   0.629   4.491
93899W        W66225  27.714  30.903   3.773
93900W        W66226  42.058   2.852  14.450
93901W        W66227  14.537  43.179   2.922
93902W        W66228   9.875   0.409   3.557
93903W        W66229  17.184   3.800   2.901
93904W        W66230   9.899   8.257  10.661
93905W        W66231   1.311  40.001   2.246
93906W        W66232   3.918  12.324   1.298
93907W        W66233  40.862  13.293  13.528
93908W        W66234  21.731  24.338   0.031
93909W        W66235  33.354  10.094  14.476
93910W        W66236  11.228  36.574   2.960
93911W        W66237   6.138   8.863  12.561
93912W        W66238  44.549   6.258  11.069
93913W        W66239  23.800  29.098  14.467
93914W        W66240  40.108  13.570   3.256
93915W        W66241  11.799  23.112  12.927
93916W        W66242  43.744  19.042   2.685
93917W        W66243   7.861  28.639   3.840
93918W        W66244   2.753  14.677  12.873
93919W        W66245  43.076  38.693  10.913
93920W        W66246  38.581   4.898  10.546
93921W        W66247  44.080   5.831   3.757
93922W        W66248  14.287   9.728   0.746
93923W        W66249  44.537  14.184   1.173
93924W        W66250  32.395  23.663  11.126
93925W        W66251  36.921   9.723  14.926
93926W        W66252  31.873  24.270   0.356
93927W        W66253  21.221  11.378   4.125
93928W        W66254  10.419  15.360  14.846
93929W        W66255  31.996  15.667   2.608
93930W        W66256  36.325   6.910  13.941
93931W        W66257  37.966  30.972  10.716
93932W        W66258  12.812  10.603  11.139
93933W        W66259  10.768   7.105   1.380
93934W        W66260  44.255  13.492  13.138
93935W        W66261  33.735  16.406  12.967
93936W        W66262  31.553   1.178   4.331
93937W        W66263   5.121  41.921   3.064
93938W        W66264  25.550  30.101  10.901
93939W        W66265   6.421  19.025   1.268
93940W        W66266  36.894  36.606  13.784
93941W        W66267  36.637   9.191  12.409
93942W        W66268  37.356   1.948  14.857
93943W        W66269  20.106  36.080   0.749
93944W        W66270  16.775   9.917   3.772
93945W        W66271   7.213  12.636  12.625
93946W        W66272  14.797  41.682  14.805
93947W        W66273  33.919  34.321   0.463
93948W        W66274  33.064  22.177  12.940
93949W        W66275  40.063  30.986   4.117
93950W        W66276  19.739  13.987   4.739
93951W        W66277  26.027  19.605  13.374
93952W        W66278  43.873  30.033  14.841
93953W        W66279  13.390  11.573  12.059
93954W        W66280   0.680   4.804  13.353
93955W        W66281   5.188  18.151   1.998
93956W        W66282  16.043   1.848   1.356
93957W        W66283  40.952  29.209   3.291
93958W        W66284  38.793  29.924   3.707
93959W        W66285  44.469  15.632  11.866
93960W        W66286  24.168  29.870   0.939
93961W        W66287  26.146   3.582   0.898
93962W        W66288  31.599  27.530  10.659
93963W        W66289  36.093   1.643  14.424
93964W        W66290  22.981  18.715   2.399
93965W        W66291  39.007  32.492  13.851
93966W        W66292  33.029  40.205  13.895
93967W        W66293  34.363  22.927  13.680
93968W        W66294  43.101  23.390   1.717
93969W        W66295  42.579  37.908   1.838
93970W        W66296  10.418  28.659   3.261
93971W        W66297  11.377   5.615   4.191
93972W        W66298   7.166  34.295   2.405
93973W        W66299  36.594  20.677  10.966
93974W        W66300  32.929   2.653   4.554
93975W        W66301  11.876   1.173   3.259
93976W        W66302  30.501  10.692  11.283
93977W        W66303   8.293  22.045  14.419
93978W        W66304  22.608  13.979   3.193
93979W        W66305   7.959  29.053   4.744
93980W        W66306  13.817  17.115  13.440
93981W        W66307  31.229   9.654  10.772
93982W        W66308  27.993  23.086   3.280
93983W        W66309  30.942  30.254   3.576
93984W        W66310  32.525   3.213  12.066
93985W        W66311  25.461  35.810   4.185
93986W        W66312   6.959  20.590   4.532
93987W        W66313   9.431  14.623   1.127
93988W        W66314  14.208  34.613   2.319
93989W        W66315   4.365  18.801   3.665
93990W        W66316   5.265  31.160   3.688
93991W        W66317  14.911  34.343   5.544
93992W        W66318  41.351   5.210  12.536
93993W        W66319  10.716  40.996   0.528
93994W        W66320  21.065   0.266  12.521
93995W        W66321   6.179  36.635  11.664
93996W        W66322  16.108   4.162  10.999
93997W        W66323  14.621  44.945  14.569
93998W        W66324  19.944   1.852   4.883
93999W        W66325  42.783  39.359   0.982
94000W        W66326   6.307  44.703  12.731
94001W        W66327   6.964   0.964  13.285
94002W        W66328  43.453  15.653  11.477
94003W        W66329   5.942  35.475  13.213
94004W        W66330  27.137   1.318   4.465
94005W        W66331  10.800  25.720   2.995
94006W        W66332  36.056  31.053  12.369
94007W        W66333   6.369  40.524  12.922
94008W        W66334  11.538  17.702   1.899
94009W        W66335   9.328  17.838   4.207
94010W        W66336  36.942   4.020  14.003
94011W        W66337  19.099  37.904   3.607
94012W        W66338  25.754   9.746  10.577
94013W        W66339  11.112  43.072   4.121
94014W        W66340   0.688  32.669   2.369
94015W        W66341  28.467  39.895   4.792
94016W        W66342  25.315  11.229  10.341
94017W        W66343  26.395   7.212  11.470
94018W        W66344   2.298  40.265  13.836
94019W        W66345   8.709  36.097   1.153
94020W        W66346  36.336  43.820  13.375
94021W        W66347  10.758  33.696   3.375
94022W        W66348  20.634  25.224  13.925
94023W        W66349  28.443  37.920   2.309
94024W        W66350  28.438  43.577  11.007
94025W        W66351   6.932  13.773   0.012
94026W        W66352  15.161  11.282   4.231
94027W        W66353  29.152  13.839  12.059
94028W        W66354   1.048  36.611   2.716
94029W        W66355  18.096   9.252  11.493
94030W        W66356  44.372  29.210   2.748
94031W        W66357  22.177  27.418  12.885
94032W        W66358   5.795  18.729   0.720
94033W        W66359  32.899  41.520  14.395
94034W        W66360  33.410  27.725   3.227
94035W        W66361   7.892   2.004   3.679
94036W        W66362  37.269   0.561  12.180
94037W        W66363   6.318   5.733   2.379
94038W        W66364  43.703  22.087   0.479
94039W        W66365  41.928   8.494   1.252
94040W        W66366  31.384  38.818   2.756
94041W        W66367  31.016  15.494   1.721
94042W        W66368   5.169  37.762  14.235
94043W        W66369   2.032  36.377  14.737
94044W        W66370  27.906  13.772   0.411
94045W        W66371  28.905  24.600   1.263
94046W        W66372   3.408  30.744  14.053
94047W        W66373  10.398  36.662  12.061
94048W        W66374  20.444   9.664   1.320
94049W        W66375  39.981  18.842   3.920
94050W        W66376   6.926  41.983  11.586
94051W        W66377  20.018  40.474   0.675
94052W        W66378  34.043   4.677  14.180
94053W        W66379  22.526  39.517  12.407
94054W        W66380   7.490   6.886  12.162
94055W        W66381  24.035  32.407  13.837
94056W        W66382   9.375  10.455  11.604
94057W        W66383   8.879  25.097  12.570
94058W        W66384  42.496  43.811  14.900
94059W        W66385  33.566  41.454   0.960
94060W        W66386  27.194   4.397   0.146
94061W        W66387  43.085  43.073  10.908
94062W        W66388  36.456  29.449   2.802
94063W        W66389  33.396  11.762  12.135
94064W        W66390  21.668  38.925   9.808
94065W        W66391   7.261  34.835  11.169
94066W        W66392  10.223  18.772  11.787
94067W        W66393  33.175  31.508  13.105
94068W        W66394  30.385  28.758   2.928
94069W        W66395   1.261  18.231   2.344
94070W        W66396  37.562   7.321  10.666
94071W        W66397  11.252  16.015  12.782
94072W        W66398  14.491  13.181  13.755
94073W        W66399   9.451  19.137   3.640
94074W        W66400  36.098  24.995  14.922
94075W        W66401  23.566   2.666  14.010
94076W        W66402   2.588  43.085   4.238
94077W        W66403  15.576  39.918   0.027
94078W        W66404  41.987  35.621   3.300
94079W        W66405  42.426   5.628   1.751
94080W        W66406  32.662  24.248  11.583
94081W        W66407   7.380  15.070   1.783
94082W        W66408   8.918  30.916   4.784
94083W        W66409  11.873  17.549   4.163
94084W        W66410  43.055  42.489  12.522
94085W        W66411   3.844  33.954  14.759
94086W        W66412  35.578  13.090   2.836
94087W        W66413  37.158   9.704  10.625
94088W        W66414   9.703  43.507  10.935
94089W        W66415  40.268  15.108  14.332
94090W        W66416  25.968  43.279  12.479
94091W        W66417  18.142  19.520  14.818
94092W        W66418  17.658  26.431  11.640
94093W        W66419   6.567  29.042   3.231
94094W        W66420  16.304  18.976  11.980
94095W        W66421   3.952  29.383   3.713
94096W        W66422  18.012  37.655  10.452
94097W        W66423   1.717  21.121  13.969
94098W        W66424  27.335   4.202  11.950
94099W        W66425  23.807  40.858   4.289
94100W        W66426  31.361  22.469   1.889
94101W        W66427  42.209  38.571   1.712
94102W        W66428  18.057  36.069  12.585
94103W        W66429   3.774  22.276  12.670
94104W        W66430  23.192  26.714   3.249
94105W        W66431  41.778  30.419  13.500
94106W        W66432  38.406  27.803   0.877
94107W        W66433  24.466   9.514   1.854
94108W        W66434   9.437  14.030   2.724
94109W        W66435   7.159   4.455   0.259
94110W        W66436  28.446  17.796  10.663
94111W        W66437  37.369  21.403  11.648
94112W        W66438  13.112  28.560  14.096
94113W        W66439  19.829   2.712  13.529
94114W        W66440   7.854  37.199  13.025
94115W        W66441  13.610  15.146   0.323
94116W        W66442  13.368  44.195   2.292
94117W        W66443  33.229  11.787  14.876
94118W        W66444  27.459  42.973  14.272
94119W        W66445  28.115  27.012   0.926
94120W        W66446   9.921  40.525   2.673
94121W        W66447  19.179  16.381  10.670
94122W        W66448  32.135   5.831   2.174
94123W        W66449  20.172  37.084  13.799
94124W        W66450  28.783  44.181  14.334
94125W        W66451  30.140  29.070  10.915
94126W        W66452  20.580   7.611   3.287
94127W        W66453  17.021  27.513   3.666
94128W        W66454  32.002  30.346   1.639
94129W        W66455  16.729  35.590  12.844
94130W        W66456  39.968  38.796  11.090
94131W        W66457  44.714  20.947  11.971
94132W        W66458  13.898  41.274  11.715
94133W        W66459   2.845   3.748  11.151
94134W        W66460  36.517   3.203   0.777
94135W        W66461  24.219   0.889  13.483
94136W        W66462   0.593  16.401   2.378
94137W        W66463  22.532   7.926   1.684
94138W        W66464  13.407  36.463   1.236
94139W        W66465  19.071  26.789   0.664
94140W        W66466   8.300  14.367   4.933
94141W        W66467  19.210   1.316  12.363
94142W        W66468  18.133  36.333  14.983
94143W        W66469  33.984  19.523  11.948
94144W        W66470  14.620  26.679   0.813
94145W        W66471  10.086  44.290  13.254
94146W        W66472  43.395  23.465   1.256
94147W        W66473   5.849   6.141   4.142
94148W        W66474  32.100  44.474  10.517
94149W        W66475  17.777  16.256   2.266
94150W        W66476   5.961   3.730   2.374
94151W        W66477  29.638  40.138   1.375
94152W        W66478   7.229  15.300  14.259
94153W        W66479  21.831  41.532   2.229
94154W        W66480  10.459  22.821  11.099
94155W        W66481  26.015  35.479   4.710
94156W        W66482  33.512   3.337   4.478
94157W        W66483  28.660  24.973   0.144
94158W        W66484   2.768  12.556   4.661
94159W        W66485  23.594  27.618   0.721
94160W        W66486  30.398  13.406  11.628
94161W        W66487  11.806  18.594  12.866
94162W        W66488  35.008  43.730   4.315
94163W        W66489  15.684  24.126   3.393
94164W        W66490  39.878  22.593   4.895
94165W        W66491  17.213   7.080  11.905
94166W        W66492  27.267  14.923  12.527
94167W        W66493   1.924  12.594   4.160
94168W        W66494  11.135  19.975  11.506
94169W        W66495  26.252  14.893   3.762
94170W        W66496   2.981  27.924  13.062
94171W        W66497  15.848  40.642  14.505
94172W        W66498  22.468  15.677   2.163
94173W        W66499  43.300   3.876  13.385
94174W        W66500  14.221  41.532  10.274
94175W        W66501  21.061   7.681  11.583
94176W        W66502  13.829  44.112  11.590
94177W        W66503  15.363  34.526  14.535
94178W        W66504  42.428  21.746  10.596
94179W        W66505  30.619  37.461   3.224
94180W        W66506  32.483   5.180  12.144
94181W        W66507  43.795  35.570  14.210
94182W        W66508   8.309  34.895  10.416
94183W        W66509   9.757  13.263   4.344
94184W        W66510  28.554  28.255  10.984
94185W        W66511  40.846  40.292  11.227
94186W        W66512  10.653  17.142  11.510
94187W        W66513  26.055   0.561   4.679
94188W        W66514  15.770  11.807  11.598
94189W        W66515   2.839  20.454   0.852
94190W        W66516  30.545   4.390  11.435
94191W        W66517   9.211   5.313  10.409
94192W        W66518  41.832  11.287  11.944
94193W        W66519  39.715  44.174  12.432
94194W        W66520  14.963  43.303   0.915
94195W        W66521  40.336   3.865   4.104
94196W        W66522  14.883   9.161   3.426
94197W        W66523  25.266  39.977  14.014
94198W        W66524  16.276  18.002   4.111
94199W        W66525  27.052  26.644   0.342
94200W        W66526  36.568  21.556   0.458
94201W        W66527   1.660  37.199   4.841
94202W        W66528  33.039  30.407  13.971
94203W        W66529  23.713  41.455   4.970
94204W        W66530  10.895  20.600  13.479
94205W        W66531   6.797  22.457   0.262
94206W        W66532  17.767  32.087   1.784
94207W        W66533  14.030  15.119   4.533
94208W        W66534   1.769  36.339  13.848
94209W        W66535  16.290  20.115   2.348
94210W        W66536  12.722  32.777  12.861
94211W        W66537  43.412  35.553   3.929
94212W        W66538  12.612  44.510   0.834
94213W        W66539  41.838  27.462  14.452
94214W        W66540  23.015  12.580  12.073
94215W        W66541  36.069  18.008   4.062
94216W        W66542  31.117  41.397   0.190
94217W        W66543   1.818  28.487   1.360
94218W        W66544  16.116  36.339   1.314
94219W        W66545  21.500   2.022  13.906
94220W        W66546  13.414  44.398  11.895
94221W        W66547  35.221  31.887  14.658
94222W        W66548  21.730  17.148   9.887
94223W        W66549  44.794  29.975   0.889
94224W        W66550   0.592  41.854   4.127
94225W        W66551  41.253  29.614   2.384
94226W        W66552  34.400   0.285  13.403
94227W        W66553  44.058  34.282  11.833
94228W        W66554  23.520  44.448  12.366
94229W        W66555  24.449  10.378   0.833
94230W        W66556  42.757  14.366   4.111
94231W        W66557  38.644   4.010   1.942
94232W        W66558  26.963   8.354   0.213
94233W        W66559  19.160   0.027  11.874
94234W        W66560  31.847   8.859   1.328
94235W        W66561   4.723  19.149  11.142
94236W        W66562   0.992   0.144   3.175
94237W        W66563   7.349   9.792   0.330
94238W        W66564  14.615  19.638   2.689
94239W        W66565  16.783  44.633  14.855
94240W        W66566  29.656  15.872   3.809
94241W        W66567   3.005   9.226   2.937
94242W        W66568  19.394  22.263  14.823
94243W        W66569  31.022  35.683  10.744
94244W        W66570  20.746  22.174   1.887
94245W        W66571  15.004   1.457  10.814
94246W        W66572  37.051  26.258   4.143
94247W        W66573  21.018  22.055   2.302
94248W        W66574  25.903  21.716  14.478
94249W        W66575   6.954   9.272  11.567
94250W        W66576  34.077  22.224   1.817
94251W        W66577  37.879  14.317  12.029
94252W        W66578  35.574  12.291  13.838
94253W        W66579  18.753  22.533   3.850
94254W        W66580   6.441   6.667   0.864
94255W        W66581  44.234  17.178   2.297
94256W        W66582  10.928  44.539  13.545
94257W        W66583  24.572  28.669  13.400
94258W        W66584  28.043   4.228  14.867
94259W        W66585  40.518  10.435   1.856
94260W        W66586  26.874  25.082  13.863
94261W        W66587  28.816   9.377   1.809
94262W        W66588  29.580  40.075  14.610
94263W        W66589  31.947   9.175   2.816
94264W        W66590  23.212  19.269  14.822
94265W        W66591  37.003   3.743   1.784
94266W        W66592  18.574  10.198   2.398
94267W        W66593  41.830  38.984   0.008
94268W        W66594  44.352  30.171   3.099
94269W        W66595  44.931  42.846  13.777
94270W        W66596  40.238   5.836   1.292
94271W        W66597  10.812  21.095  10.768
94272W        W66598   1.984  42.117   1.488
94273W        W66599  34.346  10.101   3.253
94274W        W66600  13.030   8.849  14.793
94275W        W66601  33.948   0.481   1.056
94276W        W66602   6.735   8.685  12.871
94277W        W66603  24.453  19.454   2.546
94278W        W66604  36.464  37.391   2.647
94279W        W66605  32.116  13.041  10.302
94280W        W66606  35.419  33.316  11.089
94281W        W66607   3.660  43.626   4.790
94282W        W66608  39.796   1.946   3.697
94283W        W66609   2.136  21.921   2.866
94284W        W66610   3.128  43.228  12.525
94285W        W66611  41.239  40.115  13.606
94286W        W66612  30.622  36.026   2.623
94287W        W66613  22.479  43.937   4.702
94288W        W66614  40.824  34.869   0.974
94289W        W66615  44.741  16.183  10.713
94290W        W66616  11.736  31.492  10.575
94291W        W66617  12.112   6.761   0.981
94292W        W66618  14.718   0.989   3.857
94293W        W66619  29.974  36.395   3.832
94294W        W66620  43.441  29.678   0.498
94295W        W66621  13.225  43.086  14.465
94296W        W66622  27.086  29.396  11.164
94297W        W66623  17.054   8.857   3.715
94298W        W66624  37.583  30.596  10.628
94299W        W66625  36.800  20.783   2.847
94300W        W66626   9.563  36.269   2.327
94301W        W66627  18.954  12.919  11.785
94302W        W66628  28.098   4.759   1.776
94303W        W66629  23.201  27.619  14.905
94304W        W66630  24.164  37.677  11.158
94305W        W66631  35.839  29.458  11.193
94306W        W66632  27.260  38.391   2.390
94307W        W66633  14.991  36.446   1.317
94308W        W66634  27.668  18.779   4.880
94309W        W66635  32.077   7.323   0.905
94310W        W66636   8.283  22.308   3.155
94311W        W66637   9.281  20.227   3.568
94312W        W66638  31.841  26.028   3.256
94313W        W66639  44.831  35.662  11.337
94314W        W66640   0.009  42.850   1.437
94315W        W66641   2.464  13.633   4.806
94316W        W66642  17.486  26.680   2.442
94317W        W66643  20.521   2.123   1.866
94318W        W66644   0.408  43.866  10.573
94319W        W66645   6.921  21.156   1.808
94320W        W66646  17.338  28.445   4.366
94321W        W66647  15.704   8.813   0.679
94322W        W66648  39.421  21.011  13.157
94323W        W66649  30.907  42.717   5.140
94324W        W66650  20.148   7.143   1.832
94325W        W66651  38.111   8.717   1.403
94326W        W66652  28.483  29.586   0.630
94327W        W66653  14.160  28.063   2.821
94328W        W66654  37.101   7.419  11.535
94329W        W66655  20.939  38.925  13.844
94330W        W66656   7.284  41.551   0.929
94331W        W66657  27.441   3.914  11.522
94332W        W66658  37.583   8.622   1.417
94333W        W66659  15.145  19.875  14.491
94334W        W66660  17.148  43.050   2.194
94335W        W66661  41.680  28.510  11.626
94336W        W66662  22.233  20.983   3.352
94337W        W66663  18.761  12.450   1.760
94338W        W66664  15.755  10.826   4.709
94339W        W66665  34.630  10.793  13.787
94340W        W66666  44.089   1.014  12.598
94341W        W66667  27.971  39.885   2.890
94342W        W66668  31.428  31.639   1.916
94343W        W66669  21.119   9.060  13.620
94344W        W66670  41.875  21.024  11.759
94345W        W66671  38.268  20.602  12.614
94346W        W66672  20.367  43.215   5.183
94347W        W66673  32.243  29.686  10.717
94348W        W66674   6.919   9.142  14.930
94349W        W66675  33.610  19.161   4.638
94350W        W66676  20.677   6.943  10.500
94351W        W66677  39.052  21.258   3.548
94352W        W66678  36.527   8.950   2.397
94353W        W66679   7.009  39.083  14.509
94354W        W66680  26.592   4.340   4.549
94355W        W66681  20.074  29.714  13.817
94356W        W66682  26.716  44.463  10.437
94357W        W66683  11.084   5.695  11.445
94358W        W66684  30.465  16.560   4.194
94359W        W66685   2.239  13.690   0.334
94360W        W66686  32.933   6.599   4.159
94361W        W66687  28.085  37.119  14.759
94362W        W66688   6.771   1.648   0.877
94363W        W66689   8.362  25.894   0.307
94364W        W66690  19.667  33.590  14.723
94365W        W66691  37.900  36.048  12.517
94366W        W66692  40.210  11.345   4.756
94367W        W66693   5.182  36.618   3.626
94368W        W66694   6.846   9.754   0.351
94369W        W66695  43.366  25.069   2.281
94370W        W66696   3.440  26.381  11.934
94371W        W66697  35.577  31.079  12.631
94372W        W66698  21.521  10.793  10.883
94373W        W66699  41.564  41.969   3.376
94374W        W66700  40.511  26.902   4.158
94375W        W66701  13.642  23.782  11.940
94376W        W66702  33.405   2.864  14.326
94377W        W66703  10.247   3.824   0.618
94378W        W66704  27.878  11.242   4.091
94379W        W66705   5.444  18.243   2.923
94380W        W66706  43.373  27.670   0.566
94381W        W66707  10.432   1.302  14.276
94382W        W66708  38.432   1.128   1.442
94383W        W66709   0.351   1.187  12.417
94384W        W66710  11.626  29.650  14.419
94385W        W66711  15.643  12.839   0.208
94386W        W66712  19.031  21.309  14.907
94387W        W66713   4.297   2.207   3.322
94388W        W66714  30.607   6.158  13.930
94389W        W66715  19.595  21.098  13.808
94390W        W66716  28.695   5.656  14.337
94391W        W66717  39.169  35.657  13.048
94392W        W66718  16.225  13.796  12.448
94393W        W66719  13.607   4.893   2.789
94394W        W66720   7.355  22.497   2.656
94395W        W66721  42.890  33.921  12.692
94396W        W66722   7.143  33.114   4.535
94397W        W66723  16.746  42.768   2.394
94398W        W66724   8.927  10.777  14.465
94399W        W66725  34.131   6.759   2.679
94400W        W66726  13.328  32.039   2.709
94401W        W66727  22.710  13.293  11.654
94402W        W66728  17.912  30.205  13.673
94403W        W66729  41.760  12.654  13.587
94404W        W66730  44.774  36.947   2.254
94405W        W66731  28.241  41.363   2.834
94406W        W66732  19.280  12.969  13.864
94407W        W66733  21.253  23.870   3.487
94408W        W66734   1.033   5.943  14.039
94409W        W66735  41.477   1.056   3.590
94410W        W66736   8.749  29.171   0.362
94411W        W66737  24.036   2.908   2.382
94412W        W66738   0.775   8.303   3.291
94413W        W66739  30.302  13.613   3.553
94414W        W66740  10.353   6.320  11.637
94415W        W66741   5.102  39.375  12.526
94416W        W66742  35.350  34.351   4.183
94417W        W66743  43.953  25.469   0.790
94418W        W66744   3.797   1.989   0.150
94419W        W66745  38.411  22.167  11.957
94420W        W66746  15.027   7.686  12.966
94421W        W66747  22.182  16.851   0.394
94422W        W66748  44.466  10.294   4.088
94423W        W66749  11.734   2.435   3.827
94424W        W66750  12.640  14.356  13.820
94425W        W66751  12.845  43.406  11.196
94426W        W66752   0.173   6.869   3.835
94427W        W66753   5.630  33.684  13.461
94428W        W66754  42.734   0.895   0.144
94429W        W66755  43.198  15.472  14.581
94430W        W66756  27.053  28.099  13.942
94431W        W66757  11.822  17.640  14.164
94432W        W66758  44.943  11.809   4.918
94433W        W66759   7.818  42.777   2.247
94434W        W66760  25.972  31.030  13.786
94435W        W66761  36.090  13.428  10.133
94436W        W66762  19.135  44.809  12.855
94437W        W66763  24.059  15.154   4.482
94438W        W66764  32.261  23.531  10.645
94439W        W66765  40.069  40.999  14.018
94440W        W66766  24.497  17.126  12.513
94441W        W66767  27.987  36.480   2.283
94442W        W66768  21.497  31.661   1.154
94443W        W66769  44.614  37.459   5.091
94444W        W66770   1.476   7.575  13.537
94445W        W66771   8.133  16.884  10.847
94446W        W66772   1.238  28.575  14.291
94447W        W66773  38.433  42.259  13.006
94448W        W66774  25.529  19.800  11.050
94449W        W66775  32.365  28.080  13.358
94450W        W66776   4.583  44.245   1.325
94451W        W66777  11.091   7.892   4.636
94452W        W66778   7.206  43.278   0.699
94453W        W66779  37.595  34.781  13.858
94454W        W66780  18.998   0.949   2.460
94455W        W66781  43.565   4.194  10.892
94456W        W66782   7.157   4.287   2.675
94457W        W66783   8.114  34.795  11.423
94458W        W66784  13.645  30.540  14.917
94459W        W66785  12.288  13.013  10.913
94460W        W66786  15.606  44.965  11.977
94461W        W66787   6.649   2.023  10.615
94462W        W66788  14.865  36.685   1.844
94463W        W66789   0.723  17.716  11.140
94464W        W66790   3.265  34.782   1.079
94465W        W66791   0.836  31.850   0.958
94466W        W66792  37.758  40.968  11.576
94467W        W66793  21.369  18.525  13.510
94468W        W66794  44.802  43.263   4.261
94469W        W66795  34.327  30.485  13.213
94470W        W66796  11.336   7.168  12.740
94471W        W66797   2.906  41.052  14.830
94472W        W66798   2.438  15.746  12.430
94473W        W66799   5.230  25.662   1.102
94474W        W66800  42.081  21.425   4.171
94475W        W66801   2.437  12.886   1.397
94476W        W66802  24.244  19.306   1.941
94477W        W66803  36.650  10.685   1.966
94478W        W66804  14.892  20.874   4.490
94479W        W66805  18.427  26.925  13.814
94480W        W66806  20.075   3.836   3.701
94481W        W66807   0.444  28.885  14.391
94482W        W66808  16.054   0.063   1.354
94483W        W66809  23.705   9.640   3.406
94484W        W66810   3.964  33.641  11.615
94485W        W66811  31.707  18.922   0.681
94486W        W66812   9.936  28.663   3.421
94487W        W66813  36.909  29.356   3.144
94488W        W66814  31.012  16.620  12.673
94489W        W66815  27.649  37.399   3.272
94490W        W66816  37.369   4.042  13.310
94491W        W66817  14.274  12.035  13.590
94492W        W66818  16.837   5.322   0.842
94493W        W66819   3.780  20.923   0.725
94494W        W66820  38.293  14.245  12.901
94495W        W66821  42.950  27.972   4.316
94496W        W66822  26.909   9.696  14.044
94497W        W66823  21.178  10.756  14.980
94498W        W66824  21.903  32.976   2.861
94499W        W66825  20.804   4.102   4.280
94500W        W66826  44.232  31.126  14.967
94501W        W66827  44.498  34.495   1.200
94502W        W66828  40.157  35.527  13.027
94503W        W66829  21.303  38.791   1.223
94504W        W66830   1.996  32.122   2.819
94505W        W66831  23.803  22.647  13.158
94506W        W66832  36.328  20.162   1.375
94507W        W66833  27.030   5.888   2.905
94508W        W66834  27.288  37.800   0.506
94509W        W66835  12.112  15.813  14.406
94510W        W66836  25.541  33.763   2.320
94511W        W66837   4.415  27.694   0.509
94512W        W66838  14.496  23.161   4.099
94513W        W66839  23.326  22.772  10.755
94514W        W66840  44.509  15.585  14.389
94515W        W66841  11.481  14.409  13.284
94516W        W66842   0.524  20.130   3.180
94517W        W66843  31.504  36.834   0.865
94518W        W66844  12.612  41.810  13.418
94519W        W66845  41.489  37.437  11.582
94520W        W66846   0.438  29.549  11.013
94521W        W66847   1.329  37.741  12.059
94522W        W66848  29.577  24.839   0.429
94523W        W66849  12.784  32.972  10.598
94524W        W66850  25.043  18.184  10.322
94525W        W66851   4.409  22.233  11.590
94526W        W66852  17.080  27.567  12.177
94527W        W66853  36.907  26.475   4.660
94528W        W66854  39.421  15.223   0.980
94529W        W66855   7.916  40.249   3.629
94530W        W66856   7.441  17.675   1.402
94531W        W66857   4.207   6.227  11.466
94532W        W66858  16.565  42.929  10.058
94533W        W66859  14.064  21.945   1.737
94534W        W66860  26.672  18.964  11.093
94535W        W66861  20.152  35.433  10.673
94536W        W66862  28.593   6.371  13.919
94537W        W66863  12.123  25.181   4.652
94538W        W66864  33.632  13.432   2.609
94539W        W66865  14.252  44.390   3.439
94540W        W66866  19.267  43.354  13.253
94541W        W66867  18.313  20.591  12.489
94542W        W66868  43.279  38.971   1.170
94543W        W66869  41.097  29.149  14.283
94544W        W66870  21.050   5.255  13.565
94545W        W66871  19.740   9.869  11.962
94546W        W66872  30.512  23.311  11.042
94547W        W66873  35.367  13.196  12.901
94548W        W66874  43.593  44.667  10.897
94549W        W66875  30.106  38.930  11.077
94550W        W66876   0.419  21.269   4.916
94551W        W66877  18.720   2.029   0.988
94552W        W66878   4.775   8.817  14.228
94553W        W66879  25.862  21.182  14.507
94554W        W66880  39.501  18.112   2.287
94555W        W66881  40.569  20.543   3.925
94556W        W66882  26.088  44.306  13.227
94557W        W66883  19.811  16.008  13.318
94558W        W66884   0.813   7.981  10.781
94559W        W66885  17.560   3.192  13.395
94560W        W66886   9.438  38.931   4.914
94561W        W66887   7.163   0.628  13.721
94562W        W66888  28.192  17.763   1.240
94563W        W66889  27.812  19.953  11.178
94564W        W66890  12.664  38.576  13.915
94565W        W66891  23.056  24.009  10.658
94566W        W66892  35.924  43.500   1.833
94567W        W66893  26.101  43.902   1.949
94568W        W66894  17.875  31.421   2.158
94569W        W66895  42.012   8.311   0.774
94570W        W66896  23.354  18.289  11.974
94571W        W66897  23.902  15.077  10.078
94572W        W66898  15.529  10.769   2.863
94573W        W66899  32.119   1.835   3.040
94574W        W66900  18.708  15.714   0.437
94575W        W66901  42.896  42.018  11.579
94576W        W66902  30.729  15.671   2.449
94577W        W66903  19.808   0.803  10.720
94578W        W66904  32.053  29.414   3.874
94579W        W66905  34.259   0.880   1.191
94580W        W66906  36.000  31.644   0.806
94581W        W66907  40.029  12.058   0.325
94582W        W66908  34.555   1.127   1.942
94583W        W66909  26.687  34.177  14.035
94584W        W66910  30.506  13.351   1.517
94585W        W66911  32.695  43.058   2.163
94586W        W66912  39.136   1.971  10.251
94587W        W66913   3.234  11.684  14.885
94588W        W66914  29.955   0.658   0.263
94589W        W66915  15.605  42.839  12.405
94590W        W66916  26.877  33.230  14.899
94591W        W66917   8.814  25.608   4.676
94592W        W66918  12.840  31.858   0.931
94593W        W66919   2.249   2.262   4.865
94594W        W66920  34.024   1.687   4.878
94595W        W66921  42.213  23.685   2.599
94596W        W66922  43.255  32.069   0.232
94597W        W66923   9.618  33.019  14.897
94598W        W66924  38.600   3.220  11.074
94599W        W66925  41.571  38.619  10.582
94600W        W66926  25.182  26.661  12.012
94601W        W66927  22.109  13.338   2.742
94602W        W66928   1.476  26.476  14.367
94603W        W66929   8.871  21.202   3.134
94604W        W66930  10.381  30.009  10.396
94605W        W66931  22.478  35.309   2.615
94606W        W66932  43.037   3.382   1.258
94607W        W66933   0.393  28.079   0.963
94608W        W66934  28.100   9.244   3.142
94609W        W66935   5.488  14.385  13.841
94610W        W66936  26.963   0.675  12.047
94611W        W66937  19.222   7.134  10.733
94612W        W66938  40.513  22.793   4.172
94613W        W66939  26.584  26.908   2.285
94614W        W66940  22.912  36.424   0.684
94615W        W66941  39.950  39.413  12.327
94616W        W66942  17.566  36.408   4.225
94617W        W66943  11.904  42.937  10.102
94618W        W66944  26.506  22.352  13.279
94619W        W66945   7.828  18.375   4.576
94620W        W66946  12.280  25.455   3.717
94621W        W66947  22.399   1.492   0.757
94622W        W66948  11.325  21.003  11.511
94623W        W66949  32.911  11.405  11.481
94624W        W66950  35.080  25.019  13.433
94625W        W66951  27.500   7.898   0.442
94626W        W66952  40.284   7.680   2.147
94627W        W66953   7.721  18.241  12.039
94628W        W66954  37.028  32.584   2.171
94629W        W66955   6.336   0.055  13.122
94630W        W66956  28.105  25.509   0.888
94631W        W66957   8.431   6.241  14.721
94632W        W66958  34.712  34.571  12.556
94633W        W66959  22.027  32.905   4.634
94634W        W66960  15.745   9.833  12.575
94635W        W66961  41.404  38.276  12.013
94636W        W66962  10.371  37.507   2.343
94637W        W66963  41.741   2.937   2.636
94638W        W66964  11.123   4.314   2.176
94639W        W66965   3.341  13.646  12.655
94640W        W66966   3.816   7.195   2.438
94641W        W66967  16.691   8.387  13.550
94642W        W66968  20.169  13.400   1.610
94643W        W66969  23.054  30.536   1.311
94644W        W66970   4.454  35.932  10.685
94645W        W66971   0.865  21.541   2.892
94646W        W66972  39.896  15.100  12.521
94647W        W66973   0.797  41.001  13.139
94648W        W66974   0.237  29.818   4.441
94649W        W66975  14.094  42.491  11.898
94650W        W66976   2.059  10.725   0.819
94651W        W66977  30.292  40.524  13.973
94652W        W66978   7.591  19.662  10.581
94653W        W66979   1.332  24.433  10.652
94654W        W66980  19.190  42.836  10.559
94655W        W66981  26.716   1.003  12.385
94656W        W66982  17.505  27.721   3.167
94657W        W66983   6.191  14.836  14.080
94658W        W66984  11.503  37.874   4.352
94659W        W66985  12.700  26.121   1.654
94660W        W66986   3.634  15.767   3.352
94661W        W66987  37.859   1.406  14.932
94662W        W66988  16.990  34.096   2.365
94663W        W66989  42.188  43.062   2.596
94664W        W66990   4.867  23.710   3.086
94665W        W66991  24.951  42.069   1.905
94666W        W66992  17.307  36.675  10.756
94667W        W66993  29.817  39.904   3.210
94668W        W66994  21.520  27.996   4.139
94669W        W66995   4.978  12.372   1.943
94670W        W66996  28.589  37.759  12.761
94671W        W66997  35.484  13.222  11.399
94672W        W66998  35.895  18.164  11.219
94673W        W66999  39.946  13.108  13.552
94674W        W67000  17.863  27.569   1.826
94675W        W67001   4.378   1.281  11.918
94676W        W67002  32.986  16.858  12.461
94677W        W67003  44.403  42.729  14.018
94678W        W67004  13.369  37.856  13.064
94679W        W67005  10.870  17.647   2.126
94680W        W67006  17.571  27.081   4.156
94681W        W67007  23.522  41.404  12.076
94682W        W67008  23.814  25.810  14.380
94683W        W67009  24.565  30.589   2.332
94684W        W67010  20.240  32.646  13.514
94685W        W67011  10.342  42.072  14.431
94686W        W67012  29.539  37.562   4.017
94687W        W67013  10.263  32.613   4.203
94688W        W67014  41.845  12.560   0.017
94689W        W67015  40.339  34.269   4.028
94690W        W67016  36.617  15.638   3.866
94691W        W67017   6.839   9.710  13.111
94692W        W67018  43.873  22.389   4.814
94693W        W67019  12.023  30.011   0.883
94694W        W67020  24.107  41.875  11.567
94695W        W67021  29.529  23.577   3.228
94696W        W67022  14.195  32.885  14.913
94697W        W67023  22.577  21.535  12.486
94698W        W67024  43.238   8.378  13.503
94699W        W67025  31.552  19.126   0.041
94700W        W67026  20.935   3.676   3.524
94701W        W67027  43.366  13.566  10.900
94702W        W67028  13.271  41.037   1.787
94703W        W67029   8.161   1.655   4.568
94704W        W67030  35.648  35.609  10.483
94705W        W67031   2.147  17.553   1.671
94706W        W67032  20.693  16.534  13.533
94707W        W67033   3.341  21.950  12.805
94708W        W67034  24.547   4.525  12.892
94709W        W67035  17.322  12.790  11.871
94710W        W67036  26.334   6.364  14.360
94711W        W67037   3.862  22.321  14.464
94712W        W67038  42.345  39.437   1.900
94713W        W67039  39.423   5.476   2.009
94714W        W67040  24.260  12.475  11.510
94715W        W67041  16.818  25.745  12.389
94716W        W67042   4.832  38.208   1.129
94717W        W67043  44.745  24.267   3.187
94718W        W67044  13.622  22.246   4.090
94719W        W67045  14.455   2.806   1.409
94720W        W67046  36.325   5.906   2.316
94721W        W67047  16.161  23.810  14.365
94722W        W67048  26.249  44.805   1.247
94723W        W67049  38.493  35.642  13.649
94724W        W67050  27.869  19.177  12.431
94725W        W67051   7.434  12.124   0.784
94726W        W67052  32.584  44.556  11.214
94727W        W67053  39.588  26.432   2.379
94728W        W67054  19.028  28.530  11.109
94729W        W67055  38.835   6.179  14.728
94730W        W67056  10.051   8.675   4.767
94731W        W67057   8.334  23.600   0.823
94732W        W67058  40.555  42.766   0.410
94733W        W67059   4.654   8.261  12.264
94734W        W67060   5.936  35.653   4.885
94735W        W67061  17.069  36.168  12.749
94736W        W67062  41.906  35.201   1.474
94737W        W67063  15.294  27.105  13.556
94738W        W67064  27.505  30.473  13.310
94739W        W67065  43.679  25.389  13.894
94740W        W67066  21.130  18.811  11.712
94741W        W67067  13.585  24.455   2.198
94742W        W67068  19.208  30.515   4.450
94743W        W67069  42.054  16.119   2.408
94744W        W67070  32.584  39.306   3.777
94745W        W67071  28.282  28.076   2.764
94746W        W67072  43.314  33.551  11.119
94747W        W67073  11.772  28.418  13.983
94748W        W67074  35.931  44.255  12.765
94749W        W67075  13.502   3.453   4.029
94750W        W67076  15.263  33.527  13.490
94751W        W67077   0.344  33.060   4.578
94752W        W67078  35.324  36.981  14.323
94753W        W67079   6.890  29.070  14.794
94754W        W67080  23.977  22.957   0.807
94755W        W67081   1.182  26.910  14.344
94756W        W67082  11.052  11.756   4.566
94757W        W67083  28.780   9.933   0.942
94758W        W67084  39.479  25.753  12.835
94759W        W67085  19.483  32.453  13.339
94760W        W67086  30.746  31.932   2.996
94761W        W67087   5.187  25.415   2.525
94762W        W67088   7.395  25.043   1.790
94763W        W67089  20.334  37.452   0.305
94764W        W67090  27.434   8.424  13.903
94765W        W67091  26.115  31.617  13.077
94766W        W67092   4.214  37.610   1.838
94767W        W67093  18.930  26.491  14.461
94768W        W67094  17.680  19.034   1.534
94769W        W67095  22.583  23.145   3.752
94770W        W67096   7.000   9.058   2.736
94771W        W67097  32.954   5.844   3.504
94772W        W67098  34.091  22.156  13.058
94773W        W67099  20.177   3.365  10.406
94774W        W67100  25.841  33.590  12.867
94775W        W67101   0.471   3.429   1.171
94776W        W67102  24.011   7.388   0.440
94777W        W67103  22.632  25.732  10.554
94778W        W67104  15.756  44.552   0.844
94779W        W67105  36.007  17.295   4.523
94780W        W67106   9.528  37.710  10.880
94781W        W67107   9.148  26.729  12.164
94782W        W67108  37.158  17.186  12.991
94783W        W67109  10.933  33.021   3.793
94784W        W67110  33.654   0.940  13.005
94785W        W67111  19.288  15.124   1.771
94786W        W67112  31.170   7.498   4.035
94787W        W67113  32.553  29.315   2.947
94788W        W67114  17.297  17.027   2.983
94789W        W67115  14.003  32.305   4.597
94790W        W67116  32.785  21.241   3.060
94791W        W67117  15.108  44.662   4.082
94792W        W67118  39.363  38.069  14.921
94793W        W67119  26.747  36.058  14.888
94794W        W67120  14.212  18.073   4.228
94795W        W67121   0.100  40.402  13.372
94796W        W67122  37.386   8.607   2.918
94797W        W67123  43.559  34.812   3.460
94798W        W67124  28.078   2.843   3.649
94799W        W67125  38.386  14.302   0.413
94800W        W67126  18.618  21.437   2.435
94801W        W67127  19.782  34.485  14.966
94802W        W67128  34.640  41.534  11.670
94803W        W67129  17.634  35.327  14.372
94804W        W67130  30.963  18.939  12.474
94805W        W67131   2.674  30.646   0.131
94806W        W67132  26.491  31.433   3.707
94807W        W67133  13.292  14.122  13.185
94808W        W67134  12.596  33.644   2.356
94809W        W67135  35.856  31.504  12.508
94810W        W67136  33.613  30.451   2.406
94811W        W67137  18.735   2.985   3.419
94812W        W67138  32.865  10.880  11.534
94813W        W67139   3.452  15.549  13.485
94814W        W67140  43.428  10.289   1.519
94815W        W67141  30.943  42.305   2.739
94816W        W67142  22.936  38.734   1.726
94817W        W67143  22.570   1.163   3.862
94818W        W67144  28.572  30.335  11.049
94819W        W67145   2.245  30.927   3.821
94820W        W67146  39.803  23.180  13.685
94821W        W67147  35.589   1.925   4.954
94822W        W67148  20.964  36.078   0.872
94823W        W67149  36.077  19.207   2.671
94824W        W67150  10.447   8.759  12.020
94825W        W67151  20.700  19.551  10.883
94826W        W67152  32.070  18.307   2.401
94827W        W67153  14.617  23.197   0.456
94828W        W67154  27.141  15.578   1.347
94829W        W67155  32.663  40.209  11.550
94830W        W67156  33.245  21.715   4.440
94831W        W67157  30.900  18.466  13.331
94832W        W67158  37.314  35.800  11.677
94833W        W67159  15.309  13.803  13.784
94834W        W67160  10.124  21.700  14.224
94835W        W67161  10.917  19.022   2.107
94836W        W67162  18.914   3.136  13.520
94837W        W67163   7.969  29.082  14.932
94838W        W67164  18.290  23.163  10.765
94839W        W67165   3.274   3.293   2.138
94840W        W67166  33.968   3.647   1.649
94841W        W67167  18.490  40.899  14.368
94842W        W67168  30.262  10.708   4.365
94843W        W67169   0.332  27.402  12.575
94844W        W67170  40.398  27.681   1.729
94845W        W67171  31.196  23.261   0.518
94846W        W67172  11.281   2.981   0.514
94847W        W67173  13.871   2.434  10.655
94848W        W67174  33.453  32.162  10.746
94849W        W67175  11.881  41.449   1.808
94850W        W67176  10.559   5.292   2.182
94851W        W67177  16.333  10.561  12.429
94852W        W67178  41.588  10.180   3.704
94853W        W67179  31.256  11.782  13.060
94854W        W67180  39.285  36.635  10.008
94855W        W67181  13.756  17.061   2.397
94856W        W67182   1.519  22.104  12.385
94857W        W67183   7.708   3.942   0.436
94858W        W67184  11.367  32.416  12.711
94859W        W67185  24.773   0.905  12.569
94860W        W67186  10.812   5.798   5.129
94861W        W67187  35.633  31.624   4.797
94862W        W67188  21.234  37.671   4.567
94863W        W67189  13.243  14.099   3.132
94864W        W67190  20.111  21.052   0.929
94865W        W67191  35.387  33.064   0.829
94866W        W67192  28.074  10.841   2.224
94867W        W67193  40.252  39.814  12.528
94868W        W67194   7.194  42.050  14.330
94869W        W67195   5.819  12.657   1.365
94870W        W67196  26.917  41.964  14.956
94871W        W67197  32.566  30.470   2.472
94872W        W67198   7.725  29.543   4.879
94873W        W67199  34.992  23.997   4.954
94874W        W67200   7.679   3.001   2.767
94875W        W67201  20.681  35.613  11.384
94876W        W67202  21.595   5.946   1.805
94877W        W67203  42.796  20.064   1.835
94878W        W67204  35.578  15.567   3.749
94879W        W67205  11.391  20.157   0.954
94880W        W67206   5.259  12.876  13.874
94881W        W67207   8.055   4.642  13.444
94882W        W67208  24.070  26.359   5.364
94883W        W67209  24.078  32.399   2.769
94884W        W67210  28.709   2.396  14.906
94885W        W67211  40.057  10.061  10.794
94886W        W67212  16.020  43.393  14.046
94887W        W67213  37.204   8.440   0.301
94888W        W67214   7.906  19.737  12.485
94889W        W67215  29.157  28.519  13.888
94890W        W67216  11.365  12.827   0.387
94891W        W67217   1.737  39.750   0.989
94892W        W67218  27.930  22.654  13.435
94893W        W67219  25.782   0.770   1.730
94894W        W67220  10.790  18.597  12.950
94895W        W67221   0.272  20.038   0.297
94896W        W67222  36.560   0.435  12.396
94897W        W67223  25.234  31.528  12.140
94898W        W67224  22.661  31.682   3.707
94899W        W67225   7.914  28.122   4.609
94900W        W67226  11.758   2.915  14.553
94901W        W67227   9.217  21.123  13.540
94902W        W67228  38.510   9.183  12.042
94903W        W67229  18.156   7.166  10.830
94904W        W67230  36.611  25.232  11.077
94905W        W67231  15.195  39.878  14.575
94906W        W67232  14.047  16.079   4.562
94907W        W67233  21.033  25.147  10.606
94908W        W67234  44.465  17.809  10.675
94909W        W67235   2.144  17.094   5.014
94910W        W67236  24.200  36.409   4.543
94911W        W67237  41.369   5.540   1.867
94912W        W67238   5.647  26.473  10.652
94913W        W67239   9.298   1.862   4.133
94914W        W67240   9.232  11.658  12.429
94915W        W67241  38.953  42.783  11.090
94916W        W67242  21.143  43.042  12.896
94917W        W67243  30.441  26.117   0.307
94918W        W67244  25.034  32.452  11.643
94919W        W67245  35.588  12.150  10.253
94920W        W67246  10.057  37.118  11.206
94921W        W67247  10.900  31.461  14.885
94922W        W67248  30.740  22.131  14.963
94923W        W67249  44.671   1.779  10.671
94924W        W67250   4.239  36.578   1.867
94925W        W67251  38.865   4.367   0.004
94926W        W67252  41.847  20.738   0.088
94927W        W67253  31.517   9.226  10.632
94928W        W67254  17.859  16.641  12.492
94929W        W67255  14.695  35.371   4.987
94930W        W67256  14.572  10.795   3.734
94931W        W67257  22.199   0.049  11.061
94932W        W67258  13.354  14.725   1.410
94933W        W67259  24.085  19.776   2.809
94934W        W67260  29.939   1.751  13.826
94935W        W67261   3.133  31.150   1.884
94936W        W67262  26.023   0.371  14.236
94937W        W67263  29.957   1.721   3.000
94938W        W67264  36.589   8.287  13.516
94939W        W67265  19.988   9.360   2.662
94940W        W67266  37.821  27.106   0.868
94941W        W67267  43.165  43.908  13.859
94942W        W67268   7.933  16.505  11.602
94943W        W67269   7.924   2.140  14.341
94944W        W67270   5.690  26.991   3.573
94945W        W67271  17.627  22.616  13.145
94946W        W67272  42.850  30.188   3.696
94947W        W67273  32.590  44.868  12.564
94948W        W67274  17.915  28.935   2.674
94949W        W67275   9.642  12.984  11.170
94950W        W67276  44.584  35.843  12.046
94951W        W67277   3.242   9.288  10.732
94952W        W67278   1.469   8.308   3.983
94953W        W67279  40.048  18.513  12.646
94954W        W67280  12.366  16.337   3.043
94955W        W67281  23.936   7.188  12.828
94956W        W67282  18.849  44.317   4.269
94957W        W67283   0.196  14.142   3.000
94958W        W67284  26.729  42.881   0.438
94959W        W67285  23.258  38.623  14.756
94960W        W67286   0.295  14.707  10.653
94961W        W67287  22.593   5.754   3.432
94962W        W67288  24.037  39.282  13.813
94963W        W67289   6.234   2.741  14.044
94964W        W67290   0.075   6.167   0.762
94965W        W67291  14.735   9.628   0.965
94966W        W67292  15.031   4.708  14.390
94967W        W67293  25.103   1.121  13.815
94968W        W67294  44.373   1.007  11.132
94969W        W67295  35.162  39.706  11.114
94970W        W67296  27.672  27.436   2.140
94971W        W67297   9.873  19.594   3.041
94972W        W67298   9.859   9.506  11.065
94973W        W67299   0.302   9.880   3.763
94974W        W67300  10.381   0.071   0.183
94975W        W67301   5.938   2.822  11.611
94976W        W67302  39.495  29.876  13.536
94977W        W67303  13.226   7.624   1.783
94978W        W67304   1.066  16.730   1.169
94979W        W67305  15.024  25.300   3.328
94980W        W67306  20.536  34.885  14.777
94981W        W67307  12.354  11.296   4.280
94982W        W67308  39.989  40.402   2.637
94983W        W67309  22.907  20.032  12.355
94984W        W67310  24.643  33.297   3.320
94985W        W67311  20.243  33.156   3.287
94986W        W67312   9.259  29.186  12.039
94987W        W67313  41.553  42.418   2.677
94988W        W67314  15.617   2.005   4.101
94989W        W67315  16.164  21.618   4.772
94990W        W67316  22.274  29.474  14.282
94991W        W67317  25.538  39.415   3.799
94992W        W67318  39.125  28.440   3.283
94993W        W67319  22.616  37.601   1.700
94994W        W67320  37.211  11.248  14.934
94995W        W67321  13.681  36.312  11.606
94996W        W67322   4.550   5.217  13.390
94997W        W67323  20.483  11.165  11.601
94998W        W67324  11.555  17.256  13.234
94999W        W67325  41.409  35.909  13.892
95000W        W67326  31.907  23.490  12.570
95001W        W67327  23.213  37.964   4.700
95002W        W67328  32.486   6.227  12.864
95003W        W67329   1.250  24.471   1.811
95004W        W67330  36.869   1.670   3.160
95005W        W67331  35.910  12.704   3.097
95006W        W67332  37.174  11.747  13.956
95007W        W67333  22.768  26.775  10.809
95008W        W67334  21.619  35.313   4.378
95009W        W67335  33.450  29.616   4.549
95010W        W67336  33.988   7.161   0.488
95011W        W67337  33.561   1.531   1.962
95012W        W67338  19.110  29.513  12.603
95013W        W67339  30.133  42.477   2.314
95014W        W67340  36.430  39.806   2.679
95015W        W67341  43.269  20.290  13.628
95016W        W67342  13.721   2.568  14.514
95017W        W67343   8.050   7.257   0.167
95018W        W67344  21.833  16.788  12.887
95019W        W67345  24.559  34.378  13.402
95020W        W67346   9.404  30.440   0.475
95021W        W67347   5.197  29.689  14.815
95022W        W67348   0.350  39.971   4.165
95023W        W67349  37.872  16.913   1.032
95024W        W67350  21.282  43.824  12.446
95025W        W67351  41.385  14.886  14.032
95026W        W67352  36.724  12.314   1.603
95027W        W67353  35.144  27.446  14.440
95028W        W67354  34.422  16.591   4.915
95029W        W67355   7.804  33.581  12.973
95030W        W67356  15.710   0.746   3.620
95031W        W67357  42.809  15.686   2.856
95032W        W67358   0.475  15.723   4.540
95033W        W67359  26.097   5.162  13.079
95034W        W67360  19.596   3.016  11.996
95035W        W67361  42.575  13.434   2.733
95036W        W67362  44.985  11.906   1.316
95037W        W67363  18.571  30.022   1.468
95038W        W67364   6.053  18.736  11.854
95039W        W67365  31.538   6.171  13.862
95040W        W67366  43.990  37.064  13.360
95041W        W67367   4.863  11.506   9.917
95042W        W67368  35.625  23.210  11.282
95043W        W67369   3.881  37.241   0.461
95044W        W67370   5.244  34.982  13.611
95045W        W67371  41.623  28.981  11.824
95046W        W67372  18.528   6.257   4.117
95047W        W67373  32.121  39.753  12.970
95048W        W67374   6.116  20.732   1.617
95049W        W67375  42.254   1.888  10.807
95050W        W67376  26.124   6.451  13.874
95051W        W67377  40.339  18.636   0.410
95052W        W67378  38.477  11.834   0.493
95053W        W67379   1.080  29.638  10.373
95054W        W67380  23.391   9.387   4.666
95055W        W67381  18.076  27.667  11.976
95056W        W67382  31.012  44.784  14.438
95057W        W67383  40.337  13.552   1.958
95058W        W67384  39.973   7.393   4.274
95059W        W67385   8.389  18.047   2.762
95060W        W67386  37.466  33.870  13.661
95061W        W67387  34.377  12.239  14.244
95062W        W67388  44.565  27.764   1.941
95063W        W67389   3.219  19.162  11.185
95064W        W67390   2.776   0.515  12.150
95065W        W67391  41.553   6.720  10.712
95066W        W67392  29.044  27.741  11.521
95067W        W67393   0.243  39.924   0.093
95068W        W67394  16.116  43.467  12.617
95069W        W67395  27.526  43.005   3.716
95070W        W67396  20.044  31.484  14.697
95071W        W67397  27.870   6.833  14.336
95072W        W67398  34.779  31.173   4.057
95073W        W67399  19.124  15.860   2.267
95074W        W67400  12.619   8.378  11.827
95075W        W67401  37.360  20.119  14.186
95076W        W67402  26.812   2.630   3.471
95077W        W67403  11.244  27.895   2.270
95078W        W67404  33.323   2.394   3.279
95079W        W67405  36.147  25.413  10.773
95080W        W67406  40.019  19.306  12.192
95081W        W67407  26.556  12.692  14.825
95082W        W67408   2.841  44.355   4.107
95083W        W67409  18.620   5.401  11.527
95084W        W67410  28.795  28.231   2.774
95085W        W67411  39.514   6.480   1.695
95086W        W67412  26.197  22.744  13.139
95087W        W67413   8.023   4.396   4.467
95088W        W67414  41.389  29.417  14.628
95089W        W67415  28.109  16.649   3.947
95090W        W67416  43.738  37.679  12.588
95091W        W67417  36.461  31.283   3.269
95092W        W67418   6.619   8.269  12.023
95093W        W67419  37.617  28.753   4.190
95094W        W67420  20.993  42.285  11.757
95095W        W67421  41.591  21.277  14.422
95096W        W67422  31.889  10.986  13.957
95097W        W67423  17.627  43.291   4.538
95098W        W67424   9.856   3.021   4.021
95099W        W67425  44.693  40.078  13.472
95100W        W67426  13.192  21.645   2.684
95101W        W67427  20.288  19.167   2.700
95102W        W67428   8.117   9.653  13.842
95103W        W67429  38.107   5.259  13.336
95104W        W67430  29.853  28.010  13.611
95105W        W67431  33.478  38.890   2.309
95106W        W67432  29.793   2.734  10.733
95107W        W67433   5.969   2.328   4.952
95108W        W67434  20.670  39.837   2.590
95109W        W67435  22.235  42.278  13.432
95110W        W67436  38.598   6.955  12.968
95111W        W67437  34.891  35.449   2.375
95112W        W67438  19.083  29.182   4.463
95113W        W67439  11.629  24.720   3.134
95114W        W67440  39.005  13.307   4.277
95115W        W67441   1.064  42.379   2.674
95116W        W67442  26.051  43.468   3.733
95117W        W67443  26.236  14.139   1.019
95118W        W67444  33.445  35.269   9.781
95119W        W67445  29.924  33.935   1.712
95120W        W67446  21.111  41.056  13.924
95121W        W67447  37.785  33.318   1.517
95122W        W67448  42.220  23.430  10.724
95123W        W67449   4.264  10.448  13.133
95124W        W67450  11.278   3.378   0.053
95125W        W67451  34.706  31.911  14.515
95126W        W67452   4.753  42.981   1.679
95127W        W67453  32.382  19.602  13.958
95128W        W67454  21.927   2.263   0.623
95129W        W67455  20.071  23.763  13.874
95130W        W67456  32.510   3.270   0.148
95131W        W67457  37.843  17.749  14.114
95132W        W67458  30.542  10.880   1.726
95133W        W67459  23.333  23.707   2.611
95134W        W67460   4.328   9.989  14.245
95135W        W67461  17.314  20.866  10.059
95136W        W67462  20.221  43.885  11.019
95137W        W67463  29.545  26.564   4.594
95138W        W67464  24.597  34.401   3.167
95139W        W67465  18.245  41.493   1.404
95140W        W67466  31.518   0.888  12.398
95141W        W67467   0.870  31.047  14.395
95142W        W67468  44.017   8.642  12.955
95143W        W67469  18.009  37.172  12.040
95144W        W67470   8.561  11.656   3.717
95145W        W67471  42.544  16.357   4.764
95146W        W67472  43.428  27.454  14.614
95147W        W67473   5.781  23.939   1.406
95148W        W67474  41.112   5.279   2.224
95149W        W67475   3.279  32.945   4.037
95150W        W67476  37.201  30.966  11.377
95151W        W67477  23.718  30.526  11.098
95152W        W67478  41.491   1.786  10.389
95153W        W67479  24.071  21.954   1.964
95154W        W67480   6.290  20.816   1.025
95155W        W67481   9.016  20.196  12.138
95156W        W67482  27.941  39.829   4.319
95157W        W67483  17.717  29.400  13.834
95158W        W67484  13.874  35.766  14.214
95159W        W67485  20.476  14.738  10.416
95160W        W67486  38.994  44.280   4.813
95161W        W67487  11.787  33.616   2.691
95162W        W67488  17.648   4.425  13.517
95163W        W67489  16.377   3.158   1.294
95164W        W67490  44.740  15.733   1.545
95165W        W67491  38.596   6.039  11.186
95166W        W67492  10.635   3.259   1.229
95167W        W67493  35.882  15.825   0.495
95168W        W67494  26.662  11.670   4.670
95169W        W67495  15.623  42.245  10.697
95170W        W67496  25.066   2.229   1.401
95171W        W67497   0.334  26.008   0.651
95172W        W67498  28.672  40.900  13.372
95173W        W67499   0.723   3.249  12.082
95174W        W67500   8.760  22.191   0.557
95175W        W67501  14.347  35.949   0.995
95176W        W67502  28.719  42.758  11.152
95177W        W67503  15.321   2.403   2.155
95178W        W67504  24.905  24.856  11.941
95179W        W67505   4.512  42.488  11.819
95180W        W67506  29.463  32.979  11.167
95181W        W67507   0.281   7.287   2.402
95182W        W67508  34.082   7.337  14.750
95183W        W67509   0.108  10.791  14.872
95184W        W67510  10.218   0.719   3.831
95185W        W67511   2.732   0.487  13.958
95186W        W67512  32.731  36.686  10.526
95187W        W67513  29.795   2.108   3.322
95188W        W67514  21.263   8.224   3.188
95189W        W67515   7.187  40.148   3.291
95190W        W67516  20.706  40.826   1.174
95191W        W67517  40.838   0.363  14.928
95192W        W67518  19.178  39.016  12.603
95193W        W67519  20.583   8.972  10.661
95194W        W67520  42.798   9.824   0.552
95195W        W67521  32.590  38.573  13.868
95196W        W67522  35.543  11.273   2.786
95197W        W67523   5.147  14.098   3.428
95198W        W67524  14.619   4.014  13.862
95199W        W67525  34.293   5.483   2.685
95200W        W67526  28.896  21.131  14.339
95201W        W67527  43.363  21.655  13.280
95202W        W67528   8.245  39.085  13.817
95203W        W67529   5.643   0.741   0.912
95204W        W67530  42.720   3.378  11.120
95205W        W67531  35.529  30.384   3.678
95206W        W67532   7.650   9.158   2.437
95207W        W67533  42.316  41.409  14.013
95208W        W67534  27.224   0.036  13.935
95209W        W67535  25.326  21.251   3.663
95210W        W67536  41.292   5.696  11.576
95211W        W67537  16.702  44.905   4.065
95212W        W67538  22.101   4.333   2.397
95213W        W67539  19.081  40.353   1.839
95214W        W67540   2.874   2.696  14.541
95215W        W67541  29.057  27.476   0.829
95216W        W67542  34.728   5.263   2.837
95217W        W67543  37.433  37.906   0.936
95218W        W67544  42.678   8.746   1.672
95219W        W67545  44.490  18.543   4.691
95220W        W67546   2.363   2.225   5.357
95221W        W67547  31.429  22.653   3.559
95222W        W67548   5.419  37.985   1.871
95223W        W67549  16.715  15.051  14.450
95224W        W67550  43.611  34.482  12.635
95225W        W67551   9.815  37.425   3.855
95226W        W67552  10.777  31.426  10.659
95227W        W67553   5.223  21.001  11.590
95228W        W67554  27.142  25.910   3.776
95229W        W67555  18.332  13.185   1.165
95230W        W67556   2.199  19.127   4.015
95231W        W67557  42.003   3.730  13.903
95232W        W67558  12.575   3.140   1.250
95233W        W67559  22.036  34.881  11.610
95234W        W67560  16.275  15.446  10.676
95235W        W67561  24.212  13.752   4.799
95236W        W67562  40.063   8.956  14.105
95237W        W67563  19.661  42.416  11.622
95238W        W67564   4.299  26.604  11.025
95239W        W67565  24.292  19.183   3.653
95240W        W67566   7.937  25.163   1.840
95241W        W67567   0.463  44.441   2.227
95242W        W67568  33.004  22.959   3.101
95243W        W67569  11.544  40.885  14.901
95244W        W67570  31.393  19.417  14.249
95245W        W67571  33.356  16.634  12.711
95246W        W67572  27.425  29.539   9.883
95247W        W67573  16.639   2.179   1.479
95248W        W67574  43.436  42.482   3.706
95249W        W67575   4.811  14.090   4.997
95250W        W67576  34.037  41.815  11.071
95251W        W67577  26.628  27.160  12.506
95252W        W67578  24.099  30.758  12.046
95253W        W67579   4.944  24.424   4.256
95254W        W67580  41.458  32.232   4.121
95255W        W67581   2.991   2.306  11.024
95256W        W67582  36.849   4.317   3.562
95257W        W67583  37.890  24.224   0.717
95258W        W67584  15.607  31.390   4.277
95259W        W67585   7.250  37.328   1.919
95260W        W67586  28.427  24.814   3.868
95261W        W67587  26.253  36.045  10.837
95262W        W67588  39.055  33.883  11.771
95263W        W67589   6.664  43.750   0.120
95264W        W67590  17.068  40.968   2.115
95265W        W67591  16.617  21.553   3.619
95266W        W67592  11.075  10.846  14.979
95267W        W67593  22.095  26.210   1.200
95268W        W67594  27.462  22.448  10.991
95269W        W67595  33.966  36.827  13.940
95270W        W67596  11.219  34.237   4.666
95271W        W67597  43.281  43.676  11.898
95272W        W67598  19.831  17.612  12.815
95273W        W67599  19.795  13.004  11.601
95274W        W67600  41.649  12.801  11.279
95275W        W67601  38.945   7.363   2.600
95276W        W67602  18.630  17.746  13.575
95277W        W67603   2.478  40.261  10.767
95278W        W67604   2.511  20.724   4.194
95279W        W67605  42.123  20.908   4.193
95280W        W67606   4.374   0.039   1.747
95281W        W67607  13.185  20.783   1.673
95282W        W67608  38.902  37.882   1.148
95283W        W67609  40.585  28.211   2.605
95284W        W67610   0.833  16.931  11.603
95285W        W67611  42.406  30.409  10.910
95286W        W67612   6.962  14.881  10.649
95287W        W67613  17.357  27.897  12.513
95288W        W67614  12.398  38.913  13.076
95289W        W67615  38.855  17.338   1.289
95290W        W67616  40.364  25.074   3.676
95291W        W67617  40.872  35.304  14.077
95292W        W67618   8.646  12.434   3.263
95293W        W67619  19.093  31.302  14.187
95294W        W67620  28.512  19.759  11.537
95295W        W67621  29.294  19.581  13.905
95296W        W67622  21.745   4.239   4.901
95297W        W67623  37.983  37.433  14.980
95298W        W67624  42.914   2.314  13.016
95299W        W67625  11.275  18.506   1.445
95300W        W67626  14.143  12.697  12.297
95301W        W67627   9.954  32.652   1.274
95302W        W67628  43.610  28.099   1.294
95303W        W67629   4.395  32.424  12.631
95304W        W67630   6.218  30.716   0.861
95305W        W67631  11.856   8.589   4.097
95306W        W67632   4.841  36.003   4.624
95307W        W67633  20.161  35.919  14.753
95308W        W67634  37.297  39.333  14.033
95309W        W67635  23.113  23.255   2.684
95310W        W67636  26.800   4.602  10.382
95311W        W67637  31.247  39.062  14.805
95312W        W67638  44.484  17.339   3.194
95313W        W67639  39.283   3.082  12.490
95314W        W67640  38.546  43.396   3.097
95315W        W67641  36.404   4.128   3.756
95316W        W67642  25.029  42.556   4.171
95317W        W67643  25.385  44.402   1.367
95318W        W67644  28.838  20.020   2.877
95319W        W67645  32.438   0.383   3.598
95320W        W67646   4.397  36.095   3.643
95321W        W67647  23.942   1.779   2.974
95322W        W67648   9.773  36.961   3.607
95323W        W67649   2.715   1.973  13.822
95324W        W67650   5.451  34.933   4.247
95325W        W67651  26.293   1.036   0.685
95326W        W67652  44.437  22.512  13.742
95327W        W67653  41.374  39.609  12.692
95328W        W67654   7.684  31.315   0.504
95329W        W67655  26.148  40.493  11.697
95330W        W67656   0.367  19.048   4.607
95331W        W67657  24.730  19.175   3.325
95332W        W67658  40.041  26.421   0.751
95333W        W67659  21.643  12.130   0.215
95334W        W67660  23.577  18.214   3.089
95335W        W67661   3.355  14.694  12.103
95336W        W67662  24.220  10.236  12.913
95337W        W67663   1.858  18.753  13.687
95338W        W67664  24.037  28.996   4.054
95339W        W67665  40.039  37.164   0.685
95340W        W67666   6.150  39.351   4.913
95341W        W67667  19.601  33.850   1.834
95342W        W67668   8.561  21.459  12.989
95343W        W67669  31.968  18.449   9.998
95344W        W67670  25.771  32.078  12.471
95345W        W67671  34.437   0.451  14.348
95346W        W67672  39.300  11.353   0.828
95347W        W67673  14.993  34.298  10.642
95348W        W67674   5.891  35.895  14.959
95349W        W67675  38.023  36.459   0.240
95350W        W67676  44.750  16.527  12.369
95351W        W67677  22.314  19.502   3.375
95352W        W67678   5.805   6.545  11.458
95353W        W67679  28.041  37.583   2.309
95354W        W67680  31.845  39.989   4.452
95355W        W67681  21.383  20.540   1.320
95356W        W67682  14.123  27.234   4.561
95357W        W67683  33.872  21.480  11.535
95358W        W67684   8.762  12.586   1.300
95359W        W67685  39.110  39.398  10.049
95360W        W67686  17.078  36.865   2.728
95361W        W67687  35.460  13.644   4.615
95362W        W67688  43.962  21.421  10.926
95363W        W67689  19.786  25.436  13.600
95364W        W67690  12.568  44.293  11.596
95365W        W67691  31.849  20.742  11.084
95366W        W67692  22.299  11.417  11.038
95367W        W67693  10.155  32.219   1.917
95368W        W67694  43.093  31.513   2.415
95369W        W67695   5.961  30.079   1.898
95370W        W67696   8.259   7.336   4.373
95371W        W67697  10.897  35.351   1.276
95372W        W67698   2.140  43.906   1.306
95373W        W67699  10.365  37.105  10.741
95374W        W67700  15.283  41.500  12.141
95375W        W67701  17.622  15.686   3.105
95376W        W67702  24.020  31.097   1.979
95377W        W67703  24.315  37.534  14.959
95378W        W67704  34.224  41.325  10.910
95379W        W67705  28.183  12.246  10.387
95380W        W67706  12.480   5.263  10.820
95381W        W67707  19.967  15.626   1.006
95382W        W67708  30.424  35.276  14.268
95383W        W67709  14.696   6.844  13.790
95384W        W67710  40.634   2.756   0.581
95385W        W67711  30.916  16.704   2.332
95386W        W67712  15.722  27.558   3.615
95387W        W67713  17.827  26.790   3.744
95388W        W67714  30.532  35.574   2.353
95389W        W67715  12.854  26.534   3.740
95390W        W67716   5.937   2.380  11.024
95391W        W67717  14.612   3.554   4.605
95392W        W67718  16.702  13.056   2.553
95393W        W67719   9.021  32.941   1.276
95394W        W67720  40.529  43.425  10.455
95395W        W67721  42.728  20.578  14.662
95396W        W67722  15.222  15.542  12.034
95397W        W67723  30.474  31.186  11.449
95398W        W67724  27.448  28.978  13.883
95399W        W67725  11.070   7.254   4.069
95400W        W67726   6.716  21.625   4.546
95401W        W67727  37.810   0.685  11.027
95402W        W67728  24.704  22.106   4.035
95403W        W67729   4.431  22.212   1.898
95404W        W67730  14.259  25.033   9.577
95405W        W67731  31.476   8.924   2.754
95406W        W67732  34.604  15.991  12.523
95407W        W67733  24.152  13.905  14.566
95408W        W67734   3.007  27.052   1.241
95409W        W67735  43.838  25.817   4.610
95410W        W67736  18.109   7.226   2.492
95411W        W67737   5.173  13.613   3.165
95412W        W67738  37.028  22.254  13.956
95413W        W67739  39.900  20.223   2.459
95414W        W67740  17.805  18.561  11.901
95415W        W67741  44.217  14.644   4.126
95416W        W67742   8.209  22.223  11.991
95417W        W67743   4.161  44.512   3.449
95418W        W67744  42.417  33.042   1.409
95419W        W67745  36.776  27.139  11.518
95420W        W67746   0.455  12.893  12.355
95421W        W67747  33.017  11.195   2.286
95422W        W67748  29.953   0.732   1.814
95423W        W67749   2.866  16.180  14.415
95424W        W67750  15.479  39.976  10.214
95425W        W67751  13.676  29.683   1.364
95426W        W67752  35.026  30.819   3.761
95427W        W67753  33.092  13.113  13.481
95428W        W67754   7.898   3.847  14.957
95429W        W67755  11.261  26.700  13.907
95430W        W67756  26.066  16.329   4.718
95431W        W67757  43.977  13.213   1.166
95432W        W67758  31.393  26.433  11.441
95433W        W67759  10.981  18.165  14.463
95434W        W67760  43.335   7.410   0.457
95435W        W67761  15.863  18.859  13.417
95436W        W67762   6.363  30.656   1.396
95437W        W67763  22.115  37.448  14.002
95438W        W67764  23.506  39.776   0.400
95439W        W67765  13.301  21.483   2.204
95440W        W67766  38.868  14.178   0.318
95441W        W67767  28.167  12.375   0.349
95442W        W67768   6.535  11.161   2.256
95443W        W67769  34.853   5.898   4.028
95444W        W67770  13.793  24.755  11.084
95445W        W67771   1.243   6.232   0.358
95446W        W67772   9.140  20.399   2.548
95447W        W67773  24.670   1.897  14.318
95448W        W67774  29.415   0.256   3.555
95449W        W67775  42.515  13.707  13.525
95450W        W67776  19.151  44.506   1.226
95451W        W67777  26.025   2.200   1.355
95452W        W67778   6.495  26.701   3.864
95453W        W67779  32.107  23.742   3.710
95454W        W67780  27.597   5.912  12.401
95455W        W67781  33.628  30.121  14.951
95456W        W67782  20.028  32.680   3.254
95457W        W67783   6.529  12.166  12.085
95458W        W67784  24.277  35.907  12.019
95459W        W67785   1.726   2.448   5.073
95460W        W67786  42.976   8.727   3.546
95461W        W67787  30.664  33.473   3.818
95462W        W67788  16.048  20.149   0.869
95463W        W67789  23.787  44.402   3.783
95464W        W67790  11.189  21.301  11.075
95465W        W67791  16.589  15.111  11.894
95466W        W67792  25.058  44.132   4.335
95467W        W67793   3.818  37.057  14.625
95468W        W67794  27.461  19.374  14.114
95469W        W67795  18.114  38.613   1.736
95470W        W67796  42.175  13.450  12.856
95471W        W67797  44.245  44.286   0.178
95472W        W67798  22.710   2.504   2.331
95473W        W67799  17.235   7.796  14.035
95474W        W67800  43.503  19.081  14.113
95475W        W67801  13.475  14.262   0.209
95476W        W67802  14.073   0.698  10.707
95477W        W67803  42.509  30.087   1.319
95478W        W67804  15.032  18.533   0.921
95479W        W67805  14.837  38.290   1.434
95480W        W67806  20.240  41.037   2.687
95481W        W67807  24.157   0.379  13.625
95482W        W67808   7.379   4.733   2.536
95483W        W67809   8.223  34.073   1.411
95484W        W67810  41.647  21.648  13.112
95485W        W67811  26.226  17.092  14.073
95486W        W67812  35.801   1.991  12.155
95487W        W67813  10.360  32.092   0.058
95488W        W67814  34.994  15.621  13.776
95489W        W67815  34.481   1.438  14.066
95490W        W67816  36.052   6.906  14.963
95491W        W67817  16.862  15.305   4.114
95492W        W67818  20.306  13.803  14.319
95493W        W67819  18.195  43.368  12.586
95494W        W67820  29.598  43.987   0.785
95495W        W67821  20.092  18.797  13.371
95496W        W67822  30.670  29.984  14.422
95497W        W67823  10.349  19.557  10.949
95498W        W67824  38.545  10.018   0.933
95499W        W67825  24.172  35.327   4.008
95500W        W67826  39.430  15.862  12.591
95501W        W67827   2.447  35.473   1.396
95502W        W67828  36.615   5.317   0.837
95503W        W67829  31.342  39.550   2.430
95504W        W67830   5.442  13.242  12.976
95505W        W67831  29.704   7.952   1.094
95506W        W67832  27.592  33.360   0.426
95507W        W67833  29.942  43.004   2.336
95508W        W67834  41.784  10.307   0.522
95509W        W67835  15.908  14.563   2.120
95510W        W67836   2.471  35.372   3.798
95511W        W67837  11.401  15.797   0.280
95512W        W67838  12.917   4.292  13.045
95513W        W67839  30.884  12.622  14.016
95514W        W67840  10.999  21.289   5.070
95515W        W67841   9.686  32.921   1.666
95516W        W67842  26.738  31.067  14.303
95517W        W67843  14.136  36.208   3.811
95518W        W67844  40.049   0.750  10.782
95519W        W67845  14.447  17.379   2.949
95520W        W67846  24.406  37.950   5.362
95521W        W67847  19.509  14.375   4.113
95522W        W67848  32.103  36.547   3.614
95523W        W67849   9.357  39.072   3.890
95524W        W67850  19.699  14.290   0.746
95525W        W67851  35.111   9.085   1.229
95526W        W67852  43.233  26.530   1.806
95527W        W67853   9.342  40.104   0.296
95528W        W67854  36.659  42.275   1.306
95529W        W67855  27.534  33.287   4.357
95530W        W67856  23.712  25.275  14.345
95531W        W67857  35.041  34.842  11.513
95532W        W67858  15.254   7.871   4.209
95533W        W67859  32.242  17.079   4.754
95534W        W67860  12.456  27.493   5.559
95535W        W67861  30.382  44.309   0.237
95536W        W67862  22.967   6.757   1.843
95537W        W67863  20.089  42.188  11.446
95538W        W67864  42.310  29.193   4.070
95539W        W67865   0.902  34.450  12.709
95540W        W67866  30.196   5.697   2.273
95541W        W67867  38.923  26.609  12.009
95542W        W67868  30.988  40.494  10.688
95543W        W67869  23.158  26.380  14.494
95544W        W67870   2.843  16.253   0.837
95545W        W67871  26.707  40.214   3.357
95546W        W67872  42.471  22.136  12.205
95547W        W67873  23.108   2.227   4.599
95548W        W67874  26.679  10.758   4.395
95549W        W67875  24.697   3.216  13.307
95550W        W67876  37.602  12.911  13.981
95551W        W67877  28.090  29.552   4.554
95552W        W67878  40.924   3.029  14.635
95553W        W67879  18.434  16.073  13.287
95554W        W67880  27.165  19.001   4.940
95555W        W67881  16.324   2.782   2.476
95556W        W67882   1.326   3.134   3.102
95557W        W67883  19.691  43.343  12.593
95558W        W67884   1.345  42.040  11.690
95559W        W67885  44.409   9.043   4.200
95560W        W67886  21.964  42.403  14.299
95561W        W67887  16.168   5.265   3.631
95562W        W67888  16.161  21.704   4.254
95563W        W67889  43.438  43.032  10.023
95564W        W67890  42.989   7.417  11.479
95565W        W67891  29.549  43.191  10.769
95566W        W67892   5.935  19.576   2.405
95567W        W67893  31.323  29.837   2.720
95568W        W67894   0.664   1.745   2.218
95569W        W67895  42.402  28.234   4.811
95570W        W67896   0.854  13.891  14.441
95571W        W67897  32.694   6.961   3.844
95572W        W67898  11.348  44.827  13.776
95573W        W67899  33.171  22.164  13.824
95574W        W67900  38.310  32.634   0.479
95575W        W67901  23.202  32.451   3.713
95576W        W67902  12.868   4.187   4.254
95577W        W67903   1.413  42.271  14.890
95578W        W67904  25.301  43.995  12.376
95579W        W67905  35.570   8.467   0.461
95580W        W67906  20.254  21.214  13.606
95581W        W67907  20.255  24.069  11.206
95582W        W67908   6.175  10.248   0.339
95583W        W67909  41.071  31.085  14.374
95584W        W67910   7.334   2.385   0.793
95585W        W67911   6.740  18.281  13.005
95586W        W67912  22.478  25.245   1.927
95587W        W67913  12.632  39.418   3.392
95588W        W67914  26.792   9.765  11.539
95589W        W67915   1.419  23.115  12.843
95590W        W67916  34.514  18.651   0.792
95591W        W67917  33.012  20.139   1.159
95592W        W67918  16.759  38.639   2.861
95593W        W67919   5.944  42.550   4.055
95594W        W67920  25.750  37.868  13.321
95595W        W67921  37.812  41.937   4.664
95596W        W67922   5.474  15.921   0.906
95597W        W67923  17.748   9.860   2.490
95598W        W67924  33.090   1.958   3.484
95599W        W67925   3.269  33.124  11.275
95600W        W67926  35.620  14.314  13.433
95601W        W67927   5.962  30.075   0.950
95602W        W67928  40.528   3.661  13.943
95603W        W67929  19.583  23.040  10.675
95604W        W67930   2.940   5.389  12.323
95605W        W67931  30.507  14.622  11.343
95606W        W67932  12.843  22.575   4.420
95607W        W67933   0.553  23.065   4.734
95608W        W67934  29.185   5.434  12.860
95609W        W67935  41.214  36.116  12.953
95610W        W67936  24.697   0.991   3.768
95611W        W67937   5.113  37.520  14.928
95612W        W67938  40.282   2.614  12.467
95613W        W67939  23.993   4.887   3.361
95614W        W67940  12.861  31.420   0.364
95615W        W67941  34.307  21.798   0.393
95616W        W67942   1.966  37.874   3.043
95617W        W67943  12.173   9.338  12.218
95618W        W67944  40.501  42.394   4.412
95619W        W67945  38.924  23.629   4.653
95620W        W67946  20.110   7.388  11.456
95621W        W67947  32.067   9.721  13.471
95622W        W67948  12.847  20.787  11.976
95623W        W67949  28.260  19.041  11.449
95624W        W67950   0.898  12.601  10.009
95625W        W67951  28.255  30.409  12.008
95626W        W67952   0.884  13.396  10.671
95627W        W67953  43.464   4.626   1.714
95628W        W67954  19.924  12.702   2.385
95629W        W67955   0.129  14.772   4.259
95630W        W67956  34.459  37.582  14.870
95631W        W67957   7.180  41.016  11.172
95632W        W67958  33.652  37.944  13.387
95633W        W67959  14.541  28.851  12.005
95634W        W67960  44.278  10.835  11.576
95635W        W67961  39.873  32.475   1.438
95636W        W67962  28.092  21.740   3.656
95637W        W67963  42.703  42.963  12.394
95638W        W67964   8.689  30.494  12.142
95639W        W67965  35.483  30.010  13.400
95640W        W67966  16.733   3.395  13.889
95641W        W67967  32.845  12.021  13.729
95642W        W67968   3.962  36.862   3.230
95643W        W67969  32.512  39.510   0.474
95644W        W67970  27.547  39.350  14.530
95645W        W67971  37.545  17.604  12.980
95646W        W67972  31.272  34.568  13.491
95647W        W67973  20.741  22.529   2.275
95648W        W67974  26.378   0.463  11.202
95649W        W67975  23.048   7.928  11.033
95650W        W67976  41.896   1.030  14.997
95651W        W67977  16.837  33.585   1.929
95652W        W67978  16.617  43.811  10.706
95653W        W67979  18.170  12.576  11.339
95654W        W67980  25.925  40.740   1.286
95655W        W67981  11.101   8.349  14.909
95656W        W67982  41.822  28.976   4.031
95657W        W67983  22.630  40.429  13.083
95658W        W67984   8.614  27.092  11.354
95659W        W67985   2.259  14.040   2.265
95660W        W67986  14.801  32.891  10.490
95661W        W67987  32.709  12.366  13.367
95662W        W67988  20.072  12.839  11.215
95663W        W67989  28.918  34.299  11.145
95664W        W67990  35.021  20.337   4.078
95665W        W67991   5.524  42.345  12.093
95666W        W67992  32.668   5.698   1.184
95667W        W67993  10.322  40.711   0.352
95668W        W67994  14.811  34.043  11.864
95669W        W67995   5.933  10.674   4.568
95670W        W67996  38.530  25.434  11.573
95671W        W67997  26.584  21.303  13.119
95672W        W67998  42.046   3.310   2.966
95673W        W67999  25.617  34.829   3.282
95674W        W68000  29.084  15.551   0.952
95675W        W68001   7.576   2.983   3.694
95676W        W68002  19.586  23.035  13.353
95677W        W68003  35.853  15.737   3.340
95678W        W68004  22.610  27.200   1.503
95679W        W68005  13.825   0.597  11.373
95680W        W68006  29.110   9.909   1.353
95681W        W68007  19.677  36.186  12.346
95682W        W68008  29.220  34.522   1.853
95683W        W68009  19.514  30.484  10.769
95684W        W68010  17.271  22.501   3.406
95685W        W68011  15.165  26.857   4.654
95686W        W68012  23.499   6.704   1.779
95687W        W68013   1.020  18.877   0.549
95688W        W68014  10.767   6.819   4.131
95689W        W68015   5.339  30.447   1.694
95690W        W68016  13.622  17.294   1.953
95691W        W68017  29.086  22.581   1.678
95692W        W68018   2.765  28.525   4.817
95693W        W68019  24.457  15.695  10.349
95694W        W68020   6.936  36.455  13.440
95695W        W68021  42.234  42.513  11.943
95696W        W68022   8.641  23.032   3.743
95697W        W68023  27.166  28.520  13.610
95698W        W68024   8.916  40.920   0.422
95699W        W68025   9.830  24.188   0.404
95700W        W68026  27.106  44.225  12.370
95701W        W68027  19.180  36.109   0.969
95702W        W68028  36.967  31.039   1.959
95703W        W68029   3.087  43.096   2.757
95704W        W68030  20.170   8.641   3.598
95705W        W68031  37.192  11.361  11.926
95706W        W68032  34.496  36.037  12.599
95707W        W68033  43.321  35.886  12.415
95708W        W68034  13.432  16.178  14.329
95709W        W68035  12.692  23.395   0.197
95710W        W68036  25.230   5.760  12.856
95711W        W68037  13.758  18.196   3.426
95712W        W68038  21.467  38.016   0.896
95713W        W68039  27.316  23.036  11.950
95714W        W68040   3.753  17.334  14.274
95715W        W68041  28.486  43.965   4.117
95716W        W68042   1.680  39.263   2.397
95717W        W68043  36.710  25.034   1.012
95718W        W68044  23.425  27.109  14.843
95719W        W68045  39.640  20.614  11.396
95720W        W68046   3.739   9.745  10.270
95721W        W68047  17.196  15.734  12.782
95722W        W68048  23.766  24.206   0.299
95723W        W68049  22.255  39.377  10.093
95724W        W68050  42.349  44.991   0.625
95725W        W68051  18.730  34.923   0.802
95726W        W68052   6.713  39.863   0.278
95727W        W68053  38.897  29.356   4.480
95728W        W68054  14.817  22.760   0.241
95729W        W68055  32.888  44.430  11.625
95730W        W68056  30.225  29.038   3.793
95731W        W68057  19.582  34.038  13.934
95732W        W68058  29.451  35.447  13.782
95733W        W68059  31.899  16.160   1.286
95734W        W68060  27.524  22.198   2.337
95735W        W68061  20.696   1.035   0.395
95736W        W68062  44.940   8.186   3.375
95737W        W68063  31.016  16.618   0.803
95738W        W68064  10.629  14.178   2.235
95739W        W68065   1.871  35.356   1.477
95740W        W68066  42.342  39.433  11.898
95741W        W68067   9.126  41.355  11.196
95742W        W68068  22.313  44.532  12.014
95743W        W68069  25.590  38.814   0.779
95744W        W68070  26.700   7.172  12.887
95745W        W68071  36.174   0.341  11.124
95746W        W68072  23.534  34.138   0.433
95747W        W68073  19.875  10.643  11.428
95748W        W68074   9.405  16.329  12.518
95749W        W68075  25.537   1.479   3.681
95750W        W68076  33.923  14.942   4.842
95751W        W68077  42.063  39.989  11.039
95752W        W68078  25.611  36.586   4.622
95753W        W68079  10.076  12.167  12.514
95754W        W68080  21.160  40.394   4.079
95755W        W68081  33.457   0.095   5.393
95756W        W68082   9.279  40.606   0.179
95757W        W68083   7.599   1.755  14.356
95758W        W68084  40.433  44.754   3.703
95759W        W68085  25.214  15.682  10.172
95760W        W68086  13.498  42.939   4.267
95761W        W68087  44.342  25.611  12.541
95762W        W68088   1.672  35.563   2.443
95763W        W68089  12.746  26.790  13.095
95764W        W68090  27.923  10.183  14.555
95765W        W68091   7.490  41.054   3.659
95766W        W68092  23.656   8.165   2.678
95767W        W68093  14.179  32.346  13.495
95768W        W68094  18.159   1.220  14.321
95769W        W68095  17.072   8.392  14.332
95770W        W68096  42.588  41.324   4.562
95771W        W68097   4.667  30.123  13.514
95772W        W68098  10.793  38.842  14.356
95773W        W68099   5.824  18.743  12.647
95774W        W68100  36.142  20.327   1.839
95775W        W68101   0.944  37.982   2.190
95776W        W68102   0.030  18.745   0.795
95777W        W68103  11.843  25.205  12.936
95778W        W68104   8.264   5.629   1.296
95779W        W68105  23.274  39.987   2.820
95780W        W68106   6.986   4.215  11.730
95781W        W68107   2.221  24.678   1.871
95782W        W68108  29.596   6.765   3.729
95783W        W68109   9.311  35.408  14.974
95784W        W68110   6.522  36.941  14.729
95785W        W68111   9.042  20.560  11.309
95786W        W68112   6.794  42.094   4.295
95787W        W68113  39.008   9.834   3.737
95788W        W68114  37.328  31.059  14.660
95789W        W68115  30.589  19.332  11.660
95790W        W68116   5.079   6.205   2.484
95791W        W68117  29.968  27.971   4.879
95792W        W68118  24.884  42.737   4.879
95793W        W68119  27.423   7.980   4.646
95794W        W68120  14.868  22.213   2.448
95795W        W68121  16.159  29.685   4.472
95796W        W68122  13.346  31.933  14.475
95797W        W68123  25.215  15.195   2.607
95798W        W68124  32.072   6.254   0.943
95799W        W68125  41.254  18.856  13.623
95800W        W68126  24.536  41.761  11.136
95801W        W68127  15.142   6.379   2.254
95802W        W68128  11.868   9.273   2.182
95803W        W68129  30.839   8.306  12.033
95804W        W68130  27.456  30.459   0.668
95805W        W68131  41.486  33.158  12.954
95806W        W68132  27.523  41.488   3.624
95807W        W68133  38.040  44.904  11.467
95808W        W68134  11.720   0.291  14.388
95809W        W68135   8.629  34.846   1.831
95810W        W68136  26.696  14.093  13.879
95811W        W68137   6.410   8.735   3.109
95812W        W68138   2.713  18.082   0.580
95813W        W68139  35.025  41.829   4.727
95814W        W68140   1.273  17.765   3.124
95815W        W68141  34.538  14.619   1.696
95816W        W68142  44.047  25.624   2.239
95817W        W68143  12.912  43.461   1.819
95818W        W68144  13.226  44.084   0.364
95819W        W68145  42.372  12.356  14.802
95820W        W68146   8.779  24.808   3.655
95821W        W68147   4.871  18.682   0.762
95822W        W68148   2.859  36.120   1.827
95823W        W68149  13.143  14.881   4.686
95824W        W68150  16.731  30.973   3.370
95825W        W68151  34.104  31.050  14.913
95826W        W68152  34.536  28.852   0.945
95827W        W68153  30.675  20.838   1.365
95828W        W68154   9.200  42.878   1.798
95829W        W68155  42.449  27.485   0.893
95830W        W68156  24.541  11.690  10.593
95831W        W68157   3.810  22.052  10.244
95832W        W68158  36.152  21.601  11.088
95833W        W68159   1.488   3.945  11.139
95834W        W68160   6.687  29.720   0.397
95835W        W68161  15.876  17.058  11.619
95836W        W68162  26.398  38.087   2.243
95837W        W68163  21.130  13.573  14.795
95838W        W68164  30.504  28.441  14.797
95839W        W68165  10.152   7.767   4.246
95840W        W68166  11.966  20.613   1.715
95841W        W68167  39.377   7.959  14.951
95842W        W68168  34.905  26.097   4.550
95843W        W68169   8.669  10.233   3.261
95844W        W68170   7.330  25.947  14.159
95845W        W68171  30.529  25.171   0.148
95846W        W68172  11.380   6.152  13.046
95847W        W68173  34.666   4.195   0.931
95848W        W68174   2.763  24.678   0.435
95849W        W68175  11.252  10.339   0.003
95850W        W68176  19.989  12.449   5.091
95851W        W68177  43.720  10.491  13.608
95852W        W68178  27.182  38.401  14.148
95853W        W68179  31.118  37.486  14.049
95854W        W68180  21.110  38.537  13.384
95855W        W68181  41.225  14.531   0.362
95856W        W68182  36.436  43.721  11.197
95857W        W68183   0.999  37.331  12.076
95858W        W68184   7.140  34.440  12.389
95859W        W68185  40.631  33.811   0.215
95860W        W68186  25.693   2.842  10.966
95861W        W68187  39.026  37.285   2.252
95862W        W68188  26.298  19.218  13.562
95863W        W68189  15.732  32.192   2.742
95864W        W68190  14.125  25.226   3.779
95865W        W68191  42.305  40.560  13.533
95866W        W68192   6.660  12.607  10.956
95867W        W68193  16.171  20.380  11.585
95868W        W68194  15.282   7.424   2.238
95869W        W68195  34.985  18.237  10.703
95870W        W68196  41.894   8.855  14.477
95871W        W68197  10.192  21.443  11.469
95872W        W68198  22.661  10.117   3.223
95873W        W68199  14.557  33.124   3.600
95874W        W68200  28.180  12.108   0.811
95875W        W68201  36.541  21.695  12.991
95876W        W68202  19.703  23.498   1.735
95877W        W68203   0.702  42.607   4.971
95878W        W68204  12.608  40.371   0.902
95879W        W68205  14.240  17.362  14.427
95880W        W68206  21.127  41.438   1.688
95881W        W68207  38.025  15.087  10.685
95882W        W68208  19.964   0.320  11.928
95883W        W68209   9.945  19.252  10.820
95884W        W68210   6.432   6.335   0.443
95885W        W68211  31.375   7.391  12.018
95886W        W68212  10.320  20.430  10.725
95887W        W68213  12.165  36.641   4.641
95888W        W68214  28.124  42.560   0.223
95889W        W68215  25.143  11.910  12.887
95890W        W68216  39.408  41.408   1.208
95891W        W68217   1.069  30.612   1.246
95892W        W68218  39.835  22.246  12.010
95893W        W68219  13.249  30.899   0.957
95894W        W68220  17.548  28.936  13.979
95895W        W68221  28.694  32.971  12.497
95896W        W68222  27.465  42.445  14.172
95897W        W68223  25.971   4.341  10.259
95898W        W68224  25.699  39.066  11.948
95899W        W68225  31.219  18.274   0.867
95900W        W68226  35.843  14.742  11.133
95901W        W68227  31.098  37.794  14.470
95902W        W68228  15.343  23.292  10.570
95903W        W68229   3.926  10.557  14.883
95904W        W68230  41.271  32.347   3.662
95905W        W68231  44.766  39.328   4.470
95906W        W68232   6.056  13.750  13.276
95907W        W68233  11.019   6.008   4.111
95908W        W68234  13.356  19.274  12.445
95909W        W68235  43.466  19.035   4.215
95910W        W68236  42.802  43.957  14.297
95911W        W68237  32.044  12.847   2.943
95912W        W68238  37.573  37.052   3.148
95913W        W68239  39.028  38.825   2.646
95914W        W68240  25.202  17.053   2.790
95915W        W68241  34.552  29.682  10.646
95916W        W68242  23.007  30.010   3.625
95917W        W68243  21.043   0.871   4.123
95918W        W68244  42.440   8.631   1.223
95919W        W68245  25.664  29.831  12.754
95920W        W68246   2.931  37.070  10.679
95921W        W68247  41.984  34.932  12.065
95922W        W68248  10.614   4.924   0.932
95923W        W68249  26.537  18.854   3.296
95924W        W68250  30.251  23.739   0.500
95925W        W68251   1.506  34.145   2.707
95926W        W68252   0.779   3.535   3.744
95927W        W68253  44.989  30.512  11.602
95928W        W68254  30.491  43.465   2.386
95929W        W68255  39.935  44.512   3.227
95930W        W68256  40.552  28.219   1.717
95931W        W68257  17.651  17.227   4.248
95932W        W68258   7.404  26.429   2.327
95933W        W68259  17.096  31.000  11.507
95934W        W68260  32.932   5.658  13.825
95935W        W68261   7.768  11.590  14.726
95936W        W68262  41.402  44.243  12.944
95937W        W68263  20.056  21.855   1.453
95938W        W68264  23.014  18.727  11.608
95939W        W68265  27.742  36.983   4.810
95940W        W68266  34.504  15.043  14.308
95941W        W68267  23.703  40.006   1.872
95942W        W68268  18.236  25.476  12.459
95943W        W68269  22.546  40.702  10.570
95944W        W68270  32.925   0.880  12.040
95945W        W68271   4.329  15.535   4.084
95946W        W68272  15.370   5.366  11.186
95947W        W68273  29.138  29.608   1.577
95948W        W68274  10.413  32.729  11.357
95949W        W68275  28.150  37.568  14.493
95950W        W68276  15.173  30.151  13.986
95951W        W68277  11.108   3.479   0.532
95952W        W68278  21.108  26.214  12.311
95953W        W68279  24.960  39.030   3.756
95954W        W68280  21.198   8.724   2.867
95955W        W68281  10.231  37.872  13.398
95956W        W68282  29.591  26.294  14.917
95957W        W68283  33.872  11.768   3.227
95958W        W68284  18.258   2.889  11.570
95959W        W68285  35.873   1.455  14.977
95960W        W68286  43.209  19.070  11.051
95961W        W68287  15.091  31.934   3.649
95962W        W68288  38.352  19.231  14.371
95963W        W68289  13.409   0.246  12.515
95964W        W68290   0.525  14.659   0.819
95965W        W68291  31.108  38.838  12.100
95966W        W68292  43.486  44.859  11.354
95967W        W68293   7.436   1.123  12.075
95968W        W68294  33.631  17.672   4.269
95969W        W68295  10.566  37.080   0.921
95970W        W68296  10.465  24.898  13.274
95971W        W68297  24.581   6.082   4.195
95972W        W68298  17.807  20.105  12.951
95973W        W68299   6.872  22.785  14.470
95974W        W68300   4.562  18.766  10.822
95975W        W68301   0.833   4.518  11.664
95976W        W68302  30.529   2.414  14.465
95977W        W68303  36.148  33.094   1.670
95978W        W68304   2.950  14.245   0.367
95979W        W68305  30.861   1.468  13.979
95980W        W68306   8.647  44.415  13.120
95981W        W68307  11.910  42.409   0.733
95982W        W68308  18.857  40.829   3.093
95983W        W68309  12.405  36.430   5.055
95984W        W68310  16.886  22.672   4.140
95985W        W68311  27.435  12.587  12.518
95986W        W68312  26.522  38.567  12.337
95987W        W68313  41.630  39.451  10.482
95988W        W68314   0.204  13.791  14.964
95989W        W68315  37.317   7.172  11.943
95990W        W68316  38.802  19.067  14.065
95991W        W68317  33.271  15.051   0.477
95992W        W68318  19.109   1.514  13.371
95993W        W68319  18.268  29.850  12.737
95994W        W68320  25.418  11.692  11.691
95995W        W68321  39.732  12.641   1.336
95996W        W68322  17.058  19.950   2.246
95997W        W68323  20.252  19.275  14.845
95998W        W68324  30.634  15.064   0.853
95999W        W68325   6.823  21.953   2.249
96000W        W68326   9.239  27.840  11.014
96001W        W68327   8.750  12.499  13.451
96002W        W68328  28.056  27.370  14.984
96003W        W68329  29.202  13.806   4.557
96004W        W68330   4.176   7.723  11.128
96005W        W68331  26.531   9.837  11.078
96006W        W68332  20.048  40.982  12.065
96007W        W68333  15.401   6.113   1.868
96008W        W68334  12.289   4.696  11.464
96009W        W68335   6.355  38.968   4.602
96010W        W68336  42.016  42.300   2.398
96011W        W68337  35.462  40.822  11.571
96012W        W68338   8.886  42.902   5.029
96013W        W68339  25.522  38.004   1.170
96014W        W68340  19.663  18.636  13.616
96015W        W68341  31.483   6.884  11.997
96016W        W68342  15.258  10.577  10.662
96017W        W68343  37.338  35.658   2.946
96018W        W68344   3.453  42.873  13.106
96019W        W68345  27.444  38.602  12.388
96020W        W68346  15.788  21.337   2.266
96021W        W68347  42.976  36.568  10.953
96022W        W68348  38.865  22.061  12.511
96023W        W68349  37.917  10.909  13.376
96024W        W68350  37.998  37.871  11.922
96025W        W68351  18.726  20.990   3.148
96026W        W68352  35.910   3.493   2.223
96027W        W68353  13.222  42.724  11.638
96028W        W68354   5.733  25.155   2.323
96029W        W68355  43.845   6.675  12.449
96030W        W68356  21.105  41.731   0.702
96031W        W68357  34.959  22.567  10.662
96032W        W68358  24.527  39.898   4.951
96033W        W68359  35.180  17.958  11.980
96034W        W68360  34.565  30.532   2.183
96035W        W68361  37.026  25.114  14.990
96036W        W68362  25.513  41.459   2.632
96037W        W68363  36.847  11.392  11.510
96038W        W68364   8.052  33.444  12.129
96039W        W68365   4.522  20.072   2.933
96040W        W68366  43.178  17.930   3.056
96041W        W68367   0.979  15.077   2.827
96042W        W68368  39.078   9.843   0.910
96043W        W68369  16.198  14.944  13.763
96044W        W68370  36.427  10.797  13.513
96045W        W68371  36.857  13.155   9.688
96046W        W68372  10.597  33.794  13.828
96047W        W68373   8.061  14.058   2.090
96048W        W68374  30.517  17.837   2.803
96049W        W68375  36.054  34.247   0.786
96050W        W68376  29.336  37.881  13.842
96051W        W68377  28.880  39.071   0.333
96052W        W68378   3.432  33.127  13.401
96053W        W68379   9.209  26.960   2.213
96054W        W68380  28.511  35.925   4.506
96055W        W68381  40.249  22.125   2.752
96056W        W68382  37.904  11.889  12.468
96057W        W68383  23.603  33.768  12.931
96058W        W68384  30.423  13.673   4.413
96059W        W68385  37.450  18.276  13.038
96060W        W68386  14.228  37.116   2.452
96061W        W68387   2.767  37.732   0.373
96062W        W68388  36.536  19.500   1.649
96063W        W68389  41.426  36.211  11.399
96064W        W68390  41.845  24.515  11.575
96065W        W68391  16.809  13.555  11.621
96066W        W68392   0.129  40.088  11.553
96067W        W68393  34.781  40.491   1.461
96068W        W68394  28.518   6.072  12.438
96069W        W68395  31.312  24.904  13.387
96070W        W68396  16.763  10.856  13.442
96071W        W68397  42.694  18.755  14.508
96072W        W68398  41.403  13.101   4.107
96073W        W68399  38.490  22.114   0.315
96074W        W68400   1.727  35.401  12.809
96075W        W68401  21.530  41.893   0.955
96076W        W68402  21.562  25.669   2.908
96077W        W68403   4.600  32.171   3.000
96078W        W68404   8.127   2.885  11.121
96079W        W68405  31.000  15.745   3.261
96080W        W68406  19.721  10.868   3.708
96081W        W68407  14.263  44.810  12.257
96082W        W68408  34.624  37.585   1.710
96083W        W68409  17.092  38.936   0.670
96084W        W68410  25.956  12.145  13.716
96085W        W68411  35.833  29.049  13.605
96086W        W68412  43.547  41.571  13.977
96087W        W68413  10.141  16.570   3.269
96088W        W68414  37.467  33.679  12.847
96089W        W68415   4.989  31.329   4.979
96090W        W68416  18.279  32.653  11.897
96091W        W68417  16.510  13.815   4.159
96092W        W68418  24.665   3.601  11.341
96093W        W68419  11.336  42.314   4.760
96094W        W68420  25.459  10.368   4.190
96095W        W68421  17.976  31.375   3.456
96096W        W68422  32.374  21.988  14.437
96097W        W68423   1.337  11.301   0.816
96098W        W68424  36.973  33.379  10.988
96099W        W68425  16.813  17.601  12.263
96100W        W68426  26.022  44.671  11.473
96101W        W68427  24.197  30.948  14.880
96102W        W68428  24.922   7.482   1.733
96103W        W68429  17.029  16.041  14.262
96104W        W68430  38.475   2.724  10.289
96105W        W68431  38.286  29.085  12.540
96106W        W68432  26.588  43.574  11.091
96107W        W68433  32.986  11.616  10.793
96108W        W68434  27.999  41.360  14.842
96109W        W68435  13.099  25.293  12.598
96110W        W68436  17.137  44.058  11.534
96111W        W68437   1.001  13.865   1.781
96112W        W68438   2.512  34.939  10.859
96113W        W68439   4.860  22.754  12.106
96114W        W68440  21.167  31.534   4.540
96115W        W68441   4.672   7.946  11.009
96116W        W68442  43.913   9.965  10.695
96117W        W68443  14.296  33.567   0.810
96118W        W68444  30.401  41.641   1.993
96119W        W68445  38.990   3.921  13.006
96120W        W68446  12.688   8.412   2.514
96121W        W68447  37.502   7.206  13.325
96122W        W68448   3.353  22.764  12.024
96123W        W68449  38.488  41.437  11.930
96124W        W68450  27.581  16.317  11.627
96125W        W68451  39.376   9.424   2.346
96126W        W68452   9.965  32.905  11.521
96127W        W68453  33.467  37.005  12.593
96128W        W68454  17.765  16.786   4.040
96129W        W68455  32.912   4.714   3.626
96130W        W68456  20.134  28.290   0.815
96131W        W68457  11.683  43.431   0.764
96132W        W68458  11.625  15.683   5.422
96133W        W68459   6.393  10.424  13.612
96134W        W68460  33.544  28.977  11.984
96135W        W68461   8.774  18.674  14.193
96136W        W68462  42.354  21.263  13.890
96137W        W68463  16.678   8.796   4.603
96138W        W68464   7.940  37.786   4.109
96139W        W68465   7.821  15.514   3.357
96140W        W68466  36.471  33.148  13.688
96141W        W68467  17.809  21.459  13.215
96142W        W68468  12.716  43.103   5.041
96143W        W68469  13.646   1.281  11.235
96144W        W68470  25.381   5.592   4.190
96145W        W68471  43.961   2.520   1.487
96146W        W68472  21.235   4.418   4.226
96147W        W68473  22.661  27.861  13.354
96148W        W68474  14.202  11.160   4.551
96149W        W68475  24.000   7.942  10.617
96150W        W68476  25.643  31.416  12.999
96151W        W68477  19.144  28.556   2.434
96152W        W68478  31.628  32.353  14.386
96153W        W68479  13.856  32.936   4.110
96154W        W68480  39.971  44.792  13.703
96155W        W68481  32.937  12.646   0.859
96156W        W68482  24.008  33.862   3.612
96157W        W68483  22.482  31.661  12.010
96158W        W68484  17.820  24.784   2.900
96159W        W68485  18.221  14.685  12.555
96160W        W68486  39.601  43.778   0.432
96161W        W68487   7.257  16.726  11.075
96162W        W68488  20.502  23.270   1.356
96163W        W68489  14.715  30.625   4.767
96164W        W68490   3.686  42.980   3.399
96165W        W68491  36.859  18.394  14.476
96166W        W68492  26.926  35.142   3.738
96167W        W68493   0.634  29.074  10.943
96168W        W68494   9.848   0.773   1.193
96169W        W68495  14.327   4.365  12.553
96170W        W68496  22.748  22.590  14.937
96171W        W68497  21.276   4.637  14.890
96172W        W68498  18.587  37.368   1.964
96173W        W68499  22.073  34.249  13.293
96174W        W68500  28.086  44.870   1.446
96175W        W68501  31.443  10.135  14.345
96176W        W68502  26.007  12.444   1.919
96177W        W68503  38.814   2.918   9.911
96178W        W68504  39.896  38.746  10.582
96179W        W68505  36.007  12.600   2.610
96180W        W68506  41.956  41.333  12.619
96181W        W68507  21.641  43.686   0.397
96182W        W68508  43.700  26.683  14.362
96183W        W68509  12.357  13.982  11.698
96184W        W68510  39.904  20.652  13.448
96185W        W68511  24.428  23.225   0.680
96186W        W68512   2.837  11.845  13.251
96187W        W68513  16.597  22.957   2.285
96188W        W68514  24.014  28.388   3.202
96189W        W68515   9.353  13.094   3.030
96190W        W68516  38.898   3.487   3.048
96191W        W68517  36.317  36.763  13.978
96192W        W68518   9.074   3.456  13.122
96193W        W68519   7.808  28.595  10.633
96194W        W68520  42.552   6.360   0.434
96195W        W68521  39.150   7.202  10.994
96196W        W68522  10.695  25.116   2.854
96197W        W68523  22.138  10.685  12.578
96198W        W68524   4.731  22.489  14.992
96199W        W68525  25.634   8.201  11.140
96200W        W68526  24.909  27.044  10.688
96201W        W68527  16.628  38.125   0.336
96202W        W68528  21.016   3.181   3.722
96203W        W68529  18.108  40.047   2.775
96204W        W68530  21.140  28.211  14.837
96205W        W68531  10.600  30.198  11.944
96206W        W68532  38.038  40.345   2.256
96207W        W68533  41.547  16.292   4.124
96208W        W68534  41.600   3.113  10.639
96209W        W68535  28.236  20.486   4.438
96210W        W68536  34.608  29.774   1.195
96211W        W68537  17.373  37.620  11.180
96212W        W68538  36.525  22.152  12.743
96213W        W68539  27.882  19.947   1.749
96214W        W68540   5.723  11.662   2.902
96215W        W68541  14.776  28.079   0.170
96216W        W68542  21.338   7.315   1.106
96217W        W68543  25.549  28.023   5.061
96218W        W68544   3.967   4.443  11.917
96219W        W68545  29.843   0.859   1.296
96220W        W68546  40.401  25.089  10.906
96221W        W68547   8.978  31.105   1.777
96222W        W68548  29.946   6.709  10.743
96223W        W68549  28.022   1.257   4.597
96224W        W68550   4.925   9.187  12.502
96225W        W68551   3.050  17.811  13.331
96226W        W68552  16.774   1.498  10.667
96227W        W68553  35.531  43.475  13.548
96228W        W68554  23.790  11.252  14.511
96229W        W68555   3.005  40.876  13.050
96230W        W68556  25.650  32.021  12.988
96231W        W68557  16.579  36.716  11.150
96232W        W68558  28.056   4.983   1.265
96233W        W68559  11.302  28.531   4.533
96234W        W68560  20.734  27.933   0.055
96235W        W68561  24.402  34.322  14.451
96236W        W68562   0.329  11.452   3.826
96237W        W68563  32.004   8.004  10.772
96238W        W68564   4.971  17.096  13.405
96239W        W68565  38.785  22.638   0.336
96240W        W68566   8.290   0.302  11.951
96241W        W68567  43.442  33.906  12.915
96242W        W68568   7.014   1.167   2.533
96243W        W68569  25.024  25.568   2.592
96244W        W68570  24.540  35.824   0.391
96245W        W68571  20.133  35.116   0.969
96246W        W68572  17.885  42.965   3.334
96247W        W68573  23.709  32.402   3.701
96248W        W68574  19.232  29.416   1.914
96249W        W68575  39.044  36.183   9.892
96250W        W68576  18.582  20.180   0.937
96251W        W68577  32.950  43.954   4.532
96252W        W68578  13.889  16.141  11.602
96253W        W68579  38.078   5.801  13.436
96254W        W68580  39.714  16.697   4.098
96255W        W68581  23.553  30.189  12.390
96256W        W68582   6.068  26.553  11.927
96257W        W68583  44.084  34.910   3.283
96258W        W68584  26.576   0.931  11.588
96259W        W68585  33.477  29.241   1.827
96260W        W68586  24.155  17.139   0.805
96261W        W68587   5.884   9.611   3.707
96262W        W68588  19.541   9.303  13.106
96263W        W68589  42.202   5.239   2.754
96264W        W68590  42.027  27.562   2.786
96265W        W68591   0.840  15.713  12.667
96266W        W68592   2.953  24.902  13.366
96267W        W68593   3.965  30.432  11.145
96268W        W68594  25.567  12.000   3.451
96269W        W68595  18.823  44.839   4.570
96270W        W68596  35.608  38.581  14.914
96271W        W68597  29.235   2.497  14.847
96272W        W68598  22.590   7.215  10.811
96273W        W68599  26.251  42.592   2.716
96274W        W68600   7.707  23.083  12.791
96275W        W68601  15.534  18.700  13.806
96276W        W68602   2.928   6.325   2.552
96277W        W68603  24.956  14.111  13.469
96278W        W68604  35.555  42.499  11.953
96279W        W68605   3.764  11.813   1.727
96280W        W68606  32.582  44.320  10.211
96281W        W68607  17.623   2.129   3.769
96282W        W68608  31.675  41.880  13.151
96283W        W68609  44.840  37.496  11.434
96284W        W68610  36.410   8.797  14.197
96285W        W68611  41.190  16.261  14.311
96286W        W68612  37.423  26.634  11.397
96287W        W68613  24.788  38.608   4.533
96288W        W68614  12.156   4.321   4.803
96289W        W68615  16.864  39.660  11.951
96290W        W68616  42.758  18.206   9.933
96291W        W68617   8.242  18.805  12.679
96292W        W68618  27.637   2.337  11.422
96293W        W68619  33.121   7.883  11.964
96294W        W68620   1.366   2.282   4.704
96295W        W68621  44.297  39.742  11.961
96296W        W68622  15.049  36.000   0.135
96297W        W68623  26.440  35.667   0.292
96298W        W68624  19.261   6.221   4.561
96299W        W68625   7.403  23.324   4.559
96300W        W68626  11.335  38.137  10.839
96301W        W68627  37.584   5.189   1.004
96302W        W68628  22.932  16.550   1.820
96303W        W68629  26.574  25.062   4.716
96304W        W68630  23.462  16.592  10.786
96305W        W68631  22.088  24.512   2.882
96306W        W68632  26.421  29.864  12.947
96307W        W68633  25.129   9.161   3.416
96308W        W68634  10.241   6.758   0.988
96309W        W68635  28.192  39.307   2.112
96310W        W68636  25.231  41.258   0.383
96311W        W68637   0.938  38.850   3.309
96312W        W68638  36.960   8.810  14.973
96313W        W68639   0.385  35.813   2.834
96314W        W68640  18.915   5.744   2.425
96315W        W68641  19.292   8.800   4.725
96316W        W68642  24.363  34.689  11.640
96317W        W68643  23.396  12.198   0.244
96318W        W68644   0.346  30.052  10.830
96319W        W68645  37.438  14.610  12.050
96320W        W68646   5.609  34.829  11.420
96321W        W68647  14.834  13.983  12.457
96322W        W68648   0.551  39.455  11.162
96323W        W68649  23.199  30.177   0.353
96324W        W68650  23.819   1.492   2.306
96325W        W68651  10.823  13.101  13.045
96326W        W68652  35.661  43.775  12.568
96327W        W68653  36.804   7.147   1.211
96328W        W68654  40.275  22.519   4.559
96329W        W68655  18.785   8.181   3.536
96330W        W68656  29.075  28.184  11.255
96331W        W68657   3.197  23.294   5.040
96332W        W68658  25.457  38.578  10.795
96333W        W68659  38.438   0.320   0.772
96334W        W68660  32.407  27.145   2.750
96335W        W68661  37.777  27.172   3.202
96336W        W68662   2.140  36.319   0.258
96337W        W68663  18.475   2.704   3.770
96338W        W68664   8.460  22.738  13.442
96339W        W68665  42.080  30.232  11.264
96340W        W68666  37.283  30.096   4.651
96341W        W68667  10.889  38.992  11.119
96342W        W68668  29.618  20.104  12.156
96343W        W68669  33.031  23.178   2.178
96344W        W68670  15.215   0.846   0.875
96345W        W68671   0.499   8.864   3.654
96346W        W68672  22.116  43.755  10.787
96347W        W68673  14.115   2.031   4.096
96348W        W68674  29.654   1.736   4.682
96349W        W68675  18.527  16.777  13.798
96350W        W68676   0.874  20.235   2.232
96351W        W68677  43.847  25.536   3.765
96352W        W68678   8.665  30.009  11.914
96353W        W68679  39.040   3.406  12.956
96354W        W68680   5.367  10.479  11.239
96355W        W68681   0.861   4.707  12.901
96356W        W68682  44.808  26.721   4.641
96357W        W68683   8.547   1.622   4.203
96358W        W68684  40.158   7.183  11.138
96359W        W68685  24.030  15.571  11.642
96360W        W68686  14.659  26.546   0.303
96361W        W68687   0.198   8.364  12.109
96362W        W68688  43.291   4.446   4.306
96363W        W68689  38.841  36.420   1.275
96364W        W68690  37.094  28.849  13.002
96365W        W68691   4.228   0.459   0.602
96366W        W68692  27.163  13.387   2.494
96367W        W68693  10.969  17.152  14.076
96368W        W68694  35.393  26.106   3.736
96369W        W68695  13.348  19.874  10.823
96370W        W68696  32.321  30.274  11.957
96371W        W68697  30.426  24.632   3.164
96372W        W68698  28.051   9.899  11.402
96373W        W68699  22.797  20.558   0.271
96374W        W68700   5.533   6.676  11.009
96375W        W68701  39.882   5.732  11.931
96376W        W68702  16.793  40.568  10.515
96377W        W68703  35.103  33.223   2.358
96378W        W68704  43.645  21.515  12.300
96379W        W68705  38.413   3.447   3.811
96380W        W68706  10.244   8.567   0.957
96381W        W68707   8.279  39.915   3.762
96382W        W68708  16.017   0.230  12.131
96383W        W68709   0.234   5.481  11.369
96384W        W68710   4.918  24.967   1.280
96385W        W68711  30.607  37.229   4.136
96386W        W68712  22.490  29.976  10.928
96387W        W68713   7.726  15.320   4.258
96388W        W68714   2.432  42.879   0.831
96389W        W68715  36.615  22.719   1.120
96390W        W68716  16.880  17.001   4.808
96391W        W68717  38.919  36.211  14.943
96392W        W68718   2.329   6.850  13.952
96393W        W68719  28.986  42.765   0.959
96394W        W68720   7.880  13.792   0.496
96395W        W68721   6.243  40.005  13.818
96396W        W68722  39.915  32.627  10.673
96397W        W68723  15.162   9.900  13.815
96398W        W68724  30.085  22.511   2.183
96399W        W68725  38.432   3.439   2.832
96400W        W68726  27.134  33.145   0.323
96401W        W68727  29.567  20.488   4.512
96402W        W68728  33.621  35.914  12.555
96403W        W68729  26.580  40.568  10.399
96404W        W68730  44.748  35.607  12.837
96405W        W68731  41.325  21.955  12.863
96406W        W68732   3.259  16.242  12.821
96407W        W68733  43.068  14.285   2.731
96408W        W68734  15.484  40.996   4.120
96409W        W68735  13.379  38.807   0.426
96410W        W68736  30.671  39.040   0.961
96411W        W68737  29.609  16.068   4.306
96412W        W68738  10.912  18.025  13.406
96413W        W68739  37.301  40.355   0.714
96414W        W68740  30.536  40.964  12.613
96415W        W68741  25.135  44.480   4.715
96416W        W68742   4.840  23.661   1.740
96417W        W68743  16.211  36.826  13.840
96418W        W68744  10.330  20.976   1.300
96419W        W68745  19.213  30.514  12.948
96420W        W68746  15.203  36.040  11.204
96421W        W68747  34.606  33.602  13.976
96422W        W68748  15.694  35.628   0.778
96423W        W68749  10.194  14.760   1.806
96424W        W68750  41.396  28.669   4.114
96425W        W68751  25.440  42.420   3.196
96426W        W68752  44.180  43.993  13.011
96427W        W68753  23.952   4.531   0.778
96428W        W68754  28.183  31.917   2.811
96429W        W68755  44.819  26.729  10.915
96430W        W68756  24.243   0.289  14.121
96431W        W68757  30.162  21.253  11.007
96432W        W68758  19.768  36.778  13.957
96433W        W68759  22.262  38.777  14.256
96434W        W68760  21.082   1.496  13.818
96435W        W68761   9.675   3.760  13.536
96436W        W68762   7.092  28.969   3.221
96437W        W68763  29.617   8.688   3.722
96438W        W68764  40.625  28.089   5.058
96439W        W68765  22.184  31.292  14.584
96440W        W68766  42.048  23.450  14.408
96441W        W68767  39.939  34.391  11.488
96442W        W68768  41.576   9.151   1.311
96443W        W68769  16.004  27.190   1.758
96444W        W68770   2.375   8.721   5.028
96445W        W68771   6.818  12.598   1.271
96446W        W68772  22.055   9.923   3.456
96447W        W68773   6.833  19.347  13.805
96448W        W68774  17.598  44.797   0.215
96449W        W68775  37.010  21.054  14.825
96450W        W68776  40.261  36.145  10.594
96451W        W68777  29.151  42.501  11.867
96452W        W68778  39.521  36.361   4.834
96453W        W68779   4.783   2.918   1.435
96454W        W68780  16.975  34.947  13.017
96455W        W68781  35.169  25.514   0.715
96456W        W68782  34.037  35.818  11.647
96457W        W68783  35.758  14.026  12.393
96458W        W68784   9.417  34.672   1.855
96459W        W68785  28.575  38.002  11.690
96460W        W68786  38.519   8.212  14.465
96461W        W68787  29.316  33.586   2.150
96462W        W68788  44.372  34.377   5.054
96463W        W68789  22.028   6.874  14.479
96464W        W68790   9.697   9.217  13.879
96465W        W68791  44.891  27.472   2.245
96466W        W68792  22.439  28.890   2.076
96467W        W68793   3.604   7.651   2.444
96468W        W68794  16.690  31.858   1.193
96469W        W68795  44.430  33.630   5.029
96470W        W68796  40.451  21.082  10.179
96471W        W68797   3.526  13.676   0.790
96472W        W68798  44.380  29.363   3.366
96473W        W68799  35.345  22.408  14.402
96474W        W68800  40.113  28.661  13.003
96475W        W68801  27.940  40.935  14.546
96476W        W68802   8.476   8.299  11.023
96477W        W68803  18.176  31.196  10.726
96478W        W68804   2.486  30.672   0.778
96479W        W68805  43.908   6.425  12.937
96480W        W68806  26.771  42.887   4.698
96481W        W68807   0.031   6.905   2.654
96482W        W68808   6.454  23.617  14.528
96483W        W68809  40.292  30.983   3.644
96484W        W68810  14.142  30.110   1.684
96485W        W68811  31.433  42.823   5.065
96486W        W68812   6.207   7.806   4.766
96487W        W68813  36.535  23.530  12.481
96488W        W68814   9.849  25.479   2.740
96489W        W68815  10.518  26.059  10.504
96490W        W68816  41.326  36.913   0.300
96491W        W68817   1.861  13.757  12.590
96492W        W68818  35.419  22.304   0.712
96493W        W68819   9.703  41.513   0.535
96494W        W68820  34.969  12.756  14.328
96495W        W68821   5.165  39.118  12.068
96496W        W68822  35.109  17.860   3.637
96497W        W68823   2.146   1.559   9.827
96498W        W68824  35.897  10.643   1.243
96499W        W68825  31.365  21.776   3.117
96500W        W68826  20.233  17.036   2.301
96501W        W68827  30.404  12.801  10.696
96502W        W68828  17.983  42.847  13.536
96503W        W68829   9.792  43.203   2.361
96504W        W68830   7.176   2.275   1.279
96505W        W68831   0.038  32.116  11.055
96506W        W68832  14.234  44.060   1.744
96507W        W68833  38.817  27.114   3.066
96508W        W68834   0.669  16.241  12.111
96509W        W68835  14.185  33.080   2.324
96510W        W68836   8.601  18.941  11.700
96511W        W68837  25.136  15.908  11.541
96512W        W68838  20.198  24.632  12.478
96513W        W68839  29.360  17.993   3.780
96514W        W68840  36.780  15.233   2.179
96515W        W68841  28.954  23.449   2.339
96516W        W68842  37.705  35.020   2.661
96517W        W68843  18.304  40.943   1.747
96518W        W68844  29.458  40.068   0.897
96519W        W68845   9.913  11.133  12.397
96520W        W68846  19.637  30.547  14.827
96521W        W68847   3.884  12.917   0.492
96522W        W68848  44.635   3.410   4.577
96523W        W68849  25.759  34.481  12.909
96524W        W68850  26.968   7.849   2.764
96525W        W68851  10.470  27.154  11.157
96526W        W68852  18.636  31.875  13.786
96527W        W68853  18.340  38.234  11.662
96528W        W68854  16.791  22.043  13.285
96529W        W68855   4.291  21.392   0.267
96530W        W68856  31.023  14.592  11.117
96531W        W68857  42.473  37.309  11.197
96532W        W68858   7.726  11.484   2.105
96533W        W68859  39.736  12.574   0.374
96534W        W68860   0.375  36.117   0.511
96535W        W68861   1.022  37.627   2.556
96536W        W68862  33.614   6.481   1.808
96537W        W68863  28.131  34.244  14.441
96538W        W68864   2.035  20.813  11.593
96539W        W68865  28.458   4.258   0.886
96540W        W68866   3.943  11.421   0.207
96541W        W68867   3.914  34.159  13.793
96542W        W68868  44.937  19.083  14.683
96543W        W68869   2.927  25.174   0.330
96544W        W68870  40.064  43.781  14.418
96545W        W68871  12.228  36.512   0.863
96546W        W68872  22.480  31.606   4.886
96547W        W68873   9.673   4.708  14.363
96548W        W68874  20.754  28.948   2.303
96549W        W68875  44.384   6.686  10.657
96550W        W68876  26.009   4.403   3.296
96551W        W68877  21.044   1.443  14.323
96552W        W68878  37.032  10.284   3.584
96553W        W68879  37.730  33.244  13.038
96554W        W68880  42.361  32.976  14.863
96555W        W68881  37.024   9.328   3.448
96556W        W68882  33.322   6.027  14.903
96557W        W68883  22.874  32.014  14.433
96558W        W68884  25.224  27.376  11.576
96559W        W68885   2.383  40.493   0.330
96560W        W68886   0.256  40.515   4.067
96561W        W68887   8.890  10.824   0.119
96562W        W68888  26.603  12.705  13.367
96563W        W68889  19.234  35.983   0.242
96564W        W68890  24.514  40.427  12.066
96565W        W68891  18.221  40.519  10.964
96566W        W68892  34.570  32.616  13.965
96567W        W68893  21.092  32.108  14.491
96568W        W68894  41.370  39.324   0.850
96569W        W68895   0.917  10.352   3.085
96570W        W68896  37.058  20.116  13.735
96571W        W68897   9.153   5.634  13.417
96572W        W68898  34.851  40.213  13.942
96573W        W68899  22.200  42.325  14.792
96574W        W68900   9.535  37.882   2.336
96575W        W68901  15.723  33.951  11.053
96576W        W68902  24.234  15.709   4.597
96577W        W68903  43.246  21.222  14.030
96578W        W68904  37.609  19.737  12.029
96579W        W68905  34.564  25.857   2.400
96580W        W68906  16.894  22.800   3.242
96581W        W68907  24.008  12.699   2.364
96582W        W68908  29.425   8.364   0.921
96583W        W68909  36.810  14.272  11.742
96584W        W68910  39.458  13.882  13.132
96585W        W68911  17.516  40.323  13.039
96586W        W68912  21.207  26.356   5.064
96587W        W68913  21.230  30.568   1.016
96588W        W68914   3.467  29.295   3.607
96589W        W68915  43.875  26.044   1.810
96590W        W68916   6.406  12.306   2.953
96591W        W68917  39.650   8.864  12.990
96592W        W68918  32.646  13.301  10.420
96593W        W68919   7.213  40.883  14.846
96594W        W68920  39.773   5.791   0.225
96595W        W68921  41.566  20.979   0.740
96596W        W68922  11.135  12.616  14.022
96597W        W68923  35.282   8.934  13.428
96598W        W68924  34.637  24.746  12.777
96599W        W68925  33.554   4.148  11.151
96600W        W68926  44.983   5.705   1.003
96601W        W68927  41.387  41.779   0.925
96602W        W68928  40.933  37.990   3.513
96603W        W68929   5.809  34.131   1.363
96604W        W68930   2.331  11.725  14.374
96605W        W68931  40.834  19.726  11.686
96606W        W68932  32.150  36.509  11.363
96607W        W68933  38.493  22.119  11.456
96608W        W68934  43.500   3.570   4.068
96609W        W68935  19.681  23.671   0.691
96610W        W68936  34.977  38.296  13.535
96611W        W68937   9.691  38.463   1.460
96612W        W68938   8.367  31.218  14.095
96613W        W68939   5.665  25.757   3.130
96614W        W68940  39.277   6.344   2.165
96615W        W68941   4.956  40.584  13.473
96616W        W68942  12.823  25.445   0.690
96617W        W68943  31.588   1.499   0.879
96618W        W68944  37.763  43.476  14.460
96619W        W68945  26.984  33.098   1.333
96620W        W68946  14.765  25.525   1.263
96621W        W68947   5.089   1.000  13.972
96622W        W68948  21.590  28.151  12.992
96623W        W68949  18.107   4.834   1.475
96624W        W68950   3.830  20.891  11.964
96625W        W68951  32.385  22.101   0.595
96626W        W68952  14.009  26.031   1.191
96627W        W68953  38.534  12.666   0.850
96628W        W68954  10.270  38.859   3.506
96629W        W68955  44.863  26.212   0.775
96630W        W68956  43.073  17.091   0.916
96631W        W68957  30.406  44.927  13.493
96632W        W68958   1.297  31.644   2.118
96633W        W68959  33.968  29.163   2.010
96634W        W68960  19.543  11.155  14.005
96635W        W68961  34.107  32.126  12.883
96636W        W68962  35.680  43.879   0.954
96637W        W68963  11.090  27.594  12.889
96638W        W68964  10.137  42.920  13.101
96639W        W68965   1.501  24.189   0.345
96640W        W68966  16.466  26.628   2.776
96641W        W68967   6.510  27.842   1.757
96642W        W68968  27.121  42.405  12.154
96643W        W68969  27.444  18.094   0.864
96644W        W68970  43.428  13.591  11.485
96645W        W68971  31.360  36.638  10.844
96646W        W68972  39.442  18.198   4.786
96647W        W68973  11.065  30.999   0.014
96648W        W68974  24.228   4.396   2.093
96649W        W68975   9.171  16.955   4.211
96650W        W68976  30.850  31.861  14.829
96651W        W68977  25.148  27.637  12.936
96652W        W68978  40.868   1.717   3.564
96653W        W68979  36.461  18.064  14.419
96654W        W68980  23.081  19.653   3.568
96655W        W68981  15.538  22.062   0.346
96656W        W68982  19.132  29.545  12.089
96657W        W68983  40.925  16.829  13.570
96658W        W68984  32.462  43.262   0.575
96659W        W68985   6.644  38.011  11.621
96660W        W68986  11.779  43.038   2.409
96661W        W68987  41.460  25.738  13.373
96662W        W68988   7.302  33.377  11.214
96663W        W68989  17.563  31.687   4.794
96664W        W68990  22.121  35.023   0.008
96665W        W68991  28.865   0.521  14.822
96666W        W68992  38.322  14.618  13.308
96667W        W68993  29.515  15.709   9.918
96668W        W68994  13.470   8.470  12.874
96669W        W68995  43.705  20.708  11.558
96670W        W68996  33.354  16.527  14.488
96671W        W68997   3.189  10.556  11.937
96672W        W68998  13.642  35.823   0.456
96673W        W68999  35.084   3.711   0.796
96674W        W69000  21.324  34.283  11.408
96675W        W69001   8.921  10.799  11.106
96676W        W69002  25.441  28.440   1.157
96677W        W69003  32.680   4.284   1.903
96678W        W69004   7.387  26.225  12.808
96679W        W69005  29.543  39.403  11.277
96680W        W69006  39.912  14.426   4.940
96681W        W69007  35.826  36.516   0.775
96682W        W69008   0.270   0.708   2.854
96683W        W69009  37.524  30.602   3.656
96684W        W69010  18.356  13.264   1.684
96685W        W69011  23.742  36.161   3.933
96686W        W69012  43.659  40.645   3.047
96687W        W69013  34.592  24.223   0.174
96688W        W69014  16.479  25.208   1.654
96689W        W69015   6.489  14.659  10.709
96690W        W69016  18.672   4.957  10.736
96691W        W69017   9.377  32.492  11.102
96692W        W69018  36.051  15.725   4.708
96693W        W69019   1.318  30.123  13.510
96694W        W69020   6.394   3.501   9.932
96695W        W69021  31.832  32.500   0.712
96696W        W69022  32.928  40.542   4.878
96697W        W69023  31.564  21.938  13.620
96698W        W69024  30.890  20.183   0.320
96699W        W69025   5.546   9.236   0.397
96700W        W69026  36.042  10.987  10.575
96701W        W69027  32.003  40.437  10.517
96702W        W69028  12.388  27.958  11.940
96703W        W69029   4.627  38.916   0.179
96704W        W69030  30.157   7.830  14.041
96705W        W69031   6.306  30.997  14.686
96706W        W69032  39.843  15.418   3.636
96707W        W69033  40.198   8.790   2.738
96708W        W69034  19.620  24.212   2.219
96709W        W69035   3.879  31.428  11.559
96710W        W69036  20.873  34.165   2.858
96711W        W69037  44.297  13.644   4.392
96712W        W69038  23.016  21.361  10.080
96713W        W69039  42.599  35.912  14.679
96714W        W69040  16.580  18.065   3.681
96715W        W69041   0.780  31.186   0.367
96716W        W69042  23.695  44.703  14.027
96717W        W69043  31.494  12.717  12.918
96718W        W69044   5.806  22.985   2.452
96719W        W69045  27.298  29.538  11.622
96720W        W69046  12.580   7.838  10.680
96721W        W69047   3.321   4.991   5.113
96722W        W69048  34.911  44.902   2.697
96723W        W69049  13.267   4.978   3.227
96724W        W69050   9.456  24.717   0.864
96725W        W69051  22.309  12.241  12.965
96726W        W69052   7.381   7.941  11.281
96727W        W69053   9.519  25.696  14.482
96728W        W69054  18.326  41.400  11.381
96729W        W69055  29.960  41.554   0.994
96730W        W69056  17.551   2.532   0.460
96731W        W69057  11.819  16.722   3.724
96732W        W69058  43.365  41.115  12.986
96733W        W69059  39.372  12.236  13.407
96734W        W69060  11.430  25.718   0.832
96735W        W69061  44.964   5.802  13.567
96736W        W69062  37.443  22.291  14.923
96737W        W69063   8.363   9.573   4.652
96738W        W69064   5.317  38.890   0.005
96739W        W69065  43.411   8.321  12.185
96740W        W69066  22.116  35.454  13.320
96741W        W69067   4.458  32.129  13.071
96742W        W69068  26.015   7.500   4.866
96743W        W69069  24.172  24.697   3.889
96744W        W69070  37.014  42.397  12.125
96745W        W69071   4.403  20.979   2.748
96746W        W69072  33.770  33.471   9.818
96747W        W69073  28.446  28.912  10.222
96748W        W69074   0.152  24.625  12.843
96749W        W69075  14.677  34.388  12.566
96750W        W69076  43.549  17.104  11.107
96751W        W69077  17.861  28.459   0.937
96752W        W69078  14.880  38.628  14.860
96753W        W69079   7.292  35.924   3.319
96754W        W69080  20.094  41.924   2.419
96755W        W69081  41.247  33.563   4.244
96756W        W69082  12.352  39.443  12.576
96757W        W69083  34.677  24.002   2.252
96758W        W69084  24.481  21.685   3.772
96759W        W69085  29.487   6.630  11.656
96760W        W69086  14.198  31.419   1.163
96761W        W69087  30.880  42.848   1.781
96762W        W69088  24.851  33.339  13.022
96763W        W69089  27.715  22.694   2.356
96764W        W69090  42.871  20.667   2.243
96765W        W69091   2.458  44.299   1.212
96766W        W69092   0.735  43.921   4.817
96767W        W69093  17.213  23.614   1.914
96768W        W69094  21.366  14.810   1.526
96769W        W69095  42.506  22.578  13.835
96770W        W69096   5.776  11.895   0.246
96771W        W69097  29.394  20.788   2.945
96772W        W69098  38.399   2.013  13.934
96773W        W69099  43.515  43.874  10.542
96774W        W69100  13.087  31.960   3.184
96775W        W69101  28.991  22.208   4.553
96776W        W69102  16.015  39.462   2.286
96777W        W69103  10.224  18.014  10.764
96778W        W69104  18.311  17.526  12.488
96779W        W69105  29.630  35.869   2.422
96780W        W69106   3.653  19.776  12.550
96781W        W69107  33.347  22.050   0.868
96782W        W69108  13.469  36.785   4.140
96783W        W69109  40.881   6.916   2.797
96784W        W69110   4.607  41.842  11.205
96785W        W69111  26.467  21.139   4.888
96786W        W69112  28.932  18.765   1.915
96787W        W69113  16.623  11.039  12.858
96788W        W69114  11.351  43.948   2.190
96789W        W69115  26.914  36.971   1.343
96790W        W69116   8.296  35.402  14.522
96791W        W69117   3.442  16.772   5.013
96792W        W69118   6.720  10.354  12.436
96793W        W69119  25.309  25.090  11.698
96794W        W69120  36.417  18.580  12.440
96795W        W69121   6.214  15.076  14.536
96796W        W69122  20.026  34.928  11.620
96797W        W69123   2.377  35.796   1.834
96798W        W69124  28.611   1.788   0.072
96799W        W69125  27.253  30.411  11.135
96800W        W69126  21.991  22.201  14.367
96801W        W69127  25.189  18.330   2.447
96802W        W69128  15.050  27.178  12.225
96803W        W69129  41.789   9.429  13.725
96804W        W69130  42.851   9.327   0.369
96805W        W69131   6.100  35.006  14.772
96806W        W69132  26.212  31.632  13.579
96807W        W69133  40.389  26.174  14.098
96808W        W69134   2.906  19.675   1.449
96809W        W69135  25.670  37.503  14.374
96810W        W69136   2.005  28.910   3.699
96811W        W69137  10.411  23.979   2.273
96812W        W69138  38.952   3.839   1.183
96813W        W69139  19.677  10.841  10.447
96814W        W69140   9.259  24.980  11.327
96815W        W69141  27.917  43.935   1.099
96816W        W69142   9.393   8.405   0.260
96817W        W69143  35.103  14.099   2.623
96818W        W69144  36.729  35.490  11.995
96819W        W69145  13.427   0.848  14.754
96820W        W69146  35.400  22.738   4.797
96821W        W69147  14.349  20.085   2.814
96822W        W69148  23.110  15.661  10.372
96823W        W69149  32.776  35.660   5.059
96824W        W69150   7.331   9.725   4.840
96825W        W69151  41.532  17.537   0.017
96826W        W69152  36.596  14.184   2.821
96827W        W69153  39.036  40.779  10.700
96828W        W69154   4.857  32.743   4.149
96829W        W69155  13.637  11.854   4.667
96830W        W69156  21.625  15.189  13.040
96831W        W69157  26.719  27.545   1.321
96832W        W69158  30.940  26.036   0.478
96833W        W69159  30.468  26.899   0.810
96834W        W69160  36.482  41.382   4.211
96835W        W69161   4.807   8.156   4.564
96836W        W69162   0.503  24.700   2.802
96837W        W69163  39.532  10.266  12.959
96838W        W69164  30.033  21.807   4.444
96839W        W69165  36.288  14.089   1.258
96840W        W69166   1.172  25.921  11.959
96841W        W69167  16.708  20.453   4.344
96842W        W69168  42.271  14.022   3.392
96843W        W69169  30.449  16.731  12.304
96844W        W69170  34.434  31.080   4.964
96845W        W69171   6.813  37.143   3.977
96846W        W69172  20.969  19.711   2.399
96847W        W69173  22.437   2.326  12.538
96848W        W69174  13.428  40.494  13.533
96849W        W69175  39.021  37.435  12.027
96850W        W69176  26.050  27.528   5.057
96851W        W69177  10.849  37.664  12.460
96852W        W69178  20.429  20.052  12.642
96853W        W69179   4.814  15.670   3.421
96854W        W69180  23.109  28.545   0.827
96855W        W69181  11.716  14.588  11.183
96856W        W69182  34.984  24.655   0.494
96857W        W69183  11.847  28.143  11.812
96858W        W69184  10.769  10.875   0.475
96859W        W69185  30.567  35.104   1.514
96860W        W69186  28.356  36.029  13.686
96861W        W69187  39.855  13.047  10.682
96862W        W69188  13.524   3.636   1.240
96863W        W69189  12.092  17.986   0.422
96864W        W69190  17.007  33.027   1.370
96865W        W69191  23.218  24.111   4.237
96866W        W69192  23.483  10.403  11.439
96867W        W69193   8.298  22.561  11.512
96868W        W69194  17.065  44.596   4.581
96869W        W69195  13.226   6.934   3.639
96870W        W69196  34.114  10.830  13.847
96871W        W69197   0.915  40.437  10.577
96872W        W69198  33.572   8.327   4.387
96873W        W69199  22.485   3.571  11.619
96874W        W69200  39.339   1.678  13.878
96875W        W69201  36.426  25.052   4.618
96876W        W69202   0.967  14.747   3.220
96877W        W69203   8.873  32.975  12.837
96878W        W69204  25.525  36.530  11.085
96879W        W69205  43.856  28.179   2.739
96880W        W69206   8.726  41.423   0.307
96881W        W69207  12.411  37.456   2.141
96882W        W69208  38.138  13.127  14.239
96883W        W69209  41.818   2.559  14.806
96884W        W69210   6.278  37.022   4.681
96885W        W69211  42.252   7.940   1.944
96886W        W69212  11.844  16.192   3.146
96887W        W69213  39.818  40.593  13.784
96888W        W69214   4.660  34.496   3.857
96889W        W69215  33.539  32.368   1.461
96890W        W69216  18.580  24.791  11.385
96891W        W69217   4.860  25.936  14.839
96892W        W69218   0.938  39.373  13.481
96893W        W69219  42.769  26.161  12.167
96894W        W69220  30.648  34.410  11.880
96895W        W69221   0.272  41.442   4.061
96896W        W69222   1.775  39.166  11.029
96897W        W69223  35.408   8.970   0.508
96898W        W69224  23.217  40.047  10.973
96899W        W69225   0.281  25.065  13.391
96900W        W69226  16.364  10.240   3.637
96901W        W69227  31.262   2.349   2.722
96902W        W69228  29.725  12.832   4.684
96903W        W69229  19.522   9.921   1.496
96904W        W69230  19.681   0.397   1.317
96905W        W69231  33.023  36.817  13.992
96906W        W69232  20.186  26.750  10.347
96907W        W69233  20.687  38.048  14.525
96908W        W69234  28.691  21.197  13.862
96909W        W69235  35.054   0.088  11.444
96910W        W69236   6.807  15.133  11.104
96911W        W69237  30.032  29.039  14.955
96912W        W69238  32.442   5.732  11.073
96913W        W69239  13.184  41.625  10.840
96914W        W69240  19.806  30.681   1.980
96915W        W69241  40.826  11.241   4.296
96916W        W69242  12.649  10.865  10.726
96917W        W69243  12.127  40.453  12.878
96918W        W69244  43.756   4.856  12.113
96919W        W69245  17.724  20.958  13.344
96920W        W69246  20.086  23.070   0.328
96921W        W69247   1.016  31.051  12.890
96922W        W69248   5.218  11.284   4.633
96923W        W69249  37.939  40.074   1.822
96924W        W69250  23.902  44.898  13.586
96925W        W69251  33.852  20.219   2.850
96926W        W69252  29.086  24.989   3.207
96927W        W69253  20.513  21.317   9.954
96928W        W69254   1.685  40.076   1.877
96929W        W69255  22.787   8.712   2.681
96930W        W69256  38.759  30.073  11.731
96931W        W69257  43.216  23.500   2.783
96932W        W69258  40.790  17.744  12.661
96933W        W69259  25.968  34.306   0.145
96934W        W69260  36.401  44.498  13.793
96935W        W69261  28.299  29.403  10.260
96936W        W69262   1.242  37.239  13.899
96937W        W69263  23.895   8.105   2.234
96938W        W69264  34.104  31.986   3.682
96939W        W69265   9.273  22.675   2.735
96940W        W69266  43.958  10.939  12.559
96941W        W69267   5.324  29.940   4.729
96942W        W69268  24.707  11.564  13.442
96943W        W69269  21.258   5.008  12.845
96944W        W69270  44.387  41.316  10.749
96945W        W69271  43.698   7.317   2.374
96946W        W69272  25.453  27.497  13.355
96947W        W69273   6.481  26.014  12.610
96948W        W69274  40.233   2.174   3.802
96949W        W69275   9.799  27.771  11.613
96950W        W69276  25.728  43.060  11.060
96951W        W69277  36.498  23.531  12.995
96952W        W69278  37.918  42.472   2.476
96953W        W69279  43.273  10.815  13.039
96954W        W69280  24.614  18.286  11.552
96955W        W69281  17.264  38.721   4.064
96956W        W69282  44.065  12.078   3.092
96957W        W69283  23.004  18.351  14.561
96958W        W69284  32.492  24.865   4.147
96959W        W69285  20.455  14.168  11.100
96960W        W69286  16.346  36.885   0.358
96961W        W69287   2.488  20.460  10.134
96962W        W69288   3.914   6.844   3.726
96963W        W69289   9.285  40.846   3.105
96964W        W69290  10.727  23.033   1.996
96965W        W69291  20.335  28.125  13.634
96966W        W69292  32.017  24.191   1.293
96967W        W69293   8.203  17.816   4.076
96968W        W69294  37.816  20.964   2.361
96969W        W69295  35.075  21.668  11.141
96970W        W69296  36.869  20.263  10.778
96971W        W69297  19.666   7.163  13.514
96972W        W69298  43.774  36.970   3.653
96973W        W69299  24.610  43.089   3.919
96974W        W69300  40.567  23.694   4.574
96975W        W69301  37.458   0.933   4.180
96976W        W69302  15.125   1.557   1.422
96977W        W69303  43.026  12.577  14.463
96978W        W69304  10.732  17.834  14.782
96979W        W69305  28.454  17.040   4.131
96980W        W69306  27.175   1.829   3.163
96981W        W69307  28.005  24.149  13.197
96982W        W69308   0.847   5.754   4.720
96983W        W69309  31.053  32.012   3.420
96984W        W69310  19.388   1.742  12.114
96985W        W69311  12.800  11.667  13.449
96986W        W69312  27.101  27.641   3.146
96987W        W69313  44.126  31.352   3.726
96988W        W69314  37.019  44.861   0.228
96989W        W69315  41.848  12.865   2.119
96990W        W69316  32.459  27.686  12.024
96991W        W69317   9.151   4.768  14.367
96992W        W69318  37.039  33.841  12.491
96993W        W69319  19.701  21.756  14.338
96994W        W69320   9.958  33.410   2.755
96995W        W69321  17.095   9.456  10.713
96996W        W69322  19.108  10.278   1.443
96997W        W69323  22.416  17.390   2.333
96998W        W69324   0.949  29.087   1.931
96999W        W69325   1.923  32.942  13.319
97000W        W69326  41.732  19.160   0.334
97001W        W69327  10.564  33.554  12.848
97002W        W69328  16.484  12.125   0.383
97003W        W69329  25.190   6.335   2.289
97004W        W69330   2.672  44.971   0.676
97005W        W69331  34.915   9.745   0.623
97006W        W69332  28.169  11.596   3.158
97007W        W69333  12.228  43.929   4.481
97008W        W69334  27.985   8.743  10.599
97009W        W69335  35.164  26.673  12.144
97010W        W69336  36.177  11.800  13.813
97011W        W69337  29.468  28.098  12.636
97012W        W69338   5.385  30.922   3.245
97013W        W69339  30.509  16.799   2.646
97014W        W69340  27.385  34.447  13.322
97015W        W69341   2.820  21.492   4.172
97016W        W69342  44.072  42.447  14.304
97017W        W69343  36.041  35.947  13.046
97018W        W69344  11.377  37.100  12.006
97019W        W69345  41.887  16.339   1.519
97020W        W69346   0.019  19.176   4.140
97021W        W69347  11.615  21.673   4.323
97022W        W69348   8.533   8.661  14.753
97023W        W69349  33.269  32.860  13.013
97024W        W69350  12.615  38.425   0.412
97025W        W69351   3.399  31.922  11.084
97026W        W69352  13.773  10.462  13.715
97027W        W69353  34.363   1.353   2.652
97028W        W69354  32.412  39.778  11.559
97029W        W69355  25.734   3.396  14.161
97030W        W69356  21.815  43.358  11.575
97031W        W69357  15.702  14.310   1.287
97032W        W69358  14.021  16.703   3.246
97033W        W69359  38.940   1.805  10.706
97034W        W69360   2.842  29.090  13.906
97035W        W69361  33.659   8.897  12.131
97036W        W69362   1.263  20.917  11.035
97037W        W69363   9.262  37.496   0.834
97038W        W69364  25.488   3.192  13.757
97039W        W69365   5.139  13.667   1.078
97040W        W69366  20.623  20.692   1.099
97041W        W69367  11.784  22.796  11.216
97042W        W69368  24.042  17.748  14.307
97043W        W69369  18.601   8.339   2.286
97044W        W69370   9.806   9.546   0.737
97045W        W69371   8.234  18.347   1.881
97046W        W69372  22.155  32.404   0.464
97047W        W69373  30.892  28.084  10.791
97048W        W69374  37.098  10.869  14.570
97049W        W69375  13.469  15.693   3.395
97050W        W69376  22.594  43.182  12.852
97051W        W69377  23.210  13.071   3.400
97052W        W69378   1.464  22.522  13.553
97053W        W69379   8.286  26.785   5.081
97054W        W69380   4.441  35.391  10.695
97055W        W69381  43.669  41.552  14.628
97056W        W69382  36.928  11.729   2.865
97057W        W69383  32.637  14.339   0.503
97058W        W69384  39.004   5.980  14.259
97059W        W69385  36.094  44.362  11.770
97060W        W69386   5.317   9.669   3.118
97061W        W69387   8.676  19.020  12.532
97062W        W69388  20.472  27.332   3.163
97063W        W69389  33.806  27.113  12.142
97064W        W69390   2.626   9.661   1.738
97065W        W69391  21.350  15.365   5.299
97066W        W69392  29.870  27.538   2.042
97067W        W69393  40.094  10.847  13.429
97068W        W69394  39.479   8.761   0.319
97069W        W69395   5.904  41.067  13.504
97070W        W69396  14.736   9.913   0.452
97071W        W69397   3.723  35.981   0.857
97072W        W69398   4.457  36.969  11.536
97073W        W69399  14.137  25.335  12.696
97074W        W69400  31.942  14.123   5.080
97075W        W69401  39.392  28.494   1.283
97076W        W69402  40.691  23.729  12.849
97077W        W69403  24.489   4.855   4.832
97078W        W69404  11.464  21.753  11.189
97079W        W69405  27.483  18.350   0.385
97080W        W69406   6.023   6.464   3.592
97081W        W69407  33.972   2.977  12.511
97082W        W69408  29.503  18.346   4.645
97083W        W69409  41.870  12.493   0.712
97084W        W69410  37.716  44.870  11.862
97085W        W69411  16.223  38.537  12.455
97086W        W69412  16.913  30.220   2.387
97087W        W69413  29.612  23.069   4.606
97088W        W69414   6.169  16.678   4.722
97089W        W69415  29.088  17.725   4.143
97090W        W69416  12.470  29.473   3.334
97091W        W69417  41.319  34.060   0.811
97092W        W69418   0.250   2.534  13.606
97093W        W69419   2.815  34.340  14.073
97094W        W69420  19.484  15.636  10.679
97095W        W69421  11.957  36.619  12.085
97096W        W69422  40.383  43.804   0.296
97097W        W69423   0.982   2.334   2.613
97098W        W69424  14.411  22.110  13.396
97099W        W69425  33.139  43.361   1.385
97100W        W69426  21.337  17.884  14.783
97101W        W69427  40.661  15.183  10.528
97102W        W69428  15.880  14.881   0.684
97103W        W69429  24.977  20.867   1.916
97104W        W69430  30.157  28.281   9.823
97105W        W69431  19.139  37.277   0.099
97106W        W69432  35.237  31.475  11.647
97107W        W69433  25.480   6.236   1.723
97108W        W69434  34.554  25.398  11.989
97109W        W69435  30.468  15.629  14.363
97110W        W69436  38.583  16.562   3.324
97111W        W69437  24.028  18.257   4.398
97112W        W69438  22.820  10.915  13.307
97113W        W69439  43.966  17.749   2.438
97114W        W69440  42.194  32.482   0.941
97115W        W69441  43.226  34.862  12.482
97116W        W69442   7.348  40.339  13.401
97117W        W69443  35.117  29.317   2.778
97118W        W69444  21.069  12.074   1.441
97119W        W69445  10.125  28.308   2.514
97120W        W69446   6.171   2.278  11.466
97121W        W69447  13.892  28.210   0.281
97122W        W69448  23.464  16.366   0.772
97123W        W69449   3.986  21.623   3.644
97124W        W69450  39.504  15.278  13.969
97125W        W69451  21.539  25.477  11.161
97126W        W69452  41.983  41.496  14.861
97127W        W69453  39.931  25.931  14.274
97128W        W69454  43.626  33.156   2.826
97129W        W69455  36.901  16.128   0.806
97130W        W69456  13.622  10.263   2.273
97131W        W69457  28.670  43.243   1.351
97132W        W69458  40.939   0.362  14.411
97133W        W69459  39.529  19.805   1.284
97134W        W69460  25.359  36.092   3.161
97135W        W69461  16.598  24.142   0.940
97136W        W69462   3.403  37.916   2.831
97137W        W69463  39.413  17.728   4.547
97138W        W69464   1.781  16.428   0.126
97139W        W69465  14.456   6.454  14.462
97140W        W69466  29.237  23.526   2.790
97141W        W69467  37.024  26.809  11.090
97142W        W69468  20.792   3.888   0.610
97143W        W69469  23.836  33.622   5.027
97144W        W69470  17.047  34.567  12.016
97145W        W69471   1.641  16.233  11.867
97146W        W69472   2.335  44.321   4.692
97147W        W69473  31.462  17.675  10.820
97148W        W69474  43.457  26.648   2.282
97149W        W69475   0.843  10.590  12.868
97150W        W69476  15.147  26.742  13.911
97151W        W69477  14.706  39.573  12.016
97152W        W69478  27.021  35.646   3.706
97153W        W69479  42.797  18.741   2.829
97154W        W69480  33.097  19.133   1.393
97155W        W69481   1.805  15.915   0.234
97156W        W69482  10.738  41.565   0.777
97157W        W69483  17.151  41.599  13.885
97158W        W69484  40.102   1.952   1.770
97159W        W69485  23.894  37.358   0.749
97160W        W69486  43.034   3.357   2.149
97161W        W69487  39.640   7.867   1.295
97162W        W69488  38.385  28.079  11.473
97163W        W69489   2.371   1.496  12.067
97164W        W69490  26.189  29.005   0.263
97165W        W69491   7.097  26.006   4.142
97166W        W69492  44.752   9.258   2.472
97167W        W69493  29.750   8.732   2.275
97168W        W69494  14.755  39.957   3.728
97169W        W69495  19.511   0.975   2.656
97170W        W69496  24.017  19.587   2.314
97171W        W69497  42.622   1.357  13.476
97172W        W69498  44.860  12.408  14.084
97173W        W69499   8.907  38.594  14.318
97174W        W69500   6.367  12.189   4.392
97175W        W69501  38.646   2.344  10.699
97176W        W69502  34.583  27.801   1.994
97177W        W69503  21.528  14.945  12.019
97178W        W69504  18.830  20.301   3.783
97179W        W69505  16.469  26.095  10.914
97180W        W69506  40.504  12.495  11.973
97181W        W69507  22.139  19.527   2.896
97182W        W69508   6.328   0.733   3.129
97183W        W69509  15.614  19.579  13.949
97184W        W69510  26.475  19.714   1.794
97185W        W69511   7.850   6.421  10.589
97186W        W69512   8.809  34.185  12.311
97187W        W69513  35.709  17.680   4.239
97188W        W69514  36.092  22.290   0.411
97189W        W69515   2.807  44.358   3.587
97190W        W69516  40.023  35.983  11.547
97191W        W69517  25.620  19.023   0.803
97192W        W69518  42.584  43.865   1.781
97193W        W69519  14.368  15.968  11.721
97194W        W69520  27.155  34.453   2.769
97195W        W69521  28.873   3.323   1.017
97196W        W69522  43.464   8.119  11.538
97197W        W69523  27.262   5.218  13.591
97198W        W69524  38.074  42.858   2.128
97199W        W69525  27.663  25.089   2.696
97200W        W69526  34.541  35.001  13.785
97201W        W69527  15.362  38.714   2.256
97202W        W69528  13.562  31.200   2.180
97203W        W69529  36.446  32.848   2.041
97204W        W69530  43.354  24.787  13.416
97205W        W69531  33.231  23.635  12.096
97206W        W69532  29.952  25.770   4.715
97207W        W69533  16.245  28.969   2.759
97208W        W69534   5.558  17.012  14.254
97209W        W69535  10.240  30.671   1.804
97210W        W69536  25.670  42.384  12.075
97211W        W69537  13.330   2.860   0.389
97212W        W69538  15.695   8.658  10.719
97213W        W69539  32.563  23.578   2.766
97214W        W69540  34.636  17.296  13.086
97215W        W69541  43.984  16.147   0.972
97216W        W69542   3.803  25.876  14.467
97217W        W69543  11.305   7.779  13.512
97218W        W69544  35.648  42.132   2.924
97219W        W69545  22.117   1.244   0.402
97220W        W69546  19.429  16.215  13.022
97221W        W69547  40.973  29.177  10.538
97222W        W69548  14.867  25.901  14.400
97223W        W69549  10.170  31.987  12.541
97224W        W69550  13.015  37.826   1.432
97225W        W69551   2.388  20.625   1.777
97226W        W69552  21.038  31.385  12.032
97227W        W69553   8.773   1.805   1.993
97228W        W69554  44.982  11.223  10.870
97229W        W69555  24.717  36.948   1.014
97230W        W69556  30.696  43.284  12.049
97231W        W69557  35.311  43.048  13.348
97232W        W69558   5.852  26.507  13.281
97233W        W69559  31.096  35.069   1.246
97234W        W69560  26.104  41.286  12.865
97235W        W69561  38.907   9.774  13.548
97236W        W69562   7.498  32.045  12.863
97237W        W69563  42.455  28.245  11.563
97238W        W69564  28.573  26.014   9.676
97239W        W69565  41.476   8.699   3.600
97240W        W69566   2.424  35.181   2.740
97241W        W69567   5.914  44.252   0.694
97242W        W69568  14.234  14.541  14.079
97243W        W69569  19.476   0.420  11.969
97244W        W69570  12.781   3.786  11.897
97245W        W69571  18.497  21.049  12.912
97246W        W69572  12.809   5.176   2.919
97247W        W69573  38.069  21.784  12.856
97248W        W69574   4.873   9.249  14.508
97249W        W69575  20.224  20.396  14.180
97250W        W69576  14.747   5.451  12.984
97251W        W69577  13.395  38.080   0.943
97252W        W69578  20.952  24.075   4.970
97253W        W69579  36.338  33.072   1.189
97254W        W69580  10.871  34.612   0.727
97255W        W69581  21.041   7.785   3.399
97256W        W69582  12.961  15.315  14.814
97257W        W69583   9.382  10.869   0.243
97258W        W69584   2.458  16.552   4.664
97259W        W69585  24.495   5.825  13.493
97260W        W69586  27.722  10.688   1.137
97261W        W69587   3.357  28.491  10.807
97262W        W69588  43.724  38.132  13.490
97263W        W69589  34.916  41.050  13.113
97264W        W69590  34.335  29.380   1.011
97265W        W69591  11.152  32.468  13.913
97266W        W69592  33.921   3.842  14.736
97267W        W69593   3.968  10.216   3.251
97268W        W69594  31.513  23.462  13.193
97269W        W69595  18.804   0.130  14.826
97270W        W69596  29.657  14.572  11.198
97271W        W69597  37.119   7.447   1.730
97272W        W69598   4.249  18.202  11.984
97273W        W69599  14.535  22.195   3.357
97274W        W69600  33.146   4.127  14.980
97275W        W69601  13.361  24.543   1.689
97276W        W69602  42.388  43.456   1.519
97277W        W69603   7.582   0.801   0.925
97278W        W69604  27.555  28.920  10.558
97279W        W69605  14.735  43.977   4.267
97280W        W69606  18.185  36.133  13.581
97281W        W69607  30.485  28.231   1.165
97282W        W69608  40.118  12.611   2.220
97283W        W69609  23.702  17.001   3.607
97284W        W69610  35.846   8.365   0.903
97285W        W69611  31.015  37.492  11.936
97286W        W69612  34.482  25.796   3.698
97287W        W69613  28.710  18.814  14.289
97288W        W69614  31.527  18.717   4.652
97289W        W69615  32.083  44.439  12.876
97290W        W69616  40.162  11.477   4.100
97291W        W69617  44.454  43.414   1.464
97292W        W69618  25.478  17.513   1.159
97293W        W69619  22.215  20.602  10.958
97294W        W69620   6.817   1.300   4.700
97295W        W69621  12.397  42.562  14.725
97296W        W69622  16.922  29.694   3.247
97297W        W69623  19.353   6.177   3.060
97298W        W69624  25.874  27.545   4.198
97299W        W69625  42.421   0.955   3.168
97300W        W69626  43.651  28.568  13.310
97301W        W69627  41.088  28.357   2.752
97302W        W69628  38.641   6.443   3.796
97303W        W69629  15.569  34.884  11.444
97304W        W69630  14.670   0.726   0.175
97305W        W69631  39.008  28.195  12.460
97306W        W69632  25.470  28.863  12.362
97307W        W69633  29.660   7.485  14.373
97308W        W69634   1.207   1.021  13.050
97309W        W69635   5.380  14.543   0.486
97310W        W69636   4.874  24.161  11.978
97311W        W69637  33.187  21.184   0.533
97312W        W69638  21.408  11.414  14.685
97313W        W69639  43.984  23.052   4.197
97314W        W69640  30.460   5.242  11.541
97315W        W69641  19.052  13.313  13.541
97316W        W69642  39.824  16.148   2.880
97317W        W69643  16.430  20.269   1.722
97318W        W69644   9.774  31.275   0.482
97319W        W69645  37.239   6.166   4.271
97320W        W69646   6.196  10.225   2.296
97321W        W69647   0.747   7.921  12.533
97322W        W69648  40.981   2.523   1.396
97323W        W69649  19.715  25.918  11.889
97324W        W69650   1.888  12.265  14.963
97325W        W69651  12.899  36.173   4.196
97326W        W69652  27.312  40.918  10.964
97327W        W69653   5.849  42.792   4.526
97328W        W69654  16.695  29.643   2.785
97329W        W69655   7.440  39.457   3.154
97330W        W69656  36.967  29.706   0.407
97331W        W69657  19.491  40.954  11.313
97332W        W69658   8.914   6.319   1.852
97333W        W69659  20.041  26.540   4.668
97334W        W69660   1.404   9.606  14.536
97335W        W69661  16.528   7.421   4.336
97336W        W69662  10.552  13.074   0.862
97337W        W69663  32.132  12.199  12.580
97338W        W69664  13.127  16.028   4.582
97339W        W69665  10.873  42.495   5.104
97340W        W69666  37.480   2.460   1.852
97341W        W69667  39.976  41.022   2.832
97342W        W69668  25.701  43.685  14.869
97343W        W69669  29.934  12.058  11.144
97344W        W69670   7.786  12.590   1.318
97345W        W69671  41.868  15.789   2.793
97346W        W69672   6.397  34.461  11.937
97347W        W69673   9.418  17.143   1.209
97348W        W69674  38.757   6.306   2.142
97349W        W69675  17.857   7.191  12.553
97350W        W69676   3.420   3.306  13.904
97351W        W69677   9.107  34.166   4.200
97352W        W69678  20.193  10.916   2.677
97353W        W69679  10.333  31.487  13.868
97354W        W69680  25.275  15.673   2.833
97355W        W69681  14.408  41.797  13.777
97356W        W69682  40.601   0.242  12.872
97357W        W69683  32.309   2.957   1.872
97358W        W69684  36.371  30.640  12.531
97359W        W69685  17.856  28.787   4.330
97360W        W69686  44.240  40.267  13.305
97361W        W69687  10.102  27.624  11.998
97362W        W69688  21.730  39.461   1.002
97363W        W69689  43.403  14.749  12.643
97364W        W69690  31.463  36.325   0.884
97365W        W69691  34.561  24.536   0.785
97366W        W69692   7.211  26.433   3.206
97367W        W69693  34.035  15.821   2.196
97368W        W69694  15.096  35.705   5.157
97369W        W69695  23.059  30.868  11.349
97370W        W69696  25.954  38.391   4.567
97371W        W69697   0.048   6.292  11.105
97372W        W69698  12.939  21.031   4.719
97373W        W69699  38.276   1.276   4.178
97374W        W69700  32.101  41.302  14.789
97375W        W69701  44.453  13.433  12.308
97376W        W69702  13.350  30.889   3.345
97377W        W69703  20.048   6.340  13.888
97378W        W69704   6.081  23.172  13.383
97379W        W69705  21.120  32.693  13.453
97380W        W69706  13.042  12.088  13.598
97381W        W69707  44.783  11.751  10.131
97382W        W69708  13.635   9.892  13.072
97383W        W69709   0.976  21.450   0.292
97384W        W69710  42.008  12.420   4.347
97385W        W69711  12.152  22.145  11.046
97386W        W69712   9.223  31.576  11.126
97387W        W69713   4.465  16.032   4.072
97388W        W69714  27.915  34.540   4.933
97389W        W69715  14.863  43.444  13.663
97390W        W69716  30.445  27.221  14.448
97391W        W69717  17.355   7.290   4.648
97392W        W69718  14.596  19.259  14.983
97393W        W69719  15.045  28.864  12.033
97394W        W69720  13.901  28.946   1.767
97395W        W69721  29.132  43.103   4.600
97396W        W69722  30.821  17.258   5.105
97397W        W69723   6.495  43.604  10.477
97398W        W69724   2.677   0.652  14.465
97399W        W69725   3.522  39.861   3.963
97400W        W69726  42.401  31.223  13.307
97401W        W69727  28.049  36.065   1.936
97402W        W69728  38.011   8.245   2.930
97403W        W69729  16.591  22.254   2.551
97404W        W69730  27.495  16.775  13.904
97405W        W69731  12.306   7.128   2.644
97406W        W69732  14.891   0.898   4.854
97407W        W69733   6.423  35.847  12.999
97408W        W69734  23.836   3.967   3.826
97409W        W69735  44.549   0.806   2.332
97410W        W69736  21.000   2.383  12.158
97411W        W69737   9.138   0.418   4.141
97412W        W69738  14.688  37.551   0.880
97413W        W69739   7.251  25.069   0.818
97414W        W69740  27.199  36.959   2.314
97415W        W69741   0.332  34.155  13.774
97416W        W69742  31.398  15.030   0.378
97417W        W69743  14.746  29.425  14.421
97418W        W69744  34.695  34.519  13.576
97419W        W69745   2.205  27.927  12.505
97420W        W69746  42.974  13.432  14.445
97421W        W69747  42.285  41.874   2.241
97422W        W69748   5.816  11.674   2.388
97423W        W69749  20.775   7.724  12.057
97424W        W69750  31.515  17.747   1.727
97425W        W69751   8.297  14.693  10.573
97426W        W69752  33.150  36.057   1.664
97427W        W69753   7.389  44.054   0.286
97428W        W69754  40.664  37.043  10.742
97429W        W69755  10.906   0.826  14.580
97430W        W69756  27.528  37.072   0.911
97431W        W69757   9.422  33.625   4.827
97432W        W69758  28.376  30.001   4.598
97433W        W69759   7.121   7.258  13.447
97434W        W69760  36.111   8.148  12.801
97435W        W69761   8.180   1.999   4.154
97436W        W69762  26.874  36.564  11.630
97437W        W69763   7.215  36.019   1.231
97438W        W69764  12.522   5.692   4.156
97439W        W69765  17.852   8.911   1.205
97440W        W69766  35.549   0.417   3.662
97441W        W69767  30.926  27.961   3.399
97442W        W69768  12.763  36.963   3.327
97443W        W69769  29.801  32.152   2.840
97444W        W69770   6.180  15.929  13.711
97445W        W69771  21.534  17.284  11.376
97446W        W69772  32.480   8.695   1.722
97447W        W69773   2.900  28.744   4.390
97448W        W69774   9.861   7.206  12.808
97449W        W69775   3.952  13.241  12.126
97450W        W69776  22.318  25.619  11.227
97451W        W69777  21.994   2.355  11.941
97452W        W69778  10.435  12.192  11.566
97453W        W69779  15.280  22.448  13.050
97454W        W69780  35.182  36.719  11.201
97455W        W69781  29.999   5.822  12.149
97456W        W69782   3.857  16.335  14.358
97457W        W69783  41.264  44.552  13.891
97458W        W69784   8.337  21.291   4.056
97459W        W69785   5.736  11.067  10.667
97460W        W69786  21.264  11.024  11.890
97461W        W69787  32.649  42.537   2.289
97462W        W69788  27.848   6.289  14.582
97463W        W69789  40.398  36.223   3.806
97464W        W69790  42.279  21.563   0.547
97465W        W69791   2.850  40.443  12.042
97466W        W69792   3.671  42.881  14.989
97467W        W69793  40.982  32.337  11.499
97468W        W69794  27.254  13.404   3.218
97469W        W69795  23.682  17.697   1.399
97470W        W69796   8.737  38.130   0.138
97471W        W69797  23.036  13.867  13.530
97472W        W69798  41.652  22.035   0.380
97473W        W69799   4.092  21.518  13.574
97474W        W69800  36.473  17.755   9.726
97475W        W69801  34.872  33.537   3.831
97476W        W69802  26.405  11.194   1.315
97477W        W69803  27.644  39.754  11.589
97478W        W69804  42.062   8.632  10.281
97479W        W69805  34.058  36.433   4.065
97480W        W69806  12.797  15.310   1.875
97481W        W69807  13.706  34.912   4.145
97482W        W69808   3.526  43.904  12.087
97483W        W69809  13.942  39.961  12.800
97484W        W69810  25.118   7.111  14.311
97485W        W69811  38.407  34.765  14.250
97486W        W69812  20.604  36.790   3.170
97487W        W69813  36.613   6.077   1.894
97488W        W69814  40.881  13.195  11.677
97489W        W69815  37.111  43.414  11.661
97490W        W69816  10.702  22.180  11.610
97491W        W69817  31.047   8.187  10.697
97492W        W69818  37.053  10.745  14.060
97493W        W69819  26.771  35.849  10.801
97494W        W69820  43.536  23.439  11.025
97495W        W69821   0.747  42.648   0.089
97496W        W69822  34.135  41.858  14.438
97497W        W69823  30.403  13.852  14.307
97498W        W69824  41.136   2.665   0.412
97499W        W69825  36.591  41.830   1.590
97500W        W69826  23.405  39.996   2.296
97501W        W69827   2.364  28.429   0.788
97502W        W69828  10.178  24.713  14.132
97503W        W69829  14.833  40.396   0.851
97504W        W69830  44.450  19.137  13.061
97505W        W69831  26.954  25.700  14.530
97506W        W69832  15.306   2.368   1.615
97507W        W69833  41.667  19.137   1.794
97508W        W69834  27.885  19.862  13.779
97509W        W69835  25.699  21.485   3.962
97510W        W69836  35.139  44.177  11.709
97511W        W69837  40.467   3.448  11.516
97512W        W69838  35.015  34.745  14.342
97513W        W69839  38.060  19.662   0.873
97514W        W69840  17.991  22.496   2.617
97515W        W69841   9.553  16.599  14.434
97516W        W69842  15.593  22.426   4.137
97517W        W69843  25.546   6.824   4.503
97518W        W69844  11.724   9.755  12.639
97519W        W69845  18.666  31.928  11.725
97520W        W69846  22.386  12.235   4.932
97521W        W69847  32.148   6.454   3.270
97522W        W69848  17.232  34.051   1.898
97523W        W69849  17.681  35.985  13.056
97524W        W69850  24.741  28.739   0.776
97525W        W69851  26.984  28.107  12.183
97526W        W69852  43.560  39.172  14.304
97527W        W69853  18.726  31.565   1.004
97528W        W69854  32.456  14.594   4.718
97529W        W69855  38.502  43.256  13.353
97530W        W69856   7.881  29.217  12.963
97531W        W69857  39.800  39.251  13.577
97532W        W69858  27.205  28.040   4.092
97533W        W69859   8.539  30.882  14.891
97534W        W69860  29.417  13.960  13.342
97535W        W69861  39.829   9.211   1.864
97536W        W69862  13.944  40.215  11.966
97537W        W69863  38.900   3.204  14.388
97538W        W69864  23.854   6.259   3.332
97539W        W69865  44.289  39.406   1.348
97540W        W69866  30.948  18.542  11.200
97541W        W69867  29.981  14.116   1.809
97542W        W69868  32.323  22.620  12.011
97543W        W69869  27.435  25.484  14.510
97544W        W69870  17.199  10.365  12.433
97545W        W69871  32.361   8.902   1.236
97546W        W69872  42.973  32.591  10.539
97547W        W69873  36.489  14.727  13.252
97548W        W69874   1.977  38.797   3.587
97549W        W69875  35.003  27.044   2.561
97550W        W69876  11.884  42.989  10.630
97551W        W69877   4.333  36.605   1.012
97552W        W69878  29.020  35.576  11.148
97553W        W69879   6.604   2.210   4.482
97554W        W69880   7.400  44.137   4.795
97555W        W69881   6.333  35.190   9.999
97556W        W69882  39.044   2.411   2.339
97557W        W69883  35.350  30.096  12.017
97558W        W69884  23.969  23.074   2.631
97559W        W69885  39.453  38.995  11.698
97560W        W69886  35.316   8.235   0.910
97561W        W69887  43.226   0.113  12.403
97562W        W69888  27.692  35.165   2.704
97563W        W69889  24.136   9.723  12.843
97564W        W69890  36.204  36.458  14.433
97565W        W69891  20.059  24.729   0.551
97566W        W69892   9.311   2.928  12.633
97567W        W69893  26.631  41.050  14.814
97568W        W69894  18.787   9.702   0.393
97569W        W69895  13.237  27.255   0.779
97570W        W69896  29.072  14.236   3.102
97571W        W69897  11.705   8.574  12.132
97572W        W69898  18.266  41.074   0.558
97573W        W69899  34.414  10.821  13.307
97574W        W69900  30.205  22.158   3.902
97575W        W69901  19.958   3.158  11.227
97576W        W69902  40.851  29.114  14.768
97577W        W69903  25.260  38.814  11.990
97578W        W69904  10.063  18.669  13.466
97579W        W69905   2.046  26.167   0.814
97580W        W69906  28.241  33.456   9.924
97581W        W69907   2.325  36.812  11.590
97582W        W69908   3.667  38.368   2.768
97583W        W69909  14.590   1.978   4.281
97584W        W69910   6.952  15.791  11.962
97585W        W69911   8.090  41.457  14.708
97586W        W69912  24.353  33.255   2.862
97587W        W69913  12.997   0.172  14.961
97588W        W69914  30.959  11.592   1.883
97589W        W69915   0.926   3.463  14.969
97590W        W69916  25.178  27.119  11.127
97591W        W69917  34.608   5.648  14.018
97592W        W69918  40.078  18.875  13.013
97593W        W69919  37.411  26.564   4.589
97594W        W69920  27.078  11.836  13.648
97595W        W69921  14.870  20.642   2.357
97596W        W69922  43.721  28.972   0.992
97597W        W69923  35.780  39.849   0.851
97598W        W69924   2.726  35.690  14.444
97599W        W69925  28.621   8.401  12.541
97600W        W69926   2.384   1.758  11.613
97601W        W69927  38.915  38.168  13.435
97602W        W69928  35.992  13.305   0.423
97603W        W69929  11.178  24.081   2.753
97604W        W69930  44.758  25.855   4.258
97605W        W69931  20.494  31.721  13.817
97606W        W69932  25.161  20.948  10.673
97607W        W69933  37.281  37.879   2.511
97608W        W69934  37.861   8.633   5.177
97609W        W69935  35.781  18.099   0.788
97610W        W69936  25.124  35.153  14.221
97611W        W69937  20.201  28.867  11.754
97612W        W69938  36.676  32.529   2.907
97613W        W69939  30.679  12.904   1.829
97614W        W69940   5.246  22.675   0.905
97615W        W69941  11.788  41.040   2.448
97616W        W69942  41.799   5.587  11.630
97617W        W69943  31.641   1.944  11.442
97618W        W69944   7.908   0.046   2.347
97619W        W69945  28.629   5.224  12.921
97620W        W69946  21.097   5.943  14.273
97621W        W69947  41.080  20.511   3.854
97622W        W69948   1.828  20.173   3.608
97623W        W69949   6.375  25.240   1.618
97624W        W69950  32.124  36.964   0.013
97625W        W69951  22.147  24.937   1.680
97626W        W69952  26.866   2.257   3.836
97627W        W69953   0.296   5.827  10.988
97628W        W69954  12.893  28.547   4.253
97629W        W69955   3.518  27.096  13.369
97630W        W69956  33.317  25.112   0.995
97631W        W69957  12.273   8.668   1.246
97632W        W69958  20.218  39.695  12.122
97633W        W69959   3.989  11.144   3.338
97634W        W69960  32.373  40.381   1.356
97635W        W69961  43.484  40.078  12.785
97636W        W69962  26.074  39.539   1.738
97637W        W69963  26.340  16.290   3.887
97638W        W69964   0.257   1.322  13.642
97639W        W69965   3.793  14.284  11.431
97640W        W69966  37.211  31.025   4.513
97641W        W69967   6.009  42.953  10.478
97642W        W69968  41.026  19.425   4.162
97643W        W69969  33.619  28.685  11.571
97644W        W69970  12.571  42.398  12.055
97645W        W69971  36.395  24.780  11.986
97646W        W69972   8.208  37.830  12.367
97647W        W69973  36.593  40.282   2.785
97648W        W69974  37.630   2.297  12.116
97649W        W69975  36.624  22.115  11.700
97650W        W69976  23.047  40.225  13.814
97651W        W69977   9.739  20.237   4.283
97652W        W69978  30.975  32.098  14.348
97653W        W69979   3.564   4.664   0.787
97654W        W69980   3.616  19.510  14.640
97655W        W69981  40.334   0.377  14.892
97656W        W69982   9.894  36.535   3.276
97657W        W69983  20.509   9.450  10.449
97658W        W69984   5.263  35.378   2.439
97659W        W69985  10.671  33.470   1.540
97660W        W69986  44.496  18.281  12.096
97661W        W69987  30.101  37.330   4.025
97662W        W69988  15.647   2.059   2.350
97663W        W69989  31.494  12.959   3.893
97664W        W69990   4.880  20.631  12.929
97665W        W69991  38.915  37.016   1.727
97666W        W69992  23.201   7.913  12.874
97667W        W69993   9.907  24.410  11.515
97668W        W69994  36.889  17.070  11.168
97669W        W69995  12.152  34.984   0.450
97670W        W69996  39.471  43.537   2.668
97671W        W69997  18.927  19.995   1.314
97672W        W69998  28.268  14.833  14.244
97673W        W69999  16.722  16.611  10.490
97674W        W70000  29.718  16.804   1.183
97675W        W70001  10.323  14.228  10.204
97676W        W70002  25.687  38.442  13.355
97677W        W70003  24.682  24.167   3.166
97678W        W70004  23.480  37.527   4.554
97679W        W70005   9.489   8.131  11.213
97680W        W70006  44.070  24.133  14.606
97681W        W70007  40.572  21.103  13.677
97682W        W70008  42.294  37.525   0.523
97683W        W70009  11.451  21.216   4.083
97684W        W70010   7.688  21.716   1.430
97685W        W70011  33.872  21.995  13.494
97686W        W70012   8.688  20.130  14.826
97687W        W70013   3.480  16.050   0.293
97688W        W70014  29.596  36.303  11.461
97689W        W70015  27.696  11.690  11.016
97690W        W70016  36.294  21.010  12.150
97691W        W70017  21.281  18.825  14.451
97692W        W70018  43.126  27.288  13.277
97693W        W70019  11.220  41.257  12.176
97694W        W70020  33.962  37.317  12.864
97695W        W70021  24.220   8.217   4.206
97696W        W70022  27.133   4.889   1.751
97697W        W70023   3.878  32.679   1.864
97698W        W70024  20.741  27.442   0.231
97699W        W70025  11.330   3.762  14.199
97700W        W70026   7.973  26.182  10.450
97701W        W70027  12.102  24.465  14.003
97702W        W70028  27.755  40.323   0.472
97703W        W70029  31.107  22.710   2.286
97704W        W70030  20.611  29.191   2.733
97705W        W70031   0.822  23.969   2.435
97706W        W70032  39.890   2.361   2.781
97707W        W70033  11.297  21.115  10.599
97708W        W70034  36.928  31.927  12.869
97709W        W70035  43.727  28.545   4.065
97710W        W70036  20.118  25.217   2.353
97711W        W70037  35.814   2.824  14.052
97712W        W70038  18.192  17.932   0.284
97713W        W70039   4.795  31.414  13.281
97714W        W70040   1.733   0.084   0.282
97715W        W70041  42.488  17.721   4.695
97716W        W70042  21.875  29.685   0.728
97717W        W70043   3.973  35.665  10.734
97718W        W70044  39.444  34.108  12.875
97719W        W70045  43.345  21.223   3.821
97720W        W70046  16.554  18.601  11.588
97721W        W70047  15.814   8.254  11.064
97722W        W70048  43.879  28.709   2.752
97723W        W70049   7.722  20.508  10.869
97724W        W70050  34.817   5.827   3.175
97725W        W70051  40.661  32.050   4.691
97726W        W70052   6.334   0.699  13.862
97727W        W70053  37.640  17.635  11.144
97728W        W70054  37.194   9.614  11.266
97729W        W70055  25.051   6.160  12.539
97730W        W70056  35.018  12.506   3.360
97731W        W70057  20.924   7.887  14.935
97732W        W70058   0.777  31.120  13.358
97733W        W70059  26.099  15.923  13.415
97734W        W70060  27.236  15.213   1.770
97735W        W70061  24.003   3.467   2.221
97736W        W70062   5.633  18.195   2.423
97737W        W70063   1.816  30.694   4.001
97738W        W70064  33.053   3.880  14.050
97739W        W70065  28.675  42.982   3.101
97740W        W70066  40.179  23.765  12.014
97741W        W70067  29.002  11.303  13.821
97742W        W70068   5.325   2.287  11.956
97743W        W70069   6.232  30.397   4.448
97744W        W70070  39.353  42.524   1.835
97745W        W70071  20.318  44.794  13.999
97746W        W70072  33.179   8.238   0.364
97747W        W70073  38.032  41.425  13.233
97748W        W70074   1.865   7.387   0.626
97749W        W70075  18.227  12.775  12.194
97750W        W70076  44.545  24.176  14.836
97751W        W70077  41.892  33.994   4.483
97752W        W70078  40.872  23.078   3.277
97753W        W70079  20.070   7.886  11.592
97754W        W70080   8.916  40.444  10.985
97755W        W70081  23.975  29.611  13.892
97756W        W70082   2.551  33.383  11.615
97757W        W70083  42.945  30.124  13.931
97758W        W70084  42.391  20.184  13.599
97759W        W70085  25.431  18.588   4.189
97760W        W70086   3.004  26.491  10.709
97761W        W70087  26.869   5.120  11.562
97762W        W70088  20.567  17.515   0.003
97763W        W70089  26.698  41.884   3.731
97764W        W70090  14.370  26.682   1.678
97765W        W70091  23.960  14.037   0.915
97766W        W70092  12.169   5.490  11.675
97767W        W70093  28.865   8.455  12.087
97768W        W70094   1.871  23.984  11.198
97769W        W70095  11.365   8.472   2.369
97770W        W70096   4.190  12.289  13.506
97771W        W70097  43.340  18.890   1.156
97772W        W70098  23.379  26.195   0.880
97773W        W70099  30.118  19.091   2.365
97774W        W70100  30.929  38.458   4.602
97775W        W70101  21.129   2.812  14.401
97776W        W70102   9.036   3.321  14.405
97777W        W70103  40.734  34.411   1.369
97778W        W70104  44.910  24.995   1.565
97779W        W70105  21.082  22.165  13.381
97780W        W70106  26.448   7.710   4.629
97781W        W70107  38.013   3.488  12.028
97782W        W70108   7.876  26.569  11.119
97783W        W70109  20.499  34.465  13.441
97784W        W70110  20.734  43.816  14.972
97785W        W70111  35.644  12.307   1.301
97786W        W70112   6.004  27.382  11.643
97787W        W70113  39.319  40.393   0.795
97788W        W70114  13.913  10.670  12.885
97789W        W70115  29.953  35.420   2.681
97790W        W70116  33.107   9.765  10.966
97791W        W70117  39.321  43.987   2.898
97792W        W70118  17.239  18.732  14.914
97793W        W70119  18.832  17.039  13.466
97794W        W70120   9.062   8.628  14.879
97795W        W70121  31.579  32.147  13.908
97796W        W70122  22.059  38.996  12.984
97797W        W70123  21.259   3.877  12.060
97798W        W70124  17.989  13.157   3.653
97799W        W70125  25.987  28.010  10.532
97800W        W70126  11.730  12.861  11.668
97801W        W70127   7.893  28.252   5.125
97802W        W70128   2.562   1.026  12.874
97803W        W70129  39.504   6.899  13.095
97804W        W70130   9.835  16.549  12.235
97805W        W70131  14.541  20.771   3.781
97806W        W70132  10.589   4.397  11.094
97807W        W70133   2.796   7.301  11.073
97808W        W70134  35.917  42.297   4.591
97809W        W70135   0.608  16.092   3.251
97810W        W70136  39.241  33.512  13.049
97811W        W70137  19.705   7.108  12.723
97812W        W70138  12.332   3.696  11.675
97813W        W70139  42.445   7.242  11.607
97814W        W70140   7.267   2.624  12.014
97815W        W70141  20.824  44.329   2.407
97816W        W70142  18.354  15.999  11.062
97817W        W70143  27.958  19.607  10.805
97818W        W70144  39.678   3.257  10.311
97819W        W70145   5.068  18.694   4.076
97820W        W70146  34.262   0.216   0.704
97821W        W70147  28.543  34.929  10.605
97822W        W70148  40.430  24.555  11.720
97823W        W70149   5.715  17.297  13.847
97824W        W70150  27.889  28.668  14.951
97825W        W70151  41.423  10.790  13.107
97826W        W70152  41.144  25.585  14.933
97827W        W70153  40.820   0.477  12.414
97828W        W70154   1.810   2.403   1.226
97829W        W70155  36.464  17.156   3.321
97830W        W70156  29.153  22.990   2.506
97831W        W70157  18.908  27.645   1.252
97832W        W70158  39.561  32.085   3.244
97833W        W70159   0.843  11.825   3.289
97834W        W70160  25.652   9.161   1.669
97835W        W70161  41.770   9.289  11.088
97836W        W70162  43.080  12.246   2.281
97837W        W70163  32.945   7.389  12.077
97838W        W70164  11.327  22.244   3.169
97839W        W70165  14.600  20.531   2.793
97840W        W70166  17.134  19.658  14.669
97841W        W70167  37.956  23.928   1.158
97842W        W70168   0.450  25.991  13.252
97843W        W70169  37.073  28.039   4.654
97844W        W70170  13.750   1.018  11.665
97845W        W70171   5.795   5.296  14.810
97846W        W70172  16.097   5.345   4.601
97847W        W70173  42.764  14.190  13.469
97848W        W70174  34.556  11.592   0.947
97849W        W70175   3.024  20.062   2.344
97850W        W70176   8.694  13.408  12.901
97851W        W70177  35.524  30.932   3.663
97852W        W70178  26.311  23.795  11.569
97853W        W70179  24.791  28.581   4.080
97854W        W70180  20.520  43.032   0.681
97855W        W70181   4.776   5.436   4.257
97856W        W70182   1.340  33.717  10.429
97857W        W70183  28.008  33.108   3.643
97858W        W70184   1.221   3.915  14.809
97859W        W70185  39.444  24.133  11.721
97860W        W70186  10.879  18.592  11.508
97861W        W70187   9.303  39.493  10.713
97862W        W70188  10.263  15.557  13.610
97863W        W70189  13.776  19.694   0.475
97864W        W70190  20.185  20.848  10.618
97865W        W70191  21.729  16.626  14.751
97866W        W70192  14.685  17.545   0.955
97867W        W70193   6.192  22.046  14.879
97868W        W70194   6.429   7.548  11.294
97869W        W70195  28.487   4.834   2.369
97870W        W70196   7.211   6.452  14.558
97871W        W70197  34.940  22.064  10.448
97872W        W70198  20.241  32.605  12.028
97873W        W70199  10.704   6.328   4.346
97874W        W70200  36.493  21.982   0.126
97875W        W70201  38.881  41.586  10.456
97876W        W70202  11.266   7.420  10.779
97877W        W70203  24.079  38.463  11.355
97878W        W70204  25.924   7.201  10.717
97879W        W70205  15.095  39.578   3.623
97880W        W70206  41.289  30.041   3.595
97881W        W70207  14.590  44.811  10.255
97882W        W70208   2.954  38.644  11.355
97883W        W70209   7.755  42.214   0.001
97884W        W70210   8.181  39.434  11.511
97885W        W70211  41.336  28.094  11.209
97886W        W70212  11.007  19.759  13.488
97887W        W70213  38.174  38.009  11.462
97888W        W70214   3.359   6.783  11.935
97889W        W70215  42.514  20.305  12.150
97890W        W70216  39.380   1.526  12.427
97891W        W70217  14.190  29.916   4.469
97892W        W70218  14.101  32.552   0.841
97893W        W70219  38.823  35.416   0.259
97894W        W70220  23.730   9.373  14.483
97895W        W70221  25.168  33.038   0.661
97896W        W70222  18.634  27.111   0.660
97897W        W70223   4.881  41.401  11.125
97898W        W70224  37.538  13.859   4.738
97899W        W70225  21.575   5.286  13.600
97900W        W70226   5.235   0.917  11.972
97901W        W70227   4.473  28.395   4.231
97902W        W70228  18.294  17.844   0.885
97903W        W70229   9.620  32.598   0.872
97904W        W70230  31.191  20.192   2.057
97905W        W70231  42.455  27.786   4.450
97906W        W70232   1.888  27.151  14.943
97907W        W70233  37.185  13.657   3.308
97908W        W70234  22.295  36.945  11.208
97909W        W70235  19.662  20.001  13.017
97910W        W70236  43.785   8.323   3.284
97911W        W70237  38.479  26.457   0.292
97912W        W70238  10.279  27.518  14.247
97913W        W70239  41.352   1.532   3.725
97914W        W70240  31.447  15.614  14.418
97915W        W70241  30.418  15.299  12.097
97916W        W70242  37.037  22.762  14.106
97917W        W70243   3.202  27.489   3.136
97918W        W70244  43.185  30.424   4.817
97919W        W70245  41.765  16.753   4.075
97920W        W70246   2.293   5.996   3.304
97921W        W70247  23.839  33.459   2.833
97922W        W70248  42.925  42.864   1.517
97923W        W70249  32.453  32.057   3.353
97924W        W70250  22.589  34.003  12.579
97925W        W70251  43.137  31.710  13.788
97926W        W70252  26.059   4.080  11.183
97927W        W70253  22.670  43.300  10.473
97928W        W70254  43.271   8.264  14.905
97929W        W70255  15.030   7.844   5.192
97930W        W70256  21.653  37.601  12.339
97931W        W70257  32.051  21.022   2.414
97932W        W70258   9.540  41.708  14.727
97933W        W70259  44.083   5.382   1.289
97934W        W70260  13.112  21.151  10.589
97935W        W70261  39.780  22.799  13.361
97936W        W70262  16.710  34.922   2.095
97937W        W70263  33.537   6.794   3.953
97938W        W70264  29.327  27.313   1.689
97939W        W70265   9.805   9.096   4.930
97940W        W70266  17.791  42.692  10.941
97941W        W70267  15.784  37.771  10.964
97942W        W70268  37.895  42.364  12.976
97943W        W70269  40.657  13.871   3.778
97944W        W70270   0.396  34.556   2.148
97945W        W70271  44.367  21.528   3.693
97946W        W70272  44.253  26.094   2.175
97947W        W70273  12.628  21.891  11.075
97948W        W70274  22.682  30.869   3.372
97949W        W70275  34.575  25.154  13.143
97950W        W70276  25.118  25.536   0.754
97951W        W70277  32.654   5.380   0.230
97952W        W70278   9.319   5.395   0.756
97953W        W70279  33.691  24.028  13.941
97954W        W70280  32.719  25.532  14.532
97955W        W70281  17.563   2.374   1.922
97956W        W70282  20.467  31.318   0.679
97957W        W70283  13.084  38.017   2.332
97958W        W70284  13.277  14.247   1.643
97959W        W70285  14.267  42.568  12.376
97960W        W70286  44.830  19.979   1.427
97961W        W70287  35.923  30.899  11.372
97962W        W70288  20.247  28.968   2.228
97963W        W70289   5.724  41.393  12.185
97964W        W70290  28.690  29.341  11.126
97965W        W70291  33.395   7.696   0.971
97966W        W70292  19.717   2.166  13.983
97967W        W70293  12.112  15.626  11.490
97968W        W70294  25.678  20.074   0.820
97969W        W70295   1.983  38.056   0.466
97970W        W70296   6.485   0.667  12.472
97971W        W70297  40.923  16.657  10.705
97972W        W70298  22.586  42.333   1.257
97973W        W70299  44.346  26.272   1.698
97974W        W70300  26.709  22.007  11.079
97975W        W70301   2.733  34.950   3.701
97976W        W70302  34.551  13.237   3.765
97977W        W70303  27.686  32.511  14.323
97978W        W70304  12.039  27.818   5.557
97979W        W70305  34.624  31.862   0.805
97980W        W70306  28.137   1.285  13.485
97981W        W70307   2.439  30.645  13.479
97982W        W70308  33.319  23.606  10.722
97983W        W70309  19.747   1.726   3.947
97984W        W70310  34.562  28.632   3.161
97985W        W70311  34.501  35.818   5.714
97986W        W70312  33.563  10.406  11.075
97987W        W70313  17.160  20.104  12.141
97988W        W70314  30.454  37.939   3.407
97989W        W70315  16.158  16.360  14.329
97990W        W70316  21.831  22.573  10.617
97991W        W70317  22.401   9.837  10.550
97992W        W70318  11.761  21.177  10.338
97993W        W70319  26.579  35.555   4.170
97994W        W70320  43.024  23.163   5.056
97995W        W70321  24.574  38.517   1.276
97996W        W70322  37.778  13.395  14.814
97997W        W70323  34.548  23.715   4.943
97998W        W70324   4.326  29.763  13.275
97999W        W70325  37.278  30.185   2.402
98000W        W70326  38.848  17.853   1.129
98001W        W70327   7.805  17.766  10.726
98002W        W70328  20.972  12.911   1.752
98003W        W70329   8.785   1.507  11.376
98004W        W70330  16.030  21.927   0.333
98005W        W70331   4.996  25.411  13.913
98006W        W70332  44.295  42.299  12.921
98007W        W70333  10.097  10.773  12.094
98008W        W70334  30.198  15.466  13.924
98009W        W70335  41.422   4.258   2.356
98010W        W70336  44.205  44.725   4.854
98011W        W70337  28.046  40.281  14.396
98012W        W70338   3.864  40.818   1.345
98013W        W70339  21.499  40.355   0.867
98014W        W70340  37.518  26.077   3.714
98015W        W70341   1.306  28.053   0.175
98016W        W70342  37.142   4.205  11.112
98017W        W70343   9.038  28.344  14.341
98018W        W70344   3.659  24.302   0.458
98019W        W70345   0.046  30.561   2.722
98020W        W70346  34.408   3.152  12.099
98021W        W70347   5.270  23.601  11.151
98022W        W70348   7.792  31.071   0.038
98023W        W70349  35.040   3.944  10.692
98024W        W70350  37.528   9.427   3.329
98025W        W70351  41.800  11.101  14.924
98026W        W70352   2.593  34.838  11.355
98027W        W70353  11.395  34.779   2.955
98028W        W70354   5.679  16.700   4.671
98029W        W70355  17.981  43.971   4.119
98030W        W70356  13.406  42.535   4.600
98031W        W70357  21.638   4.349   3.144
98032W        W70358  21.445  43.824   2.296
98033W        W70359  18.305   0.237   3.324
98034W        W70360  11.309  21.750   2.950
98035W        W70361  10.394  28.688  13.880
98036W        W70362  32.708   7.831   1.497
98037W        W70363  42.264  10.240   3.135
98038W        W70364   3.062  41.805   2.291
98039W        W70365  36.472   3.713   0.577
98040W        W70366  29.493  36.203   3.751
98041W        W70367   7.767  13.110   1.298
98042W        W70368  11.838  43.466   2.675
98043W        W70369  30.944  22.226  10.687
98044W        W70370  10.820  40.045  12.860
98045W        W70371  41.401   0.408   0.791
98046W        W70372  10.096  29.582  11.179
98047W        W70373  11.528   8.276  14.516
98048W        W70374  25.399  37.426   4.305
98049W        W70375  31.988   0.719  12.584
98050W        W70376  18.189  35.526   1.659
98051W        W70377  14.543  30.983   1.897
98052W        W70378  37.457   4.332  14.575
98053W        W70379  30.449  22.575  14.904
98054W        W70380  40.548   3.400  13.068
98055W        W70381  24.511   7.890   1.718
98056W        W70382  22.109  15.786  12.406
98057W        W70383   2.366  35.212   0.929
98058W        W70384  29.637  28.526   0.789
98059W        W70385  17.838  34.500   1.389
98060W        W70386  18.736  44.853   2.619
98061W        W70387   0.802   5.715  12.105
98062W        W70388  17.646  18.302  14.531
98063W        W70389   5.293  37.064   1.396
98064W        W70390  14.269   5.426  13.349
98065W        W70391  32.571  42.527  12.096
98066W        W70392   7.399  28.680   2.924
98067W        W70393  32.720  19.297   0.780
98068W        W70394  37.599  36.400   0.548
98069W        W70395  32.694  17.874  11.893
98070W        W70396  36.518  26.269  10.512
98071W        W70397  27.694   6.386  14.097
98072W        W70398  20.591  44.931  14.401
98073W        W70399  13.166  24.233  14.983
98074W        W70400  34.607  30.881  12.966
98075W        W70401  28.588   0.689   2.976
98076W        W70402   6.790   2.561  10.748
98077W        W70403  22.142   1.191   4.188
98078W        W70404  41.535   3.093   0.297
98079W        W70405  32.153   7.434  14.326
98080W        W70406  14.715  12.069   1.737
98081W        W70407  18.307  23.961  11.637
98082W        W70408  17.045  26.247  13.529
98083W        W70409  36.519  22.687  11.196
98084W        W70410  13.566   0.262  13.842
98085W        W70411  37.520  11.796   1.291
98086W        W70412  15.260   4.470  11.014
98087W        W70413  18.803   9.810   2.166
98088W        W70414   3.073  23.777   5.137
98089W        W70415  13.722  43.777   2.382
98090W        W70416  16.320  28.582   3.182
98091W        W70417   9.576  15.120   1.313
98092W        W70418   9.871  21.943  12.076
98093W        W70419  28.444   6.445  10.609
98094W        W70420   5.400  33.214  13.347
98095W        W70421  30.922   6.139   2.604
98096W        W70422  16.697  18.029   4.569
98097W        W70423  43.019  31.396  11.550
98098W        W70424  33.376  42.205  10.454
98099W        W70425  23.103  34.666   0.707
98100W        W70426  24.184   5.187   0.219
98101W        W70427  24.001   7.913   0.808
98102W        W70428  24.077  34.557  11.185
98103W        W70429  24.415  39.587   3.210
98104W        W70430   3.335  34.190   3.008
98105W        W70431  29.493   8.143   0.465
98106W        W70432  41.535   5.804  13.409
98107W        W70433  16.530  26.546   3.278
98108W        W70434   6.431   6.791   3.681
98109W        W70435  44.913  18.105  12.506
98110W        W70436  38.914  29.724  12.572
98111W        W70437  42.726  27.976   1.851
98112W        W70438  42.946  40.526  14.876
98113W        W70439   2.383  28.674   0.323
98114W        W70440  10.745  10.997   1.873
98115W        W70441   2.314  26.472   1.393
98116W        W70442   1.679  32.556   0.080
98117W        W70443  36.459  11.103   1.693
98118W        W70444   4.467   8.283   0.967
98119W        W70445   1.994  14.088  10.678
98120W        W70446  10.609  35.059   3.980
98121W        W70447  25.186  40.854  13.755
98122W        W70448  30.811  22.556  13.963
98123W        W70449  42.347  26.700  13.327
98124W        W70450   1.496  12.837  11.963
98125W        W70451  25.784  19.817  10.593
98126W        W70452   9.595  32.058   0.768
98127W        W70453   8.869  32.598   0.419
98128W        W70454  14.108  32.177  10.693
98129W        W70455  25.583   0.732   4.991
98130W        W70456   7.894  29.993   2.427
98131W        W70457  40.566  35.593  13.344
98132W        W70458   8.854  40.217   0.975
98133W        W70459  42.109  44.855   2.811
98134W        W70460  34.985  42.712   1.455
98135W        W70461  12.365  13.160  13.564
98136W        W70462  12.415  15.316  10.451
98137W        W70463  44.030   3.220  12.992
98138W        W70464  28.834  19.830  13.776
98139W        W70465   4.740   8.136   0.526
98140W        W70466   2.190  40.826  12.642
98141W        W70467  18.310  18.713  12.755
98142W        W70468   0.185  30.563  10.687
98143W        W70469  44.491  17.359   0.931
98144W        W70470   2.777  26.920  11.561
98145W        W70471   2.015   8.856  11.542
98146W        W70472  20.463  38.961  12.055
98147W        W70473   3.032  12.803   2.158
98148W        W70474   7.895  36.003  14.274
98149W        W70475   1.482  16.690  12.068
98150W        W70476  24.819  10.639   4.525
98151W        W70477  42.784  33.793  14.906
98152W        W70478   7.946  24.708   2.622
98153W        W70479   9.862  29.188  14.409
98154W        W70480  15.177  19.132   0.219
98155W        W70481  35.003   8.059   2.305
98156W        W70482   2.720  26.650   2.356
98157W        W70483  16.145  22.182  12.569
98158W        W70484  35.758  35.567  11.012
98159W        W70485  38.196   0.034  11.983
98160W        W70486   9.378  43.917  11.581
98161W        W70487  38.325  31.161  12.293
98162W        W70488  26.168   3.116  11.615
98163W        W70489  33.666  10.798   4.731
98164W        W70490  40.743  32.969   3.102
98165W        W70491  27.656  36.063  11.593
98166W        W70492  36.335  11.230  14.322
98167W        W70493  23.340  25.900   0.214
98168W        W70494  38.095  19.092  13.384
98169W        W70495  25.119  25.614  10.558
98170W        W70496  32.877  24.255   1.907
98171W        W70497  42.081  44.233  13.310
98172W        W70498  44.731  26.159   4.695
98173W        W70499  43.528  13.197   2.781
98174W        W70500  26.176  42.341  11.305
98175W        W70501  23.678  18.776  11.113
98176W        W70502   4.902  43.166  14.599
98177W        W70503  33.692   8.174  11.435
98178W        W70504   8.851  37.226  13.292
98179W        W70505  39.264  12.210   2.196
98180W        W70506  16.184  27.773  11.395
98181W        W70507  28.552  18.494   2.848
98182W        W70508  36.046  24.599   3.084
98183W        W70509  44.867  40.130   4.102
98184W        W70510   2.222  10.858   2.944
98185W        W70511  12.188  12.856  12.848
98186W        W70512  35.325  37.652   3.721
98187W        W70513  44.751  17.553  14.679
98188W        W70514   9.819  16.181   4.568
98189W        W70515  43.928   4.384   1.472
98190W        W70516  11.602  10.305  13.564
98191W        W70517  11.361  22.776  12.817
98192W        W70518  17.249   0.585   4.943
98193W        W70519  16.977  38.980  13.056
98194W        W70520  31.626  28.478   2.822
98195W        W70521   6.677   1.013   3.393
98196W        W70522  21.656  26.901  12.299
98197W        W70523  39.122  37.511  13.931
98198W        W70524  17.812  15.413  10.179
98199W        W70525  40.665  20.155  11.474
98200W        W70526  19.479  34.512   4.067
98201W        W70527   7.430  35.664   0.608
98202W        W70528   5.024  30.497  13.289
98203W        W70529   4.847  41.330   0.358
98204W        W70530  38.380   2.402   0.947
98205W        W70531   2.743  39.088   1.792
98206W        W70532   5.151   6.485  13.752
98207W        W70533  22.143  13.055  13.290
98208W        W70534  22.498  33.729   3.750
98209W        W70535  17.130  10.165   4.159
98210W        W70536  16.341  17.138   1.409
98211W        W70537  13.006  44.119  14.448
98212W        W70538  29.876  20.788   4.223
98213W        W70539  22.615   4.869  11.278
98214W        W70540  13.659   4.338   1.279
98215W        W70541  31.124  25.232   4.232
98216W        W70542  37.896   7.671   0.810
98217W        W70543  32.522  44.161  14.908
98218W        W70544  30.662  32.578   1.861
98219W        W70545  11.196  38.396   0.464
98220W        W70546  21.520   6.807  14.481
98221W        W70547  27.670   3.203   0.269
98222W        W70548  33.561  23.955  14.474
98223W        W70549  31.999   7.866  12.651
98224W        W70550  26.444   4.960   0.427
98225W        W70551   4.279  21.798  12.930
98226W        W70552   6.760  38.533  11.622
98227W        W70553  21.493  13.773   3.621
98228W        W70554  16.176  30.919  11.087
98229W        W70555  30.017  23.337  14.983
98230W        W70556  11.318  36.762   1.969
98231W        W70557   4.823  34.017  10.676
98232W        W70558  28.921  27.734   0.376
98233W        W70559  44.450  37.921   4.868
98234W        W70560  11.832  25.476   4.070
98235W        W70561  38.894  44.027  11.599
98236W        W70562  31.180  39.058   2.218
98237W        W70563  21.121  37.887   5.026
98238W        W70564   6.392  35.004   5.166
98239W        W70565  35.901  23.641  14.903
98240W        W70566  14.182  21.632   4.543
98241W        W70567  17.722  29.855   2.565
98242W        W70568   2.317   5.133  14.521
98243W        W70569  44.442  26.440  14.021
98244W        W70570  36.357   1.381  12.537
98245W        W70571   4.807  25.474  12.154
98246W        W70572  21.535  28.180  13.913
98247W        W70573  20.637  10.715  12.659
98248W        W70574   3.452  31.624   2.609
98249W        W70575  11.883   1.902   4.696
98250W        W70576   6.398   7.196  10.923
98251W        W70577  13.812  37.377  11.433
98252W        W70578   0.898   2.932  12.970
98253W        W70579  28.977   8.902  11.027
98254W        W70580   2.553  38.718   1.438
98255W        W70581  23.058  41.766  12.356
98256W        W70582  38.766  20.952   3.853
98257W        W70583  20.837  10.398   0.212
98258W        W70584  43.297  27.911   5.368
98259W        W70585  15.913  43.022  11.178
98260W        W70586  41.396  15.732   3.127
98261W        W70587  42.758  30.374  14.371
98262W        W70588  12.671  43.763  14.591
98263W        W70589  12.337  14.826   2.390
98264W        W70590  30.270   3.997   0.221
98265W        W70591  39.904  16.570  11.606
98266W        W70592  11.350  25.988   0.388
98267W        W70593  29.063  18.661   4.617
98268W        W70594  23.042  12.695  14.506
98269W        W70595  31.508   5.368  11.202
98270W        W70596  11.775  14.664   0.827
98271W        W70597   5.552   8.498  14.923
98272W        W70598   8.295  24.618   1.635
98273W        W70599  37.077  30.489  11.589
98274W        W70600  10.799   8.678  13.401
98275W        W70601  16.806  30.680   0.838
98276W        W70602  11.761  42.289  14.382
98277W        W70603  14.318  42.704  11.469
98278W        W70604  18.557  26.520  11.453
98279W        W70605  11.341  32.371  11.212
98280W        W70606  27.993  29.498   0.799
98281W        W70607  22.153  15.128  13.423
98282W        W70608   8.324  26.402   3.254
98283W        W70609  20.142  32.463   2.784
98284W        W70610  37.594   6.696   5.038
98285W        W70611  35.857  37.010   1.869
98286W        W70612  28.926  12.761   4.211
98287W        W70613  19.910  10.579  14.546
98288W        W70614  35.945  23.906  13.364
98289W        W70615  43.356   6.468   2.267
98290W        W70616   6.259  13.137   0.280
98291W        W70617  42.687  28.630  13.716
98292W        W70618   7.359  18.663   3.362
98293W        W70619  28.162  33.403  14.839
98294W        W70620  16.786  27.547   2.818
98295W        W70621  24.105   8.565  12.089
98296W        W70622  14.825  43.253   0.373
98297W        W70623  16.372   6.359   2.805
98298W        W70624  16.443  29.473  14.783
98299W        W70625  15.024  41.312   4.139
98300W        W70626  14.330   7.292   4.638
98301W        W70627  39.718  33.621   4.284
98302W        W70628  43.628   9.551   4.083
98303W        W70629  28.776   7.889  12.553
98304W        W70630  35.381  32.540  12.634
98305W        W70631  30.384  28.145  10.747
98306W        W70632  26.235   1.829  14.761
98307W        W70633  22.255  34.634   4.587
98308W        W70634  14.097  37.996  14.428
98309W        W70635  21.130  32.853   3.818
98310W        W70636  38.807  37.054   0.408
98311W        W70637  17.221  40.338   1.366
98312W        W70638  35.637  42.818  14.247
98313W        W70639   0.640   8.896   2.662
98314W        W70640  29.208  28.432  12.086
98315W        W70641  12.296  40.478  12.363
98316W        W70642  44.325  20.100  14.317
98317W        W70643  22.574  23.648  11.968
98318W        W70644   8.179  21.063  14.054
98319W        W70645  12.374  36.852  11.834
98320W        W70646  43.759  40.821  12.786
98321W        W70647  28.552  41.013   1.764
98322W        W70648   7.830  18.234   4.075
98323W        W70649  41.895  34.430  13.433
98324W        W70650   1.262   9.508   2.877
98325W        W70651  38.567  23.099  10.662
98326W        W70652  30.588   6.641  13.734
98327W        W70653  30.091  29.741  11.526
98328W        W70654  18.508  42.270   0.434
98329W        W70655  14.147  27.630  14.435
98330W        W70656  15.654  36.922  11.615
98331W        W70657  35.045   2.969   0.242
98332W        W70658  30.866  39.359   2.654
98333W        W70659  20.348  14.013  12.658
98334W        W70660  23.212  44.924  13.044
98335W        W70661   6.677  26.985  10.403
98336W        W70662  35.428  41.824   1.729
98337W        W70663  43.915   9.433  10.649
98338W        W70664  14.090  11.203   2.803
98339W        W70665  37.517   1.848  10.899
98340W        W70666  38.553  41.515   4.343
98341W        W70667  14.329  10.785  10.609
98342W        W70668  23.517  23.936   1.396
98343W        W70669   0.366   5.025   0.952
98344W        W70670  15.566  31.988  13.410
98345W        W70671   2.777  32.015   1.446
98346W        W70672  19.047  19.989  10.430
98347W        W70673  39.223   1.367   0.953
98348W        W70674  44.157  37.380   0.489
98349W        W70675   5.304  39.289   1.690
98350W        W70676   1.600  23.766   1.311
98351W        W70677  38.819  25.639   1.324
98352W        W70678  15.739  35.179   1.038
98353W        W70679  38.877   4.823  13.860
98354W        W70680  27.945  27.611   3.849
98355W        W70681  21.668  44.379   1.202
98356W        W70682  33.026   3.691   4.555
98357W        W70683  18.490  22.051  13.009
98358W        W70684  18.316  35.034   4.670
98359W        W70685  38.853  13.086   4.712
98360W        W70686  42.316  36.050   4.008
98361W        W70687   2.619  32.135   2.463
98362W        W70688   8.202  37.306  13.986
98363W        W70689  21.756  19.630   3.866
98364W        W70690  36.807  40.869   0.241
98365W        W70691   2.346  39.529   3.858
98366W        W70692  24.540  34.571   4.505
98367W        W70693  19.826  32.508   2.378
98368W        W70694  14.209   8.833   2.338
98369W        W70695  15.647  18.363  13.426
98370W        W70696  12.438  16.397  14.246
98371W        W70697  24.539  13.502   4.092
98372W        W70698  32.506  30.898   1.147
98373W        W70699  42.440  37.093  14.441
98374W        W70700  35.381  19.783   0.971
98375W        W70701  40.294  23.112   3.728
98376W        W70702  23.289   3.902   4.530
98377W        W70703  35.598  31.814   1.690
98378W        W70704   6.218   1.917  12.508
98379W        W70705  44.738   9.229   0.416
98380W        W70706  18.326  25.589  13.366
98381W        W70707  12.562  31.086  11.560
98382W        W70708  13.944  40.551   4.037
98383W        W70709  22.478  10.709  14.225
98384W        W70710   3.339  23.939  10.359
98385W        W70711  37.404  43.233  12.039
98386W        W70712  19.552  27.521   0.313
98387W        W70713  13.337  14.184   2.622
98388W        W70714  12.124  13.204   1.028
98389W        W70715  35.624  14.555  13.902
98390W        W70716  26.297  29.132   4.663
98391W        W70717  11.901  34.943   5.397
98392W        W70718  38.263  17.694  11.530
98393W        W70719   4.838  11.336   0.832
98394W        W70720  28.932  33.000   3.313
98395W        W70721  10.112  12.681  10.328
98396W        W70722  18.515  36.120  14.487
98397W        W70723   2.184   6.861   1.648
98398W        W70724  20.931  21.190   3.999
98399W        W70725  18.324  30.630   3.783
98400W        W70726  17.640  42.401  11.511
98401W        W70727  44.978   7.385   2.832
98402W        W70728  43.808  22.044   2.692
98403W        W70729  42.345  14.537  13.936
98404W        W70730  18.818  33.003   3.891
98405W        W70731   5.006  25.791   3.280
98406W        W70732   5.706   7.134  12.905
98407W        W70733   6.815   6.130  14.450
98408W        W70734   8.263   7.914  12.398
98409W        W70735  20.543  24.969  10.437
98410W        W70736  25.171  38.394   2.276
98411W        W70737  37.969  39.957   4.127
98412W        W70738  24.986  34.660  13.252
98413W        W70739  43.385  24.691  11.541
98414W        W70740  16.633  37.559  12.399
98415W        W70741   1.926  16.073  10.560
98416W        W70742   1.238  42.480  13.422
98417W        W70743   4.080   4.748  12.400
98418W        W70744  24.252   6.363  11.691
98419W        W70745  16.052  19.770  13.215
98420W        W70746   1.234  33.428  13.103
98421W        W70747  28.341  32.704   0.294
98422W        W70748   2.178   4.305   2.160
98423W        W70749   3.551  12.771  13.299
98424W        W70750   8.833   4.757   3.213
98425W        W70751  29.614   2.826  11.685
98426W        W70752   0.361  11.002   1.906
98427W        W70753  30.143  27.201  10.205
98428W        W70754  12.121  16.557  13.868
98429W        W70755  10.321   5.718   1.903
98430W        W70756  21.043  37.118  12.565
98431W        W70757  10.044  41.691   4.560
98432W        W70758  34.862  27.001   1.189
98433W        W70759  34.164   7.383  11.234
98434W        W70760  21.886  38.321   0.853
98435W        W70761  25.358  36.482  10.596
98436W        W70762  29.957  39.399   3.131
98437W        W70763  27.032  11.170  10.953
98438W        W70764  40.342  27.162   1.746
98439W        W70765  17.072  41.587   0.964
98440W        W70766  17.900  12.939   1.056
98441W        W70767  40.876  32.366   1.928
98442W        W70768  43.976  44.735  13.135
98443W        W70769  37.455  32.378   4.617
98444W        W70770  18.655  16.733   0.315
98445W        W70771  22.526   4.004   4.086
98446W        W70772  37.684  31.704   2.926
98447W        W70773  43.346  44.317   2.348
98448W        W70774  20.976  38.863   3.033
98449W        W70775  30.983   9.189  10.739
98450W        W70776  25.677   2.182  12.428
98451W        W70777  10.258   0.111  10.285
98452W        W70778   9.658   5.207   1.077
98453W        W70779  31.149  27.682  14.922
98454W        W70780  28.078   3.614  11.118
98455W        W70781  15.272  13.755   3.445
98456W        W70782   8.338  12.784  10.946
98457W        W70783  10.663   1.733   2.342
98458W        W70784  43.320   6.913   4.074
98459W        W70785  39.446  18.751   1.687
98460W        W70786  23.486  23.755   3.274
98461W        W70787  27.374  10.069  12.972
98462W        W70788  19.781  37.309   4.176
98463W        W70789   4.916  31.689  10.762
98464W        W70790  44.795  17.725   4.514
98465W        W70791  10.188  25.346  13.323
98466W        W70792  26.362  38.909  14.128
98467W        W70793  20.743   2.814   2.201
98468W        W70794   1.939  31.438   3.379
98469W        W70795  42.581  44.942  11.138
98470W        W70796  29.062   0.346  11.717
98471W        W70797   4.405   4.000  10.215
98472W        W70798  15.742  27.646  10.214
98473W        W70799  12.866  36.558   9.767
98474W        W70800  13.314   6.188  12.929
98475W        W70801  15.300  36.854  14.213
98476W        W70802   9.385  26.834  11.734
98477W        W70803  10.812  36.447  11.150
98478W        W70804  37.082   7.271   0.791
98479W        W70805  30.542  17.679  13.726
98480W        W70806  42.488  26.440   2.213
98481W        W70807   1.792  41.813   1.877
98482W        W70808  27.082  11.792   3.289
98483W        W70809  42.426   4.198   4.620
98484W        W70810  36.643  37.013  14.968
98485W        W70811  25.184  29.495  10.755
98486W        W70812  23.224   7.938   2.843
98487W        W70813  30.138   8.195   0.842
98488W        W70814  28.094   4.892  13.102
98489W        W70815  35.956  31.139  13.893
98490W        W70816   6.321  36.501   3.756
98491W        W70817  12.342   1.914  12.038
98492W        W70818  23.391  31.837   3.093
98493W        W70819  42.489  20.617   4.412
98494W        W70820  14.344  37.987   1.781
98495W        W70821   1.444   5.181  11.479
98496W        W70822  41.615  41.135  10.584
98497W        W70823  18.526   4.160  13.875
98498W        W70824  16.837  24.689  14.869
98499W        W70825  24.045   9.609   0.907
98500W        W70826  23.663  36.105  13.551
98501W        W70827  36.066  11.863  13.036
98502W        W70828  26.016  24.608  13.681
98503W        W70829  31.481   5.175  13.530
98504W        W70830  20.394   3.692   3.294
98505W        W70831  40.543  10.643   0.745
98506W        W70832   3.751   4.217  13.916
98507W        W70833  20.053  20.686  12.901
98508W        W70834  11.872  18.792  11.435
98509W        W70835  41.478   8.664   4.135
98510W        W70836  25.094   4.725  12.906
98511W        W70837  39.306  36.906  10.919
98512W        W70838   6.009  17.638  13.073
98513W        W70839  29.645  13.043  11.156
98514W        W70840  24.954   0.127   2.582
98515W        W70841   9.661  13.390   1.149
98516W        W70842  37.085   6.351   1.991
98517W        W70843   5.653  33.137  11.989
98518W        W70844  29.998  31.124   2.396
98519W        W70845  42.565  27.064   0.208
98520W        W70846  36.598  43.713   1.885
98521W        W70847   0.539  29.974   4.846
98522W        W70848  10.854  38.422   2.370
98523W        W70849  27.049   3.046  12.888
98524W        W70850  31.705   9.391   4.440
98525W        W70851   4.383  12.760   4.487
98526W        W70852  31.086  21.320  14.446
98527W        W70853  23.497  25.962  11.608
98528W        W70854   8.751  38.560   2.279
98529W        W70855  24.231   3.554  10.154
98530W        W70856  11.739   3.396  14.798
98531W        W70857  10.986  37.278  11.117
98532W        W70858  43.393  32.341  13.114
98533W        W70859   8.174  30.600   1.960
98534W        W70860  19.619  28.527  12.839
98535W        W70861  30.357  32.033  11.214
98536W        W70862  30.576  24.918  14.178
98537W        W70863  19.762  29.695  11.099
98538W        W70864  30.046  31.649  12.094
98539W        W70865  10.321  27.849  14.690
98540W        W70866  13.229  22.235   0.792
98541W        W70867  26.374  36.986   3.258
98542W        W70868  41.012  12.493  14.986
98543W        W70869  28.188  30.933  12.101
98544W        W70870  12.743  34.880   3.429
98545W        W70871  17.395  41.842  11.042
98546W        W70872  44.785  40.960  13.085
98547W        W70873  35.105  29.612  11.971
98548W        W70874  11.631   2.383   1.308
98549W        W70875   8.349   6.540  12.400
98550W        W70876  29.114  12.296   4.083
98551W        W70877  13.749  22.695  13.076
98552W        W70878   0.953  23.367   4.588
98553W        W70879  23.436  37.617  12.033
98554W        W70880  30.066  41.797  13.442
98555W        W70881  42.314  34.373   0.577
98556W        W70882  38.797  30.406   3.876
98557W        W70883  21.569   7.918  13.719
98558W        W70884  39.158  11.214   4.827
98559W        W70885   3.160   9.250   5.198
98560W        W70886  21.485   3.351   0.383
98561W        W70887   7.500  14.257  13.461
98562W        W70888  29.984   8.784  14.425
98563W        W70889   1.729  31.606  12.588
98564W        W70890  22.712   8.289  10.870
98565W        W70891  13.625  25.472  13.879
98566W        W70892  37.688   6.236  13.519
98567W        W70893  33.453  39.306  11.593
98568W        W70894   5.904  16.652  14.467
98569W        W70895  29.561  16.374  12.386
98570W        W70896  26.982  43.704  14.389
98571W        W70897  29.115   7.463   1.102
98572W        W70898   1.807   9.934   5.458
98573W        W70899  38.580  34.505  13.836
98574W        W70900  25.028  32.674  14.465
98575W        W70901  16.840  36.337   2.670
98576W        W70902  14.514  21.515  12.172
98577W        W70903  42.419  20.593  11.232
98578W        W70904  36.968  10.809  10.323
98579W        W70905  26.633   0.521   2.489
98580W        W70906  25.229  40.222   1.187
98581W        W70907   4.254  15.796   3.646
98582W        W70908  20.755   2.194   0.031
98583W        W70909  15.572  36.847  12.611
98584W        W70910   3.353  38.039   4.959
98585W        W70911  32.607  26.683  13.102
98586W        W70912  39.563   5.982   1.947
98587W        W70913   6.252  31.418   2.771
98588W        W70914  44.442  31.719  12.531
98589W        W70915   1.389  26.056  13.379
98590W        W70916  19.854  33.939  13.362
98591W        W70917  31.848   7.778   0.426
98592W        W70918   8.748   1.884  11.944
98593W        W70919   7.300  18.240  12.983
98594W        W70920  39.968  37.458  14.715
98595W        W70921  37.037  16.675   0.536
98596W        W70922   2.442  40.791  14.857
98597W        W70923   5.740  39.543   1.505
98598W        W70924  25.858  25.000  12.914
98599W        W70925  20.098  12.895  14.280
98600W        W70926  37.604  32.583  12.934
98601W        W70927  40.567  34.408   4.774
98602W        W70928   6.395   7.807   3.290
98603W        W70929  30.703   7.716   2.225
98604W        W70930  40.427  29.064   2.626
98605W        W70931  10.891  42.960   1.396
98606W        W70932   1.808  37.498  12.481
98607W        W70933  19.300  21.257  13.379
98608W        W70934  27.667   6.218   0.834
98609W        W70935  39.958   0.115   2.127
98610W        W70936  17.729  37.914   1.787
98611W        W70937  23.446   6.392  11.135
98612W        W70938   2.652  33.192   1.526
98613W        W70939  25.389   6.819   0.007
98614W        W70940  28.360  24.142   1.187
98615W        W70941   9.768  39.683   2.828
98616W        W70942  33.598  31.491  11.207
98617W        W70943  33.417  20.053   2.025
98618W        W70944  37.361  23.724  10.384
98619W        W70945   3.256  26.865   1.671
98620W        W70946  27.947   3.237  12.066
98621W        W70947  20.287   9.644  13.420
98622W        W70948   1.033   6.239  12.888
98623W        W70949  13.186  33.158   3.848
98624W        W70950  44.361  16.774  10.627
98625W        W70951  12.566   4.996   4.756
98626W        W70952   0.271  33.932  13.295
98627W        W70953   9.614  23.040   2.217
98628W        W70954  19.659  27.648   4.184
98629W        W70955   3.304  42.287  14.312
98630W        W70956   7.886  41.616   1.866
98631W        W70957  18.621  31.628   0.009
98632W        W70958  19.692  34.778   3.657
98633W        W70959   0.022  33.414  10.709
98634W        W70960   6.909  34.150  11.138
98635W        W70961  26.148  21.267   4.065
98636W        W70962   0.820  11.356   3.084
98637W        W70963   2.990  17.595  13.823
98638W        W70964  38.043  34.947   4.010
98639W        W70965  32.408  38.860  12.398
98640W        W70966   3.766   7.100   3.312
98641W        W70967   5.415  36.552   2.622
98642W        W70968  29.743  44.282   1.239
98643W        W70969  33.917  27.633  12.082
98644W        W70970   4.387   0.419   1.369
98645W        W70971  37.102  14.139   2.750
98646W        W70972  37.516  30.547  14.744
98647W        W70973   9.264  32.442  10.572
98648W        W70974   6.394  35.928  11.152
98649W        W70975  21.756   8.338   3.284
98650W        W70976  25.167  10.150   0.004
98651W        W70977   7.359   7.519  14.356
98652W        W70978  29.087  31.919   1.211
98653W        W70979  10.335   2.879   3.328
98654W        W70980   6.995  23.568  11.968
98655W        W70981  14.793  37.367  13.313
98656W        W70982   2.717  34.305  11.083
98657W        W70983  18.598  37.645  12.515
98658W        W70984  39.299  37.876   4.535
98659W        W70985  38.072  36.807   3.262
98660W        W70986  44.505  38.552  11.934
98661W        W70987  43.037   4.190   1.689
98662W        W70988  25.132   9.242   2.416
98663W        W70989  30.947  38.117  13.606
98664W        W70990   5.978  44.751   0.826
98665W        W70991  36.664  44.353  10.605
98666W        W70992  32.047   1.456  12.023
98667W        W70993  36.045  27.092   0.428
98668W        W70994  38.897   5.725   1.150
98669W        W70995  38.325  33.828  14.798
98670W        W70996  22.707  20.954   1.999
98671W        W70997  11.324  35.111  13.025
98672W        W70998  13.642   5.787  11.387
98673W        W70999  36.564  22.596  11.894
98674W        W71000  29.053  42.911  11.560
98675W        W71001   3.923  26.423  10.735
98676W        W71002  12.024  12.584   2.700
98677W        W71003   2.724  16.296  13.527
98678W        W71004  32.637  37.987  10.885
98679W        W71005  14.164  25.146   5.484
98680W        W71006  30.994  41.081  12.425
98681W        W71007  22.266  34.832  12.088
98682W        W71008  42.231  35.007  12.506
98683W        W71009  32.712  16.293  10.736
98684W        W71010  35.163  15.830  12.500
98685W        W71011  20.755  41.819  12.409
98686W        W71012  26.250  41.429  11.314
98687W        W71013  44.949   3.723   3.258
98688W        W71014  10.383  19.252   4.580
98689W        W71015  15.650  39.393  13.957
98690W        W71016  31.739  17.679  13.100
98691W        W71017  11.686  15.293  11.517
98692W        W71018  19.182   3.970  13.940
98693W        W71019  36.960  12.212  12.366
98694W        W71020  30.199  36.890   2.193
98695W        W71021   8.939  40.381   0.504
98696W        W71022  14.167  38.336   4.996
98697W        W71023  38.832  23.629   2.400
98698W        W71024  25.160  22.135  12.381
98699W        W71025  20.815  20.712   2.493
98700W        W71026  33.882  37.837  12.924
98701W        W71027  33.589   1.009   1.838
98702W        W71028  31.535  44.336   2.571
98703W        W71029   9.175  41.456   0.534
98704W        W71030  31.666  14.666   1.274
98705W        W71031  29.716   3.093   0.857
98706W        W71032  32.198  34.555  14.197
98707W        W71033  18.258  19.337  12.093
98708W        W71034  42.838   8.277  11.466
98709W        W71035  14.067  36.437  10.645
98710W        W71036  33.738   1.842  10.826
98711W        W71037  23.637  31.575  11.220
98712W        W71038  23.826  39.807   4.338
98713W        W71039   8.365  16.623   2.425
98714W        W71040  17.162  43.249  11.931
98715W        W71041  36.016   0.261  10.650
98716W        W71042  39.931  35.545  11.280
98717W        W71043  37.594  11.771   0.334
98718W        W71044  11.698   2.449  12.370
98719W        W71045  23.591   1.106  13.841
98720W        W71046  41.962  44.282   5.001
98721W        W71047  21.502   1.213   2.827
98722W        W71048   7.845  16.281  14.023
98723W        W71049  40.304   9.266   4.826
98724W        W71050  33.080   6.734   2.672
98725W        W71051  27.736   5.787   3.739
98726W        W71052   2.371  22.260   4.205
98727W        W71053  11.629  16.596   2.356
98728W        W71054  37.572  17.757   0.912
98729W        W71055   2.522  38.853  11.565
98730W        W71056  35.029   3.370   1.768
98731W        W71057  23.447  22.665  14.408
98732W        W71058  14.165   6.682   2.394
98733W        W71059  44.468   0.737   4.855
98734W        W71060   6.917  33.830   0.036
98735W        W71061  12.150  39.500   4.221
98736W        W71062  17.102  10.853  13.844
98737W        W71063  11.902  39.058   0.298
98738W        W71064   5.629  18.286  11.755
98739W        W71065   0.778  18.836   2.891
98740W        W71066  21.288  13.875  14.369
98741W        W71067  25.607  39.973   1.463
98742W        W71068  34.151  27.035   0.944
98743W        W71069  37.905  36.419  11.968
98744W        W71070   1.138  15.876  13.056
98745W        W71071  12.575   3.316   0.017
98746W        W71072  31.441  41.247   4.634
98747W        W71073  44.805   5.803  13.078
98748W        W71074  29.054  44.386  11.559
98749W        W71075  39.772  35.056  14.825
98750W        W71076  41.840  13.837   2.333
98751W        W71077  34.566  36.461  13.360
98752W        W71078   6.730  42.406   3.873
98753W        W71079  33.267  36.079   4.213
98754W        W71080   7.731  15.197  14.391
98755W        W71081  20.636  38.654   1.730
98756W        W71082  16.529  26.592   0.372
98757W        W71083  25.483   1.736   1.996
98758W        W71084  20.154  38.355   1.397
98759W        W71085   1.505  15.618   1.067
98760W        W71086   4.396  11.154  12.019
98761W        W71087  30.366  12.817  12.432
98762W        W71088  18.007  34.193  12.970
98763W        W71089   6.885  11.865   4.151
98764W        W71090  39.614  36.926  14.589
98765W        W71091  19.324   0.531   2.470
98766W        W71092   8.989  30.046  11.540
98767W        W71093  37.053   3.125   3.279
98768W        W71094  17.544  38.078  13.520
98769W        W71095  18.573  41.225   3.754
98770W        W71096  15.431  26.516   4.966
98771W        W71097  16.313   0.310  13.433
98772W        W71098  28.962  24.226  13.839
98773W        W71099  41.567  34.333   3.198
98774W        W71100  22.797   5.349  11.149
98775W        W71101   9.319   6.202  10.203
98776W        W71102  10.808  14.122   1.739
98777W        W71103   8.632   8.762  11.221
98778W        W71104  21.634   1.738  11.710
98779W        W71105  20.664  31.426  13.401
98780W        W71106   9.458  44.144   3.571
98781W        W71107  20.700  25.021  13.423
98782W        W71108  41.374  22.440   4.615
98783W        W71109  12.340  12.696  14.350
98784W        W71110  35.655  16.880   2.720
98785W        W71111  12.648   7.383  11.499
98786W        W71112  36.605  20.702   0.873
98787W        W71113  15.534   7.710   0.072
98788W        W71114  18.160  32.919   0.743
98789W        W71115   4.823   2.503  14.312
98790W        W71116  33.177  30.052   2.904
98791W        W71117   9.142  21.190   2.672
98792W        W71118  10.430  43.290   1.455
98793W        W71119  33.210  25.239   4.158
98794W        W71120  41.799  37.612   0.696
98795W        W71121  21.209   0.011   4.196
98796W        W71122   1.188   3.226   3.686
98797W        W71123  19.171  26.488   2.811
98798W        W71124  44.805  18.721  11.587
98799W        W71125  40.854   5.983   0.738
98800W        W71126  23.288  34.328  10.801
98801W        W71127  32.432  42.011  12.145
98802W        W71128  23.163  35.494  13.860
98803W        W71129  10.335  10.093  11.628
98804W        W71130  12.054  34.889  14.557
98805W        W71131  23.837  13.459  14.447
98806W        W71132   3.584  10.432  13.355
98807W        W71133   1.452  32.950  13.014
98808W        W71134  33.618  38.554   0.220
98809W        W71135  28.248  22.144   1.994
98810W        W71136   9.704   3.742  11.436
98811W        W71137  37.478   3.868  14.898
98812W        W71138   1.121  24.861  10.070
98813W        W71139  38.384  43.539   1.527
98814W        W71140  29.275   4.356   3.332
98815W        W71141   5.210  16.003  11.606
98816W        W71142  35.784  25.673   2.580
98817W        W71143  38.386  16.130   2.661
98818W        W71144  42.111  25.021   4.708
98819W        W71145   4.471  25.692  10.546
98820W        W71146   9.134  19.317  12.530
98821W        W71147  27.258  35.836   3.290
98822W        W71148  43.920  14.125   2.238
98823W        W71149  39.035  16.157  13.490
98824W        W71150  19.222  43.813   4.931
98825W        W71151   3.612   9.950   1.906
98826W        W71152  22.045  43.049   1.814
98827W        W71153  19.609  37.068  14.363
98828W        W71154  31.812  38.009  13.879
98829W        W71155  25.063   5.931  13.909
98830W        W71156   4.356  16.299   2.781
98831W        W71157  38.042  18.445  11.022
98832W        W71158  36.596  19.085   3.855
98833W        W71159   0.998   9.728   4.255
98834W        W71160  33.781   8.305  12.575
98835W        W71161  23.094  18.699  14.137
98836W        W71162   5.922  36.564  12.477
98837W        W71163  29.990  32.197   4.243
98838W        W71164  11.657   4.843  14.363
98839W        W71165   2.485  39.835   2.133
98840W        W71166  17.831  31.114  13.830
98841W        W71167  30.718  30.448   0.916
98842W        W71168   5.915  43.454  11.168
98843W        W71169  29.426  27.500  11.284
98844W        W71170  25.952  19.562  14.940
98845W        W71171  28.081  30.928   4.579
98846W        W71172  20.528  39.034   3.739
98847W        W71173  34.580  12.529  12.952
98848W        W71174  25.470  16.995   3.227
98849W        W71175   9.926   5.216  13.479
98850W        W71176  17.518  20.159   2.267
98851W        W71177   7.944  42.446  11.871
98852W        W71178  18.138  43.695  14.775
98853W        W71179  13.125  31.492  11.129
98854W        W71180   2.942   6.946  11.648
98855W        W71181  41.437  32.555  11.564
98856W        W71182  44.631  28.135   1.309
98857W        W71183  29.727  39.020  14.851
98858W        W71184  30.900  16.798  10.828
98859W        W71185  30.362  23.720   1.018
98860W        W71186  38.300  37.378   0.676
98861W        W71187  13.615   6.345  12.526
98862W        W71188  21.321  36.094  11.073
98863W        W71189  33.170  18.467   4.537
98864W        W71190  22.971  24.170  11.151
98865W        W71191  10.930  43.380  13.947
98866W        W71192  20.554  42.137  12.036
98867W        W71193  41.409  18.171   2.159
98868W        W71194  14.745  43.932  12.556
98869W        W71195  43.319  44.451   4.631
98870W        W71196  42.921  23.670  13.204
98871W        W71197  36.138  37.648   3.329
98872W        W71198  28.085  32.895  14.821
98873W        W71199   9.065   9.522  14.888
98874W        W71200   1.455  32.987  14.856
98875W        W71201  26.034  22.687  12.654
98876W        W71202  17.647  27.191  14.030
98877W        W71203  31.114   1.422   4.495
98878W        W71204  24.945  12.140  13.346
98879W        W71205  25.610  32.154   4.187
98880W        W71206  15.980  31.471  13.891
98881W        W71207  42.511  14.936   1.017
98882W        W71208  23.612  26.824  14.273
98883W        W71209  28.603   2.931  10.781
98884W        W71210  19.497  19.104  10.729
98885W        W71211  44.589  30.410  14.542
98886W        W71212   2.344  32.867   4.490
98887W        W71213  13.320  12.385   0.555
98888W        W71214  35.038   5.680   2.719
98889W        W71215  37.321  27.226   1.002
98890W        W71216  21.571  10.568   4.113
98891W        W71217  28.526  33.451  14.272
98892W        W71218  32.523  35.494   4.129
98893W        W71219  42.989  19.181   3.157
98894W        W71220  27.250  34.000   2.414
98895W        W71221  29.510  29.451   1.209
98896W        W71222  38.030  21.474   2.733
98897W        W71223  27.715  19.708  11.615
98898W        W71224   6.377  29.364   1.845
98899W        W71225  16.162  21.110  12.899
98900W        W71226   7.423  41.273   4.146
98901W        W71227  39.151  22.605   2.371
98902W        W71228  44.066  22.961  12.101
98903W        W71229  41.027  26.352  12.899
98904W        W71230  11.070   5.304  12.747
98905W        W71231   0.039  32.899  13.927
98906W        W71232  27.467  16.056   3.670
98907W        W71233  21.238  43.672   1.856
98908W        W71234  16.227  25.311   3.306
98909W        W71235  20.615  15.624  14.059
98910W        W71236  41.442  22.478   1.773
98911W        W71237  43.801   0.762  12.270
98912W        W71238  27.900  42.289  10.590
98913W        W71239  27.645  33.956  12.885
98914W        W71240  10.136  26.737   1.648
98915W        W71241  12.390  35.904   1.889
98916W        W71242  35.090  26.282  11.149
98917W        W71243   9.741   9.948  12.187
98918W        W71244  10.688  39.065   3.687
98919W        W71245  25.001  28.677  12.201
98920W        W71246   0.372  43.746   2.694
98921W        W71247  39.492  35.229  11.453
98922W        W71248   7.802  41.759   1.027
98923W        W71249  19.055   0.840  13.085
98924W        W71250  10.473  17.252  11.969
98925W        W71251  37.485   6.123  12.011
98926W        W71252  38.425   4.146   0.140
98927W        W71253  27.689  32.695   4.504
98928W        W71254  23.024  37.325   0.350
98929W        W71255  12.315  32.931   2.863
98930W        W71256  29.611  43.110   2.844
98931W        W71257  26.714  41.717   4.769
98932W        W71258  11.620   2.870  11.646
98933W        W71259  34.474  28.449   4.551
98934W        W71260  39.880  30.211   4.772
98935W        W71261  22.347  23.080   0.336
98936W        W71262   3.868  42.866  13.408
98937W        W71263  21.028  17.273   1.189
98938W        W71264   8.569  42.061   1.397
98939W        W71265  13.290   8.920   3.774
98940W        W71266  32.464  25.332  12.379
98941W        W71267  30.088   0.715   2.748
98942W        W71268   8.676   6.176   1.398
98943W        W71269  33.870   6.909   4.349
98944W        W71270  17.699  33.334  11.695
98945W        W71271   9.714   6.861  14.554
98946W        W71272  29.389  15.874   1.357
98947W        W71273  31.216   2.605  11.956
98948W        W71274  17.735  33.217   0.905
98949W        W71275  29.587  39.496   4.663
98950W        W71276  28.415  34.637  13.384
98951W        W71277   5.338   4.480  14.772
98952W        W71278  40.951  35.788   2.208
98953W        W71279   0.416  15.653  11.496
98954W        W71280   7.646  17.577   0.894
98955W        W71281  26.139  18.052   3.403
98956W        W71282  29.536   1.666  12.960
98957W        W71283  35.086  34.484   3.734
98958W        W71284  30.560  30.113   3.237
98959W        W71285  23.119  33.539  13.028
98960W        W71286  26.629  17.786   1.225
98961W        W71287  27.064   0.856   2.762
98962W        W71288  21.794  12.743   3.727
98963W        W71289  43.774  11.230  14.918
98964W        W71290  15.816  12.057  13.051
98965W        W71291   6.017  35.986  10.768
98966W        W71292  18.573  16.209   3.167
98967W        W71293  37.597  27.796   4.002
98968W        W71294  14.573  37.100   4.729
98969W        W71295  44.774  42.401   1.268
98970W        W71296   9.241   2.961  10.728
98971W        W71297  27.113  23.479  10.325
98972W        W71298  28.389  22.709   2.800
98973W        W71299  31.132  17.851   3.225
98974W        W71300  24.325   4.697   4.352
98975W        W71301  24.854  35.194  11.103
98976W        W71302  26.550  30.439   1.108
98977W        W71303  13.706  17.052   4.180
98978W        W71304  36.957  34.079   1.890
98979W        W71305  40.697  33.412  12.510
98980W        W71306  11.917  10.649   3.240
98981W        W71307  29.451  32.093   0.870
98982W        W71308  10.637  22.175   3.633
98983W        W71309  37.405  37.412   0.770
98984W        W71310  22.678  31.953   2.343
98985W        W71311  26.402  28.932  13.823
98986W        W71312   4.153  29.331  13.029
98987W        W71313  10.306  23.927  14.473
98988W        W71314  44.439  41.731   0.046
98989W        W71315  38.026  29.734  11.855
98990W        W71316  26.320  13.765   0.067
98991W        W71317  35.643  35.517   3.652
98992W        W71318  36.368   7.834   4.097
98993W        W71319   2.815  38.869   4.395
98994W        W71320  30.627  44.496   1.211
98995W        W71321  39.873  18.558   4.346
98996W        W71322  12.805  21.372  14.150
98997W        W71323   8.103  16.716   2.874
98998W        W71324   8.928  26.106  10.549
98999W        W71325   7.692   8.941  11.231
99000W        W71326  24.228  33.436  13.668
99001W        W71327  43.473  30.149   4.217
99002W        W71328   8.290  10.052  11.920
99003W        W71329  10.364  17.227  11.093
99004W        W71330  23.557   8.874  14.491
99005W        W71331  15.955  24.637   2.508
99006W        W71332  26.083   8.495  14.816
99007W        W71333   1.697  19.134   0.849
99008W        W71334  40.436  39.026   1.332
99009W        W71335   1.932  44.807   4.186
99010W        W71336   2.374  16.742   2.097
99011W        W71337  44.005   2.759  13.898
99012W        W71338  29.215  43.012   0.557
99013W        W71339   0.274  40.404   0.358
99014W        W71340  12.711  33.926   4.560
99015W        W71341  23.021  11.303  13.751
99016W        W71342  42.979  33.025   1.592
99017W        W71343  27.284  19.713  10.739
99018W        W71344  14.555   4.342  11.747
99019W        W71345   6.340  40.767   4.276
99020W        W71346   4.014  36.640  13.852
99021W        W71347   9.015  27.089  13.764
99022W        W71348  40.616   3.615   4.614
99023W        W71349  26.381  37.103  12.552
99024W        W71350  35.554  21.731  13.093
99025W        W71351  37.796  12.821   2.593
99026W        W71352  18.172  15.831   1.078
99027W        W71353  16.315   7.655  14.378
99028W        W71354  36.822  29.842   4.674
99029W        W71355  17.593   9.657  10.697
99030W        W71356  33.847  19.512   0.902
99031W        W71357   5.717  40.249   3.557
99032W        W71358  10.915  32.869  11.523
99033W        W71359  16.245  26.106   3.189
99034W        W71360  42.336  24.652  10.884
99035W        W71361  29.389   9.881  13.128
99036W        W71362   1.972  15.783  13.435
99037W        W71363  17.763  14.120  11.201
99038W        W71364  38.887  10.949  14.356
99039W        W71365  34.842  39.499   0.991
99040W        W71366  31.617   5.206   3.124
99041W        W71367  19.333  22.739   3.797
99042W        W71368  34.617  31.999   3.700
99043W        W71369   3.989  17.774  14.484
99044W        W71370   8.749  12.586   0.355
99045W        W71371  18.083  20.637   4.161
99046W        W71372  25.982  28.157   4.534
99047W        W71373  35.468  18.256  10.491
99048W        W71374  11.137  41.621  12.601
99049W        W71375   9.740   4.874  14.961
99050W        W71376  36.090   2.667  14.471
99051W        W71377   3.514   3.977   0.303
99052W        W71378  44.063   7.871   3.066
99053W        W71379   7.457  12.647   0.864
99054W        W71380   6.257  43.517   0.459
99055W        W71381  41.533  23.624  11.170
99056W        W71382  13.272   3.894   0.535
99057W        W71383   7.286  25.314  13.001
99058W        W71384   1.190  34.143  11.217
99059W        W71385  19.613  33.601   4.973
99060W        W71386  22.881  42.888   1.757
99061W        W71387  11.305  28.039  11.649
99062W        W71388  21.312  22.228   0.901
99063W        W71389  41.657  17.637  11.305
99064W        W71390   7.317  16.245   4.105
99065W        W71391  21.715   7.224  13.306
99066W        W71392  16.499  25.059   0.001
99067W        W71393  39.979   2.751  11.003
99068W        W71394  39.737   3.218   1.978
99069W        W71395  27.456   6.386  10.645
99070W        W71396   9.833  18.943   1.774
99071W        W71397   5.887   2.533   0.047
99072W        W71398  27.689   8.967  12.433
99073W        W71399  36.862   7.716  11.881
99074W        W71400  21.782  36.309  13.731
99075W        W71401   1.864   7.342   3.070
99076W        W71402  41.910  10.048   1.894
99077W        W71403  27.604  15.797  11.602
99078W        W71404  29.687  10.752  12.355
99079W        W71405  35.600  38.341   1.301
99080W        W71406  19.070  30.164  10.755
99081W        W71407  13.791  21.958   3.713
99082W        W71408  37.917  31.932  11.158
99083W        W71409  43.769   7.797   2.644
99084W        W71410  32.517  24.967  12.019
99085W        W71411   4.408  11.688  11.662
99086W        W71412  43.331  22.260  14.530
99087W        W71413  36.125  32.104  12.579
99088W        W71414  12.447  43.143  12.164
99089W        W71415   4.382  19.752  10.614
99090W        W71416  13.202   7.359   2.652
99091W        W71417  35.549  44.341  10.434
99092W        W71418  25.743  23.475  13.979
99093W        W71419  35.103  32.587   9.649
99094W        W71420  39.985  15.771  13.462
99095W        W71421   1.052  16.914  11.112
99096W        W71422  13.264   2.147   0.313
99097W        W71423  28.651  33.389  13.004
99098W        W71424  26.622  41.414  12.802
99099W        W71425  43.346  24.669   0.870
99100W        W71426  33.032   9.240  13.326
99101W        W71427  32.800  35.598  11.989
99102W        W71428  32.401  34.401   3.543
99103W        W71429  40.488  41.233   4.156
99104W        W71430  27.653  37.033   3.847
99105W        W71431  43.480  25.496  14.556
99106W        W71432   8.944  27.424   0.523
99107W        W71433  38.609  33.060   2.838
99108W        W71434  32.073  31.540  12.411
99109W        W71435   7.659  29.557  10.504
99110W        W71436  35.321  44.822  13.505
99111W        W71437  17.658   8.710   2.087
99112W        W71438   7.403  20.368   1.207
99113W        W71439   4.278  40.046   0.354
99114W        W71440  17.664  20.560  11.055
99115W        W71441   7.916   1.816   1.681
99116W        W71442   8.819  14.188   1.888
99117W        W71443   7.045  30.522   0.569
99118W        W71444  42.625  21.286   1.464
99119W        W71445   3.867  27.623  11.227
99120W        W71446  42.281  24.118  14.787
99121W        W71447  36.067  38.313  10.762
99122W        W71448  15.762  31.568  14.368
99123W        W71449  20.583  33.590   2.247
99124W        W71450   7.178  26.154  11.417
99125W        W71451  41.919  42.791   1.403
99126W        W71452  40.762   3.874  11.505
99127W        W71453  29.744  12.907  14.915
99128W        W71454  20.728   2.210  10.438
99129W        W71455  30.401  42.383   2.752
99130W        W71456   9.788  38.386   0.954
99131W        W71457  35.976  12.686  13.266
99132W        W71458  36.891  10.586   5.522
99133W        W71459  12.805  33.187  13.552
99134W        W71460  36.590  28.477  14.886
99135W        W71461   3.785  31.552   0.785
99136W        W71462  30.503   1.585  14.856
99137W        W71463  17.644  13.602  11.525
99138W        W71464  37.611  27.054  11.170
99139W        W71465  26.499   9.686   0.784
99140W        W71466  33.872  18.082  13.986
99141W        W71467  17.956  21.501   2.864
99142W        W71468  18.829  44.466  11.311
99143W        W71469  15.814   3.430  12.970
99144W        W71470   1.297  18.584  11.895
99145W        W71471   7.389  29.352   3.397
99146W        W71472  35.286  10.020   1.407
99147W        W71473   1.292   3.283  12.981
99148W        W71474  31.190  15.416  10.535
99149W        W71475   8.162  28.397   1.828
99150W        W71476  44.498  37.360   4.237
99151W        W71477  22.982  37.411  14.524
99152W        W71478   6.313  32.037   1.294
99153W        W71479  33.171   4.808   1.253
99154W        W71480  41.447  33.426   1.428
99155W        W71481  32.053  32.218   4.199
99156W        W71482  25.244  31.986   2.270
99157W        W71483  12.042   9.262   3.226
99158W        W71484   2.119   5.482  11.037
99159W        W71485  12.776  32.342   4.221
99160W        W71486  16.513  32.992  11.605
99161W        W71487   2.657   8.993   3.683
99162W        W71488  32.972  11.110  14.279
99163W        W71489  27.677  40.945  14.998
99164W        W71490  17.761  16.865   3.144
99165W        W71491  33.032  38.992  14.501
99166W        W71492   7.898   1.305  10.433
99167W        W71493  12.695  11.886  12.068
99168W        W71494  20.083  27.737  13.359
99169W        W71495  40.435  35.929   4.760
99170W        W71496  19.822  31.989   3.687
99171W        W71497  11.553  37.373   4.537
99172W        W71498  17.626  22.166  11.160
99173W        W71499  31.170  28.369   3.611
99174W        W71500  36.063  27.987  14.418
99175W        W71501  14.746  40.994   4.878
99176W        W71502   7.217  33.370  14.328
99177W        W71503  13.831   6.404  12.998
99178W        W71504  34.674  40.052   1.727
99179W        W71505  35.468   6.484  13.770
99180W        W71506  43.224  11.675  14.215
99181W        W71507  13.817  15.203   2.680
99182W        W71508   6.447  16.538   0.857
99183W        W71509  21.085  28.668   1.229
99184W        W71510  21.135   2.514  11.676
99185W        W71511  35.940   2.939  13.552
99186W        W71512  15.477  43.477  12.637
99187W        W71513  34.430  22.764  11.948
99188W        W71514  44.532  37.796  13.828
99189W        W71515  35.308  35.324  12.987
99190W        W71516  20.332   0.778   1.772
99191W        W71517  24.703  27.934  14.312
99192W        W71518   4.130  21.185   3.395
99193W        W71519  20.508  40.861   3.685
99194W        W71520  34.873  10.459   2.327
99195W        W71521  12.448  19.410   0.322
99196W        W71522  34.509  26.685  13.575
99197W        W71523  39.959  42.872   2.597
99198W        W71524  25.735  18.058   1.709
99199W        W71525  43.529  25.680   3.255
99200W        W71526   0.661  33.024  12.494
99201W        W71527  19.031  21.240   5.010
99202W        W71528  44.732   4.916  10.388
99203W        W71529  18.531  23.249   2.720
99204W        W71530  35.098   6.957   1.088
99205W        W71531  40.890   0.615  11.059
99206W        W71532   3.165  35.483  14.287
99207W        W71533   0.449  27.410  13.081
99208W        W71534  21.340  44.495   3.299
99209W        W71535  44.689  34.787   1.630
99210W        W71536  38.608  23.019  11.519
99211W        W71537  12.654  36.295   3.750
99212W        W71538  36.477  20.322   2.273
99213W        W71539  35.116   8.159  13.552
99214W        W71540  10.923  23.461   4.363
99215W        W71541  30.655  24.553   3.657
99216W        W71542  19.260  29.882  11.167
99217W        W71543  30.120  11.245   4.290
99218W        W71544  17.732  39.053  13.564
99219W        W71545  12.396  36.842  11.318
99220W        W71546  41.833  30.610   4.480
99221W        W71547  21.675   4.673   3.541
99222W        W71548  34.991   8.667  12.770
99223W        W71549  37.132  18.687   2.729
99224W        W71550   1.527   6.271   1.447
99225W        W71551  21.405  13.359  14.416
99226W        W71552  40.443   0.056   4.663
99227W        W71553  22.528   6.708  13.574
99228W        W71554  31.074  25.558  11.853
99229W        W71555  26.418   3.374   3.239
99230W        W71556   5.423  13.853  12.442
99231W        W71557  29.005  28.985   3.852
99232W        W71558  15.379  25.212  10.723
99233W        W71559  32.501  11.363   2.237
99234W        W71560   0.550  13.156   4.331
99235W        W71561  22.342  27.454  11.710
99236W        W71562  31.912  16.720   4.937
99237W        W71563  34.944   9.445  13.327
99238W        W71564   7.946  37.273   4.215
99239W        W71565   8.390  11.443   3.275
99240W        W71566   7.110  13.693  14.249
99241W        W71567  26.746   0.502   1.463
99242W        W71568  39.012  13.618   1.489
99243W        W71569  40.945  27.932  14.880
99244W        W71570  30.625  38.522  11.536
99245W        W71571  25.726   0.811  14.561
99246W        W71572  12.142  21.716   4.409
99247W        W71573  15.694  26.673  10.558
99248W        W71574  18.556  38.584  11.035
99249W        W71575   4.898  23.742   2.249
99250W        W71576  24.262   1.792   3.408
99251W        W71577  31.362  21.578  11.101
99252W        W71578   6.241  18.434   3.719
99253W        W71579  36.559  10.109   9.890
99254W        W71580  44.938  15.583  12.157
99255W        W71581  19.913  40.096   0.266
99256W        W71582  40.847  28.441   1.326
99257W        W71583  35.488  20.325   3.278
99258W        W71584  11.934  18.224  10.731
99259W        W71585   1.109  11.885  11.087
99260W        W71586  31.474  21.970   0.460
99261W        W71587  34.939  37.087  13.942
99262W        W71588   2.484  31.031   4.717
99263W        W71589   4.619  33.545   5.193
99264W        W71590  17.735  17.587   2.587
99265W        W71591   0.853  18.117   1.749
99266W        W71592   7.708  43.082   4.111
99267W        W71593   7.462  18.021   4.762
99268W        W71594  36.570  14.526   1.314
99269W        W71595  24.997  23.625  14.319
99270W        W71596  42.908   9.483   0.952
99271W        W71597  30.509  37.519   0.276
99272W        W71598  33.062   4.344   3.327
99273W        W71599  31.771  25.116   0.825
99274W        W71600  13.439  26.684   5.018
99275W        W71601   2.433  26.079   0.483
99276W        W71602  38.122  24.213  12.491
99277W        W71603  23.925  37.344   4.708
99278W        W71604   7.397   8.932   3.055
99279W        W71605  25.664  22.732  13.512
99280W        W71606  21.968  37.807  10.040
99281W        W71607  36.765  30.296   3.173
99282W        W71608  27.467  42.368   1.427
99283W        W71609  22.034  14.878  12.250
99284W        W71610  31.810  17.460   4.084
99285W        W71611  13.151  32.819   0.945
99286W        W71612   5.491  34.390   3.474
99287W        W71613  37.445  11.131  13.309
99288W        W71614  27.841  32.584   0.208
99289W        W71615  13.879  22.983  13.514
99290W        W71616  28.120  15.406   1.791
99291W        W71617   5.688   6.815   3.808
99292W        W71618  43.263  16.913  10.343
99293W        W71619  20.372  33.712   4.139
99294W        W71620  18.576   1.980   2.346
99295W        W71621  44.374  21.493  14.626
99296W        W71622  15.604  17.748   1.424
99297W        W71623  42.203  13.284  14.570
99298W        W71624  29.704   9.248  13.385
99299W        W71625  27.508  15.219   4.950
99300W        W71626  20.766  27.139   4.551
99301W        W71627  29.201  23.009  13.403
99302W        W71628  44.914  31.704   1.262
99303W        W71629  38.924  41.433  14.480
99304W        W71630  12.282  40.442  11.441
99305W        W71631  10.124   1.343   0.811
99306W        W71632  12.555   8.276  10.999
99307W        W71633  30.999  43.549  11.712
99308W        W71634  32.932   7.042   1.426
99309W        W71635  25.540   2.540  14.802
99310W        W71636  21.998  12.855  11.216
99311W        W71637   5.401   8.770  11.941
99312W        W71638  19.722  25.129   0.420
99313W        W71639  36.683   6.612  14.146
99314W        W71640  26.263  40.595  13.601
99315W        W71641  44.199  22.192   0.387
99316W        W71642  13.872  24.139  12.880
99317W        W71643  34.617  44.940   0.995
99318W        W71644  24.204   0.875   3.912
99319W        W71645   9.148  11.478   0.755
99320W        W71646   8.463  30.533  11.179
99321W        W71647  24.505  10.621  13.156
99322W        W71648  17.723  10.030   3.774
99323W        W71649  39.372   6.454   3.306
99324W        W71650   0.948  16.571   3.014
99325W        W71651  15.131  42.789  12.637
99326W        W71652   0.526  27.091   0.769
99327W        W71653   2.472  11.230  14.498
99328W        W71654  39.783  28.180  12.998
99329W        W71655   6.378  10.699  12.251
99330W        W71656  13.961  24.789   4.539
99331W        W71657  43.950   6.471   4.605
99332W        W71658   8.620  42.570   3.803
99333W        W71659   6.812  12.429  13.454
99334W        W71660  16.160  39.313   0.876
99335W        W71661  30.630  27.935  13.801
99336W        W71662  13.227  17.047  12.943
99337W        W71663   9.725  38.261   4.400
99338W        W71664  17.497   1.845  13.942
99339W        W71665  15.415  39.702   4.010
99340W        W71666  37.286  37.414  11.611
99341W        W71667   6.758  29.388   2.201
99342W        W71668  36.535  25.934   1.621
99343W        W71669  11.691  38.589   4.407
99344W        W71670  41.675  14.247  12.693
99345W        W71671  12.805  42.919  11.395
99346W        W71672  35.883  11.838  14.785
99347W        W71673  12.718   0.768  13.732
99348W        W71674  25.661  37.961   2.809
99349W        W71675  36.532  26.884  13.289
99350W        W71676  11.371  11.063  10.532
99351W        W71677  14.651  13.419  13.324
99352W        W71678  44.743  16.574  10.326
99353W        W71679   6.214  17.322   3.101
99354W        W71680  29.042  22.127   3.484
99355W        W71681  15.528  21.778  11.894
99356W        W71682  42.008   8.717  12.110
99357W        W71683  24.553  37.982  14.867
99358W        W71684  18.711  31.199  11.012
99359W        W71685   7.675  28.611  11.195
99360W        W71686  10.260  25.204  11.903
99361W        W71687   0.725  26.298   5.062
99362W        W71688   5.193  13.407   4.751
99363W        W71689  27.941   1.457  13.028
99364W        W71690   5.684  40.753  14.691
99365W        W71691  14.045  14.235  11.456
99366W        W71692  13.214  43.060   0.270
99367W        W71693  15.329  28.167  13.435
99368W        W71694  34.605  35.011   2.375
99369W        W71695   7.834  10.911   3.667
99370W        W71696  24.649   5.768  12.187
99371W        W71697  33.458  14.017   3.342
99372W        W71698  36.026   8.716  14.537
99373W        W71699   7.842  29.589   1.704
99374W        W71700  18.732  41.257  11.129
99375W        W71701  30.417  40.316   0.996
99376W        W71702  18.949  40.319   2.956
99377W        W71703  16.543  36.907   2.876
99378W        W71704  18.331  29.144   0.305
99379W        W71705  21.249   0.618   2.200
99380W        W71706  29.693  28.631  10.559
99381W        W71707  41.723   5.475   2.696
99382W        W71708  38.957  28.034   0.171
99383W        W71709  34.879  14.354   4.324
99384W        W71710  14.436  36.393  13.463
99385W        W71711  42.532  32.164  12.543
99386W        W71712  41.724  20.227   4.573
99387W        W71713  10.537  29.950   2.809
99388W        W71714  13.246  26.922   2.716
99389W        W71715  44.456   4.252  10.844
99390W        W71716  27.317  12.140  14.362
99391W        W71717  15.717  27.655   2.750
99392W        W71718  29.895  12.862  10.720
99393W        W71719  27.528  44.991  14.332
99394W        W71720  21.977  15.626   0.019
99395W        W71721  23.606  37.141  11.926
99396W        W71722   4.434  19.385   0.225
99397W        W71723  36.129  20.258   2.641
99398W        W71724  43.567  23.019  13.328
99399W        W71725   4.894  24.158   1.926
99400W        W71726  30.068  21.672   3.886
99401W        W71727  10.786   8.828   4.607
99402W        W71728  21.760  34.283   0.748
99403W        W71729  17.684  20.536   3.309
99404W        W71730   7.213  18.161  12.100
99405W        W71731  25.121  44.861   1.286
99406W        W71732  40.284  31.253   0.862
99407W        W71733  21.429   7.159  12.854
99408W        W71734  37.538  13.445   3.734
99409W        W71735  36.571  34.028  13.600
99410W        W71736  28.193  15.537   0.689
99411W        W71737   0.108   2.372   3.685
99412W        W71738  33.092  16.341  12.382
99413W        W71739  17.695  13.745  12.011
99414W        W71740  19.626  39.309  14.676
99415W        W71741  29.672  44.422  13.327
99416W        W71742  13.284  11.347   4.257
99417W        W71743  30.071  19.205  14.012
99418W        W71744   9.368  22.122   4.321
99419W        W71745  41.968  11.677   4.908
99420W        W71746   3.404   1.317   1.703
99421W        W71747  26.034  43.926  10.753
99422W        W71748  23.027   9.145   0.923
99423W        W71749  40.515  16.313   3.230
99424W        W71750  18.589   2.436  14.622
99425W        W71751  29.783  27.344  10.554
99426W        W71752  22.572  37.112  11.630
99427W        W71753  27.156  26.067  12.817
99428W        W71754   8.874  23.313   0.902
99429W        W71755  41.385  27.282  12.869
99430W        W71756  24.042  22.553   4.119
99431W        W71757  36.072   8.655   3.140
99432W        W71758  40.586  35.995   2.958
99433W        W71759  13.657  34.854  12.073
99434W        W71760  44.152  14.128   5.074
99435W        W71761  12.183   7.915   3.650
99436W        W71762  21.606  36.404   1.934
99437W        W71763  27.873   3.386  11.548
99438W        W71764  32.723  38.602   1.695
99439W        W71765  27.082  26.808   2.415
99440W        W71766  17.095  28.951  14.918
99441W        W71767   1.254  21.780   5.101
99442W        W71768  15.989   0.636   4.065
99443W        W71769  32.397  36.436   1.758
99444W        W71770   3.737  29.710  12.460
99445W        W71771  14.784  34.801   2.405
99446W        W71772  24.769  16.206  12.060
99447W        W71773  44.346   2.918  12.730
99448W        W71774  17.549  20.323  12.454
99449W        W71775  15.022  40.718   4.158
99450W        W71776   9.271  38.095  12.115
99451W        W71777  17.925  16.079  13.348
99452W        W71778   6.942   4.755   2.828
99453W        W71779  24.395  27.937  10.762
99454W        W71780  43.610   0.097   0.890
99455W        W71781  15.053  40.975  11.923
99456W        W71782  38.890   9.926   2.784
99457W        W71783  20.619  32.796   4.108
99458W        W71784  28.537  36.441  12.920
99459W        W71785  17.288  19.108   1.883
99460W        W71786  41.798  14.294  10.799
99461W        W71787  30.629  28.641   1.956
99462W        W71788  25.632  19.098   3.482
99463W        W71789  36.094  18.644  11.156
99464W        W71790  28.493  44.800  11.446
99465W        W71791   5.255  26.638  12.573
99466W        W71792  34.536  36.904  12.920
99467W        W71793  11.995  20.306   4.153
99468W        W71794   2.625  29.178   2.805
99469W        W71795  25.047  25.458  13.739
99470W        W71796  29.718  40.978  10.971
99471W        W71797   6.032   5.483   2.730
99472W        W71798   7.743  14.424  11.137
99473W        W71799  40.876  11.441   2.672
99474W        W71800  43.726  32.394   3.755
99475W        W71801  41.605  31.249  10.325
99476W        W71802  44.339  14.735   3.609
99477W        W71803  33.248  38.097  14.356
99478W        W71804  35.436  15.749   0.212
99479W        W71805   8.853  27.307  13.319
99480W        W71806  38.346  44.479   1.090
99481W        W71807  37.810  28.260   4.145
99482W        W71808  36.782   4.349   3.052
99483W        W71809  40.697   0.161  11.990
99484W        W71810  12.548  31.377  13.985
99485W        W71811   8.024  12.262  12.118
99486W        W71812  14.340  17.474  11.558
99487W        W71813  36.826  18.709   0.469
99488W        W71814  38.048   9.353   1.260
99489W        W71815  31.360  32.400   2.442
99490W        W71816  35.416  18.071  11.492
99491W        W71817   9.682  26.542  11.408
99492W        W71818  18.731  12.819   0.428
99493W        W71819  30.078  18.815   4.580
99494W        W71820  42.826  39.927   3.215
99495W        W71821   2.150  44.072  13.105
99496W        W71822   5.882  35.606   1.288
99497W        W71823  14.856  41.856   4.344
99498W        W71824   7.926   7.919  10.661
99499W        W71825  20.753  33.200  14.003
99500W        W71826   8.883  17.687   0.284
99501W        W71827   0.557  18.516  11.099
99502W        W71828   4.766  14.673  12.950
99503W        W71829  42.595  41.631   0.523
99504W        W71830   2.714  27.714   3.223
99505W        W71831  33.680  44.456  12.035
99506W        W71832  22.068   4.922   3.851
99507W        W71833  22.767  24.933  13.513
99508W        W71834  24.030  32.843   2.300
99509W        W71835  14.788   4.671  14.863
99510W        W71836  29.645  37.790   3.542
99511W        W71837  16.560   0.715   2.237
99512W        W71838   4.772  30.892   3.709
99513W        W71839  22.668  19.696  11.169
99514W        W71840  25.482  20.444   3.273
99515W        W71841  28.465  23.882  10.842
99516W        W71842  16.649  39.924   3.375
99517W        W71843  10.731  19.678   3.503
99518W        W71844  36.130  39.614   4.277
99519W        W71845  27.189  37.616  12.372
99520W        W71846  37.428  36.102  14.267
99521W        W71847  14.759  16.114  14.085
99522W        W71848  33.413  38.725  12.548
99523W        W71849  39.513  42.183   3.688
99524W        W71850  35.576   9.777  12.343
99525W        W71851  11.801  15.668   1.928
99526W        W71852  27.796   1.493   2.206
99527W        W71853  27.144  34.372  10.646
99528W        W71854  24.195   9.351  14.252
99529W        W71855  31.004  34.978   4.223
99530W        W71856   5.192  20.199   0.731
99531W        W71857   0.001  34.021   0.566
99532W        W71858  25.167  41.597   1.971
99533W        W71859  32.465  26.582   3.342
99534W        W71860  38.090  14.816  11.527
99535W        W71861  24.264  36.116  12.999
99536W        W71862   8.829   2.043  11.455
99537W        W71863  12.377  16.229  13.490
99538W        W71864   0.804  12.295   4.612
99539W        W71865  37.185  28.838  11.615
99540W        W71866   6.163   2.392  12.826
99541W        W71867   3.311  28.462  14.997
99542W        W71868  17.594   6.379  13.814
99543W        W71869  16.100  31.907   0.090
99544W        W71870  40.995  28.478  11.219
99545W        W71871   2.210   9.973   5.096
99546W        W71872   5.751  12.171  13.476
99547W        W71873  40.284   7.115  12.217
99548W        W71874  37.910   0.396   0.855
99549W        W71875   3.644  15.613   0.791
99550W        W71876   1.875  26.577   1.108
99551W        W71877  43.768  22.024   1.404
99552W        W71878   0.182  34.869   1.775
99553W        W71879  20.094  18.419   0.231
99554W        W71880  24.165  19.765  14.358
99555W        W71881  38.751  12.496   3.853
99556W        W71882  24.756  20.617  10.644
99557W        W71883  16.531  31.886   2.113
99558W        W71884  17.061  44.623   5.136
99559W        W71885  10.895  39.021   1.179
99560W        W71886  14.586   0.307   1.022
99561W        W71887  26.559  36.867  14.526
99562W        W71888  10.861  24.627   3.629
99563W        W71889  33.114  26.061  13.947
99564W        W71890  10.060  13.897  14.319
99565W        W71891  36.126   9.757   4.879
99566W        W71892  10.838   0.761   4.709
99567W        W71893  13.546  12.849   3.615
99568W        W71894  11.592  40.941   0.429
99569W        W71895  28.122  12.142   4.260
99570W        W71896  22.839  29.126   3.333
99571W        W71897  17.114  24.573  10.576
99572W        W71898  37.100  20.114   0.193
99573W        W71899  37.588   5.214   0.495
99574W        W71900  31.199  24.130   2.500
99575W        W71901  34.983  32.378   3.711
99576W        W71902  11.079   3.507  11.682
99577W        W71903  17.045  30.583  10.713
99578W        W71904  42.245  18.010  12.478
99579W        W71905  23.592  20.521   4.244
99580W        W71906  37.557  15.859  10.259
99581W        W71907  29.049  34.870   4.343
99582W        W71908  10.068  38.934  11.603
99583W        W71909  16.519  34.061   3.844
99584W        W71910  29.374   8.197   1.443
99585W        W71911  16.730  43.882  14.265
99586W        W71912  42.787  13.739   1.283
99587W        W71913   1.803  20.366  11.493
99588W        W71914   3.744  20.328   4.632
99589W        W71915  13.787  15.599  13.277
99590W        W71916  41.958   5.414   3.949
99591W        W71917  11.542   4.806   4.285
99592W        W71918   2.274  33.381  13.934
99593W        W71919  37.863  10.212   0.361
99594W        W71920  43.210  30.963  14.876
99595W        W71921  42.921  17.685  11.765
99596W        W71922  27.833  29.687   2.178
99597W        W71923   8.241  15.701   3.571
99598W        W71924   3.848  31.527  14.879
99599W        W71925   8.256  14.413   3.854
99600W        W71926  42.381  20.462   2.351
99601W        W71927  32.247  42.247  12.580
99602W        W71928  18.168  17.350   3.885
99603W        W71929  13.516   9.117  11.505
99604W        W71930   0.224   1.101   3.222
99605W        W71931  32.067  38.741  13.091
99606W        W71932  13.636  21.467   2.883
99607W        W71933  38.849  33.763   9.921
99608W        W71934  33.621  41.041   2.209
99609W        W71935   8.362  17.390   0.486
99610W        W71936  22.120  22.115  10.565
99611W        W71937   8.665  41.035  14.943
99612W        W71938  27.484  11.809   0.469
99613W        W71939  11.510  35.905   0.914
99614W        W71940  18.614  29.532  14.731
99615W        W71941  12.201  37.041  12.276
99616W        W71942  11.866  13.283  12.639
99617W        W71943  26.401   5.142   4.642
99618W        W71944   6.143  17.284   2.436
99619W        W71945  44.458  44.231  14.006
99620W        W71946   2.687  27.794   0.424
99621W        W71947  19.494  11.870  11.163
99622W        W71948  27.526  33.346  11.353
99623W        W71949  10.229  38.643  13.068
99624W        W71950  19.393  13.691   2.063
99625W        W71951  17.135  32.130   1.347
99626W        W71952  17.240  29.034  11.119
99627W        W71953  41.546  18.856  13.178
99628W        W71954  12.565  35.783   4.299
99629W        W71955  16.780  26.093  11.341
99630W        W71956  35.024  10.174   0.947
99631W        W71957  31.197  19.536   1.663
99632W        W71958  30.533  32.155   1.523
99633W        W71959  13.935  34.402   0.554
99634W        W71960  30.054  37.764  13.382
99635W        W71961  11.318  13.354   2.669
99636W        W71962  43.331  34.165   2.770
99637W        W71963  38.268   4.262   1.627
99638W        W71964  27.705  18.018  12.017
99639W        W71965   4.471  35.549   3.535
99640W        W71966  34.412  30.507   4.848
99641W        W71967  25.561   0.875   4.141
99642W        W71968  14.730  22.920  11.565
99643W        W71969  29.878  41.342  13.545
99644W        W71970  15.831  40.810   2.654
99645W        W71971   5.143  43.906   2.349
99646W        W71972  26.969   2.649   1.964
99647W        W71973  23.118  25.499  10.651
99648W        W71974  39.574  37.667   4.137
99649W        W71975  42.317  26.966   4.611
99650W        W71976  23.692  11.884  10.919
99651W        W71977  20.834   3.919   3.067
99652W        W71978  38.287  29.505   4.117
99653W        W71979  42.783   3.713  14.524
99654W        W71980  13.011  34.423  12.477
99655W        W71981  42.742   0.508   3.722
99656W        W71982  19.115  28.137   0.993
99657W        W71983  17.003  16.225  10.709
99658W        W71984  20.218  14.565  10.829
99659W        W71985   3.086   5.254   4.009
99660W        W71986  14.208  10.102   3.687
99661W        W71987  21.247   2.003  11.951
99662W        W71988  27.988  12.668  10.798
99663W        W71989  12.890  26.556  13.964
99664W        W71990  18.704   0.008  10.637
99665W        W71991  12.295  27.969   4.715
99666W        W71992  38.136  38.876  10.949
99667W        W71993  31.851  26.793   4.911
99668W        W71994  23.122  32.435  13.884
99669W        W71995  16.662  15.340  12.928
99670W        W71996   6.219   3.140  13.415
99671W        W71997  13.039  28.384   1.404
99672W        W71998  39.512  30.474  10.440
99673W        W71999  43.252   1.185   0.697
99674W        W72000  44.918   7.965   1.864
99675W        W72001   0.376  38.531   0.901
99676W        W72002   9.315  42.776  14.278
99677W        W72003  12.778  22.466  14.833
99678W        W72004   2.338  41.096   2.380
99679W        W72005  30.056   4.002  13.252
99680W        W72006  24.641   4.294   1.770
99681W        W72007  43.281  30.459  14.308
99682W        W72008  31.638  19.678  13.290
99683W        W72009   4.832  18.622   1.791
99684W        W72010  14.152  26.462   2.627
99685W        W72011   2.172  31.621  14.938
99686W        W72012  17.013  32.551   1.637
99687W        W72013  43.762  11.236   3.623
99688W        W72014  11.204   4.370  10.630
99689W        W72015   2.389  24.255   4.196
99690W        W72016   3.800  21.458   0.828
99691W        W72017   7.410   9.651   2.302
99692W        W72018   8.432  21.615  11.172
99693W        W72019   0.251   9.712  11.652
99694W        W72020  38.869  41.871   2.716
99695W        W72021  23.055  31.598   0.224
99696W        W72022  39.372   7.705   2.640
99697W        W72023  29.048  12.295  12.049
99698W        W72024  31.154   0.934  12.016
99699W        W72025   1.648  27.030   1.246
99700W        W72026   0.251  44.481   4.072
99701W        W72027  39.095  43.567  13.952
99702W        W72028   1.978  32.939  14.822
99703W        W72029  29.985  33.625  10.933
99704W        W72030  25.069  21.247  13.613
99705W        W72031  15.774  43.354   1.923
99706W        W72032  21.606  22.724   4.084
99707W        W72033  30.692  13.812  11.681
99708W        W72034  21.231  21.283   1.821
99709W        W72035  15.106  10.679   1.592
99710W        W72036  31.963  38.606   0.935
99711W        W72037   2.219   0.326  12.439
99712W        W72038  40.518  13.400  12.762
99713W        W72039  17.105   6.229   3.292
99714W        W72040  30.221  39.427  11.919
99715W        W72041  33.499  10.752   0.155
99716W        W72042  39.406  14.693   0.888
99717W        W72043  19.720  19.561   0.890
99718W        W72044  19.651  39.235  13.316
99719W        W72045  30.600  37.026  10.729
99720W        W72046  37.694  12.738   9.749
99721W        W72047  27.360   6.717  14.395
99722W        W72048   9.102   5.780   3.621
99723W        W72049  25.179  11.815   5.209
99724W        W72050   1.814  43.005   0.280
99725W        W72051  32.765   7.918   4.569
99726W        W72052  21.128  24.275  10.602
99727W        W72053  10.908   0.898   4.197
99728W        W72054  43.015   5.167   3.157
99729W        W72055  10.876  40.324   2.885
99730W        W72056  26.485  14.369   4.203
99731W        W72057  40.456  24.575  10.810
99732W        W72058  27.158  18.062  11.930
99733W        W72059  19.847   2.413   3.796
99734W        W72060  27.169  15.015   4.594
99735W        W72061   8.303  44.931   0.992
99736W        W72062   4.082  29.385   1.850
99737W        W72063  14.353  42.275   4.929
99738W        W72064   6.500  31.875  13.005
99739W        W72065  24.297  44.315   3.892
99740W        W72066  12.611  37.109   4.237
99741W        W72067   2.655  22.534   1.803
99742W        W72068  35.002  39.897   2.084
99743W        W72069   9.246  32.182   4.225
99744W        W72070  27.779   2.948   2.282
99745W        W72071   0.233   4.539  11.098
99746W        W72072  13.173   0.954  11.154
99747W        W72073  40.280  33.448  12.185
99748W        W72074  14.718  43.178   3.813
99749W        W72075  40.645   3.094   4.831
99750W        W72076  23.546  23.737   0.389
99751W        W72077   1.602  44.509  13.280
99752W        W72078  23.530  37.443   3.101
99753W        W72079  18.903  23.898  12.518
99754W        W72080  30.523  41.751   0.037
99755W        W72081   3.276   7.700   3.771
99756W        W72082  43.373  35.928   0.806
99757W        W72083   9.320  39.861   4.031
99758W        W72084  18.598  40.072   1.305
99759W        W72085   2.356  43.762   3.707
99760W        W72086  22.527   5.450  14.067
99761W        W72087  32.976  40.992  12.412
99762W        W72088  44.320  40.643   3.197
99763W        W72089  38.969   8.412  14.317
99764W        W72090   8.902  10.224  12.377
99765W        W72091   6.690  12.845   1.768
99766W        W72092   6.424  17.771   2.331
99767W        W72093  12.212  19.114   4.738
99768W        W72094  29.069  12.258   2.706
99769W        W72095  23.661  30.719  13.564
99770W        W72096  18.473   7.718  14.702
99771W        W72097  13.825  18.016  10.938
99772W        W72098  42.468  30.014   2.243
99773W        W72099   4.336   8.607  14.467
99774W        W72100  11.938  35.843   4.640
99775W        W72101   5.945   8.889  13.319
99776W        W72102  34.156  15.283   1.324
99777W        W72103  28.717   7.307  13.315
99778W        W72104  36.367  14.054   2.379
99779W        W72105  25.076  32.446   4.935
99780W        W72106   9.817  34.739   4.462
99781W        W72107  26.471  44.010   4.120
99782W        W72108   5.253  25.852   2.801
99783W        W72109  44.205  38.414  11.540
99784W        W72110  27.004   5.341  14.933
99785W        W72111  12.146   2.032   3.110
99786W        W72112  29.932   8.235   2.237
99787W        W72113  40.457   9.754   0.642
99788W        W72114  36.324   0.799  13.415
99789W        W72115   6.870  28.916   3.705
99790W        W72116  41.766  17.616   4.158
99791W        W72117  12.193  31.948  14.965
99792W        W72118  41.428  28.970   3.226
99793W        W72119  41.813  40.947   2.004
99794W        W72120  40.994  40.323  13.049
99795W        W72121  36.879  43.556  13.442
99796W        W72122   3.494  21.044  13.201
99797W        W72123  32.774  14.849   0.422
99798W        W72124  34.149  27.630  11.009
99799W        W72125  23.880  18.678   4.063
99800W        W72126  40.600  30.449   1.429
99801W        W72127  26.163  41.979   2.275
99802W        W72128  37.475  41.228  10.001
99803W        W72129   4.310  35.256  12.724
99804W        W72130  22.732  29.706  14.321
99805W        W72131  17.988  10.209  13.285
99806W        W72132  12.512  28.103  12.449
99807W        W72133   2.243  11.174   2.257
99808W        W72134  33.509  22.228  14.943
99809W        W72135   8.692  14.137  14.903
99810W        W72136  12.093  34.762   4.941
99811W        W72137  23.644  29.060  12.068
99812W        W72138  18.615   1.431   0.313
99813W        W72139   3.777  15.052   2.511
99814W        W72140  15.994  34.708  11.975
99815W        W72141  43.348  20.273   3.276
99816W        W72142  22.905  18.310   1.464
99817W        W72143  44.661  20.244  13.957
99818W        W72144  10.116  43.555   3.219
99819W        W72145  39.030  17.317  10.512
99820W        W72146  42.636  41.405  13.594
99821W        W72147  31.365  39.685   3.279
99822W        W72148  28.391   9.670   3.215
99823W        W72149  22.968   1.002   1.526
99824W        W72150  15.649  44.312   4.120
99825W        W72151  19.858  10.173  13.485
99826W        W72152   6.957  30.930   2.382
99827W        W72153   7.309  32.005   0.734
99828W        W72154  43.564  24.130  12.504
99829W        W72155  28.077  41.319   1.159
99830W        W72156  35.503  27.954  10.778
99831W        W72157  35.952  20.984   4.113
99832W        W72158  18.014  20.320   1.693
99833W        W72159  29.462  36.030  13.147
99834W        W72160  37.449   6.770   1.692
99835W        W72161  43.879  39.542   1.625
99836W        W72162  17.964   7.723  14.766
99837W        W72163   7.776   5.386  10.550
99838W        W72164  13.143  40.981   0.224
99839W        W72165   5.853  44.753   3.653
99840W        W72166  20.887  29.007   3.137
99841W        W72167  15.325  38.345  14.732
99842W        W72168   8.181   4.395   2.385
99843W        W72169  41.870  35.593  11.145
99844W        W72170  13.774  38.779   3.647
99845W        W72171   2.882  39.364   0.460
99846W        W72172   7.406  26.955   2.319
99847W        W72173  25.278  36.333   0.080
99848W        W72174  31.041  37.028  11.060
99849W        W72175   8.473   6.885   4.556
99850W        W72176  40.244   3.146  11.885
99851W        W72177  28.663  15.721  13.018
99852W        W72178  22.046  44.389  11.566
99853W        W72179   9.714   9.767   3.739
99854W        W72180  19.843  10.875   3.074
99855W        W72181   2.559  19.186   2.118
99856W        W72182  43.880   1.172  13.057
99857W        W72183  18.017   6.375   3.154
99858W        W72184  44.496  22.110   4.689
99859W        W72185  12.751  16.152  10.257
99860W        W72186  36.387   7.763   2.055
99861W        W72187  33.390  15.630  11.137
99862W        W72188  19.087  32.622   0.814
99863W        W72189  17.252   0.952  11.175
99864W        W72190  11.183   7.924  10.867
99865W        W72191  37.846  40.885   4.468
99866W        W72192  10.634  30.324   1.922
99867W        W72193  21.298  23.162  11.963
99868W        W72194  11.726   2.449  13.266
99869W        W72195  23.648  13.563   0.340
99870W        W72196  33.979  23.359   0.415
99871W        W72197  17.096  42.793   0.248
99872W        W72198  10.670   3.939   2.740
99873W        W72199  35.375  21.806  10.754
99874W        W72200  32.917  12.001   4.198
99875W        W72201   3.672  37.518  11.664
99876W        W72202  44.006  13.236   2.613
99877W        W72203  27.375  41.084  11.949
99878W        W72204  42.005  10.807  13.851
99879W        W72205  14.840  29.622   3.213
99880W        W72206  12.582  16.404  13.002
99881W        W72207  35.520  19.192   3.704
99882W        W72208  20.241   7.163   2.915
99883W        W72209   4.227  28.744   0.309
99884W        W72210  26.749  20.677  11.556
99885W        W72211  21.500   9.209   2.809
99886W        W72212  21.752   2.473  13.849
99887W        W72213   3.603  38.068   0.176
99888W        W72214  41.713  25.624   3.743
99889W        W72215  16.711   2.701   3.327
99890W        W72216  37.092  12.804   4.081
99891W        W72217   1.021  27.574   4.588
99892W        W72218  21.680  34.556   2.313
99893W        W72219  10.796  36.392   0.025
99894W        W72220  34.781  15.776   1.938
99895W        W72221  38.803  11.350   1.031
99896W        W72222  39.356  42.300   2.312
99897W        W72223  13.495  22.538  11.074
99898W        W72224  31.914  17.510   2.838
99899W        W72225   3.922  34.399   1.351
99900W        W72226  13.598  23.884   0.010
99901W        W72227  21.314  28.501  11.363
99902W        W72228  24.877  14.954   0.547
99903W        W72229  20.794  23.123  11.963
99904W        W72230  44.732  16.093   2.808
99905W        W72231  18.050  35.625  14.421
99906W        W72232  10.096  30.259  12.088
99907W        W72233  29.642   6.309   0.292
99908W        W72234  43.075  24.081  11.210
99909W        W72235  24.056  13.712   1.288
99910W        W72236   6.802  39.048  11.625
99911W        W72237  26.498  34.803  14.427
99912W        W72238   1.723  21.982  14.444
99913W        W72239  17.183   0.502   1.873
99914W        W72240  39.513  13.303  12.795
99915W        W72241  44.898  43.346  13.784
99916W        W72242   2.904  37.399  13.971
99917W        W72243  39.068  39.016  10.448
99918W        W72244  10.461  22.243  13.016
99919W        W72245   3.286   2.304   0.277
99920W        W72246  17.829  31.192  11.107
99921W        W72247   2.398  16.321  10.587
99922W        W72248  21.987   6.838  13.550
99923W        W72249  43.227  29.416  14.068
99924W        W72250   6.413  21.101   1.855
99925W        W72251  27.586  42.081  13.291
99926W        W72252  26.262  26.338  11.091
99927W        W72253  26.576   9.247  13.886
99928W        W72254  34.010  17.989   0.513
99929W        W72255   5.748  21.598   3.762
99930W        W72256  41.434  35.965   2.364
99931W        W72257  20.311  25.722  10.311
99932W        W72258  24.858  28.480   2.831
99933W        W72259  39.519  10.865  10.920
99934W        W72260  18.186  32.413  12.995
99935W        W72261  25.493   0.117   0.091
99936W        W72262  42.835  42.486   0.016
99937W        W72263  17.887  22.035  14.594
99938W        W72264  36.519  26.204  11.885
99939W        W72265  39.062  33.437   2.122
99940W        W72266   9.371  21.278  10.872
99941W        W72267  44.987  29.400   1.670
99942W        W72268  17.879  38.039  14.409
99943W        W72269   5.294  16.392   2.669
99944W        W72270   7.894  35.576  12.022
99945W        W72271  16.644   4.153   2.834
99946W        W72272  36.069  10.662   5.080
99947W        W72273  16.357  37.027  10.488
99948W        W72274   3.992  27.354   1.403
99949W        W72275  13.607   3.604  14.812
99950W        W72276  10.941  42.539   1.084
99951W        W72277  39.474  17.310  11.367
99952W        W72278  21.311  36.594   3.198
99953W        W72279  27.471   4.396   2.566
99954W        W72280  32.668   7.321  12.541
99955W        W72281  44.026  43.325   0.358
99956W        W72282  43.349  23.642   4.756
99957W        W72283  33.384   4.248   0.457
99958W        W72284  22.490  31.440   0.025
99959W        W72285  16.110   5.875  11.902
99960W        W72286  35.601  38.546   3.613
99961W        W72287  29.582   9.709  10.925
99962W        W72288  25.077  29.182   2.400
99963W        W72289  28.228  38.125   0.516
99964W        W72290  14.110  43.418   3.195
99965W        W72291  30.712  41.951  14.006
99966W        W72292   8.382  38.492   0.914
99967W        W72293  25.094  27.454   1.273
99968W        W72294  37.888  41.256   5.063
99969W        W72295  31.177  10.023  11.138
99970W        W72296  24.694  32.705   0.968
99971W        W72297  35.091   7.692   0.226
99972W        W72298  43.751  37.019  11.970
99973W        W72299   0.373  13.346   1.044
99974W        W72300  29.007  18.086  13.675
99975W        W72301  33.037  18.960  11.667
99976W        W72302  11.927  28.723  12.417
99977W        W72303   5.635  12.119   4.725
99978W        W72304  10.854  24.021  10.644
99979W        W72305  19.112  25.637   1.638
99980W        W72306  19.177  20.238   4.149
99981W        W72307  24.047  33.389  11.509
99982W        W72308  26.154  40.472   3.208
99983W        W72309   4.094   1.920  14.025
99984W        W72310  44.749  16.776  13.846
99985W        W72311  40.013  42.367  10.566
99986W        W72312  16.130   6.629   2.172
99987W        W72313  29.750  44.436  10.218
99988W        W72314  28.090  35.335   2.957
99989W        W72315  19.574  19.223   4.744
99990W        W72316  41.505   7.213   3.566
99991W        W72317  33.926  11.790  12.006
99992W        W72318  13.263   3.801   2.142
99993W        W72319  43.200  29.494  14.598
99994W        W72320  19.187  20.668  12.693
99995W        W72321  32.194  20.212   0.809
99996W        W72322   7.836   9.943   0.370
99997W        W72323   3.052  32.069   4.276
99998W        W72324  14.700  10.420   0.287
99999W        W72325  24.195  36.590  13.544
    0W        W72326  12.850  25.172   1.567
    1W        W72327  40.433  36.812   1.571
    2W        W72328   9.693   3.985   2.911
    3W        W72329  43.321  37.395   2.422
    4W        W72330  38.090  22.966   1.511
    5W        W72331  40.882  42.358  13.795
    6W        W72332   0.934   1.825   2.687
    7W        W72333  21.568   5.417  14.115
    8W        W72334  16.629  29.533  14.312
    9W        W72335  19.656  26.027   5.217
   10W        W72336  43.766  20.924   3.809
   11W        W72337  13.824  38.221  11.716
   12W        W72338  33.373  19.858  10.312
   13W        W72339  10.922  44.028  13.461
   14W        W72340  17.161   9.671  14.975
   15W        W72341  13.580  20.566   2.693
   16W        W72342   7.272  44.645   4.651
   17W        W72343  29.587  35.181  14.787
   18W        W72344  23.609  34.091   4.253
   19W        W72345  15.345  11.151  12.420
   20W        W72346   2.327  35.834  13.520
   21W        W72347  42.614   1.282   4.179
   22W        W72348  23.763  11.124  14.028
   23W        W72349  19.585   8.847   1.004
   24W        W72350  44.685   3.899   4.344
   25W        W72351  24.084  40.044   4.722
   26W        W72352   4.244  16.369   0.011
   27W        W72353  11.141  34.344  13.598
   28W        W72354  29.454   6.498  10.690
   29W        W72355  21.464  15.225  14.030
   30W        W72356  32.070  34.903  12.101
   31W        W72357   8.339  28.961  12.974
   32W        W72358   4.706  28.921  10.583
   33W        W72359  38.804  41.049  13.465
   34W        W72360  10.070  30.581  12.487
   35W        W72361   0.076  19.231   2.360
   36W        W72362  31.433  25.817   4.221
   37W        W72363  41.780   4.610   2.400
   38W        W72364  19.692  17.611   2.330
   39W        W72365   3.744   9.729  14.797
   40W        W72366   2.470   2.702   4.694
   41W        W72367  42.363  42.181   1.288
   42W        W72368   9.107  37.928  10.666
   43W        W72369  36.641   6.599   1.895
   44W        W72370  34.550  32.845  11.245
   45W        W72371   3.846   6.749  12.132
   46W        W72372  27.450  13.297   0.452
   47W        W72373  42.279  18.070   2.697
   48W        W72374  11.376  30.031  12.385
   49W        W72375   7.130  43.873   1.959
   50W        W72376  25.860   6.756   4.884
   51W        W72377  25.687  13.730   4.226
   52W        W72378  41.357  40.755  14.664
   53W        W72379  24.300  36.985  11.557
   54W        W72380  33.331  20.736   1.441
   55W        W72381   0.977  34.647   4.031
   56W        W72382  15.147  23.778  14.450
   57W        W72383  10.381  18.215   4.539
   58W        W72384  27.574   9.751  11.215
   59W        W72385  22.174  32.898   0.545
   60W        W72386  41.930  20.651   3.198
   61W        W72387   2.013   6.664   2.710
   62W        W72388  32.113  34.133  11.385
   63W        W72389  23.204  24.552   3.949
   64W        W72390  17.102  36.469  14.546
   65W        W72391  19.244  18.919   3.554
   66W        W72392  43.760  15.751   2.804
   67W        W72393  10.928   1.878  11.188
   68W        W72394  38.174  21.593   1.731
   69W        W72395  29.808  20.857  11.136
   70W        W72396  17.117  20.782  10.543
   71W        W72397  36.613  12.475   5.222
   72W        W72398  44.809   0.827  10.875
   73W        W72399  40.065   6.953   3.671
   74W        W72400  21.170  19.636   3.277
   75W        W72401   9.089  13.648   2.151
   76W        W72402  26.039  10.345   1.341
   77W        W72403  12.062  33.863   1.776
   78W        W72404  10.801   2.760  13.058
   79W        W72405  16.583  34.831  10.716
   80W        W72406   9.647  42.705  14.928
   81W        W72407   5.372  36.695   0.965
   82W        W72408  33.359  31.884   1.304
   83W        W72409   1.504  16.667  11.203
   84W        W72410   1.391   5.196   0.279
   85W        W72411  35.154  37.114   4.218
   86W        W72412  42.351  31.936   0.804
   87W        W72413  32.099  32.870   0.324
   88W        W72414  21.111   4.177  12.441
   89W        W72415  12.078   6.478  10.758
   90W        W72416   5.350  37.929   0.476
   91W        W72417  20.635  13.594  11.377
   92W        W72418  37.767   1.370   4.158
   93W        W72419  43.892  37.822   3.073
   94W        W72420   8.382  33.076  10.666
   95W        W72421  29.360  44.294  12.944
   96W        W72422  28.081  38.836   4.178
   97W        W72423   3.169  14.826   2.955
   98W        W72424  14.304  36.842  10.861
   99W        W72425  42.501  23.478   0.865
  100W        W72426   5.527  25.221   4.644
  101W        W72427  18.131  21.278   2.305
  102W        W72428  26.571  40.698  14.017
  103W        W72429   5.539  24.056   0.408
  104W        W72430  11.705  33.100  11.097
  105W        W72431  35.951  18.295  14.381
  106W        W72432  20.111  14.858   0.301
  107W        W72433  40.358  14.228   5.074
  108W        W72434   4.650  18.297  11.540
  109W        W72435  42.120  43.516   4.735
  110W        W72436  17.076   8.810   0.861
  111W        W72437   0.203   2.860   3.816
  112W        W72438  27.966  24.592  12.904
  113W        W72439  24.846  18.854  12.833
  114W        W72440  11.451  20.162  11.897
  115W        W72441  30.653  36.780  12.543
  116W        W72442  32.412  24.182  11.145
  117W        W72443  24.811  32.454  12.990
  118W        W72444  29.172  20.276  12.500
  119W        W72445  22.570  30.021  13.274
  120W        W72446  41.347  19.210   1.324
  121W        W72447  18.208   9.939   2.719
  122W        W72448  39.850  19.188   2.207
  123W        W72449   9.190  26.987  10.590
  124W        W72450  21.473  41.081   3.811
  125W        W72451  32.488  18.173  14.055
  126W        W72452  13.342  33.976  14.944
  127W        W72453  35.643  19.013  14.801
  128W        W72454  17.002  13.031  14.856
  129W        W72455  37.623  24.911  10.430
  130W        W72456  29.071  44.706   4.248
  131W        W72457  43.021   7.907   3.115
  132W        W72458  16.213   4.038  14.850
  133W        W72459  13.351   0.174  11.594
  134W        W72460   4.783  23.557   1.185
  135W        W72461  22.106  44.379   0.900
  136W        W72462  31.606   4.365   1.804
  137W        W72463  10.833  30.269  10.497
  138W        W72464  36.908   0.049   1.242
  139W        W72465  32.806   4.531  14.887
  140W        W72466   5.625  43.133  13.889
  141W        W72467   4.236  41.034   3.896
  142W        W72468   7.128  22.504   1.177
  143W        W72469  35.670  32.941   5.105
  144W        W72470  13.685   1.321   3.770
  145W        W72471  41.513  31.604  11.130
  146W        W72472  28.389   5.344   2.588
  147W        W72473  21.083  12.583  14.553
  148W        W72474  18.769   4.834   0.855
  149W        W72475  19.129  27.196   3.573
  150W        W72476  27.723  33.621   4.714
  151W        W72477  29.481  31.010  13.674
  152W        W72478  41.476  29.151  12.290
  153W        W72479   7.678  32.526  11.505
  154W        W72480   4.739   3.473   0.290
  155W        W72481   2.363  11.381   0.366
  156W        W72482  33.030  10.153   1.405
  157W        W72483  18.289  28.775   1.140
  158W        W72484  20.564   1.729  13.147
  159W        W72485  17.219  27.242   1.303
  160W        W72486  12.573  11.718  10.822
  161W        W72487  16.269  20.848  12.433
  162W        W72488  26.435  11.765   1.429
  163W        W72489   6.954  22.831   2.788
  164W        W72490  39.367   7.938   0.849
  165W        W72491   3.040  29.506   4.967
  166W        W72492   1.796  14.581  13.170
  167W        W72493  44.192   3.714  13.005
  168W        W72494  29.061  37.904  12.923
  169W        W72495  35.520  24.243   2.931
  170W        W72496   7.271  23.367  12.825
  171W        W72497  13.827  26.033   2.522
  172W        W72498  39.372  12.382   4.556
  173W        W72499  38.039  24.537   1.688
  174W        W72500  31.101   9.858  11.644
  175W        W72501  13.946  14.285   3.830
  176W        W72502  36.426  43.302  13.427
  177W        W72503  23.964  12.242   4.613
  178W        W72504  43.560   6.738  10.967
  179W        W72505   2.772   2.275   0.374
  180W        W72506  16.117  35.373  13.877
  181W        W72507  24.940   3.711  12.522
  182W        W72508  34.797  35.558  11.995
  183W        W72509   0.927   7.746  14.377
  184W        W72510   6.656  25.147  10.769
  185W        W72511  19.665  11.116   4.194
  186W        W72512  12.723  27.872   5.077
  187W        W72513  39.143   9.997  11.228
  188W        W72514   6.162  25.655  14.945
  189W        W72515  25.516  40.078  10.196
  190W        W72516  13.167  16.172   0.360
  191W        W72517  29.639  31.643  11.460
  192W        W72518  23.060  20.508   0.723
  193W        W72519   9.358  33.114  12.044
  194W        W72520  28.785  31.114  14.945
  195W        W72521  27.943  27.220   0.474
  196W        W72522  33.336   1.311  13.539
  197W        W72523  19.012  43.871  12.126
  198W        W72524  38.481  20.400   3.467
  199W        W72525  40.961  19.032   2.283
  200W        W72526  15.825   7.753  14.260
  201W        W72527  23.144  24.679   3.465
  202W        W72528   2.925   1.759   4.591
  203W        W72529  14.143  16.378   2.858
  204W        W72530  17.980  14.159   2.500
  205W        W72531  35.596   1.507   2.285
  206W        W72532  18.801  10.168  12.379
  207W        W72533  17.583  40.501   2.693
  208W        W72534  26.233  21.370   1.005
  209W        W72535   8.328  23.206   1.674
  210W        W72536   3.687  14.301   2.468
  211W        W72537  41.452  31.054   0.349
  212W        W72538   8.705   1.812  10.175
  213W        W72539  31.379  11.237  13.563
  214W        W72540  30.589   1.807   0.326
  215W        W72541   8.268  34.884   2.374
  216W        W72542  19.892  12.852   0.368
  217W        W72543  29.429  25.376   1.695
  218W        W72544  38.039  19.247   1.744
  219W        W72545  12.352  25.948   0.475
  220W        W72546   4.293   1.159   4.638
  221W        W72547  28.948   9.443  11.867
  222W        W72548  23.640  15.209   1.719
  223W        W72549  42.488  35.401   3.226
  224W        W72550  28.775  11.889  13.153
  225W        W72551  13.307  24.214  12.072
  226W        W72552  13.121  37.543   5.205
  227W        W72553  31.816  42.064   4.223
  228W        W72554  14.091   9.845  12.828
  229W        W72555  31.125   3.353   3.073
  230W        W72556  42.932   2.411   1.719
  231W        W72557  13.977  21.146   4.568
  232W        W72558  42.766  31.784   3.343
  233W        W72559  19.538   2.894  14.478
  234W        W72560  23.684  13.638   2.431
  235W        W72561  26.928  30.158   4.814
  236W        W72562  41.105  25.248   0.726
  237W        W72563  43.348  22.469   0.390
  238W        W72564  15.742  25.765   1.712
  239W        W72565  10.304  11.314  12.891
  240W        W72566  13.802   2.102  11.550
  241W        W72567  41.989   9.918  12.088
  242W        W72568  20.541  23.952   2.396
  243W        W72569   2.619  13.294   0.204
  244W        W72570  17.109  23.009  12.472
  245W        W72571  20.109  36.844  12.640
  246W        W72572  43.063  34.024   4.710
  247W        W72573   5.985  35.027   2.356
  248W        W72574  36.589   0.869   0.938
  249W        W72575  41.730  24.129  12.868
  250W        W72576  15.821  35.197  11.139
  251W        W72577   0.025  22.066   1.995
  252W        W72578  17.714  38.461   0.853
  253W        W72579  12.280  31.582  13.562
  254W        W72580  38.120   7.803   1.268
  255W        W72581  26.015  40.080   1.767
  256W        W72582  21.014  21.735   2.770
  257W        W72583  17.537  17.299   2.188
  258W        W72584  36.903  17.544   2.249
  259W        W72585  34.570  30.861  13.480
  260W        W72586  44.003  32.153   1.400
  261W        W72587  39.925  28.892   0.746
  262W        W72588  44.547  13.789  13.525
  263W        W72589   2.539  24.214   0.483
  264W        W72590  27.994  19.864  12.060
  265W        W72591  17.207  38.866  13.570
  266W        W72592  23.672  16.259   3.309
  267W        W72593  19.180  23.203  14.755
  268W        W72594  28.538  21.166   2.929
  269W        W72595   2.844  33.581   3.311
  270W        W72596  44.248  40.902   3.680
  271W        W72597  20.218  34.952   3.978
  272W        W72598  44.996  36.459   2.349
  273W        W72599  12.361  40.522   0.472
  274W        W72600  24.587  27.798   3.412
  275W        W72601   8.715  18.138  13.098
  276W        W72602  14.834  16.181   3.243
  277W        W72603   3.772  17.265  11.980
  278W        W72604  33.087  14.257   3.620
  279W        W72605   7.051  40.176  11.068
  280W        W72606  23.698  20.145  12.863
  281W        W72607  11.696  30.885   0.289
  282W        W72608   8.332   4.931   3.299
  283W        W72609   8.678  33.943   0.721
  284W        W72610  38.659   9.798  13.099
  285W        W72611  12.681  12.400  13.826
  286W        W72612   2.344  41.621   4.150
  287W        W72613   9.638  37.290  13.688
  288W        W72614  28.496  42.497  14.422
  289W        W72615  43.905  29.652  11.011
  290W        W72616  11.740   4.291  14.852
  291W        W72617   4.279  43.705  14.928
  292W        W72618  41.778  21.108   2.788
  293W        W72619  27.604  32.795  12.913
  294W        W72620  26.007  23.953   2.603
  295W        W72621  21.566  22.163  13.607
  296W        W72622  43.767  41.873   2.643
  297W        W72623  33.455  29.387   0.279
  298W        W72624   8.400   8.112   2.707
  299W        W72625  20.098   3.880  10.521
  300W        W72626  26.177  11.294  10.850
  301W        W72627  29.105  40.705   0.633
  302W        W72628  29.638  33.884  11.663
  303W        W72629  27.572  38.422   1.958
  304W        W72630  34.550   5.956   0.391
  305W        W72631  25.218  44.991   2.160
  306W        W72632   5.383  38.816   3.728
  307W        W72633  16.769  28.865   2.839
  308W        W72634  16.994  41.537  10.788
  309W        W72635  10.337  24.486   4.061
  310W        W72636  23.617   4.737   0.437
  311W        W72637  18.184  39.056  12.616
  312W        W72638  29.089  29.595  12.908
  313W        W72639  13.113  20.042   1.248
  314W        W72640  10.887  19.060  10.621
  315W        W72641  34.878  13.024   3.317
  316W        W72642  23.039  28.084   0.066
  317W        W72643  13.153  10.925   1.298
  318W        W72644   3.814  36.907  12.953
  319W        W72645  39.039   3.338  13.899
  320W        W72646  15.383   7.277  12.916
  321W        W72647   8.769  20.210   3.303
  322W        W72648   4.897  25.914  13.962
  323W        W72649   8.180  23.671   1.342
  324W        W72650  27.158  41.021  11.496
  325W        W72651  13.983   4.726   1.483
  326W        W72652  10.467  38.002  10.252
  327W        W72653  37.943  19.500  11.080
  328W        W72654  11.400  34.310  14.524
  329W        W72655  35.499  34.928   1.200
  330W        W72656   6.934  23.513   3.293
  331W        W72657  14.590  36.550  14.424
  332W        W72658  11.398  44.510   3.480
  333W        W72659  41.289  20.670  14.392
  334W        W72660  13.034   6.019   2.761
  335W        W72661  41.708  15.770  11.444
  336W        W72662  40.551  38.114   0.295
  337W        W72663  29.409  35.916   0.443
  338W        W72664  10.330  39.737   3.157
  339W        W72665   9.635  11.476  11.192
  340W        W72666   6.290  40.303  10.507
  341W        W72667  31.282   5.401  14.503
  342W        W72668  34.963  16.983  13.854
  343W        W72669   6.930  40.362   1.453
  344W        W72670   3.200  31.609   2.160
  345W        W72671  39.281  27.679   0.468
  346W        W72672  35.423  11.793   0.015
  347W        W72673   2.838  15.077  14.281
  348W        W72674  13.104  17.117   0.159
  349W        W72675  41.955  20.460  11.046
  350W        W72676  30.045  24.851  13.928
  351W        W72677  15.375  36.507  11.278
  352W        W72678   3.334  35.423  10.695
  353W        W72679   5.759  33.021   1.769
  354W        W72680   1.257   3.452  13.928
  355W        W72681   3.029  36.400   2.706
  356W        W72682  20.488  39.503   4.810
  357W        W72683  27.664  21.077  14.864
  358W        W72684  31.004  16.884  10.328
  359W        W72685   5.906  22.978  14.937
  360W        W72686  33.350  23.254   0.007
  361W        W72687   6.325  36.861  10.695
  362W        W72688  29.916  41.496   2.053
  363W        W72689   0.814  14.124  13.957
  364W        W72690  41.289  34.950  10.937
  365W        W72691  32.803  17.526  11.515
  366W        W72692  22.020  24.097   1.660
  367W        W72693  22.280  25.653  13.449
  368W        W72694  32.042  12.713   4.501
  369W        W72695   3.023  11.202   0.974
  370W        W72696  44.190  37.838   2.142
  371W        W72697  14.654   1.539  11.590
  372W        W72698  28.704  26.595  14.489
  373W        W72699   5.269  15.188  14.547
  374W        W72700  40.818  36.232  12.600
  375W        W72701  35.206  23.257  12.076
  376W        W72702  15.096  25.496  12.304
  377W        W72703  11.235  43.360   4.564
  378W        W72704  34.358  31.608  12.452
  379W        W72705  20.087   5.129   3.081
  380W        W72706  12.155  13.418   2.426
  381W        W72707  10.218  23.671   3.072
  382W        W72708  39.553   3.489  14.741
  383W        W72709  32.068  30.265  14.952
  384W        W72710  20.497  15.051  12.099
  385W        W72711  20.780  41.765   2.772
  386W        W72712  40.962  29.939   2.706
  387W        W72713  39.339  16.627   1.918
  388W        W72714   5.889  38.936   3.648
  389W        W72715  38.776   0.659  11.162
  390W        W72716  37.221  36.655  12.581
  391W        W72717  20.055  33.876  13.842
  392W        W72718  21.311   4.451   1.785
  393W        W72719  43.882  21.772  11.332
  394W        W72720  38.369  24.095   2.447
  395W        W72721  25.932  19.265   2.778
  396W        W72722  38.245  13.577   9.794
  397W        W72723  28.866  35.432  12.591
  398W        W72724   0.661  14.458  11.467
  399W        W72725  13.154  17.618  14.979
  400W        W72726   2.032  33.345  10.177
  401W        W72727  37.452   3.159   0.331
  402W        W72728   0.492  32.132  12.495
  403W        W72729   3.254  34.176  11.131
  404W        W72730  18.096  23.676  13.497
  405W        W72731  19.529  31.913   1.130
  406W        W72732  42.792  33.067  13.507
  407W        W72733   8.867  10.674   1.517
  408W        W72734  34.919  42.789   2.347
  409W        W72735  19.074  32.577  14.843
  410W        W72736  40.805  43.694  10.811
  411W        W72737  41.288  30.918   3.708
  412W        W72738   6.874   2.265   3.617
  413W        W72739  20.965  41.272  11.895
  414W        W72740  44.421   3.686  14.895
  415W        W72741  30.092  28.114  11.209
  416W        W72742  23.167   6.247   3.970
  417W        W72743   1.562   4.527   4.091
  418W        W72744  40.293  38.852   4.707
  419W        W72745  33.086  26.651  10.649
  420W        W72746  10.251  28.996   3.716
  421W        W72747  35.338  41.297   3.287
  422W        W72748  38.069  40.301   1.296
  423W        W72749   8.923   0.285   3.288
  424W        W72750  35.073  19.516  11.981
  425W        W72751  10.739  24.763  14.959
  426W        W72752  12.193  22.633  11.959
  427W        W72753   4.521   6.953   0.814
  428W        W72754  20.188  40.178  14.836
  429W        W72755  31.129  28.849   1.951
  430W        W72756  27.639  30.178  12.087
  431W        W72757  28.663  33.883  10.771
  432W        W72758  18.213  26.602  10.835
  433W        W72759  38.398  11.607  12.571
  434W        W72760  32.002   2.866   4.477
  435W        W72761   9.401  29.426   0.875
  436W        W72762  32.140  32.130  14.488
  437W        W72763  20.136   1.215  11.957
  438W        W72764  19.101  32.593   1.820
  439W        W72765  31.844  19.649  14.545
  440W        W72766   4.061  32.899   4.635
  441W        W72767   0.341   2.015  11.173
  442W        W72768  40.872   4.362  13.927
  443W        W72769  39.809   8.225  12.646
  444W        W72770  16.685  20.944   1.384
  445W        W72771  17.726  17.459  11.017
  446W        W72772  25.016  11.428  12.888
  447W        W72773  18.978   8.146   4.455
  448W        W72774  25.130  17.691  12.046
  449W        W72775  21.095  25.929   2.818
  450W        W72776   2.516  27.585   1.341
  451W        W72777   7.327  26.991  14.447
  452W        W72778  14.334  19.451  14.592
  453W        W72779  20.229  29.071  13.951
  454W        W72780  39.019   6.806  13.929
  455W        W72781  29.269  18.822  14.385
  456W        W72782  44.419  41.485  14.000
  457W        W72783  23.330  15.298  13.584
  458W        W72784   0.690  40.802  14.071
  459W        W72785   9.530   9.734   4.226
  460W        W72786  15.549   0.480   0.687
  461W        W72787   9.799  20.441  14.068
  462W        W72788  11.326  16.802   4.274
  463W        W72789  38.453  11.416  13.914
  464W        W72790  26.704  11.628   5.178
  465W        W72791  22.677  20.712  12.932
  466W        W72792  29.164   0.764  11.428
  467W        W72793  34.392   7.090   4.189
  468W        W72794  36.339  12.913  11.988
  469W        W72795  41.066  28.693  13.922
  470W        W72796   6.200  31.971  14.942
  471W        W72797  30.650  30.901   1.176
  472W        W72798  34.241  14.036   3.131
  473W        W72799  30.433  12.057   4.463
  474W        W72800  17.903  22.160  11.597
  475W        W72801   5.916  19.256  12.597
  476W        W72802   9.086  43.739  11.996
  477W        W72803  31.313  20.181   3.712
  478W        W72804  15.192  44.039   1.277
  479W        W72805  11.711  34.646   3.371
  480W        W72806  30.366  21.446  12.953
  481W        W72807   9.123  29.410   1.342
  482W        W72808  32.036  29.925  14.254
  483W        W72809   6.653  11.902   1.969
  484W        W72810  32.506  40.266  10.636
  485W        W72811  32.722   7.743   2.020
  486W        W72812  27.405  14.742  10.697
  487W        W72813  11.348  24.188  10.522
  488W        W72814  39.944  13.573  11.554
  489W        W72815  28.057  40.416   9.927
  490W        W72816  12.866  18.990   3.030
  491W        W72817  11.319   9.694   0.332
  492W        W72818  38.179  17.791  14.505
  493W        W72819  10.689  11.206   3.131
  494W        W72820  35.394   3.275   2.257
  495W        W72821   8.367  20.967   0.538
  496W        W72822  40.789   5.794  10.802
  497W        W72823  35.674  30.163   0.798
  498W        W72824  19.634  28.175   4.585
  499W        W72825  25.387  42.764  14.800
  500W        W72826  20.475  44.890  11.112
  501W        W72827   6.162   5.225   2.301
  502W        W72828  20.391  30.901  10.904
  503W        W72829  11.748   7.837  11.468
  504W        W72830  32.702   5.440   3.704
  505W        W72831  15.630  24.469   3.841
  506W        W72832  26.278   8.927  12.628
  507W        W72833  44.008   3.334  10.632
  508W        W72834   4.318   5.037  12.757
  509W        W72835  40.128  34.523   4.498
  510W        W72836   3.802  38.960   4.737
  511W        W72837  20.576  10.440   4.939
  512W        W72838  25.755   4.757   3.799
  513W        W72839  29.459  22.002   0.347
  514W        W72840  12.247  22.541  14.003
  515W        W72841  34.552   1.477  13.155
  516W        W72842  22.967  12.045  11.156
  517W        W72843  39.729   1.771  14.796
  518W        W72844  37.669  32.096  12.478
  519W        W72845   0.305  35.547  14.460
  520W        W72846  39.593  10.364   1.914
  521W        W72847  12.686  17.785  11.159
  522W        W72848   2.883   2.483   2.112
  523W        W72849  34.004  43.948   4.635
  524W        W72850  13.536  44.271  11.208
  525W        W72851  41.868  23.425   2.901
  526W        W72852  10.406  18.333   2.641
  527W        W72853  11.327  29.191  11.990
  528W        W72854  43.891  35.886   0.951
  529W        W72855   8.729  10.327  12.853
  530W        W72856   2.635   0.399   0.340
  531W        W72857  19.677  32.133   0.204
  532W        W72858   6.198  29.630  11.305
  533W        W72859   3.889  11.897  13.413
  534W        W72860  34.499  18.145  12.550
  535W        W72861  19.102  44.726   1.833
  536W        W72862  43.032  17.745  10.729
  537W        W72863  10.244  23.994  11.399
  538W        W72864  40.275  12.206  13.985
  539W        W72865  27.523  39.391   3.547
  540W        W72866  32.897  31.918   3.068
  541W        W72867  26.961  27.234   2.855
  542W        W72868   9.625  18.120  11.309
  543W        W72869  38.486  40.439   4.720
  544W        W72870  17.247  34.140  13.406
  545W        W72871   0.023  37.291   4.234
  546W        W72872  26.647   9.183  10.251
  547W        W72873  25.130  29.142   1.886
  548W        W72874  29.385  11.203  10.955
  549W        W72875  33.567   6.307  11.493
  550W        W72876  44.123  20.641   1.668
  551W        W72877   2.679  24.845   3.560
  552W        W72878  29.590  17.681  12.783
  553W        W72879  20.794   7.927  11.215
  554W        W72880   4.775  29.034   2.363
  555W        W72881  15.210  16.751  10.413
  556W        W72882  12.029  18.530   3.450
  557W        W72883  13.176   0.826   4.211
  558W        W72884   8.813  34.632  10.320
  559W        W72885   9.942  16.194  14.498
  560W        W72886  18.309   7.263   4.248
  561W        W72887  34.124  28.497   4.107
  562W        W72888  11.224   6.969   1.151
  563W        W72889  25.643  22.475  14.849
  564W        W72890  25.065  35.240   0.164
  565W        W72891  27.745  32.628   1.423
  566W        W72892   6.022  11.192   2.368
  567W        W72893  44.037  31.552  11.535
  568W        W72894  43.853  39.592  13.484
  569W        W72895  26.217  23.080   4.118
  570W        W72896  34.887  36.343  12.399
  571W        W72897  26.570  24.379  12.745
  572W        W72898  23.511  38.868  11.625
  573W        W72899  34.709  24.898  11.863
  574W        W72900   1.239  21.597  12.131
  575W        W72901  18.362   7.978   3.727
  576W        W72902  24.145  41.329   4.233
  577W        W72903  24.551  17.002   1.406
  578W        W72904  19.106  25.526  13.824
  579W        W72905  15.128  41.868  11.526
  580W        W72906  44.491  17.567   4.123
  581W        W72907  22.067  14.634  14.802
  582W        W72908   2.033  27.109  12.024
  583W        W72909   8.139  33.531  10.770
  584W        W72910  32.877  31.369   2.377
  585W        W72911  32.257  31.088  12.581
  586W        W72912  15.951   0.785  14.827
  587W        W72913  28.885   0.206   0.734
  588W        W72914  43.808   7.215   0.401
  589W        W72915  40.148  37.099  14.379
  590W        W72916  22.217   0.125   2.082
  591W        W72917   2.827   9.706  10.209
  592W        W72918  20.224   9.843  12.057
  593W        W72919  35.175  27.258  13.811
  594W        W72920  27.158   8.971  13.515
  595W        W72921  32.355   8.916   3.137
  596W        W72922   3.712  21.181  11.507
  597W        W72923   2.775  11.658  14.146
  598W        W72924   0.675  17.141   0.007
  599W        W72925  22.630  41.849  12.630
  600W        W72926  30.502  43.895  13.886
  601W        W72927  42.477  30.649   3.195
  602W        W72928  22.660  22.647   0.493
  603W        W72929  33.503  13.552   3.584
  604W        W72930  34.875  36.423  11.523
  605W        W72931  19.526  23.988   1.756
  606W        W72932   4.667  31.184  11.031
  607W        W72933  29.346   1.801   4.252
  608W        W72934  21.812   5.857   3.083
  609W        W72935  18.091  28.871  11.194
  610W        W72936   3.139   4.970  14.531
  611W        W72937  28.010  16.054   4.642
  612W        W72938  36.535  16.527   4.897
  613W        W72939  12.097   6.179  14.354
  614W        W72940  16.114  36.519  11.041
  615W        W72941  37.591  27.599  13.354
  616W        W72942  23.053   0.448  13.771
  617W        W72943  16.718   8.228   2.794
  618W        W72944  36.467  38.992  10.644
  619W        W72945  13.386  10.765  13.541
  620W        W72946  15.892   6.272   2.637
  621W        W72947   9.363   5.365   4.264
  622W        W72948  43.549   2.717  12.239
  623W        W72949  36.469  23.956   2.152
  624W        W72950  43.470  29.933  11.889
  625W        W72951   3.663  12.346  10.585
  626W        W72952   1.941   4.162  11.030
  627W        W72953   9.321   8.357   3.389
  628W        W72954   3.709   1.422   3.169
  629W        W72955   7.231  28.507   1.450
  630W        W72956  38.634  28.602   4.142
  631W        W72957  29.407  31.204   4.692
  632W        W72958  35.044  37.827   4.974
  633W        W72959  31.130  28.463  11.646
  634W        W72960  38.093   8.792  14.918
  635W        W72961  10.639  28.482  14.356
  636W        W72962  13.280  32.015  13.952
  637W        W72963  37.036  20.964  12.054
  638W        W72964  27.997  28.165   2.324
  639W        W72965   5.823  32.476  14.320
  640W        W72966  29.462  23.252   1.193
  641W        W72967  40.380   6.666  10.646
  642W        W72968   2.976   6.362  14.317
  643W        W72969  13.872  37.874   2.689
  644W        W72970   1.932  25.810   4.561
  645W        W72971  21.571   1.186   1.964
  646W        W72972  23.227  40.779   1.433
  647W        W72973  19.246   1.336  14.419
  648W        W72974  11.354   8.301  11.831
  649W        W72975  16.847  38.448   1.311
  650W        W72976  18.597   8.682  11.305
  651W        W72977  18.666  27.923   3.708
  652W        W72978  16.032  34.098  13.452
  653W        W72979  44.253  37.420  13.621
  654W        W72980   6.542  33.472  14.894
  655W        W72981  33.999  13.581  10.627
  656W        W72982  38.927   3.609   5.084
  657W        W72983  41.232   9.520   1.530
  658W        W72984   7.069  35.372   3.366
  659W        W72985  20.199   6.812   0.955
  660W        W72986  38.860  31.705   4.136
  661W        W72987  27.584   6.930  12.530
  662W        W72988  19.678   8.210  11.551
  663W        W72989  30.007  21.022  14.921
  664W        W72990  20.010  15.482   1.505
  665W        W72991  41.981  23.616   3.913
  666W        W72992  17.544   5.261  11.071
  667W        W72993  19.800   9.735   0.544
  668W        W72994  36.274  41.832  14.036
  669W        W72995  32.405  37.133   4.202
  670W        W72996  38.932  26.234   0.182
  671W        W72997  25.400  13.225  14.392
  672W        W72998   7.204  17.159  10.408
  673W        W72999  11.422   8.793  14.051
  674W        W73000  19.644  31.109  12.085
  675W        W73001  15.886  28.203  11.474
  676W        W73002  15.614   0.203  12.960
  677W        W73003  35.110  29.610   4.078
  678W        W73004  36.689  42.235   2.819
  679W        W73005   5.638  28.919  10.539
  680W        W73006   9.623  18.978   0.754
  681W        W73007   4.692  19.020  11.999
  682W        W73008  19.530   5.223   3.704
  683W        W73009   2.380  32.145  12.585
  684W        W73010  32.185   5.201   2.226
  685W        W73011  23.546  44.821   0.460
  686W        W73012  12.160  42.308   3.627
  687W        W73013  38.881  28.378  11.583
  688W        W73014  37.236  18.718   4.977
  689W        W73015  10.296  39.162  12.984
  690W        W73016  38.779  24.499   4.193
  691W        W73017  35.546  43.563   3.718
  692W        W73018  18.111  38.378   2.202
  693W        W73019  33.884  22.122  14.505
  694W        W73020  32.888  36.998   4.207
  695W        W73021   2.350  21.337   1.220
  696W        W73022  19.282  33.064  14.809
  697W        W73023   6.717  19.450  11.119
  698W        W73024   5.805  34.695  12.216
  699W        W73025  43.806  30.882   0.437
  700W        W73026  12.311  28.220   3.083
  701W        W73027  44.292  26.225   1.198
  702W        W73028  17.931  25.998  11.853
  703W        W73029  39.292  43.043   2.728
  704W        W73030   4.387  12.129   1.158
  705W        W73031  11.028  24.667  13.998
  706W        W73032   9.168  18.734   4.359
  707W        W73033   8.876  14.755   4.362
  708W        W73034   4.352   6.793  10.850
  709W        W73035  16.709  11.772   1.152
  710W        W73036  23.006  43.898  14.804
  711W        W73037  16.570  30.020  11.756
  712W        W73038  18.137  31.119  11.574
  713W        W73039  28.538  36.912  13.714
  714W        W73040  10.171  21.517  13.350
  715W        W73041  15.100  11.861   3.602
  716W        W73042   7.289   5.223  10.666
  717W        W73043  35.154  22.149   4.304
  718W        W73044  33.845  22.937  13.562
  719W        W73045   4.607  19.604   4.612
  720W        W73046  37.151  14.580   4.581
  721W        W73047  20.737   6.463   1.418
  722W        W73048   3.416  36.543   4.313
  723W        W73049  31.883  10.597  13.283
  724W        W73050  19.166   3.986   1.454
  725W        W73051   9.133  21.185   3.582
  726W        W73052  26.673  35.815   0.747
  727W        W73053  33.128   3.726  12.920
  728W        W73054   3.833  27.191  11.949
  729W        W73055   8.330  37.131   3.088
  730W        W73056  20.823   3.452  14.444
  731W        W73057  16.662  36.626  13.990
  732W        W73058  19.725  18.725   4.729
  733W        W73059  32.414  20.114   2.916
  734W        W73060   6.342   0.727   4.140
  735W        W73061  42.369  23.449   3.066
  736W        W73062   1.680  40.092   0.037
  737W        W73063  10.898  31.922  10.591
  738W        W73064  41.901  24.665   0.819
  739W        W73065   5.771  15.167  14.874
  740W        W73066  37.329  10.445  11.601
  741W        W73067  19.518  44.072  14.399
  742W        W73068  13.579   7.334  11.030
  743W        W73069  27.571  10.838   0.135
  744W        W73070  19.592  18.142  14.317
  745W        W73071  23.971  14.389   4.243
  746W        W73072  15.809  21.050   4.066
  747W        W73073  44.228   2.139  14.965
  748W        W73074  41.298  25.237  13.282
  749W        W73075   0.354  19.533  12.473
  750W        W73076  15.240  29.109   2.956
  751W        W73077  10.661  12.414  13.942
  752W        W73078  39.525  43.295  13.268
  753W        W73079  40.857  23.539   1.290
  754W        W73080   0.443  22.192   2.269
  755W        W73081  28.115  43.406  11.950
  756W        W73082  28.715  13.258   3.215
  757W        W73083  44.946  38.793  11.710
  758W        W73084   5.597   2.289   2.292
  759W        W73085  39.311  19.834  11.081
  760W        W73086  17.577  31.606  12.548
  761W        W73087  19.741  35.457  13.934
  762W        W73088   0.608   9.696   1.461
  763W        W73089  24.580  19.164  10.594
  764W        W73090  42.878   8.637  10.708
  765W        W73091   8.838  13.429   0.726
  766W        W73092  20.164   9.281   0.743
  767W        W73093  18.287  32.809  13.822
  768W        W73094  24.599  17.377  13.546
  769W        W73095   3.673  26.000  12.239
  770W        W73096  10.203   1.814   2.862
  771W        W73097   7.280  42.672  12.446
  772W        W73098  35.886  27.086  10.450
  773W        W73099   5.900  33.374   1.344
  774W        W73100  29.568  34.913   1.520
  775W        W73101   8.817  44.953   1.371
  776W        W73102  27.190  13.242  12.305
  777W        W73103  12.342  17.801   4.123
  778W        W73104  42.713  35.010   0.855
  779W        W73105  19.990   6.904  14.480
  780W        W73106   2.923  36.513   0.719
  781W        W73107  14.059  23.880  14.311
  782W        W73108  41.565  20.004   5.060
  783W        W73109  34.375   1.930  13.978
  784W        W73110  18.212   6.402   4.511
  785W        W73111  18.129  20.535   0.184
  786W        W73112   2.760  34.206  13.389
  787W        W73113   0.510  30.692  14.240
  788W        W73114  43.795  36.481  14.251
  789W        W73115   9.731  39.913  10.561
  790W        W73116  12.275   4.942  10.453
  791W        W73117  40.293  20.456   1.792
  792W        W73118  42.181  23.177  13.120
  793W        W73119  21.176  30.816   3.673
  794W        W73120  38.068  34.540   0.405
  795W        W73121   4.443  33.711   0.796
  796W        W73122   2.313  31.625  12.546
  797W        W73123   1.334  25.512  12.997
  798W        W73124  20.321  44.462  14.426
  799W        W73125  34.058  14.722   1.515
  800W        W73126  38.532  31.668  13.441
  801W        W73127  42.566  12.794  12.134
  802W        W73128  29.986  44.520  14.403
  803W        W73129  16.183   8.429  13.861
  804W        W73130  15.674   6.142  14.467
  805W        W73131  19.049  13.864  11.425
  806W        W73132  11.857  29.876  13.361
  807W        W73133  28.732  24.176   0.166
  808W        W73134  27.157  22.144  11.253
  809W        W73135  38.291  29.326   1.854
  810W        W73136  41.523  41.826  13.057
  811W        W73137  23.127  43.624   3.820
  812W        W73138  31.780  40.997   0.755
  813W        W73139  40.229  36.456  11.585
  814W        W73140  17.583   9.783   4.271
  815W        W73141  31.882  19.509  11.993
  816W        W73142  38.914  24.384  11.603
  817W        W73143  34.902   7.738   4.684
  818W        W73144  28.054  38.433   4.536
  819W        W73145   5.790   9.882  11.391
  820W        W73146   9.349  32.180   2.686
  821W        W73147  20.024  42.301   0.378
  822W        W73148  29.743   1.964  14.303
  823W        W73149   9.798   3.901  10.943
  824W        W73150  33.459  30.384   0.345
  825W        W73151   1.066  40.931  12.159
  826W        W73152  34.222  35.152   0.606
  827W        W73153  30.123   0.549  11.512
  828W        W73154  13.406  23.541   1.308
  829W        W73155  37.247   6.833   2.684
  830W        W73156  44.239  10.876   0.436
  831W        W73157  33.470  28.149   4.520
  832W        W73158  35.821  10.331   3.178
  833W        W73159  29.655   5.153  11.078
  834W        W73160   6.365  17.444   3.633
  835W        W73161  19.417  23.957  12.485
  836W        W73162  28.000  25.473  12.093
  837W        W73163  11.626  28.312  12.488
  838W        W73164   9.876  21.529  13.804
  839W        W73165   9.685   7.147  10.691
  840W        W73166  16.017  17.131   2.421
  841W        W73167   5.296  25.543  10.992
  842W        W73168  36.960   6.353  13.768
  843W        W73169  22.688  11.880   2.776
  844W        W73170  36.378  39.623  13.053
  845W        W73171   7.358  20.584   2.853
  846W        W73172  27.480  15.839   2.251
  847W        W73173  31.879   0.255  14.917
  848W        W73174  17.018  28.008   2.801
  849W        W73175   0.284  21.086  13.769
  850W        W73176  11.075  11.392  13.438
  851W        W73177  42.477  36.693  14.055
  852W        W73178   8.214   1.687   0.459
  853W        W73179   1.979  34.178   2.247
  854W        W73180   0.417   2.225  12.477
  855W        W73181  34.518  27.585   0.082
  856W        W73182   5.944  31.523   0.835
  857W        W73183  19.031  24.742   1.509
  858W        W73184  28.007  13.395  12.597
  859W        W73185  19.685  38.625   1.444
  860W        W73186   4.582  21.650  13.497
  861W        W73187   7.347  42.898   1.002
  862W        W73188  35.560  41.939  12.440
  863W        W73189  32.682  39.123   1.704
  864W        W73190   2.492  14.224   5.088
  865W        W73191  43.467  26.453   2.828
  866W        W73192  28.481  26.167  14.231
  867W        W73193   2.740  19.069   0.833
  868W        W73194  20.723  12.672   2.621
  869W        W73195  14.779  25.110  14.988
  870W        W73196   4.785  11.769   5.055
  871W        W73197  31.683  30.604  10.769
  872W        W73198  16.856  36.836   0.264
  873W        W73199  10.900  26.654   0.009
  874W        W73200   8.277   5.201   2.855
  875W        W73201  26.388  17.471  10.699
  876W        W73202   5.445   7.918   1.348
  877W        W73203   7.364  25.531  14.473
  878W        W73204  11.769  35.285  11.727
  879W        W73205  18.736   0.233   4.264
  880W        W73206  30.096  28.497  11.569
  881W        W73207  42.620  28.153   1.360
  882W        W73208  14.335  44.354  10.551
  883W        W73209  24.482  17.996  14.396
  884W        W73210  30.257  44.707   1.936
  885W        W73211  43.117   6.877  14.752
  886W        W73212  18.296  44.003  13.991
  887W        W73213  22.282   3.435   1.929
  888W        W73214   5.459  26.202   1.757
  889W        W73215  11.133  34.544  14.145
  890W        W73216  36.438  14.902  11.933
  891W        W73217  15.605   0.663  11.451
  892W        W73218  16.474  20.809  11.614
  893W        W73219  28.561  24.547   1.985
  894W        W73220  41.039   5.755   4.224
  895W        W73221  10.547  20.735  12.337
  896W        W73222  19.508  27.046  10.731
  897W        W73223  25.543   7.883  14.545
  898W        W73224  29.600  14.129   4.891
  899W        W73225  29.176   4.721   1.147
  900W        W73226  32.072  22.434  12.458
  901W        W73227  42.252  38.352  11.105
  902W        W73228   7.365  13.738  14.697
  903W        W73229   5.244  20.324  10.759
  904W        W73230  35.833  24.568  14.895
  905W        W73231  28.059  26.517   1.442
  906W        W73232  40.311  23.367  13.772
  907W        W73233   6.685  40.830   0.602
  908W        W73234  31.870   8.677   0.343
  909W        W73235  12.551  44.640  11.194
  910W        W73236  39.545  40.786  11.423
  911W        W73237  11.760   7.277   3.732
  912W        W73238  15.274  30.123  10.745
  913W        W73239  40.476  30.882  10.692
  914W        W73240  37.768  10.342  12.415
  915W        W73241   6.394  37.001  13.045
  916W        W73242  30.992  36.153  14.989
  917W        W73243  15.095  43.637  13.265
  918W        W73244  42.713  26.531   3.568
  919W        W73245  33.986  42.718   1.914
  920W        W73246  13.562   5.821   4.097
  921W        W73247   0.515  11.344   4.334
  922W        W73248  22.078  29.904   4.204
  923W        W73249  37.312  26.042   4.538
  924W        W73250   2.468  28.956   4.586
  925W        W73251  29.762  34.153  10.698
  926W        W73252  10.911  28.576   3.209
  927W        W73253  37.835  28.284  10.766
  928W        W73254  16.609  41.973  13.272
  929W        W73255  17.562  36.533   1.398
  930W        W73256  26.554  23.112  10.672
  931W        W73257   0.816  10.621   1.860
  932W        W73258  22.746  27.669   0.159
  933W        W73259  17.004  42.100  12.923
  934W        W73260  16.035  16.300  11.654
  935W        W73261  39.739  11.303  11.072
  936W        W73262  17.288  35.162   4.654
  937W        W73263  19.189  13.593   4.570
  938W        W73264   5.556  17.631  11.203
  939W        W73265   3.624  39.818  11.748
  940W        W73266  11.405  37.972  11.688
  941W        W73267  42.247  36.454  11.269
  942W        W73268  11.328  22.664  13.300
  943W        W73269  12.377  10.098   1.281
  944W        W73270  12.288   5.289   2.830
  945W        W73271  35.098   4.924   1.081
  946W        W73272   4.744  43.480   1.887
  947W        W73273  16.189  41.506   4.377
  948W        W73274  37.916  24.255   4.197
  949W        W73275  23.017  38.999   4.059
  950W        W73276  13.813  13.603  12.883
  951W        W73277  27.916  16.760  13.409
  952W        W73278  31.531   8.116   3.739
  953W        W73279  19.595   8.145  13.512
  954W        W73280  24.554  27.168   1.926
  955W        W73281   9.203  25.965   2.275
  956W        W73282  31.600  13.622   3.237
  957W        W73283  37.603   0.970  14.834
  958W        W73284  15.329  23.557   3.210
  959W        W73285   7.385  14.781   0.462
  960W        W73286  26.058  39.085  11.149
  961W        W73287  15.552  24.616  12.068
  962W        W73288   5.370  34.661   1.299
  963W        W73289  14.285  35.870  13.883
  964W        W73290  29.074  22.754  14.877
  965W        W73291   1.197   4.179  11.503
  966W        W73292  29.983  11.623  12.469
  967W        W73293  25.281   8.293   0.971
  968W        W73294  44.901  23.977  12.087
  969W        W73295   1.507   3.223  12.482
  970W        W73296  35.729  36.048   4.582
  971W        W73297  26.674  21.095   4.038
  972W        W73298  39.538  21.280   4.561
  973W        W73299  36.405  33.526   1.483
  974W        W73300  44.616  17.888   0.918
  975W        W73301  30.934  32.669  12.006
  976W        W73302  28.503  13.295  12.440
  977W        W73303  43.658   8.203   0.495
  978W        W73304  23.109  10.383   3.379
  979W        W73305  29.581  12.705  14.357
  980W        W73306  33.139  40.044  11.443
  981W        W73307  34.846  18.537   4.973
  982W        W73308  30.591   7.141  13.452
  983W        W73309   4.752  27.441  10.795
  984W        W73310  39.614  13.599   3.375
  985W        W73311  32.314  15.186  12.877
  986W        W73312  27.495   1.725  12.934
  987W        W73313  38.896  42.282  11.828
  988W        W73314  15.166   8.179   2.649
  989W        W73315  10.266  38.206  11.981
  990W        W73316  36.784  36.624  12.864
  991W        W73317  15.738  17.575   4.362
  992W        W73318   6.448  11.677  14.766
  993W        W73319  11.212  30.571   2.779
  994W        W73320  23.998   9.238   2.159
  995W        W73321  29.204   9.303  14.286
  996W        W73322  14.618   8.888   3.858
  997W        W73323  10.305   3.257  12.459
  998W        W73324  18.606  37.913   2.787
  999W        W73325  17.615  43.802   4.494
 1000W        W73326  20.784  31.532   3.600
 1001W        W73327  43.750  44.175  10.929
 1002W        W73328  16.182   2.381  13.385
 1003W        W73329  30.513   0.149   2.032
 1004W        W73330   7.817  40.786  13.010
 1005W        W73331  11.127  32.899   3.279
 1006W        W73332   7.252  10.812  14.451
 1007W        W73333  20.088  36.883   4.276
 1008W        W73334  37.923  36.407   2.355
 1009W        W73335  38.326  14.632   0.834
 1010W        W73336  20.260  24.173  13.221
 1011W        W73337  35.938  43.383  13.262
 1012W        W73338  35.812  11.661  13.469
 1013W        W73339  31.614  24.761  10.893
 1014W        W73340  40.547  44.761   0.472
 1015W        W73341   1.548  38.912   1.291
 1016W        W73342  33.979   4.622   4.490
 1017W        W73343  36.361  11.379   4.220
 1018W        W73344   5.212   1.431  11.866
 1019W        W73345   9.541  41.856   4.588
 1020W        W73346  21.216   6.825   0.907
 1021W        W73347  37.551   6.671   0.336
 1022W        W73348  39.916  41.016   1.406
 1023W        W73349  33.683  26.150   2.327
 1024W        W73350   9.765  33.393  11.276
 1025W        W73351   7.560   8.699  12.440
 1026W        W73352  40.391  10.620  11.904
 1027W        W73353  39.489  28.069  12.600
 1028W        W73354   4.971  15.508   1.385
 1029W        W73355  29.168  11.332  12.379
 1030W        W73356  36.693   6.278   0.156
 1031W        W73357   5.863  12.225  14.012
 1032W        W73358   5.601  42.611  13.827
 1033W        W73359  36.505  14.682   4.405
 1034W        W73360  41.820  29.348   3.258
 1035W        W73361  35.464  24.758   2.872
 1036W        W73362  26.436  32.891  14.226
 1037W        W73363  38.291  38.919   1.443
 1038W        W73364  10.063  15.191   4.534
 1039W        W73365  34.601  12.178  13.771
 1040W        W73366   0.958   8.723  10.405
 1041W        W73367   9.247  44.892   4.212
 1042W        W73368   8.467  16.713   1.010
 1043W        W73369  20.202   7.175   0.358
 1044W        W73370   7.449   5.935  12.975
 1045W        W73371  15.222   6.536  12.432
 1046W        W73372   3.820  38.060  11.581
 1047W        W73373  15.732  17.651  10.037
 1048W        W73374  28.494  36.392   0.850
 1049W        W73375  44.523   6.655  14.935
 1050W        W73376   5.146  35.107   4.647
 1051W        W73377  33.486   7.477   2.249
 1052W        W73378  43.787  16.727   3.165
 1053W        W73379  15.722  36.861  12.126
 1054W        W73380   7.873   7.563  11.664
 1055W        W73381  33.393  15.317  12.605
 1056W        W73382  41.837  14.071   3.776
 1057W        W73383   6.358  36.858   1.924
 1058W        W73384  30.052  36.813  13.065
 1059W        W73385   1.762  12.434   1.023
 1060W        W73386  31.592  32.529   1.375
 1061W        W73387  22.983   8.752  10.613
 1062W        W73388  16.122   0.312  12.932
 1063W        W73389  18.662  44.892   2.118
 1064W        W73390  21.016  44.254  11.522
 1065W        W73391  37.032  27.590  11.543
 1066W        W73392  11.829   4.553   3.421
 1067W        W73393  35.874  43.114   4.156
 1068W        W73394   7.200   8.189   3.517
 1069W        W73395  18.767  43.407  11.962
 1070W        W73396  34.342  15.583   3.121
 1071W        W73397  15.163  17.266  11.158
 1072W        W73398  39.075  32.167   1.452
 1073W        W73399  40.152  17.113   2.780
 1074W        W73400  26.334   9.662  12.473
 1075W        W73401  27.641  17.796   3.141
 1076W        W73402  16.137  14.375  10.631
 1077W        W73403  22.188  38.144  11.855
 1078W        W73404  35.007   2.615   3.283
 1079W        W73405  36.584  32.437  10.988
 1080W        W73406  28.337  26.171   3.817
 1081W        W73407  40.738  33.882  13.052
 1082W        W73408  17.288   6.803   1.589
 1083W        W73409  44.387  12.199  14.720
 1084W        W73410  33.494  28.372  11.164
 1085W        W73411   0.845  32.560   0.963
 1086W        W73412   1.041   8.233   4.822
 1087W        W73413   7.224  32.301  11.603
 1088W        W73414   9.860  17.280   2.831
 1089W        W73415  42.034  33.589  12.396
 1090W        W73416  17.787  17.035   1.837
 1091W        W73417   2.673  13.062  13.386
 1092W        W73418  20.241   7.230   3.434
 1093W        W73419  24.588  14.590  11.897
 1094W        W73420  18.618  32.053   1.224
 1095W        W73421  23.781  37.945  11.846
 1096W        W73422  36.987   7.849   2.801
 1097W        W73423  29.062  36.282   0.337
 1098W        W73424  20.286  35.461  13.936
 1099W        W73425  20.665  37.068  14.393
 1100W        W73426  12.274   8.736  14.414
 1101W        W73427  10.579   3.266  13.086
 1102W        W73428  39.105  37.824  14.364
 1103W        W73429  43.015  19.075  14.267
 1104W        W73430  13.450  33.562  11.966
 1105W        W73431  21.769  37.367  10.234
 1106W        W73432  39.089  34.084   4.078
 1107W        W73433  16.020  42.497   1.473
 1108W        W73434  40.350  22.514  12.689
 1109W        W73435  27.946  34.043  12.464
 1110W        W73436  32.097  12.350   3.266
 1111W        W73437  24.668  27.407  12.936
 1112W        W73438  18.361  19.715   0.771
 1113W        W73439  15.234  16.637   4.625
 1114W        W73440   1.701  11.556  12.427
 1115W        W73441  26.827  28.624  10.197
 1116W        W73442  14.690  27.173  11.468
 1117W        W73443   7.640  15.612   0.843
 1118W        W73444  38.932  17.532   1.789
 1119W        W73445  33.421  43.499   0.944
 1120W        W73446  15.499  19.580  12.648
 1121W        W73447  22.639  27.729   0.667
 1122W        W73448  10.754   7.377  14.418
 1123W        W73449  28.129   6.642   3.197
 1124W        W73450   7.200  26.655  14.843
 1125W        W73451   8.292  40.134   2.410
 1126W        W73452  16.692   4.301  11.613
 1127W        W73453  36.481   5.175  13.971
 1128W        W73454  41.732  20.518   2.740
 1129W        W73455   9.205  21.589  10.466
 1130W        W73456  11.826   7.150  12.066
 1131W        W73457  14.854  38.923  13.852
 1132W        W73458  40.473   1.172   1.744
 1133W        W73459  22.706  29.428  13.461
 1134W        W73460  41.010   9.635  12.868
 1135W        W73461  37.045  28.527  12.009
 1136W        W73462  10.722   0.707   2.158
 1137W        W73463  15.185  30.665   1.961
 1138W        W73464  12.167  33.395   1.592
 1139W        W73465  29.097  30.995  14.543
 1140W        W73466  19.147  16.355   2.383
 1141W        W73467  12.242  34.679   0.918
 1142W        W73468  25.023  27.955   4.671
 1143W        W73469   5.367  37.108  10.413
 1144W        W73470  36.468  24.155   0.337
 1145W        W73471  36.210  36.238   4.649
 1146W        W73472  37.951  43.817  11.374
 1147W        W73473  14.062  14.101   0.949
 1148W        W73474  38.116  42.806  12.333
 1149W        W73475  44.067  12.294   1.280
 1150W        W73476  43.050   8.375   1.652
 1151W        W73477  25.026  29.125  12.535
 1152W        W73478  26.356  27.509  11.578
 1153W        W73479  21.599  32.047   2.583
 1154W        W73480  28.981   2.244  14.466
 1155W        W73481  35.075  16.105   4.456
 1156W        W73482  17.612  17.691   4.542
 1157W        W73483  25.635  24.188  13.906
 1158W        W73484  38.343  42.883  11.869
 1159W        W73485  28.389  22.996  12.948
 1160W        W73486  21.671  11.017   2.621
 1161W        W73487  30.436  10.179  10.954
 1162W        W73488  39.920  40.957   0.497
 1163W        W73489  17.213   2.807   2.685
 1164W        W73490  13.903  29.900  11.041
 1165W        W73491  28.241  39.538  11.909
 1166W        W73492  23.502  26.696  12.486
 1167W        W73493  31.758  32.140   3.805
 1168W        W73494  39.852  17.667  11.408
 1169W        W73495   6.249  35.392   2.118
 1170W        W73496  18.042   4.341  14.310
 1171W        W73497  40.978  34.835  13.028
 1172W        W73498  44.056   6.091  11.085
 1173W        W73499  25.165  22.639  11.496
 1174W        W73500  35.787  16.214   3.718
 1175W        W73501  29.378  15.198  14.077
 1176W        W73502  14.511  42.378   2.455
 1177W        W73503  13.092  21.521  12.242
 1178W        W73504  37.997   0.438   0.351
 1179W        W73505  19.611  16.730  14.382
 1180W        W73506  38.050  13.160  12.471
 1181W        W73507  22.175  16.721  14.468
 1182W        W73508  13.421  17.632   0.443
 1183W        W73509  28.137   3.268   2.801
 1184W        W73510  31.929   4.207   2.956
 1185W        W73511  11.102  39.989   1.310
 1186W        W73512   2.396  18.752   2.350
 1187W        W73513  14.264  27.227   3.297
 1188W        W73514   7.476   7.223   1.633
 1189W        W73515  16.213  44.910  12.584
 1190W        W73516  30.625  17.193  13.560
 1191W        W73517  44.397  20.178   0.748
 1192W        W73518  22.454  30.453  14.980
 1193W        W73519   0.012   2.108  11.552
 1194W        W73520  29.886  37.026   3.169
 1195W        W73521  18.620   6.828   2.626
 1196W        W73522   5.005   1.878  12.065
 1197W        W73523  42.474  38.032  10.751
 1198W        W73524  12.647   1.079  11.031
 1199W        W73525  25.625  42.041   0.272
 1200W        W73526  11.673  22.538   2.666
 1201W        W73527  12.913  35.920   4.663
 1202W        W73528  18.499  10.161  11.532
 1203W        W73529  41.887  36.100  11.196
 1204W        W73530   8.680  10.039   4.203
 1205W        W73531  41.501  19.135   0.820
 1206W        W73532  14.208  19.773   2.377
 1207W        W73533  33.873  44.471   3.881
 1208W        W73534  22.450  36.579   1.814
 1209W        W73535  36.266  16.010   3.718
 1210W        W73536  22.896  20.884   2.480
 1211W        W73537  44.814  11.344  14.891
 1212W        W73538  23.129  20.982  12.948
 1213W        W73539  29.739  28.992   4.156
 1214W        W73540  21.686  31.537   2.675
 1215W        W73541  33.756  22.588  10.836
 1216W        W73542  26.921  26.594   4.533
 1217W        W73543  41.317  12.959  12.919
 1218W        W73544   2.427  44.356  10.657
 1219W        W73545  23.882   8.151  11.891
 1220W        W73546  40.167  34.887  12.620
 1221W        W73547  27.264  17.553  13.710
 1222W        W73548  26.470  28.689  11.110
 1223W        W73549  34.484   9.148   3.268
 1224W        W73550  12.410  27.100   3.337
 1225W        W73551  29.373  10.083  10.094
 1226W        W73552  44.461   9.416  11.644
 1227W        W73553  32.169  37.843  11.071
 1228W        W73554  25.545  19.595   3.669
 1229W        W73555  37.391   1.786  13.825
 1230W        W73556  19.807  33.008   2.157
 1231W        W73557  25.700   3.381  12.187
 1232W        W73558  39.496  36.409   0.235
 1233W        W73559  31.513   9.930   2.733
 1234W        W73560  30.593  21.762  11.627
 1235W        W73561  44.244  44.203   5.000
 1236W        W73562  20.303   1.788   3.581
 1237W        W73563  21.572  15.676  13.811
 1238W        W73564  12.997  22.423  14.370
 1239W        W73565  37.179   8.393  14.778
 1240W        W73566  33.526  41.741   3.675
 1241W        W73567   3.326   0.352  10.868
 1242W        W73568  20.119  25.862  12.641
 1243W        W73569   6.926  41.442  14.408
 1244W        W73570   1.982  39.422   0.065
 1245W        W73571  11.318  42.763   3.247
 1246W        W73572  34.781  39.812   4.350
 1247W        W73573  30.170  29.464  13.866
 1248W        W73574  19.544  41.754   3.779
 1249W        W73575  13.461  22.528   2.211
 1250W        W73576   5.953  18.483   1.668
 1251W        W73577  22.970  27.707   2.329
 1252W        W73578  25.655  15.441  13.613
 1253W        W73579   6.149  17.805  14.912
 1254W        W73580   3.825  13.929  14.544
 1255W        W73581   3.992   8.979   3.743
 1256W        W73582  33.288  29.679  11.494
 1257W        W73583   1.357  31.875  12.862
 1258W        W73584  31.478  12.124  11.935
 1259W        W73585  31.040   4.528  10.305
 1260W        W73586  21.186   5.685   0.897
 1261W        W73587  33.165  37.625   0.865
 1262W        W73588  12.876  14.114   4.495
 1263W        W73589  44.478  37.403   0.964
 1264W        W73590  23.480  23.466   4.515
 1265W        W73591  23.043  27.259   4.554
 1266W        W73592  26.524   0.584   0.610
 1267W        W73593  14.813  23.775  10.884
 1268W        W73594   0.898   3.347   1.452
 1269W        W73595  20.132  10.052  12.523
 1270W        W73596  25.021  37.648  10.950
 1271W        W73597  30.993  22.210   0.402
 1272W        W73598   7.392  37.134  14.461
 1273W        W73599  23.747   3.940   0.020
 1274W        W73600  21.017   0.068  12.026
 1275W        W73601  36.383   4.532   4.223
 1276W        W73602  12.826   5.474  13.567
 1277W        W73603  37.140  39.912   1.343
 1278W        W73604   6.243  40.529   2.359
 1279W        W73605  39.863  11.638   4.471
 1280W        W73606  37.512  14.291  14.341
 1281W        W73607  30.955   8.935  12.506
 1282W        W73608  36.055  37.506   1.687
 1283W        W73609  35.123  39.054   3.192
 1284W        W73610  35.121   6.330  13.377
 1285W        W73611   3.909  27.033   2.682
 1286W        W73612  10.709   8.932  14.584
 1287W        W73613   7.593   1.395   1.119
 1288W        W73614  19.539  41.303   1.769
 1289W        W73615   7.302   9.230   5.003
 1290W        W73616  37.917   8.380   3.860
 1291W        W73617   1.643  33.062   5.198
 1292W        W73618  30.202   7.364   3.123
 1293W        W73619  39.739  27.664  13.061
 1294W        W73620  17.013   7.756  10.710
 1295W        W73621  41.247  23.120  11.161
 1296W        W73622  30.960  19.946   4.926
 1297W        W73623  16.362  22.286   3.572
 1298W        W73624   7.293  34.592  13.809
 1299W        W73625  23.015  39.576   1.370
 1300W        W73626  44.837  43.523  12.136
 1301W        W73627  40.626  19.748   2.717
 1302W        W73628  27.668  28.474  12.850
 1303W        W73629  24.727  26.790   0.704
 1304W        W73630  22.079  42.517  12.895
 1305W        W73631  19.617  41.810   5.137
 1306W        W73632  22.837  37.709   4.155
 1307W        W73633   7.396   3.958   1.889
 1308W        W73634   2.755  39.900  13.415
 1309W        W73635  44.759   5.399  14.289
 1310W        W73636  35.248   8.510   2.325
 1311W        W73637  28.004  25.670   9.654
 1312W        W73638  31.953  10.195   0.014
 1313W        W73639  27.059  34.771   0.818
 1314W        W73640   1.681   4.160  13.290
 1315W        W73641  13.577   9.833   2.651
 1316W        W73642  26.061   1.461   0.853
 1317W        W73643  32.092  40.217   2.489
 1318W        W73644  42.709  38.460   0.435
 1319W        W73645  17.615   6.392  10.611
 1320W        W73646   4.151  40.037  10.516
 1321W        W73647  15.159  35.625   5.678
 1322W        W73648  28.697  20.984   1.634
 1323W        W73649  38.125  41.873  11.566
 1324W        W73650  26.960   4.392   1.741
 1325W        W73651  42.823  18.570  12.212
 1326W        W73652   9.818  32.034  10.955
 1327W        W73653  34.345  33.518  14.457
 1328W        W73654   6.965  41.816  14.748
 1329W        W73655  18.102   5.247   3.331
 1330W        W73656  41.921  26.071   3.896
 1331W        W73657  36.087  37.312  13.366
 1332W        W73658   3.653  22.656   2.714
 1333W        W73659  35.105  14.098   4.709
 1334W        W73660   4.606  32.634   0.191
 1335W        W73661   0.265  25.078  14.326
 1336W        W73662  11.380  35.320  14.883
 1337W        W73663  36.088   3.958   0.166
 1338W        W73664  42.466  16.094  14.862
 1339W        W73665  37.333  15.271   4.539
 1340W        W73666  21.825  36.978   3.543
 1341W        W73667   3.903   5.159  14.066
 1342W        W73668   1.151  26.529   3.135
 1343W        W73669  32.329  12.209  11.699
 1344W        W73670   7.381  42.954   1.496
 1345W        W73671  44.405  31.010   2.782
 1346W        W73672  33.499  34.458  14.075
 1347W        W73673  30.061  18.659  13.924
 1348W        W73674  41.087  10.353   0.921
 1349W        W73675  35.136  10.713  12.878
 1350W        W73676  36.229   4.665   4.723
 1351W        W73677  11.411   1.673   3.784
 1352W        W73678  27.775  20.279  14.087
 1353W        W73679  42.352   4.018  14.496
 1354W        W73680  44.190  18.508   3.694
 1355W        W73681   6.187  13.325  11.313
 1356W        W73682  21.153  40.456  10.068
 1357W        W73683  36.281  18.117  12.572
 1358W        W73684  25.957  42.368  10.849
 1359W        W73685  20.751  34.185   1.501
 1360W        W73686  18.163  22.648   3.126
 1361W        W73687  30.882  15.089   0.392
 1362W        W73688  28.600   5.787   2.402
 1363W        W73689  10.416  36.495  14.280
 1364W        W73690  31.657   8.640  12.138
 1365W        W73691  33.984  16.661   1.196
 1366W        W73692  42.408  20.003   0.102
 1367W        W73693  42.250  19.782   1.367
 1368W        W73694  31.034   4.407  11.637
 1369W        W73695  35.146  22.025   0.378
 1370W        W73696  21.576  12.006   2.694
 1371W        W73697  24.461   8.437   3.793
 1372W        W73698  27.654  34.551  10.641
 1373W        W73699   7.249  44.958   1.024
 1374W        W73700  40.540  18.557  12.993
 1375W        W73701  35.054  44.928   3.215
 1376W        W73702  30.995   9.124  11.534
 1377W        W73703   6.327  34.389   4.147
 1378W        W73704   5.026  32.339   1.670
 1379W        W73705  31.468  23.121   4.097
 1380W        W73706  32.588  43.404  10.327
 1381W        W73707  40.601  16.749  14.017
 1382W        W73708   9.360   2.967   4.074
 1383W        W73709  16.431  40.025  13.976
 1384W        W73710  12.616  42.760   1.277
 1385W        W73711  18.048  41.778  14.866
 1386W        W73712  31.622   0.187  12.110
 1387W        W73713  21.220  43.359   0.304
 1388W        W73714  43.963   2.660  10.705
 1389W        W73715  31.945  41.811  10.515
 1390W        W73716  21.070  29.032  12.074
 1391W        W73717   3.278  31.183   5.046
 1392W        W73718  12.683  17.859   0.075
 1393W        W73719  17.576  41.018  13.502
 1394W        W73720  36.829  15.669  14.205
 1395W        W73721  25.172   8.117   3.264
 1396W        W73722  39.030  41.514   4.118
 1397W        W73723   0.279  37.414  14.027
 1398W        W73724   8.082  22.052  13.501
 1399W        W73725  40.603  42.751  11.594
 1400W        W73726   7.945   7.123  10.347
 1401W        W73727  27.039  26.051  11.475
 1402W        W73728  38.305  42.938   3.908
 1403W        W73729  44.175  20.262  13.056
 1404W        W73730  19.678   3.359   3.800
 1405W        W73731  13.810  11.210  13.797
 1406W        W73732   4.815  29.046   3.330
 1407W        W73733   1.565   9.875   9.536
 1408W        W73734  28.214  18.717   3.602
 1409W        W73735  11.595  33.683   3.661
 1410W        W73736  35.290   6.810   4.181
 1411W        W73737  34.314  40.072   3.104
 1412W        W73738   8.056  33.946  12.033
 1413W        W73739   2.787  39.314   3.152
 1414W        W73740  27.010  17.327   0.943
 1415W        W73741  38.628  33.289  13.903
 1416W        W73742  20.619  41.579   0.844
 1417W        W73743  44.454   8.227  14.073
 1418W        W73744  27.256   9.261  12.599
 1419W        W73745  42.613   6.497   3.868
 1420W        W73746   3.393  31.242   0.889
 1421W        W73747  30.555  38.513   2.596
 1422W        W73748  25.157  28.404   0.659
 1423W        W73749  35.940  29.669   1.955
 1424W        W73750  30.731  13.146   4.193
 1425W        W73751  32.229  44.056  14.436
 1426W        W73752  41.735  44.439  12.442
 1427W        W73753   6.617  27.011  13.924
 1428W        W73754  23.770  38.026  13.433
 1429W        W73755  38.975  27.096  11.868
 1430W        W73756  23.783  15.126  11.073
 1431W        W73757  28.381  43.949  10.657
 1432W        W73758  27.944  31.600   0.721
 1433W        W73759  21.026  23.030  11.510
 1434W        W73760  12.080  30.174   1.853
 1435W        W73761   4.683  42.793   3.093
 1436W        W73762  14.566  41.210   0.300
 1437W        W73763  34.126  10.410  11.996
 1438W        W73764   0.034  42.015   3.296
 1439W        W73765  36.337  31.969   4.119
 1440W        W73766   0.814  22.242   0.804
 1441W        W73767  13.745  31.601   3.385
 1442W        W73768  10.793   8.076  11.170
 1443W        W73769  11.623  33.941  14.859
 1444W        W73770  32.972  34.132   1.402
 1445W        W73771   5.652  32.561  11.213
 1446W        W73772  39.131  39.909  13.916
 1447W        W73773  36.532  40.996   4.749
 1448W        W73774  19.968  22.945   4.339
 1449W        W73775  14.918  44.547   3.621
 1450W        W73776  23.745  23.048  13.927
 1451W        W73777  39.406   0.016   1.753
 1452W        W73778   1.833  39.749   1.494
 1453W        W73779  12.703  28.659  11.985
 1454W        W73780  22.501  22.683   2.783
 1455W        W73781  42.441   5.844   3.099
 1456W        W73782  12.306   1.330  11.574
 1457W        W73783  43.763  43.206   0.798
 1458W        W73784   5.778  26.498  12.787
 1459W        W73785  25.127   3.698   3.251
 1460W        W73786   8.026  12.669  13.791
 1461W        W73787  41.823  43.042  14.891
 1462W        W73788  28.662  19.673   5.111
 1463W        W73789  39.029  30.036   0.271
 1464W        W73790   6.256  15.384   0.446
 1465W        W73791  42.471  26.737  12.403
 1466W        W73792  11.223  37.885  13.385
 1467W        W73793  14.622  15.803  11.241
 1468W        W73794   6.477  12.248   2.391
 1469W        W73795  14.773  42.388  13.123
 1470W        W73796  23.933  41.441   0.787
 1471W        W73797  29.145   8.298  11.189
 1472W        W73798  11.750  34.915  10.886
 1473W        W73799  27.753  12.636  14.887
 1474W        W73800  21.816   3.981   3.472
 1475W        W73801   5.763  17.392  10.791
 1476W        W73802  20.607  20.004   0.308
 1477W        W73803  33.962  23.018  12.698
 1478W        W73804  23.368  26.371  12.066
 1479W        W73805  44.700  35.058  11.614
 1480W        W73806  13.735  40.028  11.040
 1481W        W73807  10.148  16.488   0.466
 1482W        W73808  15.947  31.416   3.345
 1483W        W73809  13.666  24.930  14.009
 1484W        W73810  18.356   8.586  14.034
 1485W        W73811  13.818  25.271  14.368
 1486W        W73812  21.218  13.367   1.721
 1487W        W73813  28.137   6.011   1.090
 1488W        W73814  15.405   9.258   1.863
 1489W        W73815  20.607  42.921   4.724
 1490W        W73816  34.986  29.580   3.219
 1491W        W73817  10.675   0.552   3.900
 1492W        W73818  15.605  22.667   0.726
 1493W        W73819   0.656   0.226  12.501
 1494W        W73820   0.884  11.694  13.822
 1495W        W73821  28.150  40.981   0.773
 1496W        W73822   7.271  18.518   0.923
 1497W        W73823   6.820  43.076   4.191
 1498W        W73824  24.959   5.019   1.875
 1499W        W73825  37.933  34.682  12.056
 1500W        W73826  28.238  39.777   1.450
 1501W        W73827   4.908  40.301  13.967
 1502W        W73828   2.420  14.165   0.372
 1503W        W73829   2.828   1.217  13.297
 1504W        W73830   3.299   1.672  10.419
 1505W        W73831   8.728  34.414  13.819
 1506W        W73832  38.122  30.003  12.965
 1507W        W73833  43.856  36.766   0.839
 1508W        W73834  12.541  39.354  14.322
 1509W        W73835  19.690  28.592   3.275
 1510W        W73836   9.395  20.668  13.376
 1511W        W73837  29.140  27.868  12.088
 1512W        W73838  39.820   4.519  11.164
 1513W        W73839  10.704  41.289  14.291
 1514W        W73840  23.472   0.040  11.147
 1515W        W73841  15.239  19.723   1.899
 1516W        W73842  41.321  11.306  14.999
 1517W        W73843  21.076  40.518   1.349
 1518W        W73844   8.221  22.443  13.071
 1519W        W73845  35.120  31.358   3.718
 1520W        W73846   7.608  12.955  12.417
 1521W        W73847  18.100  29.370   3.383
 1522W        W73848  21.472  37.373  14.214
 1523W        W73849  12.276  41.825   2.228
 1524W        W73850  16.831  31.598   0.696
 1525W        W73851  32.441   7.756  10.870
 1526W        W73852  28.745  37.583   1.357
 1527W        W73853  15.393  36.963   4.705
 1528W        W73854  40.882  25.046  13.525
 1529W        W73855  41.290  24.759  14.250
 1530W        W73856  13.669   2.916  10.685
 1531W        W73857  41.983  20.264   0.836
 1532W        W73858  24.118   3.772   1.194
 1533W        W73859   8.697  20.803   3.892
 1534W        W73860  29.156  44.361  13.440
 1535W        W73861  37.510  43.433   4.526
 1536W        W73862  23.735  26.965  12.937
 1537W        W73863  17.569  11.317   1.987
 1538W        W73864  26.902   1.712   2.221
 1539W        W73865  34.000  15.816  13.577
 1540W        W73866   1.421   1.061   0.846
 1541W        W73867  32.199  17.080   2.827
 1542W        W73868  12.293  25.887  11.531
 1543W        W73869  43.700   5.834  14.351
 1544W        W73870  40.395   7.694   1.538
 1545W        W73871  44.739   6.708  13.059
 1546W        W73872  21.575  35.542  14.505
 1547W        W73873  32.918  38.909  10.651
 1548W        W73874  41.491  22.534  10.712
 1549W        W73875  10.258  35.077  13.288
 1550W        W73876  41.374  21.779   3.437
 1551W        W73877  40.726   0.775   0.256
 1552W        W73878   3.298  37.047  14.839
 1553W        W73879  25.731  36.985  11.213
 1554W        W73880  10.852  12.056   3.787
 1555W        W73881   2.274  28.056  14.503
 1556W        W73882  43.044  23.647   0.876
 1557W        W73883  38.013  39.876   0.079
 1558W        W73884  24.485  31.619   4.612
 1559W        W73885  37.007  25.845   2.905
 1560W        W73886   4.872  43.933   5.067
 1561W        W73887  16.366  16.727   2.168
 1562W        W73888  19.412  12.070  14.349
 1563W        W73889  30.911  39.577  12.547
 1564W        W73890   7.403   4.054   0.023
 1565W        W73891  32.609   6.185   3.216
 1566W        W73892  33.217  22.100   1.766
 1567W        W73893  44.904  44.428   3.674
 1568W        W73894  15.342   7.405  13.848
 1569W        W73895   9.599  35.299   1.935
 1570W        W73896  25.493   9.024   3.958
 1571W        W73897  13.206  32.559  13.018
 1572W        W73898  26.587  29.074  10.130
 1573W        W73899  33.719  29.723  14.367
 1574W        W73900  18.520  37.496   4.637
 1575W        W73901   9.567   0.798  12.665
 1576W        W73902  40.949  18.250  11.081
 1577W        W73903  40.783  31.135   0.981
 1578W        W73904  11.312  35.843   0.450
 1579W        W73905  27.930  29.601   4.049
 1580W        W73906  11.646  27.423   3.728
 1581W        W73907  41.460  39.331  14.916
 1582W        W73908  27.222  36.950   2.851
 1583W        W73909   8.308  18.290   4.278
 1584W        W73910   0.306  21.327  10.218
 1585W        W73911  20.702  38.925  14.344
 1586W        W73912  41.445  21.665   2.422
 1587W        W73913  28.522  44.969  14.452
 1588W        W73914   3.368  21.212   4.123
 1589W        W73915  20.597  35.653   3.688
 1590W        W73916  37.425  42.049   3.660
 1591W        W73917   9.385  12.677   3.876
 1592W        W73918   5.120  42.197   1.926
 1593W        W73919  37.661  11.696  11.661
 1594W        W73920   9.369  34.487   3.652
 1595W        W73921  13.769  28.398  12.401
 1596W        W73922  32.536  36.136  11.148
 1597W        W73923   8.921  36.514   3.603
 1598W        W73924  18.423  24.072   3.323
 1599W        W73925  10.839   9.821   3.081
 1600W        W73926  28.976   5.429   4.386
 1601W        W73927  22.657  27.894   4.957
 1602W        W73928   2.550  43.592   0.218
 1603W        W73929  22.405  39.435   2.613
 1604W        W73930   9.470  31.185   1.921
 1605W        W73931  28.922  29.381   4.246
 1606W        W73932  17.240  15.861  11.748
 1607W        W73933  26.068  21.144  11.186
 1608W        W73934  40.225  39.799   4.196
 1609W        W73935  40.811   2.994   4.342
 1610W        W73936  30.152  17.476  14.009
 1611W        W73937  39.622  28.010   0.709
 1612W        W73938   3.538  20.105   5.064
 1613W        W73939  16.200  10.085  12.539
 1614W        W73940  24.809  42.898  12.535
 1615W        W73941  25.499   4.100   4.566
 1616W        W73942   7.927  36.530   3.755
 1617W        W73943  36.809  40.095   0.005
 1618W        W73944  37.241  12.053   0.921
 1619W        W73945  35.507  16.736  13.111
 1620W        W73946  10.678   5.795   1.030
 1621W        W73947  19.353  29.138   3.159
 1622W        W73948  30.308  11.931   0.173
 1623W        W73949  11.111   3.412  13.780
 1624W        W73950  30.247   6.564   4.172
 1625W        W73951  16.174   4.632  10.647
 1626W        W73952  28.729  38.902   3.255
 1627W        W73953  20.615  16.885  10.500
 1628W        W73954   4.542  41.506   1.457
 1629W        W73955  39.992  44.851   1.136
 1630W        W73956   6.170  20.530  12.315
 1631W        W73957  15.964   5.443   1.947
 1632W        W73958  34.469   7.548  14.451
 1633W        W73959  20.218  12.222   0.953
 1634W        W73960  24.799  41.503  10.720
 1635W        W73961  38.826   3.167  13.370
 1636W        W73962  13.164  41.506   0.278
 1637W        W73963  13.609  32.536   4.362
 1638W        W73964  13.348  41.842  12.011
 1639W        W73965  32.460  29.894   3.620
 1640W        W73966   1.455   9.169   3.231
 1641W        W73967  11.210  40.390   1.605
 1642W        W73968  20.078  38.445   2.305
 1643W        W73969  21.559   6.238  11.522
 1644W        W73970  13.734   5.132   3.563
 1645W        W73971  32.627  21.678   2.433
 1646W        W73972   5.921  34.004  11.138
 1647W        W73973  21.627  31.563  14.765
 1648W        W73974  19.320   2.768  13.650
 1649W        W73975   3.982   6.317   1.203
 1650W        W73976  15.190   6.506   3.151
 1651W        W73977   2.637  44.862  11.521
 1652W        W73978  39.367  19.575  10.629
 1653W        W73979  19.579  27.659  13.462
 1654W        W73980  20.032  37.298  12.398
 1655W        W73981  42.110  34.042  11.583
 1656W        W73982  24.218   9.274  10.463
 1657W        W73983  33.556  21.794  13.845
 1658W        W73984  10.378  10.195  10.427
 1659W        W73985  16.369  20.500   0.656
 1660W        W73986   9.251  29.948   3.137
 1661W        W73987  19.304  20.990  11.323
 1662W        W73988  42.075  36.560   0.056
 1663W        W73989  24.401  21.750   1.551
 1664W        W73990   6.642   2.377   3.108
 1665W        W73991  34.473   4.244  10.985
 1666W        W73992  18.486  21.100  11.072
 1667W        W73993   4.082  24.259   2.098
 1668W        W73994  32.923  13.854   1.977
 1669W        W73995  22.439   9.911   2.633
 1670W        W73996  35.190  39.963   4.053
 1671W        W73997  44.010  18.314   4.140
 1672W        W73998  41.464  42.934  13.231
 1673W        W73999  28.583   4.437   0.422
 1674W        W74000  39.996  21.770  11.755
 1675W        W74001   1.068  30.036  11.142
 1676W        W74002  40.563  14.161   2.586
 1677W        W74003  22.929   2.248   1.730
 1678W        W74004  41.272  18.789  14.450
 1679W        W74005  43.315  41.882  14.386
 1680W        W74006  37.990  39.640   1.551
 1681W        W74007  32.595  43.310   1.294
 1682W        W74008  11.912   2.840   4.749
 1683W        W74009  31.905   4.578  11.147
 1684W        W74010  29.051  29.970  13.727
 1685W        W74011  34.038  13.130   4.762
 1686W        W74012  12.719  11.596  12.939
 1687W        W74013  39.317  36.165  10.370
 1688W        W74014  17.309  34.668   4.827
 1689W        W74015  33.507  33.094   0.776
 1690W        W74016  33.122  27.943  14.401
 1691W        W74017  34.430  40.839   3.586
 1692W        W74018  26.070  34.519  12.486
 1693W        W74019  43.786   1.964  14.448
 1694W        W74020  29.692  28.468  13.875
 1695W        W74021  25.995   1.068  14.983
 1696W        W74022  43.957  26.520   2.225
 1697W        W74023   5.487  38.064  12.967
 1698W        W74024  25.105   9.740   1.154
 1699W        W74025  41.949  24.967   2.797
 1700W        W74026  11.275   9.289  13.910
 1701W        W74027   7.659  39.285  14.867
 1702W        W74028   7.615  37.166  11.129
 1703W        W74029  35.811  27.731   2.606
 1704W        W74030  21.067  34.001   3.755
 1705W        W74031   2.753  25.260   0.823
 1706W        W74032  27.595  36.412  11.145
 1707W        W74033  42.308  14.043   2.192
 1708W        W74034  20.489  28.172  11.040
 1709W        W74035   8.375  12.606  12.054
 1710W        W74036  34.507  18.723  13.844
 1711W        W74037  24.718  32.898   0.452
 1712W        W74038  30.546  29.846  11.216
 1713W        W74039  36.871   7.455   0.335
 1714W        W74040  10.318  10.597  14.014
 1715W        W74041   5.801   7.169   1.393
 1716W        W74042  17.835  20.163   0.423
 1717W        W74043  15.977  43.141  11.817
 1718W        W74044  40.462   2.461   4.166
 1719W        W74045   4.337  17.026   1.384
 1720W        W74046  27.052  39.275  12.136
 1721W        W74047  39.970  35.092  12.174
 1722W        W74048  11.740   1.871  12.435
 1723W        W74049  21.542   7.005   1.880
 1724W        W74050  44.283  39.855   4.656
 1725W        W74051  13.771  13.959  10.580
 1726W        W74052  32.474  21.540  12.055
 1727W        W74053  19.068  32.860  14.370
 1728W        W74054  25.916  36.479  13.013
 1729W        W74055  28.516   5.228   3.587
 1730W        W74056  26.575  18.581   2.852
 1731W        W74057   9.038  44.186   0.949
 1732W        W74058  21.849  42.598  13.364
 1733W        W74059  39.356  34.811  13.382
 1734W        W74060  41.888  43.029   0.925
 1735W        W74061  36.231  11.988   1.953
 1736W        W74062  12.983  24.499   2.668
 1737W        W74063  37.885  37.388   1.411
 1738W        W74064  33.935  13.832  14.826
 1739W        W74065   5.289  17.597   4.754
 1740W        W74066   3.319  12.155  10.201
 1741W        W74067  40.402  42.180  13.805
 1742W        W74068  23.947  40.217  13.930
 1743W        W74069  25.156  41.863  10.757
 1744W        W74070  17.958   3.798  12.609
 1745W        W74071  26.160  22.562   2.072
 1746W        W74072  10.395   2.193  14.380
 1747W        W74073  27.107   2.270  11.648
 1748W        W74074  38.641   4.566   3.361
 1749W        W74075  25.748   8.873   0.164
 1750W        W74076  43.850  31.114   2.460
 1751W        W74077  30.204  12.637   0.061
 1752W        W74078   3.545   4.201   3.157
 1753W        W74079  28.652  21.395   0.003
 1754W        W74080  31.996  11.321   3.212
 1755W        W74081   5.600  39.438   2.471
 1756W        W74082  32.718   7.836   0.060
 1757W        W74083  44.806  15.108  12.395
 1758W        W74084  35.112  32.429  10.148
 1759W        W74085   2.934  16.768   2.826
 1760W        W74086  30.445   8.941   1.609
 1761W        W74087  35.353  20.166  10.795
 1762W        W74088  19.685  36.226   2.298
 1763W        W74089   9.293   4.492   4.175
 1764W        W74090   7.544  28.432   0.305
 1765W        W74091  18.772  30.922  12.438
 1766W        W74092   9.815   9.176  12.808
 1767W        W74093  43.680  33.424   0.018
 1768W        W74094  12.621  39.985   2.587
 1769W        W74095  23.364   3.960  14.658
 1770W        W74096  35.398  27.870  11.866
 1771W        W74097   9.909   1.295   1.292
 1772W        W74098  37.321  18.197   2.931
 1773W        W74099  19.590  34.015   0.528
 1774W        W74100  42.971  17.894  14.984
 1775W        W74101  20.761  29.982  14.556
 1776W        W74102   4.702  37.391   0.814
 1777W        W74103  21.626  21.224  13.581
 1778W        W74104   1.066  31.424  10.699
 1779W        W74105  16.160   0.805   3.091
 1780W        W74106  11.881  26.889  11.985
 1781W        W74107  35.609  32.510  13.081
 1782W        W74108  44.066   4.127   1.904
 1783W        W74109   7.770   8.687  13.863
 1784W        W74110  44.066   1.277  10.699
 1785W        W74111   0.434  37.057  14.930
 1786W        W74112  42.882   6.937  13.019
 1787W        W74113   8.621  24.548  13.799
 1788W        W74114  26.467  25.843  11.203
 1789W        W74115   4.440  40.092  12.465
 1790W        W74116  35.490  36.474  10.031
 1791W        W74117  16.506  26.376   4.156
 1792W        W74118  24.040  39.299  12.896
 1793W        W74119  19.556  41.622  12.057
 1794W        W74120  42.943  22.354  13.317
 1795W        W74121   9.834  31.075   3.521
 1796W        W74122  44.994  39.608   4.110
 1797W        W74123  35.571  15.980   4.597
 1798W        W74124  34.357  13.589  13.384
 1799W        W74125  35.556  44.373  13.442
 1800W        W74126   4.263  17.284   4.060
 1801W        W74127  29.120  26.587  10.440
 1802W        W74128  32.436  17.591   0.892
 1803W        W74129  12.321  19.208  14.857
 1804W        W74130  42.225  37.769   0.994
 1805W        W74131  17.524  44.490  13.928
 1806W        W74132  41.476  31.404   3.686
 1807W        W74133   2.053   2.321  10.233
 1808W        W74134  40.394  21.632   4.690
 1809W        W74135  12.633  14.299  11.024
 1810W        W74136  18.620  14.573   3.208
 1811W        W74137   4.024  12.430   5.613
 1812W        W74138   3.413  14.446  10.748
 1813W        W74139  10.144  44.702  11.919
 1814W        W74140  16.506  44.795   2.314
 1815W        W74141  30.369   0.321  14.845
 1816W        W74142  26.087  12.355   2.671
 1817W        W74143  33.922  28.689  11.178
 1818W        W74144  32.424  20.552   0.457
 1819W        W74145  35.484  11.141   4.635
 1820W        W74146  19.269  44.092   2.901
 1821W        W74147   0.695  17.813   4.971
 1822W        W74148  29.984  12.659  11.191
 1823W        W74149   2.702  34.138  11.976
 1824W        W74150   3.119  10.362   3.733
 1825W        W74151  21.208  28.158  14.311
 1826W        W74152   2.224  32.025   1.993
 1827W        W74153   5.660  39.003   2.771
 1828W        W74154   9.248  26.184  14.233
 1829W        W74155  40.649  24.559  14.815
 1830W        W74156  37.615   2.059  13.406
 1831W        W74157  15.742  10.732  13.080
 1832W        W74158   7.210   3.314  13.258
 1833W        W74159  22.979  27.413  14.470
 1834W        W74160  20.052  23.776   2.291
 1835W        W74161  13.406   2.219  12.376
 1836W        W74162  34.572  21.500   0.760
 1837W        W74163  16.668  24.796  10.707
 1838W        W74164  22.179  40.260   0.339
 1839W        W74165   6.447  22.633   5.065
 1840W        W74166  10.745  24.770  11.088
 1841W        W74167  14.608  14.729   2.642
 1842W        W74168  21.108  39.977   0.041
 1843W        W74169  24.914  18.878   4.170
 1844W        W74170   1.355  28.482   1.610
 1845W        W74171  26.556  40.368   2.859
 1846W        W74172  43.367   3.981  12.163
 1847W        W74173   3.445  40.328  12.524
 1848W        W74174   5.575  28.423   1.026
 1849W        W74175  17.848  29.331   4.167
 1850W        W74176  32.667  39.630  14.441
 1851W        W74177   3.208  19.558  14.358
 1852W        W74178  22.450  31.062  11.997
 1853W        W74179  25.017   2.333  14.150
 1854W        W74180  23.169  37.545   3.787
 1855W        W74181  26.480   0.369  12.927
 1856W        W74182   6.515  27.581   3.738
 1857W        W74183  14.970  10.754  12.391
 1858W        W74184  42.886  41.877   3.111
 1859W        W74185  37.144  38.813  14.967
 1860W        W74186  26.162  42.863  11.237
 1861W        W74187   4.195  18.208   0.901
 1862W        W74188  31.137   3.330   4.613
 1863W        W74189  13.207  14.014   4.099
 1864W        W74190  24.650  35.169   2.633
 1865W        W74191  23.498  42.540   3.375
 1866W        W74192  44.229   4.718  11.077
 1867W        W74193  35.917   7.802  13.622
 1868W        W74194  34.650  31.094  11.026
 1869W        W74195  22.451   0.241  13.551
 1870W        W74196  44.863  37.956  11.627
 1871W        W74197   5.005  24.539   0.034
 1872W        W74198   0.660  19.567   4.625
 1873W        W74199  16.679  13.621   1.807
 1874W        W74200   2.192  40.744   0.771
 1875W        W74201  32.866   4.490  13.108
 1876W        W74202   8.846  23.502   3.714
 1877W        W74203  30.514  43.362   3.858
 1878W        W74204  27.454  12.590   1.489
 1879W        W74205  20.331  41.012  12.560
 1880W        W74206  27.443   0.806  10.472
 1881W        W74207   6.964  13.415   0.920
 1882W        W74208  31.984  30.774   4.359
 1883W        W74209  25.475  16.378  12.687
 1884W        W74210  43.432  20.583  11.123
 1885W        W74211  15.782  22.139  14.317
 1886W        W74212   8.227  18.836  10.571
 1887W        W74213  35.831  31.182  14.406
 1888W        W74214  26.938  19.105   1.486
 1889W        W74215  39.875   0.724  13.189
 1890W        W74216  27.189  16.735  12.093
 1891W        W74217   6.387  35.372   3.476
 1892W        W74218  19.451   0.038  13.260
 1893W        W74219  16.702  10.101  14.370
 1894W        W74220  44.750   3.912  13.687
 1895W        W74221  28.235  42.246  12.819
 1896W        W74222  31.453  25.013   4.628
 1897W        W74223   3.176  16.610   4.179
 1898W        W74224  20.707  39.330   2.747
 1899W        W74225  24.413  29.051  11.634
 1900W        W74226  14.261   6.727   0.231
 1901W        W74227  15.799  13.801   1.283
 1902W        W74228  11.237  19.357   2.797
 1903W        W74229  42.401  31.882   1.818
 1904W        W74230  42.054   5.135  11.370
 1905W        W74231  14.543  39.376   1.666
 1906W        W74232   2.294   4.837  11.916
 1907W        W74233  43.079   0.013   0.841
 1908W        W74234  27.416  26.181  13.333
 1909W        W74235   1.727  21.580  11.969
 1910W        W74236  22.585  24.986   2.374
 1911W        W74237  44.544  28.074  13.001
 1912W        W74238  13.741  40.270  10.583
 1913W        W74239  20.629   6.290  11.151
 1914W        W74240  18.378  34.324   2.346
 1915W        W74241   6.907  15.376   4.840
 1916W        W74242  11.784   1.839   0.461
 1917W        W74243  33.377  14.036   2.814
 1918W        W74244  11.313   1.704  14.308
 1919W        W74245  38.806  23.940   2.814
 1920W        W74246  15.150  16.154  13.748
 1921W        W74247  30.699  36.023   1.254
 1922W        W74248  23.485  24.596  10.448
 1923W        W74249  33.968  21.351   4.098
 1924W        W74250  23.540  18.160   5.094
 1925W        W74251  20.554  30.664  14.965
 1926W        W74252  40.227  16.622  10.783
 1927W        W74253  32.142  40.758   1.623
 1928W        W74254  31.180  30.846  13.883
 1929W        W74255  31.508  29.977  12.167
 1930W        W74256  33.435   7.951   4.727
 1931W        W74257  10.682   8.700   1.360
 1932W        W74258   5.313   9.119   3.121
 1933W        W74259  38.792  10.854  12.532
 1934W        W74260  30.558  15.992   0.807
 1935W        W74261   8.732   4.419   2.805
 1936W        W74262  19.129  15.290  11.483
 1937W        W74263  17.570   6.031   3.153
 1938W        W74264  25.529  26.068  13.088
 1939W        W74265   4.332  16.830  14.758
 1940W        W74266  21.235  32.480  12.090
 1941W        W74267  15.073  20.163   1.653
 1942W        W74268  20.043  32.902   3.725
 1943W        W74269  10.568  40.866  12.644
 1944W        W74270  25.176  38.200  13.435
 1945W        W74271  36.063   7.342   0.883
 1946W        W74272  11.449  44.496   0.353
 1947W        W74273  15.801  19.770  11.231
 1948W        W74274   0.351  34.778  11.142
 1949W        W74275  27.704   7.236  13.539
 1950W        W74276   1.870  34.509   3.627
 1951W        W74277   5.831  21.507  12.887
 1952W        W74278  22.098  20.046  11.705
 1953W        W74279  13.147   5.575  12.156
 1954W        W74280  27.659   2.921  11.635
 1955W        W74281  30.624   3.957  11.173
 1956W        W74282   9.100  18.809   3.837
 1957W        W74283   2.732  38.347   4.343
 1958W        W74284  18.931  43.959  12.647
 1959W        W74285  44.757   9.337  10.431
 1960W        W74286  23.260  35.347  10.621
 1961W        W74287  30.250  40.596   2.331
 1962W        W74288  13.935  15.285  12.352
 1963W        W74289  20.675  33.644   3.717
 1964W        W74290   7.850  14.528   1.832
 1965W        W74291  22.686  29.521   0.422
 1966W        W74292   1.802   1.841  14.862
 1967W        W74293   2.718  18.403  11.636
 1968W        W74294  25.589  37.492   3.284
 1969W        W74295   4.155  10.699  12.214
 1970W        W74296  33.193   9.682   3.393
 1971W        W74297   5.738   6.806  12.481
 1972W        W74298  28.406  15.654   1.424
 1973W        W74299  22.404  37.893  14.126
 1974W        W74300  26.626  44.597   2.633
 1975W        W74301  24.993  11.777   1.396
 1976W        W74302  20.115   1.536   2.175
 1977W        W74303  40.131  21.656  10.846
 1978W        W74304  42.398  12.558   2.791
 1979W        W74305   1.054   7.443  11.664
 1980W        W74306  40.007  18.132   2.136
 1981W        W74307  15.020   4.923  11.313
 1982W        W74308  18.188  15.721   4.851
 1983W        W74309  21.761  38.803   3.661
 1984W        W74310   2.549  36.788  14.285
 1985W        W74311  34.417  12.771   4.675
 1986W        W74312  31.135  30.568   0.640
 1987W        W74313  30.869   1.927   2.764
 1988W        W74314  10.178   5.648  14.725
 1989W        W74315  37.021  13.660   9.672
 1990W        W74316  12.661  34.675  10.461
 1991W        W74317  18.276   0.855  12.518
 1992W        W74318  37.911  42.756   4.174
 1993W        W74319   2.429  14.635  13.889
 1994W        W74320  18.866  28.134   3.274
 1995W        W74321   5.403   7.837   3.725
 1996W        W74322   6.917  43.971   4.981
 1997W        W74323   4.904  18.516  12.880
 1998W        W74324   2.421  29.920  13.892
 1999W        W74325  27.737  35.881   0.954
 2000W        W74326   9.861   4.248   3.324
 2001W        W74327   0.290   8.557   3.292
 2002W        W74328  40.935  33.935   4.087
 2003W        W74329  32.681  33.175   4.238
 2004W        W74330  39.911  15.937   1.567
 2005W        W74331   6.401  34.874  14.369
 2006W        W74332  25.889   5.820  12.022
 2007W        W74333  37.398  43.034  11.005
 2008W        W74334  36.288  36.161  12.621
 2009W        W74335   6.407  19.779  11.532
 2010W        W74336  44.800  31.193   0.251
 2011W        W74337   4.367   4.499   4.610
 2012W        W74338  40.344  38.378  13.454
 2013W        W74339  17.001  22.006  12.458
 2014W        W74340  34.589   7.957   3.947
 2015W        W74341  26.052  17.295  13.085
 2016W        W74342  16.273  25.717   1.803
 2017W        W74343  15.298  10.205   1.720
 2018W        W74344  20.697  24.529  10.757
 2019W        W74345  19.761  12.486  14.394
 2020W        W74346   9.785   7.008   1.961
 2021W        W74347  22.937  37.498  11.496
 2022W        W74348  27.358  36.560  10.708
 2023W        W74349  38.366  23.543  10.949
 2024W        W74350  10.406  21.691  11.090
 2025W        W74351  26.647  44.978  12.573
 2026W        W74352  16.166  30.100   2.230
 2027W        W74353  37.318   8.921   1.776
 2028W        W74354   1.420  16.223   3.625
 2029W        W74355  27.740  38.348  11.598
 2030W        W74356  26.030  30.186  12.984
 2031W        W74357  18.755  11.495  11.402
 2032W        W74358   3.417  42.005   4.932
 2033W        W74359  35.916  40.097   2.371
 2034W        W74360  12.641  10.313   1.678
 2035W        W74361  17.325  23.982   0.195
 2036W        W74362  30.999  31.253  13.082
 2037W        W74363  30.658  29.658  13.904
 2038W        W74364   5.939  22.806   3.708
 2039W        W74365  15.003  20.005  14.975
 2040W        W74366  18.811  18.002  13.109
 2041W        W74367  44.221  40.156   2.401
 2042W        W74368   3.398   0.181   2.188
 2043W        W74369  11.210  16.195   2.392
 2044W        W74370  44.458  17.526  10.191
 2045W        W74371   5.641  11.863   0.747
 2046W        W74372   9.032  16.498  14.511
 2047W        W74373  41.966  24.490  14.462
 2048W        W74374  11.237  26.159   1.530
 2049W        W74375  13.234  38.947   1.477
 2050W        W74376  34.086  27.944   0.788
 2051W        W74377   4.929  12.308  13.006
 2052W        W74378  37.646   4.654   3.143
 2053W        W74379  16.559  42.930  13.315
 2054W        W74380  41.103  34.078   1.282
 2055W        W74381  21.045   1.863   3.179
 2056W        W74382  11.250   8.653   0.401
 2057W        W74383   9.959  11.134   0.811
 2058W        W74384  38.339  36.098  11.622
 2059W        W74385  26.905  34.349   3.217
 2060W        W74386   2.709  25.529  11.114
 2061W        W74387  18.216  22.470   4.578
 2062W        W74388  11.723  37.507   1.827
 2063W        W74389  11.118  31.438   2.997
 2064W        W74390  38.445  14.315   3.006
 2065W        W74391  18.352  26.121   4.460
 2066W        W74392   9.693  19.297  12.572
 2067W        W74393  30.092   0.370  11.998
 2068W        W74394  12.759  44.513   2.815
 2069W        W74395  27.491  10.615  12.141
 2070W        W74396  26.970   7.210   0.278
 2071W        W74397  19.604  31.132   3.724
 2072W        W74398  19.607  15.617   3.677
 2073W        W74399  13.225  28.212  11.543
 2074W        W74400   2.874  24.511   4.260
 2075W        W74401  23.863  11.693   3.584
 2076W        W74402  20.253  20.991   2.749
 2077W        W74403  32.591  42.298   4.586
 2078W        W74404  40.919   8.288   1.795
 2079W        W74405  20.598  42.402   1.286
 2080W        W74406  14.306  41.304  14.399
 2081W        W74407  42.053  16.163  11.247
 2082W        W74408  43.769  10.719   3.678
 2083W        W74409  44.864  42.488  11.463
 2084W        W74410  11.763  33.786   2.204
 2085W        W74411  18.801  13.921   4.466
 2086W        W74412  21.312   5.923   2.285
 2087W        W74413  41.968  33.187  13.840
 2088W        W74414  23.204  12.844   1.908
 2089W        W74415  29.623   2.485  12.456
 2090W        W74416  23.554  24.912   2.712
 2091W        W74417  35.054  22.989  13.105
 2092W        W74418  32.050  40.787  11.348
 2093W        W74419   5.341   4.344   4.614
 2094W        W74420  23.114  31.416   3.721
 2095W        W74421  42.179   8.821   1.645
 2096W        W74422   1.949   8.605   0.974
 2097W        W74423  40.044  24.957   4.736
 2098W        W74424  27.254  31.082  12.576
 2099W        W74425   5.878   5.971   2.254
 2100W        W74426  32.156  27.937  14.217
 2101W        W74427  32.085  12.933   1.908
 2102W        W74428  25.849   3.874  12.675
 2103W        W74429   2.658  38.061  10.631
 2104W        W74430   9.376  29.205   2.749
 2105W        W74431  18.635   3.795  14.267
 2106W        W74432  34.317   6.799  12.457
 2107W        W74433  43.431  21.622   4.907
 2108W        W74434   0.801  34.746   0.816
 2109W        W74435  28.107  13.556  10.648
 2110W        W74436   3.181  43.559   4.940
 2111W        W74437  23.099  40.265   3.229
 2112W        W74438  27.551   5.087   3.130
 2113W        W74439  26.188   9.189  14.254
 2114W        W74440  23.346  17.657   0.412
 2115W        W74441  18.050  18.089  14.240
 2116W        W74442  21.597  39.941  14.403
 2117W        W74443  18.538  15.264   4.220
 2118W        W74444   7.441  23.722  14.572
 2119W        W74445   5.336  18.579  13.550
 2120W        W74446  24.020   2.836  12.066
 2121W        W74447  29.164   0.396   1.862
 2122W        W74448  18.642  30.040   2.988
 2123W        W74449  24.101  36.567  11.172
 2124W        W74450  26.460   5.203  14.970
 2125W        W74451  21.858   7.356   1.215
 2126W        W74452   8.162  37.525   2.843
 2127W        W74453  35.450  23.927  13.913
 2128W        W74454  29.782  18.875   1.453
 2129W        W74455  12.460  40.305  11.909
 2130W        W74456  11.839  25.205   3.103
 2131W        W74457  37.074  10.342   2.629
 2132W        W74458  27.484   7.850   3.835
 2133W        W74459  10.700  36.898   4.213
 2134W        W74460   1.988  39.539  11.633
 2135W        W74461  13.176  15.604  13.934
 2136W        W74462  11.355   1.572   0.675
 2137W        W74463  20.259   4.915  10.669
 2138W        W74464  17.632  17.763  14.565
 2139W        W74465  10.621   9.976   1.809
 2140W        W74466   3.253   0.686  11.970
 2141W        W74467  19.136  21.220   0.752
 2142W        W74468  27.417  18.698   1.921
 2143W        W74469   2.672  31.503  14.949
 2144W        W74470  40.782   8.901   0.924
 2145W        W74471  36.961   1.988   3.856
 2146W        W74472  27.988  41.533  12.384
 2147W        W74473  10.807   9.884  11.638
 2148W        W74474   4.652  35.746  11.916
 2149W        W74475  23.825   5.558  14.332
 2150W        W74476   6.953  18.413  10.985
 2151W        W74477  25.602  17.476   5.025
 2152W        W74478  11.377   7.374  11.896
 2153W        W74479  17.342  39.513  12.427
 2154W        W74480  19.110   2.768  12.016
 2155W        W74481   5.006  22.835   2.741
 2156W        W74482  13.869  21.177  11.611
 2157W        W74483  35.388  14.579   2.793
 2158W        W74484  25.267  12.133   4.244
 2159W        W74485  31.205   7.145  11.542
 2160W        W74486  31.638  17.231  13.746
 2161W        W74487  24.287  11.856   2.688
 2162W        W74488  29.709  26.330   1.743
 2163W        W74489   8.160  42.857   3.875
 2164W        W74490  29.415  11.262   2.364
 2165W        W74491   2.555  29.998  11.204
 2166W        W74492  19.636  34.008  11.260
 2167W        W74493   3.752   2.508   0.335
 2168W        W74494  26.000   2.418   0.403
 2169W        W74495   9.599  40.133   2.674
 2170W        W74496   6.845  42.308  13.945
 2171W        W74497  16.706  24.718   3.771
 2172W        W74498  15.701  32.666   1.279
 2173W        W74499  26.226  29.497  14.173
 2174W        W74500  25.552  28.680  10.698
 2175W        W74501  10.645  22.111  14.946
 2176W        W74502  33.390   9.589  13.229
 2177W        W74503  37.302  32.461   0.344
 2178W        W74504  40.952   8.286  11.889
 2179W        W74505   2.862  34.448   3.728
 2180W        W74506  34.636   9.704  14.276
 2181W        W74507   0.699  22.130  13.475
 2182W        W74508  10.338   6.914   0.245
 2183W        W74509  35.804  29.010   0.257
 2184W        W74510  34.786  40.728  13.850
 2185W        W74511  28.856  30.446   1.141
 2186W        W74512   7.355  14.728  10.930
 2187W        W74513  35.824  10.888  14.852
 2188W        W74514  25.288   0.771   4.569
 2189W        W74515  17.889  27.298   3.810
 2190W        W74516  23.913  16.632   0.819
 2191W        W74517   8.840  24.499  10.838
 2192W        W74518  38.064  23.085  13.296
 2193W        W74519  20.069  19.158   4.703
 2194W        W74520  43.821   9.641  14.056
 2195W        W74521  20.555  42.963   3.650
 2196W        W74522   3.219  25.607   4.935
 2197W        W74523  35.508  30.571   2.284
 2198W        W74524  34.587   0.971  13.108
 2199W        W74525  39.862  15.840   2.106
 2200W        W74526  34.869   1.266  14.358
 2201W        W74527   8.867  28.468   1.159
 2202W        W74528  22.236  22.051  12.863
 2203W        W74529  40.005  11.024  10.672
 2204W        W74530  12.577  30.548  13.543
 2205W        W74531   3.657   4.728   1.920
 2206W        W74532  21.563   3.259  10.640
 2207W        W74533  26.534  24.248  13.342
 2208W        W74534  44.020  12.133  10.307
 2209W        W74535  20.235  22.161   2.789
 2210W        W74536  40.807  10.293  14.504
 2211W        W74537  15.076  18.642   2.734
 2212W        W74538  43.486  12.409   3.276
 2213W        W74539  33.048  26.530  11.952
 2214W        W74540  19.292  32.860  12.128
 2215W        W74541   2.454   4.463  11.061
 2216W        W74542  15.615  37.400   3.751
 2217W        W74543   7.715   8.588   4.213
 2218W        W74544  33.557  33.297  14.756
 2219W        W74545  32.342   3.725   4.206
 2220W        W74546  12.591   1.008   2.772
 2221W        W74547  33.087   5.177   0.404
 2222W        W74548   3.270  23.981   4.333
 2223W        W74549   4.525   4.865  14.946
 2224W        W74550  33.453  44.548  14.039
 2225W        W74551  26.007  15.136   3.352
 2226W        W74552  40.065  44.715   4.795
 2227W        W74553  23.929  26.660   0.560
 2228W        W74554   6.812  23.173  12.945
 2229W        W74555  23.040  20.218  14.253
 2230W        W74556  24.981  10.191  11.008
 2231W        W74557  12.804  33.412  13.074
 2232W        W74558  44.472  10.294  12.716
 2233W        W74559   5.624  13.149   2.841
 2234W        W74560   5.873   6.233  13.088
 2235W        W74561   6.922   8.693  11.948
 2236W        W74562   8.246   7.393  11.328
 2237W        W74563  37.563  20.750  14.809
 2238W        W74564  29.995  42.899  11.541
 2239W        W74565   2.027   6.394   2.210
 2240W        W74566  21.199  10.447  14.508
 2241W        W74567  32.402   1.483   0.524
 2242W        W74568  41.516   5.283   3.134
 2243W        W74569  42.051   3.622   3.782
 2244W        W74570  11.248  37.362   3.619
 2245W        W74571  29.920  23.462   2.308
 2246W        W74572  38.436  29.675  14.806
 2247W        W74573   9.727  26.126  11.067
 2248W        W74574  12.612  15.617  12.638
 2249W        W74575  41.054  22.142  13.301
 2250W        W74576  18.835  37.335   0.596
 2251W        W74577  36.920  21.937  12.106
 2252W        W74578  37.457   1.763   4.090
 2253W        W74579  26.619  30.963   1.043
 2254W        W74580   9.869  34.002   2.289
 2255W        W74581   6.820  33.043  14.394
 2256W        W74582   4.472   9.356  12.349
 2257W        W74583  17.221   1.377  10.907
 2258W        W74584  32.079   1.816   4.046
 2259W        W74585  36.099  19.235   4.640
 2260W        W74586  19.549   4.818  12.193
 2261W        W74587  32.606  30.059   4.183
 2262W        W74588  32.726  40.426  14.896
 2263W        W74589  26.860  27.353   3.608
 2264W        W74590  42.414  30.388   2.765
 2265W        W74591  32.251  14.427   4.197
 2266W        W74592   6.204  21.827   3.837
 2267W        W74593  19.353   1.800  14.042
 2268W        W74594  24.482  34.379   0.411
 2269W        W74595  35.012  11.696   2.694
 2270W        W74596  39.918  11.854  11.981
 2271W        W74597  11.925  36.007   3.097
 2272W        W74598  30.560   8.520   1.894
 2273W        W74599  39.121  36.532   1.771
 2274W        W74600  26.161   2.012   0.811
 2275W        W74601  29.518  32.612  13.472
 2276W        W74602   0.240  30.955   3.866
 2277W        W74603  29.678   9.823  14.985
 2278W        W74604   4.011  32.141   2.771
 2279W        W74605   2.402   4.788   1.382
 2280W        W74606  32.558   7.375   0.239
 2281W        W74607  28.158  13.259   4.104
 2282W        W74608   9.726  21.153  13.494
 2283W        W74609  39.870  21.212  14.360
 2284W        W74610  28.122  27.728   5.010
 2285W        W74611  34.236  18.242   3.694
 2286W        W74612  19.553  37.772   4.207
 2287W        W74613  16.949  43.945   4.046
 2288W        W74614  31.053  42.322  12.190
 2289W        W74615   3.727  35.414  14.421
 2290W        W74616  21.195  18.871   4.560
 2291W        W74617  36.821  43.907  10.391
 2292W        W74618  19.230  22.840   2.248
 2293W        W74619   9.468  16.151   4.210
 2294W        W74620  22.516  37.843  12.113
 2295W        W74621  31.677  27.138   0.404
 2296W        W74622   7.815  11.165  13.774
 2297W        W74623  22.634  29.935   2.293
 2298W        W74624  38.326  36.367  11.170
 2299W        W74625  43.709  19.988   2.788
 2300W        W74626  22.095  37.293  12.426
 2301W        W74627  15.817  23.687   3.122
 2302W        W74628  34.434   0.384  11.522
 2303W        W74629  42.206  22.234   1.424
 2304W        W74630  15.269  43.458  11.874
 2305W        W74631   1.113  38.933   3.790
 2306W        W74632  25.517  31.972   2.818
 2307W        W74633   4.295  11.650   4.211
 2308W        W74634   8.415  31.251  13.580
 2309W        W74635  16.248  44.781  13.619
 2310W        W74636   1.319  29.182  10.191
 2311W        W74637  43.204  43.432   3.359
 2312W        W74638  39.665  25.383  11.101
 2313W        W74639  42.491  20.793   3.365
 2314W        W74640  30.430   5.982  11.897
 2315W        W74641  25.285   1.556  12.056
 2316W        W74642  11.863  21.079   2.492
 2317W        W74643  35.113  21.278  11.452
 2318W        W74644  12.930  26.024   3.694
 2319W        W74645  44.386  33.570  14.501
 2320W        W74646  42.886  40.456   3.422
 2321W        W74647   3.516  37.209   0.844
 2322W        W74648  42.373   4.495   3.760
 2323W        W74649   8.760  19.671  10.347
 2324W        W74650  34.651  25.670  13.090
 2325W        W74651  21.227  14.723  12.457
 2326W        W74652  28.620  41.521   1.593
 2327W        W74653  33.910  43.352  10.789
 2328W        W74654  22.267  27.495   0.213
 2329W        W74655  44.267   0.019   3.363
 2330W        W74656  32.880  24.380   0.444
 2331W        W74657  41.966  24.046  13.332
 2332W        W74658  22.600  11.163   0.656
 2333W        W74659   6.749  23.106  10.518
 2334W        W74660  23.772  37.391  12.406
 2335W        W74661   5.805  41.297   1.161
 2336W        W74662   9.310  17.298  11.150
 2337W        W74663  21.460  33.937   4.842
 2338W        W74664  41.599  20.035   2.684
 2339W        W74665  44.883  28.538   2.637
 2340W        W74666  21.803  26.714  11.295
 2341W        W74667  26.422   1.524  11.494
 2342W        W74668  30.549   0.387   4.684
 2343W        W74669   3.041  35.887   4.458
 2344W        W74670  13.685  39.796   0.439
 2345W        W74671  11.905  38.960  10.149
 2346W        W74672  21.712  17.687  13.115
 2347W        W74673  26.277  30.176  14.350
 2348W        W74674  32.465  20.245  13.129
 2349W        W74675   3.419   2.934  12.787
 2350W        W74676  12.585  21.481   0.828
 2351W        W74677   1.281  33.439   1.303
 2352W        W74678  15.071  23.104   3.308
 2353W        W74679  37.284  35.473  12.060
 2354W        W74680  11.810   4.119   0.908
 2355W        W74681   7.800  23.219   1.800
 2356W        W74682  39.154  13.788  12.073
 2357W        W74683  40.541  26.621  11.961
 2358W        W74684   3.026  24.440   2.185
 2359W        W74685  24.826  17.612   4.605
 2360W        W74686  37.196  31.600   0.330
 2361W        W74687  11.454  32.854  14.365
 2362W        W74688   1.127  15.476   4.582
 2363W        W74689   7.250  37.120   4.605
 2364W        W74690  33.140  17.800  12.573
 2365W        W74691  13.793   2.880  14.099
 2366W        W74692   7.498  13.528  12.415
 2367W        W74693  37.840  21.183   0.510
 2368W        W74694  39.336  19.723  12.437
 2369W        W74695   7.325   3.760  14.077
 2370W        W74696  19.845  25.711  14.050
 2371W        W74697  38.079  38.580  13.396
 2372W        W74698  34.980  42.871   0.446
 2373W        W74699   7.138  33.996  11.908
 2374W        W74700  25.572   6.827  10.767
 2375W        W74701   6.273   5.928  12.329
 2376W        W74702  24.781  23.632  13.807
 2377W        W74703   2.973  14.819   1.241
 2378W        W74704  14.280  43.553   1.674
 2379W        W74705  44.314  42.085  14.683
 2380W        W74706  43.012  22.236   4.690
 2381W        W74707  18.278  39.596   1.912
 2382W        W74708  21.554  19.806  12.483
 2383W        W74709  33.456  39.805   0.887
 2384W        W74710  29.024  23.436  11.139
 2385W        W74711  29.853   9.767  12.911
 2386W        W74712  30.154   9.652  11.972
 2387W        W74713   3.771  31.956  13.349
 2388W        W74714  31.499   3.014   0.914
 2389W        W74715  22.730   4.880  12.881
 2390W        W74716   2.390   8.883   1.008
 2391W        W74717  23.516   6.904   0.907
 2392W        W74718   6.725  43.224   3.252
 2393W        W74719  39.903  34.038  13.119
 2394W        W74720  15.707  19.385  13.471
 2395W        W74721  20.714   9.721   2.935
 2396W        W74722  31.778  32.486   4.558
 2397W        W74723  22.442  33.547  13.294
 2398W        W74724  36.565   8.801  13.362
 2399W        W74725  23.634  18.317   2.576
 2400W        W74726   8.627  19.153  13.461
 2401W        W74727   7.784   5.114  10.981
 2402W        W74728  19.516  19.832   0.057
 2403W        W74729   2.352  20.702   2.638
 2404W        W74730  10.236  17.094   0.381
 2405W        W74731  33.952  18.682   3.547
 2406W        W74732  37.488  44.263   0.621
 2407W        W74733   7.550  26.192  13.504
 2408W        W74734  40.775  40.332  12.499
 2409W        W74735   9.352   3.896  13.093
 2410W        W74736  30.788  27.030   4.906
 2411W        W74737   9.227  35.607   0.975
 2412W        W74738  29.990   9.993   2.812
 2413W        W74739   3.399   4.205   2.636
 2414W        W74740  27.782  32.677  11.021
 2415W        W74741  17.679  21.783  13.600
 2416W        W74742  12.615   2.519  13.616
 2417W        W74743  24.074  25.075   0.781
 2418W        W74744  44.898  19.804   3.314
 2419W        W74745   3.195  28.720   1.473
 2420W        W74746   5.269  25.668   4.537
 2421W        W74747  25.192  10.873   4.782
 2422W        W74748  14.709  18.143  13.603
 2423W        W74749  23.184  42.248  12.601
 2424W        W74750  15.368  28.445  12.063
 2425W        W74751  31.247   2.886   2.852
 2426W        W74752  43.839   4.929  13.041
 2427W        W74753  21.585  28.695   3.616
 2428W        W74754   1.408  12.863  12.497
 2429W        W74755  38.581   5.637  14.269
 2430W        W74756   8.283   8.688  13.832
 2431W        W74757   9.291  24.494  10.406
 2432W        W74758   4.707  18.036  12.830
 2433W        W74759  34.872  16.578   4.587
 2434W        W74760  18.361  44.349   4.089
 2435W        W74761  24.653   4.001   0.481
 2436W        W74762  32.390  41.088   2.180
 2437W        W74763  33.421  22.501   4.468
 2438W        W74764  10.846   3.914   0.433
 2439W        W74765  31.848   2.169   1.472
 2440W        W74766   5.916   6.326  10.988
 2441W        W74767   9.152  42.493  13.879
 2442W        W74768  44.864  10.202   4.566
 2443W        W74769  43.187  21.156   3.312
 2444W        W74770  43.212  39.457   2.818
 2445W        W74771  24.759  11.286   1.363
 2446W        W74772  35.281  34.395  13.994
 2447W        W74773  29.466  41.029   2.849
 2448W        W74774  23.126  14.037  14.490
 2449W        W74775  16.926  26.847   0.540
 2450W        W74776   8.672  15.570  14.349
 2451W        W74777  13.724  14.249   1.314
 2452W        W74778  10.308   6.719  11.292
 2453W        W74779  23.033  15.398   0.263
 2454W        W74780  30.180  35.910   3.590
 2455W        W74781  28.619  42.625  13.483
 2456W        W74782  32.082  41.633   4.323
 2457W        W74783  42.548  27.467   2.755
 2458W        W74784   6.468  27.828   3.037
 2459W        W74785   3.781  25.433  10.657
 2460W        W74786   5.722  39.752   0.475
 2461W        W74787   1.908  43.494   3.675
 2462W        W74788   4.837   6.881   3.216
 2463W        W74789   7.796  41.488  11.471
 2464W        W74790   6.456  23.109   1.752
 2465W        W74791  24.254   7.920  13.399
 2466W        W74792  44.951  26.676  12.970
 2467W        W74793  17.229  30.431   0.975
 2468W        W74794  19.211  38.272  14.864
 2469W        W74795  37.907  42.129   0.838
 2470W        W74796  12.133   5.459   3.296
 2471W        W74797  27.996   4.346   2.758
 2472W        W74798  31.043   4.196   4.102
 2473W        W74799   8.316  35.078  13.277
 2474W        W74800   8.630   5.288   0.119
 2475W        W74801  20.539  37.039   2.716
 2476W        W74802   0.721  26.953  14.571
 2477W        W74803  38.756  13.035   3.897
 2478W        W74804  23.043  16.733   3.792
 2479W        W74805  39.429   6.025  13.487
 2480W        W74806  22.054  11.337  14.807
 2481W        W74807  13.792   0.511   3.339
 2482W        W74808  14.997  20.537   1.278
 2483W        W74809  40.518  43.770  11.243
 2484W        W74810  33.066  17.607  13.053
 2485W        W74811  32.452  33.857  12.237
 2486W        W74812  18.609  10.228   1.257
 2487W        W74813  21.570  18.522  13.016
 2488W        W74814  23.498   4.890  13.750
 2489W        W74815  24.638   5.238   2.261
 2490W        W74816  17.588  32.899   2.387
 2491W        W74817  26.276   9.722  11.515
 2492W        W74818   1.097   1.306  13.479
 2493W        W74819  12.913  25.061  12.172
 2494W        W74820  22.762  33.817  11.040
 2495W        W74821  21.099   3.821   1.346
 2496W        W74822  23.189  35.626   2.360
 2497W        W74823  38.057  44.544  13.737
 2498W        W74824  13.712  12.899   2.780
 2499W        W74825  35.614  43.370   0.036
 2500W        W74826  25.061  12.333   1.850
 2501W        W74827  36.539  32.418  14.485
 2502W        W74828   6.396   9.534  12.932
 2503W        W74829   0.424  31.820  11.186
 2504W        W74830   7.384  13.074  12.863
 2505W        W74831  22.276  34.052  11.048
 2506W        W74832   9.493  34.871  11.540
 2507W        W74833  36.258  39.146   4.716
 2508W        W74834   7.663   5.928  13.462
 2509W        W74835  28.222   5.891  14.373
 2510W        W74836   7.592  37.226  10.255
 2511W        W74837   8.863  37.317  12.382
 2512W        W74838  23.366  22.670   1.862
 2513W        W74839  17.799   8.097   0.115
 2514W        W74840  30.046   8.274   4.184
 2515W        W74841  18.878  32.481   1.348
 2516W        W74842  11.503  25.906   4.209
 2517W        W74843  41.267  33.357  14.907
 2518W        W74844  12.036  33.406   3.638
 2519W        W74845  14.790   4.661  13.570
 2520W        W74846  26.467  39.927   4.870
 2521W        W74847   0.515   6.475   1.245
 2522W        W74848  13.087  39.441   1.575
 2523W        W74849  39.987  44.137   0.377
 2524W        W74850  26.107  17.528  11.150
 2525W        W74851  41.357  21.238  12.138
 2526W        W74852  38.926   2.857   4.236
 2527W        W74853  40.944  36.778  14.246
 2528W        W74854  33.605  19.666   3.753
 2529W        W74855  26.368  20.314  11.322
 2530W        W74856  24.216  40.102   1.776
 2531W        W74857  13.621  27.537  14.565
 2532W        W74858  18.202   3.178  11.152
 2533W        W74859  30.174  40.031  12.377
 2534W        W74860  17.353  32.031   3.290
 2535W        W74861  28.316  43.805   0.813
 2536W        W74862  18.731   0.017   3.554
 2537W        W74863  39.543  27.545   0.049
 2538W        W74864  14.442  30.549  13.700
 2539W        W74865  38.537  16.265  12.136
 2540W        W74866  42.032   2.253  13.858
 2541W        W74867  30.953  42.535  10.693
 2542W        W74868   3.500  28.087  11.117
 2543W        W74869   5.451  44.312  10.680
 2544W        W74870  30.414  26.172   1.253
 2545W        W74871  34.057  29.481  14.740
 2546W        W74872  43.614  41.909   0.417
 2547W        W74873   5.458  24.497  14.774
 2548W        W74874   9.361  35.506   4.627
 2549W        W74875  27.561  10.415  13.725
 2550W        W74876  28.963  29.189   2.962
 2551W        W74877   5.156  43.788   3.929
 2552W        W74878  27.487  12.377   5.022
 2553W        W74879   5.447  20.591  12.982
 2554W        W74880  43.344  35.766  11.484
 2555W        W74881   7.393  36.580   4.574
 2556W        W74882  36.775  33.407  12.474
 2557W        W74883  21.356  18.955   2.700
 2558W        W74884  35.534   1.485   0.469
 2559W        W74885  32.260   7.863   2.358
 2560W        W74886  21.819   0.543   0.108
 2561W        W74887  15.807  26.571  11.906
 2562W        W74888  28.203  26.982  11.290
 2563W        W74889   5.040  36.624  11.181
 2564W        W74890   5.610  36.347   3.441
 2565W        W74891  23.800  23.528  12.580
 2566W        W74892  12.822  11.135   4.391
 2567W        W74893  23.146  16.717   4.298
 2568W        W74894   5.198  13.697  11.152
 2569W        W74895  25.860   5.550  13.978
 2570W        W74896   0.979   0.339   1.779
 2571W        W74897  29.635  30.026   3.264
 2572W        W74898  30.668  17.943   0.484
 2573W        W74899   2.635  36.268  14.265
 2574W        W74900  19.051  38.523  12.368
 2575W        W74901  38.083  41.218   0.974
 2576W        W74902  19.590  10.313   3.783
 2577W        W74903  32.063  19.373  13.321
 2578W        W74904  38.935  19.908  13.808
 2579W        W74905  28.655   0.962  13.488
 2580W        W74906  34.748  15.860   2.915
 2581W        W74907  17.350  17.251  10.716
 2582W        W74908  35.476  27.477   1.259
 2583W        W74909   3.288   7.217   0.649
 2584W        W74910  17.776  43.342  13.493
 2585W        W74911   6.619  20.951   1.397
 2586W        W74912   0.926  10.952   3.476
 2587W        W74913  19.344  26.241  11.630
 2588W        W74914  34.092  13.242  12.428
 2589W        W74915  42.226   5.700   4.302
 2590W        W74916  27.250  40.435   4.168
 2591W        W74917  35.535  16.165   3.241
 2592W        W74918  36.248  39.658   4.802
 2593W        W74919  41.841  15.458  10.009
 2594W        W74920  14.699  16.639  14.002
 2595W        W74921  41.851  17.640  13.806
 2596W        W74922  10.030  19.030  14.428
 2597W        W74923  44.994  44.236  13.954
 2598W        W74924  17.274  18.089  10.669
 2599W        W74925  19.910   0.949  11.585
 2600W        W74926  23.688  10.686  12.181
 2601W        W74927  18.176  27.311  12.435
 2602W        W74928   3.548  34.629   1.614
 2603W        W74929  37.102  17.169   0.333
 2604W        W74930  34.565   6.194   4.330
 2605W        W74931   5.445   9.558  13.023
 2606W        W74932   6.338   7.301   4.722
 2607W        W74933   3.678  40.859   2.719
 2608W        W74934  44.491  18.637  10.264
 2609W        W74935  39.280  13.123   3.333
 2610W        W74936  35.513  37.385  10.590
 2611W        W74937  42.325   4.995  12.543
 2612W        W74938  40.168  43.751   3.630
 2613W        W74939  41.988  32.990  14.482
 2614W        W74940  27.015  18.578   4.136
 2615W        W74941  29.893  36.915  14.066
 2616W        W74942  44.349  21.180   2.268
 2617W        W74943   5.419  26.918  11.071
 2618W        W74944  33.614  26.051   1.686
 2619W        W74945  44.437  36.954   4.894
 2620W        W74946  43.939  43.261   2.744
 2621W        W74947  42.488   2.295   4.755
 2622W        W74948  43.387  13.555   2.419
 2623W        W74949  24.518  17.562  11.955
 2624W        W74950  12.918  23.292   2.185
 2625W        W74951  43.197  12.787  13.939
 2626W        W74952  33.416  31.073  11.731
 2627W        W74953  37.040  14.936  14.786
 2628W        W74954  40.423  22.977  12.521
 2629W        W74955  34.839  25.994   4.027
 2630W        W74956  44.116  14.216  12.444
 2631W        W74957  31.289  31.703  13.028
 2632W        W74958  18.991  38.854  11.067
 2633W        W74959   1.748  39.770  12.510
 2634W        W74960  15.833  36.947   0.484
 2635W        W74961  17.540  30.465  10.728
 2636W        W74962  19.019  36.340   1.403
 2637W        W74963  17.746  40.327  12.094
 2638W        W74964  44.914  21.951  11.944
 2639W        W74965  37.977  23.038   0.998
 2640W        W74966  17.211  35.178  14.094
 2641W        W74967  27.993  38.790   3.693
 2642W        W74968  43.853   6.713   0.305
 2643W        W74969  20.031  37.008   3.782
 2644W        W74970  22.598  22.962   1.394
 2645W        W74971  31.963  16.794   2.151
 2646W        W74972  43.265  11.218  10.773
 2647W        W74973  11.215  38.050   1.395
 2648W        W74974  17.041  16.510  14.495
 2649W        W74975   7.100  43.374  13.034
 2650W        W74976  38.601  21.074  14.847
 2651W        W74977   4.649  12.747   3.376
 2652W        W74978   2.941  41.809  12.054
 2653W        W74979  39.613  12.666  11.061
 2654W        W74980  19.293  12.180   1.769
 2655W        W74981  37.741   1.876  12.937
 2656W        W74982  35.607  22.502   3.367
 2657W        W74983  33.833  35.069   4.479
 2658W        W74984   1.326  39.510  13.810
 2659W        W74985  28.071  42.247  13.290
 2660W        W74986  33.508  15.633  13.547
 2661W        W74987  24.015  10.755  14.422
 2662W        W74988   1.416   8.291  11.711
 2663W        W74989  28.522  24.003  14.733
 2664W        W74990  41.990  26.245  14.926
 2665W        W74991  27.619  42.333   0.440
 2666W        W74992   2.809  21.992   4.103
 2667W        W74993  36.960   5.703  12.161
 2668W        W74994  22.638  35.948  14.939
 2669W        W74995  40.393  17.659   0.549
 2670W        W74996  43.171  10.862  11.904
 2671W        W74997   5.901  14.577  11.493
 2672W        W74998  24.670  29.671  13.463
 2673W        W74999  41.378  13.815  12.596
 2674W        W75000  32.020  37.222   1.785
 2675W        W75001  14.355  33.093  14.474
 2676W        W75002  32.463  14.000  14.406
 2677W        W75003  35.780  42.967  13.574
 2678W        W75004  16.091  24.118  12.452
 2679W        W75005   6.516  10.322   4.113
 2680W        W75006  11.680   7.495  12.430
 2681W        W75007  12.532  26.129   5.024
 2682W        W75008  33.072  19.606  13.377
 2683W        W75009  35.896  10.351  12.048
 2684W        W75010  33.970  23.861   4.240
 2685W        W75011  23.559  29.667   3.085
 2686W        W75012   8.093  42.278  10.929
 2687W        W75013  26.068  28.419   4.091
 2688W        W75014  13.733   1.518  14.352
 2689W        W75015  14.485   7.161   1.014
 2690W        W75016  31.159  21.292   3.843
 2691W        W75017   1.200  40.838  13.995
 2692W        W75018  36.023  19.322   3.773
 2693W        W75019  22.725  10.495  11.051
 2694W        W75020  29.016  15.678  10.712
 2695W        W75021  19.807  10.948  14.986
 2696W        W75022  41.891   3.918   1.654
 2697W        W75023  15.828  22.019  10.602
 2698W        W75024  39.896  43.800  14.994
 2699W        W75025   6.159   7.792   2.601
 2700W        W75026  31.694  29.596  14.997
 2701W        W75027  11.521  30.912  12.838
 2702W        W75028  29.778   1.174  13.103
 2703W        W75029   1.614  27.068  13.397
 2704W        W75030  21.608  12.210   3.152
 2705W        W75031  42.523  22.078   3.718
 2706W        W75032  29.683  42.717   3.214
 2707W        W75033  34.011  25.611   3.811
 2708W        W75034  35.284  11.129   0.704
 2709W        W75035   2.340  26.835  13.587
 2710W        W75036  29.194  26.426  14.556
 2711W        W75037   4.129  43.490   4.633
 2712W        W75038   9.650  35.787   2.174
 2713W        W75039  13.658  10.858   3.679
 2714W        W75040  14.763  36.071  11.971
 2715W        W75041  41.848  28.200  11.232
 2716W        W75042  30.668   2.268  13.986
 2717W        W75043  34.129  20.755  14.401
 2718W        W75044  13.843  42.561  14.889
 2719W        W75045   7.386   9.535  12.305
 2720W        W75046  28.124  27.715  11.594
 2721W        W75047   4.281  43.881   3.223
 2722W        W75048  11.739   6.358   4.149
 2723W        W75049  22.595  12.287  14.861
 2724W        W75050   4.353  29.279  13.513
 2725W        W75051   7.089  14.353   1.302
 2726W        W75052  23.963  34.543   0.473
 2727W        W75053  30.899   7.243   2.245
 2728W        W75054  22.086  13.385   4.283
 2729W        W75055   3.903  44.710  14.809
 2730W        W75056  23.702  42.714  14.835
 2731W        W75057  18.653  31.652   2.869
 2732W        W75058  34.942   7.833   1.856
 2733W        W75059  35.517  44.541   3.817
 2734W        W75060  13.322  10.133  12.381
 2735W        W75061   2.078  27.294   1.318
 2736W        W75062   4.287  15.054   2.286
 2737W        W75063   5.995  22.033   1.679
 2738W        W75064  20.515  34.050   0.041
 2739W        W75065  12.683  30.727  10.729
 2740W        W75066  13.560  11.031  12.884
 2741W        W75067   3.876  29.994   0.904
 2742W        W75068   4.937   0.040   2.785
 2743W        W75069  41.805  30.399   0.305
 2744W        W75070   8.103  10.681  11.503
 2745W        W75071  17.610  12.803  10.604
 2746W        W75072   8.696  20.994   1.804
 2747W        W75073  24.634  17.089  13.982
 2748W        W75074  22.121  44.793  14.082
 2749W        W75075  15.604  20.724   3.700
 2750W        W75076  39.182  32.899  11.603
 2751W        W75077  29.548  43.804   1.285
 2752W        W75078  21.624  29.303  10.713
 2753W        W75079  33.307  31.478   5.022
 2754W        W75080   0.815  11.377   1.671
 2755W        W75081  11.612  40.304  12.972
 2756W        W75082  20.129  33.836   2.257
 2757W        W75083  31.971  18.174  10.636
 2758W        W75084  37.206  24.412  14.404
 2759W        W75085   7.466  42.400  12.061
 2760W        W75086   6.211  15.898  14.653
 2761W        W75087  24.786  41.701   1.177
 2762W        W75088  15.317  33.641  14.094
 2763W        W75089  12.767  36.632   1.833
 2764W        W75090   7.320  19.541   0.586
 2765W        W75091  22.091  11.231   1.873
 2766W        W75092   7.826  20.841  10.492
 2767W        W75093   4.936  31.683   4.185
 2768W        W75094  19.287  23.661   2.870
 2769W        W75095  40.110  15.537   4.956
 2770W        W75096  41.438  26.992   3.142
 2771W        W75097  32.892  31.802  14.511
 2772W        W75098  26.495   8.272  14.424
 2773W        W75099  35.037  19.201  10.717
 2774W        W75100  17.703  44.941  10.782
 2775W        W75101  44.860  38.675  10.375
 2776W        W75102  31.135  34.126  13.036
 2777W        W75103  13.299  36.930  11.001
 2778W        W75104   1.246   4.323   3.751
 2779W        W75105  23.954   5.066  13.995
 2780W        W75106  30.464   3.686  12.519
 2781W        W75107  39.966  33.487   0.898
 2782W        W75108  11.122  19.765   0.483
 2783W        W75109  11.046  27.337  11.137
 2784W        W75110  37.477  29.019  14.975
 2785W        W75111   6.199  32.572   4.932
 2786W        W75112  35.500  42.460  11.061
 2787W        W75113   2.995  28.157  11.155
 2788W        W75114  40.956   8.713   3.646
 2789W        W75115  16.807  35.410   3.711
 2790W        W75116  18.259  33.111  10.582
 2791W        W75117  26.968  42.354  12.667
 2792W        W75118  24.152   7.739   4.527
 2793W        W75119  35.611  26.434  11.225
 2794W        W75120  21.074  44.254  12.704
 2795W        W75121  10.314  36.414  12.539
 2796W        W75122  37.236  29.143  13.557
 2797W        W75123   8.378  35.498  12.976
 2798W        W75124  13.892  35.299  11.464
 2799W        W75125   0.673  36.501   4.022
 2800W        W75126  37.554  11.087  11.057
 2801W        W75127  16.555   7.286  12.523
 2802W        W75128  36.794  10.517  11.551
 2803W        W75129  30.225  41.011  14.451
 2804W        W75130  15.510  27.194  10.441
 2805W        W75131  37.924  21.091  11.031
 2806W        W75132  42.983  25.911  11.324
 2807W        W75133   3.242  44.878  10.671
 2808W        W75134  32.722  37.988  14.311
 2809W        W75135  12.574  12.656   1.953
 2810W        W75136  42.515  19.870  10.525
 2811W        W75137  28.084  28.480  13.575
 2812W        W75138  30.449  16.496   0.718
 2813W        W75139  17.921  34.360   3.190
 2814W        W75140  11.821  42.802  14.449
 2815W        W75141  27.063   1.439  14.069
 2816W        W75142  36.050  43.018   3.222
 2817W        W75143  25.526  35.116  13.925
 2818W        W75144  37.830  19.126  11.436
 2819W        W75145  21.146  28.595   2.351
 2820W        W75146  34.309  36.997  14.548
 2821W        W75147  29.133  26.079  13.005
 2822W        W75148  39.337  20.197   4.927
 2823W        W75149  20.517  35.057  12.920
 2824W        W75150  32.980   7.455   2.412
 2825W        W75151  40.789  36.468  13.315
 2826W        W75152  19.252   5.350  13.359
 2827W        W75153   1.703   2.155  13.707
 2828W        W75154  42.085   0.541  14.822
 2829W        W75155  11.402  26.178  12.193
 2830W        W75156  22.562   2.673   0.340
 2831W        W75157   0.561  21.228   4.216
 2832W        W75158   3.298  23.599   0.422
 2833W        W75159  13.789  15.284  13.754
 2834W        W75160  10.769  32.806  13.759
 2835W        W75161   6.673  10.299   1.274
 2836W        W75162  41.446  26.064   3.078
 2837W        W75163   0.334  24.251   1.707
 2838W        W75164  25.017  24.620  10.750
 2839W        W75165  15.691  40.556   3.110
 2840W        W75166   1.231   4.303  14.180
 2841W        W75167   2.860  23.706  10.252
 2842W        W75168  26.112  21.774   3.715
 2843W        W75169  25.157  38.522   0.794
 2844W        W75170  29.985  19.099  11.134
 2845W        W75171  40.876  28.199  13.854
 2846W        W75172  18.159   4.696  11.561
 2847W        W75173  25.184   0.806  14.645
 2848W        W75174  36.159   6.405   0.855
 2849W        W75175  32.879  17.249   2.268
 2850W        W75176   3.321   2.305   2.345
 2851W        W75177  18.317  24.280  14.383
 2852W        W75178   1.543  42.464  11.984
 2853W        W75179  16.508  28.635   4.068
 2854W        W75180  35.477  42.533   4.774
 2855W        W75181  36.611  16.714  10.182
 2856W        W75182   3.272  10.373   2.672
 2857W        W75183  22.135  10.334   2.403
 2858W        W75184   0.180   7.139   5.144
 2859W        W75185  41.774  42.902  12.715
 2860W        W75186   4.931   9.892  11.879
 2861W        W75187  26.040  18.017  13.880
 2862W        W75188   0.016  17.892  13.745
 2863W        W75189  23.460  16.854   0.993
 2864W        W75190  35.337  32.354  14.898
 2865W        W75191  38.356  12.636  11.451
 2866W        W75192  21.584   1.777  14.786
 2867W        W75193  16.089  37.065  10.918
 2868W        W75194  35.147  33.265   1.818
 2869W        W75195   3.493   6.355  14.311
 2870W        W75196   0.069   8.898  11.117
 2871W        W75197  29.964  18.881   2.795
 2872W        W75198  15.856  14.066   4.523
 2873W        W75199   3.502   0.974   0.380
 2874W        W75200  14.475  22.179  11.058
 2875W        W75201  23.454  15.536   5.025
 2876W        W75202  27.132   6.810  12.355
 2877W        W75203  29.634  43.209   4.671
 2878W        W75204  23.034  31.508  14.246
 2879W        W75205  11.688  42.331   1.189
 2880W        W75206  33.463  20.223  14.419
 2881W        W75207  26.479  33.464  10.283
 2882W        W75208  23.848  18.498  13.975
 2883W        W75209   5.355   4.389  11.907
 2884W        W75210   6.825  17.352   1.837
 2885W        W75211   5.719  18.074  12.996
 2886W        W75212   7.115  15.660   2.956
 2887W        W75213  44.343  30.055   2.596
 2888W        W75214  30.500  37.874  14.912
 2889W        W75215  35.367  34.575   3.303
 2890W        W75216   5.373  17.334   4.081
 2891W        W75217   3.910  40.186   4.278
 2892W        W75218  43.960  15.154  11.844
 2893W        W75219  29.486  29.690  13.424
 2894W        W75220  41.079  10.740   1.839
 2895W        W75221  41.890  39.182   4.560
 2896W        W75222  12.883  39.982  11.070
 2897W        W75223  37.800  20.366  10.548
 2898W        W75224  40.042  20.943   4.541
 2899W        W75225  22.980  32.478   4.165
 2900W        W75226  25.603  22.672  10.687
 2901W        W75227  19.136  25.714  12.976
 2902W        W75228  19.136  16.041   2.796
 2903W        W75229  32.891   3.410   2.381
 2904W        W75230  34.316   3.727  13.467
 2905W        W75231  20.109  40.030   2.725
 2906W        W75232  23.431   9.874  11.483
 2907W        W75233  26.407  14.709   0.327
 2908W        W75234  15.425  38.922  13.854
 2909W        W75235  20.282   5.807  14.754
 2910W        W75236  30.995  36.111   0.852
 2911W        W75237  42.891   9.352  14.326
 2912W        W75238  29.463  42.421  13.819
 2913W        W75239  20.138  40.737   2.280
 2914W        W75240  26.651  32.947   3.731
 2915W        W75241  33.281  11.348   1.857
 2916W        W75242  37.863   2.775   4.409
 2917W        W75243  35.910   7.781  12.079
 2918W        W75244   2.542  24.684   2.757
 2919W        W75245   7.219  28.968  11.876
 2920W        W75246  11.910   3.768  14.076
 2921W        W75247  18.079   4.627  12.907
 2922W        W75248   8.369   7.350   4.899
 2923W        W75249   9.253  42.347  10.372
 2924W        W75250  15.491  15.199   1.987
 2925W        W75251   0.985  13.299   4.578
 2926W        W75252  28.699   0.130  13.897
 2927W        W75253   0.419  12.119  11.583
 2928W        W75254   8.551  17.655  13.400
 2929W        W75255  44.872  24.708  13.869
 2930W        W75256   3.993   3.720  14.499
 2931W        W75257   3.996  11.302   1.265
 2932W        W75258  20.288  44.510   4.158
 2933W        W75259  42.496  26.039   0.009
 2934W        W75260  13.751   6.147   4.554
 2935W        W75261  40.977  24.024   2.159
 2936W        W75262  29.385  27.729  13.536
 2937W        W75263   5.958  11.706   1.256
 2938W        W75264   3.886  22.823   4.521
 2939W        W75265  25.711  24.455  11.108
 2940W        W75266   3.127  17.266   0.241
 2941W        W75267   5.862  24.512   1.929
 2942W        W75268  17.090  37.945  14.332
 2943W        W75269  32.816  26.019  11.873
 2944W        W75270  44.805  20.660  14.891
 2945W        W75271  26.643  31.098  11.394
 2946W        W75272  36.157   3.411  11.574
 2947W        W75273  27.130  12.269   4.656
 2948W        W75274   0.369   2.640   2.313
 2949W        W75275  33.508  34.871  12.409
 2950W        W75276  30.035   2.307  14.621
 2951W        W75277   9.632  16.386   2.232
 2952W        W75278  21.934  36.807  12.537
 2953W        W75279  11.904  28.981  14.926
 2954W        W75280  26.536   9.585   1.301
 2955W        W75281  40.839  39.706  11.434
 2956W        W75282  28.978  33.446  13.421
 2957W        W75283  24.181  43.426   3.902
 2958W        W75284   1.964  43.166   1.645
 2959W        W75285   9.909  33.487   0.993
 2960W        W75286  29.537  19.161  11.426
 2961W        W75287   5.235  19.354   0.688
 2962W        W75288  16.404  37.746   0.645
 2963W        W75289   2.721   8.943   2.266
 2964W        W75290  33.884   1.180   2.725
 2965W        W75291  35.376   5.301   2.374
 2966W        W75292  31.915   2.347  14.586
 2967W        W75293   4.496  32.013  14.441
 2968W        W75294   6.093  35.567  12.637
 2969W        W75295   2.887  16.811  13.469
 2970W        W75296  25.819  40.262   1.112
 2971W        W75297  17.817  11.699  14.926
 2972W        W75298  24.694  24.761  13.553
 2973W        W75299  11.596  42.978  14.935
 2974W        W75300   4.820  35.143   0.292
 2975W        W75301  18.278  33.105   1.821
 2976W        W75302  31.457  35.307  11.028
 2977W        W75303  40.406  44.117  12.065
 2978W        W75304  40.981   8.848  12.547
 2979W        W75305  38.687  33.091  11.720
 2980W        W75306  11.351  24.949   9.999
 2981W        W75307  41.047  15.834   4.551
 2982W        W75308   2.482  35.385   0.424
 2983W        W75309  40.803  43.096  13.523
 2984W        W75310   4.425   0.385   3.696
 2985W        W75311  12.117   7.730  14.098
 2986W        W75312  37.009  15.047   3.200
 2987W        W75313   2.193  15.140   2.271
 2988W        W75314   9.598   6.235   1.264
 2989W        W75315  32.469  28.558   2.171
 2990W        W75316  27.092  12.811   4.643
 2991W        W75317  39.620  34.081  14.438
 2992W        W75318  14.078   8.670  14.895
 2993W        W75319   3.916   5.887  10.975
 2994W        W75320   4.925  19.357  12.320
 2995W        W75321  42.337   7.974  11.071
 2996W        W75322  21.778  36.284   4.315
 2997W        W75323  32.039  27.380   1.954
 2998W        W75324  30.364  16.202  11.994
 2999W        W75325  36.876   0.316   0.436
 3000W        W75326  29.927  23.652   4.058
 3001W        W75327  42.084   2.274  11.987
 3002W        W75328  29.624  22.524  14.004
 3003W        W75329  44.473   6.108   3.557
 3004W        W75330  12.417   9.113  12.626
 3005W        W75331  37.612   5.026   1.839
 3006W        W75332   7.148  21.094   2.998
 3007W        W75333  16.518   9.223   4.875
 3008W        W75334  24.059  10.238  10.275
 3009W        W75335  10.741  19.152   3.180
 3010W        W75336  15.837  35.856   3.807
 3011W        W75337  44.087   6.910  14.836
 3012W        W75338  40.032  17.910   0.795
 3013W        W75339  17.823  44.229  13.159
 3014W        W75340   8.691   6.895  11.051
 3015W        W75341  12.817  32.176  12.137
 3016W        W75342  19.824  18.218   1.019
 3017W        W75343  16.692  18.694   4.140
 3018W        W75344  20.036  14.043   3.308
 3019W        W75345  32.316  44.999  14.982
 3020W        W75346   3.990  34.436  12.994
 3021W        W75347  39.155  32.063  13.585
 3022W        W75348  11.159   6.784  12.450
 3023W        W75349  30.438  38.102  11.911
 3024W        W75350  15.727  16.902   2.851
 3025W        W75351  36.363   6.793   2.596
 3026W        W75352  32.613   3.406   1.949
 3027W        W75353  21.474  29.838   1.032
 3028W        W75354  21.707  18.972  14.681
 3029W        W75355  26.084   5.867  10.727
 3030W        W75356  38.676  18.815   1.074
 3031W        W75357  10.252  32.742  14.890
 3032W        W75358  43.081  32.182   3.565
 3033W        W75359   2.436   2.907  12.778
 3034W        W75360  19.526  36.099  12.821
 3035W        W75361  23.505  25.468  13.046
 3036W        W75362  36.362  32.961  11.861
 3037W        W75363   1.219  37.859   4.745
 3038W        W75364  32.104  39.551   4.575
 3039W        W75365  27.005   0.199  14.432
 3040W        W75366  41.022  20.361  12.805
 3041W        W75367  40.337  17.929  10.618
 3042W        W75368  14.550  27.175   0.939
 3043W        W75369  29.221  26.467   1.755
 3044W        W75370   8.401  37.166   2.574
 3045W        W75371  11.667  33.622   0.333
 3046W        W75372  24.116  15.074   1.009
 3047W        W75373  26.108  14.296   1.818
 3048W        W75374   5.169  37.637  12.068
 3049W        W75375  21.256   2.115   0.005
 3050W        W75376  40.421   4.109   4.541
 3051W        W75377  30.919  12.872   1.354
 3052W        W75378  44.941  23.339   0.648
 3053W        W75379  14.168  37.329  10.771
 3054W        W75380   6.678  26.998   0.744
 3055W        W75381  15.374  33.487   3.620
 3056W        W75382  33.347  12.977   0.824
 3057W        W75383  27.241   8.848  14.389
 3058W        W75384   1.332  25.207   1.355
 3059W        W75385   1.574  23.395   3.962
 3060W        W75386   2.737  20.189   3.681
 3061W        W75387   4.446   6.107  11.907
 3062W        W75388  10.228  23.776  11.917
 3063W        W75389   5.160  29.201  10.544
 3064W        W75390  42.368  19.693   2.643
 3065W        W75391   4.550  31.000   4.175
 3066W        W75392  28.035   4.442   4.611
 3067W        W75393  24.681  21.244   2.302
 3068W        W75394  22.550  44.834   1.271
 3069W        W75395  20.942  39.462  11.051
 3070W        W75396   5.653  13.368  14.137
 3071W        W75397  12.700  32.321  13.789
 3072W        W75398   3.184  33.988  12.134
 3073W        W75399  16.093  32.456   4.660
 3074W        W75400  14.117  33.584   2.424
 3075W        W75401  23.236  33.688   4.076
 3076W        W75402   1.917  38.331   3.867
 3077W        W75403  15.598   2.481  11.340
 3078W        W75404  41.772  31.103  14.948
 3079W        W75405   8.610  14.082   1.380
 3080W        W75406  27.399   7.297   3.869
 3081W        W75407  18.039   8.961   2.355
 3082W        W75408   2.532  25.893  11.443
 3083W        W75409   6.382  22.216   2.350
 3084W        W75410  14.195  14.687  14.947
 3085W        W75411   9.888  29.659  12.583
 3086W        W75412  43.845   4.690   0.495
 3087W        W75413  34.212   0.207  12.916
 3088W        W75414  10.857   4.884   1.413
 3089W        W75415  11.307  33.690  11.510
 3090W        W75416   3.400  34.315   1.217
 3091W        W75417   9.150  22.268   4.787
 3092W        W75418  14.691  42.417  11.606
 3093W        W75419  26.494  36.471   2.629
 3094W        W75420  11.199  11.027  11.481
 3095W        W75421  18.616  28.354  12.024
 3096W        W75422  42.585  12.296   3.776
 3097W        W75423   4.372  35.980  11.527
 3098W        W75424  17.742  34.320  13.419
 3099W        W75425  30.083  29.461  12.833
 3100W        W75426   2.926  14.135  14.462
 3101W        W75427  26.575  43.552   2.767
 3102W        W75428  42.187  29.574   4.600
 3103W        W75429  10.369  24.073   0.409
 3104W        W75430  29.023  41.774   4.633
 3105W        W75431  39.996  13.121  14.093
 3106W        W75432  22.824  11.809  12.404
 3107W        W75433  21.193  34.354  13.280
 3108W        W75434  11.800  27.171   5.076
 3109W        W75435  43.170  13.083   2.388
 3110W        W75436  29.105  31.586   4.030
 3111W        W75437  23.220  15.794  13.837
 3112W        W75438  28.193   0.939  14.561
 3113W        W75439  11.160  34.370  12.611
 3114W        W75440  36.888  27.264   4.284
 3115W        W75441   8.778  21.665  10.764
 3116W        W75442   9.715  38.075  11.259
 3117W        W75443   3.176  32.166  11.500
 3118W        W75444  27.306  20.189   3.149
 3119W        W75445  14.090   3.183  12.882
 3120W        W75446  12.650  29.590  14.539
 3121W        W75447  35.293  37.531  12.192
 3122W        W75448  33.273  17.955   2.732
 3123W        W75449  11.581  23.735   3.233
 3124W        W75450  10.876  22.155   0.883
 3125W        W75451  12.089   1.337  12.880
 3126W        W75452  31.852  28.609   3.316
 3127W        W75453  36.834   2.657  14.576
 3128W        W75454  15.123  34.469   2.184
 3129W        W75455  16.062  22.217  11.056
 3130W        W75456  14.768   3.349  12.136
 3131W        W75457   4.251   9.396  11.391
 3132W        W75458  15.733  36.408  12.387
 3133W        W75459  42.402  24.680  11.868
 3134W        W75460  18.357  34.514   1.309
 3135W        W75461  16.704  35.809  14.369
 3136W        W75462  35.445  35.926   1.380
 3137W        W75463  38.805  12.673   2.928
 3138W        W75464  30.770  38.549   4.109
 3139W        W75465  11.762  41.824   2.850
 3140W        W75466  16.167  15.862  12.509
 3141W        W75467  29.539  12.484   2.581
 3142W        W75468  11.922  25.181  11.140
 3143W        W75469  10.665  42.561  10.759
 3144W        W75470  28.373  15.663   4.601
 3145W        W75471  36.331  26.280   3.524
 3146W        W75472  27.338  32.364   0.292
 3147W        W75473  28.631  43.867   3.259
 3148W        W75474   8.728  26.626   0.307
 3149W        W75475   3.890  21.724   4.815
 3150W        W75476   4.902  11.784  11.624
 3151W        W75477  17.101  24.259  11.727
 3152W        W75478  33.575   8.206   3.143
 3153W        W75479  35.428  36.828  12.971
 3154W        W75480  28.613  22.325   1.649
 3155W        W75481  33.206  22.480   3.202
 3156W        W75482  16.485  38.443  12.023
 3157W        W75483  38.576  13.729  11.334
 3158W        W75484  15.680  16.351   0.828
 3159W        W75485   0.624  28.580  13.598
 3160W        W75486  34.086   0.834   4.811
 3161W        W75487  38.548  44.483  13.953
 3162W        W75488  32.589  21.664   1.911
 3163W        W75489  37.329  19.622  13.337
 3164W        W75490   2.412  44.874   4.659
 3165W        W75491  40.268  32.036   3.355
 3166W        W75492  15.520  20.606  12.405
 3167W        W75493  22.727   4.874  11.832
 3168W        W75494  41.329   0.285  14.802
 3169W        W75495  11.726  38.870  14.824
 3170W        W75496   2.935   4.826   1.243
 3171W        W75497   7.751  15.583  12.263
 3172W        W75498   9.914   1.343  13.373
 3173W        W75499  18.381  24.740  13.730
 3174W        W75500  42.263  10.563   0.428
 3175W        W75501  42.978  11.966  11.095
 3176W        W75502  43.264  20.661   1.252
 3177W        W75503   6.052  19.100   2.219
 3178W        W75504  34.867  32.137   3.271
 3179W        W75505  41.086  26.476   3.501
 3180W        W75506   5.413  13.612   2.657
 3181W        W75507   2.414   0.805  10.721
 3182W        W75508  21.442  17.635   2.832
 3183W        W75509  20.563   5.120  13.429
 3184W        W75510  43.852  34.015  12.612
 3185W        W75511  31.603  37.515   1.757
 3186W        W75512  24.076  40.996  11.222
 3187W        W75513  18.367  12.748  12.683
 3188W        W75514   5.780  28.103  14.064
 3189W        W75515  21.326   6.421   2.228
 3190W        W75516  12.579  35.711  12.579
 3191W        W75517   7.401  20.774   3.328
 3192W        W75518  15.340  21.050  10.981
 3193W        W75519  20.592  23.057   1.902
 3194W        W75520  41.925  16.511  13.742
 3195W        W75521  37.963  37.156  11.058
 3196W        W75522  20.808  38.050   2.644
 3197W        W75523  37.880  14.796   2.707
 3198W        W75524   0.989  15.196   0.302
 3199W        W75525  22.746  40.472   4.799
 3200W        W75526  15.022  33.957   2.840
 3201W        W75527  41.462  14.594   5.017
 3202W        W75528   0.088  16.106  11.091
 3203W        W75529  25.114  39.399   9.644
 3204W        W75530  21.119  14.049   2.192
 3205W        W75531  28.896  26.630  11.388
 3206W        W75532   4.025   3.244   5.303
 3207W        W75533  23.215  33.045   1.772
 3208W        W75534  39.259  12.150   5.433
 3209W        W75535   8.891  33.120  11.327
 3210W        W75536  15.073  12.146  14.743
 3211W        W75537  15.599  43.803   1.557
 3212W        W75538   6.730  19.290   3.138
 3213W        W75539  40.838   1.369  10.576
 3214W        W75540  39.232  31.467  10.610
 3215W        W75541  34.417  10.851  10.727
 3216W        W75542  28.020   0.764  12.466
 3217W        W75543  10.262  23.077   2.830
 3218W        W75544   5.445  24.163   2.709
 3219W        W75545  35.211  22.697  12.038
 3220W        W75546  15.834  10.074  11.812
 3221W        W75547  13.665  13.133  14.305
 3222W        W75548  41.391  42.324   4.123
 3223W        W75549  29.337  27.388  10.281
 3224W        W75550  39.315  41.775  11.011
 3225W        W75551  44.688   6.866   1.269
 3226W        W75552  20.243  36.044   0.262
 3227W        W75553  34.820  31.532  13.356
 3228W        W75554  15.399  41.372  14.333
 3229W        W75555  17.990  27.584   0.017
 3230W        W75556  27.704  25.761  10.063
 3231W        W75557   9.828  29.505  13.952
 3232W        W75558  17.575  29.918  11.976
 3233W        W75559  35.745  42.500  13.847
 3234W        W75560  30.676   6.331  12.959
 3235W        W75561  17.246  20.293  11.212
 3236W        W75562  41.732  34.098  14.395
 3237W        W75563  19.967  24.090  14.857
 3238W        W75564  15.536  35.917  13.498
 3239W        W75565  31.533  12.312   2.459
 3240W        W75566  24.171   2.706   3.344
 3241W        W75567   2.874  10.340   2.335
 3242W        W75568  42.328  15.529  10.176
 3243W        W75569  42.786  44.038  11.072
 3244W        W75570  19.040  13.543  14.694
 3245W        W75571  10.611   4.125   0.851
 3246W        W75572   9.555  37.242  11.165
 3247W        W75573   3.141  19.684   3.826
 3248W        W75574   8.244  42.928  14.900
 3249W        W75575  14.022  27.943   1.882
 3250W        W75576  44.061  19.356   1.774
 3251W        W75577   0.940  42.427  12.967
 3252W        W75578  42.526  20.401   4.882
 3253W        W75579  30.138  39.603  14.070
 3254W        W75580  20.834  44.734  13.933
 3255W        W75581  39.092  10.776   5.687
 3256W        W75582  40.336  31.587  11.100
 3257W        W75583   5.176  40.980   3.647
 3258W        W75584  34.956  26.570  10.751
 3259W        W75585   0.829   7.176   3.289
 3260W        W75586  30.340  42.538   4.157
 3261W        W75587  13.697   4.172  14.783
 3262W        W75588   7.656  33.112   4.735
 3263W        W75589   0.599  40.052   4.635
 3264W        W75590   3.874  37.336  12.610
 3265W        W75591  26.611  35.037  13.524
 3266W        W75592  32.613  20.516   3.149
 3267W        W75593  25.532  28.013  14.542
 3268W        W75594   1.550  33.711  13.450
 3269W        W75595  22.782   8.772   1.652
 3270W        W75596  16.637   9.720   4.619
 3271W        W75597  16.492  33.991  11.611
 3272W        W75598  28.525  17.313  13.399
 3273W        W75599  34.487  32.647   1.424
 3274W        W75600  13.732  19.172   0.412
 3275W        W75601  40.733   3.875  12.921
 3276W        W75602   1.487   6.679   2.718
 3277W        W75603  44.490   8.733   2.119
 3278W        W75604  30.901   0.444  10.426
 3279W        W75605   0.690  24.705  11.143
 3280W        W75606  20.494  24.482  12.880
 3281W        W75607  30.475   5.853  13.217
 3282W        W75608  30.028  41.564  11.189
 3283W        W75609  30.353   2.992   4.154
 3284W        W75610  30.740  28.127  14.394
 3285W        W75611  18.538  13.160  13.611
 3286W        W75612  36.911   8.897  14.335
 3287W        W75613   9.366  41.054  13.806
 3288W        W75614  40.879  26.520  14.965
 3289W        W75615  31.444  27.747   4.105
 3290W        W75616   8.427  43.838   3.741
 3291W        W75617   2.156  24.616   4.488
 3292W        W75618  35.293   3.790   1.615
 3293W        W75619  17.056  35.549   0.341
 3294W        W75620  11.530  31.515   1.772
 3295W        W75621  10.385  13.682   1.295
 3296W        W75622  35.430  14.303  10.676
 3297W        W75623  26.081  36.519   2.318
 3298W        W75624  44.880  35.391   3.839
 3299W        W75625  13.414  42.917   3.756
 3300W        W75626  27.892  22.600   0.534
 3301W        W75627  10.661  27.503   1.912
 3302W        W75628  10.421  21.521   1.330
 3303W        W75629  37.976  37.291   5.389
 3304W        W75630  36.537   8.715   9.971
 3305W        W75631   5.882  39.790   2.225
 3306W        W75632  34.679  16.553   3.288
 3307W        W75633   2.777  44.613  14.257
 3308W        W75634  26.603  44.280  11.984
 3309W        W75635  42.223  26.682   0.283
 3310W        W75636  21.799  18.122  14.812
 3311W        W75637   8.270  31.146  11.679
 3312W        W75638   0.000  32.858   3.127
 3313W        W75639  23.495  39.967  13.578
 3314W        W75640  28.120  30.479  13.981
 3315W        W75641  42.232  18.951  10.778
 3316W        W75642   0.356  12.024  12.093
 3317W        W75643   7.477  14.390  12.124
 3318W        W75644  20.777  35.443   2.225
 3319W        W75645   7.298  20.476  11.574
 3320W        W75646  11.587  21.564  12.510
 3321W        W75647  22.174  10.164  12.310
 3322W        W75648  31.211   3.373  14.715
 3323W        W75649   2.416   9.681   1.258
 3324W        W75650  42.333  24.136   0.322
 3325W        W75651  38.403  17.256   2.201
 3326W        W75652   7.685  27.352   4.148
 3327W        W75653  30.053  16.665   2.872
 3328W        W75654  11.072  22.877  12.396
 3329W        W75655  42.861  17.293  10.933
 3330W        W75656  26.369   2.696  13.852
 3331W        W75657  41.707  34.187  13.015
 3332W        W75658  24.691  28.971   2.131
 3333W        W75659  12.214  35.407  14.489
 3334W        W75660  44.033  41.115  12.402
 3335W        W75661  20.966  12.375   3.733
 3336W        W75662  22.315  30.546  11.944
 3337W        W75663   0.342  15.123  11.579
 3338W        W75664  38.408  18.658   2.394
 3339W        W75665  35.413   7.097  12.116
 3340W        W75666  41.246   7.420   4.733
 3341W        W75667  21.473  18.085   2.609
 3342W        W75668   3.853  41.855   2.745
 3343W        W75669  28.500   7.394  13.788
 3344W        W75670  27.471   8.693   1.849
 3345W        W75671   0.639  32.577  12.821
 3346W        W75672  15.859   2.282   2.776
 3347W        W75673  17.080  43.772  11.946
 3348W        W75674  16.905  40.993  10.825
 3349W        W75675  18.339  22.613   1.666
 3350W        W75676  11.794  37.626  12.456
 3351W        W75677  38.829  14.058   1.244
 3352W        W75678  34.578  36.801   0.407
 3353W        W75679  30.469   2.412  13.312
 3354W        W75680   1.472  36.903   3.519
 3355W        W75681  11.697   5.910   3.905
 3356W        W75682  22.889  35.325   0.020
 3357W        W75683  17.652  16.454  11.141
 3358W        W75684  43.041  20.932  12.370
 3359W        W75685  37.542  30.064   4.191
 3360W        W75686  39.082  26.223   0.670
 3361W        W75687  35.884  35.746  13.528
 3362W        W75688   2.358  29.951  14.809
 3363W        W75689  11.380  26.019   2.464
 3364W        W75690  37.436  36.890  12.986
 3365W        W75691   5.305  21.438   3.083
 3366W        W75692  27.471   6.379  13.596
 3367W        W75693   4.441   1.887   5.064
 3368W        W75694  17.205  29.464   0.778
 3369W        W75695  21.781   8.796   2.713
 3370W        W75696   1.392  27.829   0.940
 3371W        W75697  11.223  21.736  10.729
 3372W        W75698   1.955  16.045   4.194
 3373W        W75699  38.316  16.603   2.857
 3374W        W75700  20.679   9.863  11.159
 3375W        W75701  44.548   9.424  12.527
 3376W        W75702  43.536   4.920  14.449
 3377W        W75703  33.496  21.752   1.490
 3378W        W75704  10.894  29.537   3.231
 3379W        W75705  11.834  20.260  11.455
 3380W        W75706  31.388  29.155  12.922
 3381W        W75707   8.605  20.971   4.379
 3382W        W75708  31.982   7.865   0.938
 3383W        W75709  44.499  29.145  14.934
 3384W        W75710  10.117  15.132   1.199
 3385W        W75711  12.861   4.331   2.898
 3386W        W75712  22.220  31.126   0.892
 3387W        W75713  42.177  24.222   4.048
 3388W        W75714  30.822  20.278   4.525
 3389W        W75715  27.164   5.751  14.294
 3390W        W75716  28.822  11.377   0.548
 3391W        W75717   6.479  44.325   3.874
 3392W        W75718   8.936  15.649   4.017
 3393W        W75719   8.323   5.182   3.766
 3394W        W75720   7.567  42.240   3.809
 3395W        W75721  40.368   3.392  14.363
 3396W        W75722  35.528  22.476   1.918
 3397W        W75723  34.032  16.079  11.256
 3398W        W75724  10.746   3.913   3.798
 3399W        W75725  35.118   5.060   0.570
 3400W        W75726  19.229  15.115   2.859
 3401W        W75727  17.566  43.395  13.975
 3402W        W75728  32.101  11.053  10.483
 3403W        W75729  19.704  10.723   2.606
 3404W        W75730  44.920   1.331  12.700
 3405W        W75731  18.039   5.145  12.885
 3406W        W75732   7.597  11.750   2.999
 3407W        W75733  15.070  43.041   1.371
 3408W        W75734  35.297   9.413  13.703
 3409W        W75735  38.554   8.711   3.670
 3410W        W75736   3.046  32.864  14.819
 3411W        W75737  31.844  20.002  12.575
 3412W        W75738  29.777  36.591   2.278
 3413W        W75739   6.803  32.401  13.751
 3414W        W75740   7.722   0.721   4.149
 3415W        W75741  43.509  26.963  14.784
 3416W        W75742  15.305  23.193   3.762
 3417W        W75743   6.375  41.853  13.412
 3418W        W75744   1.218  34.911  14.872
 3419W        W75745  13.174  32.424  14.575
 3420W        W75746  38.993  11.161   2.370
 3421W        W75747  15.204  18.105  10.591
 3422W        W75748  34.805   0.442   0.758
 3423W        W75749  37.006  42.067   0.785
 3424W        W75750  34.872  39.588   3.885
 3425W        W75751  16.113   2.643  11.297
 3426W        W75752  39.354   6.868   0.785
 3427W        W75753  21.680  15.861  12.121
 3428W        W75754  38.839  30.233  12.525
 3429W        W75755  11.552  43.018   1.975
 3430W        W75756  18.607  33.044  10.939
 3431W        W75757  12.697  15.504   1.373
 3432W        W75758  34.127  31.674  10.444
 3433W        W75759   7.683  18.809   0.213
 3434W        W75760  22.426  16.591   3.205
 3435W        W75761  43.458  12.316  14.736
 3436W        W75762  37.037  13.216   1.870
 3437W        W75763   1.046  24.993   0.755
 3438W        W75764   1.867  44.451  14.571
 3439W        W75765  12.127  13.541   4.090
 3440W        W75766   0.849  13.967  11.539
 3441W        W75767  44.059   8.358  14.560
 3442W        W75768   3.182  13.099  13.462
 3443W        W75769  40.490  25.170   4.586
 3444W        W75770  40.249   3.987   0.281
 3445W        W75771  15.763   9.117   4.277
 3446W        W75772   3.362  23.538  12.808
 3447W        W75773  19.793  23.156  11.127
 3448W        W75774  29.690  13.687  12.930
 3449W        W75775  25.114  18.223   3.372
 3450W        W75776  20.482  16.862  11.016
 3451W        W75777  31.611  31.480   0.883
 3452W        W75778  37.508  36.702   5.044
 3453W        W75779  16.425  44.062   0.490
 3454W        W75780  33.837  27.050   4.739
 3455W        W75781   3.410   4.970   0.390
 3456W        W75782  38.998  12.781   4.279
 3457W        W75783  12.514   1.473   0.529
 3458W        W75784  37.265   4.408   2.821
 3459W        W75785  21.713  23.130   3.306
 3460W        W75786  43.604  10.920  10.488
 3461W        W75787  29.531  12.773   1.723
 3462W        W75788   2.318  20.267  14.066
 3463W        W75789   3.756  22.207   2.452
 3464W        W75790   6.874   0.473   0.467
 3465W        W75791  44.348  20.647  10.965
 3466W        W75792   3.733   8.226  12.164
 3467W        W75793   0.881  27.386  14.858
 3468W        W75794  36.495  19.430  13.916
 3469W        W75795  30.820  15.296   1.280
 3470W        W75796  44.460  19.141  11.529
 3471W        W75797  43.000  25.683   5.118
 3472W        W75798  35.999  41.048   3.443
 3473W        W75799  44.882  31.310   4.899
 3474W        W75800  42.002   7.003  13.009
 3475W        W75801  22.939  38.369   3.280
 3476W        W75802   9.423  32.473  14.928
 3477W        W75803   4.414  13.573  13.336
 3478W        W75804  35.405  15.196  14.500
 3479W        W75805  21.313   8.208   1.137
 3480W        W75806  39.909  14.836  11.853
 3481W        W75807  30.095  30.480  10.795
 3482W        W75808   3.243  18.979   0.772
 3483W        W75809  27.154   4.368  14.595
 3484W        W75810  17.623  31.570   0.004
 3485W        W75811  25.109  30.610   2.388
 3486W        W75812  18.848  41.536  10.726
 3487W        W75813  43.062  25.750   2.277
 3488W        W75814  15.714  44.661  11.556
 3489W        W75815  40.549  40.986   0.728
 3490W        W75816  37.909  18.617   2.292
 3491W        W75817  32.189  42.544   4.848
 3492W        W75818  10.786  41.923   0.333
 3493W        W75819   9.920  11.163   4.266
 3494W        W75820  12.482  20.749  13.328
 3495W        W75821  33.468  16.067  13.873
 3496W        W75822  38.468  15.097   2.380
 3497W        W75823  18.558  39.255   0.363
 3498W        W75824  36.029   1.679  11.249
 3499W        W75825  20.398  21.683  13.723
 3500W        W75826  18.746  41.955   2.659
 3501W        W75827  18.295   7.914  12.496
 3502W        W75828  25.255  43.545  13.951
 3503W        W75829  42.348  44.392   0.884
 3504W        W75830   5.806   1.951  13.761
 3505W        W75831  11.579  31.130  11.481
 3506W        W75832  37.270  39.464  10.180
 3507W        W75833  18.797   4.292   2.883
 3508W        W75834   6.478  11.706   1.331
 3509W        W75835  31.719  14.065   4.587
 3510W        W75836  34.856  19.598   0.353
 3511W        W75837   2.032   3.379   0.777
 3512W        W75838  40.188   9.236   3.252
 3513W        W75839  29.967   2.268   0.996
 3514W        W75840  15.340  34.975  14.836
 3515W        W75841  26.594  36.419  13.620
 3516W        W75842  11.295  35.103  14.027
 3517W        W75843  36.082  11.808   4.251
 3518W        W75844  29.055   9.139  11.476
 3519W        W75845  31.528   3.056   0.069
 3520W        W75846  22.759  39.315  10.143
 3521W        W75847  29.235  20.771  12.430
 3522W        W75848  10.679  40.048  12.374
 3523W        W75849  34.442  20.055   0.980
 3524W        W75850  23.045  28.233   4.195
 3525W        W75851  16.035  35.211   1.851
 3526W        W75852  39.877  32.068  11.372
 3527W        W75853  42.666  19.495   3.875
 3528W        W75854  23.874  30.378   4.735
 3529W        W75855  21.049   5.417   2.778
 3530W        W75856  41.702  35.563  10.347
 3531W        W75857  16.532  34.806  14.402
 3532W        W75858  26.714  32.960   1.765
 3533W        W75859   6.639   1.743  11.045
 3534W        W75860  24.883  19.600  14.899
 3535W        W75861  17.219  22.055  13.582
 3536W        W75862  29.487   7.280   3.731
 3537W        W75863   4.021   4.215  14.371
 3538W        W75864  43.323  38.784   4.432
 3539W        W75865  21.050  11.977  12.099
 3540W        W75866  33.495  20.191   4.650
 3541W        W75867  39.598  30.011  11.255
 3542W        W75868   9.512  12.326  13.042
 3543W        W75869  36.617  43.534   4.579
 3544W        W75870  28.564   2.574   2.193
 3545W        W75871  11.669  19.541  14.277
 3546W        W75872  19.113  42.598  13.731
 3547W        W75873  15.770  11.607   2.324
 3548W        W75874  14.560  37.860   1.315
 3549W        W75875  41.018  26.542  14.445
 3550W        W75876  42.567   2.874  14.407
 3551W        W75877  36.870  42.086  13.584
 3552W        W75878  19.700   7.913   4.483
 3553W        W75879  37.897  23.068   3.443
 3554W        W75880  24.280  14.802   9.868
 3555W        W75881  27.145  13.529   1.258
 3556W        W75882   2.248  42.337  11.570
 3557W        W75883  22.032  42.146   3.080
 3558W        W75884  38.409  35.463  14.111
 3559W        W75885   0.692  31.073  12.064
 3560W        W75886  39.177  27.130   2.713
 3561W        W75887  37.860  14.428   4.976
 3562W        W75888  33.978  41.699   1.881
 3563W        W75889   8.705   7.386   3.248
 3564W        W75890  41.350   5.202  14.768
 3565W        W75891  11.691   2.678   5.255
 3566W        W75892  29.518  32.603  11.527
 3567W        W75893   8.207  39.291  10.619
 3568W        W75894  14.901   6.659  12.017
 3569W        W75895  44.123  42.877   4.118
 3570W        W75896   8.694   6.670   0.322
 3571W        W75897  11.843  43.357   1.735
 3572W        W75898  37.679  31.286   2.591
 3573W        W75899   2.027  42.457   2.902
 3574W        W75900  23.153  18.168   0.313
 3575W        W75901  18.740  29.469   1.764
 3576W        W75902  35.515  14.653   1.313
 3577W        W75903  11.301  17.326   0.869
 3578W        W75904  17.314   6.206  14.784
 3579W        W75905  39.799  32.278   2.494
 3580W        W75906  43.537  17.625   0.864
 3581W        W75907   2.736  10.782   4.094
 3582W        W75908  21.506  29.680  13.971
 3583W        W75909  21.774   7.041  14.928
 3584W        W75910  35.200  14.063   2.003
 3585W        W75911  28.867  19.528  14.732
 3586W        W75912  28.592  38.144   3.719
 3587W        W75913  41.384  18.005   2.674
 3588W        W75914  36.144  44.933  13.861
 3589W        W75915  39.287   5.778  11.616
 3590W        W75916   3.841  12.209   4.328
 3591W        W75917  37.256  23.582   0.436
 3592W        W75918  35.468  29.624  13.048
 3593W        W75919  16.045  34.066   2.735
 3594W        W75920  20.175  25.823   4.996
 3595W        W75921  19.051  28.086   1.851
 3596W        W75922  24.429   1.487   4.639
 3597W        W75923  14.010  27.820   2.408
 3598W        W75924  25.826  38.243  14.942
 3599W        W75925   8.814  25.163  11.547
 3600W        W75926  24.450  33.068   3.754
 3601W        W75927  23.103  42.954  12.012
 3602W        W75928  34.976  32.589  11.138
 3603W        W75929  44.288  39.586   2.361
 3604W        W75930   4.459  14.823  12.431
 3605W        W75931  34.123  19.333   2.908
 3606W        W75932  11.513   8.958   0.779
 3607W        W75933  17.285  19.315  11.146
 3608W        W75934  38.983  16.167  14.424
 3609W        W75935  24.107   3.556   1.679
 3610W        W75936   1.881   6.768  12.218
 3611W        W75937  32.733   2.232   4.262
 3612W        W75938  15.858  42.275  13.021
 3613W        W75939  17.068   2.348   1.744
 3614W        W75940   5.369   1.963  14.986
 3615W        W75941  39.724  40.426  12.724
 3616W        W75942  14.328  18.944  13.286
 3617W        W75943  39.874  35.040  13.009
 3618W        W75944  21.681  13.048   4.121
 3619W        W75945   1.782  27.677   3.206
 3620W        W75946   1.966  16.427  10.930
 3621W        W75947  32.619  18.668  12.331
 3622W        W75948  44.836  22.231   1.489
 3623W        W75949  41.694   1.297  11.104
 3624W        W75950  34.945  17.343   3.748
 3625W        W75951  36.277  27.285  12.397
 3626W        W75952  44.806  15.287   0.744
 3627W        W75953  35.913  11.109  11.522
 3628W        W75954  37.744  27.974  11.169
 3629W        W75955  26.209  39.091   2.021
 3630W        W75956  43.016  32.065   2.556
 3631W        W75957  37.878  40.491  11.438
 3632W        W75958  22.030  13.809  13.834
 3633W        W75959  38.268  35.975  14.015
 3634W        W75960  26.993  18.322   0.895
 3635W        W75961  44.155   9.592   3.384
 3636W        W75962  13.073  34.687  11.615
 3637W        W75963  15.508  31.594   1.297
 3638W        W75964  14.773  34.135   0.046
 3639W        W75965  12.135  39.409  13.042
 3640W        W75966  43.285  25.270  13.577
 3641W        W75967  43.863   5.912  10.642
 3642W        W75968  29.845  39.036  11.497
 3643W        W75969   3.109   7.220  12.041
 3644W        W75970  30.541  27.691   4.507
 3645W        W75971  38.838   7.153   3.112
 3646W        W75972  11.543  27.341  12.867
 3647W        W75973  25.468  15.136  12.422
 3648W        W75974  40.492  13.890   1.027
 3649W        W75975  42.317   4.083   4.143
 3650W        W75976  21.044   9.459  14.504
 3651W        W75977   8.655  38.129  14.312
 3652W        W75978   8.419  44.308   2.329
 3653W        W75979  10.167  43.023   3.263
 3654W        W75980  18.534   7.126   3.416
 3655W        W75981  40.063  42.965   1.709
 3656W        W75982  33.969  15.249  14.806
 3657W        W75983  14.179  24.966  14.065
 3658W        W75984  37.911  38.922  11.423
 3659W        W75985  43.422  19.191   2.285
 3660W        W75986  32.076  17.504   4.519
 3661W        W75987  10.261  34.201   3.634
 3662W        W75988  14.290  22.661   3.411
 3663W        W75989  11.696  42.864   4.171
 3664W        W75990  13.733   9.110   2.394
 3665W        W75991  30.902  13.474   2.670
 3666W        W75992  25.101  12.904   0.524
 3667W        W75993  30.155  42.731  12.500
 3668W        W75994  31.387   9.276  12.460
 3669W        W75995   6.189   0.477  13.437
 3670W        W75996  26.172  38.540  10.681
 3671W        W75997  19.580  28.051  13.104
 3672W        W75998   5.014  11.066   2.346
 3673W        W75999  42.791  12.792   3.751
 3674W        W76000  30.695  20.156   0.817
 3675W        W76001  21.416  35.578  13.220
 3676W        W76002   2.056   7.852   1.467
 3677W        W76003   4.895  40.629  12.960
 3678W        W76004  11.601   2.473   2.918
 3679W        W76005  13.926  22.683  11.303
 3680W        W76006  27.509  38.074   0.916
 3681W        W76007  16.318  15.194   2.706
 3682W        W76008   6.133  37.542   3.566
 3683W        W76009  36.335  44.861   4.318
 3684W        W76010   7.583  14.614   0.014
 3685W        W76011  41.411  14.127   2.221
 3686W        W76012  11.554  43.354   4.151
 3687W        W76013  35.320   3.752  14.242
 3688W        W76014  16.706   6.523  12.140
 3689W        W76015   7.218   0.901  11.063
 3690W        W76016   5.247  17.133  10.597
 3691W        W76017  37.600  37.751   4.914
 3692W        W76018  42.839  25.703   1.801
 3693W        W76019   8.400  33.205   1.947
 3694W        W76020   4.791  18.783   5.044
 3695W        W76021   5.194  22.976   4.778
 3696W        W76022  35.882  37.933   4.126
 3697W        W76023  32.379  23.365   2.318
 3698W        W76024  34.659  22.178   0.412
 3699W        W76025   6.781   8.405  11.561
 3700W        W76026  23.627  14.090   0.327
 3701W        W76027  30.074  22.653   1.184
 3702W        W76028  13.966  39.346   0.387
 3703W        W76029  43.519  41.235  10.490
 3704W        W76030   0.726   5.186  14.274
 3705W        W76031  13.836  37.477  12.379
 3706W        W76032  12.243   3.818   2.347
 3707W        W76033   7.365  10.791   4.582
 3708W        W76034  14.668  11.739  11.497
 3709W        W76035  32.956   9.831  14.958
 3710W        W76036  34.629  21.625  12.407
 3711W        W76037  26.696   3.079  12.533
 3712W        W76038  23.735  17.300   1.065
 3713W        W76039  15.706  18.571  14.326
 3714W        W76040  28.642   5.343   2.153
 3715W        W76041  32.516  44.542   1.412
 3716W        W76042  44.319  35.081  10.376
 3717W        W76043   5.870  18.568   4.495
 3718W        W76044  22.280  29.211  12.564
 3719W        W76045  17.702   1.526  11.600
 3720W        W76046  43.904   0.512  14.459
 3721W        W76047  10.495  29.487   3.692
 3722W        W76048  19.077  42.333  10.504
 3723W        W76049  28.935  14.635  11.622
 3724W        W76050  31.634  44.797   3.905
 3725W        W76051  43.252  23.475  13.943
 3726W        W76052  31.472  38.332   3.357
 3727W        W76053  19.250  41.946   4.712
 3728W        W76054   1.182  32.633   2.485
 3729W        W76055  20.505  22.991  10.630
 3730W        W76056  22.523  41.949   3.864
 3731W        W76057  12.208  39.152  14.869
 3732W        W76058  19.345   5.127  12.907
 3733W        W76059  19.083  27.281   0.430
 3734W        W76060  14.812   7.837   3.545
 3735W        W76061  34.437  38.031  11.196
 3736W        W76062  40.527  13.415   3.564
 3737W        W76063  12.924  17.521   1.359
 3738W        W76064  11.823  10.733   1.262
 3739W        W76065  26.054  29.251  11.721
 3740W        W76066   5.841  20.274  14.924
 3741W        W76067  38.051  38.105   1.802
 3742W        W76068   5.309  31.181   2.312
 3743W        W76069  15.764  37.915   0.930
 3744W        W76070  42.695   7.166  11.141
 3745W        W76071  38.105  14.242  14.993
 3746W        W76072  20.003   5.730  12.962
 3747W        W76073  17.319  10.691   4.125
 3748W        W76074  15.211  25.471   4.183
 3749W        W76075   4.975  41.300   4.582
 3750W        W76076  43.459  17.747  12.822
 3751W        W76077   9.029   9.676   4.282
 3752W        W76078  23.054   7.937   4.795
 3753W        W76079  15.327  10.148   5.004
 3754W        W76080   8.195  43.908   1.508
 3755W        W76081   2.858   5.438   2.780
 3756W        W76082  43.500  36.086   4.339
 3757W        W76083  27.163  23.738  14.357
 3758W        W76084  41.887  38.295  11.533
 3759W        W76085  14.957  26.717   5.088
 3760W        W76086  31.047  27.018   1.947
 3761W        W76087   1.504  29.305   0.973
 3762W        W76088  22.343  14.534  14.390
 3763W        W76089  27.657  29.589   3.107
 3764W        W76090  15.375   5.177   1.331
 3765W        W76091   4.791  29.038  13.569
 3766W        W76092   6.390   3.413   4.989
 3767W        W76093  39.859   9.426  13.379
 3768W        W76094  30.854  40.078  13.499
 3769W        W76095   0.941  22.618   1.165
 3770W        W76096   5.664  19.861  13.438
 3771W        W76097  34.429  42.794   2.564
 3772W        W76098  21.360  39.968  10.013
 3773W        W76099  31.448  39.400   1.415
 3774W        W76100  42.673  39.545  12.901
 3775W        W76101  17.015  16.581   0.877
 3776W        W76102  36.619   1.030   4.985
 3777W        W76103  27.949  43.396   1.763
 3778W        W76104  13.648  11.606  10.759
 3779W        W76105  41.561   4.281  11.676
 3780W        W76106  25.373  13.810   4.674
 3781W        W76107  10.631  29.811   1.814
 3782W        W76108  12.233  26.030   1.962
 3783W        W76109  16.335  29.078   0.357
 3784W        W76110  40.485  20.775   2.566
 3785W        W76111   2.889  25.229   2.652
 3786W        W76112  23.489  19.960   0.318
 3787W        W76113  34.292  27.325   4.820
 3788W        W76114  27.086  20.185  10.705
 3789W        W76115  39.854  22.184  13.470
 3790W        W76116  33.664   4.378  12.551
 3791W        W76117  36.009  39.496   2.814
 3792W        W76118   5.909  24.905  13.029
 3793W        W76119  12.866  28.422  10.476
 3794W        W76120  12.957  11.655  14.444
 3795W        W76121  44.977  21.166  10.928
 3796W        W76122  25.014  20.206  10.869
 3797W        W76123  23.320  40.238  12.546
 3798W        W76124  28.654  35.394   1.719
 3799W        W76125  37.491   8.324  13.858
 3800W        W76126  33.332   3.521   2.171
 3801W        W76127  34.437   4.416   1.412
 3802W        W76128   0.876  32.798   2.884
 3803W        W76129  19.174  34.949   4.003
 3804W        W76130  44.376  17.064  14.107
 3805W        W76131  38.231  23.605   4.126
 3806W        W76132  27.944  17.884  10.624
 3807W        W76133  24.752  17.552   2.803
 3808W        W76134  11.293   9.345   4.123
 3809W        W76135  13.558   4.246   2.331
 3810W        W76136  28.744  33.088  10.472
 3811W        W76137  14.709  26.168   0.735
 3812W        W76138   2.986  16.266   0.309
 3813W        W76139  18.947   6.261  12.399
 3814W        W76140  36.507  28.025  13.917
 3815W        W76141  40.393  32.771  13.465
 3816W        W76142   6.879  20.556   2.391
 3817W        W76143  30.904   6.107   1.675
 3818W        W76144  31.497  34.297  10.698
 3819W        W76145  36.592  40.358  11.954
 3820W        W76146  12.843  20.651  10.708
 3821W        W76147   4.226  14.492   1.320
 3822W        W76148  17.671  33.110   3.392
 3823W        W76149   5.490  11.874  13.837
 3824W        W76150  36.989  22.304   2.820
 3825W        W76151  23.116  33.424  13.839
 3826W        W76152  39.295   0.784   2.415
 3827W        W76153  40.467  15.602   2.775
 3828W        W76154  33.399  36.529  10.923
 3829W        W76155  16.423   6.242   0.424
 3830W        W76156   0.736  39.760   0.777
 3831W        W76157  11.876  11.021  10.667
 3832W        W76158  33.175   5.466   0.840
 3833W        W76159  14.076  32.390  14.848
 3834W        W76160  17.843  36.986   2.307
 3835W        W76161  24.416   6.933   2.787
 3836W        W76162  28.579  16.164   4.523
 3837W        W76163  20.228  41.940   0.942
 3838W        W76164  26.168  23.706  13.786
 3839W        W76165  19.362  35.433   1.262
 3840W        W76166   8.985   4.566   3.664
 3841W        W76167   7.285  28.120   2.323
 3842W        W76168  39.142  29.884  11.482
 3843W        W76169  38.366  37.110   1.493
 3844W        W76170  13.816  43.648   1.901
 3845W        W76171  34.987  22.485  12.973
 3846W        W76172  36.446  16.640  13.787
 3847W        W76173  25.201  11.693  13.390
 3848W        W76174  11.835  23.901  11.253
 3849W        W76175  16.049  10.185   2.263
 3850W        W76176   3.894   6.431  13.462
 3851W        W76177   7.435  37.645   0.282
 3852W        W76178  38.337  24.508   3.379
 3853W        W76179  23.231   9.510   3.806
 3854W        W76180  29.472   4.387   1.795
 3855W        W76181  11.235  33.933   3.378
 3856W        W76182   2.014  21.549  13.899
 3857W        W76183  12.274   6.885   3.702
 3858W        W76184   0.148  31.527  13.747
 3859W        W76185  21.716   9.052   2.239
 3860W        W76186  40.460  43.823  12.513
 3861W        W76187  11.090  32.503   4.597
 3862W        W76188   0.925  19.009   4.019
 3863W        W76189  27.942   1.764   1.757
 3864W        W76190  22.463  28.640  13.941
 3865W        W76191  15.665   5.257  13.513
 3866W        W76192  27.198  33.333   2.642
 3867W        W76193  24.898  11.575   0.155
 3868W        W76194  44.310  16.726  14.753
 3869W        W76195  38.373  17.092   4.693
 3870W        W76196  24.481  42.385   2.922
 3871W        W76197  18.010  16.743  13.752
 3872W        W76198  34.413  10.422  14.085
 3873W        W76199  38.855   0.342  14.997
 3874W        W76200  10.378  31.917  10.698
 3875W        W76201  30.930  21.488   0.963
 3876W        W76202   2.856  14.854  11.451
 3877W        W76203  28.382   7.272  11.544
 3878W        W76204  43.841  42.556  13.840
 3879W        W76205  16.185   6.453  12.243
 3880W        W76206  27.977  11.789  10.572
 3881W        W76207  41.320  40.861   4.641
 3882W        W76208  23.499  39.295  12.033
 3883W        W76209  41.452  30.122   1.207
 3884W        W76210  35.910  22.717   2.161
 3885W        W76211  42.837  42.994   4.211
 3886W        W76212  20.997  16.588  13.090
 3887W        W76213  31.051  15.187   4.716
 3888W        W76214  39.538  13.261   3.776
 3889W        W76215  25.131  11.696  11.156
 3890W        W76216   8.624  18.225   3.206
 3891W        W76217  42.829  15.382  13.766
 3892W        W76218  23.080  29.229  11.925
 3893W        W76219   4.354  20.647  12.689
 3894W        W76220  25.134  20.318  13.089
 3895W        W76221  32.027  37.085   0.906
 3896W        W76222  37.375  33.686  10.899
 3897W        W76223  38.466  11.774  11.046
 3898W        W76224  38.478  42.926  10.895
 3899W        W76225  40.058  40.788  11.571
 3900W        W76226  27.738  12.662  12.076
 3901W        W76227   7.329  21.492  14.877
 3902W        W76228   4.197  30.452   3.067
 3903W        W76229  11.787  31.892   0.871
 3904W        W76230  22.133   6.282  14.736
 3905W        W76231  43.480   4.097   3.973
 3906W        W76232  37.371   4.038   1.946
 3907W        W76233  23.636  31.870  10.791
 3908W        W76234  16.312   3.507  14.836
 3909W        W76235  44.910   1.661  13.774
 3910W        W76236   8.403  19.859   3.303
 3911W        W76237   0.183   9.825  12.940
 3912W        W76238  39.214  40.374  10.157
 3913W        W76239  34.005  26.687   2.271
 3914W        W76240  17.302  27.616   4.769
 3915W        W76241   2.717  31.094  13.270
 3916W        W76242  13.205  29.390  14.996
 3917W        W76243  28.299  23.217  12.187
 3918W        W76244  22.999  11.111  11.935
 3919W        W76245  19.004  13.083   2.774
 3920W        W76246   8.758   1.808  13.134
 3921W        W76247  42.024  17.164  11.594
 3922W        W76248  15.758  36.052  10.149
 3923W        W76249  31.412   1.935  12.853
 3924W        W76250   5.286  15.483   3.643
 3925W        W76251  28.495  20.573   1.111
 3926W        W76252   5.002  24.063   5.093
 3927W        W76253  42.522  29.432   2.705
 3928W        W76254   2.205  30.896   4.316
 3929W        W76255  19.864  43.330   1.722
 3930W        W76256  29.884  33.586   4.208
 3931W        W76257  12.584  29.512  14.024
 3932W        W76258   6.252  40.323   0.916
 3933W        W76259   1.229   7.692  13.966
 3934W        W76260   2.298   5.247  10.612
 3935W        W76261   6.511  13.589   0.686
 3936W        W76262  35.382  26.711   1.852
 3937W        W76263   3.326  33.756   3.280
 3938W        W76264  26.413  11.730  10.662
 3939W        W76265  43.756  43.082  11.571
 3940W        W76266  26.246   9.876  10.648
 3941W        W76267  15.637  29.375   0.753
 3942W        W76268  43.456   4.409  14.498
 3943W        W76269  10.848  17.032   0.063
 3944W        W76270  37.048  27.579   3.117
 3945W        W76271   5.629  18.246   3.811
 3946W        W76272  43.412  20.007  12.576
 3947W        W76273  38.864  10.888   3.739
 3948W        W76274  29.416  27.593   0.379
 3949W        W76275  26.553  17.775  14.851
 3950W        W76276  24.048  19.800   1.252
 3951W        W76277  28.085  36.161  11.883
 3952W        W76278  13.315   9.091  14.088
 3953W        W76279  20.242  38.113  13.743
 3954W        W76280   9.818  39.097   4.206
 3955W        W76281   0.377  10.595  12.602
 3956W        W76282  39.933  32.115  13.007
 3957W        W76283  10.309  12.092   0.738
 3958W        W76284  22.628   0.139   3.984
 3959W        W76285   8.194  20.025  14.983
 3960W        W76286  35.673  31.980  12.409
 3961W        W76287  36.577  19.999   0.308
 3962W        W76288   1.041  14.800  13.559
 3963W        W76289  31.170  11.890  11.239
 3964W        W76290   9.569  41.455  13.050
 3965W        W76291   3.918  19.621  10.773
 3966W        W76292   6.795   3.275   2.679
 3967W        W76293  16.337   8.384   3.108
 3968W        W76294  10.933  26.592   1.039
 3969W        W76295  16.689  21.538   0.210
 3970W        W76296  17.031  15.132   1.784
 3971W        W76297  30.856  12.234  14.401
 3972W        W76298  26.999  44.852   2.888
 3973W        W76299  42.761  31.802  14.766
 3974W        W76300  23.103  23.463   0.773
 3975W        W76301  18.681  25.648  11.419
 3976W        W76302  29.183  15.713  13.885
 3977W        W76303   1.820  28.860   2.361
 3978W        W76304  11.966  16.990   2.110
 3979W        W76305   1.696  24.283   1.350
 3980W        W76306  42.845  43.823  12.900
 3981W        W76307  24.200  36.930   3.737
 3982W        W76308   3.499  38.920   3.726
 3983W        W76309  26.549  25.928   3.065
 3984W        W76310   0.745  17.555  13.683
 3985W        W76311  38.966  28.578  13.333
 3986W        W76312  33.884  30.117  13.136
 3987W        W76313  13.629  41.767   0.428
 3988W        W76314  35.517  27.119   4.826
 3989W        W76315  11.623  23.255   0.021
 3990W        W76316  24.754   1.482   4.221
 3991W        W76317  40.872  30.964   1.477
 3992W        W76318  21.179   6.056  10.714
 3993W        W76319  23.248  22.159   4.174
 3994W        W76320  25.919  10.841  13.415
 3995W        W76321   0.024   6.694   0.845
 3996W        W76322  23.889   7.680  14.896
 3997W        W76323  23.032  32.926   0.725
 3998W        W76324  34.628  16.304   0.377
 3999W        W76325   4.987   3.343   1.199
 4000W        W76326  24.657  20.297  14.070
 4001W        W76327  40.832   2.501  11.645
 4002W        W76328   7.123   4.814  10.984
 4003W        W76329  22.644  33.427  10.683
 4004W        W76330  32.835   4.720  14.025
 4005W        W76331  32.190  14.831  10.473
 4006W        W76332  31.454  11.322   3.037
 4007W        W76333   6.699  33.557  14.420
 4008W        W76334  44.662  25.611   0.259
 4009W        W76335  27.665   0.460  11.520
 4010W        W76336  42.498  14.361  13.000
 4011W        W76337  28.607  25.006   1.625
 4012W        W76338  23.531  17.200  12.688
 4013W        W76339  36.787  37.573  12.536
 4014W        W76340  43.743  23.983   0.435
 4015W        W76341  41.340  27.560  11.942
 4016W        W76342  10.585   7.227   2.232
 4017W        W76343  14.617  37.974  14.480
 4018W        W76344  24.204   0.979   1.687
 4019W        W76345  25.004  40.793   2.583
 4020W        W76346  13.682  27.148  12.289
 4021W        W76347  17.310  23.459   3.816
 4022W        W76348  18.714  27.511  11.609
 4023W        W76349  41.233   7.620  12.837
 4024W        W76350  35.644  19.777   1.441
 4025W        W76351   5.325  34.469  12.853
 4026W        W76352  31.992  38.307   0.005
 4027W        W76353  20.958   2.898  11.979
 4028W        W76354  37.777  35.507   4.764
 4029W        W76355  31.979  34.596   3.776
 4030W        W76356  15.817   2.429  12.789
 4031W        W76357  39.026  40.254  10.685
 4032W        W76358  22.075  29.408  13.003
 4033W        W76359   6.855  23.677  12.932
 4034W        W76360  11.403  39.872   2.310
 4035W        W76361  28.570  23.280  11.480
 4036W        W76362   5.931   8.993  14.341
 4037W        W76363   7.361   0.340   0.715
 4038W        W76364   8.168   5.944   2.213
 4039W        W76365   4.747  10.389   2.862
 4040W        W76366  29.486  11.147  14.249
 4041W        W76367  11.873  33.470  10.567
 4042W        W76368  18.026  20.138  12.474
 4043W        W76369   3.290  11.517   4.126
 4044W        W76370   5.004  22.611  14.038
 4045W        W76371   0.070  28.902   1.780
 4046W        W76372  19.581  16.126  11.643
 4047W        W76373   1.927  39.090   4.781
 4048W        W76374  36.961  12.669  11.066
 4049W        W76375  19.023   0.553   0.436
 4050W        W76376   2.429   5.900  12.751
 4051W        W76377  22.638  34.472  11.949
 4052W        W76378  36.702  19.668  10.491
 4053W        W76379  43.063  38.805  13.852
 4054W        W76380  40.777  17.549   4.158
 4055W        W76381  30.868  25.098  11.957
 4056W        W76382  43.345  30.665   0.286
 4057W        W76383  31.380  40.011  10.756
 4058W        W76384   3.895  20.961  14.810
 4059W        W76385  24.343  16.385   0.472
 4060W        W76386  15.816  21.060   2.726
 4061W        W76387  13.244   8.666   4.246
 4062W        W76388  20.657  22.093  10.563
 4063W        W76389  18.440  30.163  13.534
 4064W        W76390   4.918  25.806   2.327
 4065W        W76391  38.514  29.478   0.298
 4066W        W76392   3.997  41.011  14.393
 4067W        W76393  42.971  16.852  14.809
 4068W        W76394   5.476  14.932  13.912
 4069W        W76395  13.780  35.004  14.894
 4070W        W76396  16.399  22.713   3.241
 4071W        W76397  22.310   0.389   1.204
 4072W        W76398  24.588  13.357  13.661
 4073W        W76399  41.505  43.975  12.492
 4074W        W76400  18.265   0.833  10.166
 4075W        W76401  17.630  32.362   0.386
 4076W        W76402  33.054   8.262  12.707
 4077W        W76403  21.170  16.347  13.570
 4078W        W76404   2.808   4.713  11.940
 4079W        W76405  21.967  39.501  11.918
 4080W        W76406   6.898  14.283   2.837
 4081W        W76407   2.827  24.185  11.976
 4082W        W76408  34.129   6.293   1.840
 4083W        W76409  19.220  12.716   4.113
 4084W        W76410  28.267  25.292   0.281
 4085W        W76411  10.710  35.999  14.701
 4086W        W76412   4.771   0.969   1.750
 4087W        W76413  26.683  27.412   4.705
 4088W        W76414  17.240  40.093  14.426
 4089W        W76415   4.848  14.269   4.060
 4090W        W76416   0.315  25.521   0.460
 4091W        W76417  20.665  33.975  12.238
 4092W        W76418   2.878  29.932   4.619
 4093W        W76419  43.357  11.751  10.817
 4094W        W76420  31.622   1.436  13.600
 4095W        W76421  43.826  25.703  10.766
 4096W        W76422  39.576  28.538  13.805
 4097W        W76423  31.961   3.448   3.252
 4098W        W76424  37.656  38.515  11.226
 4099W        W76425  24.503  30.876   3.194
 4100W        W76426   7.651  19.199  13.407
 4101W        W76427  18.449  36.579   4.190
 4102W        W76428  14.625   9.797   1.840
 4103W        W76429  30.430  11.613  14.762
 4104W        W76430  31.458  26.031  12.198
 4105W        W76431  35.148   3.452   1.248
 4106W        W76432   6.777  44.525   2.717
 4107W        W76433  39.665  41.806  14.062
 4108W        W76434  14.909  39.119  11.413
 4109W        W76435  40.871  13.781  14.427
 4110W        W76436   5.470   6.792  13.492
 4111W        W76437  13.280  27.574  12.642
 4112W        W76438  10.387  25.511   1.554
 4113W        W76439  23.618  36.557   3.589
 4114W        W76440  37.418  19.812  14.914
 4115W        W76441  19.741  32.291  14.198
 4116W        W76442  14.103   9.700  13.330
 4117W        W76443  36.565  33.697   4.110
 4118W        W76444  25.993  15.581   4.295
 4119W        W76445  13.122  14.604  11.056
 4120W        W76446  38.366  11.390   0.741
 4121W        W76447  17.143  12.753   2.640
 4122W        W76448   0.492  22.741   1.363
 4123W        W76449   0.524   1.464  14.630
 4124W        W76450  41.278   5.004   1.743
 4125W        W76451   3.332  30.915   3.155
 4126W        W76452  11.855  22.698   4.680
 4127W        W76453  16.163   2.828  10.812
 4128W        W76454   8.830  16.312   0.906
 4129W        W76455  31.690  33.793  10.685
 4130W        W76456   3.928   0.546  10.548
 4131W        W76457  25.116  36.055  11.930
 4132W        W76458  10.218  42.747  11.504
 4133W        W76459   5.215  11.104   0.456
 4134W        W76460  43.092  13.758   4.982
 4135W        W76461  43.516   0.906   2.313
 4136W        W76462   5.837  41.881   1.704
 4137W        W76463  28.539  24.754  11.031
 4138W        W76464  30.034  26.161  12.014
 4139W        W76465  39.434  31.678  14.368
 4140W        W76466  37.412  38.856  11.540
 4141W        W76467  35.668  19.690   3.820
 4142W        W76468  34.850  11.150   1.880
 4143W        W76469  40.342   9.168   1.800
 4144W        W76470  39.345  40.120   3.700
 4145W        W76471   1.094   0.626   2.362
 4146W        W76472   0.953   0.085  12.905
 4147W        W76473  25.963  33.440   4.059
 4148W        W76474  40.475   8.683  13.336
 4149W        W76475  40.868  27.483   0.491
 4150W        W76476  17.631  40.834  12.106
 4151W        W76477  37.336   4.909   1.385
 4152W        W76478  17.629  16.260  11.627
 4153W        W76479  23.404  32.968  10.542
 4154W        W76480  13.199   7.144  10.725
 4155W        W76481  14.696  30.549  11.219
 4156W        W76482  14.577  21.731   2.430
 4157W        W76483  36.429   6.415  13.733
 4158W        W76484  31.536   6.178   0.882
 4159W        W76485  25.419  27.017  10.654
 4160W        W76486  27.109  33.441  12.521
 4161W        W76487  33.173  12.451   4.159
 4162W        W76488  36.798   0.795   3.186
 4163W        W76489  36.599   9.268   3.852
 4164W        W76490  16.282  21.217  14.906
 4165W        W76491  35.679  17.044  14.330
 4166W        W76492  14.690  19.991  14.088
 4167W        W76493  28.451  22.551  11.115
 4168W        W76494  33.287  11.198   0.868
 4169W        W76495  26.211  37.590  12.559
 4170W        W76496  20.017  33.983  14.841
 4171W        W76497   0.293   0.795   4.595
 4172W        W76498  15.850  36.649   1.776
 4173W        W76499  25.082  14.513  11.360
 4174W        W76500  21.448  13.743  11.364
 4175W        W76501  24.029   3.022   3.738
 4176W        W76502  25.981  33.409   0.735
 4177W        W76503  44.458  11.573  11.934
 4178W        W76504   0.451  26.854  11.990
 4179W        W76505  21.027   1.522  12.988
 4180W        W76506  13.839  25.194   0.360
 4181W        W76507  43.031  31.684   2.905
 4182W        W76508   9.997  34.756   0.998
 4183W        W76509  20.041  27.114  13.996
 4184W        W76510  20.963  37.812   3.753
 4185W        W76511  26.035  37.409  13.986
 4186W        W76512  20.396  36.056   4.083
 4187W        W76513   1.845  43.485   1.256
 4188W        W76514   0.484  38.924   4.636
 4189W        W76515  36.080   7.902   4.529
 4190W        W76516  10.389  21.517   2.773
 4191W        W76517  12.864  20.232   0.500
 4192W        W76518  38.041   4.732   1.828
 4193W        W76519   9.101  14.253   1.408
 4194W        W76520  37.305  43.959  10.556
 4195W        W76521   0.464  35.912  12.408
 4196W        W76522  32.080   9.973   3.635
 4197W        W76523   4.774  38.416  10.332
 4198W        W76524   5.202  23.492  13.003
 4199W        W76525  41.255  25.502  11.381
 4200W        W76526  26.742  36.606  14.093
 4201W        W76527   8.765  23.729  11.828
 4202W        W76528  38.604   5.839   4.418
 4203W        W76529  11.657  25.611  13.767
 4204W        W76530   4.921  27.850  13.966
 4205W        W76531  26.919   9.674   2.934
 4206W        W76532   8.645  39.964   3.402
 4207W        W76533  19.628   5.212   2.788
 4208W        W76534  24.445  38.161   0.349
 4209W        W76535  32.975  24.656   0.018
 4210W        W76536  10.639  13.836   0.208
 4211W        W76537  11.726  20.634   2.744
 4212W        W76538  34.826  17.821   2.318
 4213W        W76539  38.494   0.051  14.775
 4214W        W76540  22.181  30.912  11.584
 4215W        W76541  43.274  18.535   2.783
 4216W        W76542   3.482  15.319   3.541
 4217W        W76543  20.109   9.163  13.389
 4218W        W76544  32.268   1.878   1.327
 4219W        W76545  37.045  32.907   0.427
 4220W        W76546  28.507   7.436  12.854
 4221W        W76547  22.205  30.174   4.669
 4222W        W76548  39.364  14.821   1.394
 4223W        W76549  23.648  31.888   2.113
 4224W        W76550  18.685  20.442   1.436
 4225W        W76551  10.066  38.339  12.477
 4226W        W76552  27.726  26.713   1.100
 4227W        W76553  29.627  27.946  13.136
 4228W        W76554   0.696  40.343  11.050
 4229W        W76555   0.797  12.770   2.318
 4230W        W76556  34.382  17.082  13.484
 4231W        W76557  44.003   2.392   0.985
 4232W        W76558  13.286  34.444  11.185
 4233W        W76559  13.686  23.686   4.056
 4234W        W76560   9.592  14.788   3.789
 4235W        W76561  18.300  20.998   0.338
 4236W        W76562  33.395  13.102   3.385
 4237W        W76563  28.191  17.194  14.722
 4238W        W76564  40.025  35.083   0.352
 4239W        W76565  40.077  31.134  12.396
 4240W        W76566  31.266  28.072   0.859
 4241W        W76567  34.486  16.815  13.932
 4242W        W76568  37.587  38.870   2.808
 4243W        W76569   6.769  40.619   4.060
 4244W        W76570  12.795  26.655   2.725
 4245W        W76571  36.859  43.876   2.743
 4246W        W76572  21.969  12.167   2.015
 4247W        W76573  39.028  43.260  12.315
 4248W        W76574  28.202  25.758  10.828
 4249W        W76575   7.288  29.560   4.277
 4250W        W76576  13.292  42.267   0.712
 4251W        W76577  13.586   7.228   3.903
 4252W        W76578  11.725   5.910   4.434
 4253W        W76579  34.068  14.929  13.165
 4254W        W76580  13.321  19.976   0.352
 4255W        W76581   8.455  11.720  11.548
 4256W        W76582  10.248  33.092  13.523
 4257W        W76583  16.239  18.052  13.016
 4258W        W76584   0.242  15.750   1.402
 4259W        W76585  22.268  17.185   1.847
 4260W        W76586  44.162  28.433   3.122
 4261W        W76587   9.880  16.285  12.675
 4262W        W76588   8.852   7.914   4.144
 4263W        W76589  30.436  42.756  14.874
 4264W        W76590  35.212  13.289   1.117
 4265W        W76591  19.615  29.467  13.910
 4266W        W76592   7.598  16.625   4.749
 4267W        W76593   4.138  37.856  11.928
 4268W        W76594  41.054  33.094  12.053
 4269W        W76595  26.533   4.979  14.107
 4270W        W76596  30.423   6.234  14.825
 4271W        W76597  23.712  29.905  11.889
 4272W        W76598  13.074  38.950   2.464
 4273W        W76599  44.855  39.837   4.567
 4274W        W76600  38.977  32.932  14.165
 4275W        W76601  32.739  14.075   4.949
 4276W        W76602  14.588  19.915   0.560
 4277W        W76603  35.626  37.393   3.237
 4278W        W76604  35.535  43.830  11.650
 4279W        W76605   9.902  21.496  12.906
 4280W        W76606  13.886  14.678  13.045
 4281W        W76607  36.908  13.918  14.919
 4282W        W76608   5.172  12.866   3.223
 4283W        W76609  31.587  12.963  11.159
 4284W        W76610   7.975   9.116  14.130
 4285W        W76611  22.301  11.183  14.354
 4286W        W76612  16.731  40.440  11.530
 4287W        W76613  38.281  10.305  11.121
 4288W        W76614  18.995  18.521   1.182
 4289W        W76615  33.805  14.272  14.485
 4290W        W76616  37.539  10.540   2.618
 4291W        W76617  39.014  30.310   3.386
 4292W        W76618  23.796  42.860  13.270
 4293W        W76619  42.759  38.067   4.531
 4294W        W76620   1.040  40.235  11.459
 4295W        W76621  13.794  30.190   1.312
 4296W        W76622  15.853  40.433  11.069
 4297W        W76623  11.749  16.491   0.884
 4298W        W76624   2.528  20.214  14.534
 4299W        W76625  11.594   9.882   0.820
 4300W        W76626  41.918   9.274   1.669
 4301W        W76627   8.253  24.158   4.560
 4302W        W76628  27.024  42.043   3.222
 4303W        W76629  40.967  26.128   3.859
 4304W        W76630   4.324  40.727  13.030
 4305W        W76631  30.491   0.402  11.170
 4306W        W76632  21.413  11.724   2.308
 4307W        W76633  43.033   8.748  11.300
 4308W        W76634  15.860  28.949   1.609
 4309W        W76635  28.024  10.582  14.959
 4310W        W76636  41.792   4.757  11.155
 4311W        W76637  31.133  40.861  12.886
 4312W        W76638   0.609  29.077   1.098
 4313W        W76639  21.535   5.779   4.072
 4314W        W76640   8.214  35.161   2.806
 4315W        W76641  34.842  31.933   1.262
 4316W        W76642   5.562  42.979   0.440
 4317W        W76643  38.475  10.860  11.039
 4318W        W76644  24.550  27.277   3.640
 4319W        W76645  25.647   7.311   4.547
 4320W        W76646   2.307  10.001   0.873
 4321W        W76647  16.522  39.096   2.726
 4322W        W76648   1.431   4.575  12.407
 4323W        W76649   7.832   8.578  11.569
 4324W        W76650  42.986   9.924  11.045
 4325W        W76651  34.220  34.373  13.409
 4326W        W76652  26.048  36.595   3.386
 4327W        W76653  16.796   1.881   0.174
 4328W        W76654  17.809  21.495   0.969
 4329W        W76655  28.623  29.537   4.648
 4330W        W76656  38.069   0.425  14.021
 4331W        W76657  19.227  36.817   1.471
 4332W        W76658  41.975  16.299  14.830
 4333W        W76659  34.552  34.494   3.735
 4334W        W76660  15.223   5.008  14.866
 4335W        W76661  41.769  39.049  10.776
 4336W        W76662  43.320  19.716   0.001
 4337W        W76663  31.914  34.359   2.239
 4338W        W76664  14.947  32.604   2.409
 4339W        W76665  33.796  30.618   1.504
 4340W        W76666   2.747   2.468   5.078
 4341W        W76667  37.428  36.470  13.842
 4342W        W76668  43.501   5.400   2.179
 4343W        W76669  23.333  38.877   0.902
 4344W        W76670  31.528   9.306   1.387
 4345W        W76671  43.836  32.063   1.897
 4346W        W76672  32.392  43.479   2.189
 4347W        W76673  17.391  44.088  11.061
 4348W        W76674  33.312  16.177   0.660
 4349W        W76675  42.904  44.555   4.011
 4350W        W76676  33.279  30.400   5.067
 4351W        W76677  36.965  20.474  13.359
 4352W        W76678  34.995  30.905  13.818
 4353W        W76679  34.146   0.865   0.223
 4354W        W76680  24.168   0.251  13.123
 4355W        W76681  38.660  25.942   3.287
 4356W        W76682   1.743   4.659  13.190
 4357W        W76683  40.788   5.903  11.609
 4358W        W76684  34.001  31.051   3.639
 4359W        W76685  15.894  38.719   0.477
 4360W        W76686   4.819  41.531  11.629
 4361W        W76687   1.595  14.408  11.157
 4362W        W76688  29.138  17.003  11.139
 4363W        W76689  22.137   6.426  10.828
 4364W        W76690   2.538  18.519   0.315
 4365W        W76691  42.523  20.220  10.909
 4366W        W76692  11.206  40.664   3.097
 4367W        W76693  18.509  18.654   3.450
 4368W        W76694   5.792  35.496  10.585
 4369W        W76695  29.891  25.379   3.499
 4370W        W76696  32.359  25.972   0.786
 4371W        W76697  38.587  19.658  12.871
 4372W        W76698   2.167  26.515  10.288
 4373W        W76699  33.744  24.926  12.508
 4374W        W76700  19.360  17.608  11.117
 4375W        W76701  12.152  29.588   0.283
 4376W        W76702  12.426   8.784  13.874
 4377W        W76703  13.166   2.757  12.451
 4378W        W76704  35.621  15.124   0.458
 4379W        W76705  26.236  28.114   0.860
 4380W        W76706   4.959   4.855   0.889
 4381W        W76707  41.805  35.406   4.453
 4382W        W76708  44.761  34.418  10.713
 4383W        W76709   5.977  44.270   3.772
 4384W        W76710  28.458  37.288   1.829
 4385W        W76711   6.071   9.738  14.851
 4386W        W76712  30.741  29.998   4.184
 4387W        W76713   1.202  22.573   4.463
 4388W        W76714   6.382  37.983   4.084
 4389W        W76715  21.706  17.766  10.640
 4390W        W76716  35.075  13.200   3.755
 4391W        W76717  24.085  13.748  12.602
 4392W        W76718   2.961  17.575  11.945
 4393W        W76719  42.061  12.886   4.172
 4394W        W76720  18.622  39.489   0.830
 4395W        W76721  44.993  26.019   0.241
 4396W        W76722  40.620  26.222  14.544
 4397W        W76723  20.304   0.989  10.694
 4398W        W76724   4.513  29.854  11.125
 4399W        W76725  19.213  42.056   1.473
 4400W        W76726  35.355  44.734  11.687
 4401W        W76727  37.231  10.296  12.391
 4402W        W76728  40.807  32.105   3.359
 4403W        W76729   0.870  21.692   1.407
 4404W        W76730  28.624   3.918   0.518
 4405W        W76731  15.525  32.684  13.059
 4406W        W76732   7.523  44.878   2.023
 4407W        W76733  36.459   7.649   2.914
 4408W        W76734  38.931  22.807   1.961
 4409W        W76735  42.883  19.189   2.229
 4410W        W76736  25.195  13.125   0.983
 4411W        W76737  37.584  32.723  11.084
 4412W        W76738  32.576  25.555  14.036
 4413W        W76739  35.526  40.686   0.847
 4414W        W76740   2.146   1.656  10.719
 4415W        W76741  15.339   2.480  10.789
 4416W        W76742  11.336  28.138   0.900
 4417W        W76743   6.235  10.043  10.184
 4418W        W76744   7.934  15.101  10.378
 4419W        W76745  34.021  40.279   1.896
 4420W        W76746  26.933  16.170   0.501
 4421W        W76747  33.069  40.456  13.429
 4422W        W76748   4.891  19.563   5.051
 4423W        W76749  30.605  30.723  13.837
 4424W        W76750   4.221  10.745   5.066
 4425W        W76751  29.032   8.440   2.702
 4426W        W76752   4.609   3.765   1.206
 4427W        W76753  35.524  27.603   4.570
 4428W        W76754   2.266  41.089   3.277
 4429W        W76755  12.962   2.400   3.083
 4430W        W76756  40.409  35.872   1.881
 4431W        W76757  23.201   1.305   4.410
 4432W        W76758  33.086  32.745   2.932
 4433W        W76759  31.514  42.439   1.835
 4434W        W76760   6.979   6.793  12.179
 4435W        W76761  15.647  18.476  11.616
 4436W        W76762  34.873   4.033   4.356
 4437W        W76763   9.491  13.607   1.814
 4438W        W76764  30.577  33.707  11.524
 4439W        W76765  37.904   7.708   1.737
 4440W        W76766  26.890  18.056   4.748
 4441W        W76767  31.556  23.708  14.738
 4442W        W76768   3.272  19.282  13.907
 4443W        W76769  34.112  25.915  13.610
 4444W        W76770  13.024  44.335  13.982
 4445W        W76771   1.292  27.419  10.865
 4446W        W76772  37.819  35.338   4.264
 4447W        W76773   0.791  15.944  11.704
 4448W        W76774  22.649   6.745   3.776
 4449W        W76775   1.057  24.434   3.629
 4450W        W76776  27.102  14.142  11.125
 4451W        W76777   1.907  35.942   4.107
 4452W        W76778  25.555  29.986   0.283
 4453W        W76779  23.755   9.052   4.822
 4454W        W76780  28.152  25.969  12.900
 4455W        W76781  38.593  41.159  14.806
 4456W        W76782  21.860  26.389  13.547
 4457W        W76783  21.703  42.465  14.917
 4458W        W76784  20.490  35.582   0.214
 4459W        W76785  29.031  32.376   0.823
 4460W        W76786  17.653  33.035  13.974
 4461W        W76787  40.392  29.241  12.451
 4462W        W76788  35.605   1.331   3.319
 4463W        W76789   9.877   1.954   1.886
 4464W        W76790   2.325  27.470   4.097
 4465W        W76791  43.913   2.691   0.577
 4466W        W76792   4.815  17.675  14.666
 4467W        W76793  43.058   1.403  10.712
 4468W        W76794  37.515   5.303  14.997
 4469W        W76795  24.539  36.297  14.478
 4470W        W76796   0.907  16.650   2.029
 4471W        W76797  39.887  44.498   0.771
 4472W        W76798  34.007   5.156   3.270
 4473W        W76799  14.386  11.380  12.657
 4474W        W76800   2.154   0.362   0.178
 4475W        W76801  37.897  19.559   0.375
 4476W        W76802  23.802  19.001   0.404
 4477W        W76803   7.984   7.824   2.288
 4478W        W76804  26.392  31.761   4.528
 4479W        W76805  23.164  18.162   3.859
 4480W        W76806  34.428  32.727  13.350
 4481W        W76807  44.040   3.004  13.453
 4482W        W76808  10.784  22.735   3.755
 4483W        W76809   5.972  16.043   1.868
 4484W        W76810  42.616  43.119   2.319
 4485W        W76811  32.481  27.194  13.108
 4486W        W76812  31.414  38.556  12.418
 4487W        W76813   8.361   6.915   3.472
 4488W        W76814   5.458  21.791  11.966
 4489W        W76815  29.267  26.141   2.174
 4490W        W76816  40.373  27.467   2.200
 4491W        W76817  38.468  15.129  11.401
 4492W        W76818  10.748   9.750   1.362
 4493W        W76819  31.917  16.282  11.939
 4494W        W76820   1.742  14.261   1.950
 4495W        W76821   7.940   2.701  13.564
 4496W        W76822  23.160  20.552   3.449
 4497W        W76823  36.880  42.563   0.849
 4498W        W76824  11.622   6.751   0.835
 4499W        W76825  44.374  24.511  10.987
 4500W        W76826  40.343  26.565  14.792
 4501W        W76827  29.889  12.127   2.453
 4502W        W76828  30.493   1.720  10.832
 4503W        W76829  38.357  19.763  10.928
 4504W        W76830  29.587  32.817  10.700
 4505W        W76831   6.676  15.366  12.867
 4506W        W76832  31.919  37.427  10.916
 4507W        W76833  26.936  16.383  12.456
 4508W        W76834  39.412  22.948   3.335
 4509W        W76835  38.827  15.315  13.117
 4510W        W76836  43.962  31.556  14.799
 4511W        W76837  23.075  12.283  12.502
 4512W        W76838  31.401  40.445  12.807
 4513W        W76839  44.508   6.004  14.014
 4514W        W76840  39.774  25.551   0.979
 4515W        W76841  18.231   8.154  10.695
 4516W        W76842  25.904  25.392   4.263
 4517W        W76843  18.336  16.342   1.233
 4518W        W76844  41.859  33.404  11.567
 4519W        W76845  42.300  37.923   3.774
 4520W        W76846   5.663  35.991  14.510
 4521W        W76847   9.559  24.475   3.122
 4522W        W76848   7.287   8.585  13.708
 4523W        W76849  19.699  18.135   2.363
 4524W        W76850   5.705   4.919  10.740
 4525W        W76851  20.089   8.042   2.360
 4526W        W76852  12.481  13.622   3.664
 4527W        W76853  41.269   9.144  14.751
 4528W        W76854   1.710  38.469   0.304
 4529W        W76855  20.506   8.180  11.542
 4530W        W76856   4.355  14.794   1.811
 4531W        W76857  12.586   7.717   0.057
 4532W        W76858  29.243  39.416   3.745
 4533W        W76859  10.401   3.401  14.765
 4534W        W76860  13.263  20.993   0.332
 4535W        W76861  22.913  34.728   3.344
 4536W        W76862   0.428  12.562  10.602
 4537W        W76863  18.888  30.500  14.349
 4538W        W76864  31.433  14.733   0.810
 4539W        W76865   6.936  42.055   2.908
 4540W        W76866  26.166  23.740   1.649
 4541W        W76867   5.891  31.604   4.158
 4542W        W76868  34.048  32.493  11.008
 4543W        W76869  36.339  31.086  14.280
 4544W        W76870  33.664  29.590   2.150
 4545W        W76871  17.601  21.097  11.046
 4546W        W76872  35.989  27.934  12.982
 4547W        W76873  24.055  25.004   4.579
 4548W        W76874  23.552  19.503   4.274
 4549W        W76875  14.715   9.904  10.494
 4550W        W76876   9.298  11.484   2.646
 4551W        W76877  33.048  20.145  14.757
 4552W        W76878  33.895   3.014  14.483
 4553W        W76879   0.350  29.524  12.214
 4554W        W76880  29.364  39.868   4.317
 4555W        W76881  29.046  20.686   3.318
 4556W        W76882  32.348  27.046  13.583
 4557W        W76883  25.445  30.398   4.802
 4558W        W76884  18.216  42.016   2.573
 4559W        W76885  16.800   2.530   2.450
 4560W        W76886  41.514  41.398   4.121
 4561W        W76887   8.569  37.983  11.506
 4562W        W76888   0.707   6.228   0.345
 4563W        W76889  32.544  24.057   3.559
 4564W        W76890   2.763  10.185   1.824
 4565W        W76891  41.364  31.202   4.150
 4566W        W76892  23.748  41.392   1.663
 4567W        W76893  39.460  44.343  10.797
 4568W        W76894  27.005  10.140  12.605
 4569W        W76895  34.076   3.742  12.909
 4570W        W76896  43.734  14.038   0.909
 4571W        W76897   8.035  25.627   4.284
 4572W        W76898  32.068  26.457   5.231
 4573W        W76899  15.223  21.957  14.946
 4574W        W76900  35.636  37.006  14.745
 4575W        W76901  15.224  15.980  14.238
 4576W        W76902   4.304   1.094   3.733
 4577W        W76903  11.032   1.916  13.950
 4578W        W76904  12.919  19.108   4.904
 4579W        W76905  18.403  36.913   0.505
 4580W        W76906  22.986   6.443   1.353
 4581W        W76907  34.744  33.544   4.364
 4582W        W76908   8.903  31.133   2.295
 4583W        W76909   5.747  18.197   0.765
 4584W        W76910   5.124  41.040   5.032
 4585W        W76911   3.442   7.326   4.236
 4586W        W76912  39.082  42.324  14.443
 4587W        W76913  33.559   4.411  11.584
 4588W        W76914  30.117  16.112   3.206
 4589W        W76915   9.410  10.231  12.501
 4590W        W76916  29.029  44.796  10.620
 4591W        W76917  10.962  20.991   4.127
 4592W        W76918  32.681  25.284   5.066
 4593W        W76919  38.113  23.904   0.355
 4594W        W76920   3.021  21.321  10.226
 4595W        W76921  34.128   9.616   3.122
 4596W        W76922  42.953  37.746   1.192
 4597W        W76923  27.717  26.554   2.821
 4598W        W76924  20.722  27.734   3.357
 4599W        W76925   9.217  20.298   3.048
 4600W        W76926   0.223   0.305   2.433
 4601W        W76927   1.431  30.309   4.656
 4602W        W76928  11.072  29.380  11.217
 4603W        W76929  19.246   4.800   3.633
 4604W        W76930   0.428  20.027  10.715
 4605W        W76931  40.526  22.325  13.397
 4606W        W76932  10.251  27.635  11.012
 4607W        W76933  40.183  23.657  12.936
 4608W        W76934  39.849  41.262  11.592
 4609W        W76935  38.583  19.539  12.336
 4610W        W76936  15.050  27.688   2.312
 4611W        W76937  37.026  27.088   2.436
 4612W        W76938  17.636  12.514  14.050
 4613W        W76939  39.824  29.439  14.972
 4614W        W76940  31.098  28.187  13.701
 4615W        W76941   7.959  33.994   1.858
 4616W        W76942  27.790  31.864  13.451
 4617W        W76943  15.649  15.868   5.037
 4618W        W76944  29.643   2.013  13.348
 4619W        W76945  38.463  20.710  10.537
 4620W        W76946  14.557   7.905  12.974
 4621W        W76947  31.636  28.683  12.981
 4622W        W76948  16.806  13.761   0.860
 4623W        W76949   7.637  15.697  14.469
 4624W        W76950  16.977   3.995   2.006
 4625W        W76951  37.269  15.387  14.647
 4626W        W76952  28.454  12.034  13.865
 4627W        W76953  29.035  31.984   2.409
 4628W        W76954   3.700  38.351   4.201
 4629W        W76955  24.749   4.736   1.489
 4630W        W76956  27.096  43.192   1.992
 4631W        W76957  40.303  30.504  12.840
 4632W        W76958  12.876   7.042   0.247
 4633W        W76959  36.633  17.576   1.819
 4634W        W76960  31.401  19.733  12.020
 4635W        W76961  25.983   9.866  13.610
 4636W        W76962  15.245   2.547  12.128
 4637W        W76963  23.539   2.996   2.185
 4638W        W76964  16.878  37.597   0.910
 4639W        W76965  11.825  10.920   4.722
 4640W        W76966  31.180  43.747   0.402
 4641W        W76967   0.909  15.820  13.519
 4642W        W76968  20.567   0.025   3.056
 4643W        W76969  38.788  25.318  10.786
 4644W        W76970  27.622  44.526   2.716
 4645W        W76971  30.936  29.924  11.614
 4646W        W76972  41.558  13.332  11.620
 4647W        W76973   7.465  38.765  10.662
 4648W        W76974  34.970   8.728  14.184
 4649W        W76975  39.567  10.915  13.460
 4650W        W76976  35.810  12.893  11.141
 4651W        W76977  14.757  42.919   4.279
 4652W        W76978  22.518  30.426   0.496
 4653W        W76979  11.113   0.775   0.057
 4654W        W76980  26.759   8.324   3.741
 4655W        W76981  42.797  42.541  10.742
 4656W        W76982  22.676  39.065  14.093
 4657W        W76983  13.691  33.935   2.586
 4658W        W76984  31.072  22.664  11.573
 4659W        W76985  24.782  10.064  13.789
 4660W        W76986  27.488  31.421   2.717
 4661W        W76987  20.825  26.849   2.326
 4662W        W76988  34.445  13.177  11.437
 4663W        W76989  10.754  15.664  14.571
 4664W        W76990   5.493  13.603  13.367
 4665W        W76991  29.973   4.917   0.964
 4666W        W76992  20.877   9.456   4.541
 4667W        W76993  31.026   8.146   2.663
 4668W        W76994  23.614  12.421  13.680
 4669W        W76995  38.114  13.797  13.077
 4670W        W76996  31.065  17.875   1.511
 4671W        W76997   1.346  40.104  12.534
 4672W        W76998  42.376  27.007  12.846
 4673W        W76999  26.140  11.231  11.362
 4674W        W77000   3.815  40.473  14.940
 4675W        W77001  27.763   7.951  14.927
 4676W        W77002  21.017   7.158  10.812
 4677W        W77003   0.624  35.696  12.950
 4678W        W77004  13.091  23.149  10.757
 4679W        W77005  11.607  26.163  12.651
 4680W        W77006  28.484  40.910   3.279
 4681W        W77007  32.381  22.771  11.128
 4682W        W77008  40.310  41.953  14.994
 4683W        W77009  13.828  39.121  12.822
 4684W        W77010  21.228  40.315  14.529
 4685W        W77011   6.957  40.949   3.635
 4686W        W77012   2.761  17.498  11.156
 4687W        W77013   7.776   4.298   4.020
 4688W        W77014  43.947  10.419   0.413
 4689W        W77015  31.014  44.440  10.701
 4690W        W77016  32.665  41.213   1.770
 4691W        W77017  31.375  17.561  14.059
 4692W        W77018  32.624  24.718  13.462
 4693W        W77019  18.656   3.804  14.789
 4694W        W77020  27.641  42.820   0.279
 4695W        W77021   3.966  22.138   5.109
 4696W        W77022  34.250  38.027  10.346
 4697W        W77023   1.797  17.292  11.502
 4698W        W77024  22.448  14.770   4.874
 4699W        W77025  40.940  24.409  14.418
 4700W        W77026  13.708  17.797  11.390
 4701W        W77027   7.335  39.514  11.025
 4702W        W77028   1.923  35.877  14.967
 4703W        W77029  25.639  18.145   3.256
 4704W        W77030  38.775  28.140   1.037
 4705W        W77031  34.593  24.192  13.472
 4706W        W77032  42.641   7.825   4.859
 4707W        W77033   6.997  26.990   1.345
 4708W        W77034  10.199  33.856   2.737
 4709W        W77035  31.549  28.176   3.226
 4710W        W77036   3.670  31.964  13.860
 4711W        W77037  24.655  25.507   0.533
 4712W        W77038  24.031  32.619  12.538
 4713W        W77039  36.681  26.513   0.754
 4714W        W77040  30.694  16.719   1.730
 4715W        W77041  25.453   6.495   2.703
 4716W        W77042  40.441  38.387   2.407
 4717W        W77043  14.377  42.809   2.121
 4718W        W77044   6.353  38.566   0.459
 4719W        W77045  13.860  34.919  12.560
 4720W        W77046  16.071  23.361  11.893
 4721W        W77047  43.972   7.358   2.834
 4722W        W77048  12.803  12.137  10.575
 4723W        W77049  44.727   2.379   2.764
 4724W        W77050  12.066   4.076   3.300
 4725W        W77051   6.858   7.522   0.792
 4726W        W77052   7.040  17.736  11.886
 4727W        W77053  42.572  39.822  11.651
 4728W        W77054  44.160  34.638   3.769
 4729W        W77055  25.972  17.611   0.995
 4730W        W77056  31.955   8.926  11.233
 4731W        W77057  33.573  17.665  12.858
 4732W        W77058  20.903  24.024   2.772
 4733W        W77059  31.894   4.672   4.330
 4734W        W77060  30.956  28.424   1.118
 4735W        W77061  42.032  43.997   4.097
 4736W        W77062  13.537  33.841   1.356
 4737W        W77063  15.770  39.376  12.523
 4738W        W77064  23.205   4.916  12.017
 4739W        W77065  41.967  19.049   4.677
 4740W        W77066   2.674   1.958   5.010
 4741W        W77067   9.004  34.627  12.942
 4742W        W77068  38.573  38.002   1.868
 4743W        W77069  10.493  31.402   2.933
 4744W        W77070  25.513  43.064  12.412
 4745W        W77071  23.285   4.018  12.950
 4746W        W77072  39.943  24.934  14.434
 4747W        W77073   7.269  24.533   1.813
 4748W        W77074   6.700   0.987   3.902
 4749W        W77075  40.801  13.241   2.266
 4750W        W77076  34.241  25.225  14.509
 4751W        W77077  35.440  10.607   0.376
 4752W        W77078  34.359  40.348  13.142
 4753W        W77079  14.225  23.996   2.374
 4754W        W77080  41.849  18.202   1.822
 4755W        W77081  26.512  21.869  14.928
 4756W        W77082  39.773  42.301   0.869
 4757W        W77083  25.505   7.834  13.989
 4758W        W77084  34.534   4.540  12.903
 4759W        W77085  31.187  44.033   1.349
 4760W        W77086  44.753  27.901  13.468
 4761W        W77087  40.045  43.977  11.190
 4762W        W77088   7.293  11.559   0.006
 4763W        W77089  35.668  29.536  13.562
 4764W        W77090   2.873  42.506   0.183
 4765W        W77091  25.708  40.968   4.515
 4766W        W77092  14.166  39.488  13.995
 4767W        W77093  12.744   5.540   2.133
 4768W        W77094   6.827  37.514  10.697
 4769W        W77095   7.411  33.998   1.697
 4770W        W77096   9.631  10.878  11.452
 4771W        W77097  11.566  17.241  10.712
 4772W        W77098  12.656   1.205   1.497
 4773W        W77099   5.149  34.767   0.116
 4774W        W77100  42.258  14.671   2.814
 4775W        W77101   4.365  22.222  14.314
 4776W        W77102  11.700  31.635   4.590
 4777W        W77103  13.093  16.161  12.037
 4778W        W77104  26.850  23.333  14.517
 4779W        W77105  20.346   5.138   0.264
 4780W        W77106  42.709   2.634   2.149
 4781W        W77107   5.178  36.455  12.914
 4782W        W77108  18.179  23.724   4.487
 4783W        W77109  21.732  38.822  14.287
 4784W        W77110  11.247  21.618  12.088
 4785W        W77111   8.136   4.348  14.934
 4786W        W77112  23.195  44.200  14.199
 4787W        W77113  19.534   4.077   1.873
 4788W        W77114   0.261   7.491   4.743
 4789W        W77115   1.546  39.371  11.422
 4790W        W77116  11.203  12.839  11.672
 4791W        W77117  18.689  32.385   4.203
 4792W        W77118  12.914   9.988   1.327
 4793W        W77119  16.617  35.229   0.196
 4794W        W77120  43.309  27.208   0.818
 4795W        W77121  14.187  36.843   4.546
 4796W        W77122   8.297  25.520  14.258
 4797W        W77123  43.897  22.645   3.311
 4798W        W77124  38.058  12.745  12.776
 4799W        W77125   0.335  27.966   0.209
 4800W        W77126  15.132   9.669   3.620
 4801W        W77127  22.536  39.394   1.294
 4802W        W77128   6.830  21.667  12.995
 4803W        W77129  33.355  32.102   0.406
 4804W        W77130  11.009  41.439  13.076
 4805W        W77131  22.484  41.299  12.003
 4806W        W77132  25.632  15.867  12.647
 4807W        W77133  43.448  36.427  11.597
 4808W        W77134  34.563  42.435   2.187
 4809W        W77135  18.586  30.366  10.704
 4810W        W77136  17.031  43.352   3.702
 4811W        W77137   6.609  14.123  14.717
 4812W        W77138  38.394  21.708  10.626
 4813W        W77139  30.113  16.397  11.576
 4814W        W77140  28.829  38.986  10.433
 4815W        W77141  26.982  19.555  14.030
 4816W        W77142   9.528  31.712  13.575
 4817W        W77143  37.654  37.224   4.980
 4818W        W77144  25.565  35.638  13.942
 4819W        W77145  17.131  19.390   1.455
 4820W        W77146  35.395  16.500   4.563
 4821W        W77147  40.034  16.721   0.996
 4822W        W77148  24.652  15.118  12.070
 4823W        W77149  17.427  25.378  10.610
 4824W        W77150  21.179  13.823  13.032
 4825W        W77151   7.755  25.610   2.007
 4826W        W77152  44.271  22.163   0.915
 4827W        W77153  33.319  35.613  11.077
 4828W        W77154  37.354  43.991   2.556
 4829W        W77155   5.419  40.424  12.186
 4830W        W77156   4.545   7.717   4.297
 4831W        W77157  38.495  23.887   4.866
 4832W        W77158  38.274  26.289   3.333
 4833W        W77159   6.824  40.361   0.031
 4834W        W77160   9.161   0.868   9.941
 4835W        W77161   6.405  11.717  10.701
 4836W        W77162  39.568   6.767   2.146
 4837W        W77163   3.947  27.424   2.310
 4838W        W77164  24.229  24.093   4.119
 4839W        W77165   3.325  40.319   1.862
 4840W        W77166  11.968  35.621   1.941
 4841W        W77167   5.512   3.397  14.772
 4842W        W77168  14.319  22.516  12.101
 4843W        W77169   1.707  12.730  14.778
 4844W        W77170  26.053  33.007   1.063
 4845W        W77171  33.387  28.671  12.474
 4846W        W77172  11.191  40.768   4.603
 4847W        W77173  42.515  19.378  10.674
 4848W        W77174  41.495  43.753   3.061
 4849W        W77175  28.118   3.657  10.227
 4850W        W77176  11.877  30.053  12.351
 4851W        W77177   0.474  38.112   2.387
 4852W        W77178  24.243   0.322   1.302
 4853W        W77179  35.826  35.070  14.504
 4854W        W77180  38.592  18.379  14.879
 4855W        W77181  18.620   6.280  10.600
 4856W        W77182  24.037  31.757  11.834
 4857W        W77183  27.901  25.371   4.525
 4858W        W77184  21.974  17.676   2.137
 4859W        W77185   0.478  31.592  13.354
 4860W        W77186  40.380  39.090  14.365
 4861W        W77187  11.436  34.656   3.811
 4862W        W77188  18.896  14.207   0.335
 4863W        W77189  13.620  18.700   3.684
 4864W        W77190  14.729  27.216  14.898
 4865W        W77191  20.316  33.497  14.063
 4866W        W77192  37.605  23.217  13.065
 4867W        W77193  10.667  26.125   0.839
 4868W        W77194  28.970  32.033  14.479
 4869W        W77195  24.169  10.554   1.650
 4870W        W77196  38.659  23.211   2.781
 4871W        W77197   9.213  19.589   1.910
 4872W        W77198   9.290  35.377   0.500
 4873W        W77199   9.825  25.040   1.648
 4874W        W77200  34.572  18.529  11.130
 4875W        W77201  19.740  10.200   4.730
 4876W        W77202   8.777  24.412  10.336
 4877W        W77203  26.100  34.320   4.592
 4878W        W77204   1.450  19.705   1.019
 4879W        W77205  37.900  11.837   4.805
 4880W        W77206   2.257  36.812   4.201
 4881W        W77207   3.461  27.340  12.338
 4882W        W77208   2.235  41.812  11.649
 4883W        W77209   8.666   7.407  12.009
 4884W        W77210  16.449  28.483   2.670
 4885W        W77211  35.854  34.050   4.641
 4886W        W77212  18.479   1.969   3.302
 4887W        W77213  30.652  29.695   4.580
 4888W        W77214  11.359  14.441  12.404
 4889W        W77215  19.294  26.161   4.882
 4890W        W77216  43.234  25.455   0.508
 4891W        W77217   5.712  20.143  13.022
 4892W        W77218  23.442  27.994   2.287
 4893W        W77219  44.282   8.259  13.593
 4894W        W77220  41.390  27.469   4.618
 4895W        W77221  31.859  33.000   3.888
 4896W        W77222  31.448  37.915   3.632
 4897W        W77223  33.099  29.201  11.815
 4898W        W77224  43.574  27.461   1.956
 4899W        W77225  27.465  42.300  12.510
 4900W        W77226  37.879  32.117   2.130
 4901W        W77227   1.694   0.336  12.349
 4902W        W77228   8.788   4.155   1.443
 4903W        W77229  27.861   6.271  13.271
 4904W        W77230   2.745  19.754   0.436
 4905W        W77231  31.440  13.919   4.979
 4906W        W77232  22.694  38.397  11.138
 4907W        W77233   0.422  40.825  10.976
 4908W        W77234   5.398  44.779   0.865
 4909W        W77235   7.794   1.458   0.243
 4910W        W77236   3.700  35.053  11.586
 4911W        W77237  25.297  16.059  10.824
 4912W        W77238  44.470   3.093   3.217
 4913W        W77239  14.804  37.532  14.262
 4914W        W77240   9.638   8.750  10.697
 4915W        W77241   2.187   1.788   5.067
 4916W        W77242   2.005  42.967   1.153
 4917W        W77243  29.924  22.080  14.028
 4918W        W77244   9.332  22.182  12.885
 4919W        W77245  11.510  31.385  13.382
 4920W        W77246  14.280   1.054   0.336
 4921W        W77247   3.176  21.767   0.756
 4922W        W77248   4.876   4.799  13.949
 4923W        W77249  27.436  11.757  10.580
 4924W        W77250  15.311  34.853   9.814
 4925W        W77251  24.021  24.772  12.984
 4926W        W77252  42.492  25.625   2.231
 4927W        W77253  12.235  39.410  10.748
 4928W        W77254  39.792  29.723   4.613
 4929W        W77255   5.752  36.802   2.214
 4930W        W77256  34.628  32.541   2.786
 4931W        W77257  42.421  43.405  10.356
 4932W        W77258  15.751  20.001   4.236
 4933W        W77259  24.021  31.120   3.156
 4934W        W77260  36.038  31.631  14.893
 4935W        W77261  44.321  43.315  10.930
 4936W        W77262  41.343  28.485   0.992
 4937W        W77263  38.108  17.108  15.000
 4938W        W77264  33.840  26.499   4.072
 4939W        W77265  37.919  34.814   1.335
 4940W        W77266  25.584  17.721   5.487
 4941W        W77267   4.353  43.414   0.357
 4942W        W77268  41.472  16.078   1.332
 4943W        W77269  18.001  13.903   3.315
 4944W        W77270  27.566  37.390   2.241
 4945W        W77271  29.958   3.849   4.356
 4946W        W77272  43.792  28.169  14.495
 4947W        W77273  19.840   4.776   3.848
 4948W        W77274  15.167  36.459   4.636
 4949W        W77275  13.239  23.668   3.792
 4950W        W77276  37.406  25.533  14.794
 4951W        W77277  29.647  42.825  11.110
 4952W        W77278  30.365   9.722   3.234
 4953W        W77279   9.092  36.592  14.372
 4954W        W77280  36.614  19.276  11.439
 4955W        W77281   3.578   3.719  14.839
 4956W        W77282  27.567  36.535   3.687
 4957W        W77283   2.268  19.597   2.283
 4958W        W77284  33.170  42.981  14.479
 4959W        W77285   4.327  27.123   3.823
 4960W        W77286  22.024  20.996   4.351
 4961W        W77287  41.934   5.781   1.854
 4962W        W77288  18.746   3.956  11.465
 4963W        W77289  36.818  41.324   2.823
 4964W        W77290  29.550  22.618   1.930
 4965W        W77291  23.212  14.630   2.809
 4966W        W77292  36.294  12.395  14.436
 4967W        W77293  32.655  29.452  13.919
 4968W        W77294  13.838  19.185   4.403
 4969W        W77295  43.714  35.920   0.289
 4970W        W77296   9.261  22.753  12.865
 4971W        W77297   2.459  25.520  11.804
 4972W        W77298   8.912  14.656   2.187
 4973W        W77299   1.241  37.418   5.017
 4974W        W77300  30.018  12.107  12.610
 4975W        W77301   8.393  30.731  13.424
 4976W        W77302  42.317  33.138   2.281
 4977W        W77303  38.128   4.258  13.537
 4978W        W77304  41.089   4.634  12.645
 4979W        W77305  17.266   2.063   0.900
 4980W        W77306  40.544  22.606   2.124
 4981W        W77307   3.269  34.249   3.512
 4982W        W77308  16.123  38.853  14.355
 4983W        W77309  41.801  18.117   0.754
 4984W        W77310   3.385   3.231  14.823
 4985W        W77311  29.499  26.855   3.719
 4986W        W77312   9.897  21.623   3.895
 4987W        W77313  10.878  32.180  12.871
 4988W        W77314  14.289  25.797  12.508
 4989W        W77315   5.362  10.056  13.984
 4990W        W77316  16.401   2.550   0.025
 4991W        W77317   0.743  14.785   1.621
 4992W        W77318  26.541  13.825   4.240
 4993W        W77319  30.647  23.762   4.050
 4994W        W77320  27.057  37.111   1.824
 4995W        W77321  38.918  29.719   1.229
 4996W        W77322  16.727  23.150   4.326
 4997W        W77323  16.050  14.112   0.945
 4998W        W77324  41.064   8.230   2.310
 4999W        W77325  33.525   0.073  12.995
 5000W        W77326  32.019  39.126   0.893
 5001W        W77327  36.486   8.418  12.023
 5002W        W77328  20.578  17.095  12.346
 5003W        W77329  23.796   6.101  11.646
 5004W        W77330   4.812  11.354  10.721
 5005W        W77331  19.225  14.595   4.543
 5006W        W77332  28.727  32.591   4.524
 5007W        W77333  10.658   9.462   1.793
 5008W        W77334  34.915  27.275  12.906
 5009W        W77335  28.956  28.599  12.883
 5010W        W77336  10.436  22.699  13.793
 5011W        W77337  32.647   0.046   0.873
 5012W        W77338  22.296  21.457   3.567
 5013W        W77339  42.284  22.232  11.187
 5014W        W77340  27.923  15.711   4.280
 5015W        W77341  43.426  18.919  11.564
 5016W        W77342  34.919  41.818  10.875
 5017W        W77343  19.113   3.251   2.194
 5018W        W77344  31.964  38.980   4.566
 5019W        W77345  28.353  20.588   1.593
 5020W        W77346  34.597  18.870   1.238
 5021W        W77347  28.338   2.371   2.864
 5022W        W77348  41.022  36.570  12.213
 5023W        W77349  11.127  31.944   4.234
 5024W        W77350  16.020  28.999   0.788
 5025W        W77351  12.682  23.036   1.826
 5026W        W77352  38.512  22.099  13.255
 5027W        W77353  10.023  39.316   0.319
 5028W        W77354   4.771  28.735  12.562
 5029W        W77355  23.693  22.071  14.907
 5030W        W77356  32.062   2.874  11.408
 5031W        W77357   9.849  16.093  10.451
 5032W        W77358  44.513  33.310  10.614
 5033W        W77359  26.531  41.865   3.190
 5034W        W77360  18.967   5.569  12.958
 5035W        W77361  11.731   8.355  11.416
 5036W        W77362  42.486   6.231  11.860
 5037W        W77363  15.238  41.401  14.814
 5038W        W77364  17.607  26.277   0.357
 5039W        W77365  37.021  44.469   0.564
 5040W        W77366   7.438  41.053  10.733
 5041W        W77367   5.287   3.422   0.762
 5042W        W77368  24.329   8.367  11.638
 5043W        W77369  15.850   7.456   0.992
 5044W        W77370  21.275  12.419  11.242
 5045W        W77371   2.468  29.429  13.953
 5046W        W77372  28.527  37.397   2.327
 5047W        W77373  44.556  27.195  11.097
 5048W        W77374  20.972  27.142   3.186
 5049W        W77375  10.397  33.388  14.080
 5050W        W77376   7.187   4.793   0.861
 5051W        W77377   2.363  18.013  10.558
 5052W        W77378  27.753   0.437   1.488
 5053W        W77379  12.551  12.146   4.219
 5054W        W77380  31.447  38.345  11.942
 5055W        W77381   1.477  24.078  13.959
 5056W        W77382  30.891  41.798   1.869
 5057W        W77383  23.738  30.601   0.886
 5058W        W77384  37.324   9.402  14.797
 5059W        W77385   4.385  42.559   2.347
 5060W        W77386  25.963  20.216   4.210
 5061W        W77387   4.718  14.626   1.283
 5062W        W77388  19.303  37.014  13.894
 5063W        W77389  42.801  29.927   1.835
 5064W        W77390  34.468  28.050  10.813
 5065W        W77391  20.710  12.194  14.453
 5066W        W77392  13.623   2.152   4.113
 5067W        W77393   4.402   6.230  13.435
 5068W        W77394  17.220  44.908  13.947
 5069W        W77395  22.710  40.585  14.049
 5070W        W77396  34.436   9.432   2.348
 5071W        W77397  24.651  24.285  10.505
 5072W        W77398  26.704   6.408  11.090
 5073W        W77399   9.662  31.196   2.671
 5074W        W77400  14.743   3.182   2.289
 5075W        W77401   3.921  10.424  11.020
 5076W        W77402  36.943  19.521   1.330
 5077W        W77403  18.506  10.612   5.133
 5078W        W77404  11.092  35.397   1.836
 5079W        W77405  39.374  41.936   3.268
 5080W        W77406   0.925  43.165  11.154
 5081W        W77407  31.929  19.154   2.811
 5082W        W77408  39.226  28.514   0.309
 5083W        W77409  33.423  15.845   1.042
 5084W        W77410  17.577  27.643  12.107
 5085W        W77411   9.970  39.823   0.041
 5086W        W77412  16.533   4.052   2.275
 5087W        W77413  22.192   9.415   3.429
 5088W        W77414  33.180  41.807   2.325
 5089W        W77415   7.252   3.849   4.686
 5090W        W77416   5.881  38.220   4.165
 5091W        W77417  12.145   9.460   3.715
 5092W        W77418  20.630  10.620   1.178
 5093W        W77419   7.681  44.226   4.038
 5094W        W77420   6.344  31.769  11.600
 5095W        W77421  30.420  38.587  12.703
 5096W        W77422   9.660  16.625   0.330
 5097W        W77423  26.732   2.015   3.390
 5098W        W77424  31.635  37.008  12.324
 5099W        W77425  32.880  23.560   4.134
 5100W        W77426  19.811  20.938  11.220
 5101W        W77427  41.074   7.692  14.808
 5102W        W77428  43.569  25.156   3.998
 5103W        W77429  24.621   7.873   1.196
 5104W        W77430  40.864  35.345  12.299
 5105W        W77431  22.557  42.043  11.196
 5106W        W77432  28.503  32.568   4.048
 5107W        W77433   3.553  26.569   1.996
 5108W        W77434  19.843   3.567   3.323
 5109W        W77435  35.919   6.381   4.793
 5110W        W77436  40.998  43.275  12.067
 5111W        W77437  15.250   5.822  13.822
 5112W        W77438  43.839  19.594  10.947
 5113W        W77439  11.377  44.727  12.784
 5114W        W77440  27.202   8.923   4.652
 5115W        W77441   7.983  38.826  10.732
 5116W        W77442  37.501  17.307  10.776
 5117W        W77443  41.214   0.981  14.491
 5118W        W77444  18.352  22.759   3.591
 5119W        W77445  37.555  42.222  13.941
 5120W        W77446  24.444  26.043  13.223
 5121W        W77447  22.782  33.873   2.426
 5122W        W77448  21.906  16.132  14.716
 5123W        W77449  10.617   1.289  11.019
 5124W        W77450  10.088   1.226   4.052
 5125W        W77451   2.879  11.844   4.112
 5126W        W77452   7.669  43.349   3.076
 5127W        W77453  37.413  32.068  12.919
 5128W        W77454  22.818  13.573  14.460
 5129W        W77455   0.490  20.214   4.048
 5130W        W77456  14.587  40.285   2.794
 5131W        W77457  18.509  28.998   1.852
 5132W        W77458  14.652  10.945   0.310
 5133W        W77459  17.874   8.157  12.022
 5134W        W77460   7.340  40.882  12.019
 5135W        W77461  31.069  12.670   0.902
 5136W        W77462  31.928   5.111  12.373
 5137W        W77463  38.815  16.415   2.849
 5138W        W77464   6.185   6.948  13.780
 5139W        W77465  43.329   2.540  13.247
 5140W        W77466   6.099   4.848  12.518
 5141W        W77467  37.268  15.149  12.764
 5142W        W77468  24.145  38.264   2.371
 5143W        W77469  34.225   8.682   3.247
 5144W        W77470  15.015   3.926   4.150
 5145W        W77471  28.779  18.578   1.472
 5146W        W77472   0.939  23.582  11.202
 5147W        W77473   1.821   4.812  12.156
 5148W        W77474  14.713  25.211  10.160
 5149W        W77475  44.997  37.363   2.887
 5150W        W77476   0.243   6.718   3.137
 5151W        W77477  13.625  42.555  13.967
 5152W        W77478   1.458  25.017  13.041
 5153W        W77479  39.206   2.635  11.542
 5154W        W77480  27.237   2.949  13.379
 5155W        W77481   0.815  12.391   0.456
 5156W        W77482  33.059   0.794  11.056
 5157W        W77483  33.009  37.254  12.625
 5158W        W77484  23.244  22.433  14.857
 5159W        W77485  27.596  24.428  14.847
 5160W        W77486  29.154  39.670  11.126
 5161W        W77487  30.804  43.421   5.247
 5162W        W77488  24.909   8.188   2.338
 5163W        W77489   2.489  11.159  12.079
 5164W        W77490   5.049  42.987   0.331
 5165W        W77491  29.984   6.927   2.916
 5166W        W77492  25.128   5.178   1.335
 5167W        W77493  11.924  21.012  13.891
 5168W        W77494   6.971  29.271   0.287
 5169W        W77495  14.859  40.319   0.338
 5170W        W77496  39.316  35.045   4.526
 5171W        W77497  21.169  33.149   3.347
 5172W        W77498  34.182  19.064   0.831
 5173W        W77499  23.362  40.893   2.418
 5174W        W77500  35.708  28.453  10.652
 5175W        W77501   7.650  14.793   0.899
 5176W        W77502  10.915  36.552   3.369
 5177W        W77503  16.340  44.768   3.689
 5178W        W77504  43.928  24.490  12.649
 5179W        W77505  18.674  16.361  14.068
 5180W        W77506  29.141  29.478   4.726
 5181W        W77507  24.407   2.403   4.227
 5182W        W77508  15.989  22.367  10.228
 5183W        W77509   4.221  18.310   3.816
 5184W        W77510  12.832  39.314  12.390
 5185W        W77511   2.899  11.816   5.143
 5186W        W77512  38.398  25.216  11.120
 5187W        W77513  30.401  15.037  11.639
 5188W        W77514   0.189   1.591   3.134
 5189W        W77515  12.047  26.000  13.986
 5190W        W77516  15.347   6.267  12.868
 5191W        W77517  15.573   7.961  13.885
 5192W        W77518  14.183  25.024   2.504
 5193W        W77519  42.936  10.415  11.483
 5194W        W77520  26.648  31.304  10.430
 5195W        W77521   3.921  36.324  12.859
 5196W        W77522  18.242  38.146  10.468
 5197W        W77523   5.779   3.797   1.426
 5198W        W77524  22.679  24.842   4.508
 5199W        W77525  33.145  24.785  13.440
 5200W        W77526  34.032  41.617   3.671
 5201W        W77527  31.887  34.370   0.657
 5202W        W77528   1.924  20.541  12.465
 5203W        W77529  43.628  19.625  13.366
 5204W        W77530  14.738  31.121   4.667
 5205W        W77531  35.683  16.657   3.313
 5206W        W77532   1.055   0.363  13.385
 5207W        W77533  19.581  15.228  14.360
 5208W        W77534  42.060   9.191   3.650
 5209W        W77535  25.278  18.335   0.933
 5210W        W77536  14.156  20.041   0.267
 5211W        W77537  37.075  43.378   4.875
 5212W        W77538  23.229  28.065   3.741
 5213W        W77539   5.794   6.771  11.951
 5214W        W77540  20.819  14.774  14.358
 5215W        W77541   2.537  28.208   5.135
 5216W        W77542   4.389   6.845   4.471
 5217W        W77543  18.562  11.487   0.783
 5218W        W77544  42.388  13.878   0.864
 5219W        W77545  36.040  22.307   1.867
 5220W        W77546  39.544  20.558  11.907
 5221W        W77547  21.520  18.794   0.404
 5222W        W77548  11.850  18.051   3.258
 5223W        W77549   2.025  30.323  11.497
 5224W        W77550   8.585   7.937  12.841
 5225W        W77551  30.546   3.271   2.389
 5226W        W77552  26.201  44.449  14.755
 5227W        W77553  24.686  26.771   2.240
 5228W        W77554  30.913   8.348   4.404
 5229W        W77555  33.201  25.202  12.860
 5230W        W77556  18.384   3.297   3.155
 5231W        W77557  41.774  18.452  11.351
 5232W        W77558  24.730   1.269   2.826
 5233W        W77559  21.374   3.492  13.871
 5234W        W77560  30.848  11.778  12.132
 5235W        W77561   4.376  18.305  14.030
 5236W        W77562  12.235  34.448   0.461
 5237W        W77563  15.297  39.819  14.046
 5238W        W77564  41.422   3.404  11.495
 5239W        W77565  14.205   3.125  11.160
 5240W        W77566  17.769  16.760  10.726
 5241W        W77567   2.756  23.990   4.440
 5242W        W77568  42.914  28.372   3.040
 5243W        W77569  34.162   2.873  10.789
 5244W        W77570  32.500  18.001   3.234
 5245W        W77571  27.263  36.841  14.984
 5246W        W77572  43.347  26.966   2.711
 5247W        W77573  40.850   4.591   2.909
 5248W        W77574   1.036  42.278   1.792
 5249W        W77575  36.387  29.125   4.723
 5250W        W77576   3.696  37.510  13.465
 5251W        W77577   3.381   2.820  11.799
 5252W        W77578  33.110   5.663   3.970
 5253W        W77579  13.799  27.758   1.428
 5254W        W77580  43.127  36.643  13.493
 5255W        W77581  24.631  16.187  12.550
 5256W        W77582  10.594  39.301   2.392
 5257W        W77583  43.683   3.074  12.618
 5258W        W77584   2.487  27.976  12.007
 5259W        W77585  30.106   0.456   2.257
 5260W        W77586  31.726  38.008   1.597
 5261W        W77587  17.822   5.824  13.806
 5262W        W77588  21.986  30.697  13.355
 5263W        W77589   4.492  30.378   1.104
 5264W        W77590   5.823  23.742  11.700
 5265W        W77591   0.769  30.106  13.519
 5266W        W77592  15.732   9.140  14.802
 5267W        W77593  11.920  25.957  13.007
 5268W        W77594   3.279  44.467   4.374
 5269W        W77595   9.174   1.540  12.943
 5270W        W77596   8.943  14.630  12.493
 5271W        W77597  13.270   6.423   3.707
 5272W        W77598   3.936  23.715   1.270
 5273W        W77599   2.923  14.987  11.940
 5274W        W77600   4.779  30.469   2.449
 5275W        W77601  12.589  33.199  11.021
 5276W        W77602  43.943  34.609   0.555
 5277W        W77603  35.595  18.576  11.128
 5278W        W77604  39.479  11.807  12.418
 5279W        W77605  19.186  34.992   3.010
 5280W        W77606  34.539  39.970   2.256
 5281W        W77607  30.348   2.078   2.823
 5282W        W77608  14.081  18.718   0.964
 5283W        W77609  10.157  26.212   0.905
 5284W        W77610   4.703  31.103   0.829
 5285W        W77611  14.334   2.334   2.795
 5286W        W77612   3.832  10.176  12.967
 5287W        W77613  29.997  35.005   4.429
 5288W        W77614  38.011   3.946  10.579
 5289W        W77615   2.167  12.171  13.452
 5290W        W77616   4.497  37.808   1.023
 5291W        W77617  28.000   2.483  13.046
 5292W        W77618  23.583  42.404   1.238
 5293W        W77619  27.994  17.024  14.266
 5294W        W77620  12.696   5.560   0.292
 5295W        W77621  19.344  25.938   0.040
 5296W        W77622  37.341  38.334  11.578
 5297W        W77623  24.627  12.725   4.019
 5298W        W77624   0.751  38.091   4.649
 5299W        W77625  26.205   3.491  13.932
 5300W        W77626  21.775  41.566  11.180
 5301W        W77627  24.051  28.686   4.511
 5302W        W77628  24.621  40.313   4.191
 5303W        W77629   8.648  20.436   4.266
 5304W        W77630  32.020  42.336   3.849
 5305W        W77631  15.113  35.142   4.225
 5306W        W77632   9.061  21.728   9.994
 5307W        W77633  37.854   7.755  10.729
 5308W        W77634  26.173  38.672  13.259
 5309W        W77635  22.143   9.629   2.966
 5310W        W77636  27.154  40.650  12.915
 5311W        W77637   4.269  40.043  11.026
 5312W        W77638   2.802  18.284   1.092
 5313W        W77639  34.678  41.050   0.807
 5314W        W77640   9.834  42.093  11.912
 5315W        W77641   5.351  16.817   2.313
 5316W        W77642  40.945  22.211   0.869
 5317W        W77643  30.136   1.570   0.223
 5318W        W77644   9.167  43.335   0.580
 5319W        W77645   5.852  14.760  13.606
 5320W        W77646  41.297   6.174   4.066
 5321W        W77647  29.145   7.908  14.010
 5322W        W77648  14.730  36.104  14.720
 5323W        W77649  30.670   6.756  10.685
 5324W        W77650  37.842  33.463  12.558
 5325W        W77651   3.719  26.678   3.296
 5326W        W77652  38.143  36.448  13.797
 5327W        W77653  11.351  24.746   4.781
 5328W        W77654  27.397  28.063   5.428
 5329W        W77655  28.261   9.933  10.908
 5330W        W77656  22.745   2.765   4.150
 5331W        W77657  38.876  36.777   2.180
 5332W        W77658  27.027  21.643  14.293
 5333W        W77659  43.331   2.317   4.230
 5334W        W77660  41.935  19.776   4.717
 5335W        W77661  43.823   0.048   4.553
 5336W        W77662  20.286  40.519  14.291
 5337W        W77663  32.427   8.138   0.892
 5338W        W77664   9.191  15.296   4.329
 5339W        W77665  10.847  36.904  14.995
 5340W        W77666  37.495  33.822   0.208
 5341W        W77667   6.437  39.772   4.043
 5342W        W77668  21.604  42.828  14.272
 5343W        W77669  43.369  12.683  10.518
 5344W        W77670  20.864   8.608  13.574
 5345W        W77671   9.863   9.274   1.494
 5346W        W77672  23.146  31.119   1.604
 5347W        W77673   1.415  20.641  12.577
 5348W        W77674   0.783  38.387   3.135
 5349W        W77675  34.877  35.163  14.659
 5350W        W77676   5.971   4.231   3.165
 5351W        W77677  31.012  13.222  14.722
 5352W        W77678   2.555  37.014  12.008
 5353W        W77679  25.540   4.776  14.145
 5354W        W77680  34.133  30.400   0.806
 5355W        W77681  34.644  31.900  12.145
 5356W        W77682  26.594  43.720  11.579
 5357W        W77683   9.869  19.547   0.785
 5358W        W77684  24.013  24.041   2.104
 5359W        W77685  38.022  38.571   4.012
 5360W        W77686  32.366  24.596   3.311
 5361W        W77687  33.762  33.564   4.594
 5362W        W77688  24.260  35.837  14.331
 5363W        W77689  40.940  25.103  14.036
 5364W        W77690  16.621  39.136   0.769
 5365W        W77691  32.086  14.103  14.745
 5366W        W77692   0.126   6.605  12.038
 5367W        W77693  11.738  36.582   1.695
 5368W        W77694  27.631   2.301   3.123
 5369W        W77695  40.800  17.057   1.753
 5370W        W77696  26.493   3.254   2.366
 5371W        W77697  24.013  40.568   1.783
 5372W        W77698  40.473   7.716  10.476
 5373W        W77699  31.669  44.919  12.583
 5374W        W77700  38.380  12.975   3.087
 5375W        W77701  36.409   2.004  12.672
 5376W        W77702  10.822  44.506   3.143
 5377W        W77703   8.068  20.955   1.288
 5378W        W77704  37.128  44.056  13.924
 5379W        W77705   4.409  36.850  14.867
 5380W        W77706  24.138   1.825  14.300
 5381W        W77707  24.778  18.474   2.760
 5382W        W77708  32.925   5.774  13.311
 5383W        W77709  40.319  24.940  10.431
 5384W        W77710  22.414  21.150  14.294
 5385W        W77711  11.636   2.387   4.721
 5386W        W77712  37.949  31.879  10.656
 5387W        W77713  21.400   1.203   4.286
 5388W        W77714  14.600  23.352  13.021
 5389W        W77715  32.281  31.961  14.973
 5390W        W77716  23.986  13.564  14.946
 5391W        W77717  37.327  31.956   3.230
 5392W        W77718  15.237  32.276   4.705
 5393W        W77719  40.721  18.063  11.916
 5394W        W77720   2.213  27.695   4.540
 5395W        W77721  28.119  31.188  12.998
 5396W        W77722  38.679  15.321   2.817
 5397W        W77723   1.000  33.641   4.143
 5398W        W77724  44.015  44.116  12.386
 5399W        W77725  35.906  38.059  13.974
 5400W        W77726  27.547  40.196   3.121
 5401W        W77727  40.411  38.574  12.148
 5402W        W77728  15.763  19.436   4.346
 5403W        W77729  15.572  19.502  11.602
 5404W        W77730   1.967  26.048  13.471
 5405W        W77731  14.217  40.747   3.619
 5406W        W77732  16.963  34.899   1.493
 5407W        W77733  24.130   4.213   4.489
 5408W        W77734  41.841  30.414  14.364
 5409W        W77735  15.761  36.947   1.332
 5410W        W77736  21.151   5.918   4.601
 5411W        W77737  21.756   0.851   4.450
 5412W        W77738   1.368  35.370   3.705
 5413W        W77739  35.851  14.279   4.130
 5414W        W77740  24.498  27.740   0.685
 5415W        W77741   2.691   6.477  14.737
 5416W        W77742  38.701  28.479   0.282
 5417W        W77743  28.596  10.717   2.267
 5418W        W77744  10.048  38.342   1.939
 5419W        W77745  14.916  23.428  11.524
 5420W        W77746  37.673  17.811   4.627
 5421W        W77747  11.870  26.372  12.040
 5422W        W77748  44.889  23.627  14.216
 5423W        W77749  40.283  37.894   2.255
 5424W        W77750  15.666   0.279   1.593
 5425W        W77751   1.913   5.104  11.302
 5426W        W77752  37.445   8.600   3.775
 5427W        W77753  36.988  11.674   3.371
 5428W        W77754  43.222   1.858   1.045
 5429W        W77755  33.119  32.196   1.731
 5430W        W77756  15.822  20.182   3.745
 5431W        W77757  31.555  10.217   4.367
 5432W        W77758  41.983  25.172  14.019
 5433W        W77759  18.303  31.638   3.733
 5434W        W77760   4.395   5.159   0.368
 5435W        W77761   4.775  26.443  13.048
 5436W        W77762   4.831  20.264   2.567
 5437W        W77763  39.064   3.826   2.686
 5438W        W77764  15.539   8.663   1.637
 5439W        W77765  22.662  42.580  14.843
 5440W        W77766  24.736  39.982  13.087
 5441W        W77767  44.687   9.881  14.948
 5442W        W77768  18.509  29.492   3.118
 5443W        W77769  17.437  41.233   1.845
 5444W        W77770  24.990  14.642   3.327
 5445W        W77771  22.098  29.247   0.612
 5446W        W77772  21.097   6.722   1.870
 5447W        W77773  40.498  12.511   0.858
 5448W        W77774  11.548  11.230   2.082
 5449W        W77775  33.384   2.728  11.085
 5450W        W77776  14.369  28.911  13.891
 5451W        W77777  20.289  31.337  13.053
 5452W        W77778  40.204  39.135  13.887
 5453W        W77779   4.042   9.170   4.239
 5454W        W77780   0.396  17.561  10.717
 5455W        W77781  37.037  38.825   4.900
 5456W        W77782  44.553  25.037   0.754
 5457W        W77783  22.446  42.845  10.579
 5458W        W77784   3.156  12.308   0.947
 5459W        W77785   0.227  41.014  14.010
 5460W        W77786   8.489  32.612   4.622
 5461W        W77787   8.329   2.989  10.659
 5462W        W77788  27.942  38.091   2.218
 5463W        W77789  12.571  31.987   1.368
 5464W        W77790  23.697  43.867   0.509
 5465W        W77791  16.958   9.179  11.569
 5466W        W77792  10.620  44.778   3.599
 5467W        W77793  29.865  35.162   0.231
 5468W        W77794  21.262  10.951  14.496
 5469W        W77795  32.412  43.767   2.663
 5470W        W77796  41.152  27.628   3.258
 5471W        W77797  26.243   6.359  10.854
 5472W        W77798  33.006   8.422  11.916
 5473W        W77799  38.833  36.940  10.751
 5474W        W77800   3.283  27.897  14.306
 5475W        W77801  41.479  10.720   0.881
 5476W        W77802  21.768  27.941  13.498
 5477W        W77803   2.497  38.710  12.141
 5478W        W77804   1.043  17.952  10.222
 5479W        W77805  34.529   4.707   0.986
 5480W        W77806   6.201   1.563   4.648
 5481W        W77807  44.862  39.069   0.382
 5482W        W77808  37.344  13.681   0.923
 5483W        W77809  12.596  16.503   1.456
 5484W        W77810   7.380  22.003   1.738
 5485W        W77811  43.737  43.728  12.996
 5486W        W77812  22.567  37.085   1.793
 5487W        W77813   1.475  33.675  12.702
 5488W        W77814  15.963  20.193   1.421
 5489W        W77815   7.509   1.591   3.662
 5490W        W77816  14.544   4.088  11.156
 5491W        W77817   0.900  12.127  14.965
 5492W        W77818   9.712  28.592  11.212
 5493W        W77819  14.677  23.967   3.560
 5494W        W77820  33.949  39.318   4.456
 5495W        W77821  22.165  44.496   1.403
 5496W        W77822  34.117  20.224  12.709
 5497W        W77823  35.926   3.799   4.477
 5498W        W77824  22.130   5.183  14.862
 5499W        W77825  38.506  29.131  11.421
 5500W        W77826  28.166  31.492  13.519
 5501W        W77827  16.802  17.538  14.065
 5502W        W77828  44.730  16.113  13.472
 5503W        W77829  40.455  11.277  10.566
 5504W        W77830  38.904  31.101  13.254
 5505W        W77831   7.506  32.460   0.013
 5506W        W77832  25.662   4.214   4.113
 5507W        W77833  21.180   6.438   3.616
 5508W        W77834  33.096  28.367   4.860
 5509W        W77835   6.690  22.058  12.132
 5510W        W77836   9.361   5.596   3.185
 5511W        W77837  30.484  21.950  12.884
 5512W        W77838  21.128  10.238  11.516
 5513W        W77839  36.826  18.180   0.358
 5514W        W77840  31.338  20.644  12.958
 5515W        W77841  44.928  40.719   4.559
 5516W        W77842  23.210  11.141  11.078
 5517W        W77843   6.257   6.773   2.393
 5518W        W77844  27.057  28.189  14.467
 5519W        W77845  16.681  29.522   4.623
 5520W        W77846  29.858  19.213   1.047
 5521W        W77847  16.244  35.161  12.100
 5522W        W77848   0.927  10.924   1.461
 5523W        W77849  27.668  14.864  13.353
 5524W        W77850  19.726  18.972  12.110
 5525W        W77851  21.780  21.274   0.926
 5526W        W77852  12.785  11.711   1.747
 5527W        W77853  24.042   6.337  14.482
 5528W        W77854  11.340  42.922  10.861
 5529W        W77855  16.586  19.628  10.703
 5530W        W77856  25.603   5.983  14.757
 5531W        W77857  35.624   7.444   1.835
 5532W        W77858  18.575  30.052  14.432
 5533W        W77859  12.317  15.189  12.579
 5534W        W77860  25.669  43.801   3.233
 5535W        W77861  23.598   8.264   0.810
 5536W        W77862  36.139  12.773  12.814
 5537W        W77863  43.688  20.168  11.586
 5538W        W77864  36.566   9.103  13.799
 5539W        W77865   4.549  42.066   2.239
 5540W        W77866  41.531  10.776  13.623
 5541W        W77867  12.078  31.208   0.408
 5542W        W77868  43.719  36.170  12.147
 5543W        W77869   8.365  37.813  12.848
 5544W        W77870  42.607  12.091   0.518
 5545W        W77871  16.211  34.197   1.853
 5546W        W77872  14.376  27.340   3.808
 5547W        W77873  33.045  19.104   1.916
 5548W        W77874  25.036  14.650  13.522
 5549W        W77875  23.640  41.788  11.169
 5550W        W77876   6.330  23.027  13.849
 5551W        W77877   9.766  36.528  14.985
 5552W        W77878  15.823  33.645   3.805
 5553W        W77879   7.587  39.734   2.450
 5554W        W77880  33.649   2.864   0.379
 5555W        W77881  27.227  34.429   3.626
 5556W        W77882  12.707   3.959  11.414
 5557W        W77883   1.162  41.604  12.909
 5558W        W77884  22.234  25.091  14.342
 5559W        W77885  33.387  24.718   4.068
 5560W        W77886  14.423  37.037  10.387
 5561W        W77887  34.457  43.899  13.161
 5562W        W77888  34.864  15.452  11.162
 5563W        W77889  31.449  20.653   0.766
 5564W        W77890  39.840  16.340   1.917
 5565W        W77891  10.723  35.340  11.937
 5566W        W77892  44.769   3.901   0.242
 5567W        W77893   3.422  25.940  11.288
 5568W        W77894  18.330   3.497   1.865
 5569W        W77895  31.234  36.368   4.147
 5570W        W77896   6.433  31.652   0.919
 5571W        W77897  22.756  18.284   2.288
 5572W        W77898  20.690  13.847  10.453
 5573W        W77899  21.371   9.060  12.102
 5574W        W77900  23.691  31.008  14.025
 5575W        W77901  21.811  42.923   5.137
 5576W        W77902  22.085   9.251  12.496
 5577W        W77903  31.421  44.739   0.301
 5578W        W77904  40.139   3.998   2.615
 5579W        W77905  11.262   3.842   2.317
 5580W        W77906  14.169   1.304   4.984
 5581W        W77907   7.142   0.838   1.790
 5582W        W77908  39.043  33.963  10.467
 5583W        W77909   3.742  16.434  10.450
 5584W        W77910  11.686   5.511   3.568
 5585W        W77911  37.756  27.157   1.397
 5586W        W77912  39.218   1.911   1.557
 5587W        W77913  12.681  38.401   4.375
 5588W        W77914  14.792  42.722  14.963
 5589W        W77915   8.644  20.549  14.486
 5590W        W77916  15.580  38.767   4.574
 5591W        W77917  12.863  22.729   1.178
 5592W        W77918   0.201   6.906   1.312
 5593W        W77919  33.586  14.650   1.306
 5594W        W77920  29.017  31.586   1.638
 5595W        W77921   8.789  39.988  14.274
 5596W        W77922  17.917  26.545  14.518
 5597W        W77923   3.367   1.282   1.187
 5598W        W77924   5.181  25.204   3.817
 5599W        W77925  28.094  24.483  10.407
 5600W        W77926  23.208  38.658  10.798
 5601W        W77927  21.116  25.993   4.677
 5602W        W77928  38.498  40.888   3.131
 5603W        W77929   2.915  37.095   1.841
 5604W        W77930  36.624   1.263  14.644
 5605W        W77931  15.207   7.174   0.339
 5606W        W77932   3.329  39.825   1.979
 5607W        W77933   6.238  39.528  14.702
 5608W        W77934   1.071  38.484  14.045
 5609W        W77935  33.085  30.967   3.065
 5610W        W77936  22.816  34.390  10.578
 5611W        W77937  20.608  34.476  11.089
 5612W        W77938  44.324  12.854   2.406
 5613W        W77939  32.746   7.437  11.136
 5614W        W77940  32.398  41.569  11.893
 5615W        W77941  39.889  34.283   0.349
 5616W        W77942   4.778  44.807  13.846
 5617W        W77943  27.645  29.283  14.276
 5618W        W77944  13.184  39.594  13.985
 5619W        W77945  22.815   1.358   3.105
 5620W        W77946  37.404  43.410   1.714
 5621W        W77947  26.773  12.064   4.324
 5622W        W77948  24.477   8.671   4.304
 5623W        W77949  35.657  21.671   0.765
 5624W        W77950  42.851   5.919   1.863
 5625W        W77951  33.597  21.248  11.119
 5626W        W77952  27.095  35.145  13.695
 5627W        W77953  14.974  44.702   4.590
 5628W        W77954  34.638  25.574   0.805
 5629W        W77955  44.755  25.044  14.336
 5630W        W77956  11.612   8.015  10.091
 5631W        W77957   4.473  28.489   2.786
 5632W        W77958  11.798  28.651  11.926
 5633W        W77959  25.219  31.261   4.910
 5634W        W77960  10.784  11.568   2.152
 5635W        W77961  21.771  42.496   2.337
 5636W        W77962  40.381  35.314  12.421
 5637W        W77963   8.141  32.557  12.812
 5638W        W77964   2.405  22.016   3.738
 5639W        W77965  38.869   1.198   4.608
 5640W        W77966  18.972  38.848   3.647
 5641W        W77967  32.741  43.405   2.557
 5642W        W77968  44.565   8.858   0.749
 5643W        W77969  31.701   6.393   0.427
 5644W        W77970  34.828  26.282  11.957
 5645W        W77971   2.689  33.782   4.207
 5646W        W77972  25.538  44.777   4.895
 5647W        W77973  37.464  15.121  13.252
 5648W        W77974   9.089   0.303  10.610
 5649W        W77975  42.311  19.668  12.811
 5650W        W77976  18.601  15.094  10.619
 5651W        W77977  27.633  24.688  10.539
 5652W        W77978  38.794  13.747  10.635
 5653W        W77979  11.529  39.384   2.183
 5654W        W77980  44.221  37.413  10.187
 5655W        W77981  33.584  34.190  13.247
 5656W        W77982  36.862  35.880  13.526
 5657W        W77983  10.130  20.073  14.339
 5658W        W77984  18.611  11.285   3.125
 5659W        W77985   6.181   1.382  13.443
 5660W        W77986  27.762  22.694  11.629
 5661W        W77987  44.026  29.207  12.659
 5662W        W77988  27.906  32.991   0.820
 5663W        W77989   1.246   3.406  12.049
 5664W        W77990  14.222  22.267   3.789
 5665W        W77991  36.927   7.852  12.640
 5666W        W77992   7.390   3.911  11.587
 5667W        W77993  37.380  18.356  10.672
 5668W        W77994  36.139  42.133  14.496
 5669W        W77995  30.220  25.076   1.173
 5670W        W77996  16.552   5.471  12.942
 5671W        W77997  23.454   7.408   0.518
 5672W        W77998  21.067  29.767  14.955
 5673W        W77999  31.852   5.334   1.251
 5674W        W78000  38.548  32.845  13.030
 5675W        W78001  21.404   1.460   3.286
 5676W        W78002  29.039  26.275   3.099
 5677W        W78003  19.990  18.447  13.957
 5678W        W78004  24.434  31.972  12.069
 5679W        W78005  12.734  20.000   2.867
 5680W        W78006  31.636  13.308   1.933
 5681W        W78007  41.805  15.116  14.328
 5682W        W78008  26.652  43.052  11.053
 5683W        W78009  18.618   8.667  13.506
 5684W        W78010   3.199  28.395  14.448
 5685W        W78011  12.073  41.758  14.968
 5686W        W78012  26.697   6.701   4.889
 5687W        W78013   7.908  18.221   2.896
 5688W        W78014  19.221  28.276  13.982
 5689W        W78015  36.630   5.557   4.185
 5690W        W78016  15.150  24.022   0.768
 5691W        W78017  14.330   3.017   0.245
 5692W        W78018  22.719  20.834  10.672
 5693W        W78019  29.033  25.938  11.092
 5694W        W78020  42.045   0.361   4.254
 5695W        W78021  17.797  13.689   3.750
 5696W        W78022  34.050  21.554  13.766
 5697W        W78023  32.438   9.382   2.384
 5698W        W78024   1.047  34.557   1.245
 5699W        W78025  37.392  31.053  13.110
 5700W        W78026  17.596  19.307  12.493
 5701W        W78027  23.974  34.094   0.712
 5702W        W78028   1.026  20.939   0.304
 5703W        W78029  30.461  14.812   1.851
 5704W        W78030  24.222  21.523   4.896
 5705W        W78031  39.334  41.570   0.714
 5706W        W78032  31.144  28.403   4.581
 5707W        W78033  43.996  11.116  13.773
 5708W        W78034  11.061   3.159   1.505
 5709W        W78035  20.767  22.748  14.570
 5710W        W78036  21.171  13.221   0.770
 5711W        W78037  26.760   9.799  10.631
 5712W        W78038  24.355  23.063   4.000
 5713W        W78039   1.089   7.230  13.415
 5714W        W78040  12.685  10.706  14.251
 5715W        W78041  39.608  28.942  12.066
 5716W        W78042  11.876  11.281  11.935
 5717W        W78043  15.546  31.388   0.804
 5718W        W78044  26.146  17.140   0.815
 5719W        W78045  27.527  29.373  12.621
 5720W        W78046  28.524  31.634   4.715
 5721W        W78047  32.464  12.135  12.963
 5722W        W78048  32.456   3.164   3.294
 5723W        W78049   7.269  18.448  11.372
 5724W        W78050   1.934   9.869   4.194
 5725W        W78051  38.819   3.194   1.998
 5726W        W78052  13.371   9.883   3.577
 5727W        W78053  44.350  42.455  11.485
 5728W        W78054   7.209  18.726  12.833
 5729W        W78055   3.881  34.423  14.961
 5730W        W78056  11.758  27.045  14.219
 5731W        W78057  36.032   0.655   0.477
 5732W        W78058   8.305  16.161  13.829
 5733W        W78059  17.851  42.318  14.871
 5734W        W78060  34.034  36.283  12.498
 5735W        W78061  26.158  42.089   2.873
 5736W        W78062  12.170   9.835  12.342
 5737W        W78063  41.614  33.009   1.745
 5738W        W78064  21.592   0.679  12.080
 5739W        W78065   8.769  19.795  11.906
 5740W        W78066  21.630  13.639   1.856
 5741W        W78067  17.510  24.270   4.969
 5742W        W78068   6.727   0.385  14.012
 5743W        W78069  14.575  24.232  11.002
 5744W        W78070  44.800  29.617   4.143
 5745W        W78071  29.823  40.008   0.529
 5746W        W78072   7.305   2.853   4.814
 5747W        W78073  38.512  23.702   0.046
 5748W        W78074  10.005   8.941   2.272
 5749W        W78075  11.218  25.945   1.982
 5750W        W78076  11.232  22.459  14.283
 5751W        W78077  19.792  24.611   4.586
 5752W        W78078   7.580  33.454  10.657
 5753W        W78079   1.652  21.194   5.423
 5754W        W78080  23.955  36.633  14.013
 5755W        W78081  13.098  31.379  13.924
 5756W        W78082  27.054   0.186   2.448
 5757W        W78083  40.477  37.393   0.454
 5758W        W78084  33.672   4.185   0.044
 5759W        W78085  30.102  41.320  10.727
 5760W        W78086   0.481  28.233   2.813
 5761W        W78087   5.932  38.961  13.678
 5762W        W78088  29.079   1.305  14.410
 5763W        W78089  24.751  16.106  10.198
 5764W        W78090  30.628  20.053  14.852
 5765W        W78091  44.395   9.068  12.964
 5766W        W78092  26.466  14.756  11.280
 5767W        W78093  11.641  30.670  11.269
 5768W        W78094  43.719  34.664   2.973
 5769W        W78095   4.853  41.838   2.638
 5770W        W78096  42.304  38.996   2.928
 5771W        W78097  29.944  20.089   4.104
 5772W        W78098   0.950   7.043   2.760
 5773W        W78099   7.943  25.130  10.025
 5774W        W78100  29.670  37.625   1.345
 5775W        W78101   1.796  24.859  13.846
 5776W        W78102  35.332  27.219   3.855
 5777W        W78103   4.866  36.615   0.079
 5778W        W78104  33.129   1.437   1.690
 5779W        W78105   5.682  39.855   2.770
 5780W        W78106  41.347  14.334   0.819
 5781W        W78107  41.357  16.762  11.467
 5782W        W78108  37.574  16.689   2.420
 5783W        W78109   5.067  19.503   3.634
 5784W        W78110  21.918  24.701   0.356
 5785W        W78111  29.001  21.768  13.830
 5786W        W78112  27.029  41.984  11.405
 5787W        W78113  22.983  44.548   1.974
 5788W        W78114  42.673  26.604   1.771
 5789W        W78115  44.489  25.133  12.962
 5790W        W78116   3.354  43.029  11.199
 5791W        W78117  36.564  15.315  13.404
 5792W        W78118  18.775  31.522   0.503
 5793W        W78119  13.746  20.858  12.973
 5794W        W78120  43.462   3.057   3.972
 5795W        W78121  27.615   7.242   1.499
 5796W        W78122  16.393  37.893   4.983
 5797W        W78123  26.182  31.361   4.265
 5798W        W78124  39.180  35.061   2.735
 5799W        W78125   3.129  38.386   2.894
 5800W        W78126   2.456  43.894   0.877
 5801W        W78127  15.243   2.931   0.761
 5802W        W78128  28.271  39.573  12.867
 5803W        W78129  42.030  24.482  13.609
 5804W        W78130   5.336  18.259  13.977
 5805W        W78131  10.907   6.235   1.824
 5806W        W78132   2.919  22.929  13.423
 5807W        W78133   8.146  43.041   4.873
 5808W        W78134   8.816  34.882   0.804
 5809W        W78135  44.091   7.414   0.007
 5810W        W78136  25.608  33.830  10.741
 5811W        W78137   2.836  26.618   0.925
 5812W        W78138  40.686   2.223  14.489
 5813W        W78139   4.617  15.479   0.989
 5814W        W78140   9.662  18.785  12.587
 5815W        W78141  32.578  28.378   4.715
 5816W        W78142   9.665  40.444   4.347
 5817W        W78143  18.519  25.150   0.912
 5818W        W78144  39.838  23.255   2.202
 5819W        W78145   4.693   6.924  11.194
 5820W        W78146  15.474   1.519  12.018
 5821W        W78147  20.011  31.139   1.125
 5822W        W78148  12.366  10.770  13.450
 5823W        W78149  31.893  11.442   5.165
 5824W        W78150  32.524  36.979   1.011
 5825W        W78151  42.599  38.891  11.157
 5826W        W78152  32.461  33.998   1.414
 5827W        W78153  42.962  22.277   3.373
 5828W        W78154  25.926   0.033   0.897
 5829W        W78155  35.403  35.035   4.581
 5830W        W78156  24.580  20.128   4.455
 5831W        W78157  20.425  10.146  13.372
 5832W        W78158  27.581  26.723   3.300
 5833W        W78159  16.185  14.315  12.365
 5834W        W78160  36.300  38.314   2.674
 5835W        W78161   4.147   3.965   5.478
 5836W        W78162  22.532   9.810   3.631
 5837W        W78163  15.540  13.827   4.184
 5838W        W78164  20.283  27.130  11.159
 5839W        W78165  16.867  18.248  14.057
 5840W        W78166  44.680  31.461   3.004
 5841W        W78167   4.457  10.900   4.629
 5842W        W78168  37.913   4.818   0.687
 5843W        W78169  23.445  21.964  11.905
 5844W        W78170   7.263  30.525   1.027
 5845W        W78171  41.172  12.089   0.288
 5846W        W78172  35.326   9.089  10.800
 5847W        W78173  18.319  41.752  11.766
 5848W        W78174   7.258  22.913   0.896
 5849W        W78175  34.289  10.800  11.689
 5850W        W78176   6.643  19.685   2.836
 5851W        W78177  35.489   6.033  14.014
 5852W        W78178  27.400  43.757  10.780
 5853W        W78179  17.191  10.143   5.114
 5854W        W78180   4.507  37.956  13.668
 5855W        W78181   1.568  34.417   1.171
 5856W        W78182  43.316   8.555  11.731
 5857W        W78183  23.688  37.822  14.198
 5858W        W78184  12.684   2.528  12.578
 5859W        W78185   3.722  34.534   0.883
 5860W        W78186  36.469  29.910   3.025
 5861W        W78187   3.362  41.628  12.435
 5862W        W78188  32.422  42.554  12.966
 5863W        W78189  28.438  30.175  11.524
 5864W        W78190  32.380   5.855   0.792
 5865W        W78191   1.439   0.224  12.820
 5866W        W78192  25.473  32.890  14.454
 5867W        W78193  29.907  32.792  14.977
 5868W        W78194  39.108  18.739   3.641
 5869W        W78195  19.252   9.678   0.708
 5870W        W78196  20.289  28.470   0.343
 5871W        W78197   6.318  13.136   4.206
 5872W        W78198  35.469  42.929   0.246
 5873W        W78199   1.216  12.213   1.777
 5874W        W78200  44.339  36.921   0.893
 5875W        W78201   7.238  39.431   4.481
 5876W        W78202  25.743   4.875   1.544
 5877W        W78203   6.328  29.137   2.353
 5878W        W78204  22.022  26.534   3.009
 5879W        W78205  21.455   3.036  12.004
 5880W        W78206  10.860  39.986   2.268
 5881W        W78207   5.129  20.082  13.816
 5882W        W78208   3.025  40.169   1.019
 5883W        W78209  41.307  16.698   0.483
 5884W        W78210  37.502  22.475  13.998
 5885W        W78211  15.834   9.875  14.003
 5886W        W78212  40.652  22.147   2.368
 5887W        W78213   0.723  12.398  14.274
 5888W        W78214  44.597  11.180  14.406
 5889W        W78215  37.616  35.901  12.940
 5890W        W78216  26.110   3.231  14.877
 5891W        W78217  12.305  40.977   3.140
 5892W        W78218   7.711  38.580   1.909
 5893W        W78219   5.073   4.201  11.069
 5894W        W78220  44.006  43.814  14.842
 5895W        W78221  44.275   4.783  12.000
 5896W        W78222  10.580  40.376  13.831
 5897W        W78223  44.805   2.871   0.107
 5898W        W78224  25.250  14.187   0.720
 5899W        W78225  38.588  28.692   2.369
 5900W        W78226  14.548   9.144  11.523
 5901W        W78227  37.715  15.569   1.432
 5902W        W78228  41.311   3.863  11.292
 5903W        W78229  37.429  29.451   1.826
 5904W        W78230  13.766  18.040  10.385
 5905W        W78231  13.406  42.245  14.815
 5906W        W78232   8.612  27.061   3.163
 5907W        W78233  10.250  14.131   3.069
 5908W        W78234  25.966  32.521  10.611
 5909W        W78235  29.878  44.695   0.255
 5910W        W78236  34.354  32.881   1.872
 5911W        W78237  41.789   6.778  14.342
 5912W        W78238  28.555   6.893  13.943
 5913W        W78239  21.262  22.191   1.824
 5914W        W78240   3.374  17.837   3.869
 5915W        W78241   3.379  18.636   4.474
 5916W        W78242  44.991  33.428  11.826
 5917W        W78243  14.597  26.532   2.883
 5918W        W78244  36.751  27.634  11.114
 5919W        W78245  38.080   6.419   0.363
 5920W        W78246   8.465  21.230  12.499
 5921W        W78247   1.286   9.909  14.976
 5922W        W78248  13.440  36.974  10.364
 5923W        W78249  36.582   0.999  10.708
 5924W        W78250  12.816  19.758  12.013
 5925W        W78251  32.573  17.816   1.376
 5926W        W78252  26.485  27.227   9.597
 5927W        W78253   2.243  25.590   1.900
 5928W        W78254  23.144  36.363   4.475
 5929W        W78255   1.225   6.762   0.269
 5930W        W78256  42.986  40.958   3.230
 5931W        W78257  38.089   4.901  10.678
 5932W        W78258   5.772  12.093  10.815
 5933W        W78259  20.587   2.546  11.909
 5934W        W78260  32.070   8.304  12.932
 5935W        W78261   1.253  29.340   3.415
 5936W        W78262   3.475  36.004   2.641
 5937W        W78263  28.484  36.175   2.737
 5938W        W78264  11.882  27.996  14.756
 5939W        W78265  10.978  35.123   3.019
 5940W        W78266  31.543  16.106  14.237
 5941W        W78267  41.961  26.518   2.249
 5942W        W78268  22.842  22.497   3.177
 5943W        W78269  43.774  23.536  13.927
 5944W        W78270   7.949  44.521   2.241
 5945W        W78271  32.343  42.774  11.601
 5946W        W78272  12.770  27.543   3.095
 5947W        W78273  44.386  14.331  11.142
 5948W        W78274  21.599   8.831   3.190
 5949W        W78275  39.916  35.608   4.642
 5950W        W78276   9.373   9.630  11.960
 5951W        W78277  24.646  43.986   0.790
 5952W        W78278  31.206   7.792   2.275
 5953W        W78279  25.270  43.985  13.462
 5954W        W78280  20.074   3.266  14.230
 5955W        W78281   8.958  10.634  13.243
 5956W        W78282  14.902   0.393   1.430
 5957W        W78283  13.844  25.671  10.986
 5958W        W78284  38.932   8.445  13.295
 5959W        W78285  26.181  19.504   1.349
 5960W        W78286  10.270  34.071  11.887
 5961W        W78287  19.953   9.523   1.266
 5962W        W78288  10.672  36.652  11.612
 5963W        W78289  40.109  20.136  12.511
 5964W        W78290  44.762  10.963  11.621
 5965W        W78291  25.955  12.832   1.586
 5966W        W78292  29.693  24.647  12.244
 5967W        W78293  22.701  27.267   4.153
 5968W        W78294  44.977  41.120   3.024
 5969W        W78295  12.432  16.765   2.170
 5970W        W78296  11.114  10.243   3.316
 5971W        W78297   7.924  29.752  12.984
 5972W        W78298  13.621   3.011   1.946
 5973W        W78299  43.808  20.293  13.426
 5974W        W78300  39.113  38.642  13.465
 5975W        W78301  33.189   1.661   1.216
 5976W        W78302  29.099  10.869   1.324
 5977W        W78303   9.118  29.440   4.897
 5978W        W78304  39.629  26.224  12.967
 5979W        W78305   1.364   6.154  14.861
 5980W        W78306  29.581  24.497  14.060
 5981W        W78307  28.192   4.925   2.791
 5982W        W78308  24.718  12.370  14.889
 5983W        W78309  17.358  26.114   4.144
 5984W        W78310  33.097  28.060   3.573
 5985W        W78311  22.407  32.890  13.420
 5986W        W78312   4.677   8.474  12.994
 5987W        W78313   9.825  14.420  11.483
 5988W        W78314  23.191  20.187   4.337
 5989W        W78315  24.902  18.131   4.692
 5990W        W78316   5.881  12.408   4.361
 5991W        W78317  43.466  38.593   1.564
 5992W        W78318   9.438   4.231  13.494
 5993W        W78319  21.396  18.263   3.080
 5994W        W78320   7.028   9.054   4.561
 5995W        W78321  43.981  19.609   3.740
 5996W        W78322  27.277  23.002   4.459
 5997W        W78323  17.824  15.810   4.467
 5998W        W78324  22.466  32.358   3.262
 5999W        W78325  28.257  13.529   0.003
 6000W        W78326  38.830  35.921   0.392
 6001W        W78327  30.259  21.776  11.018
 6002W        W78328  33.559  13.038   1.325
 6003W        W78329  15.260  36.071  10.287
 6004W        W78330  15.259  37.343   0.405
 6005W        W78331  44.319   5.696   2.364
 6006W        W78332   6.925  24.784  11.422
 6007W        W78333   7.158  15.709  13.953
 6008W        W78334  13.736  15.327   4.170
 6009W        W78335  39.739  26.924  13.616
 6010W        W78336  12.222   3.917  10.683
 6011W        W78337  44.066  22.808  14.836
 6012W        W78338  43.312  23.173  14.782
 6013W        W78339  11.461  11.238   0.923
 6014W        W78340  34.862   2.720   4.574
 6015W        W78341  33.134  22.615  11.627
 6016W        W78342  10.821  21.474   3.127
 6017W        W78343  22.991  29.823   1.880
 6018W        W78344  41.063  26.566  12.031
 6019W        W78345   4.647  24.489   3.757
 6020W        W78346  21.040  26.184   0.333
 6021W        W78347  10.281  12.319  13.020
 6022W        W78348  22.972   4.261   0.859
 6023W        W78349   3.603  10.420   1.505
 6024W        W78350  44.998  26.297  11.557
 6025W        W78351  29.430  15.901  10.427
 6026W        W78352  44.329  26.127   3.122
 6027W        W78353  37.032  39.805  10.619
 6028W        W78354   8.367  36.477  12.084
 6029W        W78355  24.204  21.024  11.119
 6030W        W78356  29.942   0.499  13.492
 6031W        W78357   0.443  38.112  10.806
 6032W        W78358   7.163  37.335  11.943
 6033W        W78359  11.651  25.582  13.249
 6034W        W78360  10.469  40.600   1.734
 6035W        W78361  20.206  28.977  11.271
 6036W        W78362  26.036  30.174   4.558
 6037W        W78363   7.289  14.186   0.831
 6038W        W78364   9.350   4.852  10.611
 6039W        W78365  19.982  13.935  13.021
 6040W        W78366  21.653  11.299   2.148
 6041W        W78367   5.479   7.222   2.695
 6042W        W78368  39.031  23.263   1.096
 6043W        W78369  39.365  20.516  14.403
 6044W        W78370  12.599  40.037  14.810
 6045W        W78371  31.447  28.570   0.740
 6046W        W78372  11.899  18.560   2.012
 6047W        W78373  34.568  26.706  14.556
 6048W        W78374  23.451  40.751   3.891
 6049W        W78375  12.119  23.025   3.639
 6050W        W78376  13.746   1.602   4.185
 6051W        W78377  37.176  14.028   3.661
 6052W        W78378  22.707  32.204  11.655
 6053W        W78379  30.633  38.891  11.092
 6054W        W78380  33.481  35.310  14.492
 6055W        W78381  38.012   3.035   1.220
 6056W        W78382  40.981  40.519   2.501
 6057W        W78383  18.332  25.013   4.143
 6058W        W78384  14.256  36.382   1.931
 6059W        W78385  42.560  26.515  12.881
 6060W        W78386   1.763  14.133  13.434
 6061W        W78387   1.969  25.702  12.546
 6062W        W78388  27.518   4.082  14.836
 6063W        W78389  11.180  35.040   2.541
 6064W        W78390   1.552  16.854  14.891
 6065W        W78391  24.531  16.965  14.489
 6066W        W78392  33.890  30.589   3.143
 6067W        W78393  40.322  16.385   0.692
 6068W        W78394  20.238   1.285  14.248
 6069W        W78395  20.035  16.536   0.524
 6070W        W78396   9.408   6.854   4.415
 6071W        W78397  40.948  18.828   2.762
 6072W        W78398  39.585  20.563   2.095
 6073W        W78399  30.549   6.717  14.997
 6074W        W78400  12.363   4.930  14.865
 6075W        W78401   7.335   8.957   4.103
 6076W        W78402  26.534   3.031   3.633
 6077W        W78403  32.650  12.857  13.588
 6078W        W78404  22.739   3.803   0.785
 6079W        W78405  26.987   5.343  13.003
 6080W        W78406  16.811  36.907   4.877
 6081W        W78407  36.062  22.977  11.131
 6082W        W78408  16.693  38.659  10.763
 6083W        W78409  16.873  12.659  11.066
 6084W        W78410  15.389  12.412   1.473
 6085W        W78411   0.913  29.633   3.141
 6086W        W78412   0.329  18.135   0.426
 6087W        W78413   7.667  11.212   2.862
 6088W        W78414  22.727   3.266   4.204
 6089W        W78415  19.706  26.891   2.840
 6090W        W78416   5.008   9.690  13.871
 6091W        W78417  30.879  31.002  14.291
 6092W        W78418   1.761  37.567   0.167
 6093W        W78419  23.765  38.112   4.180
 6094W        W78420  43.812  19.680  12.453
 6095W        W78421  22.090  21.728   1.819
 6096W        W78422  10.189   9.292  13.757
 6097W        W78423  11.488   1.218  14.347
 6098W        W78424  19.190  28.457  13.141
 6099W        W78425  15.424   5.584  10.259
 6100W        W78426  22.916  39.912   2.440
 6101W        W78427  28.825  33.399  11.626
 6102W        W78428   7.120  27.941  10.996
 6103W        W78429  19.165   8.839  12.914
 6104W        W78430  14.911   3.913  14.354
 6105W        W78431   0.890   0.932  12.002
 6106W        W78432  36.547  31.974  10.677
 6107W        W78433  35.839  23.072  13.805
 6108W        W78434   0.770  29.460  11.865
 6109W        W78435  14.182  24.569   9.823
 6110W        W78436  30.953  24.058  11.077
 6111W        W78437   0.497  13.201   3.824
 6112W        W78438  28.580  25.705   0.927
 6113W        W78439  28.918   1.824   1.462
 6114W        W78440   0.349  30.477  14.794
 6115W        W78441  13.241  42.203  11.667
 6116W        W78442  38.031  14.124   2.098
 6117W        W78443  44.861  12.801  13.170
 6118W        W78444  13.052  30.559  11.107
 6119W        W78445   7.334  22.644   0.236
 6120W        W78446  25.008  25.257  14.761
 6121W        W78447  16.050   6.788  14.561
 6122W        W78448  11.670  42.560   2.140
 6123W        W78449  34.392  40.751   0.271
 6124W        W78450  31.062  22.794   0.307
 6125W        W78451   3.889   9.783   1.046
 6126W        W78452  15.391  17.533  13.420
 6127W        W78453   1.330   7.399   3.288
 6128W        W78454  26.002   2.754  14.682
 6129W        W78455  35.666  40.644   2.704
 6130W        W78456   2.409  17.016  10.173
 6131W        W78457   0.908  40.774  11.331
 6132W        W78458   3.517  19.991   0.397
 6133W        W78459  35.815  41.794   0.753
 6134W        W78460  28.974  24.472  12.953
 6135W        W78461   3.885  19.106  10.629
 6136W        W78462  24.312   6.765   0.268
 6137W        W78463  41.758  28.412   0.287
 6138W        W78464   6.420  31.789   3.222
 6139W        W78465  35.513  27.549  14.072
 6140W        W78466  15.700  10.476  14.335
 6141W        W78467  15.607  32.606   2.993
 6142W        W78468  28.170   1.668  11.251
 6143W        W78469  22.088  13.058   1.583
 6144W        W78470   2.388  44.571   4.229
 6145W        W78471  21.182  24.617   2.228
 6146W        W78472   1.198  13.204   0.796
 6147W        W78473   8.752  18.981   4.202
 6148W        W78474   7.800  10.103  12.084
 6149W        W78475   0.464   0.077   0.155
 6150W        W78476  21.763  40.581   3.429
 6151W        W78477  28.056  19.050   3.970
 6152W        W78478  43.320  14.353   0.870
 6153W        W78479  28.177   4.406  12.939
 6154W        W78480  32.908  10.214   0.300
 6155W        W78481  25.246   7.376  13.850
 6156W        W78482  33.349   4.769  13.001
 6157W        W78483  18.233   4.379   1.745
 6158W        W78484  28.063  27.978  14.446
 6159W        W78485  34.399  37.122  12.469
 6160W        W78486  10.207   6.388   4.182
 6161W        W78487  34.873  41.777   1.761
 6162W        W78488  18.097  30.370   0.756
 6163W        W78489   5.672  30.750  14.117
 6164W        W78490  35.931  16.307  13.886
 6165W        W78491  33.416  13.982  12.525
 6166W        W78492  28.035  20.194  12.445
 6167W        W78493  34.885  26.952  13.323
 6168W        W78494  12.933  18.527  11.596
 6169W        W78495  13.882  20.125   3.296
 6170W        W78496   4.531  40.542   4.794
 6171W        W78497   0.246  22.566  12.321
 6172W        W78498  17.987   5.824   1.361
 6173W        W78499  18.169  38.186   2.747
 6174W        W78500   9.583  23.974  14.993
 6175W        W78501  44.582  20.188  11.113
 6176W        W78502   2.765   6.817   1.298
 6177W        W78503  26.635  22.802   4.903
 6178W        W78504  20.895  14.700   1.632
 6179W        W78505   8.347  36.982  11.915
 6180W        W78506  29.685  13.248   0.845
 6181W        W78507  23.034  23.052   1.743
 6182W        W78508  25.664  42.560  14.417
 6183W        W78509  17.615  14.569   1.212
 6184W        W78510  10.871  32.103  11.980
 6185W        W78511  36.641  14.183   4.623
 6186W        W78512  17.601  18.771  14.229
 6187W        W78513  19.014  15.337   2.164
 6188W        W78514  29.174  32.008  10.690
 6189W        W78515  24.954  37.320  13.586
 6190W        W78516  39.644  40.486  14.282
 6191W        W78517  20.343  31.306   3.329
 6192W        W78518  14.761  44.236   4.734
 6193W        W78519  43.011  38.909  12.507
 6194W        W78520  42.916   4.475  12.920
 6195W        W78521  37.055  40.305  10.700
 6196W        W78522   2.629  24.639  12.123
 6197W        W78523  17.105  13.236  14.390
 6198W        W78524  26.780  31.887  12.168
 6199W        W78525  15.105  32.582   0.038
 6200W        W78526   3.226  41.863  13.449
 6201W        W78527  27.417  33.846  11.144
 6202W        W78528  40.407  29.616   0.827
 6203W        W78529  26.269  23.544  10.720
 6204W        W78530  19.702  38.757  10.980
 6205W        W78531  17.217   8.852  10.035
 6206W        W78532  28.905  25.453   3.347
 6207W        W78533  11.718  31.571   1.281
 6208W        W78534  30.865   4.846   1.998
 6209W        W78535  33.123  18.593  12.463
 6210W        W78536   3.396  30.108  12.497
 6211W        W78537  12.570  36.894   5.212
 6212W        W78538   6.529  11.609  13.942
 6213W        W78539  16.971   4.651  10.741
 6214W        W78540  24.083  25.491   4.728
 6215W        W78541  27.661  18.155   1.890
 6216W        W78542   7.126  10.894   1.189
 6217W        W78543  16.608  35.097   1.149
 6218W        W78544   0.422  23.270  12.840
 6219W        W78545  15.776  14.786  14.782
 6220W        W78546  12.693   5.681   3.670
 6221W        W78547  37.579   0.399   2.930
 6222W        W78548  26.785  16.363   9.958
 6223W        W78549  23.191  37.377   5.274
 6224W        W78550  33.149  36.112  13.399
 6225W        W78551  19.164  22.504  12.363
 6226W        W78552  19.643  40.401   5.235
 6227W        W78553  24.160  31.854   3.637
 6228W        W78554   9.287  23.000  11.532
 6229W        W78555  19.626  16.610   1.220
 6230W        W78556  34.390   3.293  14.294
 6231W        W78557   1.337  22.956   2.253
 6232W        W78558  32.599  39.797   2.866
 6233W        W78559  19.585  17.298   0.363
 6234W        W78560   3.404  25.125   4.898
 6235W        W78561  39.870  34.481  12.450
 6236W        W78562  22.141  42.617  11.751
 6237W        W78563  21.017   5.692   4.136
 6238W        W78564  32.418  32.337   2.761
 6239W        W78565  29.468   0.828   4.155
 6240W        W78566  27.373  32.136   3.164
 6241W        W78567  10.615  44.306   1.781
 6242W        W78568  39.814   0.438   4.116
 6243W        W78569  43.362   8.576   0.316
 6244W        W78570   6.011  32.352   2.660
 6245W        W78571  20.526   8.114   3.423
 6246W        W78572  25.647  13.694  13.150
 6247W        W78573  25.577  43.523   1.221
 6248W        W78574   7.151  43.478   3.166
 6249W        W78575  23.098  22.032   2.194
 6250W        W78576  37.377  10.619   3.777
 6251W        W78577  18.755   2.732   1.319
 6252W        W78578  22.145  34.326  11.980
 6253W        W78579  34.424  17.579  14.776
 6254W        W78580  24.989   0.693  12.992
 6255W        W78581  38.544  36.412   0.827
 6256W        W78582  27.837  21.675  11.461
 6257W        W78583  36.795  29.161  13.302
 6258W        W78584   1.399  19.697   0.034
 6259W        W78585  18.958  21.285  11.033
 6260W        W78586  25.418  30.914   1.744
 6261W        W78587  40.085  21.527  13.999
 6262W        W78588  17.591  18.713   2.628
 6263W        W78589   3.931  27.477   0.872
 6264W        W78590  12.188  23.919  13.917
 6265W        W78591  40.901  20.278   1.016
 6266W        W78592  33.654  37.437   4.156
 6267W        W78593  28.139   7.566   1.719
 6268W        W78594  13.552  33.438   4.690
 6269W        W78595  24.679  34.970   3.157
 6270W        W78596  25.007  18.699   0.223
 6271W        W78597  16.563   9.765   0.829
 6272W        W78598  38.405  39.945   4.550
 6273W        W78599  19.737  31.035  12.618
 6274W        W78600  11.891   5.807  11.204
 6275W        W78601  12.104  14.333   2.426
 6276W        W78602  19.871  37.270  13.438
 6277W        W78603  29.971  16.567  13.980
 6278W        W78604   1.397  28.663  11.096
 6279W        W78605   6.629  38.372   1.385
 6280W        W78606  21.137  12.549  10.749
 6281W        W78607  29.787  11.727   5.104
 6282W        W78608   3.519  20.076   2.632
 6283W        W78609  14.705  19.799   3.663
 6284W        W78610  31.452  19.748   4.705
 6285W        W78611   0.428   8.513   1.288
 6286W        W78612   7.220   5.479  12.913
 6287W        W78613  19.222  40.073   1.373
 6288W        W78614  16.599  18.305  13.315
 6289W        W78615  42.728  39.362   4.103
 6290W        W78616  26.991  14.235   1.816
 6291W        W78617   9.424  43.893   4.467
 6292W        W78618  41.457  43.297   1.653
 6293W        W78619  26.821  44.187  11.503
 6294W        W78620  19.736  15.160   2.855
 6295W        W78621  29.377  12.864  13.922
 6296W        W78622  26.456  41.338  13.303
 6297W        W78623  11.336  21.726  12.934
 6298W        W78624  21.507  19.846  13.242
 6299W        W78625  11.231  27.520  11.588
 6300W        W78626  10.868  16.676   4.523
 6301W        W78627  20.131  29.157  14.981
 6302W        W78628  37.481  35.897   3.936
 6303W        W78629  24.416   9.815   2.761
 6304W        W78630  36.462  39.261   3.927
 6305W        W78631   2.333  37.371  12.564
 6306W        W78632  34.172   2.097   0.726
 6307W        W78633  24.320  14.592  12.921
 6308W        W78634  24.058  38.920  11.616
 6309W        W78635  22.189  27.614   1.132
 6310W        W78636  24.767  10.366   0.420
 6311W        W78637   4.706  43.487  14.239
 6312W        W78638   9.882  23.721   1.141
 6313W        W78639  17.582  18.767  10.665
 6314W        W78640   7.954  38.830   4.553
 6315W        W78641   1.295  22.639   2.678
 6316W        W78642  31.597   8.642   3.676
 6317W        W78643  11.379  20.098   5.006
 6318W        W78644  21.545  12.863  14.550
 6319W        W78645  34.517  33.003  10.276
 6320W        W78646  14.183   4.839   4.815
 6321W        W78647  28.020  40.533  14.895
 6322W        W78648   5.966  17.072   4.341
 6323W        W78649  44.466  25.274   1.620
 6324W        W78650  31.884  44.481  14.391
 6325W        W78651  39.263  19.602  11.539
 6326W        W78652  44.571  15.837   4.749
 6327W        W78653  43.750  36.943   3.143
 6328W        W78654  32.453  25.751  10.457
 6329W        W78655  38.551  15.592   0.917
 6330W        W78656  36.327  41.778  14.824
 6331W        W78657  41.470  36.305  10.882
 6332W        W78658  17.666  21.590   3.315
 6333W        W78659  16.703  13.638  12.547
 6334W        W78660  40.566   1.762  10.315
 6335W        W78661  32.463   7.427   3.776
 6336W        W78662   0.632  30.017   3.809
 6337W        W78663   9.929  35.798   3.888
 6338W        W78664  27.274  40.104  10.684
 6339W        W78665  33.606   4.773  14.465
 6340W        W78666  37.573  26.468  10.401
 6341W        W78667  33.194  38.302   0.360
 6342W        W78668  12.254  26.944  11.414
 6343W        W78669  43.454  39.402  11.072
 6344W        W78670  25.278  16.531  14.532
 6345W        W78671  11.208  19.441  11.380
 6346W        W78672   1.533  20.100  13.320
 6347W        W78673  19.736  12.813   4.014
 6348W        W78674  27.272  44.570   4.693
 6349W        W78675  24.907  15.811  10.581
 6350W        W78676   3.388  16.333   2.239
 6351W        W78677  22.885  24.182   4.677
 6352W        W78678  20.904  43.665  10.119
 6353W        W78679  31.261  16.553  13.146
 6354W        W78680  17.332   2.121   4.541
 6355W        W78681  36.889  34.889   1.400
 6356W        W78682  42.483  25.443   0.772
 6357W        W78683  10.172   3.252  14.323
 6358W        W78684  18.079  10.103  14.204
 6359W        W78685  16.312  36.412   1.775
 6360W        W78686  19.036  35.814   1.376
 6361W        W78687   6.988  36.917   2.939
 6362W        W78688   7.799  31.905  14.033
 6363W        W78689  24.604  41.817   3.673
 6364W        W78690   2.629  26.238  14.144
 6365W        W78691  28.262  18.858   3.072
 6366W        W78692  43.842   9.076   4.060
 6367W        W78693  32.234  27.014   2.285
 6368W        W78694  41.498  35.938  12.425
 6369W        W78695  25.180  39.443  14.815
 6370W        W78696   6.746   1.569   2.710
 6371W        W78697  19.292  10.681  12.804
 6372W        W78698  17.444   7.327  10.660
 6373W        W78699  18.740  17.685   1.205
 6374W        W78700   2.215  35.046   3.458
 6375W        W78701  41.111   0.485   1.225
 6376W        W78702  41.686  34.698  11.137
 6377W        W78703  36.569  43.583   1.305
 6378W        W78704  19.613  43.023   0.748
 6379W        W78705  14.675  27.439   1.367
 6380W        W78706  17.572  15.138  11.496
 6381W        W78707  12.181  38.591  14.070
 6382W        W78708   8.439  14.607   1.282
 6383W        W78709  29.580  22.585   1.399
 6384W        W78710  42.556  14.181   2.631
 6385W        W78711  18.805   8.377  13.919
 6386W        W78712  41.962  15.656   4.549
 6387W        W78713  31.990  38.210  12.014
 6388W        W78714   2.291  19.914  13.700
 6389W        W78715   3.651  44.564  13.434
 6390W        W78716  25.105  44.377   1.834
 6391W        W78717  22.116   0.742   0.501
 6392W        W78718   1.398  39.521  10.962
 6393W        W78719  24.555  37.806   2.888
 6394W        W78720  28.021  12.155   1.738
 6395W        W78721  39.801   7.553  13.804
 6396W        W78722  42.334  36.849   4.633
 6397W        W78723   0.236  29.893   2.564
 6398W        W78724  36.646  37.028  10.726
 6399W        W78725  27.631  15.235   4.386
 6400W        W78726  29.060   2.767  14.318
 6401W        W78727  19.670  21.230   4.203
 6402W        W78728  34.312   0.068   4.296
 6403W        W78729  14.580  20.243   1.434
 6404W        W78730  20.706   9.000  11.181
 6405W        W78731  12.327  43.164   1.787
 6406W        W78732  10.568  32.524   4.622
 6407W        W78733  36.013  34.575  14.523
 6408W        W78734  40.740  24.555  12.918
 6409W        W78735  37.249  34.175   3.689
 6410W        W78736   4.826   3.942  10.521
 6411W        W78737   7.197   3.356  12.711
 6412W        W78738  27.480  30.350   0.124
 6413W        W78739  20.517   3.699   0.207
 6414W        W78740  34.457  21.836  10.519
 6415W        W78741  43.566  33.158   4.923
 6416W        W78742  36.473  15.316   2.587
 6417W        W78743   1.940  44.280   4.162
 6418W        W78744  12.218  35.037  11.594
 6419W        W78745  26.726  13.156   0.736
 6420W        W78746   7.781   3.731   3.206
 6421W        W78747  27.515   2.490  11.891
 6422W        W78748   7.123  31.529  12.315
 6423W        W78749  26.342  27.705  10.312
 6424W        W78750  34.790  27.374   1.780
 6425W        W78751  17.264   7.344  13.776
 6426W        W78752  37.567  19.723   2.026
 6427W        W78753  29.476  42.236  12.970
 6428W        W78754  19.487  37.385  13.124
 6429W        W78755   9.919  21.008   2.312
 6430W        W78756  20.752  19.305  14.930
 6431W        W78757  35.893  18.438  10.735
 6432W        W78758  32.604  35.664  14.370
 6433W        W78759  32.478  26.517   2.267
 6434W        W78760  12.659  38.874   0.796
 6435W        W78761   8.242  44.882  13.730
 6436W        W78762   9.829  28.181   1.163
 6437W        W78763  43.216  35.050   0.726
 6438W        W78764  11.675  19.314  14.757
 6439W        W78765   2.607  13.569  12.074
 6440W        W78766  33.115  24.447   3.708
 6441W        W78767  16.040  21.728  11.734
 6442W        W78768  42.344   1.827  13.778
 6443W        W78769  40.317  14.453   2.228
 6444W        W78770  12.867  25.177   0.231
 6445W        W78771  27.577  35.485   3.086
 6446W        W78772  14.478   9.944  11.942
 6447W        W78773  19.702   3.758  14.763
 6448W        W78774  41.882   0.214  11.105
 6449W        W78775  35.592  30.124  10.688
 6450W        W78776  19.347  25.563   3.155
 6451W        W78777  37.974  11.757   3.435
 6452W        W78778  30.240  23.815   2.789
 6453W        W78779   7.854   0.359   0.907
 6454W        W78780  34.646  18.046  13.515
 6455W        W78781  21.592  13.120   0.457
 6456W        W78782  25.736  39.456  11.023
 6457W        W78783  11.905   8.416   3.129
 6458W        W78784  31.822  15.355  12.924
 6459W        W78785  14.626  15.338   1.196
 6460W        W78786  42.930  34.537   4.706
 6461W        W78787  17.509  33.876  12.530
 6462W        W78788  12.188   1.648   1.305
 6463W        W78789  17.556  28.790  10.543
 6464W        W78790  26.418   5.812   4.190
 6465W        W78791  36.554   6.842   0.044
 6466W        W78792  31.035  34.806   2.276
 6467W        W78793  14.933  10.958   3.404
 6468W        W78794  12.105  28.902   2.843
 6469W        W78795  13.778  10.784   2.202
 6470W        W78796  35.424  12.798   3.238
 6471W        W78797  44.405  40.412   3.669
 6472W        W78798   8.231  27.767   4.216
 6473W        W78799  24.521  28.168  13.380
 6474W        W78800   5.057   5.288  11.434
 6475W        W78801  24.078  35.758  14.851
 6476W        W78802  36.636  31.543  14.293
 6477W        W78803  13.206  36.820   3.096
 6478W        W78804  25.102   9.249  14.493
 6479W        W78805   3.487  33.843   3.773
 6480W        W78806  17.277  34.073  13.920
 6481W        W78807  19.241  22.795   3.278
 6482W        W78808   0.721  43.712  13.899
 6483W        W78809   0.390  37.994  14.026
 6484W        W78810  41.751  22.924   1.890
 6485W        W78811  37.349  27.413  13.798
 6486W        W78812  38.011  25.945   4.034
 6487W        W78813  34.901  41.001   1.342
 6488W        W78814  19.714   2.657   4.234
 6489W        W78815  28.043  21.070   9.906
 6490W        W78816  38.312  38.435  12.930
 6491W        W78817   4.282  19.787   1.120
 6492W        W78818   3.256  19.809  13.890
 6493W        W78819  36.339  14.674  12.775
 6494W        W78820  27.530  34.682  11.520
 6495W        W78821   8.189  22.907  13.941
 6496W        W78822   5.322  17.540  14.403
 6497W        W78823  34.020  11.226   4.608
 6498W        W78824  20.424  17.805   1.804
 6499W        W78825  13.047  17.331   3.768
 6500W        W78826  17.024   0.999  13.371
 6501W        W78827   5.702   8.852   2.306
 6502W        W78828  39.904  12.545  12.860
 6503W        W78829  18.546  44.080  14.815
 6504W        W78830  29.944  23.133   1.386
 6505W        W78831  20.491   9.412  10.966
 6506W        W78832  38.285  29.917   3.733
 6507W        W78833  22.038   3.299  10.451
 6508W        W78834  18.695  18.825  13.534
 6509W        W78835  43.101  33.519  12.923
 6510W        W78836  30.562  36.817   4.437
 6511W        W78837  13.783  32.089   5.058
 6512W        W78838  44.735  21.159   3.216
 6513W        W78839   4.496  34.573   3.359
 6514W        W78840  13.981  21.063  11.120
 6515W        W78841  40.448  17.977   2.839
 6516W        W78842  10.450  42.947  12.674
 6517W        W78843  30.945  14.317  11.876
 6518W        W78844   8.309  28.005   3.740
 6519W        W78845  11.079  44.032  14.516
 6520W        W78846  30.960  40.468  14.428
 6521W        W78847  24.521  23.196   2.289
 6522W        W78848  26.580  32.301   0.937
 6523W        W78849   5.606  32.001  11.495
 6524W        W78850  15.682   8.343   2.012
 6525W        W78851   2.259  31.070  11.074
 6526W        W78852  22.713   2.912   0.831
 6527W        W78853   8.218  44.693   3.364
 6528W        W78854  24.423  20.175  14.515
 6529W        W78855  19.558  43.837  11.642
 6530W        W78856  20.630  43.468  12.436
 6531W        W78857  15.850   4.473  14.294
 6532W        W78858  18.575   0.354  11.751
 6533W        W78859  14.159   9.561  12.387
 6534W        W78860  27.178   4.034   0.540
 6535W        W78861  38.432  11.667   3.727
 6536W        W78862   8.611   1.839  11.037
 6537W        W78863  24.216  39.605  12.455
 6538W        W78864  12.652   7.284  14.767
 6539W        W78865  15.143  15.843  13.320
 6540W        W78866  29.504  41.735   2.282
 6541W        W78867  38.909  33.508  13.472
 6542W        W78868  13.173  25.557  11.093
 6543W        W78869  15.987  18.104  12.067
 6544W        W78870   2.490  16.597  14.580
 6545W        W78871  24.610  14.404  10.682
 6546W        W78872  15.751  25.996   3.030
 6547W        W78873  31.042  22.631   1.501
 6548W        W78874  42.944  22.625  10.689
 6549W        W78875   7.933   5.880  10.555
 6550W        W78876  36.801  26.234   2.661
 6551W        W78877  30.333  34.978   0.324
 6552W        W78878   9.135  31.371  13.575
 6553W        W78879  35.990  41.771   2.750
 6554W        W78880  18.591   7.597  14.224
 6555W        W78881  27.354  40.932  14.301
 6556W        W78882   1.809  31.702  11.054
 6557W        W78883   0.625   4.253   4.224
 6558W        W78884  35.342  36.036   1.875
 6559W        W78885  29.562  33.485   3.162
 6560W        W78886  14.640  25.484  14.645
 6561W        W78887  41.504  40.612  10.650
 6562W        W78888   3.844  29.411   0.868
 6563W        W78889  30.304  43.592  12.516
 6564W        W78890   1.212  23.945  10.712
 6565W        W78891  27.026  27.240  11.993
 6566W        W78892  10.673  10.669  14.711
 6567W        W78893  12.349   7.320  13.863
 6568W        W78894   0.113   7.978  13.051
 6569W        W78895  29.521  33.584  13.533
 6570W        W78896  44.515  10.406  13.220
 6571W        W78897   6.915  39.265  12.932
 6572W        W78898  10.851  16.535  13.336
 6573W        W78899  19.341   2.839  14.996
 6574W        W78900   6.514   7.264   0.472
 6575W        W78901  18.850  14.921  13.772
 6576W        W78902  17.189   4.191  11.983
 6577W        W78903  43.761   6.907   3.243
 6578W        W78904   7.827  34.063  11.055
 6579W        W78905   5.956  36.169   1.250
 6580W        W78906  15.274  35.391  10.649
 6581W        W78907   0.596  15.375   1.470
 6582W        W78908  32.437   0.870  11.819
 6583W        W78909  41.463  18.162  11.082
 6584W        W78910  44.943  14.625  12.546
 6585W        W78911  36.033  28.278  13.971
 6586W        W78912  37.402   5.816   3.555
 6587W        W78913  16.531   6.718  11.432
 6588W        W78914  10.982  28.970   0.957
 6589W        W78915  17.315  22.656   4.480
 6590W        W78916  28.446   6.711   4.399
 6591W        W78917  41.231  43.723  14.880
 6592W        W78918  34.607   0.876  13.970
 6593W        W78919  39.495  19.275   1.343
 6594W        W78920  18.059  11.776  14.012
 6595W        W78921  27.222  26.149   2.334
 6596W        W78922  36.868  24.023   4.713
 6597W        W78923  21.133  17.153  11.100
 6598W        W78924  25.125  10.669  12.480
 6599W        W78925  43.234  43.761   2.423
 6600W        W78926  15.316  16.198   1.195
 6601W        W78927  43.396  17.367   1.275
 6602W        W78928  15.178  36.487   0.217
 6603W        W78929  17.075  12.255   3.848
 6604W        W78930  13.333  41.980  12.964
 6605W        W78931  19.597   3.774  10.684
 6606W        W78932  34.960  27.546   1.305
 6607W        W78933  21.305  36.046  14.458
 6608W        W78934  35.622  31.191   4.515
 6609W        W78935  12.272  26.629  12.321
 6610W        W78936  13.611  12.155   4.198
 6611W        W78937  10.503   7.754   2.203
 6612W        W78938  19.653   9.341   0.848
 6613W        W78939  25.944   2.234   3.867
 6614W        W78940  20.464  29.456   3.706
 6615W        W78941   7.094  14.775  14.961
 6616W        W78942  34.004  42.470  13.455
 6617W        W78943  19.671   3.822   1.405
 6618W        W78944  21.015  19.980  11.107
 6619W        W78945  41.262  13.185  11.214
 6620W        W78946  25.900  36.683   4.197
 6621W        W78947   2.843   0.675  12.646
 6622W        W78948  44.503  20.591  11.479
 6623W        W78949   6.887   4.854  14.046
 6624W        W78950   8.461   8.375  13.460
 6625W        W78951  30.593  31.894   2.506
 6626W        W78952  25.797  43.488  13.006
 6627W        W78953   0.815  17.280  14.543
 6628W        W78954  44.807  39.443   3.663
 6629W        W78955  11.851  35.042  13.956
 6630W        W78956  25.539   0.910   2.194
 6631W        W78957  13.205  18.470  11.147
 6632W        W78958  37.044  36.996  14.412
 6633W        W78959   5.681  33.618  14.408
 6634W        W78960  16.317  10.927   4.462
 6635W        W78961  40.846  44.951  12.467
 6636W        W78962  14.832  32.024  12.867
 6637W        W78963  18.111   1.716   0.418
 6638W        W78964  34.490  24.684   1.747
 6639W        W78965  37.867  15.563   3.110
 6640W        W78966   7.946  27.465   1.654
 6641W        W78967  20.137   1.757  11.087
 6642W        W78968  44.055   0.459  13.507
 6643W        W78969  39.838  37.483  14.211
 6644W        W78970  17.652   8.688  13.409
 6645W        W78971  20.772  27.006   3.640
 6646W        W78972   9.240  14.710  10.761
 6647W        W78973  15.211  28.702  12.493
 6648W        W78974  34.440  19.353   1.219
 6649W        W78975  30.912  42.223   0.346
 6650W        W78976  23.769   9.355  10.711
 6651W        W78977  25.449  25.069   3.778
 6652W        W78978  31.501   3.717  11.251
 6653W        W78979  16.657  28.698  13.084
 6654W        W78980   5.275   1.926  13.881
 6655W        W78981  20.619  16.927   3.228
 6656W        W78982  24.223  18.900  12.202
 6657W        W78983  11.109   0.868  12.071
 6658W        W78984   8.167  36.411  13.069
 6659W        W78985  37.008   3.679   0.353
 6660W        W78986   9.698  24.964  11.578
 6661W        W78987  32.689  42.207   3.105
 6662W        W78988  43.350  33.588   3.653
 6663W        W78989  19.107  39.484   2.139
 6664W        W78990  13.072   4.917   0.924
 6665W        W78991  44.254  26.641  13.592
 6666W        W78992  36.450  27.658   3.614
 6667W        W78993  10.175   1.979   1.416
 6668W        W78994  39.292   2.944   4.599
 6669W        W78995  44.217  23.039   1.018
 6670W        W78996  22.028   3.965  13.475
 6671W        W78997  41.262  12.309   1.688
 6672W        W78998  33.514  31.189   4.609
 6673W        W78999   7.877   5.277   1.904
 6674W        W79000  21.054  30.338  11.946
 6675W        W79001  37.328  26.538   3.805
 6676W        W79002  40.337   8.184   1.834
 6677W        W79003  38.070  39.884  13.913
 6678W        W79004  28.642   6.947  12.927
 6679W        W79005  41.578  10.924   1.815
 6680W        W79006  29.076  20.119   2.372
 6681W        W79007  41.324  18.040  11.556
 6682W        W79008  37.299  16.235   3.619
 6683W        W79009  13.135  33.595   9.652
 6684W        W79010  30.194  19.603   4.167
 6685W        W79011   4.729  24.519   2.720
 6686W        W79012  42.934  20.099   0.943
 6687W        W79013   7.266   8.892  10.953
 6688W        W79014  21.077  38.287  11.535
 6689W        W79015  16.621  20.209   3.260
 6690W        W79016  15.223  34.046  14.718
 6691W        W79017   1.929  10.364  13.611
 6692W        W79018   7.751  16.731  13.763
 6693W        W79019  19.814  44.289  12.412
 6694W        W79020  32.446  21.248  11.608
 6695W        W79021  11.893  36.103   0.401
 6696W        W79022   2.008  10.889  11.458
 6697W        W79023  28.667  17.688   1.433
 6698W        W79024  29.615  19.778  13.134
 6699W        W79025  25.624  21.490  11.222
 6700W        W79026  20.587  26.104   2.706
 6701W        W79027  26.460   2.287  14.634
 6702W        W79028  27.499  39.948   2.675
 6703W        W79029   4.389  20.365   1.767
 6704W        W79030  32.083  41.793  14.934
 6705W        W79031  20.493  25.538   0.739
 6706W        W79032  34.907   6.676   3.833
 6707W        W79033  35.610   2.435  11.679
 6708W        W79034  36.509   5.784  11.855
 6709W        W79035  22.825  20.325   3.066
 6710W        W79036  43.035  15.744  14.108
 6711W        W79037  18.646  42.863   2.873
 6712W        W79038  12.872  19.448  13.418
 6713W        W79039  11.335  19.323  13.423
 6714W        W79040  40.701   3.324  12.116
 6715W        W79041  34.873  34.537   1.262
 6716W        W79042  15.834  10.364   2.716
 6717W        W79043  41.010   1.745   4.544
 6718W        W79044  35.389   6.233  12.005
 6719W        W79045  18.696  38.358  12.010
 6720W        W79046   1.915   4.392   2.605
 6721W        W79047   8.146  40.543   4.374
 6722W        W79048  26.526   3.943  14.300
 6723W        W79049   2.853  20.542  14.991
 6724W        W79050  28.604  34.937  14.295
 6725W        W79051  43.507  14.483  14.944
 6726W        W79052  31.682  30.256  11.147
 6727W        W79053  43.378  10.658  11.442
 6728W        W79054  43.302  14.749  14.016
 6729W        W79055  24.758  18.813   0.676
 6730W        W79056   4.473   0.968   4.193
 6731W        W79057   4.654   2.143   4.639
 6732W        W79058  15.622   1.554   0.669
 6733W        W79059   4.985  11.988  14.765
 6734W        W79060  16.390  28.793  11.148
 6735W        W79061  31.379  27.869   4.989
 6736W        W79062  35.792  10.242  13.075
 6737W        W79063   0.453  28.988  12.921
 6738W        W79064  12.778  12.119  14.281
 6739W        W79065   2.739  21.233  10.673
 6740W        W79066  32.575   1.134   2.393
 6741W        W79067  12.283  27.370  11.111
 6742W        W79068  29.143  15.110   1.788
 6743W        W79069  38.232  13.873   3.284
 6744W        W79070  33.106  12.206   2.293
 6745W        W79071  21.427   2.233   0.791
 6746W        W79072  40.811  19.222   3.747
 6747W        W79073  41.206  35.954   4.350
 6748W        W79074   3.163   9.322  12.833
 6749W        W79075   6.776  26.185  13.557
 6750W        W79076  42.466  39.369  11.089
 6751W        W79077  20.570   3.473   3.843
 6752W        W79078  23.432  41.469   0.673
 6753W        W79079  38.925  40.576   4.455
 6754W        W79080  11.700  43.427  12.346
 6755W        W79081  32.488  17.623  11.053
 6756W        W79082  20.121  43.393  12.312
 6757W        W79083  32.261  33.058  13.303
 6758W        W79084  26.720  34.511   3.661
 6759W        W79085  15.211  20.037  13.571
 6760W        W79086  29.958  31.749  12.582
 6761W        W79087  35.212  19.328   0.718
 6762W        W79088  33.363  30.843   1.343
 6763W        W79089   6.786  37.469  13.037
 6764W        W79090  22.205  19.596  13.848
 6765W        W79091  31.564  15.044  10.619
 6766W        W79092   3.760   8.722  12.482
 6767W        W79093   8.407   1.533  13.365
 6768W        W79094  33.286  40.914   2.598
 6769W        W79095   6.344  32.605   0.768
 6770W        W79096   9.371  15.592   0.921
 6771W        W79097  30.422  20.716  13.958
 6772W        W79098   3.418   2.311   5.298
 6773W        W79099   9.397  10.686  14.191
 6774W        W79100  22.712  37.325   2.850
 6775W        W79101  38.447  39.695   4.107
 6776W        W79102  34.031  38.569   0.535
 6777W        W79103  41.985  41.247  12.109
 6778W        W79104  17.429  33.354  13.574
 6779W        W79105   6.751  32.898  12.454
 6780W        W79106  15.090  11.339   2.361
 6781W        W79107  41.192  34.238   3.534
 6782W        W79108   2.704  20.090  11.227
 6783W        W79109  14.846   3.900   2.700
 6784W        W79110  27.408  41.922   0.121
 6785W        W79111   7.369   1.299  14.298
 6786W        W79112  25.705   5.212  14.425
 6787W        W79113  35.903  29.202  12.163
 6788W        W79114  38.817  27.982  12.912
 6789W        W79115  13.724   9.961   1.830
 6790W        W79116  23.026  25.752   2.149
 6791W        W79117  40.051  13.822   2.342
 6792W        W79118   7.439   7.847  11.783
 6793W        W79119  34.204  24.072  11.243
 6794W        W79120  24.550  32.800  14.577
 6795W        W79121  37.625  44.905   3.683
 6796W        W79122   3.945  26.750   4.686
 6797W        W79123   9.342  39.018  13.415
 6798W        W79124  12.688  16.253  11.753
 6799W        W79125  16.267  27.539  12.841
 6800W        W79126   7.631  37.469   3.787
 6801W        W79127   6.858  12.557   2.204
 6802W        W79128  24.101  39.620   1.011
 6803W        W79129  26.548  34.866   1.938
 6804W        W79130  39.581  23.253   2.882
 6805W        W79131  16.123  34.083   0.275
 6806W        W79132  43.002   4.784   1.879
 6807W        W79133  25.915  26.355   2.661
 6808W        W79134   6.636  37.864   4.516
 6809W        W79135   8.983   6.191  12.955
 6810W        W79136  42.411  34.627  11.886
 6811W        W79137  40.476  32.888  12.927
 6812W        W79138  43.469  27.666  13.248
 6813W        W79139  19.733  22.964   0.976
 6814W        W79140  15.166  10.876   1.112
 6815W        W79141  34.181   3.460  12.451
 6816W        W79142  34.438  22.269  11.259
 6817W        W79143  34.335  20.720   1.232
 6818W        W79144  41.954  42.663   4.671
 6819W        W79145  42.055  35.411  10.713
 6820W        W79146  32.431  33.513   1.246
 6821W        W79147  20.208  11.725   1.928
 6822W        W79148  26.751  39.760  14.149
 6823W        W79149  37.137   1.685  10.599
 6824W        W79150   6.438  42.039   4.750
 6825W        W79151   2.278  21.225   3.281
 6826W        W79152   3.902  35.749   0.430
 6827W        W79153  12.217  36.412  13.649
 6828W        W79154  37.884  42.833  11.036
 6829W        W79155   1.511  32.584   2.089
 6830W        W79156  30.829  10.215  10.605
 6831W        W79157  15.617   6.909   3.158
 6832W        W79158   6.276  25.367   4.156
 6833W        W79159   7.222  39.291  11.466
 6834W        W79160  30.636  25.565  12.102
 6835W        W79161  44.940  34.457   2.388
 6836W        W79162  29.239   6.302   4.318
 6837W        W79163  39.020   3.205  12.031
 6838W        W79164  21.108   8.946  14.530
 6839W        W79165  12.208   0.512   4.570
 6840W        W79166   9.896  16.118  13.161
 6841W        W79167   6.532   4.945   1.643
 6842W        W79168   6.864  11.279  11.348
 6843W        W79169  15.858  23.092   1.621
 6844W        W79170   3.554  23.757  11.851
 6845W        W79171  22.537   7.689  10.322
 6846W        W79172  10.961  44.039  10.773
 6847W        W79173  13.263  31.368   3.829
 6848W        W79174   1.857  32.851   0.467
 6849W        W79175  42.439  41.541  11.073
 6850W        W79176  17.145  14.015   4.239
 6851W        W79177  13.795  14.161  12.889
 6852W        W79178  31.261  10.624   4.226
 6853W        W79179   7.692   2.409   1.241
 6854W        W79180   9.885  41.564  14.002
 6855W        W79181  15.560  35.400   3.077
 6856W        W79182  18.200   3.182  14.026
 6857W        W79183  28.137  19.975  12.914
 6858W        W79184  41.562  29.213   2.802
 6859W        W79185  38.539  24.447   1.797
 6860W        W79186  37.292   0.709   3.221
 6861W        W79187  13.343  25.043   1.349
 6862W        W79188  42.968  43.749  13.404
 6863W        W79189  29.029   1.264  12.410
 6864W        W79190  44.062  10.756  14.929
 6865W        W79191   2.164  22.551   0.935
 6866W        W79192  41.096   4.509   1.417
 6867W        W79193   0.003  25.516  14.332
 6868W        W79194  31.420  17.047  11.989
 6869W        W79195  30.402  26.023   3.267
 6870W        W79196   4.270  15.843  11.095
 6871W        W79197  34.004  26.315   1.889
 6872W        W79198  18.711  27.978   2.788
 6873W        W79199  44.330   1.220   2.804
 6874W        W79200  21.298  29.689   0.435
 6875W        W79201  25.553  34.261   1.781
 6876W        W79202  41.530   7.794   3.860
 6877W        W79203   7.788   0.187   4.191
 6878W        W79204  39.589   5.190   1.007
 6879W        W79205   2.776  10.697  12.841
 6880W        W79206  20.651  20.968  10.361
 6881W        W79207  25.752  34.902   4.215
 6882W        W79208  24.091  22.805  10.896
 6883W        W79209  30.723   8.929  10.356
 6884W        W79210  31.733  11.165  12.954
 6885W        W79211  20.837  43.453   4.171
 6886W        W79212  34.119  19.538   3.758
 6887W        W79213  35.765  10.189   0.321
 6888W        W79214  20.980  12.368  12.946
 6889W        W79215  43.294  25.428   2.705
 6890W        W79216  32.483  11.929   0.259
 6891W        W79217   3.153  28.043   3.134
 6892W        W79218  28.068  23.968   2.369
 6893W        W79219  26.983  20.573   0.998
 6894W        W79220  30.688  44.885   4.773
 6895W        W79221  20.602  44.502   0.309
 6896W        W79222  31.715  26.501  10.713
 6897W        W79223  29.177  23.963  12.473
 6898W        W79224  29.548  27.161   1.252
 6899W        W79225  18.721  41.134  14.918
 6900W        W79226  28.597  15.370  10.862
 6901W        W79227  22.085  11.277   2.410
 6902W        W79228  20.236   6.436  14.376
 6903W        W79229  44.728  41.400  12.015
 6904W        W79230  23.997  43.290  12.532
 6905W        W79231  25.768   9.751  11.407
 6906W        W79232   4.078  21.992  10.667
 6907W        W79233  23.458   6.059   3.603
 6908W        W79234   5.887  43.246   2.676
 6909W        W79235  38.549  34.325  11.102
 6910W        W79236  32.700  19.191   4.003
 6911W        W79237  29.766  30.801   0.077
 6912W        W79238  39.439  13.059   2.162
 6913W        W79239  16.398   1.929  14.821
 6914W        W79240  36.517   1.369  13.385
 6915W        W79241   4.490  11.170   3.250
 6916W        W79242  27.960  25.024   0.832
 6917W        W79243   8.164  27.939   0.312
 6918W        W79244  17.648   5.970   2.627
 6919W        W79245  16.797  29.866  14.809
 6920W        W79246  44.960  28.416   1.641
 6921W        W79247  36.500  42.305  14.009
 6922W        W79248  31.166  44.319   4.128
 6923W        W79249  22.802   0.705   1.126
 6924W        W79250   5.264  15.888   2.690
 6925W        W79251  13.002  38.641   4.064
 6926W        W79252   9.519  34.138   0.913
 6927W        W79253   0.330  23.747   0.956
 6928W        W79254  39.804  29.863   2.697
 6929W        W79255  19.745  39.768  10.658
 6930W        W79256  42.930  34.807   2.372
 6931W        W79257  12.369  38.862  11.515
 6932W        W79258  10.669   6.766  10.902
 6933W        W79259   9.347  11.876   4.097
 6934W        W79260  38.457  20.021  14.256
 6935W        W79261  33.696  27.783   4.825
 6936W        W79262   9.123   4.589   1.697
 6937W        W79263  18.345  43.908   2.796
 6938W        W79264  40.025  31.723   2.635
 6939W        W79265  13.282  20.232   0.809
 6940W        W79266   7.250  10.375   1.300
 6941W        W79267  33.586  12.353  10.969
 6942W        W79268  27.097  34.980   0.159
 6943W        W79269  28.195  28.628  14.064
 6944W        W79270  31.417  12.167   3.452
 6945W        W79271  14.150  34.071  12.302
 6946W        W79272  38.901   1.211   2.794
 6947W        W79273  36.582  34.250   0.887
 6948W        W79274  17.671   6.824   4.671
 6949W        W79275   4.510   1.859  10.093
 6950W        W79276   5.316  14.672  13.439
 6951W        W79277  13.382   9.405   1.330
 6952W        W79278  38.926  41.270  12.096
 6953W        W79279   6.358  13.589   5.010
 6954W        W79280  32.025  17.246   3.280
 6955W        W79281  28.715   0.748  11.716
 6956W        W79282  38.371  24.476  11.858
 6957W        W79283  26.501  33.944   2.625
 6958W        W79284  38.907  19.282  13.117
 6959W        W79285  38.393  25.000   0.932
 6960W        W79286   5.452   0.041  11.771
 6961W        W79287  44.839  31.995   0.822
 6962W        W79288  26.275  17.071   3.679
 6963W        W79289  10.120  35.828   1.251
 6964W        W79290  15.573  36.498  10.343
 6965W        W79291  13.328  32.540   1.359
 6966W        W79292  25.371   0.505  11.221
 6967W        W79293  41.859   5.688  12.550
 6968W        W79294  37.627   6.355   1.944
 6969W        W79295   5.976  15.113   4.796
 6970W        W79296  20.701  11.612   1.801
 6971W        W79297  43.296   9.556   3.665
 6972W        W79298  23.188  14.290   4.653
 6973W        W79299  19.086  37.059   3.234
 6974W        W79300   5.511  26.327  11.934
 6975W        W79301  35.801  13.296  14.525
 6976W        W79302  35.851  33.441  12.337
 6977W        W79303  44.982  34.654   3.191
 6978W        W79304  41.530  11.769   0.037
 6979W        W79305  44.806  23.207  10.671
 6980W        W79306  15.567  43.463  13.138
 6981W        W79307  43.781  43.303  13.268
 6982W        W79308  29.847   8.410  14.782
 6983W        W79309   6.900  44.385  10.369
 6984W        W79310   2.229   8.274  13.904
 6985W        W79311  33.409   8.794   4.620
 6986W        W79312   0.254  30.617   1.821
 6987W        W79313  41.047  19.860  10.696
 6988W        W79314  31.178   1.834   0.898
 6989W        W79315  27.967   1.385  11.642
 6990W        W79316  40.691  32.383   1.156
 6991W        W79317  19.481  36.548  14.331
 6992W        W79318  30.224  36.055  13.484
 6993W        W79319  25.970  32.916  14.537
 6994W        W79320  35.307  43.940  13.508
 6995W        W79321  27.257  19.728  14.501
 6996W        W79322   3.647   4.557   5.051
 6997W        W79323  34.628  38.077  12.237
 6998W        W79324  16.503  34.125  14.381
 6999W        W79325  23.765  24.011  11.880
 7000W        W79326  16.100  42.326  11.554
 7001W        W79327   5.294  33.164   0.000
 7002W        W79328  27.654  43.583   1.356
 7003W        W79329  44.427  34.008   4.102
 7004W        W79330   6.532   5.652   0.799
 7005W        W79331   5.743  26.222   4.081
 7006W        W79332  25.406  36.420   0.870
 7007W        W79333  20.843   0.108  14.826
 7008W        W79334  12.186  17.632  13.459
 7009W        W79335   1.223  25.134   2.248
 7010W        W79336  22.648  34.490  13.906
 7011W        W79337  28.460  26.054  12.449
 7012W        W79338  34.200  38.602   1.803
 7013W        W79339  35.460  19.570  12.570
 7014W        W79340  14.275  13.769  11.526
 7015W        W79341  14.085  28.026   4.186
 7016W        W79342  21.077  27.105  11.624
 7017W        W79343  13.646  29.596  14.720
 7018W        W79344   4.390   4.429  14.690
 7019W        W79345  14.089  37.191   4.930
 7020W        W79346  36.052  34.977   2.420
 7021W        W79347  10.832  24.259  12.544
 7022W        W79348  23.189  42.405   3.816
 7023W        W79349  44.303   8.823   4.969
 7024W        W79350  27.217  27.132   3.309
 7025W        W79351   4.816  12.297   3.192
 7026W        W79352  22.137  33.159  14.749
 7027W        W79353   9.274  30.019  12.450
 7028W        W79354  15.631  43.299   1.291
 7029W        W79355  38.659  32.085  12.551
 7030W        W79356  32.643  40.771  13.308
 7031W        W79357  35.512  41.043  11.116
 7032W        W79358  20.716  23.709   1.829
 7033W        W79359  15.241  21.936   1.203
 7034W        W79360   0.857  18.619   1.901
 7035W        W79361   7.924  25.649  11.344
 7036W        W79362   5.625  33.088   3.950
 7037W        W79363  17.210   6.265   4.508
 7038W        W79364  37.203  41.306   1.813
 7039W        W79365  34.014  28.652   0.359
 7040W        W79366  40.311  14.691   3.864
 7041W        W79367  19.568   8.929   1.822
 7042W        W79368   5.089  25.118  10.793
 7043W        W79369  12.778  36.086  13.846
 7044W        W79370  27.970  40.419   2.919
 7045W        W79371  17.991  29.857   4.148
 7046W        W79372  25.600   1.623   5.308
 7047W        W79373  22.643  19.535   2.746
 7048W        W79374  27.458  42.305   4.083
 7049W        W79375  27.546  27.041   2.432
 7050W        W79376   5.952  30.972  12.153
 7051W        W79377  26.031   8.767  13.041
 7052W        W79378  35.855  13.584  13.651
 7053W        W79379  25.938  40.436   3.763
 7054W        W79380  37.680  20.075   2.395
 7055W        W79381  33.648  29.599   2.838
 7056W        W79382  35.936  37.809   2.134
 7057W        W79383  15.328   3.665  12.966
 7058W        W79384  12.761  32.466  11.693
 7059W        W79385   6.391   0.354   0.347
 7060W        W79386  31.736  25.710  12.953
 7061W        W79387  31.724  24.706  13.685
 7062W        W79388  26.539  21.648  14.453
 7063W        W79389  32.152  10.613  10.886
 7064W        W79390  21.693  11.514   2.695
 7065W        W79391  30.990   1.083   4.034
 7066W        W79392  28.890  28.243   0.478
 7067W        W79393   2.805   8.478   2.088
 7068W        W79394  36.190  26.501  12.127
 7069W        W79395  24.924  33.888  11.548
 7070W        W79396   1.528  16.264  12.361
 7071W        W79397  32.125  18.705  12.439
 7072W        W79398  42.232  34.908   0.707
 7073W        W79399   8.624  22.619  13.963
 7074W        W79400  27.598  18.338  14.029
 7075W        W79401  25.295  43.702   2.487
 7076W        W79402  38.067  14.709  12.835
 7077W        W79403  42.754  33.874   2.187
 7078W        W79404  14.952  11.324  11.323
 7079W        W79405  38.961  36.553  11.893
 7080W        W79406  28.426   6.927  10.813
 7081W        W79407  14.349  33.802   1.694
 7082W        W79408  34.960  33.353  12.317
 7083W        W79409  24.652  21.442  11.508
 7084W        W79410  13.549  36.018  13.419
 7085W        W79411   4.412  30.884  11.993
 7086W        W79412  12.582  30.498  12.411
 7087W        W79413   3.221  35.309  11.919
 7088W        W79414   0.805  12.402  11.379
 7089W        W79415  34.497  41.577  10.528
 7090W        W79416  19.659  15.709   2.306
 7091W        W79417  27.160  19.565   4.197
 7092W        W79418  35.054   4.294  13.854
 7093W        W79419  14.102   9.181  13.465
 7094W        W79420  23.032  26.914  12.582
 7095W        W79421  25.015  35.020   4.294
 7096W        W79422  26.431  30.403  12.517
 7097W        W79423  26.573  32.104   0.122
 7098W        W79424  43.890  33.893   0.061
 7099W        W79425  36.602  21.218  12.497
 7100W        W79426  17.217  24.997   4.225
 7101W        W79427   2.364  27.586  13.683
 7102W        W79428  36.258  32.616   0.967
 7103W        W79429  34.898  44.509   4.606
 7104W        W79430  15.823  29.143   0.306
 7105W        W79431  29.448  41.383   4.034
 7106W        W79432  13.378  44.970  10.491
 7107W        W79433  13.657  39.341   2.702
 7108W        W79434   3.848  13.295   0.897
 7109W        W79435  37.243   4.959  11.134
 7110W        W79436  35.567  36.389   3.122
 7111W        W79437  24.703  31.945  13.475
 7112W        W79438   3.191   6.342  14.788
 7113W        W79439  12.666   0.257  13.742
 7114W        W79440  31.360   5.836   3.675
 7115W        W79441  34.523  19.555  12.546
 7116W        W79442   9.254  35.092   4.320
 7117W        W79443  32.923   7.776  14.471
 7118W        W79444  42.382  32.692  12.450
 7119W        W79445  16.857  33.038   4.172
 7120W        W79446  28.050   1.423  14.462
 7121W        W79447   9.257   1.640   2.751
 7122W        W79448   9.852   9.889  14.450
 7123W        W79449   9.091  43.837   4.069
 7124W        W79450  22.141  38.643   4.573
 7125W        W79451  19.103  39.360  14.795
 7126W        W79452  11.183  26.490  12.537
 7127W        W79453  23.022  21.680   4.229
 7128W        W79454  42.572  32.849   0.957
 7129W        W79455  31.890  32.858  11.191
 7130W        W79456  36.011  12.746  10.693
 7131W        W79457   4.977   7.758   3.248
 7132W        W79458  21.530  23.531  13.746
 7133W        W79459  17.703   2.481  14.019
 7134W        W79460  44.915  24.235  13.105
 7135W        W79461  22.718  31.309   0.874
 7136W        W79462  43.096  32.158   1.246
 7137W        W79463  15.170  44.270   4.385
 7138W        W79464  26.585   9.838  10.151
 7139W        W79465  31.196  36.699  13.592
 7140W        W79466  30.733  21.126   3.616
 7141W        W79467   6.925  41.980  10.615
 7142W        W79468  37.415  21.233  13.489
 7143W        W79469  26.340  14.700  12.301
 7144W        W79470   1.900  29.603  13.068
 7145W        W79471  30.181   2.129   4.125
 7146W        W79472  40.081  39.354   3.744
 7147W        W79473  26.444  35.761   4.626
 7148W        W79474  20.046  44.926  14.453
 7149W        W79475  36.116   0.683   1.873
 7150W        W79476   2.614  31.227   1.896
 7151W        W79477  32.435  35.164   2.540
 7152W        W79478   8.672   8.947   3.376
 7153W        W79479   6.642  29.141  13.030
 7154W        W79480  19.546  33.507  13.484
 7155W        W79481  18.071  34.379  11.111
 7156W        W79482   3.707   9.282  10.528
 7157W        W79483  14.721   8.299  13.498
 7158W        W79484  18.713   3.411   3.692
 7159W        W79485  16.684  10.869  11.494
 7160W        W79486  11.210  25.758  13.495
 7161W        W79487  10.637  35.066   4.819
 7162W        W79488  14.680  19.538  13.784
 7163W        W79489  16.332  33.614   2.655
 7164W        W79490  10.568  11.863   3.401
 7165W        W79491  14.723   1.485  12.510
 7166W        W79492  37.139  23.361   1.395
 7167W        W79493   4.394  33.078   1.935
 7168W        W79494  41.245  14.117  11.390
 7169W        W79495  23.512  36.750   1.719
 7170W        W79496  20.596   7.887   0.940
 7171W        W79497  20.460  16.727   1.881
 7172W        W79498  43.222  25.986   0.521
 7173W        W79499  29.799  35.681   0.224
 7174W        W79500  14.173  39.736  10.892
 7175W        W79501  44.970  29.722   0.244
 7176W        W79502  37.880  41.422   2.471
 7177W        W79503   0.382  12.056  10.673
 7178W        W79504  29.976  13.605   1.923
 7179W        W79505   5.254  31.662  13.425
 7180W        W79506  23.650  40.949  12.348
 7181W        W79507  18.232  18.681   1.957
 7182W        W79508  18.724  41.981   2.148
 7183W        W79509  24.644  36.128   4.671
 7184W        W79510   5.409  40.318  10.599
 7185W        W79511  13.624  41.356   4.059
 7186W        W79512   7.272  42.119  12.488
 7187W        W79513  39.925  13.630  14.848
 7188W        W79514   4.058   8.226  14.810
 7189W        W79515   8.916  27.977   1.346
 7190W        W79516   4.754  13.671   1.411
 7191W        W79517  41.410  34.144  13.520
 7192W        W79518   4.438  35.133   4.142
 7193W        W79519  39.251  20.646  10.491
 7194W        W79520  16.636  22.355  12.358
 7195W        W79521   5.185  42.671   1.694
 7196W        W79522  35.602  27.170   4.283
 7197W        W79523  21.193  16.330   1.466
 7198W        W79524  28.909  40.809  14.683
 7199W        W79525  33.472   5.954   1.752
 7200W        W79526  19.209   6.378  14.457
 7201W        W79527  26.264  26.494   2.298
 7202W        W79528   0.456  28.001   3.646
 7203W        W79529  21.689   6.395  13.455
 7204W        W79530  30.635  16.585  11.756
 7205W        W79531  38.949  38.565   4.733
 7206W        W79532  30.519   6.341   2.913
 7207W        W79533   3.304  34.587  14.248
 7208W        W79534  28.719  26.618   1.794
 7209W        W79535  25.756  37.616   0.250
 7210W        W79536   4.649   4.387   4.201
 7211W        W79537  44.479   1.425   3.730
 7212W        W79538  34.026  21.749   3.677
 7213W        W79539  35.957  28.369   2.416
 7214W        W79540   3.343  30.026   1.786
 7215W        W79541   2.945  30.366   1.848
 7216W        W79542   7.564   8.922   4.688
 7217W        W79543  39.453  30.961  12.655
 7218W        W79544  34.479  14.874   1.240
 7219W        W79545   9.776  25.913   4.628
 7220W        W79546  16.822   2.380  14.100
 7221W        W79547  38.602   0.317  11.794
 7222W        W79548  11.434  41.297   0.799
 7223W        W79549  29.223  33.858   0.373
 7224W        W79550   5.353  43.605   1.379
 7225W        W79551  33.098  12.681  11.634
 7226W        W79552   1.547  42.887  10.567
 7227W        W79553  12.679   5.034   1.926
 7228W        W79554   3.796  26.493   3.767
 7229W        W79555  26.022   9.828   4.605
 7230W        W79556  33.163  21.177  14.131
 7231W        W79557  20.639  34.553   0.224
 7232W        W79558  16.645   6.395   1.047
 7233W        W79559  11.106  29.614  12.208
 7234W        W79560   6.254  40.527  13.833
 7235W        W79561  39.481   1.911  10.668
 7236W        W79562  31.368  14.193   0.477
 7237W        W79563  38.661  13.690   3.526
 7238W        W79564  32.537  13.129  13.146
 7239W        W79565   3.479  12.184   0.002
 7240W        W79566   0.765   9.039  11.760
 7241W        W79567  32.114  27.566   2.804
 7242W        W79568  41.042  42.029  10.735
 7243W        W79569  34.427  13.850   0.672
 7244W        W79570  37.890  30.888   2.295
 7245W        W79571  17.614  16.562   2.694
 7246W        W79572  37.020   4.924   3.684
 7247W        W79573  10.941  44.476   0.301
 7248W        W79574  38.286  17.053   3.686
 7249W        W79575  33.310   6.194   2.395
 7250W        W79576  24.039  42.918   5.034
 7251W        W79577  31.040  20.056   1.204
 7252W        W79578  32.900   5.123  11.488
 7253W        W79579   7.915  40.351   1.235
 7254W        W79580  29.998   9.892   4.196
 7255W        W79581  39.539  44.435   2.268
 7256W        W79582  25.554  33.127   3.823
 7257W        W79583  19.669  20.672  14.400
 7258W        W79584   5.771  32.819   2.652
 7259W        W79585  17.461  21.953   2.270
 7260W        W79586  28.451  34.104   2.754
 7261W        W79587  16.326  36.090  12.064
 7262W        W79588   0.410   1.437  12.859
 7263W        W79589  37.548  16.601  11.101
 7264W        W79590  30.914  39.113  13.439
 7265W        W79591   6.824  11.771  11.114
 7266W        W79592  29.136  35.023  11.710
 7267W        W79593  20.799  24.560   3.215
 7268W        W79594  21.159  44.818   3.682
 7269W        W79595  26.799  40.234  13.922
 7270W        W79596  39.887  10.064   2.338
 7271W        W79597   4.432  34.336   1.335
 7272W        W79598  18.098  17.926  10.693
 7273W        W79599  19.016   4.114   0.159
 7274W        W79600  44.008   0.549   1.595
 7275W        W79601  42.896  44.728   3.486
 7276W        W79602  24.124  42.840   0.677
 7277W        W79603   0.263  17.747  13.305
 7278W        W79604  40.334   5.224   1.825
 7279W        W79605  27.013  12.385   3.244
 7280W        W79606  42.390  38.441   3.780
 7281W        W79607  34.831  26.355  14.257
 7282W        W79608  30.450   1.778  13.947
 7283W        W79609  39.468  13.390  11.442
 7284W        W79610  44.478  31.520  14.767
 7285W        W79611   8.336   4.855  14.927
 7286W        W79612  40.789  14.153  10.679
 7287W        W79613  25.733  21.727  13.329
 7288W        W79614  33.679  20.263   0.547
 7289W        W79615  17.620  18.144   4.814
 7290W        W79616  12.124  38.885  13.511
 7291W        W79617   0.776  25.201   3.798
 7292W        W79618  22.481  19.742  14.270
 7293W        W79619  21.800   5.780  11.475
 7294W        W79620  17.207  33.236  14.900
 7295W        W79621  22.136   1.737  13.375
 7296W        W79622  23.247  21.140   2.161
 7297W        W79623  18.806  22.746  12.940
 7298W        W79624   8.906  41.744   2.690
 7299W        W79625  39.796   5.238   4.412
 7300W        W79626  17.603  15.878   1.301
 7301W        W79627  10.225   5.484  11.944
 7302W        W79628  26.122  18.110   0.887
 7303W        W79629   2.634  43.750  11.821
 7304W        W79630  21.703  27.623  11.094
 7305W        W79631  20.122  42.471  10.133
 7306W        W79632  12.934  38.822  13.062
 7307W        W79633  20.108   8.218  10.781
 7308W        W79634  36.924  42.749   3.254
 7309W        W79635  11.762  30.184  10.530
 7310W        W79636  35.975   9.191   2.266
 7311W        W79637  37.011  23.268  12.481
 7312W        W79638  15.697  26.146   3.535
 7313W        W79639   4.507  44.575   1.971
 7314W        W79640  13.179   3.215  11.193
 7315W        W79641   5.300  12.090   0.193
 7316W        W79642  12.179  32.721  12.460
 7317W        W79643  10.833   3.102   0.769
 7318W        W79644  12.959  23.638  10.553
 7319W        W79645  36.614  13.081   1.137
 7320W        W79646  32.129  44.716  12.370
 7321W        W79647   4.936  35.599  10.636
 7322W        W79648   6.277  36.177   1.649
 7323W        W79649  38.096  44.419   4.974
 7324W        W79650  41.441  23.802   4.128
 7325W        W79651  14.897  28.654  13.367
 7326W        W79652   8.816  35.439   4.573
 7327W        W79653   0.009  41.052   0.318
 7328W        W79654  43.913  27.940  11.456
 7329W        W79655   1.411  12.779   4.290
 7330W        W79656  24.998  44.629  10.495
 7331W        W79657   8.365   4.364  12.449
 7332W        W79658   7.691  27.991  12.360
 7333W        W79659  26.850  42.834  12.222
 7334W        W79660   9.267  25.483   3.813
 7335W        W79661  21.792   1.920  12.995
 7336W        W79662  27.492  29.644  13.326
 7337W        W79663  14.533  18.641  12.909
 7338W        W79664  29.809  10.612  11.864
 7339W        W79665  37.276   8.173  10.891
 7340W        W79666  23.606   8.643  13.403
 7341W        W79667   4.544  31.995   4.334
 7342W        W79668   4.146  36.804   0.331
 7343W        W79669  23.756  38.941   0.622
 7344W        W79670  31.641   0.781  10.596
 7345W        W79671  19.530  42.446   4.425
 7346W        W79672  28.730   2.363  13.971
 7347W        W79673  33.466   6.537  10.080
 7348W        W79674  34.197   0.251   3.819
 7349W        W79675  39.816  36.067  12.003
 7350W        W79676  31.993  44.991   3.072
 7351W        W79677  36.974   6.954   1.737
 7352W        W79678  14.132  19.315  12.894
 7353W        W79679   1.803  15.977  12.999
 7354W        W79680  31.155  25.193   3.262
 7355W        W79681  35.628  38.744   4.102
 7356W        W79682  39.349   9.627  12.138
 7357W        W79683   4.714   6.736  12.670
 7358W        W79684  18.777   1.860   2.850
 7359W        W79685  13.721  43.770   3.912
 7360W        W79686  19.213   2.991   1.174
 7361W        W79687  24.443  42.609  12.845
 7362W        W79688  41.451  34.581   2.766
 7363W        W79689  30.489  10.141   4.128
 7364W        W79690  15.125  35.315  13.532
 7365W        W79691  18.631  24.167   2.857
 7366W        W79692   8.511  19.660   1.232
 7367W        W79693   6.466  35.794   2.401
 7368W        W79694  35.886  37.817  10.645
 7369W        W79695  12.879  14.640  12.826
 7370W        W79696  33.824  12.518   3.840
 7371W        W79697  28.104   7.674  13.984
 7372W        W79698   2.620  17.572  14.813
 7373W        W79699   9.866  13.125   3.143
 7374W        W79700  44.369  16.641  12.820
 7375W        W79701  23.632  12.706   4.052
 7376W        W79702  18.152  31.838  12.127
 7377W        W79703  11.857  16.821  14.348
 7378W        W79704  38.119  42.842   1.078
 7379W        W79705  14.204  41.839   4.664
 7380W        W79706  40.063  37.902  13.966
 7381W        W79707  13.049  29.218  11.125
 7382W        W79708  22.024  21.747   2.682
 7383W        W79709   9.305   1.448   1.277
 7384W        W79710   6.232  41.507   3.724
 7385W        W79711   5.949   5.064   0.967
 7386W        W79712  38.992  27.139   9.921
 7387W        W79713   4.018  39.081   1.785
 7388W        W79714   7.876   4.806  13.965
 7389W        W79715  26.567   3.918   0.755
 7390W        W79716  29.995  31.416   2.822
 7391W        W79717  18.124  26.956  14.257
 7392W        W79718   0.962  37.700   0.739
 7393W        W79719   5.637  27.370   2.867
 7394W        W79720  35.579  13.853  14.600
 7395W        W79721  33.799   3.107  11.095
 7396W        W79722  26.247   2.801   2.409
 7397W        W79723  18.730  32.894   0.532
 7398W        W79724  36.081  44.657   3.934
 7399W        W79725  26.747  40.885   4.579
 7400W        W79726  22.304  40.543  11.003
 7401W        W79727  32.431   7.215   3.114
 7402W        W79728   9.380  25.571   4.590
 7403W        W79729  24.120  15.694  13.472
 7404W        W79730  29.975  34.839  11.781
 7405W        W79731  16.581  28.940  14.924
 7406W        W79732  23.483   1.720   2.734
 7407W        W79733  40.905  29.220   2.426
 7408W        W79734  29.690  36.582   4.656
 7409W        W79735  11.993  31.034  10.508
 7410W        W79736   1.357  30.418  12.057
 7411W        W79737   6.994  24.145  13.076
 7412W        W79738   0.068  25.413   4.233
 7413W        W79739   0.246   6.938  12.991
 7414W        W79740  19.178  22.274   3.275
 7415W        W79741  34.568  36.448  11.965
 7416W        W79742  30.638  16.725   3.190
 7417W        W79743  43.375  44.966  13.336
 7418W        W79744  38.166   9.722  11.138
 7419W        W79745  36.538  29.123   3.699
 7420W        W79746  10.369  38.906   0.277
 7421W        W79747  27.185  18.575  12.013
 7422W        W79748   7.959  36.582   1.346
 7423W        W79749  26.381  31.047   1.944
 7424W        W79750  44.244  42.409   1.257
 7425W        W79751  26.707  31.655   0.437
 7426W        W79752  38.092  33.726   1.407
 7427W        W79753  26.251   3.294   1.382
 7428W        W79754  33.707  43.588   2.753
 7429W        W79755  33.615  32.037   0.866
 7430W        W79756   3.508  33.608   1.740
 7431W        W79757  38.578  10.655  10.584
 7432W        W79758  36.868   7.639  13.988
 7433W        W79759  32.928  33.008   3.787
 7434W        W79760  18.311   4.817  11.085
 7435W        W79761  11.717  42.912  12.542
 7436W        W79762  30.672  29.227   3.047
 7437W        W79763  28.699  39.075   1.242
 7438W        W79764  19.235  37.525   0.948
 7439W        W79765  27.110  11.381   2.534
 7440W        W79766  44.868  35.699   1.128
 7441W        W79767  32.462  16.105   0.801
 7442W        W79768  22.677  26.109  12.404
 7443W        W79769  10.697  20.572  12.931
 7444W        W79770  28.197  18.073  12.894
 7445W        W79771  34.611   6.322  13.510
 7446W        W79772  15.191   0.767  12.110
 7447W        W79773  35.061  12.887   4.166
 7448W        W79774  32.512  23.497   0.225
 7449W        W79775  14.275  14.725   3.661
 7450W        W79776   8.240  35.950   4.611
 7451W        W79777  43.808   2.740  13.068
 7452W        W79778  38.377  42.569   1.806
 7453W        W79779  30.983  12.701  12.873
 7454W        W79780  10.829  43.868   3.619
 7455W        W79781  39.009   8.114   2.211
 7456W        W79782  12.810  29.981   4.196
 7457W        W79783  38.375  36.012  10.796
 7458W        W79784  29.881   8.180  12.931
 7459W        W79785  42.418  41.321   0.057
 7460W        W79786   2.931  27.399  14.461
 7461W        W79787  25.780  16.142  13.054
 7462W        W79788  37.872  31.651   0.914
 7463W        W79789  44.537  19.099   4.256
 7464W        W79790  34.517  14.580  14.769
 7465W        W79791  43.804  39.449   4.598
 7466W        W79792  16.641  14.381   1.425
 7467W        W79793  25.429  16.168   2.681
 7468W        W79794  22.155  43.547   1.735
 7469W        W79795   6.615  26.131  12.120
 7470W        W79796  37.122  29.608  14.339
 7471W        W79797   5.342  10.456   1.102
 7472W        W79798  27.987  28.913   1.940
 7473W        W79799  31.965  37.443  11.424
 7474W        W79800  25.924  26.087  12.676
 7475W        W79801  33.556  17.382  11.919
 7476W        W79802  19.912  25.032  12.617
 7477W        W79803  30.391  40.093  14.237
 7478W        W79804  44.350  37.127   1.396
 7479W        W79805  11.545   5.997   2.851
 7480W        W79806  18.282  38.254  14.824
 7481W        W79807  12.209   8.195  13.847
 7482W        W79808  10.866  29.897  11.550
 7483W        W79809  38.091  42.287   1.443
 7484W        W79810  37.884  32.547   1.835
 7485W        W79811   3.955  27.626  12.190
 7486W        W79812  35.464   3.383  12.065
 7487W        W79813  27.286   6.268   1.281
 7488W        W79814   8.397  42.732  14.415
 7489W        W79815  14.821  27.654  12.892
 7490W        W79816  44.426   2.409   1.263
 7491W        W79817  43.122  44.297  12.599
 7492W        W79818  14.271  10.270  10.736
 7493W        W79819  35.027  20.012   4.503
 7494W        W79820  26.732  41.072   1.031
 7495W        W79821   4.763  26.939  12.071
 7496W        W79822   3.458  40.202  10.505
 7497W        W79823  21.742   9.512   4.193
 7498W        W79824  15.721  42.471  13.490
 7499W        W79825  15.189  15.711   0.945
 7500W        W79826  13.705  13.982   1.768
 7501W        W79827  13.062   7.086   0.748
 7502W        W79828  43.200  22.327   2.768
 7503W        W79829   4.202   2.531   2.933
 7504W        W79830   3.094   3.430   4.364
 7505W        W79831  24.507  37.389   3.221
 7506W        W79832  12.784  37.949   1.911
 7507W        W79833  16.297  30.536   3.391
 7508W        W79834  37.899  13.751  13.541
 7509W        W79835   8.706  44.940  13.983
 7510W        W79836  10.641  10.266   1.366
 7511W        W79837  14.813  39.091  10.178
 7512W        W79838   6.837  11.246  12.878
 7513W        W79839   0.881  19.917   3.857
 7514W        W79840   5.407  33.616   4.812
 7515W        W79841  25.048  25.228  11.287
 7516W        W79842  12.818  19.551   2.096
 7517W        W79843  22.748  16.085  13.424
 7518W        W79844   3.618  19.834   4.572
 7519W        W79845   8.230  22.644   3.787
 7520W        W79846  21.474  26.296  14.398
 7521W        W79847  12.872  32.457   0.441
 7522W        W79848  15.167   0.458  13.019
 7523W        W79849  41.684  15.169   2.193
 7524W        W79850  13.599  38.551   0.842
 7525W        W79851  37.833  40.365  13.913
 7526W        W79852  25.361  14.321   1.223
 7527W        W79853   8.624  44.062   4.165
 7528W        W79854  30.755  17.065  12.569
 7529W        W79855  38.956  10.569  10.234
 7530W        W79856  14.174  35.109   4.095
 7531W        W79857  17.876  25.720   3.870
 7532W        W79858   3.020  14.114  10.789
 7533W        W79859   3.560  41.979   4.075
 7534W        W79860  36.050  42.374  11.898
 7535W        W79861  20.961  18.853  13.433
 7536W        W79862   0.002  20.743   1.769
 7537W        W79863  40.748  28.615  11.668
 7538W        W79864  31.249  33.355  13.507
 7539W        W79865  19.106  25.106  11.243
 7540W        W79866  24.004   7.940  12.431
 7541W        W79867  20.454  38.613   0.842
 7542W        W79868  29.949  18.867  13.468
 7543W        W79869   4.252  23.021   5.719
 7544W        W79870   9.999  29.418   3.897
 7545W        W79871  28.535  23.006  10.659
 7546W        W79872  23.516  16.528   3.715
 7547W        W79873  37.635  33.889   1.525
 7548W        W79874   2.015  19.182  12.269
 7549W        W79875  34.754   1.574   1.765
 7550W        W79876  11.788  36.015   4.113
 7551W        W79877  12.643  30.279  10.974
 7552W        W79878  36.279  26.493  13.072
 7553W        W79879  26.049  10.109   1.818
 7554W        W79880   5.344  15.300  10.421
 7555W        W79881   1.281   6.364  12.441
 7556W        W79882  42.624   9.667   1.398
 7557W        W79883  29.476  40.845   3.334
 7558W        W79884  44.971  19.073   1.861
 7559W        W79885   2.554   3.386   4.214
 7560W        W79886  13.878  13.904   3.128
 7561W        W79887  44.311   9.600  12.950
 7562W        W79888  10.238  20.619  14.427
 7563W        W79889  39.877  32.712   4.598
 7564W        W79890  28.261   9.056   1.033
 7565W        W79891   3.510  27.704   0.600
 7566W        W79892  40.494  33.422   4.774
 7567W        W79893   5.889  36.757   3.301
 7568W        W79894   8.583  17.202   0.924
 7569W        W79895   3.371   7.740  14.456
 7570W        W79896   9.320   4.464  11.710
 7571W        W79897  25.117   3.700  11.599
 7572W        W79898  14.672  26.684   2.374
 7573W        W79899  33.137  30.024   4.173
 7574W        W79900  11.591  20.133   4.455
 7575W        W79901  20.130   4.578   3.097
 7576W        W79902  11.800  39.856   1.056
 7577W        W79903   6.626   7.780   0.425
 7578W        W79904  41.931   5.757  10.764
 7579W        W79905  19.734   3.049   3.379
 7580W        W79906  30.976   5.260  11.420
 7581W        W79907  39.346   6.051   0.281
 7582W        W79908   6.747  11.801   3.240
 7583W        W79909  22.999  22.095  11.201
 7584W        W79910   3.541  11.492  11.945
 7585W        W79911   4.721   8.982   1.851
 7586W        W79912  17.211   9.751  13.655
 7587W        W79913   8.872  13.195   2.780
 7588W        W79914  23.241  15.143  11.979
 7589W        W79915  31.114  18.346   2.337
 7590W        W79916  39.389   4.445   2.199
 7591W        W79917  27.908  43.836  14.370
 7592W        W79918  19.334  29.368  10.990
 7593W        W79919  38.005  40.542  10.624
 7594W        W79920  23.596  15.663  14.260
 7595W        W79921   1.801  17.815  12.205
 7596W        W79922  10.866  40.500   2.407
 7597W        W79923   5.008  27.106  12.496
 7598W        W79924  44.568  42.871  11.291
 7599W        W79925  21.626  15.688   0.424
 7600W        W79926  42.170  44.276   3.659
 7601W        W79927  17.308  26.732  10.791
 7602W        W79928  22.745  33.904   4.208
 7603W        W79929  27.248  41.083   1.130
 7604W        W79930  31.491   4.406  11.939
 7605W        W79931  41.458   2.934  12.144
 7606W        W79932  28.897  43.212   3.637
 7607W        W79933  35.978  29.522   3.068
 7608W        W79934  27.304  41.570  10.174
 7609W        W79935   8.290   3.459  13.709
 7610W        W79936  22.125  31.890   0.479
 7611W        W79937  10.122  21.191  14.463
 7612W        W79938  11.249  26.498  10.023
 7613W        W79939  15.574  16.396   2.809
 7614W        W79940  14.585  28.083  13.730
 7615W        W79941  44.004   7.308   1.925
 7616W        W79942   2.756  35.099  12.969
 7617W        W79943  10.411  19.023  10.857
 7618W        W79944  21.132  19.082  11.292
 7619W        W79945  31.490  31.213  12.935
 7620W        W79946  11.384  17.305   2.923
 7621W        W79947  43.565  32.051   4.312
 7622W        W79948  24.076   8.755   1.408
 7623W        W79949  24.910  28.856   1.490
 7624W        W79950  28.867  42.949  12.035
 7625W        W79951   2.864  42.460  10.748
 7626W        W79952  38.282  42.856   2.592
 7627W        W79953  15.112   8.593   1.317
 7628W        W79954  35.369  32.097  13.860
 7629W        W79955  17.238   2.211  11.081
 7630W        W79956  10.622  31.863  11.564
 7631W        W79957  44.313  16.231  14.099
 7632W        W79958  29.710  36.614   1.329
 7633W        W79959  42.398   6.162   1.757
 7634W        W79960   6.799  13.864   4.669
 7635W        W79961  43.988  28.144   1.829
 7636W        W79962  40.450  41.692   1.924
 7637W        W79963  19.974   6.732   0.489
 7638W        W79964  26.201  34.437   3.604
 7639W        W79965   8.186  24.676  13.563
 7640W        W79966  30.150  24.443  12.395
 7641W        W79967  33.425  16.157   1.649
 7642W        W79968  14.212  38.432   3.686
 7643W        W79969  43.899  20.196   0.004
 7644W        W79970  17.592  39.779  12.861
 7645W        W79971  12.828  14.897   1.587
 7646W        W79972  34.843   9.191   3.661
 7647W        W79973  13.895   0.922   4.758
 7648W        W79974   1.878  23.129   1.619
 7649W        W79975  27.175  32.582   2.263
 7650W        W79976  32.630  22.952  14.295
 7651W        W79977  20.648  13.197   2.678
 7652W        W79978  19.112  32.692  11.682
 7653W        W79979  17.776  44.044  13.959
 7654W        W79980  26.144  22.098   2.572
 7655W        W79981  22.642  25.758   2.806
 7656W        W79982  21.900  24.556  11.369
 7657W        W79983  12.167  25.630   3.245
 7658W        W79984  25.277  16.631   0.060
 7659W        W79985  31.304  36.935   0.398
 7660W        W79986  23.495   6.760  10.739
 7661W        W79987  42.500  44.008   2.786
 7662W        W79988   3.792  13.293  12.628
 7663W        W79989   9.212  29.621   3.569
 7664W        W79990  26.673  25.428   2.402
 7665W        W79991  19.452  29.491  11.462
 7666W        W79992  32.034  10.149   4.180
 7667W        W79993  21.603  39.892   2.682
 7668W        W79994   7.485  27.631   3.736
 7669W        W79995  36.077  13.125  13.560
 7670W        W79996  35.634  16.551  10.599
 7671W        W79997  27.666  30.000   0.461
 7672W        W79998   4.972  41.089   1.727
 7673W        W79999  39.570  14.393   4.534
 7674W        W80000  42.920  23.256   3.121
 7675W        W80001  43.730  39.502  11.647
 7676W        W80002  18.695  40.824  13.051
 7677W        W80003  20.018  15.817   2.790
 7678W        W80004  29.657  35.375   2.258
 7679W        W80005  24.009   9.028   5.302
 7680W        W80006  27.109   4.428  13.124
 7681W        W80007  27.684   8.139   4.229
 7682W        W80008  38.472  43.538   3.731
 7683W        W80009  44.509  41.288   0.419
 7684W        W80010  31.431  40.488  10.967
 7685W        W80011   6.946  16.301  14.302
 7686W        W80012  19.704   3.232  10.688
 7687W        W80013  38.856  25.234   0.794
 7688W        W80014  41.558  18.735   2.381
 7689W        W80015  29.533  13.738   4.164
 7690W        W80016  40.457  36.293   1.579
 7691W        W80017   3.974   9.663   2.844
 7692W        W80018  18.624  30.518   4.238
 7693W        W80019  42.069   5.556   1.362
 7694W        W80020  26.054  25.564  12.631
 7695W        W80021  14.135  38.892  11.993
 7696W        W80022  40.579   7.313   1.965
 7697W        W80023  11.446  31.020   9.979
 7698W        W80024   8.371  25.769  11.118
 7699W        W80025   6.356   1.289   1.842
 7700W        W80026  39.849  13.334   1.948
 7701W        W80027  25.613   9.130   1.163
 7702W        W80028  10.919  23.542   1.281
 7703W        W80029  24.932  17.145  10.260
 7704W        W80030   0.804  30.853   2.616
 7705W        W80031  16.678  22.970  12.197
 7706W        W80032  15.723  21.583   3.978
 7707W        W80033  10.860  25.239   5.113
 7708W        W80034  24.624  25.112  11.568
 7709W        W80035  13.621  22.980   2.868
 7710W        W80036  36.558   2.831   4.810
 7711W        W80037  27.211  18.597  13.804
 7712W        W80038   5.200  38.384  14.812
 7713W        W80039  16.906  10.365  11.084
 7714W        W80040  27.907  19.273  14.342
 7715W        W80041   2.958  12.595  14.344
 7716W        W80042   4.094  41.637   1.262
 7717W        W80043  44.788  12.155   3.672
 7718W        W80044  31.886  31.146  11.630
 7719W        W80045  39.784  43.244  12.823
 7720W        W80046   2.689   9.649   3.036
 7721W        W80047  11.850  13.869   2.346
 7722W        W80048   2.175  18.154   0.460
 7723W        W80049  22.993  44.676  14.249
 7724W        W80050  28.610  34.393   3.171
 7725W        W80051  12.165   5.040   0.865
 7726W        W80052  37.152  25.025   2.467
 7727W        W80053  17.285  14.652   0.814
 7728W        W80054   7.731  12.714   3.393
 7729W        W80055   5.408  11.316  10.958
 7730W        W80056  40.649  42.321   2.876
 7731W        W80057  11.418   4.465   1.678
 7732W        W80058  42.348  27.254  13.805
 7733W        W80059  27.449  26.599   2.117
 7734W        W80060  23.639   6.710  13.560
 7735W        W80061   0.703   4.664   1.714
 7736W        W80062  36.570  40.496   1.696
 7737W        W80063   9.309  44.766  14.457
 7738W        W80064   5.664   4.226   4.996
 7739W        W80065  39.258  20.341  11.147
 7740W        W80066  13.971  13.124  13.847
 7741W        W80067  10.808   8.172   1.325
 7742W        W80068  24.972  33.059  14.824
 7743W        W80069  14.358   2.869  13.239
 7744W        W80070   8.870  17.810   2.854
 7745W        W80071  44.162  22.221  11.053
 7746W        W80072  33.579   8.814   2.569
 7747W        W80073  26.412  25.537   4.316
 7748W        W80074   1.279   9.573   3.552
 7749W        W80075  38.966  15.108   1.225
 7750W        W80076  39.138   4.887  12.495
 7751W        W80077  39.383  26.708  13.256
 7752W        W80078   9.923  40.041   3.189
 7753W        W80079   0.751  40.276   4.183
 7754W        W80080  29.729  24.157  14.588
 7755W        W80081  19.867  21.527  13.774
 7756W        W80082   5.696   3.149  12.130
 7757W        W80083  16.604  22.765   3.715
 7758W        W80084  40.123  31.924   4.050
 7759W        W80085   0.987   6.561   2.630
 7760W        W80086  41.855  22.010   3.166
 7761W        W80087  32.200  29.128  12.730
 7762W        W80088   2.362  14.698  11.498
 7763W        W80089  36.954  26.186   1.823
 7764W        W80090  19.532  24.060  11.448
 7765W        W80091   6.703  14.054  12.498
 7766W        W80092   8.624  31.504  11.947
 7767W        W80093   6.044   9.935   0.707
 7768W        W80094  29.609  44.014   3.129
 7769W        W80095  29.594   8.755  10.359
 7770W        W80096   9.785  20.636  10.736
 7771W        W80097  16.327  36.787   3.693
 7772W        W80098   0.777  14.848  10.509
 7773W        W80099  24.933  21.796   3.110
 7774W        W80100   0.027  17.354   3.074
 7775W        W80101  29.151  43.489   1.293
 7776W        W80102   4.367  11.032   1.508
 7777W        W80103  17.344  31.449   0.782
 7778W        W80104  20.100  25.602   1.623
 7779W        W80105  29.595  29.561  11.527
 7780W        W80106  42.369  44.633  10.724
 7781W        W80107  38.558  16.767  11.399
 7782W        W80108   1.538  39.505   0.333
 7783W        W80109   4.684  35.874   3.123
 7784W        W80110  14.342   5.914   1.850
 7785W        W80111   4.212  12.175   5.174
 7786W        W80112  26.835  36.192   3.338
 7787W        W80113  11.810  38.342  10.641
 7788W        W80114  21.042   1.221  14.795
 7789W        W80115  38.601  27.169  11.003
 7790W        W80116  21.201   2.281  11.221
 7791W        W80117  10.346  39.465  10.771
 7792W        W80118  28.000  29.133   3.855
 7793W        W80119  34.859   1.935   2.441
 7794W        W80120   0.730  39.901   0.266
 7795W        W80121  23.017   4.450  12.877
 7796W        W80122  36.919   0.969   3.668
 7797W        W80123  31.862  20.598   2.688
 7798W        W80124  27.807  22.301   2.779
 7799W        W80125   9.414   5.178  13.442
 7800W        W80126   0.987  12.269  12.641
 7801W        W80127  34.576  39.783  12.496
 7802W        W80128  42.383  24.828  13.416
 7803W        W80129  29.306   4.587  12.534
 7804W        W80130  16.575  44.336   1.421
 7805W        W80131  33.205  44.339   3.223
 7806W        W80132   8.209  11.765  13.225
 7807W        W80133  11.050  30.620   1.849
 7808W        W80134   9.582  38.028  14.516
 7809W        W80135  16.923  41.444   0.492
 7810W        W80136  22.052  31.955   1.832
 7811W        W80137  39.664  33.232  14.505
 7812W        W80138  20.885  31.092  14.875
 7813W        W80139  12.234  16.194   0.159
 7814W        W80140  41.905  19.718  12.459
 7815W        W80141   1.567  34.979   2.428
 7816W        W80142  12.110   4.325   3.800
 7817W        W80143  12.653   9.440   4.115
 7818W        W80144  34.088  24.998  13.336
 7819W        W80145  20.156   0.204  14.891
 7820W        W80146  24.823   9.142  13.611
 7821W        W80147   8.832  10.168   1.477
 7822W        W80148   9.730  24.446  10.682
 7823W        W80149  34.419  19.472  13.044
 7824W        W80150  26.451   5.414  12.318
 7825W        W80151   7.943  34.268   0.033
 7826W        W80152  43.330   6.313  10.788
 7827W        W80153  16.012  29.604  11.483
 7828W        W80154  16.909  33.991  10.737
 7829W        W80155  30.981  37.507  10.891
 7830W        W80156  22.814  38.883  11.077
 7831W        W80157  20.492  40.354  12.439
 7832W        W80158   0.630   2.926   2.743
 7833W        W80159  27.549  18.207  12.818
 7834W        W80160  43.978   6.924   0.782
 7835W        W80161  31.445  38.876  10.590
 7836W        W80162  33.468  39.903   3.423
 7837W        W80163  36.688   5.789   4.700
 7838W        W80164   0.878  37.643   1.732
 7839W        W80165  14.793   0.561  11.369
 7840W        W80166   0.381  19.123   0.312
 7841W        W80167  24.739   2.586   0.899
 7842W        W80168   0.957  41.378  14.654
 7843W        W80169  31.549  30.132   4.186
 7844W        W80170  21.084  10.396   4.150
 7845W        W80171  43.658  29.677  14.161
 7846W        W80172  17.637  23.140   0.324
 7847W        W80173  12.058  31.427   0.877
 7848W        W80174  15.468  21.468   2.634
 7849W        W80175  20.107   5.642   3.164
 7850W        W80176  14.617  34.848   3.250
 7851W        W80177  29.568  37.267   3.565
 7852W        W80178  10.282  32.643  11.887
 7853W        W80179   2.172  18.288   3.400
 7854W        W80180   1.882  31.469   0.399
 7855W        W80181  38.935   3.314   2.564
 7856W        W80182  25.574  44.357   4.497
 7857W        W80183   2.823  12.794   4.160
 7858W        W80184   6.923  14.283   1.888
 7859W        W80185   9.624   6.984  11.161
 7860W        W80186  35.490  41.465  11.427
 7861W        W80187  40.914  31.183  12.924
 7862W        W80188  28.606   2.360   0.808
 7863W        W80189   8.477  16.540   4.119
 7864W        W80190  44.977  32.205   1.269
 7865W        W80191  39.760   9.322  12.750
 7866W        W80192  14.257  24.272   3.698
 7867W        W80193  24.732  14.167  11.574
 7868W        W80194  11.205  18.055   3.762
 7869W        W80195  26.644  37.420   3.329
 7870W        W80196  25.000  20.230   1.333
 7871W        W80197  38.101  16.707   1.460
 7872W        W80198  43.051   1.001  11.053
 7873W        W80199  28.096  41.240   1.674
 7874W        W80200  18.212  21.782   2.492
 7875W        W80201  40.454  27.446  10.764
 7876W        W80202  17.150   0.228  13.085
 7877W        W80203   8.193  19.214  10.964
 7878W        W80204  30.881   6.187  11.528
 7879W        W80205  25.293   6.671  11.172
 7880W        W80206   3.042  37.158   3.278
 7881W        W80207  37.522   4.053  10.384
 7882W        W80208  18.625  13.776   0.461
 7883W        W80209  21.302  41.759   0.212
 7884W        W80210  11.895  31.959  10.210
 7885W        W80211  41.602   6.128   2.687
 7886W        W80212  14.498  43.813   0.608
 7887W        W80213   0.526  18.805   0.680
 7888W        W80214  23.276  16.074  10.628
 7889W        W80215   6.706  39.250   3.275
 7890W        W80216   7.478   6.382   3.118
 7891W        W80217  24.672  35.802  12.975
 7892W        W80218  17.157   3.361   0.392
 7893W        W80219  24.187  17.070   1.839
 7894W        W80220  42.866  22.966   4.185
 7895W        W80221  13.368  22.994   0.190
 7896W        W80222  21.600  38.727   3.047
 7897W        W80223  20.963  32.395   4.206
 7898W        W80224   9.456  28.123  11.383
 7899W        W80225   7.243   4.636  13.464
 7900W        W80226  19.034  14.332   2.416
 7901W        W80227  43.527  27.645   1.054
 7902W        W80228  30.926  12.731  10.664
 7903W        W80229  16.980  16.274  13.484
 7904W        W80230  38.472   6.837   4.105
 7905W        W80231  13.902   4.269  13.293
 7906W        W80232  24.110  14.157  10.970
 7907W        W80233   8.482   9.242   1.093
 7908W        W80234  36.894  16.060   2.731
 7909W        W80235   8.722   7.370   4.135
 7910W        W80236  42.605  28.980  12.027
 7911W        W80237  13.810  12.606  10.680
 7912W        W80238  17.099   3.365  11.682
 7913W        W80239   8.639  10.686  11.519
 7914W        W80240  41.754  44.205   1.172
 7915W        W80241  24.674   0.040  11.520
 7916W        W80242   7.934  41.051  13.991
 7917W        W80243  36.163  20.792  10.684
 7918W        W80244  13.783  10.081  10.754
 7919W        W80245  21.338  20.654   3.313
 7920W        W80246  31.624  28.148  12.938
 7921W        W80247  33.032   6.562   1.283
 7922W        W80248  21.025  10.200  13.829
 7923W        W80249   0.441  38.628   2.416
 7924W        W80250  17.311  37.739  13.885
 7925W        W80251  30.428  21.282  11.698
 7926W        W80252  30.710  31.502  10.577
 7927W        W80253  32.017  21.461   0.777
 7928W        W80254  29.582  19.565   1.844
 7929W        W80255   8.647  39.363  14.868
 7930W        W80256  10.682  37.822   3.149
 7931W        W80257  36.059  20.095  13.546
 7932W        W80258  21.364  26.800   4.135
 7933W        W80259   4.484  44.204  13.052
 7934W        W80260  22.022  19.715   1.472
 7935W        W80261  10.253  12.011  14.829
 7936W        W80262  33.019  24.869   2.853
 7937W        W80263   0.523  12.546  11.953
 7938W        W80264  36.920  34.396   1.275
 7939W        W80265  38.110   8.813   2.358
 7940W        W80266   8.347  36.596   0.973
 7941W        W80267   7.427  20.269   1.703
 7942W        W80268   1.537  13.078  11.140
 7943W        W80269  12.472   7.037   2.158
 7944W        W80270  41.252  24.379  12.926
 7945W        W80271  32.536  40.326   4.037
 7946W        W80272  32.229  13.454   0.730
 7947W        W80273  39.027  24.285  12.506
 7948W        W80274  31.198  24.009   1.486
 7949W        W80275  22.284  11.063   1.344
 7950W        W80276  18.872   7.294   2.610
 7951W        W80277  29.488  40.938   2.331
 7952W        W80278   9.163  41.959  13.859
 7953W        W80279  11.654  14.103   0.068
 7954W        W80280  43.847  40.642   0.429
 7955W        W80281   3.288  31.729   0.747
 7956W        W80282  23.072  15.894  12.462
 7957W        W80283  35.723  12.620  12.466
 7958W        W80284  20.325  34.000   2.954
 7959W        W80285  20.496  11.326   4.536
 7960W        W80286  19.540   3.335   0.006
 7961W        W80287  12.463  15.220  14.871
 7962W        W80288  26.466   1.144  14.758
 7963W        W80289  25.914   3.841   4.442
 7964W        W80290  31.844  25.809   0.426
 7965W        W80291   2.536   5.995  11.054
 7966W        W80292   3.724  24.987  14.006
 7967W        W80293  26.528  15.984   9.694
 7968W        W80294   6.916  37.849   1.418
 7969W        W80295   1.273  10.772   2.658
 7970W        W80296  23.961  40.245   3.449
 7971W        W80297  33.964  28.478  13.932
 7972W        W80298  15.188  12.677  11.441
 7973W        W80299   5.158  20.885   2.455
 7974W        W80300  16.626  22.510  10.382
 7975W        W80301  44.470   0.349  10.438
 7976W        W80302  27.221  40.993  10.444
 7977W        W80303  26.326  36.116   3.435
 7978W        W80304  26.056  40.782  14.063
 7979W        W80305  24.278  12.002   4.255
 7980W        W80306  31.937   9.291  12.478
 7981W        W80307  22.254  33.878  13.980
 7982W        W80308  22.511  30.556   1.203
 7983W        W80309  15.870  16.887  13.109
 7984W        W80310  18.613  28.599   3.335
 7985W        W80311  39.760   8.990   2.948
 7986W        W80312  36.129  37.490   4.095
 7987W        W80313   9.579  23.469   0.247
 7988W        W80314  14.393  28.496  13.487
 7989W        W80315  31.516  10.151  11.519
 7990W        W80316  13.947  31.576   4.944
 7991W        W80317   3.232  15.781  10.688
 7992W        W80318  27.894   1.041  11.195
 7993W        W80319  22.983   8.429   3.752
 7994W        W80320   9.435  21.398  11.373
 7995W        W80321  34.514  29.421  11.994
 7996W        W80322  24.020  35.800   2.179
 7997W        W80323  12.217   6.614   4.145
 7998W        W80324  26.509  32.045  13.640
 7999W        W80325  28.747  24.723  12.528
 8000W        W80326  36.799  27.532   2.648
 8001W        W80327  43.392  28.350  14.817
 8002W        W80328  18.937  24.279  12.145
 8003W        W80329  36.883  22.852  14.578
 8004W        W80330  33.519  16.806  11.139
 8005W        W80331  36.611   2.824   3.298
 8006W        W80332   7.142  44.954  14.029
 8007W        W80333  11.697  11.414   4.615
 8008W        W80334  44.779  17.046  12.500
 8009W        W80335  32.531  40.187   1.842
 8010W        W80336  17.732   7.610   2.479
 8011W        W80337  26.386   3.479  13.428
 8012W        W80338  43.314   1.495  11.144
 8013W        W80339  23.051  30.024   4.134
 8014W        W80340   6.819  24.886  14.859
 8015W        W80341  11.865  37.586   0.253
 8016W        W80342  16.777  11.115  11.950
 8017W        W80343   4.699  23.530  13.135
 8018W        W80344   3.270  24.139  14.114
 8019W        W80345   9.628  18.469   1.724
 8020W        W80346  29.116  43.184  12.968
 8021W        W80347   9.152  40.656  13.083
 8022W        W80348   2.806  29.618  11.455
 8023W        W80349  43.035   5.179   2.254
 8024W        W80350  44.792  20.845   3.725
 8025W        W80351  38.569  30.050   1.012
 8026W        W80352   6.655  43.190   1.857
 8027W        W80353  31.025  27.468   4.185
 8028W        W80354  33.912   3.500  14.272
 8029W        W80355  23.187   9.359   0.241
 8030W        W80356  37.569  41.776  14.891
 8031W        W80357  32.940  24.025  11.951
 8032W        W80358   0.793  35.753   0.675
 8033W        W80359  21.700  36.922  14.468
 8034W        W80360   6.405  17.217   4.113
 8035W        W80361  18.587  10.723   4.563
 8036W        W80362   2.002  11.558   0.714
 8037W        W80363  34.667  22.588   2.211
 8038W        W80364  23.475   4.909  14.929
 8039W        W80365  40.076  11.507  14.562
 8040W        W80366  34.539  35.988  13.136
 8041W        W80367  28.716  24.371   3.996
 8042W        W80368   4.230  25.215  10.542
 8043W        W80369  17.783   4.823  11.902
 8044W        W80370  44.903  41.230  12.455
 8045W        W80371   3.770  42.208   3.662
 8046W        W80372  31.153   8.737  12.060
 8047W        W80373  24.666  10.880  14.062
 8048W        W80374  33.576  20.673   4.453
 8049W        W80375  35.601  13.034  13.371
 8050W        W80376   2.426  33.797   3.065
 8051W        W80377  22.281  36.292  14.385
 8052W        W80378   9.899   8.384   0.356
 8053W        W80379  34.401  18.629   4.264
 8054W        W80380  18.123  40.468   1.935
 8055W        W80381  26.592   9.590  12.936
 8056W        W80382   9.583  36.771  14.523
 8057W        W80383  24.602  38.860  10.602
 8058W        W80384  42.289  12.249   3.322
 8059W        W80385   7.260  23.033   4.115
 8060W        W80386   8.711   0.301   1.830
 8061W        W80387  26.224  17.339  13.601
 8062W        W80388   7.759   6.800  13.947
 8063W        W80389  18.125  15.389   2.398
 8064W        W80390  18.138  33.030  11.135
 8065W        W80391  38.069   3.945   2.736
 8066W        W80392  10.383  20.691   3.708
 8067W        W80393   2.734   2.204  14.388
 8068W        W80394  41.530  20.950   4.946
 8069W        W80395  15.172  38.321  13.084
 8070W        W80396  13.224  15.589   2.010
 8071W        W80397  19.104  18.391  13.333
 8072W        W80398  27.485  43.525  13.443
 8073W        W80399  26.224  19.276   0.307
 8074W        W80400  23.672  20.014   3.634
 8075W        W80401  34.982  39.308  12.060
 8076W        W80402   2.797  23.752   3.612
 8077W        W80403  44.024  43.989  10.535
 8078W        W80404   8.350   8.606   3.593
 8079W        W80405  14.853  30.452   2.299
 8080W        W80406  31.487  37.655   1.248
 8081W        W80407   5.203  15.361  13.696
 8082W        W80408  29.379  42.955  11.993
 8083W        W80409  33.029  24.695   0.809
 8084W        W80410  35.396  32.679   3.770
 8085W        W80411  29.191  44.812   0.862
 8086W        W80412  37.495  19.821  12.895
 8087W        W80413  31.135   5.807  10.674
 8088W        W80414  40.249   7.273  11.732
 8089W        W80415   7.015  37.374   0.393
 8090W        W80416  33.666  22.745   2.243
 8091W        W80417  24.890   5.558   1.061
 8092W        W80418   7.545   3.243   1.133
 8093W        W80419  16.718   1.334   0.003
 8094W        W80420  16.045  44.028  14.712
 8095W        W80421  42.862  23.329   1.238
 8096W        W80422  28.572   0.847   3.457
 8097W        W80423  34.333  36.646  11.553
 8098W        W80424   4.752   9.876   0.950
 8099W        W80425  17.544  28.738  13.112
 8100W        W80426   3.167  28.472   1.020
 8101W        W80427  28.131  26.056  11.253
 8102W        W80428  35.374  30.177   3.052
 8103W        W80429   6.456  36.690   3.276
 8104W        W80430  21.604  18.829   1.705
 8105W        W80431  18.597  28.989  14.893
 8106W        W80432  21.275   2.478   1.958
 8107W        W80433   0.376  15.588  13.410
 8108W        W80434  10.984  35.162   5.535
 8109W        W80435   3.819  28.995  13.781
 8110W        W80436  43.760  12.603   3.735
 8111W        W80437  30.081  22.836   0.161
 8112W        W80438   7.888  22.144  12.816
 8113W        W80439  44.752  12.142  13.601
 8114W        W80440  12.835  22.022   5.050
 8115W        W80441   1.474   8.809   0.853
 8116W        W80442  42.057  18.281   0.306
 8117W        W80443   3.642   3.542   4.257
 8118W        W80444  44.308  39.986  14.631
 8119W        W80445   7.190  35.097  14.944
 8120W        W80446  29.454  40.577   0.990
 8121W        W80447   2.185  29.627   3.535
 8122W        W80448   1.889  26.892  13.842
 8123W        W80449  11.942  44.879   1.527
 8124W        W80450  40.591   8.981   3.996
 8125W        W80451  33.938  31.617   3.342
 8126W        W80452  43.895  30.649  11.210
 8127W        W80453  26.510  26.076   1.492
 8128W        W80454  42.003  20.573  11.540
 8129W        W80455  22.230  38.840   0.680
 8130W        W80456  15.919  34.946   3.753
 8131W        W80457  25.392  34.031   4.824
 8132W        W80458  14.701  13.651   2.596
 8133W        W80459  42.534  11.870  12.605
 8134W        W80460  37.558  38.453   3.794
 8135W        W80461  44.490  26.534  13.148
 8136W        W80462  37.482  26.700   2.380
 8137W        W80463  24.582  17.644   1.305
 8138W        W80464  19.328  24.048  13.403
 8139W        W80465  35.311  42.410  14.160
 8140W        W80466  38.185  15.523  11.558
 8141W        W80467  34.402  16.725   4.415
 8142W        W80468   6.040  36.594   5.012
 8143W        W80469  16.077  29.943  13.551
 8144W        W80470  40.564   0.003   2.951
 8145W        W80471  28.720  17.252   2.745
 8146W        W80472  29.529  32.230   1.356
 8147W        W80473  41.839  14.255   5.165
 8148W        W80474   0.723  35.310   2.647
 8149W        W80475   8.466  40.091   4.283
 8150W        W80476  15.545  28.916   1.021
 8151W        W80477  25.000  40.439  14.810
 8152W        W80478  43.489  15.823  14.325
 8153W        W80479  41.473  16.560   3.696
 8154W        W80480   2.840  39.808   4.136
 8155W        W80481  35.420  32.966  13.796
 8156W        W80482  25.483   6.601   4.069
 8157W        W80483  10.997  25.893   4.314
 8158W        W80484   2.151  11.091   4.647
 8159W        W80485   8.840   5.735  12.478
 8160W        W80486  28.455  24.254   2.641
 8161W        W80487  41.325  26.145   2.581
 8162W        W80488   4.897  28.280  11.387
 8163W        W80489  29.639  34.679  12.614
 8164W        W80490  42.746  20.754   1.397
 8165W        W80491  35.864  41.873   3.640
 8166W        W80492   3.921  24.623  11.624
 8167W        W80493   1.052  40.317   4.592
 8168W        W80494  41.442  39.261   1.853
 8169W        W80495  25.006  29.721   2.268
 8170W        W80496  22.990  25.934  10.908
 8171W        W80497  26.977  12.170   0.214
 8172W        W80498  18.322  38.412   1.295
 8173W        W80499   2.288  14.237  14.751
 8174W        W80500  11.148  14.613  13.832
 8175W        W80501  23.466  11.663   2.315
 8176W        W80502   4.145  18.258   4.844
 8177W        W80503  18.091   8.455   2.287
 8178W        W80504   7.785   0.274  12.159
 8179W        W80505  42.321  34.849   4.640
 8180W        W80506  44.843  38.849  14.882
 8181W        W80507  30.725  22.417   0.848
 8182W        W80508   4.424   4.944   0.851
 8183W        W80509   1.684  19.004  11.139
 8184W        W80510  37.091  14.604  14.380
 8185W        W80511  44.286  16.849   3.220
 8186W        W80512  33.896   1.525  10.460
 8187W        W80513  15.762  37.222   2.664
 8188W        W80514  10.922  43.799  11.243
 8189W        W80515  38.836  33.996   5.025
 8190W        W80516  23.543  42.802  13.910
 8191W        W80517  11.535   1.566  14.734
 8192W        W80518  41.097  35.809  14.957
 8193W        W80519  14.303  16.242   4.128
 8194W        W80520   4.485   6.428  12.325
 8195W        W80521  37.544  43.378   2.764
 8196W        W80522  29.406  41.897   1.788
 8197W        W80523  37.526  29.147  11.408
 8198W        W80524   2.106  44.400  12.372
 8199W        W80525   5.596  23.283  14.606
 8200W        W80526  22.636  19.336  13.973
 8201W        W80527  35.834  26.728   0.765
 8202W        W80528  13.700  36.565   0.823
 8203W        W80529   9.602  22.100   0.284
 8204W        W80530  31.476   6.199  10.672
 8205W        W80531  17.905  44.296   2.316
 8206W        W80532  42.529  32.682   2.345
 8207W        W80533  13.272  29.260   3.228
 8208W        W80534  22.378  41.700  13.059
 8209W        W80535  43.293  44.529  13.038
 8210W        W80536   5.381  36.027   2.664
 8211W        W80537  28.640  25.740  10.119
 8212W        W80538   6.169  11.804   1.745
 8213W        W80539   5.784   1.233  10.668
 8214W        W80540  35.095  27.486  11.611
 8215W        W80541  22.571   0.552   2.960
 8216W        W80542  10.596   4.463   2.787
 8217W        W80543  38.745   0.946  14.095
 8218W        W80544   1.021  32.831   0.533
 8219W        W80545  21.089  36.589  12.061
 8220W        W80546  14.935   4.421   0.959
 8221W        W80547  20.754   7.420  13.441
 8222W        W80548  30.939  18.830  13.700
 8223W        W80549   5.970   7.396  11.126
 8224W        W80550  28.236  33.156  10.413
 8225W        W80551  14.623  11.667  10.579
 8226W        W80552  39.639  28.624  12.804
 8227W        W80553  37.611  17.021  12.307
 8228W        W80554  36.620  10.266   3.997
 8229W        W80555  33.672   1.703  13.462
 8230W        W80556  14.356  27.179  14.545
 8231W        W80557   6.714  20.192   0.207
 8232W        W80558  20.623  10.609  13.187
 8233W        W80559  15.524  37.398  10.326
 8234W        W80560  10.863  24.501   2.733
 8235W        W80561  39.766   6.977   4.498
 8236W        W80562  12.124  25.054  13.968
 8237W        W80563  41.928  27.439  12.454
 8238W        W80564   0.557   5.061  10.304
 8239W        W80565  18.799  26.657   9.755
 8240W        W80566  16.320  38.378  14.376
 8241W        W80567  39.487   0.401   2.715
 8242W        W80568  27.541  36.939   0.419
 8243W        W80569  37.933   9.852  13.506
 8244W        W80570  28.450  33.581   2.876
 8245W        W80571  36.357  27.120   3.050
 8246W        W80572  40.058   2.228   2.306
 8247W        W80573  22.234  11.838   0.666
 8248W        W80574  14.548   5.059  11.155
 8249W        W80575  15.353  31.335  11.434
 8250W        W80576  26.751  30.400  13.836
 8251W        W80577  27.211  29.473  10.654
 8252W        W80578  17.280  14.500   4.323
 8253W        W80579  41.565  18.346   4.537
 8254W        W80580   7.742  11.740   0.233
 8255W        W80581  25.739   3.621   5.121
 8256W        W80582  11.382  24.699  13.602
 8257W        W80583  33.607  36.960   2.427
 8258W        W80584  29.576  37.202  11.536
 8259W        W80585   2.255  18.708  14.879
 8260W        W80586  39.999  10.600  12.959
 8261W        W80587   1.449   1.905   2.665
 8262W        W80588  36.789   3.330   3.705
 8263W        W80589  16.623  35.318  13.756
 8264W        W80590   4.208   4.931  10.503
 8265W        W80591   9.805  32.095   3.447
 8266W        W80592  37.798  18.671  13.349
 8267W        W80593  33.931  40.253  12.034
 8268W        W80594  30.355  44.849   3.865
 8269W        W80595  15.204   5.491  10.720
 8270W        W80596  11.182  25.601   3.333
 8271W        W80597  26.998   9.640   0.958
 8272W        W80598  33.060  43.556   0.341
 8273W        W80599   7.886  26.065   0.364
 8274W        W80600  44.301  35.917   0.393
 8275W        W80601   0.317  42.173  13.179
 8276W        W80602  35.076  12.942   0.749
 8277W        W80603  10.772  19.379   0.349
 8278W        W80604  34.282  34.554  13.897
 8279W        W80605  19.742  24.445  10.706
 8280W        W80606  35.920  16.425  12.650
 8281W        W80607  10.836  20.550  10.710
 8282W        W80608   6.014  12.099  12.058
 8283W        W80609  44.819  12.221  13.028
 8284W        W80610  16.267  19.783   5.040
 8285W        W80611  15.180   4.983  10.830
 8286W        W80612  32.872   6.721  13.553
 8287W        W80613  16.592  16.273   4.021
 8288W        W80614   4.664  39.372  14.919
 8289W        W80615  22.819  15.443  12.860
 8290W        W80616  19.934  15.761  14.990
 8291W        W80617  10.838  15.173   1.695
 8292W        W80618  14.447  24.812   2.922
 8293W        W80619   7.831  42.845   3.223
 8294W        W80620  28.969  41.460   1.190
 8295W        W80621  37.806  22.775  11.489
 8296W        W80622   8.756   0.036   4.197
 8297W        W80623  11.659  38.796   0.749
 8298W        W80624  15.672  35.923   2.836
 8299W        W80625  27.509   7.097   4.326
 8300W        W80626   4.297  37.435  12.187
 8301W        W80627  26.447  12.325  14.464
 8302W        W80628   1.851  16.687  14.089
 8303W        W80629  25.117  39.036   0.790
 8304W        W80630   2.167   9.606  11.313
 8305W        W80631  15.624  16.300   2.287
 8306W        W80632   1.682  38.158  11.115
 8307W        W80633  32.052  16.119  14.427
 8308W        W80634  35.138  28.500   4.235
 8309W        W80635  35.993  34.006  14.789
 8310W        W80636  20.637  38.285   1.229
 8311W        W80637   4.371  32.578   2.052
 8312W        W80638  41.521  33.408   0.368
 8313W        W80639  16.376  12.848   4.147
 8314W        W80640  32.781  34.529   5.485
 8315W        W80641  36.592   9.797   0.342
 8316W        W80642  26.145  12.858  11.958
 8317W        W80643  41.100  40.480   4.245
 8318W        W80644  37.921  44.286   2.502
 8319W        W80645  13.072  10.138  14.827
 8320W        W80646  25.017   9.152  12.368
 8321W        W80647  32.871  27.018  13.404
 8322W        W80648  21.137  39.132   2.573
 8323W        W80649  20.669   4.228  11.117
 8324W        W80650  24.969  23.905   0.848
 8325W        W80651  15.210  36.445   3.806
 8326W        W80652  35.343   7.842  14.802
 8327W        W80653   4.259  12.998   0.867
 8328W        W80654   5.959  39.937   4.143
 8329W        W80655  24.900  30.212   2.151
 8330W        W80656  17.552  34.382   3.999
 8331W        W80657   2.907  36.557  12.071
 8332W        W80658  26.581  39.950  13.180
 8333W        W80659   8.857  33.074   2.215
 8334W        W80660  35.483   8.478  13.968
 8335W        W80661   2.425  43.593  13.239
 8336W        W80662  36.104  24.520   1.773
 8337W        W80663  33.210   3.133  14.718
 8338W        W80664  25.156  29.177  11.159
 8339W        W80665  19.997  19.770   3.341
 8340W        W80666  31.015  36.810   2.723
 8341W        W80667  39.089  14.630   0.341
 8342W        W80668  28.205  39.164   5.092
 8343W        W80669   9.128  14.974   3.931
 8344W        W80670  29.381  34.960   2.402
 8345W        W80671  26.148   4.450   2.115
 8346W        W80672  41.029   5.057   3.114
 8347W        W80673  27.319  14.133   2.198
 8348W        W80674   4.236  35.096   1.827
 8349W        W80675  11.720   4.647  13.897
 8350W        W80676   0.838  43.598  12.074
 8351W        W80677   4.254   9.795  12.489
 8352W        W80678  42.989  11.135   2.847
 8353W        W80679   1.694   1.096   4.848
 8354W        W80680   4.939  19.618   9.863
 8355W        W80681  30.731   2.631   4.138
 8356W        W80682  35.326  41.979  11.149
 8357W        W80683  36.457  34.607  12.368
 8358W        W80684  18.007  41.342   1.848
 8359W        W80685  24.922  37.427   2.915
 8360W        W80686   1.973  35.484  12.353
 8361W        W80687  16.730  29.514   0.995
 8362W        W80688  14.757  17.133  10.890
 8363W        W80689  43.472  41.228  11.000
 8364W        W80690  44.898  43.530   1.828
 8365W        W80691  13.351   2.592  11.999
 8366W        W80692  31.598   8.353  11.665
 8367W        W80693  26.099   4.554   1.268
 8368W        W80694   3.843   5.396  12.190
 8369W        W80695  34.768  38.388  14.462
 8370W        W80696  20.749  34.341  12.620
 8371W        W80697  25.593  10.751   3.354
 8372W        W80698  17.193   2.192   0.322
 8373W        W80699  22.515  13.123   2.969
 8374W        W80700   7.216   4.354   4.517
 8375W        W80701  22.778   6.837  14.036
 8376W        W80702   3.542  33.029  11.695
 8377W        W80703  12.082   9.579   2.560
 8378W        W80704  11.223  19.335  12.613
 8379W        W80705   6.355  37.026   3.712
 8380W        W80706   3.172  32.769   0.787
 8381W        W80707   8.361  30.066   2.631
 8382W        W80708  12.797  23.548   3.533
 8383W        W80709  43.981  20.741   3.403
 8384W        W80710  24.632   9.815  12.566
 8385W        W80711   3.725  27.105   1.797
 8386W        W80712  36.522  43.256   2.133
 8387W        W80713  36.864  14.741   2.025
 8388W        W80714  39.977  11.096   2.205
 8389W        W80715   7.773   0.436   0.368
 8390W        W80716  22.819  12.770  14.018
 8391W        W80717  17.116  35.900   2.624
 8392W        W80718  33.091  37.866  10.600
 8393W        W80719  12.576   9.299  11.534
 8394W        W80720  15.131  32.818  11.305
 8395W        W80721  40.523  26.481  12.884
 8396W        W80722  20.007  27.111  10.694
 8397W        W80723  26.948  12.670   1.442
 8398W        W80724  21.134  38.009   3.287
 8399W        W80725  22.520   8.260  12.633
 8400W        W80726  21.242  11.057   2.316
 8401W        W80727  14.852  32.423  11.143
 8402W        W80728   2.948  43.889   0.351
 8403W        W80729   2.738  13.754  12.921
 8404W        W80730  40.532  14.366  12.433
 8405W        W80731  23.181  28.520  12.441
 8406W        W80732  14.191   6.283   1.499
 8407W        W80733  32.178  39.396  10.670
 8408W        W80734  18.044  27.705   3.144
 8409W        W80735  44.312  43.401   4.056
 8410W        W80736  26.230  38.617   2.362
 8411W        W80737  27.653  44.301  11.738
 8412W        W80738  43.153   7.458   2.174
 8413W        W80739  42.775  44.607   0.261
 8414W        W80740   0.409  24.458  13.833
 8415W        W80741  43.334  32.688  10.915
 8416W        W80742   6.690  21.822   4.057
 8417W        W80743  22.033  19.755  12.834
 8418W        W80744  15.737  27.968   0.945
 8419W        W80745  42.336  12.573  10.763
 8420W        W80746   6.106   0.328   1.965
 8421W        W80747  32.777  22.158   0.288
 8422W        W80748  34.457  22.522   3.670
 8423W        W80749  38.049  37.087   1.031
 8424W        W80750  10.196  41.005   4.085
 8425W        W80751  20.321  34.872   4.575
 8426W        W80752  28.659  31.151  12.839
 8427W        W80753  16.101  42.620  11.990
 8428W        W80754  12.083  41.553   4.155
 8429W        W80755   2.819   6.793  11.187
 8430W        W80756  31.418  23.832  11.220
 8431W        W80757  34.865  23.016  11.755
 8432W        W80758  13.000  27.107  11.866
 8433W        W80759  34.171   6.915  11.586
 8434W        W80760   9.453  29.812  10.790
 8435W        W80761  38.839  32.461  12.846
 8436W        W80762  22.429  12.692   1.694
 8437W        W80763  21.840  19.240   3.552
 8438W        W80764  20.204  30.307  12.079
 8439W        W80765  10.304  42.161   4.586
 8440W        W80766   0.712   8.732   4.115
 8441W        W80767  28.030  14.041   4.673
 8442W        W80768   8.770  26.485  10.124
 8443W        W80769   6.663  32.607  12.874
 8444W        W80770   8.420   4.424   3.238
 8445W        W80771  20.738  12.254  12.487
 8446W        W80772  38.543  14.539  14.970
 8447W        W80773  44.240  28.905   2.291
 8448W        W80774  27.046  25.296  11.079
 8449W        W80775  24.050  36.421  10.660
 8450W        W80776  26.083  25.425  11.107
 8451W        W80777  42.345   2.485  14.867
 8452W        W80778  16.996   6.768   1.182
 8453W        W80779   6.069  18.785   4.054
 8454W        W80780  19.014  33.402   5.037
 8455W        W80781   0.240   0.358  12.164
 8456W        W80782   8.137  36.609   4.248
 8457W        W80783  10.127  18.195  11.231
 8458W        W80784  15.815  20.217  13.096
 8459W        W80785  15.272   4.214   1.302
 8460W        W80786  27.197  41.999   0.965
 8461W        W80787  42.181  39.609  11.417
 8462W        W80788  12.297  38.407  13.582
 8463W        W80789  36.453   7.278   4.753
 8464W        W80790  39.399  22.707  12.440
 8465W        W80791   9.696  21.662  10.592
 8466W        W80792  14.786   7.809  12.519
 8467W        W80793  16.102  41.414   4.881
 8468W        W80794   3.182   5.153  11.577
 8469W        W80795  43.527  26.933   3.750
 8470W        W80796  30.673  25.098   4.528
 8471W        W80797  16.837  11.271  13.740
 8472W        W80798   9.418   7.287   2.762
 8473W        W80799  14.350  23.107  10.731
 8474W        W80800  38.075  15.522   2.251
 8475W        W80801   1.763  19.459   3.104
 8476W        W80802  28.942  32.853   0.978
 8477W        W80803  43.267   0.540   3.708
 8478W        W80804  40.987   1.962   2.184
 8479W        W80805  44.992  29.159  14.394
 8480W        W80806  10.062  12.667  12.168
 8481W        W80807  12.439  38.618   4.809
 8482W        W80808  21.086  42.810   2.950
 8483W        W80809  12.863  25.945  13.288
 8484W        W80810  44.843  18.625   1.649
 8485W        W80811  25.400  27.448   2.460
 8486W        W80812  19.339  10.522  12.305
 8487W        W80813  23.546  41.325  13.345
 8488W        W80814  17.928  16.304   3.985
 8489W        W80815  27.456  36.494   2.215
 8490W        W80816  10.153  41.046  13.551
 8491W        W80817  35.684  21.032   0.441
 8492W        W80818  30.151   3.786  11.166
 8493W        W80819   5.348   3.551  12.337
 8494W        W80820  26.632  12.498  10.098
 8495W        W80821  32.158   0.857   2.182
 8496W        W80822  11.783   3.823   2.635
 8497W        W80823   7.808  43.007  13.139
 8498W        W80824  43.905  30.134   2.847
 8499W        W80825  38.889  22.646  12.431
 8500W        W80826  18.733  42.279  11.163
 8501W        W80827   2.688  32.034   4.664
 8502W        W80828   9.369  39.945   2.214
 8503W        W80829  24.051   0.467  14.556
 8504W        W80830  34.121   4.135  13.767
 8505W        W80831  23.045   7.773  13.770
 8506W        W80832   1.686  16.221  13.559
 8507W        W80833  22.605  18.552  14.294
 8508W        W80834  37.616  28.808  12.894
 8509W        W80835  26.195  18.606  11.845
 8510W        W80836  26.600   5.969  10.710
 8511W        W80837  10.167   8.700  10.650
 8512W        W80838  28.130  29.462  14.208
 8513W        W80839   2.747  36.921   0.432
 8514W        W80840  25.949   1.652   1.703
 8515W        W80841  43.237  10.726   3.712
 8516W        W80842  17.712  21.709  14.970
 8517W        W80843  26.570  16.462  14.853
 8518W        W80844  37.469  22.713  12.215
 8519W        W80845  27.268   4.486  14.108
 8520W        W80846  32.822  43.695  14.899
 8521W        W80847  28.479  17.258   2.247
 8522W        W80848  33.870  28.743   3.703
 8523W        W80849  31.593  17.029   3.099
 8524W        W80850  33.653  43.757  11.604
 8525W        W80851   7.924  33.456   4.136
 8526W        W80852  23.105  28.677   3.291
 8527W        W80853  17.542  20.487  14.488
 8528W        W80854  28.989   6.677  13.160
 8529W        W80855  40.252  12.651  11.542
 8530W        W80856  18.828  31.067  13.798
 8531W        W80857  13.175  36.981   2.587
 8532W        W80858  41.473   4.266  12.644
 8533W        W80859  14.073  40.290   2.708
 8534W        W80860   0.228  38.059  11.259
 8535W        W80861   1.501  15.956   0.660
 8536W        W80862  37.586   8.095   4.187
 8537W        W80863  15.852  15.304   0.998
 8538W        W80864  23.971  41.570  13.565
 8539W        W80865  27.706  34.467  12.903
 8540W        W80866  31.100   1.311   0.866
 8541W        W80867  24.894  12.425  12.150
 8542W        W80868  18.009   8.355  14.353
 8543W        W80869  43.808  37.773  14.272
 8544W        W80870  25.975  18.543  14.884
 8545W        W80871  37.020   2.266   2.441
 8546W        W80872  17.541  41.411  12.006
 8547W        W80873  27.428  32.424   4.129
 8548W        W80874   3.354  19.035  12.534
 8549W        W80875   1.399  41.388   0.695
 8550W        W80876  30.899   2.238  13.036
 8551W        W80877   3.373  14.072   4.170
 8552W        W80878  37.093   5.904   1.737
 8553W        W80879   8.196  16.382  11.178
 8554W        W80880  44.236  21.831  10.593
 8555W        W80881  44.413  22.716   3.179
 8556W        W80882   0.103  25.791  14.764
 8557W        W80883  42.442   4.229  13.565
 8558W        W80884   4.388  13.108   2.208
 8559W        W80885  34.531   0.736  12.037
 8560W        W80886   9.734  18.729   1.287
 8561W        W80887  19.470  31.046   1.331
 8562W        W80888  16.883  39.858   4.729
 8563W        W80889  42.299  28.082  12.037
 8564W        W80890  26.094  17.226   5.048
 8565W        W80891  13.842  12.630   3.242
 8566W        W80892   3.349   7.927  14.951
 8567W        W80893  14.633   8.260   4.784
 8568W        W80894  38.166  24.092  13.387
 8569W        W80895  16.801  30.227  12.156
 8570W        W80896  15.614  10.330   4.071
 8571W        W80897  40.626   9.744   4.247
 8572W        W80898  10.360  22.039   2.738
 8573W        W80899  41.057  40.266  10.751
 8574W        W80900  41.267  23.033   1.763
 8575W        W80901  18.969   4.366   1.128
 8576W        W80902   6.405  11.880  13.439
 8577W        W80903   1.635  11.783  11.021
 8578W        W80904  28.206  40.043   2.447
 8579W        W80905  13.580  28.063   4.209
 8580W        W80906  24.803   3.278   0.945
 8581W        W80907  39.550  44.680   1.367
 8582W        W80908  27.775  25.373  14.026
 8583W        W80909  31.864  10.231  12.486
 8584W        W80910  11.814  42.851   1.560
 8585W        W80911   1.752  31.498   1.941
 8586W        W80912  33.967  10.655  10.901
 8587W        W80913  39.128  13.024  13.069
 8588W        W80914  42.901  34.010  12.198
 8589W        W80915  10.723  40.644   4.788
 8590W        W80916  28.077   8.723   3.694
 8591W        W80917   5.137  37.938   1.431
 8592W        W80918  40.911  25.424  12.074
 8593W        W80919  36.054  33.560  13.019
 8594W        W80920  36.912  10.295   4.949
 8595W        W80921  23.659   5.744  13.889
 8596W        W80922  21.783  36.830  11.532
 8597W        W80923  24.194  37.006   2.617
 8598W        W80924   7.755   5.445   1.400
 8599W        W80925  10.831  43.791  13.000
 8600W        W80926  22.273  30.710   4.186
 8601W        W80927  34.107  34.191   3.270
 8602W        W80928  30.619   4.752  10.082
 8603W        W80929  36.349   9.964   4.345
 8604W        W80930  39.777  17.697   3.310
 8605W        W80931  17.389  19.432  13.336
 8606W        W80932  23.479  40.808  13.303
 8607W        W80933  34.638  36.007   3.156
 8608W        W80934  33.048  25.958   2.922
 8609W        W80935  35.318  26.822  13.567
 8610W        W80936  31.035  36.111  11.057
 8611W        W80937  26.747  42.364  13.129
 8612W        W80938  39.315  26.506  14.958
 8613W        W80939  32.993  12.348   3.167
 8614W        W80940  10.970  16.215  14.527
 8615W        W80941  29.004  37.049  14.534
 8616W        W80942   9.673  10.383  14.494
 8617W        W80943  20.686  32.712  13.818
 8618W        W80944  37.818  16.805   3.743
 8619W        W80945   9.686  30.031   1.915
 8620W        W80946  39.447  31.273  13.469
 8621W        W80947  27.893  10.034   4.528
 8622W        W80948  33.357   3.747   4.095
 8623W        W80949  25.821  42.410  10.357
 8624W        W80950   3.083   5.424   9.877
 8625W        W80951   6.228  19.164  12.169
 8626W        W80952  42.373  42.562   2.717
 8627W        W80953  33.391   4.523   5.061
 8628W        W80954  43.297  10.304  12.938
 8629W        W80955  10.709   9.874  14.243
 8630W        W80956  43.963  36.113   3.119
 8631W        W80957  14.140   9.923   5.020
 8632W        W80958  26.535  13.324  12.984
 8633W        W80959  29.526  37.494   0.866
 8634W        W80960  29.446  35.506  13.275
 8635W        W80961  16.787  44.370   3.218
 8636W        W80962  15.834  17.839  14.767
 8637W        W80963  31.733   6.678   3.693
 8638W        W80964  36.885  34.263  14.883
 8639W        W80965   1.537  22.648  12.553
 8640W        W80966  17.161  38.407  13.316
 8641W        W80967  13.957  25.450  10.465
 8642W        W80968  43.780  32.857   0.731
 8643W        W80969  26.957   4.482   3.711
 8644W        W80970   4.218  11.366   4.643
 8645W        W80971  44.798  28.666  14.373
 8646W        W80972  25.114  30.361  10.760
 8647W        W80973  15.050  36.562  10.332
 8648W        W80974   7.306   5.943   2.913
 8649W        W80975  16.163  10.869  11.623
 8650W        W80976  31.510  30.440  14.841
 8651W        W80977  28.104   6.133  13.930
 8652W        W80978  14.609  27.006   9.755
 8653W        W80979   7.264   8.717  14.196
 8654W        W80980  25.595   1.250   1.766
 8655W        W80981  25.042   8.408   4.610
 8656W        W80982  21.084  25.620  14.620
 8657W        W80983  11.804  36.089  13.750
 8658W        W80984  13.330  42.743  13.535
 8659W        W80985   1.903  23.592  12.480
 8660W        W80986   8.581   6.840   2.588
 8661W        W80987  31.130  36.787  12.349
 8662W        W80988  44.350  12.896  11.483
 8663W        W80989   8.179  17.343   1.788
 8664W        W80990  40.379  13.147  11.430
 8665W        W80991  21.681  24.604   0.887
 8666W        W80992  38.793  24.471   2.729
 8667W        W80993  34.853  11.075  14.710
 8668W        W80994  33.385  40.003  12.818
 8669W        W80995   6.271  12.237  11.643
 8670W        W80996  17.524   2.497  10.744
 8671W        W80997  36.047  24.926  10.648
 8672W        W80998  29.845  38.014  13.819
 8673W        W80999   0.269  14.000  14.108
 8674W        W81000  29.128  26.197   0.431
 8675W        W81001  26.257  44.944  14.907
 8676W        W81002  16.267  13.487   3.089
 8677W        W81003  14.384   9.387   2.128
 8678W        W81004  18.351  32.536  12.483
 8679W        W81005  16.998  20.830  11.600
 8680W        W81006  34.035  38.083   1.181
 8681W        W81007  15.290   0.959   4.514
 8682W        W81008   1.367  23.123   0.765
 8683W        W81009   7.706   1.327   4.476
 8684W        W81010  18.157  42.995  12.200
 8685W        W81011  11.392  16.969   0.019
 8686W        W81012  14.743  31.941   0.052
 8687W        W81013   2.192  42.411   3.704
 8688W        W81014   6.835  44.825  10.684
 8689W        W81015   7.503   8.142   4.325
 8690W        W81016  33.117  17.070   4.581
 8691W        W81017  44.529  12.649  10.214
 8692W        W81018  31.418  17.727  14.887
 8693W        W81019  34.034  28.145  11.966
 8694W        W81020   2.453  30.617  11.599
 8695W        W81021  13.059  17.840   3.805
 8696W        W81022  39.957   5.961   2.756
 8697W        W81023  41.067  23.498   1.919
 8698W        W81024  24.620  11.055  13.582
 8699W        W81025  18.656  38.475  10.539
 8700W        W81026  15.590  16.116  11.467
 8701W        W81027  42.285  28.645   0.880
 8702W        W81028  24.257   4.600   1.600
 8703W        W81029  43.479  40.776  10.744
 8704W        W81030  38.341  13.617  10.462
 8705W        W81031  24.095   5.410  11.244
 8706W        W81032  20.655  35.896   2.424
 8707W        W81033   9.108  24.517  13.467
 8708W        W81034  23.949   0.842   1.248
 8709W        W81035  22.716  26.505   3.195
 8710W        W81036  19.979  19.681  11.488
 8711W        W81037  43.206   6.060  12.734
 8712W        W81038  30.993   7.998   4.021
 8713W        W81039  24.799  39.500  13.304
 8714W        W81040  22.273  43.557  11.394
 8715W        W81041  12.229  26.989   4.799
 8716W        W81042  44.431   6.246   4.043
 8717W        W81043  31.159  42.886   4.185
 8718W        W81044  15.726  26.449  13.312
 8719W        W81045  44.564   1.272  11.528
 8720W        W81046   7.556   0.450  10.951
 8721W        W81047  30.616  23.442  13.884
 8722W        W81048  38.526  28.936   3.734
 8723W        W81049  28.919  35.435   2.790
 8724W        W81050  11.242   2.402   3.268
 8725W        W81051  29.035  25.453  10.905
 8726W        W81052   4.035   0.700   3.998
 8727W        W81053  42.826  11.801  11.562
 8728W        W81054   0.717  18.355  10.135
 8729W        W81055  15.568  12.025   3.724
 8730W        W81056  30.341  15.186   2.223
 8731W        W81057  16.775  11.204  14.293
 8732W        W81058  10.371  28.378   4.375
 8733W        W81059  37.445  40.727  14.807
 8734W        W81060   7.454   6.822   3.882
 8735W        W81061  25.635  43.493   2.132
 8736W        W81062  44.791  41.473  12.915
 8737W        W81063   0.932  10.456   1.255
 8738W        W81064  27.898  22.239  11.875
 8739W        W81065   9.363  35.543   4.088
 8740W        W81066  31.378  13.741   1.746
 8741W        W81067  27.549  27.967  13.809
 8742W        W81068  37.586  31.084  11.056
 8743W        W81069  12.902   3.161   0.456
 8744W        W81070  16.060  40.843  12.705
 8745W        W81071  44.736  42.018  11.564
 8746W        W81072  23.069  23.883  14.419
 8747W        W81073  23.474   0.451   4.605
 8748W        W81074  14.630   8.544  10.637
 8749W        W81075  12.488   6.950  10.765
 8750W        W81076  13.654   3.769  13.991
 8751W        W81077  12.447  18.132  10.780
 8752W        W81078  28.583   6.792   4.887
 8753W        W81079  19.515  42.230   0.394
 8754W        W81080  41.981  19.703   1.902
 8755W        W81081   8.238  26.062   0.804
 8756W        W81082   2.183   8.032  11.172
 8757W        W81083  40.051  23.044   4.179
 8758W        W81084  40.835  38.873  13.054
 8759W        W81085  20.774  37.583   4.209
 8760W        W81086  32.560  41.084   3.971
 8761W        W81087  44.928  25.793  10.651
 8762W        W81088   2.007   2.722  12.981
 8763W        W81089  40.764  10.154   3.231
 8764W        W81090   7.890  37.617   0.526
 8765W        W81091  34.584   9.823  12.892
 8766W        W81092  26.647  27.598  14.709
 8767W        W81093   2.758  32.475   0.713
 8768W        W81094  36.999  26.482  10.665
 8769W        W81095  20.483   6.715   0.352
 8770W        W81096  31.874   0.947   5.157
 8771W        W81097  34.384  13.811   3.616
 8772W        W81098  21.068   2.884   4.536
 8773W        W81099  26.169  28.499  10.613
 8774W        W81100   2.122   8.198  12.774
 8775W        W81101  28.976   2.863   2.429
 8776W        W81102   6.806  34.135   3.372
 8777W        W81103  42.970  39.856  13.263
 8778W        W81104  37.023  17.210  13.767
 8779W        W81105  38.611  11.777  11.551
 8780W        W81106  19.979  30.935  11.718
 8781W        W81107  32.586  44.957  13.089
 8782W        W81108  21.962  37.645   0.009
 8783W        W81109  42.718  17.798   2.850
 8784W        W81110  33.430  44.173   4.607
 8785W        W81111   4.813  42.786   2.596
 8786W        W81112  39.931  35.237   0.859
 8787W        W81113  16.928  31.712   4.162
 8788W        W81114  21.638   8.139  14.529
 8789W        W81115  22.135  23.300  13.546
 8790W        W81116  20.676  12.764  12.411
 8791W        W81117   0.942  30.384   3.994
 8792W        W81118  32.478  23.659   0.813
 8793W        W81119  24.121  34.671   4.830
 8794W        W81120  40.500  36.386   3.337
 8795W        W81121  13.385   5.954  14.962
 8796W        W81122  23.044  31.986   2.704
 8797W        W81123  25.124  15.212   9.722
 8798W        W81124   5.384  19.865  14.240
 8799W        W81125  24.496  28.678   3.666
 8800W        W81126   5.858   6.065  13.605
 8801W        W81127  16.654  30.883   4.371
 8802W        W81128  13.107   8.321  13.197
 8803W        W81129  33.983  14.721   3.015
 8804W        W81130  39.478  13.790  11.118
 8805W        W81131  28.034  22.782  10.223
 8806W        W81132   1.703  32.004  11.464
 8807W        W81133  37.056  18.067  10.956
 8808W        W81134  26.101   6.225   0.649
 8809W        W81135  43.913  15.819  11.213
 8810W        W81136  38.693  26.690  14.053
 8811W        W81137   2.217  11.263   3.258
 8812W        W81138  35.856  18.497  11.606
 8813W        W81139  31.419  42.570   2.738
 8814W        W81140  37.367   1.244   1.127
 8815W        W81141  27.012  37.856   0.945
 8816W        W81142  33.635  44.285  14.483
 8817W        W81143   6.969  23.768   2.748
 8818W        W81144  10.607  36.973  14.279
 8819W        W81145  38.390   1.308  13.241
 8820W        W81146  18.249  39.479   3.941
 8821W        W81147  31.564  36.305  13.736
 8822W        W81148   5.929   7.655  12.908
 8823W        W81149  35.373  27.438   2.655
 8824W        W81150   1.736   5.839  11.901
 8825W        W81151  42.048  23.813   4.380
 8826W        W81152  31.130   2.726  11.041
 8827W        W81153  21.588  28.615   1.177
 8828W        W81154  21.274   6.912   2.323
 8829W        W81155  36.971   7.401   4.636
 8830W        W81156  12.877  19.035  10.745
 8831W        W81157  14.100  32.780   3.679
 8832W        W81158  37.072  23.082   0.952
 8833W        W81159  38.818  25.683   4.517
 8834W        W81160  27.131  24.693   1.042
 8835W        W81161  20.693  38.225   5.011
 8836W        W81162  22.671  18.737   1.226
 8837W        W81163  15.123   0.246  12.041
 8838W        W81164  36.860  42.954   0.234
 8839W        W81165  10.830   8.289  12.507
 8840W        W81166  12.104   3.343   2.773
 8841W        W81167  35.519  14.499  12.883
 8842W        W81168  42.273  15.208  11.091
 8843W        W81169  21.973  22.658   4.956
 8844W        W81170  35.745  10.467   4.217
 8845W        W81171  25.497  12.075   1.037
 8846W        W81172  20.613   2.713  13.789
 8847W        W81173  37.213  36.714  13.407
 8848W        W81174  27.855  36.572  10.526
 8849W        W81175  22.230  14.435   0.663
 8850W        W81176   0.549  17.026  12.030
 8851W        W81177   1.229  27.821   3.237
 8852W        W81178  25.235  12.594  11.267
 8853W        W81179   2.964  38.902   2.249
 8854W        W81180  18.065  19.584  10.774
 8855W        W81181  43.801  30.005   1.802
 8856W        W81182  30.044  23.639   3.223
 8857W        W81183  10.360  13.243  11.697
 8858W        W81184  38.327  23.681   2.784
 8859W        W81185  12.224  32.637  12.958
 8860W        W81186   5.758  35.953   1.672
 8861W        W81187  10.826  17.297   1.457
 8862W        W81188   4.250  14.867  13.328
 8863W        W81189  40.591  37.099   3.544
 8864W        W81190   0.301  43.370  13.417
 8865W        W81191  37.978  30.563   2.717
 8866W        W81192  34.599  30.536   3.889
 8867W        W81193  16.607  27.389   3.333
 8868W        W81194  19.870  44.946  12.971
 8869W        W81195  18.271  33.748   4.152
 8870W        W81196  10.412  16.583  10.927
 8871W        W81197  22.307  19.017   3.596
 8872W        W81198  43.045  36.064   4.570
 8873W        W81199  38.133  43.940   0.288
 8874W        W81200  19.018  38.479   3.269
 8875W        W81201  27.596  31.402   4.283
 8876W        W81202   8.634  37.436   4.750
 8877W        W81203   2.753   4.361  14.007
 8878W        W81204  38.866  32.704   3.111
 8879W        W81205  12.633  12.889  13.926
 8880W        W81206  25.239  32.790   0.205
 8881W        W81207  24.198   4.905  13.062
 8882W        W81208  13.766  32.976   4.605
 8883W        W81209   2.393  23.073  10.451
 8884W        W81210  18.788  19.597   5.029
 8885W        W81211  28.044  42.825   4.798
 8886W        W81212  42.701  20.662   2.734
 8887W        W81213   7.647  31.204  12.901
 8888W        W81214   3.269  26.442   3.193
 8889W        W81215   5.175  15.697   4.761
 8890W        W81216  19.508  38.868   0.965
 8891W        W81217  25.115   5.151  12.585
 8892W        W81218  34.331  42.495  11.694
 8893W        W81219  34.942   0.435  11.790
 8894W        W81220   6.904  35.879   4.246
 8895W        W81221  22.525   5.235   3.242
 8896W        W81222  29.129  44.433   2.606
 8897W        W81223  22.445   3.836   1.651
 8898W        W81224  28.543  14.779   3.565
 8899W        W81225  37.569  34.587   3.605
 8900W        W81226  34.149  22.310   0.417
 8901W        W81227  11.203  24.452   4.033
 8902W        W81228  34.802   9.476  12.573
 8903W        W81229  41.939  35.127   2.430
 8904W        W81230  22.103  44.938   4.702
 8905W        W81231   3.276   6.397   3.172
 8906W        W81232  16.564  10.742  11.017
 8907W        W81233  12.896   7.778  12.063
 8908W        W81234   4.141  34.522   0.432
 8909W        W81235  44.944  29.399  11.061
 8910W        W81236  43.840   8.723   2.952
 8911W        W81237  11.305  30.906   4.434
 8912W        W81238  11.184  36.314  12.437
 8913W        W81239   9.440  20.177  10.814
 8914W        W81240   4.010   9.326  12.594
 8915W        W81241  36.090  43.517   4.541
 8916W        W81242  29.191  21.155   0.802
 8917W        W81243  25.559  39.932  13.565
 8918W        W81244   1.069   7.525   4.124
 8919W        W81245   1.386   4.633  10.565
 8920W        W81246   2.882  23.127   4.667
 8921W        W81247  14.694  25.692   4.187
 8922W        W81248  27.126  36.647  13.741
 8923W        W81249   9.206   3.468  10.919
 8924W        W81250   3.912  35.364  11.189
 8925W        W81251   9.092  22.121   0.172
 8926W        W81252  10.603  34.581   2.345
 8927W        W81253  39.786   2.160  13.278
 8928W        W81254  34.418  43.823  14.663
 8929W        W81255  34.348  13.376  14.233
 8930W        W81256  31.172  41.552  12.545
 8931W        W81257   0.740   4.424   3.758
 8932W        W81258  44.994  41.855  11.988
 8933W        W81259  41.382   1.317  10.670
 8934W        W81260   7.751  36.272  14.854
 8935W        W81261  28.648  38.815  14.916
 8936W        W81262  34.064  41.177   2.416
 8937W        W81263  23.994   5.522   0.557
 8938W        W81264   5.513  38.368  10.290
 8939W        W81265  40.439  20.640   0.855
 8940W        W81266  36.248  28.923   2.352
 8941W        W81267  37.631  42.947  12.465
 8942W        W81268  41.359   6.348  12.930
 8943W        W81269  13.788  36.111   4.850
 8944W        W81270  10.082  20.629   4.134
 8945W        W81271   8.855  44.814  10.572
 8946W        W81272  43.515   2.105  14.017
 8947W        W81273  18.547  39.877  11.517
 8948W        W81274   4.179  24.264  10.692
 8949W        W81275  40.371  30.634  13.914
 8950W        W81276  15.435   2.877   2.342
 8951W        W81277  29.602  13.578   1.239
 8952W        W81278   0.732   0.579   3.083
 8953W        W81279  25.833  13.142   2.016
 8954W        W81280  42.861   4.737   2.903
 8955W        W81281   7.243  41.514   2.376
 8956W        W81282  37.080  25.510  12.215
 8957W        W81283  44.334  16.618  11.602
 8958W        W81284  28.806  28.778   2.664
 8959W        W81285   4.219  26.583   4.177
 8960W        W81286  30.541  20.670   2.342
 8961W        W81287   5.828  17.596  14.546
 8962W        W81288  10.960  26.729   4.504
 8963W        W81289   6.062   4.016   0.799
 8964W        W81290   4.643  30.939   4.945
 8965W        W81291  36.378  22.636  12.908
 8966W        W81292  35.058   6.724   2.872
 8967W        W81293  27.095  20.523  11.118
 8968W        W81294  33.589  10.157  12.621
 8969W        W81295  13.848  40.067   3.135
 8970W        W81296  31.032   7.175   0.093
 8971W        W81297  19.706  30.095  12.099
 8972W        W81298  34.820  29.467  11.569
 8973W        W81299   2.962  17.148   1.974
 8974W        W81300  42.965   0.887  10.569
 8975W        W81301   7.186  18.534  13.847
 8976W        W81302  44.687  22.231   0.541
 8977W        W81303   0.701   1.998  10.660
 8978W        W81304  14.784   6.428  14.063
 8979W        W81305  23.008  24.902  14.354
 8980W        W81306   5.840  44.265   0.002
 8981W        W81307  33.158  44.201  14.283
 8982W        W81308   7.225   0.744   2.301
 8983W        W81309   3.303  21.022   3.583
 8984W        W81310  31.410  26.703   3.175
 8985W        W81311  39.509  24.959  10.427
 8986W        W81312  18.682  35.774  12.881
 8987W        W81313   4.205   4.784   1.937
 8988W        W81314  26.124  23.542  11.968
 8989W        W81315  19.734  22.578  13.135
 8990W        W81316  11.344  10.737   3.665
 8991W        W81317  41.712   4.789   1.420
 8992W        W81318  24.465   0.820   1.272
 8993W        W81319   4.171  37.994  14.091
 8994W        W81320   6.127  27.185  13.929
 8995W        W81321  14.118  43.897   0.236
 8996W        W81322   5.750  31.729  14.824
 8997W        W81323  25.641  23.784   1.503
 8998W        W81324  18.561   4.016   2.481
 8999W        W81325  44.221  41.456  12.053
 9000W        W81326  16.337  17.736  14.362
 9001W        W81327  39.418  11.841  13.817
 9002W        W81328   4.112  37.888   1.402
 9003W        W81329  41.084   7.449  11.593
 9004W        W81330  16.501   4.138   0.298
 9005W        W81331  32.380  16.465   2.220
 9006W        W81332  30.070   1.544  14.276
 9007W        W81333  33.480  33.175   1.735
 9008W        W81334  15.356  43.620   0.945
 9009W        W81335  34.661   5.124  12.605
 9010W        W81336  44.241   6.788  13.116
 9011W        W81337   1.278  25.703   3.018
 9012W        W81338   7.815  21.201   2.284
 9013W        W81339  42.493  38.126  13.771
 9014W        W81340  30.673  23.036   3.596
 9015W        W81341  41.843  38.271   0.593
 9016W        W81342   7.915  20.138  12.130
 9017W        W81343  13.468  41.686   2.692
 9018W        W81344  25.711   6.263   3.100
 9019W        W81345  13.372  30.179  11.853
 9020W        W81346  32.187  22.801   2.315
 9021W        W81347  38.781  25.498  14.340
 9022W        W81348  42.391  32.993  12.871
 9023W        W81349  41.301  35.553  14.266
 9024W        W81350  20.157  25.031  13.889
 9025W        W81351  37.094   6.784  14.511
 9026W        W81352  27.737  15.753   0.520
 9027W        W81353  27.854   1.165  12.102
 9028W        W81354  44.522  19.902   3.816
 9029W        W81355   4.817  16.425   4.115
 9030W        W81356   1.031   2.664  10.227
 9031W        W81357  41.200  25.673   3.687
 9032W        W81358   3.651  33.824  11.984
 9033W        W81359  18.008  24.204   4.871
 9034W        W81360  30.936  39.305  14.452
 9035W        W81361   9.181   5.957   2.830
 9036W        W81362  14.590  12.559  12.964
 9037W        W81363  15.488  16.667   3.264
 9038W        W81364   1.976  40.511   1.898
 9039W        W81365   7.927  15.259  10.887
 9040W        W81366   8.886  31.728  10.689
 9041W        W81367  43.972  21.678  14.101
 9042W        W81368  31.758  15.348  12.051
 9043W        W81369  26.659   1.158  11.144
 9044W        W81370   7.781  33.553  11.126
 9045W        W81371  39.042  16.100   4.152
 9046W        W81372  25.562   8.315   4.648
 9047W        W81373  40.386  30.013   0.390
 9048W        W81374  30.084   8.798   0.520
 9049W        W81375  25.525  35.557   4.635
 9050W        W81376  30.964  33.077   4.089
 9051W        W81377  29.508   6.050   3.942
 9052W        W81378  37.312  23.685  10.885
 9053W        W81379  43.645   4.050   2.518
 9054W        W81380  30.777  37.062  12.064
 9055W        W81381  32.553   6.147  11.393
 9056W        W81382  33.506   8.322  13.033
 9057W        W81383   2.499   1.480   0.911
 9058W        W81384  26.699  35.933  11.309
 9059W        W81385   3.621  21.765  10.700
 9060W        W81386  16.619  42.743   3.905
 9061W        W81387  34.043  32.449   1.657
 9062W        W81388  27.005   4.846  12.822
 9063W        W81389   2.223  41.676   1.328
 9064W        W81390  25.031  40.832  12.366
 9065W        W81391  27.501  20.473   2.727
 9066W        W81392   5.964  21.314  14.444
 9067W        W81393   0.377   7.707   2.729
 9068W        W81394   7.771  30.525   2.295
 9069W        W81395  11.691  33.261   2.324
 9070W        W81396  20.696   1.479   0.093
 9071W        W81397   8.660  22.572  14.817
 9072W        W81398  17.123  16.129   1.857
 9073W        W81399   1.940  31.366  11.410
 9074W        W81400  44.410  18.012  12.572
 9075W        W81401  30.713  43.790  14.396
 9076W        W81402  42.478  22.988   3.258
 9077W        W81403  18.624   9.947  10.648
 9078W        W81404  26.148  30.562  14.017
 9079W        W81405  19.064  23.533  13.826
 9080W        W81406   2.416  44.068   4.235
 9081W        W81407  39.859  18.065  14.405
 9082W        W81408  34.655  43.940  12.691
 9083W        W81409  11.757  30.582   2.656
 9084W        W81410  41.742   7.680  14.006
 9085W        W81411  24.206  27.931   3.081
 9086W        W81412  24.651  11.114   4.651
 9087W        W81413  10.784  24.895   2.393
 9088W        W81414  19.686   7.881   3.858
 9089W        W81415  32.678  32.372  11.438
 9090W        W81416   3.666   8.441  13.026
 9091W        W81417  20.630  19.031  11.143
 9092W        W81418  35.097  23.028  14.590
 9093W        W81419  22.493  32.885  14.474
 9094W        W81420  40.372  11.861  12.956
 9095W        W81421  33.884  25.268   2.139
 9096W        W81422  28.533  10.721   4.687
 9097W        W81423  21.709  19.945  14.894
 9098W        W81424  17.364  35.479   2.761
 9099W        W81425  32.282  30.810   2.777
 9100W        W81426  39.772  21.691  13.626
 9101W        W81427  18.974  13.214  12.203
 9102W        W81428  25.554  11.836   3.928
 9103W        W81429  36.800  35.461  12.976
 9104W        W81430  33.092  20.041  11.498
 9105W        W81431  26.914  44.892   0.762
 9106W        W81432  12.637   5.167   0.623
 9107W        W81433   8.477  24.248   1.957
 9108W        W81434   1.257  28.902   4.318
 9109W        W81435   7.224  32.501  11.131
 9110W        W81436  15.062   5.264   3.657
 9111W        W81437   2.479  33.733   1.647
 9112W        W81438  38.967  41.266   1.454
 9113W        W81439  16.171  22.993  12.859
 9114W        W81440  39.460  31.522  14.869
 9115W        W81441  12.815  34.060   3.569
 9116W        W81442  18.039   0.767  10.658
 9117W        W81443  18.653  12.689   3.200
 9118W        W81444  10.905  29.636  14.807
 9119W        W81445  29.617  43.974  12.078
 9120W        W81446  36.585  41.975  12.343
 9121W        W81447  43.026  19.587   1.863
 9122W        W81448  10.789  30.633   3.292
 9123W        W81449  33.060  14.646  12.985
 9124W        W81450  23.215  11.755   2.777
 9125W        W81451  13.117  16.676  14.883
 9126W        W81452  32.139  27.298  11.931
 9127W        W81453  31.048   3.862   0.714
 9128W        W81454  16.630  13.527  14.345
 9129W        W81455   8.268  11.284  11.189
 9130W        W81456  33.480  29.930  11.059
 9131W        W81457  25.645  42.469   4.244
 9132W        W81458  39.344  37.358  14.445
 9133W        W81459   8.963  39.918  12.469
 9134W        W81460  43.626  19.307   0.994
 9135W        W81461   7.657  31.977  11.549
 9136W        W81462  37.566   0.899  13.932
 9137W        W81463  32.845  23.416  12.544
 9138W        W81464   7.930  24.556   4.658
 9139W        W81465  37.945  22.087   0.026
 9140W        W81466   6.940   0.281   2.328
 9141W        W81467   9.900  32.136  14.355
 9142W        W81468  36.950  36.124   2.814
 9143W        W81469  38.370  37.250   3.228
 9144W        W81470  35.613  16.735   0.427
 9145W        W81471  20.002  34.916  10.753
 9146W        W81472   2.760   1.260   9.892
 9147W        W81473   9.891   1.905   3.281
 9148W        W81474  38.485  10.890   1.928
 9149W        W81475  29.270  38.565   2.369
 9150W        W81476   6.242   0.214  12.623
 9151W        W81477   8.781  24.439   1.461
 9152W        W81478   4.381  27.695   1.424
 9153W        W81479  19.154  33.566  14.871
 9154W        W81480  42.693  33.865  14.077
 9155W        W81481  26.731  20.723  12.517
 9156W        W81482  19.172  16.643   1.528
 9157W        W81483  26.651   9.364  11.242
 9158W        W81484  24.092  30.172   2.281
 9159W        W81485  33.327  26.065  13.016
 9160W        W81486  19.722  32.278  14.701
 9161W        W81487  18.568   9.711  12.461
 9162W        W81488  30.152  25.511  10.664
 9163W        W81489  10.295   5.487   4.598
 9164W        W81490  34.537  44.374   1.880
 9165W        W81491  26.921   1.295  14.583
 9166W        W81492   5.927  22.027  13.731
 9167W        W81493  17.337  19.710   1.103
 9168W        W81494  40.913  26.931  11.584
 9169W        W81495  39.541   3.143  13.967
 9170W        W81496  25.038  41.323  12.172
 9171W        W81497  22.191  28.541  11.658
 9172W        W81498  18.144  11.526   0.310
 9173W        W81499  38.850  36.622   5.062
 9174W        W81500  34.608  18.831   2.159
 9175W        W81501  40.360  21.499  14.448
 9176W        W81502  35.555  33.437   2.102
 9177W        W81503  16.860  35.456   4.461
 9178W        W81504  42.300  19.701  13.319
 9179W        W81505   0.811  44.281   0.815
 9180W        W81506   8.177  19.596   1.978
 9181W        W81507  21.945  31.943   9.977
 9182W        W81508  10.808   7.210   0.305
 9183W        W81509   0.327  27.225   3.037
 9184W        W81510  15.177  30.127   1.533
 9185W        W81511  37.963  12.545  10.625
 9186W        W81512  31.595  41.022   2.754
 9187W        W81513   1.853  41.238  12.587
 9188W        W81514  30.919  37.609  13.577
 9189W        W81515  31.487  24.974  14.215
 9190W        W81516   8.803  18.057  12.578
 9191W        W81517  25.685  26.302   3.521
 9192W        W81518   4.244  33.506  12.572
 9193W        W81519  23.658   5.450  10.982
 9194W        W81520   9.827  21.238   9.847
 9195W        W81521  42.629  37.252  13.068
 9196W        W81522  14.057   1.510   1.566
 9197W        W81523  16.584  29.585  11.016
 9198W        W81524   4.878  35.856   2.636
 9199W        W81525  31.137  22.306  12.393
 9200W        W81526  33.508  44.924  14.449
 9201W        W81527  17.640  24.479   0.890
 9202W        W81528  29.066   3.927   4.162
 9203W        W81529  16.202  28.460  12.962
 9204W        W81530  26.635   7.627  11.640
 9205W        W81531  42.928   7.258  10.687
 9206W        W81532  32.998  15.135   4.345
 9207W        W81533  22.499  28.946  14.765
 9208W        W81534  43.998  31.816   3.899
 9209W        W81535  13.336  42.767  14.852
 9210W        W81536   7.836  14.286   4.160
 9211W        W81537  29.464   9.223   1.284
 9212W        W81538  37.434   4.817  14.818
 9213W        W81539  34.350  17.617   0.996
 9214W        W81540  40.836   3.886  12.038
 9215W        W81541  39.361  40.364  13.860
 9216W        W81542  38.421   6.833   3.042
 9217W        W81543  23.153  39.097   2.699
 9218W        W81544   8.399  20.187  10.740
 9219W        W81545  35.065  42.472   1.952
 9220W        W81546  33.366  29.161   4.887
 9221W        W81547  31.491  28.684  14.798
 9222W        W81548  25.939  13.122   0.209
 9223W        W81549  17.577  43.171   1.465
 9224W        W81550  44.762  40.051  13.985
 9225W        W81551  10.145  39.307  12.454
 9226W        W81552  18.868  37.706   0.222
 9227W        W81553   4.448  17.772   0.949
 9228W        W81554  33.746  27.271  11.227
 9229W        W81555  15.838   1.898  11.965
 9230W        W81556   4.617   6.236  12.818
 9231W        W81557  26.697  42.909   3.342
 9232W        W81558  23.419  10.735   0.310
 9233W        W81559  12.589  30.456   4.300
 9234W        W81560  27.397  35.570   2.562
 9235W        W81561   1.366  33.300  13.979
 9236W        W81562   4.407  11.419  12.932
 9237W        W81563  22.748   0.217   0.351
 9238W        W81564  18.612  43.340  11.146
 9239W        W81565  34.624  20.521   0.843
 9240W        W81566  11.361  36.118   2.672
 9241W        W81567  28.620  23.123   2.614
 9242W        W81568  23.981  36.397  12.680
 9243W        W81569   3.400  28.909  10.498
 9244W        W81570  43.549   4.621   9.908
 9245W        W81571  29.064  28.900  14.522
 9246W        W81572  10.814  38.872   4.145
 9247W        W81573  18.117   6.202  11.721
 9248W        W81574  36.104  31.564  12.958
 9249W        W81575  44.777   2.569  11.554
 9250W        W81576  33.473  35.694   3.906
 9251W        W81577   2.311  27.190  14.022
 9252W        W81578  31.697  12.845   0.233
 9253W        W81579  26.958   2.257  14.451
 9254W        W81580  29.615  15.826  11.463
 9255W        W81581  40.466  25.712  11.922
 9256W        W81582  43.595  35.394   2.001
 9257W        W81583  22.383  17.643  10.075
 9258W        W81584  18.183   5.324   1.271
 9259W        W81585   1.057  11.215  13.824
 9260W        W81586   4.738  29.411  11.256
 9261W        W81587  29.595   8.768   4.644
 9262W        W81588  26.467  12.200  13.571
 9263W        W81589  44.758  42.435   2.185
 9264W        W81590  24.434  11.149  11.810
 9265W        W81591  12.198  22.313  12.402
 9266W        W81592  11.252   7.363  13.830
 9267W        W81593  37.571  15.328   1.892
 9268W        W81594  34.614  37.059   3.196
 9269W        W81595  10.063   7.432  10.896
 9270W        W81596  33.453   3.003   2.175
 9271W        W81597  22.223  44.898   3.788
 9272W        W81598  44.835  32.363  14.960
 9273W        W81599  41.095   3.724   3.464
 9274W        W81600  28.725  20.712  11.186
 9275W        W81601   6.221  39.073   3.173
 9276W        W81602   6.270  24.253   2.658
 9277W        W81603  28.659  42.854  12.496
 9278W        W81604  25.833  21.065   4.484
 9279W        W81605  31.612  19.607   0.203
 9280W        W81606  36.406  18.240   4.385
 9281W        W81607   9.726  22.966  13.781
 9282W        W81608  14.091  30.388  11.242
 9283W        W81609  35.418  41.789   3.400
 9284W        W81610  29.473   7.330  13.916
 9285W        W81611   1.404   0.540   0.867
 9286W        W81612  39.446   7.354  10.579
 9287W        W81613  21.138   2.995   0.202
 9288W        W81614  27.272  27.102   2.004
 9289W        W81615   8.518  31.510  11.437
 9290W        W81616  23.050  31.477   1.234
 9291W        W81617  15.559  44.947   3.258
 9292W        W81618   8.578  27.994  13.039
 9293W        W81619  27.664   9.111  13.443
 9294W        W81620   5.517   5.321  12.377
 9295W        W81621   1.410  20.633  10.634
 9296W        W81622  42.422  42.460   4.843
 9297W        W81623   9.195  21.970  12.262
 9298W        W81624  35.875  26.079   2.881
 9299W        W81625   1.833  35.520  10.983
 9300W        W81626  27.146   1.846  10.466
 9301W        W81627   4.879   0.888  10.943
 9302W        W81628   9.206  18.625   1.470
 9303W        W81629  13.132   2.958   1.753
 9304W        W81630  10.362  31.358  11.414
 9305W        W81631  11.140  23.118  13.634
 9306W        W81632   4.682  38.455  14.863
 9307W        W81633  31.163  29.876   3.902
 9308W        W81634  20.155   3.440   4.601
 9309W        W81635  27.783  21.598  14.910
 9310W        W81636  20.756  37.004   0.931
 9311W        W81637  14.061   5.481   1.889
 9312W        W81638  20.174  22.580   3.195
 9313W        W81639  24.252  39.060   0.517
 9314W        W81640  13.600  41.908   0.931
 9315W        W81641  28.946  36.538  13.695
 9316W        W81642  32.767  40.665  12.814
 9317W        W81643  10.511  39.544  13.908
 9318W        W81644   2.545  28.158  12.907
 9319W        W81645   6.356  28.980  14.056
 9320W        W81646   0.441  27.549   0.979
 9321W        W81647  40.921  41.348  14.000
 9322W        W81648  35.394  35.498   3.185
 9323W        W81649  43.649  20.410  13.919
 9324W        W81650  19.710  26.230  14.793
 9325W        W81651  23.516  27.965   0.306
 9326W        W81652  21.792  19.884  13.690
 9327W        W81653  11.257   5.765   0.951
 9328W        W81654  42.790   1.430  11.171
 9329W        W81655  27.211  12.655   2.839
 9330W        W81656   3.858  16.807   1.418
 9331W        W81657  41.023   3.025   1.399
 9332W        W81658  20.626   3.578   4.898
 9333W        W81659  35.888  42.801   1.024
 9334W        W81660  25.173  41.779   2.865
 9335W        W81661   2.757  29.652  14.931
 9336W        W81662  30.363  43.847   2.806
 9337W        W81663  11.327  43.879  13.117
 9338W        W81664  43.721  18.325  10.734
 9339W        W81665  18.216  28.147   4.721
 9340W        W81666  31.949  32.565  14.712
 9341W        W81667  10.841   6.148  13.762
 9342W        W81668  30.107  24.719  13.414
 9343W        W81669  10.413  10.150   0.054
 9344W        W81670  31.657   2.004   0.966
 9345W        W81671   6.406  33.395  12.951
 9346W        W81672   7.912   2.314  10.564
 9347W        W81673  11.697  22.757   1.803
 9348W        W81674   9.113   8.771   3.174
 9349W        W81675  43.044   5.414  13.945
 9350W        W81676  43.282  38.358   1.984
 9351W        W81677  15.750  37.289  13.462
 9352W        W81678  20.090   6.858  11.594
 9353W        W81679  33.047  23.940  12.465
 9354W        W81680   8.135  41.084   2.621
 9355W        W81681  31.639  16.222  13.285
 9356W        W81682  42.362  40.416  12.324
 9357W        W81683  20.879  20.699   3.792
 9358W        W81684  18.562  37.712   1.557
 9359W        W81685  37.131   4.223  11.992
 9360W        W81686  25.273  27.156   3.289
 9361W        W81687  13.306   4.448   4.361
 9362W        W81688  18.175   0.407  13.688
 9363W        W81689  19.166   8.653   0.789
 9364W        W81690  29.034  37.045  13.519
 9365W        W81691  19.311  20.371  11.840
 9366W        W81692  30.181   9.366   1.715
 9367W        W81693  27.494  15.006  11.129
 9368W        W81694  31.443  28.649  11.207
 9369W        W81695  27.604  40.424   4.541
 9370W        W81696  30.556  10.745  14.354
 9371W        W81697  23.056  38.010  12.145
 9372W        W81698   6.869  27.819   2.243
 9373W        W81699  25.220   1.977  11.130
 9374W        W81700   0.292  27.969  14.354
 9375W        W81701   0.481  36.041  14.499
 9376W        W81702  17.283  13.826   3.765
 9377W        W81703  40.499  38.171  13.888
 9378W        W81704  34.823   9.210  10.761
 9379W        W81705  13.641  14.401   0.787
 9380W        W81706  36.282  11.157   5.094
 9381W        W81707  27.062   6.793  10.401
 9382W        W81708  29.081  20.149   1.486
 9383W        W81709  17.604  18.053   0.003
 9384W        W81710  29.470  26.637   1.311
 9385W        W81711  34.031   7.851   3.647
 9386W        W81712  11.194   0.970   2.101
 9387W        W81713  34.972   1.866   4.946
 9388W        W81714  29.723  33.816   0.313
 9389W        W81715  33.076  43.875   1.166
 9390W        W81716  37.919  16.680  12.662
 9391W        W81717  23.013   6.197   0.875
 9392W        W81718  44.978   4.987   3.191
 9393W        W81719  16.224  21.180   4.334
 9394W        W81720  37.345  28.374  12.983
 9395W        W81721  13.622   0.033   3.177
 9396W        W81722  25.043  41.266   1.307
 9397W        W81723   4.990  23.993  13.017
 9398W        W81724  27.444  22.121   4.084
 9399W        W81725  29.131   9.924   4.524
 9400W        W81726  30.477  22.654  13.494
 9401W        W81727  41.939  24.066   3.614
 9402W        W81728   7.226  38.939  11.904
 9403W        W81729  33.653  26.210   0.661
 9404W        W81730  37.560  38.309   1.915
 9405W        W81731  14.715  34.793   0.198
 9406W        W81732   0.910   2.281   3.120
 9407W        W81733  23.790   1.307   2.789
 9408W        W81734   3.648  18.264  14.514
 9409W        W81735   3.412  40.270  14.677
 9410W        W81736  12.415  15.734   0.413
 9411W        W81737  42.755   8.242   2.380
 9412W        W81738  32.196  31.916  12.968
 9413W        W81739  31.746   0.056   4.631
 9414W        W81740   2.294  44.331   2.861
 9415W        W81741   4.687  17.029   2.408
 9416W        W81742  21.722  17.163   4.219
 9417W        W81743   0.843  42.300  12.477
 9418W        W81744  10.272  30.004   0.341
 9419W        W81745  21.152   3.274   2.690
 9420W        W81746  44.858   8.415  10.877
 9421W        W81747  39.813  31.141   1.678
 9422W        W81748  27.679  11.476   1.832
 9423W        W81749  30.506  20.047  13.531
 9424W        W81750  27.384  21.214  14.398
 9425W        W81751  10.841  11.399   2.664
 9426W        W81752  11.461  29.467   4.097
 9427W        W81753  10.953  44.896   2.833
 9428W        W81754  35.533   9.993   4.224
 9429W        W81755  20.370  35.869  13.430
 9430W        W81756  17.681  37.365   1.986
 9431W        W81757  11.033  39.504   2.220
 9432W        W81758  21.650  39.992   4.631
 9433W        W81759  25.957  35.003   1.292
 9434W        W81760  24.941   4.797   4.598
 9435W        W81761  25.100  33.213  12.057
 9436W        W81762  22.202   8.901   3.808
 9437W        W81763  12.268  43.600  12.019
 9438W        W81764  44.811   3.172   3.910
 9439W        W81765   1.877  10.864  13.471
 9440W        W81766   8.860  39.629  12.913
 9441W        W81767  42.320  12.900   0.839
 9442W        W81768  11.615  18.565   2.471
 9443W        W81769  44.160  26.942  12.011
 9444W        W81770  25.648  34.268   2.318
 9445W        W81771  32.642  23.553   3.683
 9446W        W81772  23.095  26.382  12.666
 9447W        W81773  33.067  10.667   0.491
 9448W        W81774  43.838  27.095   3.326
 9449W        W81775  34.417  42.021   1.888
 9450W        W81776  16.766   6.291  11.667
 9451W        W81777  25.780   7.985  11.607
 9452W        W81778  37.335  19.798   1.566
 9453W        W81779  10.377  28.101  11.955
 9454W        W81780  19.225  44.680   4.257
 9455W        W81781  26.536   2.931   1.938
 9456W        W81782  34.127  44.268  12.962
 9457W        W81783   3.153  39.389  12.264
 9458W        W81784  41.190  25.071   2.405
 9459W        W81785  41.611  40.326  14.774
 9460W        W81786   0.984  36.482   1.232
 9461W        W81787  31.025  40.194  11.103
 9462W        W81788  34.096  12.673  11.776
 9463W        W81789   7.920  17.764  14.411
 9464W        W81790  29.501   3.814  13.955
 9465W        W81791  11.251  32.503  11.694
 9466W        W81792   3.037  42.328  12.016
 9467W        W81793  32.453  14.223  13.909
 9468W        W81794  41.558   5.810   3.084
 9469W        W81795  21.068  27.440   2.680
 9470W        W81796  16.189  23.509   3.602
 9471W        W81797  18.040  33.913  11.583
 9472W        W81798  28.454  30.282   3.511
 9473W        W81799  35.631  31.093  14.872
 9474W        W81800  44.389   7.716  10.531
 9475W        W81801  37.599  44.396   4.248
 9476W        W81802  15.616   8.400   4.779
 9477W        W81803  34.899  22.288   3.859
 9478W        W81804  23.720  22.335   2.054
 9479W        W81805   3.373  43.251  11.659
 9480W        W81806   3.265  43.032  14.031
 9481W        W81807  11.456  14.099  12.004
 9482W        W81808  43.240  10.689  13.542
 9483W        W81809   2.932   7.732   4.600
 9484W        W81810  26.126  10.311   2.832
 9485W        W81811  38.859   5.286   0.421
 9486W        W81812  33.263  24.390  12.137
 9487W        W81813  22.524  17.966  10.492
 9488W        W81814  44.630  10.589   0.276
 9489W        W81815  38.081   7.617   4.913
 9490W        W81816  36.811  43.899   4.251
 9491W        W81817   3.490  11.321   3.671
 9492W        W81818  15.792  31.181   1.214
 9493W        W81819  37.629  43.504  11.636
 9494W        W81820  17.682  25.511   1.209
 9495W        W81821  30.922  35.325  14.370
 9496W        W81822  43.778  42.807  12.044
 9497W        W81823  22.510  14.787  13.612
 9498W        W81824  13.335  10.514  12.019
 9499W        W81825  38.818  21.568  14.786
 9500W        W81826   4.646  31.689  12.875
 9501W        W81827  24.330  31.102   2.372
 9502W        W81828   0.408  12.148   0.662
 9503W        W81829  26.408  19.050  12.047
 9504W        W81830  42.789  41.980  14.374
 9505W        W81831   6.659   6.163   0.888
 9506W        W81832  35.227  14.045   0.464
 9507W        W81833  22.967  36.936   5.047
 9508W        W81834  10.635  24.073   0.873
 9509W        W81835  23.860  44.365   0.457
 9510W        W81836  12.063  12.806   3.229
 9511W        W81837   2.032  23.298   0.481
 9512W        W81838  28.734  33.008   4.213
 9513W        W81839   0.437  16.808   1.806
 9514W        W81840  44.935  12.237  11.428
 9515W        W81841  11.159   3.645  13.303
 9516W        W81842   3.303   2.126  10.647
 9517W        W81843   2.900  17.619   1.246
 9518W        W81844   0.326  19.251   1.460
 9519W        W81845  12.658  43.954  11.971
 9520W        W81846   1.360  22.206  11.405
 9521W        W81847  25.946  29.177  13.866
 9522W        W81848  44.491  12.600   4.350
 9523W        W81849  13.894  14.958  11.169
 9524W        W81850  41.294   1.767  12.464
 9525W        W81851  28.115   1.275   0.932
 9526W        W81852   2.538  10.441   2.770
 9527W        W81853  37.641   9.318   0.263
 9528W        W81854   2.224  17.876  10.025
 9529W        W81855  43.012  38.123  12.105
 9530W        W81856   0.868  29.530   1.580
 9531W        W81857  28.623  18.728   3.893
 9532W        W81858   9.206  14.336  12.855
 9533W        W81859  28.016  41.600  11.581
 9534W        W81860  29.087  42.819  10.709
 9535W        W81861  41.836  21.907  14.770
 9536W        W81862   9.344   3.622   1.947
 9537W        W81863  13.137  31.836  10.327
 9538W        W81864  25.548   3.762  11.900
 9539W        W81865   7.653   8.899   1.265
 9540W        W81866  16.089  24.908   4.257
 9541W        W81867  31.060  10.375  11.529
 9542W        W81868  35.901  36.803   0.292
 9543W        W81869  23.764  26.700  12.024
 9544W        W81870  34.228  23.560   4.571
 9545W        W81871  36.796  26.552  12.980
 9546W        W81872   8.956  37.919   0.935
 9547W        W81873  15.173   0.370  13.961
 9548W        W81874   4.943  31.229   3.297
 9549W        W81875  38.397  21.181  10.795
 9550W        W81876  23.598  13.053   2.229
 9551W        W81877   9.918   1.582  12.458
 9552W        W81878  44.333  16.065  11.026
 9553W        W81879  29.647  14.050  11.187
 9554W        W81880   0.762  42.064  10.573
 9555W        W81881  16.023  13.668   4.137
 9556W        W81882  41.505  35.613  12.846
 9557W        W81883  26.512  26.704  11.362
 9558W        W81884  13.570   8.626   3.054
 9559W        W81885   9.815   0.253   1.192
 9560W        W81886  27.179   9.639   2.478
 9561W        W81887   4.685   0.794   4.633
 9562W        W81888  15.608  35.444  13.716
 9563W        W81889  13.074  37.438   4.700
 9564W        W81890  39.184  33.525   0.800
 9565W        W81891  22.080  29.660   4.664
 9566W        W81892  24.161  19.264  14.298
 9567W        W81893  27.478  15.749   4.567
 9568W        W81894  35.552  44.058   3.623
 9569W        W81895  14.563  23.163  13.942
 9570W        W81896  34.760  30.030  14.484
 9571W        W81897  31.520  33.213  12.648
 9572W        W81898   7.777  10.333   9.966
 9573W        W81899  20.968   9.753  11.593
 9574W        W81900  20.307  41.005   1.851
 9575W        W81901  11.066  27.965   1.317
 9576W        W81902  13.210  39.491  10.759
 9577W        W81903   9.425  15.760   1.443
 9578W        W81904  20.448  23.059   4.199
 9579W        W81905  25.239  19.252   3.186
 9580W        W81906  44.370  20.073   0.260
 9581W        W81907  27.262  38.171  11.510
 9582W        W81908   5.433  10.979  11.337
 9583W        W81909   9.318  44.115  13.876
 9584W        W81910  18.173   7.772   4.178
 9585W        W81911  41.698  20.556  10.626
 9586W        W81912  36.829  35.599   5.503
 9587W        W81913  10.404  21.749   3.255
 9588W        W81914  34.552   8.375  11.977
 9589W        W81915  38.467  34.126   0.474
 9590W        W81916  19.850  15.533   3.225
 9591W        W81917  32.368  10.202  11.121
 9592W        W81918  27.786  20.243   0.022
 9593W        W81919  31.399  18.203   1.907
 9594W        W81920   5.499   5.686  11.990
 9595W        W81921  39.117  35.667  11.305
 9596W        W81922  10.853   0.041  11.520
 9597W        W81923  41.836  32.893  11.627
 9598W        W81924  31.516   4.970   0.396
 9599W        W81925  41.751   6.639   9.861
 9600W        W81926  35.324  42.883   2.680
 9601W        W81927  32.809   0.823   1.545
 9602W        W81928  38.539  10.322  12.909
 9603W        W81929  43.508  30.654   1.323
 9604W        W81930  25.484  14.562   4.664
 9605W        W81931  18.032  36.466  11.624
 9606W        W81932  20.647  15.562  12.115
 9607W        W81933  42.904  27.330  12.102
 9608W        W81934  43.027  17.616   0.977
 9609W        W81935  28.391  26.943   0.411
 9610W        W81936  22.016  39.928  11.600
 9611W        W81937  19.716  41.007  14.945
 9612W        W81938  39.553  13.239  14.354
 9613W        W81939   0.374  40.414  10.648
 9614W        W81940  39.994   6.471   2.835
 9615W        W81941  40.561  44.122  10.534
 9616W        W81942  16.208  34.494   3.735
 9617W        W81943   8.336  28.715   0.069
 9618W        W81944  12.328  41.366  13.418
 9619W        W81945  19.464  18.580  14.077
 9620W        W81946  21.512  24.144   1.853
 9621W        W81947  11.284  44.775   0.743
 9622W        W81948   8.447  14.292  13.522
 9623W        W81949  22.196  27.615   1.635
 9624W        W81950  35.485  20.738   4.138
 9625W        W81951   3.581  35.926   2.151
 9626W        W81952  33.063  11.219   1.371
 9627W        W81953   6.288   6.333  14.415
 9628W        W81954   8.759  34.494  11.196
 9629W        W81955   6.456  17.465   1.469
 9630W        W81956  13.784  30.183   4.642
 9631W        W81957  33.148  17.218   1.348
 9632W        W81958  41.111   0.433   0.360
 9633W        W81959   0.398  18.680  11.562
 9634W        W81960   5.026   3.579   4.532
 9635W        W81961  13.105  18.045   0.426
 9636W        W81962   9.397   8.968   2.799
 9637W        W81963   2.666  28.220   3.185
 9638W        W81964  18.603  31.460  14.068
 9639W        W81965   7.719  28.015   2.582
 9640W        W81966  34.999   7.650   4.193
 9641W        W81967  44.435  22.518  14.281
 9642W        W81968   7.464  22.115  12.506
 9643W        W81969   7.883   1.415  10.936
 9644W        W81970  16.213  31.705  10.601
 9645W        W81971  32.927  15.353  12.387
 9646W        W81972  37.663  23.223  13.581
 9647W        W81973   8.228   5.227  11.262
 9648W        W81974  37.029  42.857   4.209
 9649W        W81975  36.130  40.401  10.733
 9650W        W81976   7.984  44.810  12.159
 9651W        W81977  31.100  28.183  12.907
 9652W        W81978  11.150   3.700   2.798
 9653W        W81979   4.749  13.203   3.177
 9654W        W81980  34.528  39.827   1.279
 9655W        W81981   7.240  16.762   1.385
 9656W        W81982  36.778  23.774   0.526
 9657W        W81983  44.795  13.816   4.171
 9658W        W81984  37.069  23.144   3.688
 9659W        W81985  43.028  39.126   2.396
 9660W        W81986   4.651  20.177  14.839
 9661W        W81987   1.544  19.024   3.356
 9662W        W81988  41.877  21.099   1.412
 9663W        W81989  11.397  40.213  14.795
 9664W        W81990  24.745   3.567   4.120
 9665W        W81991  28.381  34.460   4.727
 9666W        W81992   8.907  38.899  14.755
 9667W        W81993   7.763  27.836  11.616
 9668W        W81994  15.387  27.695  13.777
 9669W        W81995  29.135   9.456   4.821
 9670W        W81996  23.806  44.490   2.215
 9671W        W81997  32.865   1.483  13.354
 9672W        W81998  40.550  31.403   0.452
 9673W        W81999  33.028  43.420   3.316
 9674W        W82000  35.505  29.127   4.685
 9675W        W82001  30.215  16.836   1.548
 9676W        W82002  19.293   5.257   4.897
 9677W        W82003  20.694  11.161   2.021
 9678W        W82004   5.794   5.234  14.276
 9679W        W82005  26.103  26.989   2.464
 9680W        W82006  40.143  23.124   0.502
 9681W        W82007  26.540  19.459  11.136
 9682W        W82008   8.182   1.481  12.501
 9683W        W82009   0.339  24.541  11.542
 9684W        W82010   9.665  31.975  12.442
 9685W        W82011  23.472  21.333   1.708
 9686W        W82012  31.476  10.682   3.753
 9687W        W82013  43.522  22.018   4.566
 9688W        W82014  19.215  30.022  12.321
 9689W        W82015  28.663  19.571   4.218
 9690W        W82016  17.038   4.187   2.514
 9691W        W82017  18.492  19.204  12.551
 9692W        W82018   0.500  19.229  11.635
 9693W        W82019  19.724  13.858  14.469
 9694W        W82020  15.637  35.019   2.718
 9695W        W82021   6.608  31.443   3.912
 9696W        W82022  34.130  25.707  12.211
 9697W        W82023  35.590  14.376   1.783
 9698W        W82024  34.541  27.888  12.672
 9699W        W82025  36.896  11.029   1.162
 9700W        W82026   2.456  35.349  13.314
 9701W        W82027   0.569  21.693   2.354
 9702W        W82028  44.211  29.132   0.916
 9703W        W82029  21.085   6.484   2.683
 9704W        W82030  10.802  19.758  11.179
 9705W        W82031  11.664   3.399  11.536
 9706W        W82032  40.098  42.628  14.451
 9707W        W82033   3.871  30.128   1.797
 9708W        W82034  23.515  28.124   0.847
 9709W        W82035  35.572  14.094   2.851
 9710W        W82036   0.979   0.177   4.146
 9711W        W82037  15.628   9.866   4.367
 9712W        W82038  38.004  20.505  12.193
 9713W        W82039  33.000   4.882   3.136
 9714W        W82040  10.382  15.629   1.308
 9715W        W82041  28.879  44.871   0.342
 9716W        W82042  40.761  30.470   0.938
 9717W        W82043  12.129  42.337   2.136
 9718W        W82044  27.870  41.468  14.292
 9719W        W82045  21.848  32.433   0.878
 9720W        W82046  15.783  32.404   4.106
 9721W        W82047   8.159  33.064   1.511
 9722W        W82048   1.500  10.753   5.108
 9723W        W82049  30.066  25.624   0.423
 9724W        W82050  20.126  24.948  12.083
 9725W        W82051  44.010  17.619  10.440
 9726W        W82052  43.556  33.671   2.714
 9727W        W82053   6.887  20.744   3.302
 9728W        W82054  30.881  28.618   0.113
 9729W        W82055  29.889  24.534   2.407
 9730W        W82056  39.040  25.362  11.639
 9731W        W82057   5.288  32.559   4.756
 9732W        W82058  12.385   9.695   0.443
 9733W        W82059  11.791  34.429  11.105
 9734W        W82060  44.855  26.096   3.452
 9735W        W82061  29.611  37.850  11.997
 9736W        W82062  20.740  24.549   0.923
 9737W        W82063  27.572  28.115   9.868
 9738W        W82064   9.375  17.487   2.874
 9739W        W82065  10.281  15.534   3.155
 9740W        W82066   9.431  26.117   3.276
 9741W        W82067  10.050  39.626   1.852
 9742W        W82068   9.450  14.068  13.505
 9743W        W82069  38.089  39.280  12.139
 9744W        W82070   6.901  36.119  13.007
 9745W        W82071  20.846  42.974  14.818
 9746W        W82072  31.826  41.467   1.378
 9747W        W82073  37.532   1.476   2.595
 9748W        W82074  38.574   7.699   3.133
 9749W        W82075  22.691   8.697  10.144
 9750W        W82076   6.719  40.090  10.687
 9751W        W82077   9.062  33.947   1.065
 9752W        W82078  32.546   9.823   2.704
 9753W        W82079  17.138  13.828   1.979
 9754W        W82080  12.421   4.741   0.359
 9755W        W82081  10.303  26.699   0.321
 9756W        W82082  27.430   8.193  12.000
 9757W        W82083   4.912   6.539   2.830
 9758W        W82084   7.676  20.723  11.846
 9759W        W82085  14.616  19.886  14.575
 9760W        W82086  28.566  27.965  10.556
 9761W        W82087  12.190  25.923  10.181
 9762W        W82088  28.843  27.477   3.765
 9763W        W82089  11.814  39.966   0.553
 9764W        W82090   9.581   9.652   1.698
 9765W        W82091   4.366  17.526   1.384
 9766W        W82092  40.704  34.877  12.587
 9767W        W82093  23.515  35.845  11.643
 9768W        W82094  26.041  32.843   1.562
 9769W        W82095  27.457   5.433  12.346
 9770W        W82096  22.581  36.063   1.905
 9771W        W82097   5.347  30.446   1.155
 9772W        W82098  22.937  30.146  14.447
 9773W        W82099  44.924   3.704   0.962
 9774W        W82100  20.258  25.567  13.767
 9775W        W82101  10.414   6.289   0.890
 9776W        W82102  37.881  23.407  11.131
 9777W        W82103  11.593   1.891  11.568
 9778W        W82104  11.320  15.058   3.516
 9779W        W82105  44.941  40.242   1.854
 9780W        W82106  36.359  27.957  11.038
 9781W        W82107  44.831  23.828   0.811
 9782W        W82108  11.680  17.268   5.434
 9783W        W82109  25.521   1.383   0.824
 9784W        W82110  13.122  36.776  12.922
 9785W        W82111  43.011  30.789  12.132
 9786W        W82112   3.862  16.180  11.130
 9787W        W82113  28.457  39.997  12.070
 9788W        W82114  26.859  19.562  12.918
 9789W        W82115  13.359  15.293   0.791
 9790W        W82116  43.948  19.617   1.322
 9791W        W82117   7.213  23.511   0.033
 9792W        W82118  29.087   7.208  12.952
 9793W        W82119  40.106   0.321   1.328
 9794W        W82120  40.573  23.596  11.495
 9795W        W82121  34.058  24.691   3.422
 9796W        W82122  22.553   2.534  14.818
 9797W        W82123  37.565  17.768   1.432
 9798W        W82124  43.407  19.796   4.536
 9799W        W82125  36.956  27.031  13.541
 9800W        W82126  26.230  11.600   0.410
 9801W        W82127  17.641  14.573  10.593
 9802W        W82128  20.866  21.898  13.798
 9803W        W82129   5.831  24.202   2.343
 9804W        W82130   2.291  34.397   0.331
 9805W        W82131  24.536  15.535   2.638
 9806W        W82132  39.414  31.447   4.410
 9807W        W82133  16.146  18.061   2.098
 9808W        W82134  12.840   6.350   1.935
 9809W        W82135  20.015  21.780   0.578
 9810W        W82136   8.760  11.759  13.050
 9811W        W82137   1.870   4.862  10.288
 9812W        W82138   5.732  23.205   0.478
 9813W        W82139  30.901  35.533  12.945
 9814W        W82140  19.312  44.799   0.815
 9815W        W82141  25.196  15.279  13.907
 9816W        W82142  12.638  24.734   3.259
 9817W        W82143  20.296  17.086  14.078
 9818W        W82144  25.526  40.502   1.495
 9819W        W82145  40.776  27.429  11.484
 9820W        W82146   6.125  38.296   1.462
 9821W        W82147  25.629  19.774   5.015
 9822W        W82148  32.093  10.237  12.955
 9823W        W82149  37.919  40.868   2.251
 9824W        W82150  42.566  13.582   1.740
 9825W        W82151  34.695  12.556   1.781
 9826W        W82152  26.107  29.637  13.689
 9827W        W82153  25.267  27.680  14.909
 9828W        W82154  37.017  43.838  12.932
 9829W        W82155   0.333  18.974  10.444
 9830W        W82156   4.269   6.961  12.846
 9831W        W82157  35.228  17.076   0.347
 9832W        W82158  19.828  14.716   1.046
 9833W        W82159  17.609  41.718   1.926
 9834W        W82160   8.578  19.367  12.131
 9835W        W82161  19.017  19.672  14.931
 9836W        W82162  27.685  40.564  14.127
 9837W        W82163   1.918   0.789  12.263
 9838W        W82164  13.316   2.990  13.970
 9839W        W82165  22.723  31.874  12.519
 9840W        W82166   6.900  36.845  12.203
 9841W        W82167   3.878  30.354   3.680
 9842W        W82168  21.327  22.069  11.773
 9843W        W82169  36.782  14.065   1.433
 9844W        W82170   0.707  12.939  11.486
 9845W        W82171  25.571  35.373  14.383
 9846W        W82172  28.175  37.979   1.743
 9847W        W82173  14.593   1.309  13.881
 9848W        W82174  23.204  24.861  12.611
 9849W        W82175  43.265  15.467  13.283
 9850W        W82176  26.689  28.135  11.132
 9851W        W82177   3.538   1.061  14.868
 9852W        W82178  35.885  34.765  13.595
 9853W        W82179  35.619  36.457  11.063
 9854W        W82180   2.703  12.569   2.811
 9855W        W82181  17.273  27.035   0.842
 9856W        W82182  26.394  25.010  10.935
 9857W        W82183  13.662  13.873  12.047
 9858W        W82184  30.903  41.309  12.911
 9859W        W82185   2.392  19.774  14.210
 9860W        W82186  38.502  20.913   3.420
 9861W        W82187  22.810   0.727  10.276
 9862W        W82188  19.466  35.099  13.020
 9863W        W82189  39.233  37.058  10.399
 9864W        W82190  44.957  26.499   2.175
 9865W        W82191  26.038  16.860   4.683
 9866W        W82192  33.767  28.267  10.291
 9867W        W82193   3.447   7.748  11.592
 9868W        W82194  19.842  25.669   3.218
 9869W        W82195  32.980  25.379   2.991
 9870W        W82196  13.251  27.641  14.941
 9871W        W82197   5.341  19.332  14.176
 9872W        W82198  11.317  20.987   4.520
 9873W        W82199  13.784  44.509   2.327
 9874W        W82200   5.695  35.074  11.869
 9875W        W82201  27.748  26.021  13.803
 9876W        W82202  12.140  15.811   3.661
 9877W        W82203  44.951  38.575   2.590
 9878W        W82204  22.140  37.185  13.562
 9879W        W82205  24.950  18.792   2.342
 9880W        W82206  32.483  39.535  14.946
 9881W        W82207  38.316  21.624  13.348
 9882W        W82208   2.046  38.802   1.354
 9883W        W82209  25.238  16.005   1.941
 9884W        W82210   2.495  20.064   2.375
 9885W        W82211  12.581  16.787  13.854
 9886W        W82212  37.542  25.002   0.558
 9887W        W82213  19.529  28.074  10.538
 9888W        W82214  20.706   5.203   0.644
 9889W        W82215   4.899  16.611  12.076
 9890W        W82216  15.556  16.078  10.437
 9891W        W82217  37.964  27.812   4.382
 9892W        W82218  40.901  36.128   1.775
 9893W        W82219  35.567   7.265  13.362
 9894W        W82220  32.099  35.513   4.823
 9895W        W82221  23.223  40.590   4.524
 9896W        W82222  31.428  17.255   1.663
 9897W        W82223  27.132  14.425  12.498
 9898W        W82224  34.326  11.139   1.752
 9899W        W82225  30.882  22.173   1.334
 9900W        W82226   9.682  17.093  14.348
 9901W        W82227  21.785  20.790   3.548
 9902W        W82228   5.848  37.953   3.719
 9903W        W82229   7.654  41.980   1.472
 9904W        W82230   4.678  39.958   1.674
 9905W        W82231   8.492  36.200   4.212
 9906W        W82232  43.667  21.676   0.096
 9907W        W82233   3.020  27.558   1.405
 9908W        W82234   7.163  39.813  11.397
 9909W        W82235   0.332  39.958   1.492
 9910W        W82236  15.725   1.181   2.115
 9911W        W82237  44.999  43.774   0.893
 9912W        W82238  17.431  25.346  11.582
 9913W        W82239   0.494  10.229  12.977
 9914W        W82240  20.366   1.261  12.406
 9915W        W82241  19.025   9.301  14.520
 9916W        W82242  10.892  22.993  10.802
 9917W        W82243  22.025   7.298   4.143
 9918W        W82244  29.469  26.979   0.749
 9919W        W82245  18.161  36.468  13.155
 9920W        W82246  14.083  11.858  14.377
 9921W        W82247   7.247  24.494   0.901
 9922W        W82248  24.696   5.573  12.675
 9923W        W82249  32.032  29.726   0.859
 9924W        W82250  35.400   4.268   1.386
 9925W        W82251  29.524   3.793   1.303
 9926W        W82252  22.949  10.703   0.518
 9927W        W82253   1.938   7.813  13.844
 9928W        W82254  14.688  25.249  11.503
 9929W        W82255   2.931  39.195  12.730
 9930W        W82256   6.699   8.385   2.338
 9931W        W82257  10.821   9.335  11.667
 9932W        W82258  20.221  16.332   3.668
 9933W        W82259  32.458  15.564  12.531
 9934W        W82260   3.447  14.660  14.831
 9935W        W82261  20.664   2.349   4.009
 9936W        W82262  40.067  29.690   1.229
 9937W        W82263  17.604  36.234  11.417
 9938W        W82264  19.826   0.085  10.697
 9939W        W82265  37.847  27.488   2.730
 9940W        W82266   6.276   5.850   4.315
 9941W        W82267  26.539  34.005  12.092
 9942W        W82268  30.376  22.235   1.381
 9943W        W82269  40.796  11.289   0.166
 9944W        W82270   4.293   7.652   0.215
 9945W        W82271  10.880  11.035  10.909
 9946W        W82272  15.792  39.792  10.616
 9947W        W82273  27.213   7.890   0.891
 9948W        W82274  17.486  22.106   4.203
 9949W        W82275  20.079   2.724   4.603
 9950W        W82276  37.013  14.193  11.288
 9951W        W82277  33.944  36.439   1.676
 9952W        W82278  42.483  42.413  14.376
 9953W        W82279   0.338  19.141  14.348
 9954W        W82280  32.380  26.855   3.787
 9955W        W82281  36.764  23.571   3.759
 9956W        W82282  14.784  14.772  12.898
 9957W        W82283   7.455  36.672  14.680
 9958W        W82284  24.049  10.546  10.709
 9959W        W82285  28.020  43.441   2.569
 9960W        W82286   7.743  26.151  11.443
 9961W        W82287  44.912   7.305   3.742
 9962W        W82288  11.547  35.655   4.383
 9963W        W82289  39.583  21.539  11.929
 9964W        W82290  20.235  37.588  13.270
 9965W        W82291   7.880   2.650  14.317
 9966W        W82292  41.413  44.513  14.374
 9967W        W82293  26.505  37.453   0.842
 9968W        W82294  15.133   9.916   0.778
 9969W        W82295  19.410  15.222   0.467
 9970W        W82296  15.572  28.605  14.477
 9971W        W82297   4.331  23.204   3.343
 9972W        W82298  19.377  31.026  14.926
 9973W        W82299  38.063  22.040   4.594
 9974W        W82300  34.458   7.734  11.436
 9975W        W82301  17.149  23.803  11.977
 9976W        W82302  39.985  43.398   2.657
 9977W        W82303  23.667  24.627  12.667
 9978W        W82304  21.043  35.385   3.636
 9979W        W82305  10.699  39.963  11.885
 9980W        W82306  30.365   4.835  13.354
 9981W        W82307  13.596  22.105  12.828
 9982W        W82308  24.964  14.674   4.561
 9983W        W82309  11.392   8.310   1.362
 9984W        W82310  41.735  25.665  14.063
 9985W        W82311  22.549  26.050   2.370
 9986W        W82312  16.673  38.959  14.453
 9987W        W82313   3.903  27.441  14.878
 9988W        W82314  29.652  30.884   3.788
 9989W        W82315  14.595  30.359  12.032
 9990W        W82316   3.408  16.565  14.520
 9991W        W82317  18.578  44.701   1.650
 9992W        W82318  14.758   8.713  12.471
 9993W        W82319  29.407  24.214  11.126
 9994W        W82320  39.075  20.217  12.867
 9995W        W82321  39.383  38.785   1.898
 9996W        W82322  37.234  44.884  12.902
 9997W        W82323  32.351  26.046  12.751
 9998W        W82324  27.654  41.489   4.496
 9999W        W82325  44.736  44.246  11.604
10000W        W82326  18.162  28.142   2.864
10001W        W82327  13.949   8.886   2.812
10002W        W82328  14.408  30.985  11.180
10003W        W82329   4.027   3.685  13.135
10004W        W82330   0.794  25.910   1.896
10005W        W82331  12.285   0.980  10.639
10006W        W82332  29.542  25.014  13.972
10007W        W82333  11.966  20.723  13.477
10008W        W82334  14.125  26.594   5.650
10009W        W82335  40.422   2.163  14.035
10010W        W82336  28.576  44.863   3.582
10011W        W82337   7.456  21.484   0.823
10012W        W82338  10.270  40.060  13.152
10013W        W82339  10.179   3.413   0.937
10014W        W82340   4.425  24.527  11.649
10015W        W82341   8.410   9.376   1.592
10016W        W82342  30.721  29.469   5.043
10017W        W82343  13.118  38.774  11.258
10018W        W82344  27.089  16.655   4.007
10019W        W82345  24.587  11.165  13.069
10020W        W82346  24.133   8.194   3.145
10021W        W82347  32.873  38.489  14.369
10022W        W82348  12.841   9.474   1.315
10023W        W82349  28.503  40.836   2.254
10024W        W82350  18.314   5.893   4.618
10025W        W82351  26.104  38.089  12.499
10026W        W82352   8.830  24.674   1.919
10027W        W82353   8.546   8.702   4.620
10028W        W82354  19.198  12.257   0.222
10029W        W82355  35.929  20.064   4.600
10030W        W82356  23.738  31.566  13.097
10031W        W82357  35.566  18.284  11.957
10032W        W82358   5.300  31.015   0.308
10033W        W82359  13.418  35.302  13.743
10034W        W82360   0.242  25.706   2.776
10035W        W82361  37.643  16.110  12.057
10036W        W82362  44.283  25.492  14.880
10037W        W82363  14.722   1.999   0.455
10038W        W82364  16.706  42.412  10.764
10039W        W82365  30.385  12.254   2.394
10040W        W82366  22.117  12.338  11.105
10041W        W82367   1.323   4.906  11.957
10042W        W82368  24.387  39.101   1.854
10043W        W82369   8.415   8.394  12.533
10044W        W82370  34.553  28.735  14.847
10045W        W82371  29.955  38.289  12.016
10046W        W82372  36.675  41.529   3.757
10047W        W82373  17.354  42.953  13.773
10048W        W82374  29.333  37.654  11.616
10049W        W82375  13.285  25.181   2.377
10050W        W82376   5.899   1.425  14.362
10051W        W82377  12.993  40.555  12.906
10052W        W82378  43.317  44.234   4.169
10053W        W82379  19.015  17.197   3.267
10054W        W82380  24.667  19.073  12.387
10055W        W82381  18.320  42.853  14.376
10056W        W82382   2.923  28.089   1.821
10057W        W82383  24.066   6.033  13.841
10058W        W82384   7.843   7.848  12.104
10059W        W82385  34.940  12.794   1.384
10060W        W82386  43.091  10.085   0.159
10061W        W82387  41.565  13.169   2.669
10062W        W82388  38.702  29.201  10.944
10063W        W82389  25.161  38.566   4.860
10064W        W82390  19.276  11.246   1.924
10065W        W82391  16.235   6.895  13.543
10066W        W82392   5.018  25.021  12.156
10067W        W82393  43.003  29.545   0.779
10068W        W82394   4.761  17.446   4.097
10069W        W82395   1.390   6.481   0.995
10070W        W82396  33.139  25.144   1.478
10071W        W82397  35.365  15.656  14.722
10072W        W82398  26.600  26.700  10.858
10073W        W82399   1.449  40.343  10.577
10074W        W82400  21.249  42.504  12.211
10075W        W82401   7.304  11.780   1.184
10076W        W82402  20.284  36.440   1.490
10077W        W82403  35.118  35.037   3.251
10078W        W82404  31.243  36.538  14.080
10079W        W82405  38.145  31.445  12.693
10080W        W82406  18.677  42.284  13.987
10081W        W82407  11.330  29.074   4.468
10082W        W82408   4.171  32.981  13.859
10083W        W82409   0.769  26.919   3.167
10084W        W82410   3.865  39.942   2.243
10085W        W82411  39.945  41.977  13.632
10086W        W82412  24.225  17.023  13.439
10087W        W82413  19.539  18.851  14.840
10088W        W82414  15.038   8.196  12.924
10089W        W82415  31.400  26.067   1.828
10090W        W82416  31.892  31.589   2.142
10091W        W82417  11.182  41.051  14.515
10092W        W82418   7.361  42.989   2.391
10093W        W82419  10.442   4.320  14.760
10094W        W82420  38.080   7.720  11.694
10095W        W82421  17.320  12.748   0.907
10096W        W82422  20.551  27.995  11.506
10097W        W82423  20.564  29.440  14.546
10098W        W82424   2.619  23.437   1.330
10099W        W82425  34.059  24.687   4.852
10100W        W82426  19.920  36.512   4.626
10101W        W82427  16.273  18.586   3.301
10102W        W82428   3.921  27.996   0.717
10103W        W82429   0.796   0.617  14.536
10104W        W82430  22.547  12.786   9.832
10105W        W82431  43.439  14.584   1.311
10106W        W82432  19.584  21.719  12.003
10107W        W82433  26.595  39.595  11.374
10108W        W82434  24.981   5.366  13.070
10109W        W82435   6.270  30.629  12.383
10110W        W82436  20.051   0.766  13.007
10111W        W82437   5.015   1.415   2.629
10112W        W82438  34.786   6.398  14.503
10113W        W82439  41.965   8.707   3.804
10114W        W82440  33.027  22.744   4.679
10115W        W82441  39.809   7.984   2.720
10116W        W82442   6.131  37.568  11.927
10117W        W82443  41.214  29.507   4.944
10118W        W82444  33.441  37.597   3.707
10119W        W82445  13.944  35.554   0.788
10120W        W82446  20.345  18.620  14.273
10121W        W82447  37.126  27.607  14.253
10122W        W82448  30.438  18.752   2.628
10123W        W82449  27.617  10.231  11.818
10124W        W82450  10.209  34.739   5.034
10125W        W82451   4.978  37.323  13.002
10126W        W82452  32.226  13.329  10.725
10127W        W82453  34.120  41.939   2.331
10128W        W82454   2.398  28.159   4.633
10129W        W82455   1.310  25.013  14.022
10130W        W82456  22.983  15.761   3.636
10131W        W82457  24.168  33.191  11.964
10132W        W82458  41.419   9.165   3.372
10133W        W82459  26.578  21.122  11.388
10134W        W82460   0.112   7.252   4.210
10135W        W82461  26.596  15.761  13.335
10136W        W82462  37.261  29.658   2.365
10137W        W82463  26.048   2.916   4.542
10138W        W82464  23.700  35.381   1.695
10139W        W82465  38.534  37.055   2.489
10140W        W82466   9.988  32.916  10.610
10141W        W82467  20.758  40.043   2.109
10142W        W82468  14.137  41.709  11.577
10143W        W82469  15.932  42.878  14.285
10144W        W82470   8.582  34.485   2.260
10145W        W82471  30.292  41.426   4.424
10146W        W82472  11.105  21.601  13.378
10147W        W82473  25.560  12.172   1.895
10148W        W82474  14.756   3.642  13.392
10149W        W82475   9.804  35.492  11.868
10150W        W82476  44.198  38.501   0.370
10151W        W82477  23.256  27.611  10.393
10152W        W82478   3.724   2.824  14.926
10153W        W82479  25.634  39.753   1.921
10154W        W82480  26.990  28.331   3.728
10155W        W82481  10.285  32.333  11.007
10156W        W82482  39.787  25.196   1.956
10157W        W82483  23.211   4.464   3.095
10158W        W82484  39.549  10.607   4.091
10159W        W82485  29.522  17.218  12.067
10160W        W82486  17.634  34.538  13.888
10161W        W82487  16.231  30.587   4.386
10162W        W82488   9.558  41.464   2.830
10163W        W82489   3.021  33.152  11.735
10164W        W82490  26.033  12.220  13.207
10165W        W82491  29.571  30.804   2.439
10166W        W82492   2.230  14.146   0.885
10167W        W82493  36.379  33.157  14.218
10168W        W82494  44.560  43.311   4.722
10169W        W82495   0.013  22.010  12.807
10170W        W82496  12.651  27.931   2.090
10171W        W82497   5.777  41.247   3.607
10172W        W82498  34.090  30.166   1.704
10173W        W82499  21.822  28.456   4.027
10174W        W82500  38.489  40.588   1.233
10175W        W82501  31.190   9.791  14.054
10176W        W82502  28.182  12.669  13.414
10177W        W82503  24.488  43.077   4.800
10178W        W82504  19.217  41.466   4.424
10179W        W82505  16.179  20.060  12.060
10180W        W82506  13.079  35.502  13.410
10181W        W82507   8.841  39.974  10.758
10182W        W82508  33.939  31.147   3.131
10183W        W82509  38.461   9.507   0.977
10184W        W82510   9.739  34.091  11.939
10185W        W82511  27.867  35.733   2.738
10186W        W82512   4.723  12.358   1.491
10187W        W82513  25.658   5.060   4.201
10188W        W82514  18.049  23.661  11.986
10189W        W82515  17.343  39.531   2.962
10190W        W82516  16.778   0.194   4.493
10191W        W82517   6.716  29.356  12.547
10192W        W82518  23.719  12.332   1.640
10193W        W82519  41.425   4.428  12.153
10194W        W82520   5.160  41.771  12.576
10195W        W82521  42.286  11.880   3.683
10196W        W82522  44.268  17.781  13.470
10197W        W82523  32.515  22.217  11.743
10198W        W82524  30.263  18.688  10.484
10199W        W82525  16.143  39.871  12.934
10200W        W82526  40.030  17.336   0.206
10201W        W82527  41.181  11.903  12.557
10202W        W82528  34.850  13.675   0.373
10203W        W82529  44.302  13.601   2.779
10204W        W82530   9.996  26.742   4.408
10205W        W82531  23.688  34.677   3.576
10206W        W82532  36.083  31.658   1.903
10207W        W82533  20.833  21.232   2.769
10208W        W82534  29.445  38.000   3.111
10209W        W82535  42.323  18.421  11.657
10210W        W82536  29.384  36.381  10.984
10211W        W82537  32.403  20.021  12.648
10212W        W82538  41.783   5.879  13.844
10213W        W82539  28.574  36.435  14.021
10214W        W82540  12.350  16.737  13.383
10215W        W82541   6.860  16.178   4.362
10216W        W82542  28.346  34.934   2.374
10217W        W82543   1.500  24.024   1.759
10218W        W82544  10.724  26.684  12.391
10219W        W82545  19.226  14.762  14.113
10220W        W82546   4.283  17.311   2.703
10221W        W82547  16.795  35.794   3.374
10222W        W82548  39.470  37.780  10.149
10223W        W82549  16.138   8.807   0.958
10224W        W82550  44.022  44.258  13.434
10225W        W82551   0.842  30.170   0.293
10226W        W82552  36.509  32.424   2.414
10227W        W82553  16.830   3.751   0.322
10228W        W82554  18.077  33.679  13.007
10229W        W82555  30.244  25.353  12.338
10230W        W82556  18.579   3.771   4.486
10231W        W82557  14.330   6.796   3.418
10232W        W82558  38.590   1.294   5.050
10233W        W82559  29.178  12.730   4.675
10234W        W82560  29.693  21.958   0.826
10235W        W82561  38.617   6.514  13.257
10236W        W82562  17.973  44.877  11.206
10237W        W82563   7.297   3.289   2.462
10238W        W82564  25.152  43.960   3.346
10239W        W82565  26.154  23.038  11.933
10240W        W82566  42.767  10.623   2.764
10241W        W82567   7.932  32.507   3.606
10242W        W82568  39.793   8.473   2.918
10243W        W82569  43.265  25.608  12.805
10244W        W82570  32.974  23.421  11.132
10245W        W82571  36.653   6.226  10.812
10246W        W82572  25.074   0.351  11.618
10247W        W82573  26.475  20.017   2.656
10248W        W82574  12.807  21.369  10.209
10249W        W82575  34.474  10.325  12.543
10250W        W82576  26.635  34.219  12.632
10251W        W82577   9.330   0.559  13.930
10252W        W82578   6.317  32.901  13.117
10253W        W82579   7.328  13.826  11.166
10254W        W82580  36.930  14.709  11.969
10255W        W82581   9.277  23.192   1.781
10256W        W82582  15.089  19.707   4.759
10257W        W82583  14.804   0.407   3.332
10258W        W82584  13.704  20.250  10.726
10259W        W82585  10.868  18.360  12.425
10260W        W82586  21.707   4.834   1.746
10261W        W82587  20.993   3.911  14.278
10262W        W82588  13.171  43.624  14.460
10263W        W82589   5.333  24.056   2.202
10264W        W82590  27.358  42.422   0.003
10265W        W82591  22.988  35.290   0.535
10266W        W82592   1.931  28.346   2.263
10267W        W82593  16.353  21.776   1.291
10268W        W82594  40.326  24.684   4.386
10269W        W82595   5.716  18.961   1.851
10270W        W82596  24.995   7.904   0.852
10271W        W82597  21.043  35.591  14.446
10272W        W82598  10.336  37.475   3.771
10273W        W82599  11.096   3.912   0.950
10274W        W82600  18.371  19.322  13.377
10275W        W82601  44.039   4.968  14.604
10276W        W82602   1.757  32.208  11.954
10277W        W82603  30.528   7.874   2.722
10278W        W82604  26.922   2.282  10.618
10279W        W82605  23.087  12.238  14.285
10280W        W82606  29.518   6.970  14.301
10281W        W82607  44.154  36.482  12.703
10282W        W82608  41.412  42.381   1.171
10283W        W82609  15.261  28.616  14.017
10284W        W82610  14.147  19.847  13.112
10285W        W82611  12.414  14.162   1.318
10286W        W82612  26.692  17.228  13.908
10287W        W82613  17.115  33.950   1.401
10288W        W82614  26.222  37.834   2.675
10289W        W82615  23.542   0.308  12.562
10290W        W82616  30.738  11.305  12.477
10291W        W82617  18.112  29.450  14.921
10292W        W82618   7.617   5.313   0.431
10293W        W82619  10.703  30.103   4.056
10294W        W82620  23.790   6.909   0.453
10295W        W82621   4.583  41.502  13.349
10296W        W82622  17.578   0.264  11.195
10297W        W82623   9.797  43.475   0.901
10298W        W82624  19.727  37.552  12.704
10299W        W82625  31.039   0.978   0.258
10300W        W82626   1.905  33.842  13.081
10301W        W82627  10.131   5.460  12.850
10302W        W82628  38.526  22.760  14.890
10303W        W82629  23.199  25.370  12.622
10304W        W82630  11.841  18.251  11.455
10305W        W82631  14.163  41.489  12.993
10306W        W82632  32.895  28.041  12.539
10307W        W82633  23.606  31.045   3.768
10308W        W82634  19.908  31.058   1.630
10309W        W82635   6.075  36.361   4.193
10310W        W82636  44.975  20.716  12.368
10311W        W82637  42.875   9.870  13.083
10312W        W82638  37.625   2.802  14.976
10313W        W82639  36.009  39.110   0.701
10314W        W82640   9.927  18.999   3.709
10315W        W82641   2.442  37.313   1.962
10316W        W82642  41.868   3.390  11.249
10317W        W82643  23.754  23.065  11.894
10318W        W82644  27.536  40.953   4.507
10319W        W82645  43.279  12.725   3.660
10320W        W82646   3.758  16.180   3.617
10321W        W82647   3.832  26.999   3.690
10322W        W82648  12.343  24.974   5.123
10323W        W82649  35.944   7.408   4.675
10324W        W82650  42.826  38.627  12.121
10325W        W82651  36.743  10.152  12.366
10326W        W82652   2.282  31.841  13.011
10327W        W82653  14.068  24.616   5.413
10328W        W82654  31.131  22.270  14.287
10329W        W82655  44.383  15.545   1.241
10330W        W82656  37.930  10.312   3.942
10331W        W82657   5.194  17.354  11.488
10332W        W82658   9.247  40.544   0.876
10333W        W82659  36.957  43.026   2.289
10334W        W82660   8.996  12.820   1.727
10335W        W82661  30.434   3.144   4.926
10336W        W82662  17.187  22.921  13.809
10337W        W82663  29.969   7.560   5.148
10338W        W82664  30.521  24.852  13.142
10339W        W82665  13.605  29.915  10.632
10340W        W82666  17.048  36.186  10.781
10341W        W82667  20.494   6.275  12.593
10342W        W82668   2.338  29.935  11.665
10343W        W82669  11.643  11.695  14.706
10344W        W82670  33.506  23.104   2.795
10345W        W82671  26.792  35.676  10.184
10346W        W82672  26.238  33.587   1.141
10347W        W82673   0.575  32.570   4.779
10348W        W82674   5.775  31.936   2.338
10349W        W82675  10.271  41.462  10.202
10350W        W82676  42.090   5.016   2.288
10351W        W82677  34.509  18.050  10.936
10352W        W82678   2.473  16.330   0.458
10353W        W82679  12.429  26.080   3.180
10354W        W82680  23.739  11.391  11.244
10355W        W82681   5.869  32.379  13.441
10356W        W82682  33.845  38.934   2.693
10357W        W82683   3.370   0.288   0.845
10358W        W82684  27.505   0.817   1.997
10359W        W82685  24.179  44.952  12.093
10360W        W82686  38.108  32.377  10.585
10361W        W82687  44.460  15.061  13.187
10362W        W82688  19.001  31.136   3.210
10363W        W82689   1.295  20.685   3.792
10364W        W82690  41.966   6.465  13.013
10365W        W82691  41.623  25.164   4.561
10366W        W82692  24.770  22.964   3.666
10367W        W82693  36.145  36.072  14.888
10368W        W82694  22.013   2.170   3.230
10369W        W82695   3.774   8.971   4.637
10370W        W82696  18.221  35.107  12.529
10371W        W82697  12.135   2.174  12.415
10372W        W82698  33.325  38.376  13.451
10373W        W82699  19.681   6.456  11.076
10374W        W82700  19.180  20.304   0.809
10375W        W82701  25.377  11.089  12.884
10376W        W82702  12.267   2.026  11.201
10377W        W82703   1.452  15.031  13.787
10378W        W82704  21.717  37.521   1.298
10379W        W82705  15.569  26.520   1.277
10380W        W82706  26.758  35.044   4.272
10381W        W82707   7.305   6.426  12.865
10382W        W82708  23.085  33.451   4.503
10383W        W82709  22.696  15.807   5.434
10384W        W82710  27.496  42.866  10.320
10385W        W82711  37.993  43.268   1.332
10386W        W82712  29.786  43.136   5.152
10387W        W82713  28.470  38.321  14.933
10388W        W82714  40.358  38.015  10.772
10389W        W82715  33.181  20.881  13.020
10390W        W82716  21.985  43.325  11.054
10391W        W82717  25.522  23.764   0.582
10392W        W82718  16.747  10.719  14.483
10393W        W82719  43.858   2.435  14.735
10394W        W82720  34.360   2.419   0.077
10395W        W82721  26.486  22.634  14.506
10396W        W82722  41.716  39.939  12.509
10397W        W82723   3.851  14.867   3.361
10398W        W82724  26.715  19.247   5.045
10399W        W82725  21.722  33.012   1.902
10400W        W82726  26.935  39.506  12.630
10401W        W82727  22.159  13.264  13.794
10402W        W82728  34.902  42.338   2.612
10403W        W82729  38.321   4.983  12.933
10404W        W82730  24.630  37.532   2.054
10405W        W82731  11.936  12.012  14.418
10406W        W82732   7.560   6.129   4.205
10407W        W82733  31.179  26.654  14.301
10408W        W82734  11.278  34.994   1.513
10409W        W82735   5.684   1.310  13.347
10410W        W82736  27.411  36.944   1.425
10411W        W82737  25.163  21.402  14.929
10412W        W82738  21.582  27.708  12.068
10413W        W82739  36.490  39.973   4.477
10414W        W82740  17.225  11.323  14.061
10415W        W82741  38.903   0.651   4.470
10416W        W82742  18.532  35.659   1.204
10417W        W82743  29.130   0.981  10.418
10418W        W82744  12.778  17.137   2.343
10419W        W82745  28.631   8.191   1.590
10420W        W82746  22.622  35.875   5.049
10421W        W82747  38.893  21.199   3.039
10422W        W82748  34.521   4.647  14.990
10423W        W82749  28.433  39.727  13.461
10424W        W82750  25.075  39.911   4.930
10425W        W82751   3.700  12.706   3.691
10426W        W82752  15.520  13.168   0.879
10427W        W82753  23.847  39.364   0.314
10428W        W82754   2.278  10.044   1.673
10429W        W82755   3.943  14.654   2.208
10430W        W82756  22.277  17.720  13.032
10431W        W82757  29.229  27.582  13.061
10432W        W82758  43.887  38.498   1.850
10433W        W82759   8.790  26.402   1.432
10434W        W82760  26.589   7.737  13.627
10435W        W82761   9.162  13.756   4.891
10436W        W82762  28.434  38.262  13.969
10437W        W82763  36.413  29.345  12.133
10438W        W82764  43.875  31.048   1.947
10439W        W82765  37.065  21.716   4.305
10440W        W82766   2.307  25.426   1.394
10441W        W82767  14.249  43.388   3.686
10442W        W82768   1.150  42.727  14.773
10443W        W82769  16.978  14.253   0.651
10444W        W82770  43.741   9.388   0.393
10445W        W82771  23.038   1.124  14.822
10446W        W82772  31.658   2.787  11.704
10447W        W82773  42.038  17.189   4.074
10448W        W82774  34.851  25.658   0.334
10449W        W82775  13.865   7.404   4.313
10450W        W82776  24.725   1.272   1.245
10451W        W82777  36.061  29.921   1.090
10452W        W82778  17.316  32.588   1.204
10453W        W82779  15.570  25.937  13.375
10454W        W82780   2.944   4.859  14.032
10455W        W82781  23.674  14.279  11.978
10456W        W82782  17.576  43.669  12.005
10457W        W82783  25.895  14.988  13.455
10458W        W82784  36.048  38.579   0.611
10459W        W82785   3.331  36.386   1.876
10460W        W82786   7.915  18.773   4.904
10461W        W82787   2.365  16.240  12.258
10462W        W82788  39.510  43.290  13.782
10463W        W82789   4.614  36.040  12.347
10464W        W82790  10.476  30.436   0.545
10465W        W82791   5.829  43.640   3.307
10466W        W82792  23.670  28.423   0.057
10467W        W82793  19.839   0.987   1.818
10468W        W82794  13.238   3.414   4.519
10469W        W82795  15.649  14.380   0.758
10470W        W82796   7.930  25.904   3.306
10471W        W82797  31.871  13.861   1.428
10472W        W82798  34.072  30.386   2.664
10473W        W82799   1.366  13.926   3.579
10474W        W82800  27.970  39.612   3.346
10475W        W82801   1.771  22.209   1.239
10476W        W82802  43.895  34.537   2.491
10477W        W82803  41.177  22.404  13.724
10478W        W82804  24.564   3.755   0.927
10479W        W82805  14.743  16.720  11.713
10480W        W82806  20.983  36.034  11.469
10481W        W82807  34.456  44.141  10.295
10482W        W82808   0.235  35.548   4.809
10483W        W82809  31.301  16.808   2.688
10484W        W82810   6.516  28.508   1.271
10485W        W82811  42.964   7.066  12.134
10486W        W82812  19.112  43.503   1.279
10487W        W82813  43.223  17.277   9.946
10488W        W82814  18.290  40.931  13.359
10489W        W82815  41.993   6.087   1.434
10490W        W82816  12.168  39.059   0.749
10491W        W82817  23.992  41.994  10.564
10492W        W82818  30.034  16.616  12.044
10493W        W82819   8.121  16.557   3.753
10494W        W82820   8.826  25.502  11.118
10495W        W82821  44.621  40.605  13.442
10496W        W82822  44.383   9.893   0.857
10497W        W82823  31.582   3.197   4.399
10498W        W82824  35.981  16.549   2.922
10499W        W82825  32.921  35.020  10.123
10500W        W82826  40.296  29.151   0.996
10501W        W82827  11.391  20.526   4.712
10502W        W82828  14.496  32.829  12.432
10503W        W82829  40.647  32.117  11.821
10504W        W82830  11.367  40.805   2.218
10505W        W82831  39.378  41.542  12.745
10506W        W82832   9.681  25.175  13.514
10507W        W82833  12.686  22.563  12.457
10508W        W82834  40.916  20.759   2.872
10509W        W82835  35.140  13.372  12.482
10510W        W82836  40.394   9.664   2.409
10511W        W82837  10.794  34.578   4.608
10512W        W82838  13.110  28.722   1.035
10513W        W82839   5.742  21.209   3.205
10514W        W82840  11.128  41.046  11.475
10515W        W82841  13.153  42.767  12.614
10516W        W82842  18.947  18.315  12.714
10517W        W82843  39.981   8.323   4.307
10518W        W82844  30.606  39.947   0.194
10519W        W82845  25.244  16.321   5.192
10520W        W82846   3.674  11.344  11.414
10521W        W82847  11.360  40.508   0.243
10522W        W82848  32.863   2.900  14.301
10523W        W82849  44.716   7.282   3.256
10524W        W82850  22.292  24.117  12.040
10525W        W82851   7.737  32.918  13.861
10526W        W82852   4.282  34.183   2.756
10527W        W82853   1.891  44.449  12.858
10528W        W82854  16.703  40.281   3.747
10529W        W82855  14.299  31.347   4.489
10530W        W82856   4.475  44.418  14.752
10531W        W82857   1.286   0.733   1.845
10532W        W82858   6.197  10.887  13.600
10533W        W82859  26.010   4.447  11.991
10534W        W82860  20.128   8.444  11.780
10535W        W82861  39.348   7.404   0.836
10536W        W82862  28.352   5.936  11.156
10537W        W82863  14.581  33.953   3.635
10538W        W82864  22.624  16.698  14.784
10539W        W82865  27.697   4.361  14.424
10540W        W82866   0.691  18.600   0.217
10541W        W82867  37.717  25.604  14.354
10542W        W82868   2.726  25.172   3.138
10543W        W82869  22.277  13.830   0.343
10544W        W82870  20.738   4.954  11.566
10545W        W82871  34.102  26.565  10.992
10546W        W82872  12.668  38.538  11.214
10547W        W82873  16.703  40.080  10.691
10548W        W82874  11.145  17.527  10.698
10549W        W82875   9.867  20.105   0.862
10550W        W82876   0.697  21.882  12.626
10551W        W82877  30.709   0.279   3.336
10552W        W82878  40.363  33.403  11.638
10553W        W82879  42.988   5.529  12.877
10554W        W82880   3.163  22.718   1.809
10555W        W82881  36.130   1.696   1.693
10556W        W82882  21.538  44.259  11.546
10557W        W82883  33.690  44.372   3.405
10558W        W82884  13.244   1.045   3.738
10559W        W82885  28.281  10.239  12.625
10560W        W82886  36.666  23.048   1.989
10561W        W82887  32.516  43.358   3.557
10562W        W82888  40.804  14.653  12.865
10563W        W82889   2.511  27.494   2.301
10564W        W82890  31.521  18.802   3.725
10565W        W82891  24.129  14.742  13.405
10566W        W82892  14.680  42.265  14.489
10567W        W82893  27.744   2.813  13.371
10568W        W82894  31.646  22.070   2.807
10569W        W82895   8.755  43.416  10.490
10570W        W82896  12.136  11.277   3.811
10571W        W82897  18.547  15.658   3.879
10572W        W82898  39.994  36.357   4.107
10573W        W82899  14.783  33.489  11.708
10574W        W82900  10.433  44.760  14.224
10575W        W82901  22.588  16.199   2.868
10576W        W82902  12.322   7.447  12.069
10577W        W82903  40.512  14.860  14.933
10578W        W82904  35.137  10.666   1.849
10579W        W82905  28.323  15.807  10.999
10580W        W82906  35.650  19.267   4.205
10581W        W82907  13.333   1.891  14.490
10582W        W82908  33.404  20.093   2.610
10583W        W82909  12.612   0.341   0.942
10584W        W82910  23.155   2.106  14.110
10585W        W82911  39.333  35.663   1.351
10586W        W82912  39.533  21.468   3.624
10587W        W82913   2.272  33.200   3.648
10588W        W82914  24.494  30.167  12.383
10589W        W82915  35.662   9.151   1.180
10590W        W82916  30.694   9.774   2.306
10591W        W82917  41.202  37.154   1.185
10592W        W82918  28.687  33.260  13.803
10593W        W82919  22.454   2.966  12.901
10594W        W82920  24.474  26.670  12.438
10595W        W82921  22.207  40.116   3.170
10596W        W82922  28.755  30.372  11.884
10597W        W82923  40.567  21.948  10.744
10598W        W82924  34.538   4.944   3.224
10599W        W82925  10.807   4.253  13.867
10600W        W82926  33.427  10.911   1.646
10601W        W82927  39.364  38.655  12.515
10602W        W82928   1.781   6.694   1.319
10603W        W82929  19.978  31.854  10.812
10604W        W82930  40.044  27.076   1.332
10605W        W82931  39.331  39.903   3.223
10606W        W82932  39.119  14.176  13.416
10607W        W82933  23.330  29.930  10.548
10608W        W82934   2.693  32.160   3.938
10609W        W82935   1.226  39.821   0.064
10610W        W82936  22.987  42.401  13.045
10611W        W82937  36.534  38.506  14.151
10612W        W82938  37.391   8.172   2.656
10613W        W82939  44.579  30.992  14.577
10614W        W82940  19.228  14.824   2.390
10615W        W82941  22.841  30.291   1.717
10616W        W82942  27.061  35.022  11.435
10617W        W82943   6.385  32.640   3.849
10618W        W82944  12.980   5.246  10.706
10619W        W82945  10.829   9.971   4.495
10620W        W82946  29.060  24.424   4.477
10621W        W82947  30.451   1.392  12.437
10622W        W82948  39.739  34.537   1.389
10623W        W82949  16.823  27.052   0.085
10624W        W82950  12.142   1.555   2.211
10625W        W82951  38.865  12.727  10.557
10626W        W82952   0.850  32.552  12.351
10627W        W82953   8.358   1.486  10.663
10628W        W82954  34.301  31.170   2.739
10629W        W82955  43.988  34.318   4.249
10630W        W82956  10.749  13.264   1.869
10631W        W82957  21.267  32.190  12.535
10632W        W82958  23.229  11.229   2.408
10633W        W82959   3.220  26.040   4.656
10634W        W82960  14.685  13.135   4.494
10635W        W82961  28.461  44.499  10.990
10636W        W82962  28.029   7.750  12.544
10637W        W82963  10.926  20.169  13.843
10638W        W82964  36.149   4.932   3.342
10639W        W82965  16.128  41.851   3.620
10640W        W82966  43.197  37.382   4.699
10641W        W82967  29.404  11.423  14.878
10642W        W82968  36.795   1.806   2.265
10643W        W82969  34.159  14.704  14.068
10644W        W82970  40.856  16.934   0.376
10645W        W82971  20.175  28.497   2.983
10646W        W82972  35.978  13.659   1.332
10647W        W82973  11.366  25.055   5.191
10648W        W82974  17.585  27.999   1.703
10649W        W82975   4.243  12.314   4.680
10650W        W82976  23.664   7.050   1.414
10651W        W82977   0.864  27.227  10.637
10652W        W82978  14.724   9.399   3.831
10653W        W82979  35.310  15.064   3.734
10654W        W82980  33.183  41.481  10.687
10655W        W82981  33.945  23.778  13.148
10656W        W82982  28.395  19.534  12.935
10657W        W82983  32.059   8.764   3.864
10658W        W82984   4.921  12.761  10.472
10659W        W82985  13.081   7.666  13.874
10660W        W82986  19.224  25.083   0.342
10661W        W82987  29.458  28.938  12.176
10662W        W82988  31.835  22.585   1.730
10663W        W82989  20.752  20.326  12.923
10664W        W82990  38.109   3.255   4.189
10665W        W82991  10.858  27.208   4.288
10666W        W82992  18.506   1.336   3.682
10667W        W82993  23.152  18.929  11.147
10668W        W82994  25.186  44.972   3.004
10669W        W82995  33.213  14.668   2.239
10670W        W82996  13.238   2.419  14.400
10671W        W82997  34.043   5.753  13.150
10672W        W82998   2.379  20.027  10.415
10673W        W82999  32.360   1.015  14.909
10674W        W83000  14.733  26.024   3.801
10675W        W83001  36.921  37.098  13.032
10676W        W83002  30.449   9.933   9.819
10677W        W83003   8.887  41.207  13.936
10678W        W83004  38.679   9.525  14.357
10679W        W83005  43.444  29.644   4.359
10680W        W83006  32.861   9.179   2.603
10681W        W83007   3.991  18.898  11.490
10682W        W83008  39.116  37.379   4.075
10683W        W83009  16.807  23.563   1.500
10684W        W83010  24.393  23.500  13.443
10685W        W83011  13.696  43.990   4.901
10686W        W83012  21.063  37.453   1.032
10687W        W83013   6.118  32.622   3.405
10688W        W83014   3.222  41.602   4.062
10689W        W83015  40.837  38.415   3.209
10690W        W83016  21.511  35.592   0.369
10691W        W83017  29.549  31.272   3.422
10692W        W83018  27.779  39.095   2.375
10693W        W83019   1.396   6.414   3.268
10694W        W83020  15.839  38.257   2.711
10695W        W83021  18.478  35.891   2.536
10696W        W83022   8.371  39.813   2.792
10697W        W83023  10.337  21.619   1.847
10698W        W83024  36.587  39.440   4.428
10699W        W83025   3.650  39.363  11.951
10700W        W83026  26.753  26.731   2.807
10701W        W83027   3.242   3.415   1.105
10702W        W83028  32.404  12.181  14.253
10703W        W83029  41.143  37.933  11.032
10704W        W83030  26.291  43.498  13.867
10705W        W83031  38.330  36.952  13.844
10706W        W83032   3.734  25.927   4.625
10707W        W83033  41.077  30.032  11.909
10708W        W83034  23.064  28.078   0.588
10709W        W83035  22.375   8.150   0.272
10710W        W83036  13.157   8.903   2.880
10711W        W83037  28.605  10.671   1.223
10712W        W83038   8.824  31.673   3.274
10713W        W83039  33.266  27.163  14.774
10714W        W83040  15.656  29.366   2.259
10715W        W83041  24.580  39.293  11.414
10716W        W83042  40.350  26.246  11.205
10717W        W83043  22.580  15.383  14.319
10718W        W83044   3.924  16.838  14.308
10719W        W83045   5.695  11.416  14.012
10720W        W83046  14.834  39.108  13.355
10721W        W83047  35.338  24.576  14.740
10722W        W83048  18.569  35.031  13.876
10723W        W83049  20.383  36.808  14.751
10724W        W83050  22.617  24.006   1.452
10725W        W83051  29.005  10.374   4.250
10726W        W83052  34.553   6.381   2.950
10727W        W83053   5.125  13.208   2.834
10728W        W83054   4.963  12.019  13.911
10729W        W83055  29.538   0.374  12.019
10730W        W83056   7.690  10.446  12.493
10731W        W83057  40.516   0.981   0.975
10732W        W83058  10.715  23.470  10.677
10733W        W83059  38.044  32.582  13.926
10734W        W83060  41.069  11.892   4.321
10735W        W83061  10.417  39.992   4.081
10736W        W83062  15.171  26.716   3.981
10737W        W83063   2.571   5.694  11.903
10738W        W83064   9.803  19.805   1.268
10739W        W83065   3.433   4.538  14.447
10740W        W83066  40.524  16.590   1.130
10741W        W83067   4.795  33.993  13.773
10742W        W83068  22.221   1.899  11.950
10743W        W83069   1.943  26.052   3.216
10744W        W83070   8.548  17.945  12.142
10745W        W83071  29.073  14.088   1.766
10746W        W83072   1.473  29.589   0.230
10747W        W83073  11.251  24.585  12.602
10748W        W83074  33.038  39.282  11.940
10749W        W83075  24.344  23.525  10.649
10750W        W83076  41.783  21.600   3.730
10751W        W83077  32.815   2.260  14.977
10752W        W83078  15.957  35.351   4.085
10753W        W83079  31.369   1.213   1.817
10754W        W83080  43.375   4.283  13.070
10755W        W83081  35.599  41.406   4.666
10756W        W83082  19.310  36.886  14.810
10757W        W83083   8.664  10.795  14.029
10758W        W83084   8.779  39.808   3.889
10759W        W83085   7.752   4.118   2.244
10760W        W83086  24.028  15.596   2.679
10761W        W83087   6.475  32.935  11.195
10762W        W83088  20.086  18.040  14.276
10763W        W83089  19.879  43.278   4.272
10764W        W83090  31.101  16.974  13.493
10765W        W83091  40.597  25.624  14.926
10766W        W83092  12.347  40.085  13.852
10767W        W83093  25.165   6.193  13.126
10768W        W83094  17.191  31.179   1.504
10769W        W83095  23.471   6.686   2.784
10770W        W83096  18.362  36.278   3.118
10771W        W83097  26.763   8.192   1.285
10772W        W83098  22.721  22.089   0.670
10773W        W83099  19.163   9.277  12.618
10774W        W83100  25.588  15.836   4.551
10775W        W83101  29.721  37.536  12.425
10776W        W83102   9.896  34.016   1.242
10777W        W83103  22.753  29.847  11.375
10778W        W83104  14.988  37.081   4.405
10779W        W83105  15.779  36.015  13.029
10780W        W83106  13.548  17.520  14.299
10781W        W83107  43.044   8.016  13.813
10782W        W83108  11.095  38.927  13.587
10783W        W83109  10.785  10.470   0.168
10784W        W83110  30.272  36.458  13.833
10785W        W83111  10.553   0.477  11.508
10786W        W83112  13.783  43.991  14.139
10787W        W83113  19.370  37.480  13.603
10788W        W83114  19.744   2.640   0.776
10789W        W83115   9.986  26.970  11.282
10790W        W83116   7.741  13.848   2.852
10791W        W83117  27.522  40.490   2.096
10792W        W83118  17.145  21.248  13.092
10793W        W83119  39.932  10.294  13.878
10794W        W83120  10.670  15.268  11.452
10795W        W83121  42.901  33.039  12.973
10796W        W83122  38.032  41.733   0.110
10797W        W83123  14.311  21.120  11.900
10798W        W83124  33.764  18.384   2.781
10799W        W83125  33.564  40.761   1.759
10800W        W83126  10.571  28.609   2.736
10801W        W83127  16.850   5.184   4.200
10802W        W83128  18.665  33.400   0.643
10803W        W83129  23.250   3.673   1.777
10804W        W83130   9.815  26.605   1.243
10805W        W83131  20.114  35.849  10.342
10806W        W83132  14.254  11.662  13.924
10807W        W83133  33.103  10.317  12.802
10808W        W83134  11.641  35.383  10.711
10809W        W83135  22.921   4.882   4.569
10810W        W83136  37.966  35.341   1.280
10811W        W83137   8.332  16.714   3.320
10812W        W83138  26.717  24.605   3.934
10813W        W83139  44.405  30.949   1.315
10814W        W83140  30.704  19.653   2.566
10815W        W83141   9.716  30.297   0.874
10816W        W83142  12.837  29.099   4.530
10817W        W83143   5.908   3.316   4.817
10818W        W83144  38.906  29.632   2.330
10819W        W83145   3.666   5.382  11.668
10820W        W83146  41.010  39.990   4.430
10821W        W83147  13.104  18.067  12.039
10822W        W83148  24.169  34.893   3.136
10823W        W83149  20.474   3.744  14.188
10824W        W83150  22.745  28.302   1.473
10825W        W83151  36.666   8.026   3.180
10826W        W83152  32.678  29.232  12.972
10827W        W83153  40.228  26.674  11.491
10828W        W83154  12.617  44.397  10.750
10829W        W83155  33.355  18.570  10.611
10830W        W83156  13.541  24.680  13.552
10831W        W83157  17.863  42.304   2.086
10832W        W83158  44.909  35.729  13.595
10833W        W83159  16.027  16.982  13.739
10834W        W83160  44.718  18.147   2.279
10835W        W83161   0.398  34.573  10.682
10836W        W83162  36.923  30.096  12.006
10837W        W83163  42.779  13.184   2.066
10838W        W83164  39.749  11.367   1.747
10839W        W83165  32.460   0.766   4.427
10840W        W83166  31.563   0.993   0.883
10841W        W83167  11.196  19.684   0.977
10842W        W83168  30.475  36.318   3.684
10843W        W83169  15.917  13.741   0.249
10844W        W83170  26.520  44.957   4.658
10845W        W83171   2.756  13.120  10.368
10846W        W83172  43.474  22.152   3.608
10847W        W83173  32.556  44.801  10.372
10848W        W83174   7.744   1.720   4.125
10849W        W83175  10.884  10.851   4.175
10850W        W83176  39.565  18.737  13.811
10851W        W83177  32.953  35.533   5.552
10852W        W83178  21.668  33.097  14.980
10853W        W83179  43.116  33.872   4.183
10854W        W83180  31.986  30.824   1.867
10855W        W83181   8.899  15.733  14.886
10856W        W83182  31.296  27.661   3.200
10857W        W83183  15.837   2.424  10.903
10858W        W83184  39.910   7.159   2.162
10859W        W83185  31.851  21.696  12.812
10860W        W83186  12.130  10.305  13.480
10861W        W83187  13.277  40.889  11.978
10862W        W83188  24.922  14.612  12.285
10863W        W83189  37.363  36.863  11.664
10864W        W83190  38.946   6.326   0.420
10865W        W83191  27.723  26.251   2.407
10866W        W83192  18.926   4.846   4.255
10867W        W83193  32.927  42.061  11.990
10868W        W83194   5.794   1.167  12.528
10869W        W83195  44.621   0.354  12.820
10870W        W83196  24.259  26.580  11.982
10871W        W83197   7.460  11.895   2.243
10872W        W83198   6.785  12.923   3.107
10873W        W83199  44.370  36.516  11.435
10874W        W83200  13.544  11.922   2.769
10875W        W83201  31.545  25.588   0.965
10876W        W83202  20.996  28.851  11.167
10877W        W83203  44.939  15.299  10.839
10878W        W83204  42.420  28.602  14.771
10879W        W83205  36.614   9.766  10.618
10880W        W83206  25.440  17.685  13.231
10881W        W83207  28.127   3.230  13.544
10882W        W83208  21.011  27.390  13.843
10883W        W83209   9.359  24.192   4.654
10884W        W83210  43.210  39.513  11.565
10885W        W83211  10.605  25.160  13.774
10886W        W83212  24.803  21.676  11.069
10887W        W83213  29.712  17.161   0.796
10888W        W83214   8.551  23.327   2.133
10889W        W83215  24.670   3.899   1.404
10890W        W83216  20.275  14.243   3.752
10891W        W83217  20.471  14.613   4.656
10892W        W83218  34.357   2.436  14.117
10893W        W83219  22.797  33.109  10.255
10894W        W83220  16.638  21.441   4.129
10895W        W83221   3.231  36.476  13.468
10896W        W83222  24.858  35.981   3.253
10897W        W83223  19.093  43.868  10.611
10898W        W83224  19.215  31.229   2.311
10899W        W83225  31.608  43.214  11.156
10900W        W83226   0.787  44.502  14.504
10901W        W83227  30.278  39.947  11.601
10902W        W83228   1.683  34.969   3.782
10903W        W83229   4.294  43.092  13.587
10904W        W83230  42.330  25.528   4.042
10905W        W83231  22.969  30.675   0.328
10906W        W83232  30.808  44.735  11.586
10907W        W83233  34.017  44.840  10.629
10908W        W83234  28.126   3.819   2.785
10909W        W83235  43.428   0.443  11.232
10910W        W83236  32.849  39.086   0.898
10911W        W83237  22.505  24.167  12.490
10912W        W83238  43.680   2.375  13.606
10913W        W83239  14.695  35.681   4.568
10914W        W83240  31.125  13.847   3.241
10915W        W83241  18.177  21.481   0.577
10916W        W83242   0.389  28.673   1.439
10917W        W83243  27.630  29.409  10.352
10918W        W83244  31.057  27.983   0.371
10919W        W83245  32.021  26.176   2.791
10920W        W83246  11.439  22.526   4.373
10921W        W83247   1.384  36.507   0.401
10922W        W83248  26.349   7.437   1.941
10923W        W83249  11.871  43.301  14.312
10924W        W83250  39.490  18.192  13.874
10925W        W83251  20.659  36.046   4.535
10926W        W83252  26.147  39.109   2.546
10927W        W83253   8.247  10.681   0.535
10928W        W83254  30.652  18.367   4.044
10929W        W83255  21.359  16.879  12.718
10930W        W83256  34.698  15.304   0.679
10931W        W83257   0.213  33.890   2.625
10932W        W83258   5.288  23.407  10.675
10933W        W83259  19.137  21.109   1.880
10934W        W83260   1.887  19.154   0.353
10935W        W83261  33.500  41.192  10.357
10936W        W83262  37.301  29.615   3.971
10937W        W83263   8.758  43.353  12.741
10938W        W83264   7.959  28.291  11.480
10939W        W83265  44.478  25.633   3.055
10940W        W83266  39.902  15.010   0.991
10941W        W83267   5.731   8.368  13.971
10942W        W83268  40.774  16.482   2.829
10943W        W83269  37.010  12.762  14.888
10944W        W83270  17.061   6.031   4.057
10945W        W83271  12.219  44.314   3.576
10946W        W83272  23.434  31.974  12.999
10947W        W83273   4.197  40.893   2.552
10948W        W83274  10.306  25.516   3.874
10949W        W83275  23.661  39.689  11.694
10950W        W83276   4.637  44.243   3.381
10951W        W83277   8.207  17.201  13.171
10952W        W83278  22.344  41.306   0.206
10953W        W83279  42.785   2.547  13.467
10954W        W83280   0.323  44.800   0.632
10955W        W83281  40.705  30.213  13.145
10956W        W83282  18.024  29.852   0.858
10957W        W83283  13.642  34.817   3.266
10958W        W83284   2.256  41.464   0.342
10959W        W83285  23.473  40.676  14.727
10960W        W83286  28.492  23.684  14.306
10961W        W83287  24.191  44.494  14.450
10962W        W83288  32.887  27.707   1.120
10963W        W83289  11.638  32.359   2.144
10964W        W83290  35.774   5.866   2.326
10965W        W83291  31.075   5.375  10.934
10966W        W83292  12.758  44.727  13.760
10967W        W83293   8.445   3.867  12.579
10968W        W83294  30.669  22.574  10.213
10969W        W83295  34.269  40.844  13.863
10970W        W83296   8.539  34.588  11.649
10971W        W83297  38.303  14.806  11.036
10972W        W83298  19.309  15.756   4.089
10973W        W83299  39.381  20.020   3.312
10974W        W83300  36.290  22.738  10.719
10975W        W83301  19.122  15.725  13.769
10976W        W83302  42.045  30.711   1.669
10977W        W83303   5.871  32.928  13.384
10978W        W83304   5.352   3.921   0.635
10979W        W83305  28.723  17.174   4.563
10980W        W83306  26.410  28.048  13.031
10981W        W83307  12.222  17.900   1.317
10982W        W83308  41.532   2.610   2.271
10983W        W83309  21.551  34.627  14.473
10984W        W83310  27.623  24.943  10.981
10985W        W83311  31.962  42.937   5.107
10986W        W83312  12.139  17.099   3.510
10987W        W83313   5.349  14.767   2.371
10988W        W83314  44.879  28.711   0.647
10989W        W83315   7.132  41.523  11.193
10990W        W83316  26.617  10.106  14.861
10991W        W83317  44.214   7.360  13.449
10992W        W83318  25.745  26.338  11.150
10993W        W83319  41.590  29.640   0.480
10994W        W83320   1.917  41.340   3.999
10995W        W83321  27.658  16.584   2.669
10996W        W83322  37.921  34.238  11.190
10997W        W83323  42.452  21.279   0.151
10998W        W83324  24.854  24.112  14.582
10999W        W83325  22.522  32.673   0.197
11000W        W83326  13.065  16.627  11.615
11001W        W83327  19.278   2.335   1.936
11002W        W83328  34.712  11.271  13.367
11003W        W83329   9.352  25.172  12.745
11004W        W83330  10.609   1.246  12.881
11005W        W83331  23.990  30.610   3.223
11006W        W83332   5.305  23.486   4.325
11007W        W83333   0.332  25.449   3.756
11008W        W83334   5.233  35.098   2.950
11009W        W83335  12.155  40.160   3.605
11010W        W83336   0.315  17.669   2.658
11011W        W83337  31.648   8.936   4.777
11012W        W83338   5.990  43.014   3.151
11013W        W83339  43.875  11.108   0.804
11014W        W83340  12.351   8.768  10.967
11015W        W83341  27.003   9.751   1.475
11016W        W83342  31.986  33.198  14.480
11017W        W83343  38.994  15.761   2.143
11018W        W83344   1.159  44.063   1.407
11019W        W83345   2.207  18.540  11.555
11020W        W83346  33.415  11.335  10.645
11021W        W83347   0.883   7.665  11.197
11022W        W83348   5.728  31.339  13.523
11023W        W83349  37.955  43.925   4.873
11024W        W83350  34.453  42.871  11.177
11025W        W83351   0.713  29.039   0.513
11026W        W83352  13.608  11.772   2.288
11027W        W83353  20.219  25.192   0.407
11028W        W83354  18.722  13.960  10.398
11029W        W83355   8.784  12.350   1.770
11030W        W83356  31.475   8.262   4.610
11031W        W83357  20.976  27.999   4.083
11032W        W83358   3.830  33.485   3.629
11033W        W83359  25.435  13.047  11.107
11034W        W83360  39.823  20.995   4.069
11035W        W83361  21.197  29.021   2.073
11036W        W83362   5.824  22.074  12.368
11037W        W83363  16.243   2.283   1.158
11038W        W83364  36.949   9.193  11.386
11039W        W83365   5.269  38.435   1.353
11040W        W83366  31.623   5.924   4.127
11041W        W83367  28.545  20.283  12.490
11042W        W83368  26.960  38.283  13.114
11043W        W83369  34.072  25.627   4.972
11044W        W83370  39.834   4.780   1.210
11045W        W83371   0.704  31.461   1.895
11046W        W83372   7.466  43.779  13.135
11047W        W83373  10.243  36.339  11.639
11048W        W83374  11.292  42.075  14.385
11049W        W83375  36.946  18.992   1.313
11050W        W83376  13.068  23.093   3.559
11051W        W83377  33.353  30.875   0.395
11052W        W83378  34.666   3.737   0.047
11053W        W83379  32.139  36.009   3.682
11054W        W83380   7.808   9.090  11.701
11055W        W83381  21.805  43.380   4.432
11056W        W83382   0.920  34.140   4.101
11057W        W83383  40.571  11.696   4.312
11058W        W83384  25.885  29.857  14.455
11059W        W83385  16.814  35.603  14.872
11060W        W83386  30.943  26.053  11.998
11061W        W83387  11.291  39.833   0.833
11062W        W83388   7.935  11.449  12.502
11063W        W83389  43.022  42.428  14.474
11064W        W83390  37.664   8.044   0.364
11065W        W83391  15.221   9.608  11.399
11066W        W83392   5.203  23.695   3.829
11067W        W83393  43.446  20.693   2.168
11068W        W83394  41.459  39.801   2.796
11069W        W83395  36.295  10.303   1.231
11070W        W83396  27.885   8.158  13.895
11071W        W83397   2.985   6.848  13.287
11072W        W83398  27.172  27.992  14.941
11073W        W83399   5.793  40.298  13.923
11074W        W83400  39.567  24.481  13.556
11075W        W83401  31.939   7.462   4.116
11076W        W83402  26.936   3.583   0.419
11077W        W83403  13.636  23.680  12.804
11078W        W83404  37.452  42.633   3.331
11079W        W83405  21.156  13.615   1.234
11080W        W83406  30.423  30.968   2.646
11081W        W83407  20.332  20.059   1.052
11082W        W83408  12.884   5.765  14.847
11083W        W83409   2.877  22.586   3.193
11084W        W83410   7.668  25.671  13.529
11085W        W83411  32.734  37.999  12.297
11086W        W83412   0.723  32.586   3.886
11087W        W83413  20.272   2.124  12.062
11088W        W83414  21.413  17.990   0.877
11089W        W83415  26.606   5.137   3.426
11090W        W83416  30.469  13.644  13.495
11091W        W83417   8.761  41.539  14.313
11092W        W83418  16.810   5.908  12.959
11093W        W83419  22.635  26.943   4.582
11094W        W83420   1.835   5.016  13.552
11095W        W83421  16.657  33.820  11.153
11096W        W83422  14.169  26.705  14.516
11097W        W83423  37.097  15.443  13.435
11098W        W83424  26.272  27.709   4.613
11099W        W83425   5.504  10.802   3.795
11100W        W83426   3.917  35.471   2.690
11101W        W83427  41.282   0.754   2.702
11102W        W83428   5.267  12.318  10.748
11103W        W83429  24.841  23.557   4.337
11104W        W83430  10.258  24.651   0.036
11105W        W83431  35.073   2.307   2.750
11106W        W83432  22.460   8.691  10.622
11107W        W83433  15.586  27.101   4.511
11108W        W83434  24.363  13.720   0.874
11109W        W83435  18.039  36.086   2.742
11110W        W83436  11.302   9.390   2.805
11111W        W83437  34.839   3.415   0.427
11112W        W83438  21.124  35.923  10.630
11113W        W83439  41.551  22.595   2.299
11114W        W83440  40.471  15.594  10.865
11115W        W83441  34.073  28.901  12.636
11116W        W83442  42.066  31.544  11.674
11117W        W83443  38.044  29.066   3.890
11118W        W83444  41.269  15.754   1.732
11119W        W83445  22.572  20.659  12.047
11120W        W83446  24.769  40.415  12.518
11121W        W83447   0.254  20.001  12.661
11122W        W83448  13.570  36.601  10.696
11123W        W83449  22.242  16.387   4.657
11124W        W83450  18.550  11.726   2.881
11125W        W83451   5.279  18.238  10.474
11126W        W83452   5.957  17.050  11.159
11127W        W83453  10.467  18.604   4.171
11128W        W83454  19.308  41.176  14.224
11129W        W83455   0.259  30.040  13.489
11130W        W83456   7.258   2.230  12.997
11131W        W83457  34.682  39.258   4.212
11132W        W83458  13.835  41.953   2.958
11133W        W83459   3.756  21.934   4.365
11134W        W83460  30.496  41.799  11.093
11135W        W83461  26.603  20.680  11.071
11136W        W83462   5.526  18.868   1.376
11137W        W83463  13.096   7.671  11.583
11138W        W83464  34.591  33.140   2.258
11139W        W83465   4.655  11.234  11.561
11140W        W83466  21.628  38.825   0.390
11141W        W83467  42.004  39.411  13.455
11142W        W83468  41.455  36.817   3.365
11143W        W83469   7.901  26.219   4.943
11144W        W83470  21.772  26.593   0.317
11145W        W83471  15.233  15.144   4.587
11146W        W83472   5.873  37.481  11.006
11147W        W83473  40.502  31.370  11.554
11148W        W83474  16.468   4.108   4.147
11149W        W83475  21.431  12.255  11.713
11150W        W83476  17.170  37.737   3.111
11151W        W83477  13.519   3.245   3.095
11152W        W83478   6.761  23.317   2.811
11153W        W83479  22.579   0.954   4.360
11154W        W83480   5.644  42.972   2.308
11155W        W83481   7.322   4.950  14.979
11156W        W83482  36.051  37.280   1.202
11157W        W83483  27.535  11.386   4.614
11158W        W83484   8.191  41.509  13.878
11159W        W83485   8.340  39.362   3.698
11160W        W83486  39.701  18.398  11.995
11161W        W83487  36.335  15.621   4.283
11162W        W83488  44.055   1.842  11.281
11163W        W83489  20.008  16.754  12.539
11164W        W83490   0.090  32.221   0.430
11165W        W83491  33.929  37.314  12.361
11166W        W83492  32.066  22.257   3.083
11167W        W83493  30.722  12.467   4.589
11168W        W83494  25.417  40.664  11.136
11169W        W83495  21.543   5.737   0.466
11170W        W83496  29.041  35.996  11.443
11171W        W83497  24.052  19.700   3.807
11172W        W83498  12.233  32.557  11.713
11173W        W83499  30.735  32.767   4.456
11174W        W83500  32.598  22.474   4.761
11175W        W83501  37.255  10.441   4.606
11176W        W83502  16.053  27.951  14.039
11177W        W83503  42.874  32.127  13.912
11178W        W83504  40.001   6.530   1.343
11179W        W83505  17.366  36.724  11.587
11180W        W83506  27.446  12.669   3.332
11181W        W83507  31.490  21.535   3.547
11182W        W83508  34.073  28.006  12.468
11183W        W83509  27.996  23.601   4.173
11184W        W83510  25.187  40.325   2.800
11185W        W83511   0.821  36.886   3.240
11186W        W83512  11.534  10.814  11.916
11187W        W83513   2.283  17.053  13.659
11188W        W83514   0.793  33.849   0.486
11189W        W83515  17.535  42.702   2.360
11190W        W83516  26.447  41.926   1.811
11191W        W83517  32.492  41.233   4.488
11192W        W83518  41.914  34.243  11.154
11193W        W83519  13.296  38.777   4.861
11194W        W83520   9.862  38.183  14.099
11195W        W83521  29.529  13.801  10.763
11196W        W83522  11.571   9.781  11.144
11197W        W83523  42.819   4.738   3.427
11198W        W83524   5.389  43.269   0.056
11199W        W83525  22.224  23.698   1.217
11200W        W83526  12.620  40.061   3.097
11201W        W83527  44.351  39.235  11.855
11202W        W83528  33.157  18.788   2.324
11203W        W83529   3.781   5.890  11.466
11204W        W83530  31.959   6.740  11.920
11205W        W83531  25.970   5.359   3.108
11206W        W83532  22.566   7.543   9.600
11207W        W83533  17.165   4.558   4.133
11208W        W83534  36.895  28.742  12.472
11209W        W83535   7.511  29.999   2.803
11210W        W83536  10.156  20.228  13.720
11211W        W83537  12.369  15.721   4.132
11212W        W83538  41.934  14.598  11.693
11213W        W83539  44.869  35.893  14.716
11214W        W83540  19.040   9.140   4.440
11215W        W83541  33.401  36.987   4.187
11216W        W83542  18.569   0.967  12.954
11217W        W83543  30.941  30.963  12.660
11218W        W83544  29.433   5.423   2.687
11219W        W83545   5.816  13.987  14.085
11220W        W83546  29.176  10.671   3.682
11221W        W83547  20.573  15.665   2.658
11222W        W83548  32.443  18.577  14.413
11223W        W83549  44.066  27.383   3.703
11224W        W83550  25.250  33.306   2.770
11225W        W83551  31.340   8.189   3.266
11226W        W83552  34.089  10.808  14.385
11227W        W83553   0.889  18.510   0.926
11228W        W83554  17.591   0.127  13.391
11229W        W83555  23.327  16.200  11.558
11230W        W83556  40.256   5.793  13.813
11231W        W83557  15.834   6.805  10.938
11232W        W83558  41.384  43.224  11.271
11233W        W83559   0.017  17.020   2.683
11234W        W83560  38.939  14.861   0.767
11235W        W83561   7.462  29.892  14.468
11236W        W83562  11.353  14.158  13.751
11237W        W83563   9.309  38.762   0.135
11238W        W83564   2.227  39.297  13.340
11239W        W83565  19.191  25.507  11.601
11240W        W83566  30.951  26.555   4.666
11241W        W83567  12.386  23.633   2.600
11242W        W83568   4.880  33.580   3.665
11243W        W83569   1.368  37.850   1.926
11244W        W83570   1.597   5.847   0.495
11245W        W83571  21.690  30.376  14.525
11246W        W83572  31.455  40.889   4.032
11247W        W83573  30.694  19.496  13.424
11248W        W83574  12.247  23.134   0.767
11249W        W83575  15.073  34.812  10.685
11250W        W83576  25.033  32.337  13.477
11251W        W83577  15.475  16.717   1.174
11252W        W83578  14.145  28.711   3.405
11253W        W83579  25.463  30.427   3.380
11254W        W83580   3.284  39.291  11.111
11255W        W83581  38.090  42.827   3.426
11256W        W83582  44.702  40.879   2.085
11257W        W83583   5.092   7.437   3.653
11258W        W83584  10.572  18.673  10.500
11259W        W83585  35.695  31.430   0.441
11260W        W83586  20.060  25.019   4.790
11261W        W83587  36.820  17.142   2.873
11262W        W83588  10.447  14.666   2.226
11263W        W83589  23.919   5.897   3.788
11264W        W83590  25.654  35.448  14.884
11265W        W83591  43.607  22.962  11.214
11266W        W83592  22.483  31.850  13.192
11267W        W83593  42.016  12.288   3.855
11268W        W83594  34.812  33.948   2.872
11269W        W83595  12.247  17.074   2.538
11270W        W83596  21.782   2.992   1.869
11271W        W83597  23.069  38.323   0.276
11272W        W83598  30.858  31.563   4.179
11273W        W83599   5.239  34.067  13.501
11274W        W83600  33.999  20.995   2.328
11275W        W83601  41.987  44.717  13.531
11276W        W83602  37.555  26.478  14.840
11277W        W83603  13.639  42.443   3.717
11278W        W83604  39.143  24.184  13.567
11279W        W83605  37.590  41.296   0.764
11280W        W83606   4.652  19.737   3.799
11281W        W83607   0.330  21.084   1.955
11282W        W83608  10.044  41.811  14.796
11283W        W83609  41.595  41.575  12.162
11284W        W83610  33.948   2.186  13.801
11285W        W83611  38.187  31.191  11.760
11286W        W83612  41.455   8.115   4.280
11287W        W83613  39.459  10.758   9.165
11288W        W83614  30.563  24.770   0.528
11289W        W83615  12.018  43.312  11.667
11290W        W83616  24.306  10.665   4.549
11291W        W83617  36.455  39.973   3.184
11292W        W83618   1.448  38.530  12.040
11293W        W83619  14.196  18.204   3.084
11294W        W83620  36.631  21.962   2.701
11295W        W83621   2.660   4.483   3.614
11296W        W83622   7.696  42.525   2.853
11297W        W83623  22.057  12.621   3.052
11298W        W83624  18.754  18.582  12.011
11299W        W83625  20.304  19.581   4.547
11300W        W83626  15.581  39.844   1.870
11301W        W83627  22.562  39.886   0.307
11302W        W83628  22.051  27.632   4.641
11303W        W83629  24.951  10.724  11.045
11304W        W83630   4.192  21.625  12.330
11305W        W83631   0.403  38.664  12.103
11306W        W83632  42.037  26.630  12.918
11307W        W83633   2.954  22.485   1.320
11308W        W83634   0.269   7.880   0.413
11309W        W83635  26.997  20.227  11.555
11310W        W83636   7.869  23.101   4.869
11311W        W83637  35.784  36.968   2.778
11312W        W83638   3.427  15.120   0.187
11313W        W83639  19.186   8.205  11.700
11314W        W83640  44.693   0.066   3.650
11315W        W83641  34.500  28.703   2.331
11316W        W83642  16.187  25.649  11.673
11317W        W83643  39.427   9.779  14.876
11318W        W83644   5.918  11.730   3.716
11319W        W83645   0.987  27.225   2.294
11320W        W83646  20.549  24.321   5.153
11321W        W83647   1.240   6.133   1.846
11322W        W83648  25.451   4.926   0.112
11323W        W83649  35.142  19.625   2.841
11324W        W83650  30.184   4.135  12.771
11325W        W83651  44.454  11.241   1.297
11326W        W83652  43.236   3.321  12.706
11327W        W83653  14.243  39.417   4.603
11328W        W83654  19.100  15.244   4.629
11329W        W83655   4.202   1.200   3.238
11330W        W83656  44.900  32.141  11.855
11331W        W83657  17.324   3.853   0.475
11332W        W83658   1.925  34.368  12.983
11333W        W83659   5.876  10.452   0.756
11334W        W83660  43.835  28.181  11.945
11335W        W83661  33.836  24.655   2.955
11336W        W83662   9.414  12.156  11.687
11337W        W83663  28.938  43.437   3.167
11338W        W83664  41.861   6.958  13.497
11339W        W83665  17.262  15.292   3.703
11340W        W83666  32.646  13.645   2.384
11341W        W83667   4.232  11.342   2.803
11342W        W83668  44.268   7.165  12.039
11343W        W83669  31.391   0.324  11.659
11344W        W83670  41.517  14.323  11.788
11345W        W83671  12.671  28.446  13.801
11346W        W83672  39.400  15.296  11.660
11347W        W83673  27.968  40.441  10.476
11348W        W83674   0.305  39.004  10.913
11349W        W83675  27.096  39.369  14.229
11350W        W83676  28.047  38.544   0.151
11351W        W83677  11.407  44.706   2.999
11352W        W83678  26.490  33.815   0.733
11353W        W83679  43.939  15.830  13.754
11354W        W83680  19.723   5.756  13.948
11355W        W83681   0.542  20.548  14.389
11356W        W83682   9.680  37.384   2.938
11357W        W83683  44.152  28.501   4.879
11358W        W83684   8.691  10.402  11.945
11359W        W83685  41.932  44.501   4.058
11360W        W83686  27.998  31.659  11.584
11361W        W83687  31.078  23.911   4.316
11362W        W83688  27.742  20.524   4.636
11363W        W83689  35.333  28.622   3.775
11364W        W83690  29.901   6.190   0.717
11365W        W83691  19.032  42.360   0.416
11366W        W83692  18.260  19.762  12.972
11367W        W83693  44.179  42.823   1.821
11368W        W83694   0.068  25.616   2.269
11369W        W83695  16.561  32.255  13.374
11370W        W83696  26.060  26.586  13.888
11371W        W83697  11.361   0.681  13.180
11372W        W83698   1.950  24.517  14.724
11373W        W83699  25.096   3.421   1.964
11374W        W83700   2.849  18.036   4.504
11375W        W83701  28.879  24.102  12.033
11376W        W83702  12.222  27.490   9.608
11377W        W83703   6.680  32.955  14.896
11378W        W83704   7.795  42.573   4.195
11379W        W83705  43.722  11.435  10.485
11380W        W83706  21.314  10.498   0.439
11381W        W83707  13.855  42.072   4.980
11382W        W83708  21.943  11.365  13.933
11383W        W83709  19.782  30.341   2.377
11384W        W83710  37.108  12.114  10.859
11385W        W83711  14.834  22.320  10.681
11386W        W83712  29.412  35.235   3.701
11387W        W83713  16.042  28.894  10.739
11388W        W83714  17.316   8.794  11.600
11389W        W83715  19.152  39.814  13.084
11390W        W83716  33.907  13.831   3.471
11391W        W83717  11.290   1.479   1.187
11392W        W83718  31.640   9.235  11.542
11393W        W83719  27.694  36.059   2.376
11394W        W83720  31.900  10.408  14.126
11395W        W83721  29.715   0.330  13.041
11396W        W83722  24.458   2.908  12.963
11397W        W83723  20.565   4.707   0.498
11398W        W83724  35.195  11.430   2.233
11399W        W83725  13.368  16.544  12.916
11400W        W83726  16.049  33.670  11.958
11401W        W83727  17.633   8.204  13.616
11402W        W83728  27.971  31.431   1.953
11403W        W83729  38.919   1.980  13.994
11404W        W83730  29.682  18.116  13.089
11405W        W83731  33.312  42.290   4.103
11406W        W83732  35.889  20.033  13.042
11407W        W83733   8.315   6.466   3.765
11408W        W83734   8.219  43.195  13.528
11409W        W83735  10.617  14.556  12.066
11410W        W83736  29.018  31.533   2.678
11411W        W83737  39.308  11.648  14.789
11412W        W83738  25.536   2.482   3.636
11413W        W83739  35.832  41.030  13.502
11414W        W83740  10.730   8.635   3.223
11415W        W83741  31.003   8.935   0.957
11416W        W83742  29.581   7.338  13.035
11417W        W83743  41.845  18.295  12.552
11418W        W83744  43.321   0.977   1.255
11419W        W83745  23.000   1.708  14.944
11420W        W83746  37.567  12.357   5.210
11421W        W83747  37.435  39.661   3.351
11422W        W83748  26.559  17.154  12.995
11423W        W83749  40.852  21.611   3.687
11424W        W83750   8.585  41.474   1.328
11425W        W83751  21.849  28.431   1.585
11426W        W83752  27.643  44.312   4.409
11427W        W83753  14.514   4.001   4.352
11428W        W83754  42.847  44.610   2.283
11429W        W83755  23.077  33.078   1.236
11430W        W83756   5.748  38.754   3.201
11431W        W83757  15.129  40.900   0.463
11432W        W83758  34.260  24.134   1.027
11433W        W83759  19.708  21.090  10.737
11434W        W83760  21.687   3.802  14.810
11435W        W83761  30.655  32.875   3.133
11436W        W83762  17.627  29.672   0.531
11437W        W83763  23.453  17.170   2.231
11438W        W83764  32.136  38.731  11.141
11439W        W83765  21.210   4.473  11.626
11440W        W83766  28.824  27.809  11.016
11441W        W83767  36.674  41.374   1.856
11442W        W83768  40.703  17.108  12.076
11443W        W83769  22.164  10.236  14.786
11444W        W83770  21.492  12.164  12.741
11445W        W83771  41.347   7.812   0.730
11446W        W83772  38.217  12.195  11.220
11447W        W83773  14.984  27.378   3.425
11448W        W83774  35.027  22.471   1.810
11449W        W83775  19.609  41.738  11.066
11450W        W83776   4.726  26.886  14.024
11451W        W83777  17.830  40.733  13.140
11452W        W83778  26.359  38.145   1.371
11453W        W83779  13.220  21.057   1.208
11454W        W83780  15.868  37.415   1.673
11455W        W83781  10.549  26.599   1.930
11456W        W83782  38.810  28.702  10.713
11457W        W83783  30.415  34.574  13.945
11458W        W83784  16.357  10.557   4.076
11459W        W83785  28.433  18.563  12.793
11460W        W83786  33.675  28.753   1.834
11461W        W83787  24.928  35.025   2.199
11462W        W83788  31.110  23.916   3.807
11463W        W83789  16.109   1.227  12.972
11464W        W83790  23.181  22.355   3.680
11465W        W83791  24.124   5.382  10.733
11466W        W83792  17.827  36.578   2.780
11467W        W83793   7.637  23.060  13.374
11468W        W83794  29.201  11.158   2.816
11469W        W83795  27.148  24.283   4.196
11470W        W83796  25.685   3.940   1.279
11471W        W83797   7.316  35.510   1.085
11472W        W83798  38.112   0.537  10.610
11473W        W83799   9.779  27.557   1.938
11474W        W83800   8.337  38.600   3.465
11475W        W83801  31.419   4.708  14.941
11476W        W83802   7.359  23.858  12.846
11477W        W83803  15.066  23.601   2.763
11478W        W83804   2.193  18.704  14.258
11479W        W83805   7.717   3.768   4.057
11480W        W83806  18.190  22.126   1.708
11481W        W83807  26.577   7.233   3.263
11482W        W83808  28.187  40.304   1.365
11483W        W83809  37.519  14.419   2.759
11484W        W83810  34.117  33.454   2.781
11485W        W83811  10.046  11.275  11.894
11486W        W83812  33.492  15.335   4.170
11487W        W83813   4.419  44.361  10.741
11488W        W83814   5.111  18.235   2.498
11489W        W83815  43.436   7.592   4.797
11490W        W83816   6.732  22.199  13.874
11491W        W83817  33.687  11.417  11.087
11492W        W83818  12.307   1.104  14.375
11493W        W83819  28.275   9.797   2.236
11494W        W83820  24.789  30.617   2.814
11495W        W83821  33.086  25.533  14.184
11496W        W83822   8.707  37.309  14.721
11497W        W83823  41.744  12.856   4.575
11498W        W83824  18.803  35.057   3.344
11499W        W83825   5.133   4.004  14.756
11500W        W83826  21.725  22.603  12.308
11501W        W83827  36.544  31.041   0.193
11502W        W83828   5.689  32.358   0.727
11503W        W83829  42.968  13.381  11.386
11504W        W83830  26.027  26.007  14.383
11505W        W83831  17.751   4.360   1.960
11506W        W83832  19.906  14.266  12.604
11507W        W83833  10.154  42.264   2.852
11508W        W83834  36.383  18.651  10.723
11509W        W83835  12.557  30.986   2.685
11510W        W83836  36.482   0.368   3.250
11511W        W83837  30.545  11.111   4.587
11512W        W83838   2.406  13.342  14.368
11513W        W83839  29.009  31.527   4.561
11514W        W83840  39.556   1.184  11.563
11515W        W83841  30.348  33.142   3.564
11516W        W83842  35.854  27.499  12.047
11517W        W83843   6.132  20.361   1.988
11518W        W83844  21.713  17.785  11.160
11519W        W83845   8.866  43.244   4.522
11520W        W83846  36.428  25.315   3.300
11521W        W83847   9.413   9.487  13.018
11522W        W83848  18.340  33.557   1.362
11523W        W83849  12.527  12.943   0.800
11524W        W83850  37.992  11.747   0.731
11525W        W83851  25.245  21.706   4.052
11526W        W83852   1.607  19.584   0.511
11527W        W83853  22.234  17.300   5.016
11528W        W83854  32.855  37.404  10.627
11529W        W83855  20.251   4.859  14.826
11530W        W83856  16.013  32.960  11.757
11531W        W83857   4.961  12.517   2.428
11532W        W83858  22.166  23.463   4.339
11533W        W83859   9.176  30.028   0.210
11534W        W83860  40.904  15.097  14.023
11535W        W83861  41.136   4.243  13.005
11536W        W83862  40.157   2.235   4.524
11537W        W83863  29.571  36.953  13.387
11538W        W83864  36.911  44.280   4.603
11539W        W83865  34.398  36.160   0.832
11540W        W83866  36.734  34.667   4.997
11541W        W83867  37.346  31.919  14.553
11542W        W83868  35.861  31.550   2.383
11543W        W83869  16.183  15.354  12.423
11544W        W83870  36.525  24.064  12.535
11545W        W83871  30.795  43.998  11.497
11546W        W83872  31.881  42.513  11.637
11547W        W83873  30.847   5.855  12.823
11548W        W83874  10.407  18.270  11.662
11549W        W83875   1.111  39.348   4.151
11550W        W83876  20.774  18.537   1.199
11551W        W83877   7.311  13.913  13.800
11552W        W83878  27.377  18.071  13.644
11553W        W83879  42.004  30.018   4.222
11554W        W83880   0.860  36.531  13.022
11555W        W83881  44.466   3.048   4.273
11556W        W83882  38.476  32.678  13.596
11557W        W83883   3.646  38.489   1.971
11558W        W83884   0.502  23.504   0.012
11559W        W83885  19.445  25.579   0.498
11560W        W83886  33.363  36.079  12.153
11561W        W83887  39.326   0.397   0.834
11562W        W83888  36.974  32.439   3.717
11563W        W83889   5.138  35.578  11.995
11564W        W83890   4.878   3.765  12.577
11565W        W83891  44.690   9.960  13.069
11566W        W83892  34.446   3.536   1.824
11567W        W83893  22.235  40.787  13.060
11568W        W83894  18.637   3.327   2.669
11569W        W83895  36.337  33.657  14.395
11570W        W83896  38.052   2.774   0.791
11571W        W83897  31.034  31.538  14.457
11572W        W83898   0.406   5.760  13.292
11573W        W83899  38.071  19.712  14.510
11574W        W83900   3.419  14.851   4.614
11575W        W83901  34.546  12.681  14.004
11576W        W83902   4.471  40.485  11.206
11577W        W83903  13.772  40.513   2.318
11578W        W83904  14.774  26.241  13.052
11579W        W83905   1.429  38.116  14.003
11580W        W83906  26.148  10.796   1.577
11581W        W83907  42.388  13.282   5.022
11582W        W83908  24.016  22.018   3.372
11583W        W83909  17.106   0.285   9.896
11584W        W83910  24.582   2.320  10.832
11585W        W83911   0.771  25.016   2.487
11586W        W83912  15.717  30.682  11.144
11587W        W83913  20.279  11.634  13.330
11588W        W83914  33.436  20.015  13.374
11589W        W83915  18.701  12.536   0.908
11590W        W83916   3.257   1.178   4.193
11591W        W83917   6.730  29.485   4.525
11592W        W83918  38.977  31.743   0.461
11593W        W83919  31.588  29.534  11.942
11594W        W83920  17.772  33.429   4.098
11595W        W83921  37.566   6.905  11.570
11596W        W83922  36.054  34.585   0.389
11597W        W83923  15.443  31.343   3.121
11598W        W83924   5.412  23.077   0.067
11599W        W83925  18.058  15.402   3.236
11600W        W83926  20.575  29.113   1.833
11601W        W83927  29.535  14.867   0.414
11602W        W83928  33.623   0.744  12.116
11603W        W83929  32.841  37.515   4.587
11604W        W83930  25.883  37.455  12.996
11605W        W83931  26.939  41.440  14.958
11606W        W83932  39.878  37.954   3.245
11607W        W83933  37.535  31.097  12.558
11608W        W83934  25.984   8.717  13.833
11609W        W83935   6.194  10.219   4.545
11610W        W83936  19.752  29.210  14.640
11611W        W83937   1.326   8.649   0.369
11612W        W83938  18.095  15.619  12.625
11613W        W83939  22.256  31.905  13.649
11614W        W83940  29.926  25.348  14.055
11615W        W83941   0.230  42.871  11.914
11616W        W83942  21.261  13.534   2.222
11617W        W83943  44.637  16.157   1.863
11618W        W83944  24.792  26.265   0.817
11619W        W83945  10.077  16.624   2.312
11620W        W83946  17.806  10.598  13.556
11621W        W83947  38.396  14.819   2.824
11622W        W83948   3.205   6.446  10.438
11623W        W83949  17.121  39.191   4.219
11624W        W83950  33.551  10.907  12.410
11625W        W83951  13.852   0.190   1.806
11626W        W83952   9.117   4.372   2.364
11627W        W83953  44.849  20.751   4.508
11628W        W83954  41.862  25.945   3.355
11629W        W83955  26.544  11.625   4.181
11630W        W83956  39.251  33.552   0.140
11631W        W83957  40.327   5.895   4.032
11632W        W83958  28.599  36.734   3.605
11633W        W83959  15.004  27.243   1.712
11634W        W83960   9.239   8.329  11.623
11635W        W83961  34.754  10.602  11.535
11636W        W83962  17.670  23.912   3.565
11637W        W83963  24.934   9.863   2.685
11638W        W83964  12.398  25.119  13.456
11639W        W83965  23.210   9.841  13.957
11640W        W83966  20.593  42.381  14.032
11641W        W83967  21.255   3.909  11.105
11642W        W83968  12.558  27.120   9.750
11643W        W83969  41.067   7.355   4.204
11644W        W83970  16.946  20.123  14.425
11645W        W83971  27.381   5.502   2.839
11646W        W83972  33.684  37.379   0.544
11647W        W83973  20.091  19.743  12.869
11648W        W83974   7.784  34.357   1.315
11649W        W83975  36.903  25.995  12.122
11650W        W83976  22.997  37.292  10.522
11651W        W83977   8.758  11.277  14.305
11652W        W83978  18.658   2.081   5.116
11653W        W83979  25.488  40.752   3.998
11654W        W83980  41.729  22.496   3.296
11655W        W83981  14.078  12.280  11.410
11656W        W83982  39.787   7.726  14.681
11657W        W83983  23.685  32.344  10.575
11658W        W83984  21.124  16.439   3.809
11659W        W83985  25.249  42.042   1.057
11660W        W83986  36.080  36.777  13.448
11661W        W83987  22.208  26.475  10.597
11662W        W83988  27.182  38.582  13.518
11663W        W83989  20.555  17.065  12.871
11664W        W83990  41.853  38.549  12.011
11665W        W83991  41.332  26.972   4.791
11666W        W83992   3.250  43.981  13.881
11667W        W83993  14.609  21.257   0.156
11668W        W83994  18.713  11.947  10.669
11669W        W83995  33.895  32.007   1.312
11670W        W83996  21.534  38.006  10.253
11671W        W83997  40.969   1.221   0.087
11672W        W83998   1.161  24.085   0.896
11673W        W83999  12.589  15.284   2.341
11674W        W84000  41.454  30.864  14.098
11675W        W84001  25.785  12.737   5.220
11676W        W84002  33.667  28.084  13.790
11677W        W84003  38.444  11.784  14.440
11678W        W84004  23.230  15.576   2.379
11679W        W84005  17.059   5.765  14.938
11680W        W84006   9.764  26.661   3.904
11681W        W84007  18.820  17.196  11.599
11682W        W84008   7.869  28.833   0.373
11683W        W84009  43.326  37.093   3.413
11684W        W84010  12.213  29.702   3.727
11685W        W84011  28.490  24.222  13.446
11686W        W84012   9.301  30.011   4.642
11687W        W84013  26.663  25.041  12.232
11688W        W84014   9.725   0.244   2.090
11689W        W84015   5.495   0.414   2.211
11690W        W84016  26.197  23.237  14.007
11691W        W84017  43.305  24.430  13.806
11692W        W84018  31.546  18.694   1.630
11693W        W84019  38.034  44.701   1.871
11694W        W84020   3.018  39.825  12.922
11695W        W84021  40.717  11.171  13.874
11696W        W84022  37.278  42.301  11.637
11697W        W84023  21.503  39.063  11.555
11698W        W84024  30.155  11.881  11.588
11699W        W84025  23.065  18.015  13.583
11700W        W84026  22.178  31.367   2.777
11701W        W84027  15.094  23.955  14.960
11702W        W84028  39.834  30.297  12.599
11703W        W84029  11.641   1.173   1.879
11704W        W84030  41.532   2.755  14.406
11705W        W84031  15.796  12.365  14.329
11706W        W84032  39.750  32.182  10.362
11707W        W84033   8.357  44.478   1.299
11708W        W84034   3.150   9.046   3.903
11709W        W84035  37.424  17.583   2.278
11710W        W84036  20.152  24.695   2.979
11711W        W84037  26.939  38.564  11.559
11712W        W84038  32.636  35.875   3.806
11713W        W84039  44.784  36.969   1.156
11714W        W84040  11.777  20.826  12.193
11715W        W84041  13.911  11.472  14.770
11716W        W84042   5.520  43.372  10.826
11717W        W84043  42.446   0.164   3.491
11718W        W84044   1.885  41.256   4.514
11719W        W84045  25.036   7.604   5.131
11720W        W84046   0.655  15.987  14.553
11721W        W84047   9.964   2.449  12.128
11722W        W84048  35.874  22.682  13.037
11723W        W84049  41.642   8.790  11.113
11724W        W84050  18.825  21.642  12.929
11725W        W84051  12.952  37.502   2.326
11726W        W84052  11.814  29.044  11.559
11727W        W84053   6.837  28.035  14.784
11728W        W84054  37.108  19.680  14.063
11729W        W84055   1.314  10.232   0.974
11730W        W84056   6.198  16.858   2.797
11731W        W84057   6.748  14.317   0.764
11732W        W84058  14.334  42.321  13.410
11733W        W84059  27.970  28.901  12.970
11734W        W84060  36.007   3.498  13.436
11735W        W84061  43.421  41.887  14.927
11736W        W84062  12.590   5.583  12.531
11737W        W84063  26.898  37.830   3.125
11738W        W84064  38.899  37.048  13.974
11739W        W84065  12.952   1.406   2.813
11740W        W84066  21.808  28.368  11.233
11741W        W84067  17.072  24.477   4.077
11742W        W84068  36.384  23.163   3.909
11743W        W84069  40.960   1.009   1.874
11744W        W84070  23.801   2.842   0.824
11745W        W84071   6.175  44.245   1.710
11746W        W84072  33.618   3.511  12.856
11747W        W84073  31.186  11.260   0.773
11748W        W84074  37.095  24.916  14.486
11749W        W84075  34.981  29.082  10.208
11750W        W84076   6.791   7.582  12.481
11751W        W84077  18.975  38.564   0.213
11752W        W84078  11.937  42.543  11.313
11753W        W84079  13.759  36.305   0.382
11754W        W84080  21.032  38.617  10.699
11755W        W84081  42.951  10.932   1.856
11756W        W84082  18.049  15.607   0.113
11757W        W84083   1.912  28.441   0.505
11758W        W84084  10.203   2.943  11.499
11759W        W84085  27.114  28.000   4.964
11760W        W84086  18.789  35.712   5.065
11761W        W84087  43.440  23.513  13.137
11762W        W84088  18.733  27.984  13.441
11763W        W84089  17.242   1.402  10.397
11764W        W84090  18.067  27.572   2.292
11765W        W84091   2.717  32.866   1.080
11766W        W84092   8.433  41.838  10.801
11767W        W84093  11.880   2.318   1.758
11768W        W84094   3.920  19.088   1.500
11769W        W84095   1.378   2.649   1.127
11770W        W84096  29.825  44.024  14.455
11771W        W84097  13.770  30.155   3.700
11772W        W84098  15.625  37.605  14.737
11773W        W84099  31.847  40.356   1.478
11774W        W84100   3.558   7.921   3.235
11775W        W84101  24.680  33.931  12.523
11776W        W84102  19.116  21.436  11.485
11777W        W84103  41.164  33.579  12.267
11778W        W84104   6.173  10.880   0.797
11779W        W84105  17.198  14.784  12.945
11780W        W84106  34.922  14.446   2.976
11781W        W84107  40.739  36.608   1.933
11782W        W84108  40.931  13.555  12.525
11783W        W84109  29.552  36.764  10.680
11784W        W84110  23.755   9.297  13.564
11785W        W84111  18.692  43.032   3.719
11786W        W84112  31.780  33.007  14.913
11787W        W84113  13.345  26.351   3.768
11788W        W84114   5.646  44.588   0.389
11789W        W84115  34.839  32.374  12.093
11790W        W84116   9.825  25.988  11.599
11791W        W84117  36.836  15.125  11.658
11792W        W84118  28.542  15.552  14.953
11793W        W84119  30.754  17.395   0.258
11794W        W84120  35.305  10.770  11.374
11795W        W84121  20.095  17.742   0.979
11796W        W84122  37.299  15.227  11.429
11797W        W84123  31.476  22.306   2.368
11798W        W84124  14.681  35.900  11.434
11799W        W84125  44.902  12.250  11.938
11800W        W84126   5.400  41.530  14.545
11801W        W84127  33.498  20.172   3.636
11802W        W84128  14.791  44.827   0.940
11803W        W84129  33.965  43.654   0.948
11804W        W84130   2.122  24.050   3.301
11805W        W84131   4.038  30.130  12.399
11806W        W84132  28.528  32.374   1.744
11807W        W84133  11.137   9.842   2.619
11808W        W84134  28.363   3.324   0.954
11809W        W84135  13.191  22.166   4.377
11810W        W84136   7.846   4.321   1.791
11811W        W84137  21.106  26.967  13.024
11812W        W84138  35.805  23.779   3.578
11813W        W84139  36.432  28.305   0.347
11814W        W84140  12.265  31.270  11.145
11815W        W84141  33.140  19.663   1.326
11816W        W84142  27.682  14.686   0.903
11817W        W84143  29.151  12.812  12.068
11818W        W84144  21.068  18.272  12.580
11819W        W84145   8.665  10.859  12.879
11820W        W84146  42.805  35.989   3.674
11821W        W84147  26.456  32.138   1.411
11822W        W84148  24.970   8.230   3.729
11823W        W84149   9.583  29.633   4.864
11824W        W84150  21.736  15.244  10.840
11825W        W84151   8.066  30.290   0.575
11826W        W84152   1.390   4.738   2.357
11827W        W84153  14.374  37.380   1.315
11828W        W84154   2.273  12.549  10.860
11829W        W84155  30.517  39.362   4.513
11830W        W84156  39.393  12.118   1.717
11831W        W84157   4.012   4.738  14.982
11832W        W84158  30.250  38.161   0.833
11833W        W84159   0.210   0.353  13.808
11834W        W84160  13.625  30.697   4.329
11835W        W84161  40.866  27.877   2.878
11836W        W84162  10.124  42.849  10.616
11837W        W84163   8.222   9.647  12.865
11838W        W84164   6.652  40.395   1.880
11839W        W84165  13.785  41.948   3.471
11840W        W84166   2.985  25.501  10.679
11841W        W84167  43.083  40.823   0.293
11842W        W84168   2.244  40.547  14.437
11843W        W84169  36.811  30.671   0.465
11844W        W84170   5.803   7.176   0.434
11845W        W84171  38.986  36.116  13.147
11846W        W84172  27.166  36.843  12.856
11847W        W84173  11.390  29.189   1.845
11848W        W84174  31.888   8.154  14.988
11849W        W84175  10.158  34.583  14.525
11850W        W84176  15.695  12.765   1.189
11851W        W84177  18.803   6.816  11.308
11852W        W84178  44.333   5.160  12.936
11853W        W84179  30.954   8.298   3.593
11854W        W84180  31.864  13.723   2.823
11855W        W84181  19.829  14.353  13.884
11856W        W84182  35.274   7.364  12.549
11857W        W84183  37.377  20.448   0.512
11858W        W84184  31.531   8.778  10.935
11859W        W84185   5.718   7.206  14.764
11860W        W84186  28.936   1.641  11.657
11861W        W84187  16.831  21.186   1.823
11862W        W84188   9.842  30.024   4.666
11863W        W84189  22.201   7.894  13.042
11864W        W84190  37.905  23.284   4.845
11865W        W84191  32.789  30.407  11.650
11866W        W84192  27.228  33.593   3.622
11867W        W84193   9.914  12.792   4.611
11868W        W84194  28.361   8.788  13.593
11869W        W84195  13.246   6.306  13.767
11870W        W84196  43.503  43.534   3.781
11871W        W84197  11.364  22.261  12.879
11872W        W84198  28.406  33.663  11.722
11873W        W84199  28.927  21.100  13.371
11874W        W84200  27.928  44.309  13.665
11875W        W84201   6.836  20.223   3.365
11876W        W84202  31.976  28.861  14.567
11877W        W84203   4.927  13.619  11.587
11878W        W84204  10.856  41.418   4.552
11879W        W84205  41.024  32.234  13.652
11880W        W84206  23.512  30.709   4.162
11881W        W84207  13.619  27.828  12.303
11882W        W84208  36.200  26.886   1.725
11883W        W84209  44.903   2.808   3.058
11884W        W84210   9.820   9.140  14.832
11885W        W84211  37.889  13.192   0.738
11886W        W84212  35.823  23.502   4.067
11887W        W84213  32.052  34.100  14.401
11888W        W84214  30.987  22.987   4.307
11889W        W84215   0.963   7.162  11.158
11890W        W84216  31.567  32.890  14.439
11891W        W84217  36.301  30.652   4.050
11892W        W84218  36.868  20.159  11.674
11893W        W84219  43.553   2.430  11.046
11894W        W84220  21.780  21.547   0.463
11895W        W84221  43.103  29.975   4.581
11896W        W84222  16.640  24.241   1.944
11897W        W84223  37.669  22.160  12.996
11898W        W84224  17.135   6.810   2.704
11899W        W84225  14.898  10.190  12.084
11900W        W84226  16.788  12.622   0.104
11901W        W84227  21.838  40.946  12.771
11902W        W84228  18.332  14.057   4.644
11903W        W84229  36.874  28.719  14.506
11904W        W84230  23.569  32.684  10.941
11905W        W84231   9.845  40.342  13.325
11906W        W84232  23.453   8.425   2.258
11907W        W84233  37.509  19.993   3.264
11908W        W84234  43.649  39.385   1.181
11909W        W84235  17.066   0.721   2.337
11910W        W84236  12.101  44.495  11.539
11911W        W84237  42.522  10.916  12.481
11912W        W84238  23.644   2.473   2.237
11913W        W84239  10.058  19.296  11.767
11914W        W84240   7.690  41.093   1.809
11915W        W84241   2.053  42.799  11.772
11916W        W84242  44.979  29.551  11.856
11917W        W84243  36.495  23.644   4.220
11918W        W84244  16.746   5.350  14.969
11919W        W84245  14.294   6.240  14.013
11920W        W84246   5.233  23.958   3.391
11921W        W84247  25.471   0.960   9.501
11922W        W84248  25.510  16.807  13.520
11923W        W84249  21.457  27.769   2.723
11924W        W84250   7.455  24.906  12.010
11925W        W84251  21.593  40.096   4.083
11926W        W84252   2.267   4.296  13.891
11927W        W84253  43.470  22.194   1.810
11928W        W84254  16.050   7.299   2.660
11929W        W84255  21.579  11.205  13.575
11930W        W84256   0.148  10.582   0.354
11931W        W84257  40.029  11.083   3.171
11932W        W84258   0.993   2.449  14.777
11933W        W84259   6.433  15.252  13.789
11934W        W84260  42.710   0.970  14.290
11935W        W84261   1.823  12.607   1.505
11936W        W84262  29.042   4.950   4.600
11937W        W84263  37.437  37.329  10.340
11938W        W84264  19.070  23.660   4.210
11939W        W84265  30.151  35.517  13.447
11940W        W84266  29.037  14.694   2.316
11941W        W84267  40.948  14.807   4.183
11942W        W84268  31.196  25.684  14.267
11943W        W84269  31.033   2.706  14.453
11944W        W84270   0.659  43.976   2.300
11945W        W84271  11.730  22.457  14.099
11946W        W84272   7.817  10.376   0.642
11947W        W84273  40.500  35.582   0.346
11948W        W84274  20.632  32.605   2.752
11949W        W84275  10.484  33.562  11.125
11950W        W84276  15.228  37.758   3.166
11951W        W84277  36.957  11.031  12.282
11952W        W84278  18.384  42.154  14.930
11953W        W84279  23.305  15.604  12.848
11954W        W84280  26.462  34.647   4.078
11955W        W84281  41.877   7.445  10.623
11956W        W84282  27.565  20.808   0.335
11957W        W84283   9.831  30.546  12.954
11958W        W84284  42.246  42.714   3.206
11959W        W84285  35.506  16.389   2.738
11960W        W84286  41.023  20.433   4.348
11961W        W84287   8.677   8.224  14.480
11962W        W84288  22.814  27.456  11.424
11963W        W84289  11.732  43.276   1.246
11964W        W84290  15.763  32.647  10.676
11965W        W84291  42.797  19.566   0.923
11966W        W84292  25.158   1.559   2.860
11967W        W84293  36.882   0.505  11.845
11968W        W84294  42.327   1.406  14.985
11969W        W84295  17.005   5.176  12.048
11970W        W84296  29.519   1.521   0.738
11971W        W84297   2.896  15.746   2.735
11972W        W84298  10.642  33.409  13.363
11973W        W84299  27.382  38.056  13.295
11974W        W84300  34.854   6.284  11.965
11975W        W84301  37.135  27.125   1.926
11976W        W84302  16.684  16.667  10.992
11977W        W84303  12.715  21.287  11.945
11978W        W84304  18.134   9.787  13.025
11979W        W84305   4.725  31.603   0.978
11980W        W84306  19.761  14.779  14.177
11981W        W84307  14.051  43.536   0.699
11982W        W84308  33.954   3.740  10.658
11983W        W84309  28.591  27.775   0.769
11984W        W84310  33.005  31.076   3.561
11985W        W84311   6.422  38.514  12.881
11986W        W84312  35.359  17.570   0.511
11987W        W84313  14.880  41.445  13.479
11988W        W84314  16.338   0.334   3.171
11989W        W84315  12.723  18.983   0.412
11990W        W84316  34.424   6.820   4.733
11991W        W84317   3.690  11.136   4.166
11992W        W84318   1.502  43.222   3.350
11993W        W84319   4.705  30.451  11.951
11994W        W84320   3.297  39.742  10.743
11995W        W84321  33.361   8.147  12.318
11996W        W84322  27.942  37.103  14.250
11997W        W84323   7.578  37.079   0.586
11998W        W84324   9.201  20.122  14.668
11999W        W84325  19.104  38.400   2.221
12000W        W84326  20.752   6.965   1.280
12001W        W84327  24.039   2.568   1.892
12002W        W84328  14.660  34.906   4.081
12003W        W84329  37.787  17.906  11.553
12004W        W84330  28.213  10.199   1.815
12005W        W84331   1.891  44.540   4.616
12006W        W84332  26.978  37.652   1.845
12007W        W84333  18.633  17.052   1.735
12008W        W84334  14.869  39.193   1.315
12009W        W84335  17.641   1.269   3.900
12010W        W84336  41.750  44.949   4.232
12011W        W84337  26.501  25.900   2.480
12012W        W84338  39.385  31.609   3.395
12013W        W84339  18.510  39.455  11.234
12014W        W84340  42.776   0.246  11.504
12015W        W84341  20.605   6.196   4.862
12016W        W84342  35.698   9.107  12.817
12017W        W84343  20.159  15.367  14.755
12018W        W84344  33.677  43.074   4.370
12019W        W84345  24.324  22.382  12.133
12020W        W84346  17.818  30.685  11.095
12021W        W84347  34.294  16.027  10.817
12022W        W84348   1.869   0.050   4.636
12023W        W84349  26.146  28.637   4.590
12024W        W84350  25.703  22.209  13.487
12025W        W84351  33.002   4.043   0.808
12026W        W84352  26.472   7.010   1.618
12027W        W84353  25.143  39.033   2.913
12028W        W84354  29.920  40.434   4.790
12029W        W84355  38.277  37.988   2.292
12030W        W84356   9.863  30.465  14.843
12031W        W84357  13.176  42.315  13.907
12032W        W84358  27.894  44.287  13.145
12033W        W84359  27.516  20.199  13.610
12034W        W84360   3.904  41.288  12.144
12035W        W84361   1.178  26.096   2.710
12036W        W84362   2.826  13.434  12.524
12037W        W84363  43.546  10.090   0.420
12038W        W84364  25.018   7.764  12.432
12039W        W84365  39.423  28.965   2.621
12040W        W84366  14.281  32.828  11.751
12041W        W84367  38.871   5.264   2.920
12042W        W84368   1.866   8.449  14.683
12043W        W84369  10.411  19.737   1.769
12044W        W84370  36.935  41.350   4.465
12045W        W84371  29.038   8.503   1.715
12046W        W84372  15.765  21.014   1.297
12047W        W84373  24.127  43.502  10.892
12048W        W84374  34.306   2.656  12.016
12049W        W84375  31.090  30.987   0.919
12050W        W84376  19.692   9.718   4.916
12051W        W84377  25.984  12.343  14.224
12052W        W84378  40.725  39.039  13.969
12053W        W84379  14.249  21.195   2.202
12054W        W84380   6.877  16.695  13.877
12055W        W84381  17.156  41.397   1.432
12056W        W84382  44.575  15.720  10.521
12057W        W84383   3.332  15.262  12.053
12058W        W84384  30.092  24.666  11.918
12059W        W84385  42.682  23.035   3.721
12060W        W84386   8.765   1.786  14.207
12061W        W84387  25.770  36.032   1.009
12062W        W84388  17.475  38.295  11.940
12063W        W84389  23.855  14.169  11.472
12064W        W84390  24.244  22.970  14.012
12065W        W84391  36.537  23.713  14.403
12066W        W84392  40.601  20.130  12.644
12067W        W84393   3.416   6.654  13.503
12068W        W84394  21.757  36.453  14.757
12069W        W84395  27.070  15.084  12.052
12070W        W84396  41.343  37.448  13.406
12071W        W84397  23.176  44.990   2.845
12072W        W84398  35.546  33.552   1.603
12073W        W84399  29.940  31.571   2.151
12074W        W84400  43.283  44.721  10.488
12075W        W84401   9.406  28.184  11.878
12076W        W84402  44.695   3.315  11.131
12077W        W84403   4.838  19.193  14.904
12078W        W84404   2.819  27.036   0.236
12079W        W84405  26.121   7.661  10.579
12080W        W84406  40.988  12.060   3.791
12081W        W84407   0.493   7.881  13.384
12082W        W84408   8.295  41.420   4.360
12083W        W84409  41.517  13.195   3.613
12084W        W84410  41.513  25.440   5.038
12085W        W84411  23.149  36.259  10.730
12086W        W84412   9.853  27.095  10.789
12087W        W84413  16.082  34.984  10.746
12088W        W84414  21.892  32.924  10.576
12089W        W84415  16.618  40.550  14.512
12090W        W84416  13.993  13.797  12.445
12091W        W84417  31.459   1.021   4.838
12092W        W84418  33.911   5.689   1.916
12093W        W84419  10.129  22.187   4.718
12094W        W84420  44.420  33.935  11.782
12095W        W84421   1.419  16.363  14.765
12096W        W84422  17.886  35.994   0.480
12097W        W84423  34.401  32.372   3.212
12098W        W84424   1.892  37.881  11.508
12099W        W84425  33.000  34.109   4.971
12100W        W84426  28.122  15.189  12.882
12101W        W84427  18.179  40.796  11.452
12102W        W84428   4.302  14.521   4.105
12103W        W84429  35.039  16.551  12.946
12104W        W84430   2.242  11.385  12.484
12105W        W84431   3.199  25.052  14.305
12106W        W84432  17.481  30.721  12.546
12107W        W84433   5.365   1.467  14.803
12108W        W84434  18.791  19.027   4.341
12109W        W84435   1.293  28.067  14.246
12110W        W84436  13.843   8.597  12.533
12111W        W84437  37.005  30.515   4.513
12112W        W84438  22.376  43.091  11.598
12113W        W84439   4.619   0.424   2.649
12114W        W84440   6.301   2.445  10.562
12115W        W84441   8.327  29.300  12.125
12116W        W84442  19.667  19.486  13.045
12117W        W84443  22.212  21.719   0.178
12118W        W84444  28.043  30.874  14.975
12119W        W84445  30.552   0.132  10.714
12120W        W84446  36.296  18.199   0.711
12121W        W84447   8.241  19.330  12.539
12122W        W84448  18.063   3.293  12.620
12123W        W84449   7.796  16.247  12.887
12124W        W84450  26.401   0.394  13.833
12125W        W84451  31.252   9.305  14.286
12126W        W84452  31.099  30.855   4.832
12127W        W84453  23.065  13.793   4.009
12128W        W84454   7.189  35.296  14.032
12129W        W84455  11.702   7.505   5.391
12130W        W84456  43.843   5.338  14.283
12131W        W84457  23.996  25.931  12.373
12132W        W84458  43.794  39.861   2.372
12133W        W84459   4.201  20.215   4.421
12134W        W84460   2.270  19.511   0.334
12135W        W84461  14.274   5.181   2.359
12136W        W84462  39.314   3.195  11.588
12137W        W84463  41.561  32.929   3.551
12138W        W84464  39.885  23.618   1.651
12139W        W84465   5.411  26.730  13.058
12140W        W84466  38.385  24.755   2.678
12141W        W84467  38.826  10.758  13.488
12142W        W84468  20.075  27.990  11.739
12143W        W84469  15.393  10.177  12.030
12144W        W84470  26.632  29.439   3.390
12145W        W84471   7.880  12.762  12.015
12146W        W84472  31.977  43.882  13.985
12147W        W84473  41.144  32.459  12.468
12148W        W84474  30.133  31.452  14.633
12149W        W84475  20.121  41.952   3.855
12150W        W84476   4.725  42.714  14.983
12151W        W84477  26.506   8.718   0.831
12152W        W84478  10.168  28.971  12.378
12153W        W84479   8.520  27.695   0.632
12154W        W84480  17.808   3.686  13.309
12155W        W84481   4.486   7.586   1.137
12156W        W84482   3.401   0.855   1.469
12157W        W84483  12.370  41.006  13.829
12158W        W84484  13.667   5.978  14.480
12159W        W84485  30.449  18.629  13.546
12160W        W84486  30.562  13.348   1.011
12161W        W84487  37.897  12.109  10.373
12162W        W84488  15.527   8.710  11.194
12163W        W84489   4.670  27.920   4.125
12164W        W84490   3.495  12.582   4.158
12165W        W84491  19.086  16.689  14.207
12166W        W84492  38.280   8.686   4.102
12167W        W84493  36.900  42.732  14.186
12168W        W84494  22.616   1.894  12.353
12169W        W84495   2.817  21.506  11.098
12170W        W84496  35.164  12.382  10.401
12171W        W84497  24.118   6.093   0.536
12172W        W84498  41.987  19.649  11.927
12173W        W84499   8.127  23.559  13.865
12174W        W84500  24.012  39.228   3.157
12175W        W84501  44.391   4.928   2.215
12176W        W84502  15.852  42.423   3.660
12177W        W84503  17.691  38.873  11.562
12178W        W84504  36.028  12.883   0.741
12179W        W84505  36.291  11.836   3.602
12180W        W84506  25.558  23.057   0.845
12181W        W84507  41.785  15.834   4.066
12182W        W84508  14.079  17.683  10.616
12183W        W84509  34.938  40.939   4.260
12184W        W84510  25.137  18.239  11.358
12185W        W84511   1.425  29.063  14.337
12186W        W84512  15.207  35.611   3.396
12187W        W84513  41.623  44.034  14.019
12188W        W84514  27.687  16.591  10.406
12189W        W84515   0.304  40.502  13.875
12190W        W84516  35.146   1.296   3.974
12191W        W84517   5.197   2.716  12.912
12192W        W84518  21.688  19.771   0.912
12193W        W84519   7.107  20.131   2.120
12194W        W84520  33.074   1.014   1.952
12195W        W84521  42.512  25.588  10.517
12196W        W84522  39.778   9.261   3.577
12197W        W84523   1.474  13.717  13.557
12198W        W84524  39.931  41.571  11.180
12199W        W84525  16.572  20.069  14.944
12200W        W84526  35.892  43.041   1.507
12201W        W84527  19.051  29.912   1.699
12202W        W84528  24.014  29.982  12.470
12203W        W84529  22.092  40.394  11.784
12204W        W84530  28.969  24.086   4.830
12205W        W84531  24.541  37.330  14.544
12206W        W84532  11.157  14.442   4.877
12207W        W84533  37.654  29.031  11.885
12208W        W84534   0.820  15.684  12.140
12209W        W84535  31.677  42.905  14.260
12210W        W84536  14.071  20.697  13.516
12211W        W84537  34.862  33.611   9.752
12212W        W84538  18.450  44.571  10.367
12213W        W84539   5.916  37.207   3.961
12214W        W84540  41.432  15.239   3.302
12215W        W84541  43.764   2.167  10.628
12216W        W84542  13.680   1.840  13.963
12217W        W84543  34.395   7.286  12.257
12218W        W84544  20.634  32.559   2.243
12219W        W84545   9.430  31.618   4.158
12220W        W84546  26.374  10.156   0.986
12221W        W84547   3.993  28.492   3.421
12222W        W84548  20.899  28.595  14.322
12223W        W84549  36.220  16.307  13.451
12224W        W84550  37.077  11.580   2.001
12225W        W84551  10.431  40.231   3.158
12226W        W84552  37.840  30.229   1.399
12227W        W84553   6.659  40.897   1.113
12228W        W84554  23.910  27.213   3.583
12229W        W84555  30.431  19.505  14.290
12230W        W84556  31.887  19.856   1.041
12231W        W84557  31.068   4.641   3.849
12232W        W84558  36.568  42.251  11.053
12233W        W84559   3.895  36.863   4.541
12234W        W84560  37.398  27.090   2.843
12235W        W84561  42.858   6.224  13.966
12236W        W84562  44.819  22.443   0.984
12237W        W84563  44.250  27.464   0.580
12238W        W84564   4.196  40.908  10.832
12239W        W84565  24.085  39.797  11.984
12240W        W84566   9.400  19.793  13.524
12241W        W84567  18.421   2.665   0.462
12242W        W84568  16.902  32.629   4.529
12243W        W84569  17.810  39.497  13.258
12244W        W84570  31.407  23.701  10.734
12245W        W84571  25.633  11.928  12.669
12246W        W84572   5.228  17.605   0.352
12247W        W84573  38.719  11.040  10.256
12248W        W84574  11.808   0.058  14.835
12249W        W84575   8.200  35.412   0.791
12250W        W84576  13.860   9.661   1.349
12251W        W84577  20.481  20.765  14.816
12252W        W84578  19.589  12.980  14.279
12253W        W84579  40.464  26.077   2.002
12254W        W84580  29.803  43.750  12.497
12255W        W84581  32.640  21.576  10.735
12256W        W84582   2.600  27.170  13.262
12257W        W84583  22.487  43.873  14.510
12258W        W84584  16.590  11.046  10.598
12259W        W84585  11.879  36.227   2.612
12260W        W84586  21.711  26.463   2.177
12261W        W84587  22.208  32.500  10.521
12262W        W84588  18.633  39.227   2.208
12263W        W84589  26.498   3.514   4.533
12264W        W84590   3.834  11.964   2.950
12265W        W84591   5.690  41.232  14.871
12266W        W84592  10.707  19.833   2.165
12267W        W84593  24.546  20.530  11.993
12268W        W84594  43.459  28.112   4.210
12269W        W84595   3.383  10.203   0.526
12270W        W84596  29.443  32.941   3.402
12271W        W84597   2.726  21.009  11.145
12272W        W84598  20.265  39.560   3.426
12273W        W84599  14.739   2.417  11.985
12274W        W84600   6.798  15.300  12.029
12275W        W84601  16.726  31.531  11.161
12276W        W84602  21.067  28.423  13.862
12277W        W84603  33.689  25.139   1.372
12278W        W84604   9.937   6.810   0.568
12279W        W84605  37.669  39.177  11.848
12280W        W84606  44.440  35.344  12.006
12281W        W84607  31.901   1.430  10.624
12282W        W84608  32.547  12.217   4.822
12283W        W84609  35.338  18.088   1.735
12284W        W84610   0.551  36.167  13.206
12285W        W84611  26.308  29.588   2.406
12286W        W84612   8.141  28.142  12.580
12287W        W84613   5.424  42.491   2.354
12288W        W84614  17.748  21.807   3.856
12289W        W84615   2.041  33.497  11.553
12290W        W84616   1.241   7.496   4.627
12291W        W84617  43.365   8.922   2.135
12292W        W84618   5.884   7.436   0.882
12293W        W84619  23.676  29.587   1.671
12294W        W84620  11.750  28.773   1.398
12295W        W84621  42.325   0.358   2.793
12296W        W84622  29.048  26.626   4.755
12297W        W84623  11.090  27.053   3.135
12298W        W84624  38.312  10.743   9.600
12299W        W84625   3.290   2.200   3.286
12300W        W84626   3.052  33.034   3.018
12301W        W84627  14.752  33.500  10.110
12302W        W84628  21.338  36.333  14.016
12303W        W84629  25.400  35.983   2.085
12304W        W84630  26.954  11.379  13.450
12305W        W84631  17.544  39.466  10.767
12306W        W84632  40.928   8.855  11.607
12307W        W84633  15.582  32.583  11.164
12308W        W84634   6.441  42.883  13.479
12309W        W84635   8.241  23.687  12.836
12310W        W84636  39.829  24.154  12.112
12311W        W84637   7.879  44.320   3.176
12312W        W84638  23.046  40.568   3.628
12313W        W84639  10.343   8.258   2.409
12314W        W84640  36.987  26.177  14.908
12315W        W84641  38.558  27.770  14.916
12316W        W84642  12.308  28.390   4.123
12317W        W84643  20.113  26.415  14.548
12318W        W84644  32.399  27.719   4.122
12319W        W84645  36.955  33.231  14.901
12320W        W84646  12.527  26.583  10.614
12321W        W84647  36.969  42.051  11.307
12322W        W84648  19.683  30.100  12.632
12323W        W84649  39.419  32.448   4.530
12324W        W84650  40.791  40.569   0.926
12325W        W84651  42.984  36.357   1.652
12326W        W84652  20.299  11.267   1.715
12327W        W84653  15.631  13.306   4.173
12328W        W84654  35.056  34.474   4.617
12329W        W84655  31.895  14.050   4.114
12330W        W84656   8.069  15.698   4.459
12331W        W84657  13.286  10.566   3.862
12332W        W84658  38.102  17.266   1.789
12333W        W84659   0.086  27.798   0.640
12334W        W84660  19.119  18.296   4.125
12335W        W84661   7.682  23.981   3.141
12336W        W84662  23.597  28.856  11.605
12337W        W84663  40.206  35.072  13.395
12338W        W84664   2.671  11.699   3.633
12339W        W84665  36.831   4.894   2.296
12340W        W84666  12.267  27.215  11.848
12341W        W84667  32.225  25.059  13.593
12342W        W84668  44.284  27.143   1.431
12343W        W84669  16.348  12.183   1.183
12344W        W84670  40.834  10.863  11.719
12345W        W84671   9.349  39.007   4.411
12346W        W84672  28.114  33.923  14.853
12347W        W84673   0.742  16.679   0.737
12348W        W84674  17.567  39.027   4.467
12349W        W84675  39.981   9.986  14.277
12350W        W84676  35.505  29.482   3.311
12351W        W84677  16.693   9.943  11.302
12352W        W84678  21.727  42.411  10.899
12353W        W84679  17.232  23.266  14.715
12354W        W84680  11.872   2.678   0.953
12355W        W84681   3.268  12.414   0.410
12356W        W84682  31.189  10.890   2.981
12357W        W84683  44.302   0.782  10.673
12358W        W84684  19.558  21.686   1.482
12359W        W84685  15.216  35.641  14.027
12360W        W84686   8.635   3.833  13.554
12361W        W84687  23.174  39.558  10.289
12362W        W84688  18.042   6.001  14.886
12363W        W84689  20.414  39.885  11.659
12364W        W84690  43.412  41.429   1.935
12365W        W84691  17.031  19.159  13.099
12366W        W84692  41.550  32.537   3.238
12367W        W84693  30.598  42.439  12.460
12368W        W84694  14.106  15.930  12.979
12369W        W84695  15.893  41.890   0.323
12370W        W84696  20.535   5.882  12.977
12371W        W84697  23.040  36.490   2.909
12372W        W84698   8.784  28.538   2.582
12373W        W84699   8.457  33.489   0.340
12374W        W84700   7.821  18.712   3.103
12375W        W84701  33.169   1.184   3.353
12376W        W84702  24.106  29.036   4.891
12377W        W84703  24.882  25.291   4.367
12378W        W84704  29.064  37.777  11.007
12379W        W84705  39.969  27.407   4.626
12380W        W84706  37.613   1.437   2.085
12381W        W84707   1.836   0.811   3.360
12382W        W84708  44.040   1.389  13.508
12383W        W84709  17.712   7.178   2.186
12384W        W84710  19.152   0.061   2.227
12385W        W84711  32.234  16.167  12.381
12386W        W84712  18.710  31.181  13.301
12387W        W84713  13.432  36.035  14.239
12388W        W84714   6.264  39.318  10.682
12389W        W84715  35.040  19.155   1.194
12390W        W84716   6.453  38.978   2.265
12391W        W84717  24.151  29.495  10.532
12392W        W84718  17.804  28.530  13.518
12393W        W84719  24.490   7.739  13.811
12394W        W84720   1.222  19.300   0.759
12395W        W84721  30.437  34.432  11.038
12396W        W84722  19.002  41.484  10.231
12397W        W84723  27.960  10.750  13.517
12398W        W84724  41.124   4.481   4.138
12399W        W84725  32.540  19.928  14.945
12400W        W84726   2.388  19.474   3.690
12401W        W84727  26.177  32.009  14.339
12402W        W84728  30.689  34.366  10.593
12403W        W84729  19.826   5.242  13.075
12404W        W84730  15.650  31.059   4.703
12405W        W84731   8.173  30.640  11.596
12406W        W84732  18.990  14.322   4.118
12407W        W84733  11.164   7.508  12.400
12408W        W84734   0.545  43.629  12.905
12409W        W84735  32.393  13.141  14.101
12410W        W84736  12.790  35.061   2.959
12411W        W84737  29.821  34.605   9.880
12412W        W84738   6.325  14.710  11.739
12413W        W84739  41.868  23.947  14.458
12414W        W84740   0.421  41.401   1.810
12415W        W84741  27.144   0.222  12.428
12416W        W84742  41.993   6.002   3.314
12417W        W84743  16.657  19.271  13.414
12418W        W84744  15.107  44.144  13.431
12419W        W84745  20.547   7.166   0.758
12420W        W84746  24.670  16.044   4.482
12421W        W84747   4.254  43.300   1.849
12422W        W84748  26.431  19.309  12.807
12423W        W84749  36.860  39.382   2.687
12424W        W84750  42.496  13.116   4.022
12425W        W84751  16.694   4.225   3.340
12426W        W84752   6.058  12.656   0.901
12427W        W84753  43.369  33.083   1.944
12428W        W84754  28.091   9.650   3.664
12429W        W84755  34.507   3.807  10.709
12430W        W84756  23.631  28.254   1.346
12431W        W84757  24.163  31.481  12.804
12432W        W84758  29.896  17.731  11.361
12433W        W84759   9.347  27.972  13.339
12434W        W84760  20.306  10.936  13.828
12435W        W84761   1.873  18.024  14.402
12436W        W84762  39.366  22.307  11.225
12437W        W84763   4.362  44.967  14.738
12438W        W84764  10.191  37.575  12.982
12439W        W84765  33.406  23.363  10.262
12440W        W84766  31.136  33.186   3.108
12441W        W84767   3.762  20.685   0.246
12442W        W84768  23.998  13.212   2.518
12443W        W84769  41.858  29.415  14.418
12444W        W84770  33.471  41.490  13.867
12445W        W84771   1.260  29.598  11.633
12446W        W84772  37.767  16.639  13.656
12447W        W84773  29.542  29.883  11.129
12448W        W84774   6.356  24.785  13.298
12449W        W84775  32.089  16.156   1.778
12450W        W84776  36.843   7.106  14.085
12451W        W84777  16.179  34.824   4.169
12452W        W84778   6.624  21.004   3.660
12453W        W84779   3.517   9.431  12.467
12454W        W84780  42.725  15.374   2.430
12455W        W84781  33.629  22.270  14.061
12456W        W84782   6.751  30.219   0.221
12457W        W84783  17.090  24.101  11.241
12458W        W84784  22.409  24.374   4.573
12459W        W84785  37.082  25.449   3.749
12460W        W84786   7.869  38.212  12.237
12461W        W84787  15.785  42.015   2.355
12462W        W84788  10.068  26.558  14.491
12463W        W84789  39.838  31.129  14.855
12464W        W84790   3.786  30.655   3.270
12465W        W84791  19.488  24.869  14.925
12466W        W84792  10.207  11.640   4.152
12467W        W84793  33.767  13.401   5.132
12468W        W84794   3.501  19.970  14.360
12469W        W84795  36.132  35.432   0.170
12470W        W84796  27.362   4.594   3.046
12471W        W84797   7.548  36.330  11.607
12472W        W84798  38.944  20.742  14.597
12473W        W84799  19.651  37.834  13.906
12474W        W84800  28.216   6.240   4.328
12475W        W84801  28.479  30.371   4.026
12476W        W84802  13.398  26.229  14.403
12477W        W84803  37.335  22.516  13.177
12478W        W84804   8.265  43.438  11.064
12479W        W84805  43.948  29.163  12.170
12480W        W84806  11.824   6.670   1.830
12481W        W84807  40.049   6.875   0.434
12482W        W84808  43.342  23.644  14.419
12483W        W84809   0.467  28.976   2.116
12484W        W84810   4.244   3.385   0.270
12485W        W84811  24.261   2.685  11.617
12486W        W84812  25.942  31.426   3.808
12487W        W84813  20.595   4.504   3.726
12488W        W84814  32.889   6.462  12.057
12489W        W84815  12.805  34.894  12.452
12490W        W84816  42.102  25.766  11.229
12491W        W84817  14.040  19.214  14.208
12492W        W84818  14.094   3.801  14.928
12493W        W84819  28.636  22.636   3.249
12494W        W84820  35.042  41.981   3.100
12495W        W84821  22.787  29.522  10.944
12496W        W84822  24.245  16.390   1.336
12497W        W84823  38.817  14.834  10.951
12498W        W84824  15.697  23.817   9.967
12499W        W84825  31.266   6.382  11.975
12500W        W84826   8.853  37.883  11.100
12501W        W84827   6.831  44.177   0.996
12502W        W84828  21.426  36.839  14.027
12503W        W84829  31.942  28.711  12.592
12504W        W84830  29.583   8.653   0.476
12505W        W84831   4.901   1.256  14.947
12506W        W84832  36.454   7.774   0.508
12507W        W84833  25.084  32.904  12.935
12508W        W84834  44.498   5.281  13.431
12509W        W84835  19.670  12.907   0.833
12510W        W84836  13.797  24.214   2.653
12511W        W84837  32.478  12.625   3.589
12512W        W84838  28.006  31.772  12.082
12513W        W84839  13.815   2.265   2.778
12514W        W84840   0.225  32.554   3.792
12515W        W84841   4.816  10.377   1.079
12516W        W84842  17.091  43.430  13.034
12517W        W84843  44.218   8.718  14.242
12518W        W84844  33.986  28.679  11.926
12519W        W84845   1.407  38.835  12.547
12520W        W84846   8.103  39.861  12.881
12521W        W84847  30.472   8.157   3.176
12522W        W84848  25.829   4.120   4.952
12523W        W84849  28.193  23.000  11.714
12524W        W84850  19.061  18.606   3.144
12525W        W84851   3.227  42.028   4.451
12526W        W84852  16.250   3.702  12.951
12527W        W84853   2.766  37.473   1.524
12528W        W84854  33.030  17.017   3.681
12529W        W84855  36.413  22.304   3.843
12530W        W84856  37.799  31.899  14.259
12531W        W84857   7.160  32.056   3.782
12532W        W84858  39.087  39.559  13.520
12533W        W84859   9.564  37.926  11.737
12534W        W84860  40.609   2.117  11.267
12535W        W84861  33.462   9.772  14.981
12536W        W84862  14.986  17.649  10.363
12537W        W84863  25.451  24.059   1.926
12538W        W84864  32.379  41.384   2.592
12539W        W84865  37.457  18.716  12.642
12540W        W84866  43.762  28.567   1.463
12541W        W84867   1.782  29.340  11.492
12542W        W84868   1.030  17.500   1.274
12543W        W84869  35.253  35.599  11.112
12544W        W84870  43.444  39.874  10.830
12545W        W84871  28.037   0.316  10.722
12546W        W84872   7.334  25.988   1.781
12547W        W84873  33.338   1.490  13.039
12548W        W84874  35.673  18.328  13.931
12549W        W84875  19.661  32.820   4.670
12550W        W84876  34.893  34.963  13.343
12551W        W84877  11.873  26.725   1.965
12552W        W84878  12.527   6.819  13.875
12553W        W84879  13.392  22.696   1.700
12554W        W84880   4.443  10.584  14.876
12555W        W84881  17.204  18.860   1.409
12556W        W84882  25.113  26.014   1.794
12557W        W84883  31.136  19.980  14.867
12558W        W84884  24.720   8.938  11.061
12559W        W84885   1.685   0.827  11.039
12560W        W84886  29.848  27.972  14.866
12561W        W84887  26.416  43.041  12.390
12562W        W84888   7.639  43.042  14.034
12563W        W84889   6.911  11.582  10.646
12564W        W84890  30.556  24.717  12.152
12565W        W84891  17.046  26.537   4.154
12566W        W84892   2.775   5.406   5.336
12567W        W84893  21.205  42.560  14.823
12568W        W84894  12.435  13.825  13.011
12569W        W84895  17.785  21.061   2.670
12570W        W84896  19.092  42.869   0.241
12571W        W84897  33.840  13.344  12.877
12572W        W84898  19.474  33.086  11.012
12573W        W84899   2.365  39.109   4.501
12574W        W84900   2.556  24.460  14.785
12575W        W84901  43.832  25.930   4.120
12576W        W84902  16.302   8.110   0.303
12577W        W84903  11.102  25.094   0.655
12578W        W84904  28.536  28.450   9.763
12579W        W84905   1.273  36.939  12.345
12580W        W84906  40.765  15.643   1.700
12581W        W84907   9.279  41.099  13.302
12582W        W84908   0.840  22.487   0.317
12583W        W84909  30.258   4.788  11.641
12584W        W84910  41.245  23.063   3.643
12585W        W84911  28.649  14.364   3.906
12586W        W84912  35.590  29.995  12.481
12587W        W84913  25.382  15.035  13.470
12588W        W84914  31.002  33.156  12.807
12589W        W84915   6.451  42.296   0.861
12590W        W84916   3.427  44.518  14.880
12591W        W84917   1.844  33.132   3.355
12592W        W84918   0.567  43.004  11.555
12593W        W84919  27.171  14.294  13.818
12594W        W84920  27.921  44.298   0.327
12595W        W84921  19.768   3.173   4.306
12596W        W84922  25.419  33.959  11.625
12597W        W84923  20.253  34.852   1.397
12598W        W84924  26.260   8.843   0.162
12599W        W84925   5.149  29.566   2.690
12600W        W84926   7.968  13.293  12.544
12601W        W84927  43.972  44.721   0.878
12602W        W84928  29.993  27.424  14.248
12603W        W84929  21.462  34.026  10.709
12604W        W84930  39.804  17.655   1.520
12605W        W84931   5.156  44.697  11.541
12606W        W84932   2.226  14.405   1.861
12607W        W84933  35.401  13.550  10.438
12608W        W84934  11.820  34.622   1.241
12609W        W84935   1.857  25.310   2.791
12610W        W84936  39.413   1.300   2.712
12611W        W84937   9.216  28.976  10.516
12612W        W84938  34.121  19.147  14.017
12613W        W84939  37.806  10.884   2.883
12614W        W84940  16.172  42.212  13.414
12615W        W84941  24.070  37.431   3.810
12616W        W84942   0.833  18.634   4.380
12617W        W84943  24.517   0.490   0.891
12618W        W84944  14.675  25.575   0.192
12619W        W84945  12.184   9.919  14.998
12620W        W84946  27.184  42.042   3.726
12621W        W84947  22.677  11.898  13.570
12622W        W84948   7.450   0.281   2.346
12623W        W84949  18.464  15.076   3.313
12624W        W84950  32.164  43.053   3.212
12625W        W84951  26.013   7.362   2.449
12626W        W84952  14.812  23.919  11.371
12627W        W84953  20.346  43.446  11.866
12628W        W84954   3.305  21.233   0.819
12629W        W84955  17.815  28.951   1.189
12630W        W84956  44.019  27.036  11.133
12631W        W84957  13.694   1.003  14.337
12632W        W84958   1.666  21.575  12.482
12633W        W84959  30.547   5.257  14.701
12634W        W84960  15.505  22.500  10.098
12635W        W84961  42.078  22.712   3.642
12636W        W84962  11.327  16.258  10.716
12637W        W84963  20.738  30.478  13.053
12638W        W84964   3.322  25.537   1.770
12639W        W84965  12.277  13.883   3.264
12640W        W84966  16.629  16.337   1.846
12641W        W84967  13.802  41.520  14.991
12642W        W84968  34.825  11.709   3.720
12643W        W84969   5.224   2.867  13.759
12644W        W84970   9.828  38.832   0.221
12645W        W84971  37.541   2.789   1.457
12646W        W84972   3.974   1.797  13.157
12647W        W84973  41.341  20.113   3.627
12648W        W84974  21.887  20.610   4.005
12649W        W84975  26.584  15.167  12.167
12650W        W84976   0.416  33.835   0.830
12651W        W84977  26.515   7.425   0.406
12652W        W84978  33.562   5.393   4.609
12653W        W84979  15.306  30.490   0.924
12654W        W84980   0.908  32.973  13.931
12655W        W84981  25.727  19.457   4.166
12656W        W84982   7.724   8.808  14.939
12657W        W84983  13.077  40.922  12.475
12658W        W84984  43.462  40.301  10.554
12659W        W84985  42.229   4.987   5.136
12660W        W84986   2.832  20.228   1.884
12661W        W84987  13.666   2.470   0.403
12662W        W84988  27.593  11.112   2.185
12663W        W84989  28.850  44.699  13.639
12664W        W84990  36.623  35.955   2.425
12665W        W84991   0.818   1.679   0.875
12666W        W84992  17.690  25.239   3.794
12667W        W84993   6.749  21.988   0.507
12668W        W84994  21.483  10.375  10.585
12669W        W84995  23.912  27.032  13.808
12670W        W84996  40.683  27.740  13.719
12671W        W84997  13.893  24.600   0.058
12672W        W84998  26.239  29.136  12.197
12673W        W84999   3.045   0.139   1.250
12674W        W85000  17.793  31.504  11.538
12675W        W85001   1.668  40.777  12.765
12676W        W85002  23.483   5.733  13.412
12677W        W85003  43.572  32.002  12.130
12678W        W85004  34.430  28.069  13.122
12679W        W85005  29.119   6.447  14.376
12680W        W85006  18.452  33.589  13.515
12681W        W85007  29.229  37.946   0.815
12682W        W85008  30.180   2.177  14.129
12683W        W85009   5.264  31.819   5.046
12684W        W85010  44.347   3.435   2.164
12685W        W85011   2.327  32.925   0.212
12686W        W85012  34.043  10.820   3.105
12687W        W85013  36.778  29.556   0.879
12688W        W85014  17.763   9.068  14.831
12689W        W85015  23.692  10.399   2.306
12690W        W85016  37.565  30.384  14.263
12691W        W85017  36.398  17.216   1.486
12692W        W85018  14.063  41.059  12.213
12693W        W85019  19.970   8.751   4.050
12694W        W85020   8.484  42.625   1.668
12695W        W85021  39.786  37.087   0.052
12696W        W85022  44.127  37.546  10.692
12697W        W85023  24.400  11.719   1.447
12698W        W85024   1.496  30.354   3.769
12699W        W85025  35.852  31.959  13.571
12700W        W85026  20.593  21.258   0.060
12701W        W85027  23.188  27.256  12.972
12702W        W85028  43.972   4.471  14.420
12703W        W85029  40.408  25.214   0.229
12704W        W85030  40.947  44.450   0.482
12705W        W85031  19.035  43.589  11.044
12706W        W85032  41.755  43.810   1.501
12707W        W85033   0.806  38.772   0.776
12708W        W85034  28.864  17.230   0.293
12709W        W85035  14.378  41.397  13.446
12710W        W85036   9.442  16.850  12.429
12711W        W85037  43.415  29.594  13.119
12712W        W85038  15.327  11.749   0.021
12713W        W85039  30.986  16.141   2.308
12714W        W85040   9.663  17.164  11.610
12715W        W85041   4.879  27.913  13.019
12716W        W85042  27.159  40.423  14.267
12717W        W85043  13.881  14.676   0.369
12718W        W85044   2.232  14.074   4.675
12719W        W85045  44.364  40.351  13.801
12720W        W85046  23.541  21.526   1.224
12721W        W85047  17.632   8.681   3.468
12722W        W85048   8.275  15.451  10.158
12723W        W85049  19.950  43.807  12.563
12724W        W85050  17.283  40.155   2.068
12725W        W85051  11.544   0.344  11.379
12726W        W85052  39.587  18.340  14.775
12727W        W85053  16.578   0.479   2.727
12728W        W85054   4.545  27.228  13.249
12729W        W85055  11.702  37.997   1.615
12730W        W85056  12.668  26.264  11.571
12731W        W85057   0.344  17.518  12.061
12732W        W85058  38.239   5.561  13.874
12733W        W85059  23.025  36.224  12.512
12734W        W85060   0.455  13.036   2.020
12735W        W85061  27.130  31.235   0.422
12736W        W85062  20.566  44.310  13.958
12737W        W85063  26.054  44.288  11.139
12738W        W85064  39.748  23.410  12.806
12739W        W85065   3.383   3.734   4.659
12740W        W85066   1.205  17.185  13.634
12741W        W85067  41.489   7.098   4.048
12742W        W85068   8.321  18.582   2.361
12743W        W85069  22.193   0.397  11.432
12744W        W85070   2.114   4.407  10.211
12745W        W85071  12.071   8.846  12.365
12746W        W85072  23.111  44.871  11.454
12747W        W85073  41.308  39.600   0.395
12748W        W85074  38.396   8.242   1.463
12749W        W85075  18.295  35.640   0.705
12750W        W85076  29.457   4.418   0.404
12751W        W85077   3.923  24.716  12.540
12752W        W85078  40.527  25.641   1.735
12753W        W85079  42.198  36.959   2.585
12754W        W85080  13.098  24.469  11.422
12755W        W85081  42.465   8.504  11.918
12756W        W85082  26.702   0.443   1.975
12757W        W85083   5.752  44.287  11.087
12758W        W85084  32.711  24.889  12.498
12759W        W85085  41.673  28.641  13.951
12760W        W85086  39.521  15.566  12.092
12761W        W85087  13.322   1.814   4.397
12762W        W85088  23.280   6.719  13.938
12763W        W85089  19.156  21.751   3.350
12764W        W85090  19.101   6.898  14.466
12765W        W85091   7.999  12.173  12.891
12766W        W85092  28.122   8.465  12.046
12767W        W85093  18.582  27.080   1.173
12768W        W85094  43.987  34.469   1.983
12769W        W85095  33.644  39.138  11.122
12770W        W85096  42.103  34.585  13.938
12771W        W85097   2.849   7.646   2.813
12772W        W85098  11.682  33.453  12.468
12773W        W85099  36.590  30.059   1.022
12774W        W85100  44.567  40.437  12.482
12775W        W85101  14.751  43.456   4.265
12776W        W85102   2.188  14.253  10.225
12777W        W85103  41.495  16.015  11.037
12778W        W85104  41.096  43.831  12.897
12779W        W85105  38.517  21.040   4.817
12780W        W85106  40.862  11.550   4.721
12781W        W85107  10.449   1.974   4.234
12782W        W85108   9.240  29.550   4.413
12783W        W85109  44.803  30.075   2.795
12784W        W85110  19.754  37.995   2.191
12785W        W85111  26.060  37.923   0.947
12786W        W85112  31.358  13.679   2.769
12787W        W85113  34.793   7.192  12.619
12788W        W85114  26.777  27.357   5.214
12789W        W85115  20.505   2.770  11.087
12790W        W85116   6.955   7.280  12.902
12791W        W85117  36.083   1.233   4.158
12792W        W85118  12.167   4.921  13.959
12793W        W85119   4.604   3.956  14.837
12794W        W85120  14.725  13.254   3.987
12795W        W85121  19.954   5.297  13.976
12796W        W85122  17.178  34.828  11.544
12797W        W85123   4.343  40.631   1.216
12798W        W85124   1.748  19.834  11.532
12799W        W85125  24.799  20.532  11.548
12800W        W85126  22.655   7.333   1.048
12801W        W85127  33.376  30.113   1.995
12802W        W85128   9.348  18.342   2.394
12803W        W85129  27.685  19.557   3.317
12804W        W85130   1.279  39.087   1.699
12805W        W85131  30.793  15.575   3.755
12806W        W85132  36.803   4.659  11.204
12807W        W85133  33.183  37.431   0.378
12808W        W85134  22.298  42.385   4.411
12809W        W85135  15.672  36.348   3.606
12810W        W85136   4.112   7.206  11.921
12811W        W85137  43.249  23.851   0.378
12812W        W85138  22.431  21.447   2.753
12813W        W85139   2.536  11.359   1.402
12814W        W85140  26.457   2.411   0.636
12815W        W85141  13.706  38.852   1.263
12816W        W85142   5.462  17.734  10.533
12817W        W85143  14.079  36.656   3.544
12818W        W85144  44.331   1.556  10.332
12819W        W85145   3.967   1.186   2.775
12820W        W85146  14.843  41.987   2.386
12821W        W85147  33.090  20.354   3.365
12822W        W85148  38.814  44.932  10.288
12823W        W85149   0.926  37.457   3.035
12824W        W85150  24.295  21.565   0.200
12825W        W85151  16.810   0.260   2.325
12826W        W85152  34.674  23.105   2.285
12827W        W85153   5.327  11.778   2.613
12828W        W85154  38.008  16.694   4.744
12829W        W85155  38.516   2.402   2.336
12830W        W85156  32.082   7.725  12.097
12831W        W85157  19.770  41.023  12.569
12832W        W85158   6.319  17.016   5.165
12833W        W85159  22.457  33.154   0.915
12834W        W85160  33.699  21.111   4.722
12835W        W85161  26.080  35.340   0.441
12836W        W85162   0.517  20.346   1.447
12837W        W85163  11.381   3.920   0.517
12838W        W85164  18.429  20.655  13.253
12839W        W85165  17.027  21.062   0.876
12840W        W85166  35.052  40.611  10.749
12841W        W85167  32.517  39.578   2.396
12842W        W85168  19.727  23.532  12.538
12843W        W85169  40.023   4.671   3.220
12844W        W85170  22.963  19.660   0.068
12845W        W85171  19.522   3.921   0.251
12846W        W85172  40.849   9.295   4.348
12847W        W85173   5.747  44.297  12.105
12848W        W85174   7.125  24.128  11.569
12849W        W85175  37.020  28.058   3.795
12850W        W85176  34.786  43.914  13.561
12851W        W85177  33.475  29.906  12.831
12852W        W85178  13.063  38.836   1.947
12853W        W85179  17.616   7.710  14.384
12854W        W85180  41.971  20.269   0.287
12855W        W85181  37.961  26.054   0.274
12856W        W85182  23.458   0.538   0.852
12857W        W85183  33.566  10.149   1.901
12858W        W85184  10.119  32.097   4.083
12859W        W85185  39.975  36.075   1.586
12860W        W85186   3.832  44.398  10.265
12861W        W85187  14.264  32.396  12.594
12862W        W85188  33.931   0.038  13.313
12863W        W85189  31.606  25.585  12.474
12864W        W85190  15.230  42.775  11.505
12865W        W85191   1.929  32.205  11.040
12866W        W85192  29.816  14.238  11.629
12867W        W85193  27.203   8.375   1.110
12868W        W85194  33.980  12.827  14.853
12869W        W85195  16.799  12.897   0.920
12870W        W85196  16.626  41.458  13.086
12871W        W85197  14.792   1.200   0.976
12872W        W85198  19.988  24.749   1.471
12873W        W85199  34.993  12.728   2.889
12874W        W85200  30.891   2.488  10.659
12875W        W85201  10.779  19.654   3.994
12876W        W85202  41.367  22.471   0.396
12877W        W85203  28.268  14.245   4.256
12878W        W85204   4.170  25.672   0.377
12879W        W85205  27.170  20.625   3.479
12880W        W85206  39.357  28.409  14.267
12881W        W85207   0.928  19.527   4.166
12882W        W85208  42.299   7.583   4.540
12883W        W85209   6.126  33.380   1.839
12884W        W85210  33.637  22.844   3.228
12885W        W85211  13.345   8.721  12.410
12886W        W85212  16.295  21.098   2.950
12887W        W85213  29.255  14.513  12.485
12888W        W85214  34.009   7.680   2.193
12889W        W85215  12.737  39.065  11.070
12890W        W85216  13.165  36.756   5.469
12891W        W85217  37.043  31.127   0.515
12892W        W85218  44.973  29.124  11.532
12893W        W85219  22.991  13.411  10.833
12894W        W85220  42.439  36.380   0.433
12895W        W85221  20.773  34.579  13.858
12896W        W85222  44.031   1.217  14.023
12897W        W85223  24.111  31.843  10.491
12898W        W85224   7.270  32.898  11.631
12899W        W85225  43.630  15.800   0.271
12900W        W85226   1.358  41.895   0.919
12901W        W85227  20.919   9.631  10.735
12902W        W85228   3.083  42.116   0.473
12903W        W85229  21.773  10.269   1.460
12904W        W85230  37.389  23.217  11.135
12905W        W85231  17.339  32.350  11.490
12906W        W85232  34.349   0.465  10.638
12907W        W85233  15.173  25.608   2.411
12908W        W85234  41.994   5.499   3.147
12909W        W85235   2.777  31.446  11.497
12910W        W85236  16.683   4.560   4.796
12911W        W85237  32.560  13.947  14.944
12912W        W85238   8.662  16.762  14.269
12913W        W85239  36.996  27.596   1.215
12914W        W85240  27.871  38.497  11.108
12915W        W85241  32.839  16.592  14.386
12916W        W85242  30.911  18.046  12.290
12917W        W85243   2.855  30.489   2.911
12918W        W85244  10.215  25.057   4.163
12919W        W85245  12.503  32.328  12.590
12920W        W85246  41.698  23.061  14.303
12921W        W85247  44.456  24.994  14.901
12922W        W85248  16.578  25.234   2.156
12923W        W85249  32.572  44.874   1.784
12924W        W85250  34.067  33.123   2.297
12925W        W85251  27.424  36.284   4.122
12926W        W85252  38.453  40.490   3.446
12927W        W85253   5.196  23.419   3.379
12928W        W85254   2.828  18.046   3.971
12929W        W85255   2.514  15.832  13.381
12930W        W85256  10.184  28.502   3.867
12931W        W85257  18.213   9.802   3.700
12932W        W85258  13.670   0.766   3.816
12933W        W85259  10.129  28.197  14.343
12934W        W85260  10.414  38.156   0.817
12935W        W85261  42.359  18.347   1.371
12936W        W85262  32.088  31.132  11.139
12937W        W85263  30.479   1.854  13.015
12938W        W85264  36.876  32.362  11.503
12939W        W85265  15.572  43.217  11.501
12940W        W85266  24.282  32.442   4.543
12941W        W85267  13.252   6.613   1.725
12942W        W85268  15.289  44.849  11.305
12943W        W85269  28.178  15.935   1.799
12944W        W85270  13.099  31.393   0.895
12945W        W85271  15.067  39.941   0.965
12946W        W85272  20.173  17.956   3.047
12947W        W85273  38.456  38.387   4.749
12948W        W85274  31.694  18.198   1.036
12949W        W85275  17.678  30.404   1.305
12950W        W85276  40.987  38.593   4.286
12951W        W85277  37.832   7.629   4.432
12952W        W85278  25.501   0.342   1.857
12953W        W85279  31.214  15.232  11.421
12954W        W85280  18.638  41.816  13.752
12955W        W85281  42.713  28.759   0.173
12956W        W85282  35.795  35.372  13.183
12957W        W85283   7.789  31.818   0.774
12958W        W85284  36.666  11.582  13.901
12959W        W85285  26.328  25.236  12.960
12960W        W85286  14.706  19.789   1.674
12961W        W85287  15.670   1.864  14.096
12962W        W85288  36.964  12.902   0.769
12963W        W85289   8.891  23.299  11.604
12964W        W85290  31.100  37.108  10.561
12965W        W85291  44.574  12.223   1.227
12966W        W85292  24.155  10.263  13.985
12967W        W85293  22.562   0.654  13.891
12968W        W85294   4.951  40.232   1.271
12969W        W85295  29.275   3.999   2.062
12970W        W85296  15.321  24.322   0.360
12971W        W85297   0.445  27.600   1.491
12972W        W85298  43.737  14.196  13.355
12973W        W85299  38.377  31.148  13.438
12974W        W85300  26.500  34.090   1.162
12975W        W85301   2.304  27.099  11.589
12976W        W85302  38.739  13.155   0.717
12977W        W85303  32.054   9.124   5.182
12978W        W85304   9.606  20.247   2.712
12979W        W85305   8.221  16.862  14.563
12980W        W85306  20.529  28.707   4.355
12981W        W85307  44.470  33.529  13.049
12982W        W85308  32.983   6.042   4.349
12983W        W85309  19.508  13.831   0.511
12984W        W85310   8.680  32.492  13.783
12985W        W85311  21.802   2.017  14.330
12986W        W85312  41.546  40.868   0.534
12987W        W85313   6.925  40.478  12.499
12988W        W85314  41.735  23.874   2.644
12989W        W85315  31.456  44.252  11.206
12990W        W85316  23.273   6.738   0.462
12991W        W85317  44.871  34.559   0.319
12992W        W85318  36.568  28.134  14.452
12993W        W85319  44.567  38.765  13.868
12994W        W85320  41.488  39.933   4.227
12995W        W85321   4.925  40.238   4.616
12996W        W85322  19.821  28.511  10.553
12997W        W85323   1.318  31.578   0.210
12998W        W85324  26.654  37.588   4.243
12999W        W85325   8.811  37.922   3.578
13000W        W85326  41.854  18.248   3.004
13001W        W85327  39.600  37.220   3.291
13002W        W85328  28.552   9.253   4.763
13003W        W85329   1.513  17.549  13.921
13004W        W85330  44.088  38.025   1.681
13005W        W85331  38.829  30.056  14.775
13006W        W85332  37.832  16.845   2.868
13007W        W85333  29.609  31.664  13.962
13008W        W85334  24.259  39.289   3.584
13009W        W85335  15.213   3.911  13.407
13010W        W85336  42.701   8.944  13.952
13011W        W85337  26.720  15.111   4.912
13012W        W85338  14.832  24.165   0.385
13013W        W85339  28.114  23.986   4.520
13014W        W85340   7.302  23.078  12.424
13015W        W85341  18.080  17.580  14.434
13016W        W85342   8.517  22.629  11.993
13017W        W85343   7.321  36.743  14.116
13018W        W85344  23.432  38.866   1.802
13019W        W85345   2.466  37.298  14.401
13020W        W85346  26.983   8.087  10.536
13021W        W85347  13.331  27.079   3.277
13022W        W85348   6.308   1.718  10.320
13023W        W85349   9.276  25.247  14.659
13024W        W85350  31.902  30.127  10.677
13025W        W85351  35.402  22.637  13.231
13026W        W85352  41.334  28.062  12.127
13027W        W85353  26.897  14.518  12.983
13028W        W85354  19.158  31.822  14.282
13029W        W85355  32.705  31.098  14.962
13030W        W85356   2.873  14.713   3.890
13031W        W85357   6.778  25.370   4.491
13032W        W85358  30.969  21.613  13.970
13033W        W85359   8.111  27.445   0.811
13034W        W85360  24.265   1.273   2.558
13035W        W85361  15.586  25.995   1.214
13036W        W85362  18.033  43.110  13.076
13037W        W85363  12.890  18.192   3.476
13038W        W85364  19.054  18.841   2.164
13039W        W85365  39.771  17.233  14.748
13040W        W85366  16.009   5.846  14.195
13041W        W85367  17.953  14.725  12.089
13042W        W85368  19.664   1.748  11.286
13043W        W85369  33.515  34.552   3.815
13044W        W85370  33.951  37.308  14.166
13045W        W85371  30.656  39.909   1.188
13046W        W85372  40.659  16.988   2.954
13047W        W85373  11.842  44.406   2.236
13048W        W85374  10.345  37.095   0.390
13049W        W85375  43.007  39.430   3.281
13050W        W85376  37.889  19.220   3.698
13051W        W85377   0.407  44.190   1.779
13052W        W85378  19.657  19.361   1.794
13053W        W85379  38.525  19.502   3.627
13054W        W85380  36.403  28.207   1.291
13055W        W85381  27.568  35.138  10.599
13056W        W85382  41.269  40.056   2.317
13057W        W85383  32.936  22.585  14.510
13058W        W85384   0.951  39.793  12.383
13059W        W85385  12.103  20.989  11.155
13060W        W85386  28.061  10.907   0.372
13061W        W85387  22.623  21.740  11.160
13062W        W85388   7.830  34.873   1.107
13063W        W85389  36.319  32.842  10.273
13064W        W85390  26.418  43.530  12.501
13065W        W85391  44.873  28.704   3.946
13066W        W85392  32.842  26.070  12.881
13067W        W85393  34.883  21.068  14.316
13068W        W85394  39.446   5.502  13.489
13069W        W85395  21.420  17.307   4.621
13070W        W85396  35.166  12.348   1.558
13071W        W85397  44.989  22.708  10.192
13072W        W85398   5.275  36.137   3.768
13073W        W85399  37.126   8.255   4.027
13074W        W85400  40.802  20.241  13.550
13075W        W85401   0.753  36.544  14.024
13076W        W85402  36.375  14.259   3.278
13077W        W85403  42.482  25.459  14.932
13078W        W85404   8.392  38.534  12.125
13079W        W85405   1.264  37.073   3.067
13080W        W85406  18.593  14.370  11.683
13081W        W85407  11.247  37.329   0.558
13082W        W85408   5.938  41.584  13.528
13083W        W85409  24.741  40.253  11.638
13084W        W85410  32.070  32.532  10.407
13085W        W85411   6.628  16.094  13.456
13086W        W85412   1.835   7.928   3.956
13087W        W85413  14.014   6.765  10.725
13088W        W85414  40.694  33.416   2.494
13089W        W85415   0.872  38.050  11.948
13090W        W85416   6.671  34.569   0.428
13091W        W85417  41.814  42.779   2.367
13092W        W85418  22.274  15.218   4.698
13093W        W85419  24.018  39.287  12.074
13094W        W85420  25.213   6.328  14.803
13095W        W85421  36.416  42.276  13.478
13096W        W85422  14.349   3.647  12.912
13097W        W85423  40.292   0.510  13.764
13098W        W85424  21.701   1.302   4.705
13099W        W85425  30.628  11.946   3.190
13100W        W85426  33.530   8.383  14.040
13101W        W85427  35.544  34.891  13.992
13102W        W85428   7.628   6.286  14.045
13103W        W85429  41.456  26.106   3.623
13104W        W85430  11.223  39.863   4.060
13105W        W85431   2.490  37.867  12.391
13106W        W85432  32.986  25.317  12.370
13107W        W85433  21.170  13.371   3.663
13108W        W85434  14.803  33.936  10.965
13109W        W85435  41.926  19.071   3.221
13110W        W85436  23.149  25.614   4.612
13111W        W85437  11.313  26.907  14.440
13112W        W85438  23.982  28.666  12.018
13113W        W85439  43.492  20.493  14.390
13114W        W85440  25.671  29.370  13.490
13115W        W85441  24.502   1.401  14.326
13116W        W85442  41.393  22.293  14.575
13117W        W85443  32.812   3.189  13.875
13118W        W85444   1.829   4.922   3.749
13119W        W85445   2.288  43.824  10.661
13120W        W85446  31.060  23.756  13.037
13121W        W85447  33.940  11.166   0.080
13122W        W85448  28.735  40.996  12.846
13123W        W85449  30.865  44.124   3.744
13124W        W85450  21.564  22.039  14.107
13125W        W85451  24.154  21.236  11.593
13126W        W85452   6.478   8.369   4.277
13127W        W85453   3.375  30.709   4.855
13128W        W85454  13.225   9.731  13.449
13129W        W85455  30.136  17.709  12.022
13130W        W85456   9.861   5.315   0.617
13131W        W85457  23.540  18.177   4.567
13132W        W85458  21.463  43.173   4.774
13133W        W85459  16.566  43.900   4.419
13134W        W85460  42.640  25.078  10.313
13135W        W85461   9.894  19.954   1.774
13136W        W85462  22.184  24.186   2.123
13137W        W85463  21.638  44.897  14.370
13138W        W85464  28.643  22.193  12.521
13139W        W85465   8.638  18.677  13.711
13140W        W85466   1.383  31.176  12.508
13141W        W85467  38.120  18.793  14.180
13142W        W85468  23.956  41.979  13.233
13143W        W85469  21.608  33.859  11.576
13144W        W85470   9.964  33.658  14.228
13145W        W85471  28.059  27.953  13.516
13146W        W85472  34.843  38.463  11.016
13147W        W85473  44.330  27.079  11.547
13148W        W85474  41.798   0.776   0.528
13149W        W85475  27.988  22.642   4.528
13150W        W85476  12.184  34.416  13.339
13151W        W85477  10.847  26.945  14.200
13152W        W85478  36.579  42.039  10.590
13153W        W85479  27.539  41.590  13.086
13154W        W85480  41.288   9.224  13.785
13155W        W85481  10.786  11.836  11.687
13156W        W85482  29.438  44.689   1.296
13157W        W85483  14.804   9.144  14.072
13158W        W85484  23.991  26.447  12.412
13159W        W85485  31.197  30.229  13.148
13160W        W85486  24.207   8.440  13.400
13161W        W85487   5.026   8.835  13.780
13162W        W85488  24.276  33.739   2.721
13163W        W85489  20.201  31.620  11.212
13164W        W85490  20.543  18.807   3.255
13165W        W85491  39.711   0.937   1.792
13166W        W85492  10.329   7.422   0.223
13167W        W85493  23.588   2.308  13.367
13168W        W85494  21.764  37.769  10.654
13169W        W85495  19.123  23.805  12.085
13170W        W85496  28.941  21.010   4.354
13171W        W85497  29.815  32.533   2.199
13172W        W85498   6.053  23.893  12.932
13173W        W85499  34.742  11.508  12.027
13174W        W85500  21.264  17.414  13.933
13175W        W85501  29.692  15.602  13.888
13176W        W85502  43.866   1.379   2.625
13177W        W85503  18.256  16.278   3.597
13178W        W85504  40.684  35.908  10.828
13179W        W85505  17.282  42.021  11.509
13180W        W85506  40.516  32.377   0.296
13181W        W85507  11.596   9.224   0.302
13182W        W85508  30.652  32.914   2.268
13183W        W85509   1.782  10.748  10.530
13184W        W85510  13.066  27.481  13.103
13185W        W85511  32.647  19.392   1.284
13186W        W85512   1.268  27.170   1.832
13187W        W85513   9.419  18.551  11.495
13188W        W85514  40.640  11.830   5.124
13189W        W85515  10.210   0.473   2.128
13190W        W85516  11.215  24.325  14.356
13191W        W85517  11.371  25.097   2.875
13192W        W85518  14.871  10.454   1.205
13193W        W85519   5.872  30.581   1.231
13194W        W85520  25.977  32.044   4.529
13195W        W85521  38.622  30.628  10.671
13196W        W85522  21.411  11.724   3.084
13197W        W85523  31.675  31.986   0.840
13198W        W85524  12.917   8.312   0.135
13199W        W85525   0.486  25.587   3.229
13200W        W85526  43.020  24.972   1.831
13201W        W85527   0.382  43.322  13.936
13202W        W85528   1.087  22.049   4.530
13203W        W85529  14.434  19.350  12.425
13204W        W85530  44.292  40.771   1.126
13205W        W85531  37.836  18.163   3.076
13206W        W85532  44.612   5.434   1.321
13207W        W85533  31.871  35.391  12.073
13208W        W85534  29.630  36.164  12.113
13209W        W85535  41.735  43.566  14.865
13210W        W85536  31.066   3.798   2.806
13211W        W85537  43.768  13.641  14.820
13212W        W85538  18.026   0.991   4.348
13213W        W85539   5.437  12.308   1.210
13214W        W85540  31.045  41.529   5.091
13215W        W85541  32.913  38.868   3.758
13216W        W85542  14.543   7.316  12.577
13217W        W85543  21.191  41.984  10.693
13218W        W85544  40.736  15.175  14.511
13219W        W85545  36.029  15.354   0.679
13220W        W85546  27.429  38.720   1.495
13221W        W85547   9.621  33.898  12.975
13222W        W85548  43.522  18.669   2.324
13223W        W85549  15.127  20.301  14.007
13224W        W85550   0.851  44.592  12.984
13225W        W85551   0.375   2.145   1.992
13226W        W85552  44.478   8.462   4.079
13227W        W85553  22.034   6.661  12.212
13228W        W85554  28.996   2.689   1.944
13229W        W85555  14.789   1.927   1.746
13230W        W85556  28.026  17.297  13.344
13231W        W85557  41.116  25.856  13.010
13232W        W85558  18.139  39.046  14.459
13233W        W85559   2.453  13.425   2.771
13234W        W85560   1.293  21.733   0.574
13235W        W85561   9.247  43.855   3.204
13236W        W85562   7.462   4.411  11.643
13237W        W85563  28.215  35.285  14.345
13238W        W85564  28.941  37.589   4.689
13239W        W85565   1.153  16.209  11.973
13240W        W85566  13.550  18.305   4.406
13241W        W85567  16.879  18.255   1.019
13242W        W85568  13.536  37.851   1.403
13243W        W85569  39.868   4.240   2.260
13244W        W85570  28.958  38.397   0.725
13245W        W85571   6.760  32.500   0.387
13246W        W85572  34.937  44.017  14.828
13247W        W85573  11.709  39.134   2.596
13248W        W85574  10.998  37.985   4.438
13249W        W85575  26.197   4.998   5.088
13250W        W85576  36.885  44.327   3.144
13251W        W85577  41.968   7.799  14.455
13252W        W85578  32.509   3.977  13.397
13253W        W85579  11.415  42.257   1.794
13254W        W85580  23.329  41.958   1.306
13255W        W85581  21.409   8.738  10.712
13256W        W85582  20.069  32.621  14.514
13257W        W85583  20.170  13.191   3.549
13258W        W85584  40.982  19.155   4.585
13259W        W85585  30.425  34.425  14.690
13260W        W85586  12.196  22.621   0.517
13261W        W85587   6.244   0.282  11.221
13262W        W85588  38.751  24.807  11.985
13263W        W85589  42.567   6.408  14.406
13264W        W85590  26.879  20.665   4.262
13265W        W85591  36.396   6.248   4.619
13266W        W85592  26.169  32.070   1.986
13267W        W85593  24.326   3.390  14.802
13268W        W85594  18.363  18.177  12.900
13269W        W85595  44.981  29.651   2.156
13270W        W85596  41.574  33.446  12.544
13271W        W85597  32.057  44.981   4.177
13272W        W85598  32.619  39.798  12.842
13273W        W85599  12.636   7.309  12.512
13274W        W85600  34.132  16.221  13.255
13275W        W85601  30.978  28.548   2.345
13276W        W85602   3.355  36.709   1.029
13277W        W85603  26.080   3.574  11.368
13278W        W85604   0.540  23.271  11.029
13279W        W85605  30.001  21.517   3.357
13280W        W85606  20.833  13.622  14.348
13281W        W85607  10.821  31.871   5.110
13282W        W85608  38.453  11.648  13.451
13283W        W85609  17.696  19.120   2.978
13284W        W85610   1.016  23.299   2.058
13285W        W85611  39.824   7.773   3.625
13286W        W85612  43.241  17.308  11.962
13287W        W85613  33.619  29.219  14.522
13288W        W85614   5.526  33.678  12.120
13289W        W85615  38.391   7.947  14.913
13290W        W85616  36.545  10.618  10.058
13291W        W85617   8.313  20.051   4.903
13292W        W85618   9.241  41.250   4.099
13293W        W85619   4.385  31.762   2.789
13294W        W85620  13.027  20.549  14.343
13295W        W85621  44.725  21.516   0.002
13296W        W85622  37.400   6.853   3.180
13297W        W85623  13.803  22.611   3.173
13298W        W85624  36.847  25.075   0.488
13299W        W85625  21.591   0.824   3.947
13300W        W85626  19.194   3.715  14.861
13301W        W85627  18.061  37.662   3.637
13302W        W85628   2.533   9.613   4.922
13303W        W85629  35.614  33.563   4.587
13304W        W85630  19.304  26.733  13.442
13305W        W85631  24.012  41.961  12.533
13306W        W85632  22.565  42.311   0.294
13307W        W85633  43.202  42.056  13.149
13308W        W85634  20.627   1.907   4.242
13309W        W85635  27.399  15.782  12.055
13310W        W85636   8.049  21.956  11.146
13311W        W85637  33.356  27.058  10.929
13312W        W85638  29.420  34.451   1.319
13313W        W85639  38.291  39.485  14.800
13314W        W85640  15.488  34.018  13.483
13315W        W85641  42.789  37.556   0.291
13316W        W85642  25.447   0.618   3.699
13317W        W85643  20.348  27.018   2.342
13318W        W85644  21.515  33.364   2.750
13319W        W85645  41.434  33.405  11.250
13320W        W85646   1.246  22.461   2.144
13321W        W85647  39.562   6.658   0.299
13322W        W85648  36.289  24.517   1.265
13323W        W85649  35.446  33.591  12.009
13324W        W85650   2.417  14.414   2.719
13325W        W85651  42.425  42.998  12.901
13326W        W85652  31.001  14.787  13.132
13327W        W85653  18.027   2.309  12.861
13328W        W85654  27.645  20.436  11.139
13329W        W85655  17.702  27.142   0.098
13330W        W85656  31.465  17.300   2.678
13331W        W85657  33.956  26.485  13.866
13332W        W85658   6.389  13.318  14.760
13333W        W85659  17.381  43.574  11.083
13334W        W85660  20.814  36.629   3.620
13335W        W85661   5.837  27.472  12.815
13336W        W85662   7.431  18.536  12.367
13337W        W85663  36.325   5.941   4.005
13338W        W85664  39.409  36.941  14.097
13339W        W85665   1.289  42.784   4.063
13340W        W85666  12.467  42.733   3.727
13341W        W85667   5.327  31.070   4.581
13342W        W85668  19.672  11.595  11.583
13343W        W85669   7.675  37.404   2.843
13344W        W85670  24.712   9.575   2.343
13345W        W85671  20.128  18.257  14.733
13346W        W85672  24.649  11.343  12.548
13347W        W85673   8.768  12.900  12.144
13348W        W85674  20.989   9.163  13.107
13349W        W85675   1.225  34.115  13.534
13350W        W85676  43.286  28.672   4.355
13351W        W85677   0.639  25.660   1.427
13352W        W85678  33.044   3.965  13.526
13353W        W85679   1.109  32.275  12.672
13354W        W85680   8.758  41.238   1.813
13355W        W85681   0.949  31.495  11.565
13356W        W85682  12.872   5.105   2.413
13357W        W85683  36.999   1.874   0.890
13358W        W85684   2.398  30.972   1.232
13359W        W85685  43.016  43.319   4.580
13360W        W85686  41.421  13.062   1.221
13361W        W85687  44.956  31.343  14.718
13362W        W85688  39.938  43.892  12.060
13363W        W85689  14.592  31.951   1.959
13364W        W85690  44.875  19.638  12.274
13365W        W85691  17.841   3.411   4.912
13366W        W85692  14.216  15.744  10.877
13367W        W85693  36.314  37.319  14.195
13368W        W85694  21.965  22.845  10.179
13369W        W85695  27.276  41.203   0.600
13370W        W85696  32.429  38.047  12.701
13371W        W85697   1.331  40.453   0.313
13372W        W85698  20.288  22.681  13.683
13373W        W85699  41.375   0.576  13.073
13374W        W85700  42.312   7.757  10.612
13375W        W85701  38.431  13.581  11.818
13376W        W85702  35.550   2.557  12.927
13377W        W85703  34.129   9.075  10.949
13378W        W85704  30.258  25.919   5.544
13379W        W85705   3.883  16.348   4.488
13380W        W85706  12.581   3.421   3.010
13381W        W85707  35.196  24.901  11.157
13382W        W85708  21.163  37.632  13.488
13383W        W85709   6.913  29.445   3.210
13384W        W85710  38.819   4.323  13.947
13385W        W85711  38.927  31.996   2.346
13386W        W85712  38.093  22.959  13.801
13387W        W85713  42.834  35.048   2.821
13388W        W85714  25.540  12.076  13.162
13389W        W85715  41.689  39.533   1.183
13390W        W85716  21.937   3.812   1.820
13391W        W85717  28.651  13.611   4.538
13392W        W85718  27.436  38.967  11.073
13393W        W85719  42.208  42.843  14.435
13394W        W85720   0.926  28.802  11.278
13395W        W85721   8.124  31.639   4.602
13396W        W85722  37.180  12.656   9.727
13397W        W85723   7.156  13.099   3.969
13398W        W85724   4.207  44.054   3.698
13399W        W85725   3.269  10.335   1.913
13400W        W85726  31.316  34.200  13.859
13401W        W85727  30.145  33.461   1.733
13402W        W85728  36.605  37.449   3.154
13403W        W85729  18.887  11.444   3.738
13404W        W85730  20.307  41.031  14.997
13405W        W85731  13.580  15.682  14.284
13406W        W85732   3.683  24.534  12.957
13407W        W85733  31.217  19.218   1.034
13408W        W85734  24.498  13.160   1.349
13409W        W85735  22.495   9.071   3.186
13410W        W85736  18.431   0.779   0.322
13411W        W85737  29.979   3.831   3.801
13412W        W85738  38.426  20.079   1.637
13413W        W85739  16.824  31.447   3.714
13414W        W85740  18.549  35.523  14.301
13415W        W85741   6.191  21.954  11.994
13416W        W85742  20.232  14.894  13.025
13417W        W85743  44.442  44.781   2.936
13418W        W85744  35.581  37.445   4.116
13419W        W85745  31.518  42.350  13.310
13420W        W85746  19.249  41.204  14.725
13421W        W85747  31.843  40.434   3.349
13422W        W85748  33.435   4.849  12.501
13423W        W85749   7.774   8.941  12.905
13424W        W85750  24.485   1.749   1.237
13425W        W85751  31.567  12.079  13.384
13426W        W85752   3.334   2.876  13.287
13427W        W85753  30.508  11.628  10.744
13428W        W85754  15.765  37.724   2.733
13429W        W85755  34.511  39.526  13.376
13430W        W85756   9.882  14.875  14.586
13431W        W85757  36.084  17.999  13.051
13432W        W85758   7.896  25.955   1.193
13433W        W85759  15.806  13.799   3.268
13434W        W85760  32.997  17.698  13.621
13435W        W85761  32.603   9.803   2.155
13436W        W85762  31.781  34.584  13.317
13437W        W85763   4.609  40.263  11.638
13438W        W85764  27.048  38.765   0.923
13439W        W85765  35.090  20.605  12.834
13440W        W85766  33.919  37.868   3.361
13441W        W85767   3.463   6.650   3.601
13442W        W85768  12.076  35.596   4.213
13443W        W85769  37.572  29.542  11.720
13444W        W85770  34.351   9.882   1.389
13445W        W85771  32.343  19.163  11.139
13446W        W85772  20.217  12.765   3.809
13447W        W85773  44.888  27.593  10.947
13448W        W85774  37.500  10.636   1.669
13449W        W85775  17.811  22.776   1.694
13450W        W85776  36.792  16.754   0.061
13451W        W85777  37.101  17.230   5.050
13452W        W85778   3.892  12.125   2.163
13453W        W85779  17.546  33.154  11.207
13454W        W85780   7.927   0.898   2.690
13455W        W85781  14.121  30.240  13.414
13456W        W85782  12.905   2.829  14.279
13457W        W85783  40.936  16.149  10.628
13458W        W85784   4.986   8.325   0.982
13459W        W85785  13.387  32.672   0.508
13460W        W85786  17.910   7.735  11.020
13461W        W85787  26.464   5.790  13.622
13462W        W85788  16.750  10.366  11.613
13463W        W85789  37.274   6.799  11.151
13464W        W85790  15.266  25.560  14.281
13465W        W85791  24.393  42.909  11.528
13466W        W85792  32.463   5.826  13.935
13467W        W85793  13.135  42.756   5.061
13468W        W85794  17.890  13.209   1.496
13469W        W85795  16.008  21.525   2.744
13470W        W85796  38.020  24.620  14.860
13471W        W85797  37.180  23.106  13.370
13472W        W85798  28.957  34.258   3.559
13473W        W85799  23.568  37.685   5.033
13474W        W85800  34.468  41.285   1.218
13475W        W85801  16.718  25.649  11.085
13476W        W85802  12.321  21.108  12.466
13477W        W85803  20.489  28.350  14.501
13478W        W85804  42.980   3.945  12.963
13479W        W85805  38.263  36.535   2.751
13480W        W85806  21.213  31.034  12.465
13481W        W85807  43.828  11.582  11.550
13482W        W85808  16.740  41.138   0.899
13483W        W85809  33.111  27.453  11.729
13484W        W85810  28.468   8.397   2.027
13485W        W85811  24.448  34.127   0.927
13486W        W85812  12.249   1.488  10.713
13487W        W85813  30.315  19.788  11.597
13488W        W85814   1.946  11.839  14.687
13489W        W85815  43.311   9.799   4.548
13490W        W85816  15.621  42.849   0.512
13491W        W85817  20.038  12.015   2.322
13492W        W85818  27.416   0.989   0.137
13493W        W85819  18.488  20.076   2.247
13494W        W85820   5.891   7.605  11.581
13495W        W85821   1.282   7.586  13.031
13496W        W85822  14.262  42.992  13.183
13497W        W85823  44.358  24.580   0.868
13498W        W85824  35.340  20.697   2.210
13499W        W85825  31.530   1.769   0.458
13500W        W85826   8.602  38.964  10.812
13501W        W85827  11.830  17.201  14.894
13502W        W85828  30.538  18.340   2.923
13503W        W85829  44.477   0.014  14.442
13504W        W85830  38.171  22.567  13.413
13505W        W85831  43.999  12.677   4.183
13506W        W85832   0.817   4.870   3.169
13507W        W85833  23.007   1.840   2.957
13508W        W85834  13.161   3.500   0.869
13509W        W85835  39.814  22.384   2.573
13510W        W85836  35.550  25.632   3.222
13511W        W85837  37.603   4.382  13.611
13512W        W85838  29.431  18.692  10.611
13513W        W85839   8.310  21.641  12.144
13514W        W85840   1.527  19.241  14.313
13515W        W85841  29.938  43.201  12.476
13516W        W85842  44.926   2.037   4.322
13517W        W85843  40.787  40.560   3.850
13518W        W85844  31.006  42.746   0.447
13519W        W85845   4.378  33.341  11.640
13520W        W85846  32.176  15.799   2.137
13521W        W85847   3.010   5.355   0.512
13522W        W85848  38.328  26.607  12.713
13523W        W85849  17.718  29.895   1.388
13524W        W85850  10.738   3.500   1.737
13525W        W85851  14.367  41.941  14.773
13526W        W85852  39.028   9.846  10.736
13527W        W85853  40.819  34.389   3.862
13528W        W85854  29.214   4.701  11.664
13529W        W85855  10.751  28.036   4.455
13530W        W85856  37.524   9.330  11.520
13531W        W85857  31.452  10.881   1.867
13532W        W85858  21.315  31.182  14.622
13533W        W85859  35.074  26.851   4.140
13534W        W85860   2.186   9.777  11.788
13535W        W85861  27.069  15.145  10.788
13536W        W85862  43.188  24.481   3.559
13537W        W85863   0.844  24.683  10.655
13538W        W85864  16.067  19.143   0.519
13539W        W85865  12.972  21.800   0.673
13540W        W85866   7.989  37.410   2.375
13541W        W85867  41.987  14.340  13.094
13542W        W85868   0.191  12.894  10.948
13543W        W85869  25.055   5.624   0.561
13544W        W85870  14.684  14.309   3.147
13545W        W85871  18.026  41.021  12.383
13546W        W85872  44.152   1.830  10.746
13547W        W85873  30.619  20.045  10.502
13548W        W85874   0.410  19.707   3.943
13549W        W85875  34.509  33.970   4.182
13550W        W85876  25.472  39.863  14.494
13551W        W85877   3.224   6.941   2.431
13552W        W85878  18.691  39.558   2.605
13553W        W85879  20.511   3.199   0.329
13554W        W85880  14.867  19.157   4.653
13555W        W85881  23.718  20.984   2.328
13556W        W85882  28.616  34.383  10.644
13557W        W85883  14.193   9.906  14.230
13558W        W85884  30.064  12.402  14.101
13559W        W85885   8.564  24.797   2.365
13560W        W85886  28.519   6.871   0.479
13561W        W85887  18.496  27.123  10.794
13562W        W85888  11.646  20.011   1.394
13563W        W85889  27.938  19.050   1.617
13564W        W85890   9.429  34.837  13.780
13565W        W85891  43.333  21.795  10.629
13566W        W85892  20.741  37.343   2.234
13567W        W85893  43.783   1.658  13.911
13568W        W85894  42.045   5.480  14.743
13569W        W85895  12.325  21.151   2.183
13570W        W85896  17.911  42.939   0.574
13571W        W85897  33.936  35.944   2.852
13572W        W85898  21.268   0.127   2.113
13573W        W85899  43.085   3.725   0.878
13574W        W85900  35.630  23.741   3.033
13575W        W85901  19.151  44.579   2.780
13576W        W85902  14.259  23.994  11.937
13577W        W85903  28.548  43.794  14.047
13578W        W85904  41.548  34.163  14.887
13579W        W85905   6.327  11.651   2.283
13580W        W85906   3.203  12.720   2.672
13581W        W85907   9.842  19.100  14.901
13582W        W85908  44.229  22.280   4.055
13583W        W85909  16.309  40.270   0.765
13584W        W85910  31.384  27.041   2.754
13585W        W85911  22.336  23.619   2.803
13586W        W85912  21.736  42.737  12.064
13587W        W85913  24.554  19.714   0.304
13588W        W85914  39.861  24.074   0.753
13589W        W85915  31.463  38.443  13.820
13590W        W85916  40.533  42.537  13.373
13591W        W85917  35.857  24.182  11.537
13592W        W85918  17.285  12.766  11.372
13593W        W85919  24.340  18.647  10.697
13594W        W85920   6.715  33.233  11.551
13595W        W85921  30.660  10.119   1.462
13596W        W85922   9.264  38.628   3.089
13597W        W85923  13.673  21.455   3.771
13598W        W85924  19.660   1.888  14.459
13599W        W85925  35.384  21.176   4.412
13600W        W85926  25.420  34.965  14.890
13601W        W85927  22.094  39.830  14.040
13602W        W85928  24.079  31.624  10.962
13603W        W85929  30.214  31.737  13.520
13604W        W85930   4.029  12.629   2.176
13605W        W85931  29.657  30.267   2.362
13606W        W85932  19.706  44.769   4.051
13607W        W85933  44.670  34.722  10.264
13608W        W85934   7.471  21.707  10.876
13609W        W85935   6.495  26.986  12.624
13610W        W85936  33.182  23.147  11.551
13611W        W85937  23.468   3.509   2.257
13612W        W85938   2.734   3.505   0.402
13613W        W85939  17.094  41.791  13.335
13614W        W85940  39.369   4.883  12.946
13615W        W85941  28.478  32.916  12.957
13616W        W85942   0.346   9.292  12.895
13617W        W85943  30.938  35.591  13.908
13618W        W85944  43.456   7.804   0.811
13619W        W85945  16.696  21.462  14.695
13620W        W85946  18.771  39.800  12.497
13621W        W85947  17.687   1.481  10.683
13622W        W85948   4.739  27.403  14.858
13623W        W85949  23.166  35.328  13.364
13624W        W85950  43.630  36.643   0.162
13625W        W85951  23.911  26.255   2.275
13626W        W85952  19.520  39.925   0.996
13627W        W85953  32.237  21.157   3.823
13628W        W85954  33.094  30.358   2.413
13629W        W85955  14.292  43.715   1.132
13630W        W85956   6.071   7.274   2.455
13631W        W85957  13.086  13.639   3.719
13632W        W85958  31.981  14.798   0.855
13633W        W85959  40.747  30.657  13.537
13634W        W85960  37.815  36.860  13.850
13635W        W85961  40.304  41.588   3.205
13636W        W85962  12.284  31.896   2.769
13637W        W85963  30.664  38.001   4.759
13638W        W85964  22.655  42.428   1.766
13639W        W85965  31.627  15.034  14.585
13640W        W85966   5.843  38.871  12.438
13641W        W85967  17.044  11.159  13.129
13642W        W85968  27.543  44.438  12.243
13643W        W85969  41.125  25.515   1.155
13644W        W85970  33.638  44.564  11.075
13645W        W85971  15.190   7.952   3.156
13646W        W85972   7.018  30.016   2.679
13647W        W85973  19.129  35.536  13.026
13648W        W85974  15.068   9.809  10.935
13649W        W85975  16.589  27.827   3.694
13650W        W85976  42.171   8.858  14.919
13651W        W85977  38.150  24.453   0.336
13652W        W85978  32.862  41.431   1.331
13653W        W85979  30.637  18.827   1.627
13654W        W85980  26.924  33.744  14.765
13655W        W85981  24.187  13.666  10.773
13656W        W85982   6.726   8.363   3.371
13657W        W85983  13.358  13.326  10.710
13658W        W85984   2.999  20.879   4.166
13659W        W85985  43.216  14.193   3.735
13660W        W85986  16.310  23.678   4.581
13661W        W85987  41.737  25.516  11.559
13662W        W85988  38.804  20.042   0.638
13663W        W85989  19.234  19.258   4.367
13664W        W85990  26.620  20.737   0.303
13665W        W85991  15.524  27.674  14.716
13666W        W85992  37.957  30.878   3.696
13667W        W85993  35.147  12.785   1.862
13668W        W85994  16.725  22.783  13.585
13669W        W85995  26.075  15.294  13.902
13670W        W85996  42.740  14.553  12.010
13671W        W85997   5.821  15.866  10.595
13672W        W85998  42.553  20.395  11.665
13673W        W85999  24.289  38.863  12.095
13674W        W86000   9.807   1.461   3.624
13675W        W86001  43.411  32.106  13.998
13676W        W86002  27.551  11.606   2.352
13677W        W86003  13.595   2.444   4.536
13678W        W86004  35.074  42.314  10.799
13679W        W86005  10.542  29.041  14.921
13680W        W86006  20.116  18.235  12.059
13681W        W86007  16.923   7.298  11.516
13682W        W86008  12.116  19.611   4.530
13683W        W86009  31.439   5.808  14.228
13684W        W86010  30.455  35.509   2.840
13685W        W86011  38.320  28.338   2.110
13686W        W86012   7.800  40.925   3.225
13687W        W86013  23.630  30.408  11.931
13688W        W86014  12.847   0.336  11.664
13689W        W86015  26.604  35.889  13.067
13690W        W86016   6.438  39.880   0.713
13691W        W86017  26.463  25.443   2.886
13692W        W86018  35.392  35.621   5.466
13693W        W86019   6.753  25.237   0.676
13694W        W86020   7.813  26.660  10.613
13695W        W86021   4.686   8.894  11.528
13696W        W86022   2.371   7.303   0.731
13697W        W86023   6.865  14.223  13.332
13698W        W86024  36.587   0.798  14.881
13699W        W86025  18.050  31.822   4.991
13700W        W86026  10.847  38.372  14.086
13701W        W86027  41.492  18.434  13.471
13702W        W86028  34.961  43.120  12.146
13703W        W86029  43.700  38.081   0.837
13704W        W86030  16.877  42.530   1.932
13705W        W86031  15.305   6.903   2.276
13706W        W86032  15.351  21.227  10.484
13707W        W86033  20.724  22.212  14.571
13708W        W86034  34.329   1.658  11.982
13709W        W86035  11.346   7.607  13.018
13710W        W86036  20.069  33.348  10.663
13711W        W86037   0.312   5.993   1.266
13712W        W86038  10.214   6.464  10.680
13713W        W86039  33.329   6.215  11.940
13714W        W86040  21.898  11.678   3.171
13715W        W86041  16.058  20.657   1.048
13716W        W86042  26.144  44.728   4.345
13717W        W86043   0.442   1.270   2.193
13718W        W86044  27.141  21.000  13.090
13719W        W86045  38.012  41.329   1.475
13720W        W86046  16.305   9.886  10.600
13721W        W86047  39.340  19.517   3.180
13722W        W86048   7.267   9.892  10.974
13723W        W86049  19.594   2.437  12.780
13724W        W86050   7.451  29.109   0.086
13725W        W86051  25.158  16.059   3.161
13726W        W86052  40.546  18.153  14.748
13727W        W86053  37.545   5.416   1.470
13728W        W86054  25.683  28.638   2.850
13729W        W86055  36.470   9.889   2.427
13730W        W86056   3.652   1.789   3.938
13731W        W86057  37.519  40.573  12.206
13732W        W86058   1.625  11.881  10.239
13733W        W86059  39.618  15.774  13.927
13734W        W86060   8.795  16.776   2.723
13735W        W86061  37.423  11.056   2.452
13736W        W86062   6.399  12.114  13.929
13737W        W86063   9.162   1.034  13.737
13738W        W86064  22.344  25.701   0.341
13739W        W86065  33.480  44.411  10.191
13740W        W86066  29.828  21.267  13.361
13741W        W86067  36.985  31.640   0.807
13742W        W86068  17.635  22.002  12.015
13743W        W86069  29.553   7.676   4.692
13744W        W86070  40.137   9.619  12.978
13745W        W86071   9.367   4.924   4.564
13746W        W86072  24.956  10.903  10.556
13747W        W86073  10.028  33.152   1.367
13748W        W86074  30.480  10.587   1.265
13749W        W86075  10.212  25.987   1.396
13750W        W86076  33.673  38.825   0.904
13751W        W86077  22.691  16.066   4.261
13752W        W86078   4.822  25.626  14.384
13753W        W86079  28.101   4.961   4.659
13754W        W86080  13.152  23.729  13.539
13755W        W86081  31.122  35.190  10.631
13756W        W86082  27.869  24.260  12.268
13757W        W86083  13.610   2.303  11.087
13758W        W86084   0.552  32.194  14.364
13759W        W86085  33.252  36.022   2.169
13760W        W86086  38.313  34.467   3.152
13761W        W86087  13.570  27.893   0.535
13762W        W86088  42.908   7.796   1.279
13763W        W86089  22.593  32.637  11.910
13764W        W86090   7.792   7.168  11.210
13765W        W86091  34.418  40.934  12.456
13766W        W86092  39.796  39.705  10.691
13767W        W86093  32.857  31.007  13.313
13768W        W86094  36.026  37.026   0.739
13769W        W86095  24.613   4.325   4.107
13770W        W86096  33.916  31.298   2.412
13771W        W86097  36.954   3.194   0.493
13772W        W86098  14.306  38.342   3.198
13773W        W86099  33.988  18.589   4.573
13774W        W86100  27.202  23.601   3.674
13775W        W86101  44.855  44.831   1.411
13776W        W86102  33.053  17.302  14.726
13777W        W86103  32.270  14.717   0.405
13778W        W86104  34.198  15.653  12.571
13779W        W86105  29.174   9.430  11.078
13780W        W86106  36.958   1.648  14.481
13781W        W86107  36.059   2.787   4.661
13782W        W86108  27.405  27.012  10.664
13783W        W86109   9.122   9.908  12.883
13784W        W86110  17.633  22.021  14.074
13785W        W86111   9.969  25.540   1.244
13786W        W86112  19.375  23.733   3.777
13787W        W86113  18.792  41.382  14.469
13788W        W86114  25.073  17.814   2.426
13789W        W86115  23.396  13.359  10.522
13790W        W86116  16.279   8.600   4.109
13791W        W86117  29.538  40.509  14.946
13792W        W86118  33.168  22.319   4.050
13793W        W86119   9.196  15.717   1.968
13794W        W86120   8.368  17.169  14.162
13795W        W86121  36.954  41.959  13.095
13796W        W86122  40.902  13.554  14.907
13797W        W86123  19.653  17.134  12.630
13798W        W86124   5.753  37.323   4.473
13799W        W86125  31.910  21.796  14.330
13800W        W86126  11.064  39.196   3.206
13801W        W86127  20.061  38.531  13.965
13802W        W86128  29.955  21.604  13.752
13803W        W86129   7.137   5.447   4.147
13804W        W86130  28.204   6.120  11.886
13805W        W86131  27.197  34.425   1.224
13806W        W86132  31.504  18.706   1.114
13807W        W86133   1.957  34.946   2.783
13808W        W86134   4.700  34.959  14.295
13809W        W86135  18.790  18.063  12.050
13810W        W86136  44.764  33.727  11.490
13811W        W86137  42.410   1.036   1.258
13812W        W86138  15.885  17.344   0.634
13813W        W86139  44.582   9.598   5.220
13814W        W86140   4.288   6.722  14.281
13815W        W86141   2.964  12.853   5.047
13816W        W86142  32.469  29.423   0.754
13817W        W86143  12.778  29.294  10.685
13818W        W86144  37.447  34.785   3.141
13819W        W86145   1.359  12.129   1.233
13820W        W86146   8.360  38.329  12.961
13821W        W86147  31.010  13.083   3.729
13822W        W86148  41.060  40.121  15.000
13823W        W86149  22.025  13.880   4.155
13824W        W86150  43.481  10.407  10.587
13825W        W86151  27.032   3.189  11.618
13826W        W86152  13.362  26.516   1.868
13827W        W86153   7.859   9.572  12.025
13828W        W86154  40.487   2.314   4.958
13829W        W86155  15.426   3.752  14.411
13830W        W86156  38.952  13.191  11.455
13831W        W86157  13.207  30.111  10.347
13832W        W86158   6.579  40.388   3.633
13833W        W86159  40.394  13.751  14.625
13834W        W86160  11.200  20.587   3.284
13835W        W86161  20.723  32.896   3.174
13836W        W86162  22.550  17.899   0.296
13837W        W86163  39.933  20.838   0.812
13838W        W86164  14.754  25.902   1.665
13839W        W86165  23.205  38.576   1.296
13840W        W86166  26.480  10.609   1.222
13841W        W86167   1.224  15.106  11.859
13842W        W86168   8.378  10.788  11.071
13843W        W86169  35.870  19.703  14.791
13844W        W86170   7.863  44.018  12.396
13845W        W86171  10.285  44.052   3.163
13846W        W86172  24.210   9.746   4.270
13847W        W86173  11.238   6.401  14.017
13848W        W86174  22.280  22.258   1.807
13849W        W86175  14.662  34.951  11.917
13850W        W86176  30.368  29.359  12.408
13851W        W86177  25.487  11.167  14.656
13852W        W86178  13.510  25.891  11.345
13853W        W86179  17.651  35.275  10.821
13854W        W86180  41.469  28.366   4.615
13855W        W86181  19.647   0.529   2.886
13856W        W86182  28.534  42.855  11.615
13857W        W86183  21.976  38.861   2.093
13858W        W86184   3.234   0.307  13.950
13859W        W86185  33.133  32.534  10.548
13860W        W86186   5.206  42.541   2.836
13861W        W86187  31.057  12.252   4.943
13862W        W86188  35.479  11.559   0.477
13863W        W86189  13.607  36.314   2.460
13864W        W86190  13.308  26.857   3.763
13865W        W86191  31.893  15.047   0.249
13866W        W86192  41.305  22.157  11.996
13867W        W86193  29.859   7.808   4.291
13868W        W86194  40.626   8.722   1.832
13869W        W86195  36.780  18.608   3.108
13870W        W86196   4.714   3.462  10.636
13871W        W86197   8.202  23.182  12.663
13872W        W86198  21.578  24.875  14.974
13873W        W86199  12.351   3.328   4.503
13874W        W86200  26.023   5.439   2.278
13875W        W86201   7.847  32.701  14.714
13876W        W86202  42.952  24.101  13.994
13877W        W86203  22.012  33.483   3.686
13878W        W86204  43.786  26.477   3.637
13879W        W86205  30.829  19.216   0.647
13880W        W86206   1.148  36.043   0.949
13881W        W86207  39.795  19.593  13.506
13882W        W86208   2.490  27.872  14.946
13883W        W86209  33.498  29.520  11.964
13884W        W86210  39.635   1.061  14.201
13885W        W86211  31.212  35.386  12.519
13886W        W86212  13.519  43.251   1.195
13887W        W86213  31.681   9.798  10.397
13888W        W86214  21.236   0.852   1.741
13889W        W86215  25.107  41.375   4.750
13890W        W86216   1.965  30.690   0.751
13891W        W86217   4.895  17.790  11.530
13892W        W86218  32.767  32.406   3.125
13893W        W86219  28.390  14.836  10.899
13894W        W86220  11.840   2.854  10.267
13895W        W86221   4.080  30.286   4.747
13896W        W86222  17.142  23.592   0.565
13897W        W86223  12.601  38.930  12.605
13898W        W86224   1.812  24.993  12.403
13899W        W86225  44.857  40.621   3.186
13900W        W86226  35.247  23.532   0.337
13901W        W86227  34.613  35.338   2.806
13902W        W86228  24.687  28.444  12.965
13903W        W86229  22.550  17.471   1.491
13904W        W86230  36.826  31.818  10.250
13905W        W86231  23.666  36.408   4.414
13906W        W86232   6.201  36.338  12.968
13907W        W86233  35.468  26.179   3.192
13908W        W86234   2.964  43.815   0.863
13909W        W86235  36.249  24.977   2.302
13910W        W86236  12.846   7.318   1.946
13911W        W86237  23.373   8.992   0.572
13912W        W86238   0.405  38.566  14.764
13913W        W86239  42.629   6.505   4.400
13914W        W86240  27.942   6.114  11.454
13915W        W86241  12.645   9.788   0.908
13916W        W86242  15.135  35.869  14.491
13917W        W86243  42.191  19.394   0.339
13918W        W86244  12.653  14.568  14.308
13919W        W86245  26.176  39.858   1.320
13920W        W86246   9.716  31.223  14.372
13921W        W86247   6.978  43.354   2.258
13922W        W86248  14.221   4.290   1.736
13923W        W86249  11.719  35.774  11.576
13924W        W86250  20.675  27.117   2.747
13925W        W86251  19.163  20.733   0.517
13926W        W86252  35.056   4.985   4.122
13927W        W86253  21.916  12.633   1.825
13928W        W86254   6.747  12.782  12.834
13929W        W86255  41.959  42.018  14.949
13930W        W86256  31.239  29.486  10.770
13931W        W86257   3.417  13.736   2.856
13932W        W86258  31.098   7.274  13.279
13933W        W86259  24.903  17.211   4.022
13934W        W86260  25.845  27.681  10.118
13935W        W86261  15.289  41.159   1.370
13936W        W86262  41.929  30.086  13.132
13937W        W86263   0.148  40.915   1.772
13938W        W86264  40.920  30.537   2.284
13939W        W86265  11.609  31.272  14.313
13940W        W86266  28.718  35.371   0.763
13941W        W86267  28.688  35.497  14.437
13942W        W86268  25.586  10.594   1.227
13943W        W86269   1.486  11.875  14.931
13944W        W86270  40.500  19.099  12.092
13945W        W86271  25.000  21.255   4.103
13946W        W86272  43.485  18.074   2.658
13947W        W86273  31.618  18.572   3.279
13948W        W86274  40.328  40.327   0.976
13949W        W86275  42.852   1.490   4.624
13950W        W86276   7.931   4.854   4.737
13951W        W86277   7.803  39.384  11.170
13952W        W86278  34.112  35.917   2.056
13953W        W86279  13.315   6.153  11.593
13954W        W86280   1.471  14.762  11.526
13955W        W86281   7.898   9.331   2.874
13956W        W86282   7.074  31.199  14.352
13957W        W86283  12.912  29.509  12.511
13958W        W86284  22.737  25.688  10.014
13959W        W86285  21.953  35.431  11.971
13960W        W86286   3.879  20.011  12.988
13961W        W86287   5.749  28.207  13.542
13962W        W86288  44.426   8.212  11.066
13963W        W86289   0.224  10.099  12.485
13964W        W86290  13.102  23.708   0.043
13965W        W86291  38.447   3.244   0.403
13966W        W86292  43.115   4.138  11.131
13967W        W86293  24.239  37.132  10.227
13968W        W86294  16.344  18.937   1.423
13969W        W86295  11.161  31.558  11.968
13970W        W86296  14.994  17.171   3.098
13971W        W86297  23.116  21.563  11.172
13972W        W86298  12.130   2.864  11.570
13973W        W86299  39.086   2.427   4.482
13974W        W86300  17.046  29.042  13.981
13975W        W86301  21.258  41.399   4.161
13976W        W86302  12.794  41.329  14.963
13977W        W86303  43.543  13.843   3.344
13978W        W86304  39.880   6.814  12.442
13979W        W86305   5.340  37.235  13.386
13980W        W86306  35.444  15.732   5.112
13981W        W86307  39.017  16.222  11.953
13982W        W86308   9.479  19.989  12.031
13983W        W86309  13.820  10.671  11.854
13984W        W86310  30.615  27.445  14.925
13985W        W86311  16.577  25.421  12.077
13986W        W86312   0.981   3.280  12.530
13987W        W86313  20.136  12.571  11.670
13988W        W86314  18.073   6.863  14.885
13989W        W86315  19.807   9.636  14.535
13990W        W86316   2.971  33.892   3.729
13991W        W86317  43.694  37.843  14.769
13992W        W86318   5.233  27.531  13.673
13993W        W86319  28.631  29.994   3.122
13994W        W86320  29.174  36.557  12.707
13995W        W86321   5.286  23.885  12.589
13996W        W86322  12.103  16.348   1.272
13997W        W86323   0.189  20.197  13.992
13998W        W86324  26.064  36.677   0.337
13999W        W86325   7.136  14.228  14.832
14000W        W86326   1.239  16.584  11.622
14001W        W86327   3.784  42.465  11.565
14002W        W86328  24.677  35.628   1.660
14003W        W86329  23.473  26.944   3.622
14004W        W86330  19.171  36.978   4.586
14005W        W86331  11.401  27.204   2.744
14006W        W86332   5.268  24.579  11.939
14007W        W86333   8.564  39.425   4.167
14008W        W86334   7.428  28.319   3.792
14009W        W86335   9.555   4.457  11.248
14010W        W86336  36.616  18.657  11.188
14011W        W86337  10.196  19.014   1.410
14012W        W86338  40.916  33.078  14.551
14013W        W86339  23.070   2.320   3.268
14014W        W86340  28.084  38.041  10.958
14015W        W86341  39.579  10.165   4.412
14016W        W86342  41.102  16.770   4.719
14017W        W86343   9.647  19.088  11.242
14018W        W86344  15.843  30.040  11.202
14019W        W86345  40.450  24.587   3.883
14020W        W86346  42.878  41.510   4.184
14021W        W86347  28.206  25.518   4.964
14022W        W86348  15.631  34.669   0.895
14023W        W86349   7.269  33.619  12.684
14024W        W86350  34.440  30.869   4.456
14025W        W86351  30.758  41.213   4.487
14026W        W86352  41.806  18.208   3.533
14027W        W86353   0.232  29.053   2.624
14028W        W86354   7.172  22.454  11.307
14029W        W86355  12.589  32.054   3.187
14030W        W86356  27.621  18.759   4.341
14031W        W86357  38.597  36.604   1.697
14032W        W86358   1.363   7.267  10.809
14033W        W86359  17.009  31.215   4.149
14034W        W86360  34.641  40.292   2.738
14035W        W86361  20.473  22.161   0.510
14036W        W86362  22.003  22.731   2.674
14037W        W86363   0.709  34.719   4.944
14038W        W86364  15.124  19.685   2.926
14039W        W86365   3.252  34.814   3.660
14040W        W86366  14.262  44.313   2.388
14041W        W86367  39.786  10.327  11.168
14042W        W86368   6.606  23.189  14.275
14043W        W86369  40.008  11.622   2.258
14044W        W86370   2.430  12.013   1.509
14045W        W86371  15.807  10.287  12.291
14046W        W86372   2.019  13.598   4.492
14047W        W86373   7.291  16.627   0.026
14048W        W86374  41.249  37.058  11.197
14049W        W86375   2.177  13.232   3.187
14050W        W86376  21.949  12.638  13.016
14051W        W86377   9.062  42.934   9.862
14052W        W86378  34.117  12.245  11.111
14053W        W86379  38.902  42.381   2.533
14054W        W86380  19.431   8.352   1.189
14055W        W86381  20.682   4.743   3.238
14056W        W86382  20.123  16.183   4.138
14057W        W86383  42.284  12.861  14.876
14058W        W86384  38.768   9.708  10.292
14059W        W86385  30.612  21.999   1.815
14060W        W86386  44.812  13.410  14.883
14061W        W86387  14.736  34.745  10.304
14062W        W86388  27.256  44.814  12.058
14063W        W86389  38.792  21.800  10.241
14064W        W86390   0.715   0.184  13.898
14065W        W86391   9.341  17.142   3.756
14066W        W86392  36.408  11.634   0.479
14067W        W86393   6.471  34.437  11.107
14068W        W86394   9.127  39.427  12.501
14069W        W86395  23.184  26.618  14.023
14070W        W86396  40.728   8.924   2.698
14071W        W86397  12.148  40.742   4.645
14072W        W86398  23.671  39.282   3.555
14073W        W86399   4.682  18.852  13.826
14074W        W86400  34.031  38.705  11.495
14075W        W86401  31.943  31.113   0.369
14076W        W86402  40.025  21.290  11.881
14077W        W86403  15.222  17.557   2.242
14078W        W86404  36.267  18.637   3.202
14079W        W86405  21.943  42.045   1.829
14080W        W86406  43.099  16.224  11.380
14081W        W86407  44.363   6.113   2.683
14082W        W86408  42.799  35.800   2.370
14083W        W86409  10.764  35.874   5.000
14084W        W86410   8.419  26.085  13.120
14085W        W86411  41.749  43.284   2.811
14086W        W86412  35.984   5.392   3.176
14087W        W86413  29.968   9.384  14.887
14088W        W86414  40.082  29.779   5.058
14089W        W86415  10.569  44.424  10.757
14090W        W86416  21.268  13.708   3.141
14091W        W86417  14.450  24.261  11.517
14092W        W86418  40.604  39.313  11.694
14093W        W86419  28.536  18.132  14.340
14094W        W86420  20.359  13.819   1.942
14095W        W86421  27.433  30.975  11.681
14096W        W86422  33.946  37.491   3.725
14097W        W86423  32.371  34.180  12.676
14098W        W86424  40.878  15.609   3.109
14099W        W86425   4.369  16.525  14.335
14100W        W86426  10.835   3.178  14.903
14101W        W86427  28.478  41.494  12.153
14102W        W86428  11.750  42.810   1.040
14103W        W86429  27.105  35.332  13.132
14104W        W86430  28.673  25.957   5.222
14105W        W86431  18.068  28.183   1.754
14106W        W86432  24.634  37.837  12.600
14107W        W86433  36.490  12.355   3.711
14108W        W86434  35.510   2.452  13.817
14109W        W86435   2.910  19.080   2.483
14110W        W86436  12.260  22.643  10.982
14111W        W86437  24.417   3.591  12.607
14112W        W86438  14.342   2.889  11.574
14113W        W86439  35.125  39.551   0.561
14114W        W86440  22.719  15.023   0.104
14115W        W86441   3.641  36.767   0.579
14116W        W86442   3.698  15.324  12.462
14117W        W86443   5.427  11.891  12.479
14118W        W86444  32.445  22.064   1.207
14119W        W86445  37.911  12.890  11.589
14120W        W86446  17.209   9.902  10.414
14121W        W86447  21.199  40.946   2.863
14122W        W86448   1.448  21.149   4.027
14123W        W86449   1.786  30.974   0.236
14124W        W86450  31.802  25.528   3.427
14125W        W86451  19.004  33.007  11.289
14126W        W86452   1.713  44.219   0.581
14127W        W86453  42.045   1.910   1.832
14128W        W86454   5.687  14.224   5.181
14129W        W86455  33.938   3.600   4.546
14130W        W86456  13.346  36.403  14.658
14131W        W86457  11.833  34.371   0.783
14132W        W86458   4.442  36.821   2.366
14133W        W86459   5.040   9.352   0.412
14134W        W86460  19.130   8.438   2.377
14135W        W86461  21.619  33.171  14.009
14136W        W86462  22.824  16.970  13.210
14137W        W86463  25.622   8.085   1.910
14138W        W86464  20.829  13.150  11.527
14139W        W86465   6.904   5.787   2.602
14140W        W86466   0.590  15.150   0.668
14141W        W86467  27.150  37.398   3.328
14142W        W86468   8.951  44.558  11.017
14143W        W86469  22.724  29.116  10.608
14144W        W86470  42.946  17.327   2.823
14145W        W86471  11.096   5.749   2.819
14146W        W86472  29.533  19.721  11.255
14147W        W86473  19.030  38.942  11.570
14148W        W86474  37.950  26.504   2.556
14149W        W86475  20.525  21.701   0.749
14150W        W86476  15.177  15.378  11.532
14151W        W86477  19.283  16.154   0.355
14152W        W86478  21.675   1.129  12.333
14153W        W86479  15.023  22.521  11.698
14154W        W86480  27.140  31.419  12.164
14155W        W86481  41.891   6.599  11.081
14156W        W86482  41.812   8.440  13.441
14157W        W86483  15.704  40.286   2.666
14158W        W86484  38.797   9.656   3.256
14159W        W86485  43.982  22.289  10.546
14160W        W86486  18.431   7.333   4.751
14161W        W86487  17.781   8.547   1.598
14162W        W86488  27.565  43.247   0.000
14163W        W86489  15.288  44.783   2.845
14164W        W86490  29.553  10.277  12.199
14165W        W86491  36.050   4.456  14.882
14166W        W86492   5.388   1.661   0.951
14167W        W86493  14.064  25.768  13.866
14168W        W86494  44.894  23.740   2.245
14169W        W86495  22.579  10.228  14.391
14170W        W86496  14.001   1.741   2.054
14171W        W86497   2.946   3.150   0.101
14172W        W86498  30.397  39.132  13.375
14173W        W86499  19.224  10.884   1.242
14174W        W86500  43.793  42.060  11.446
14175W        W86501   3.408  31.044   1.424
14176W        W86502  10.875  41.988   4.656
14177W        W86503  31.412  24.544  10.449
14178W        W86504  10.439   4.371  13.439
14179W        W86505  43.778   7.833   1.215
14180W        W86506  36.084  36.828   2.371
14181W        W86507  33.197  11.597  14.398
14182W        W86508   5.698  34.976  10.940
14183W        W86509  26.132  41.099   1.859
14184W        W86510  14.329  19.142   4.579
14185W        W86511   3.007  15.214   4.723
14186W        W86512   1.334  27.691   1.825
14187W        W86513   8.206  15.138   1.254
14188W        W86514  28.042  12.867   2.483
14189W        W86515  20.270   9.878   2.684
14190W        W86516  38.882  26.870  11.434
14191W        W86517  38.280  35.774  11.242
14192W        W86518   8.583  42.386   2.347
14193W        W86519  28.398   7.941  12.890
14194W        W86520  30.602   4.211  14.867
14195W        W86521   0.667   6.688  12.032
14196W        W86522  13.272   6.863  11.199
14197W        W86523  16.202   8.286   0.919
14198W        W86524  26.661  31.915  12.664
14199W        W86525  32.090   3.443   1.893
14200W        W86526  38.227  40.272  12.993
14201W        W86527  17.402   4.828   3.602
14202W        W86528  30.585  27.644   3.660
14203W        W86529   5.303  23.993   1.649
14204W        W86530  27.548  38.316   2.845
14205W        W86531  19.978  35.796   4.211
14206W        W86532   5.888  21.518  12.045
14207W        W86533  39.295  40.478   1.719
14208W        W86534  34.096  39.449  10.496
14209W        W86535   1.508   3.912  14.018
14210W        W86536   6.682  20.272   4.829
14211W        W86537  18.290  10.221  10.334
14212W        W86538  13.092   6.637   4.141
14213W        W86539   5.936  31.883  11.872
14214W        W86540  38.410  44.458  10.932
14215W        W86541  11.413  32.674  13.344
14216W        W86542  15.624  27.518   1.223
14217W        W86543  38.049  36.882  10.596
14218W        W86544  15.381  38.953   1.782
14219W        W86545  26.216   0.281   2.309
14220W        W86546  24.287  34.539  10.723
14221W        W86547  40.916  39.204   3.722
14222W        W86548  19.716  31.492   1.390
14223W        W86549  35.508  38.859   2.252
14224W        W86550  42.830   6.482   1.870
14225W        W86551   2.254  28.598  12.845
14226W        W86552  39.481  15.716   4.263
14227W        W86553  25.388  11.686  10.686
14228W        W86554  19.688  17.398   5.210
14229W        W86555  27.580   0.513  12.435
14230W        W86556  22.729  20.274   3.562
14231W        W86557  29.115  26.871  14.300
14232W        W86558  36.940   0.451   3.573
14233W        W86559  38.362  11.351  13.050
14234W        W86560   0.252  22.107  14.269
14235W        W86561  32.094  25.532  10.763
14236W        W86562  27.603  16.698   0.283
14237W        W86563  43.217  11.775  13.365
14238W        W86564  23.025   3.014  12.011
14239W        W86565   4.308  34.640   4.187
14240W        W86566  12.701  12.443   3.770
14241W        W86567  37.395  38.512  14.596
14242W        W86568   2.841  13.358   3.179
14243W        W86569  31.954  41.336  12.922
14244W        W86570  22.272  42.402   3.912
14245W        W86571  11.815  22.089   0.506
14246W        W86572  10.305   0.455   1.219
14247W        W86573   1.303   0.329   0.396
14248W        W86574  10.256  31.854  11.193
14249W        W86575  38.330  15.558   0.028
14250W        W86576  26.145   0.682   2.646
14251W        W86577   6.186  40.027   3.659
14252W        W86578  32.291  42.967  12.112
14253W        W86579  13.620  25.604  14.751
14254W        W86580  36.998   6.073  11.174
14255W        W86581   3.513  12.631  10.151
14256W        W86582  41.344  13.827   0.759
14257W        W86583  30.219  29.494  10.609
14258W        W86584  16.093  39.487  12.056
14259W        W86585  11.197  23.114   1.414
14260W        W86586  13.791  28.704   4.617
14261W        W86587  29.505  25.268  13.027
14262W        W86588  34.401   3.910  12.550
14263W        W86589  44.529  23.006  11.060
14264W        W86590   9.875   2.829   3.559
14265W        W86591  29.317  11.357   0.384
14266W        W86592  28.146  30.132   0.248
14267W        W86593  10.298  34.607  11.040
14268W        W86594  14.136  13.279  11.147
14269W        W86595  10.810  16.098   2.713
14270W        W86596   3.284  29.899  12.968
14271W        W86597  33.924  26.981  13.054
14272W        W86598   7.745  35.905   1.891
14273W        W86599  26.970  25.554   3.070
14274W        W86600  41.791  42.965   3.343
14275W        W86601   0.028  33.191   0.315
14276W        W86602  43.349  31.010   0.697
14277W        W86603  13.938  41.493   1.764
14278W        W86604  37.783   6.869   2.781
14279W        W86605  21.429  14.845   4.656
14280W        W86606  18.748  33.935  11.417
14281W        W86607  22.734  20.199  12.963
14282W        W86608  28.979   6.329  12.363
14283W        W86609   3.791  29.875  11.596
14284W        W86610  14.503   6.887   4.268
14285W        W86611   7.796   1.190   0.676
14286W        W86612   8.991   1.588   3.196
14287W        W86613  41.918   6.889  11.492
14288W        W86614  32.694  22.134   1.690
14289W        W86615   5.941   6.723  10.636
14290W        W86616  30.512  35.962   3.150
14291W        W86617   5.754  38.491   1.160
14292W        W86618  23.106  18.197   2.681
14293W        W86619  43.074   6.354  14.445
14294W        W86620   6.883  35.622  12.849
14295W        W86621  17.763  15.558   0.918
14296W        W86622  35.382  43.998   2.324
14297W        W86623  39.054  24.063   1.286
14298W        W86624  35.341   3.322   0.455
14299W        W86625  12.695   6.344  13.775
14300W        W86626  33.041  32.450  13.339
14301W        W86627  21.539  38.546  11.581
14302W        W86628  40.427  33.654   2.108
14303W        W86629  13.107  25.957   1.310
14304W        W86630  44.736  13.113   0.484
14305W        W86631  43.969  28.777   0.580
14306W        W86632  25.570   5.154  13.819
14307W        W86633  43.867   6.954  13.430
14308W        W86634  20.965  29.392   3.815
14309W        W86635  29.505  15.404  12.544
14310W        W86636  21.052  15.422  13.780
14311W        W86637  42.131  31.506  10.309
14312W        W86638  19.627  21.473   3.432
14313W        W86639  29.650  14.083   0.909
14314W        W86640   3.261  25.001  13.788
14315W        W86641   9.664  43.018   4.068
14316W        W86642  10.172   5.686  13.365
14317W        W86643   8.359  22.608   1.905
14318W        W86644  44.116   2.478  11.938
14319W        W86645  16.338  14.079  11.932
14320W        W86646   2.984  30.966   4.606
14321W        W86647   7.094   8.305  12.881
14322W        W86648  25.490  11.320  12.092
14323W        W86649   1.331  33.565  14.442
14324W        W86650  13.611  17.713  13.806
14325W        W86651  27.882  40.237   1.770
14326W        W86652   8.802  43.715   0.811
14327W        W86653  38.493  39.286   4.456
14328W        W86654  17.806  29.232  10.380
14329W        W86655   5.643  17.124  14.771
14330W        W86656  21.140  41.075  10.621
14331W        W86657  11.007  39.441  13.972
14332W        W86658  44.059  30.033   4.940
14333W        W86659   3.894   4.970  10.088
14334W        W86660  28.547  21.127  11.901
14335W        W86661  18.845   2.737  13.868
14336W        W86662  41.881  37.858   5.003
14337W        W86663  44.808   5.441  10.460
14338W        W86664  31.054  15.481   2.814
14339W        W86665  14.468  42.862  11.933
14340W        W86666  31.131  18.582   3.995
14341W        W86667   2.778   3.375   1.360
14342W        W86668   2.895  19.180  12.957
14343W        W86669  40.386   5.358   4.068
14344W        W86670  35.387  32.438   2.318
14345W        W86671   3.903  40.729   4.199
14346W        W86672  43.758   4.506   0.977
14347W        W86673   4.193  16.703   4.684
14348W        W86674   3.756   2.746  11.008
14349W        W86675  35.433  24.662  10.519
14350W        W86676   8.281  42.008  13.851
14351W        W86677   3.880  29.464  13.496
14352W        W86678  43.915  41.034   2.259
14353W        W86679   2.184  29.747  14.347
14354W        W86680  23.770  41.990  14.466
14355W        W86681   1.482   2.841  12.106
14356W        W86682  23.873  34.722   1.383
14357W        W86683  11.063   3.210  12.966
14358W        W86684  31.285  38.331   4.231
14359W        W86685   0.292  26.711   2.941
14360W        W86686   9.356  14.596  14.379
14361W        W86687  11.295  13.345  14.847
14362W        W86688   2.844  38.445  12.956
14363W        W86689  21.149   6.460  14.372
14364W        W86690  10.738   8.943   1.853
14365W        W86691  10.725  24.480  13.028
14366W        W86692  33.913  22.549  14.973
14367W        W86693  31.685  33.595  13.312
14368W        W86694  25.467  44.539   2.197
14369W        W86695  28.062  18.786  13.666
14370W        W86696  42.217  33.629  11.905
14371W        W86697  32.861  38.354  11.198
14372W        W86698   5.779  31.936   1.246
14373W        W86699   7.790  13.782  11.972
14374W        W86700  23.581   6.257  10.663
14375W        W86701  15.685  41.417   1.151
14376W        W86702   6.999  21.536  10.998
14377W        W86703  24.267   5.862  14.278
14378W        W86704  10.825  13.408  14.015
14379W        W86705  26.126   5.930  11.598
14380W        W86706  35.883  33.085  12.820
14381W        W86707  13.883  35.850  12.971
14382W        W86708   8.426  24.693  11.069
14383W        W86709  19.391  28.113   3.303
14384W        W86710   6.325  43.263   4.104
14385W        W86711   2.229  41.508  10.281
14386W        W86712  39.655  40.891  11.931
14387W        W86713  33.183  42.980  10.537
14388W        W86714  39.822   6.633   0.840
14389W        W86715   7.285  32.643   0.431
14390W        W86716  30.396   1.316  11.587
14391W        W86717  13.671  14.335  11.790
14392W        W86718  32.106  30.563  10.460
14393W        W86719  18.656  21.049   4.504
14394W        W86720   5.843  24.650  12.586
14395W        W86721  40.366  27.604   4.328
14396W        W86722  36.981  17.203   1.817
14397W        W86723  22.137  41.143   3.031
14398W        W86724   4.141   5.903   2.134
14399W        W86725  43.268  22.071  13.590
14400W        W86726  10.795  38.255  14.585
14401W        W86727  43.067  32.102  11.910
14402W        W86728   9.371  43.187  11.182
14403W        W86729   1.311   1.529   2.339
14404W        W86730   7.731  43.632   2.632
14405W        W86731  29.502  34.884   0.439
14406W        W86732  25.236  29.579   2.703
14407W        W86733  13.639  36.848  12.904
14408W        W86734   8.694  14.078   0.423
14409W        W86735  28.177  37.009   2.207
14410W        W86736  14.758  33.941   9.778
14411W        W86737  36.586  34.512  10.652
14412W        W86738  26.532   4.629   2.459
14413W        W86739  30.935  42.598  14.942
14414W        W86740  23.502  15.608  10.695
14415W        W86741   7.376  43.758   0.718
14416W        W86742  41.760  31.478  12.088
14417W        W86743  23.683  21.094  10.828
14418W        W86744  31.389  39.253  14.207
14419W        W86745  41.405  31.655   2.186
14420W        W86746  13.586  30.937  13.232
14421W        W86747  11.746  17.744  14.680
14422W        W86748  13.259  20.281   1.723
14423W        W86749   9.008  17.437   4.191
14424W        W86750   7.119  25.037   2.270
14425W        W86751  41.810  37.756  12.411
14426W        W86752  28.472  34.060   1.309
14427W        W86753  16.644   6.266  14.046
14428W        W86754  13.224  39.254  13.033
14429W        W86755   6.882  43.443  10.793
14430W        W86756   5.775  41.751   4.502
14431W        W86757  32.396  12.061  12.167
14432W        W86758  10.694  44.869   0.539
14433W        W86759  20.546   3.388  11.642
14434W        W86760   9.419   6.926  12.480
14435W        W86761   4.368  39.774   0.812
14436W        W86762  42.011  39.756   0.827
14437W        W86763  18.715  10.953   0.012
14438W        W86764  19.554  12.943   4.471
14439W        W86765  24.054  11.914   3.145
14440W        W86766   7.428  11.088   3.308
14441W        W86767  11.274  19.654  10.521
14442W        W86768  38.977  19.567  10.239
14443W        W86769  33.409  26.226   4.270
14444W        W86770  29.550  16.862   0.242
14445W        W86771  18.551  28.238   1.875
14446W        W86772   1.182  25.506   0.258
14447W        W86773  34.243  24.699  11.937
14448W        W86774  25.523  11.556  13.033
14449W        W86775  17.231  39.013   1.718
14450W        W86776  31.644  41.437  14.996
14451W        W86777  38.347   0.190  13.376
14452W        W86778  18.209  17.087   0.100
14453W        W86779  33.053   0.669   3.404
14454W        W86780  24.479  41.114  14.676
14455W        W86781   7.706  32.978   0.717
14456W        W86782  31.179  27.670  12.900
14457W        W86783   5.970  39.430   2.869
14458W        W86784  22.602  26.632  13.984
14459W        W86785  37.480  31.964  10.476
14460W        W86786   3.557  41.293   1.751
14461W        W86787  21.263  26.888  10.186
14462W        W86788  30.803   4.691   2.887
14463W        W86789  15.534  12.266   1.007
14464W        W86790  43.965   1.408   3.612
14465W        W86791   9.717  28.979  10.685
14466W        W86792  40.025  30.900   2.085
14467W        W86793  16.685  42.320  12.252
14468W        W86794  44.052  27.964  12.979
14469W        W86795  21.415  16.658   0.789
14470W        W86796  31.795   7.799   4.571
14471W        W86797  18.749  34.971   4.326
14472W        W86798   9.234  27.689  10.517
14473W        W86799  27.555  43.323   3.190
14474W        W86800  26.409  25.862   0.213
14475W        W86801  18.652  24.298  11.505
14476W        W86802  16.652  41.317  11.130
14477W        W86803   1.965  37.963   4.245
14478W        W86804  34.449  38.454  11.943
14479W        W86805  27.152  41.504  12.148
14480W        W86806   1.299  11.174   2.339
14481W        W86807   5.483  36.625   1.654
14482W        W86808  40.330  19.646   0.731
14483W        W86809  43.344  17.324  10.688
14484W        W86810  14.608  24.174   0.857
14485W        W86811  26.564  39.998   4.367
14486W        W86812  11.832  40.432  14.948
14487W        W86813  39.144   2.290  10.663
14488W        W86814  24.572  10.666   2.385
14489W        W86815   8.751  27.119   0.158
14490W        W86816   7.243  31.132   3.285
14491W        W86817   8.165  44.755  11.326
14492W        W86818  13.517  26.531   0.549
14493W        W86819  20.640  18.129   0.444
14494W        W86820  15.198   9.117   1.397
14495W        W86821  22.146  11.273   3.397
14496W        W86822  17.602  42.052  10.616
14497W        W86823  23.237   3.890   0.147
14498W        W86824  29.676   9.999   0.573
14499W        W86825  38.391  22.259  14.816
14500W        W86826  22.711  28.236   4.594
14501W        W86827   9.769  36.384  13.300
14502W        W86828  16.864   1.478  13.482
14503W        W86829  31.416  14.666   2.623
14504W        W86830  36.442  35.965   5.527
14505W        W86831   0.540  13.260  11.035
14506W        W86832  11.300  16.535   1.378
14507W        W86833  36.932  22.538  11.520
14508W        W86834  15.153  43.373  10.867
14509W        W86835   4.269   7.715   2.943
14510W        W86836  23.732  37.874  10.297
14511W        W86837   1.416  33.934   4.163
14512W        W86838  10.522  36.890  11.187
14513W        W86839  29.832  18.177  13.915
14514W        W86840  18.230  44.899  12.792
14515W        W86841   1.954  36.079   1.940
14516W        W86842   2.412  30.001   3.879
14517W        W86843  29.980   1.023  11.413
14518W        W86844  10.467  13.764   3.384
14519W        W86845  33.387  13.563   3.070
14520W        W86846  11.793  24.692  11.198
14521W        W86847  28.439  16.157  12.860
14522W        W86848  19.368  34.044   2.703
14523W        W86849   9.061  31.586  14.534
14524W        W86850  21.692  33.451   2.237
14525W        W86851   6.609  22.183   4.707
14526W        W86852  11.771  11.843  10.184
14527W        W86853   0.259  14.439  11.093
14528W        W86854  43.006   4.612   1.388
14529W        W86855  10.329   0.832   2.881
14530W        W86856   4.703   0.046  14.347
14531W        W86857  28.480  23.969  13.004
14532W        W86858   1.959   6.235   4.554
14533W        W86859  11.818  17.528  11.048
14534W        W86860   2.605  41.110  13.972
14535W        W86861   8.261  35.631  11.623
14536W        W86862  17.655  11.575  13.333
14537W        W86863  24.924  23.133   0.441
14538W        W86864  21.032   5.391  14.061
14539W        W86865  14.081  16.867  12.600
14540W        W86866  12.327  18.326  14.456
14541W        W86867  13.779  34.470  14.491
14542W        W86868   9.339  40.480  14.444
14543W        W86869   5.147  38.119   3.113
14544W        W86870   7.901  17.220   2.764
14545W        W86871  24.963   4.487   3.762
14546W        W86872  13.623  44.703   1.870
14547W        W86873  43.494  42.266   0.771
14548W        W86874   0.523  13.600   1.909
14549W        W86875  42.223   0.496  13.916
14550W        W86876   7.341  38.007   3.650
14551W        W86877  10.762   9.615  11.216
14552W        W86878  33.895  42.141   2.780
14553W        W86879  21.265  21.008  11.812
14554W        W86880  28.630  17.552   3.283
14555W        W86881   1.976  20.014   3.124
14556W        W86882  31.173  23.171  11.510
14557W        W86883   4.525   4.401   1.696
14558W        W86884  44.390  37.515  11.689
14559W        W86885  10.135   4.988   4.163
14560W        W86886  25.451  40.902  13.296
14561W        W86887   4.605   0.891  13.075
14562W        W86888  20.749  43.046   2.145
14563W        W86889  39.275  10.517  13.338
14564W        W86890   6.243  35.109   4.693
14565W        W86891   5.090  27.095   0.380
14566W        W86892  28.000  36.400  13.043
14567W        W86893  25.618  38.235   1.619
14568W        W86894  37.887  18.268  11.980
14569W        W86895  27.668  13.349   1.276
14570W        W86896  38.571  34.016  10.705
14571W        W86897  43.832  40.397   3.866
14572W        W86898  24.563  13.998  13.810
14573W        W86899  26.966   3.786  14.533
14574W        W86900  30.013  28.642  10.148
14575W        W86901   3.153  41.619   3.204
14576W        W86902  19.100  35.946   2.752
14577W        W86903   4.106  41.785  11.172
14578W        W86904  20.167  10.808  12.969
14579W        W86905   2.390  27.621  11.578
14580W        W86906  41.152  25.458  13.734
14581W        W86907  39.842   4.501  12.089
14582W        W86908   4.437  35.797   1.300
14583W        W86909  39.484  12.446   0.807
14584W        W86910  39.013  27.518   0.038
14585W        W86911   0.805  40.292  14.008
14586W        W86912  42.840  33.109  10.723
14587W        W86913   3.874   9.476   1.464
14588W        W86914   2.742  44.807  12.878
14589W        W86915  29.196   6.298  11.908
14590W        W86916  29.959  30.432  14.737
14591W        W86917  36.158   2.580   3.402
14592W        W86918  20.848   6.208   2.270
14593W        W86919  28.387  27.616   4.571
14594W        W86920  30.565  21.071   4.675
14595W        W86921  22.346  33.458  14.328
14596W        W86922   1.878  27.603   0.877
14597W        W86923  10.141   5.759  14.223
14598W        W86924  39.211  37.820  12.587
14599W        W86925  41.445  31.548  13.484
14600W        W86926  43.921  11.316  12.950
14601W        W86927  14.193  15.631   1.029
14602W        W86928  29.560  25.667  11.951
14603W        W86929  18.179  24.690   1.652
14604W        W86930  13.878  11.822  12.000
14605W        W86931  40.434  27.158   4.588
14606W        W86932  44.738   9.708   4.700
14607W        W86933   9.669  16.872   2.555
14608W        W86934   8.172  24.071   0.997
14609W        W86935  35.647  10.865  13.984
14610W        W86936  35.767  16.996  11.567
14611W        W86937  18.151  18.457  13.853
14612W        W86938  28.860  34.991   2.294
14613W        W86939  19.603  16.102   2.636
14614W        W86940  17.567  30.591   4.159
14615W        W86941   5.336  40.355  11.106
14616W        W86942  43.726   4.666  10.640
14617W        W86943   4.651  25.689  13.568
14618W        W86944   6.374  24.512  13.749
14619W        W86945   8.498  38.880   3.862
14620W        W86946  22.979  44.123   3.686
14621W        W86947   4.394   7.834   2.446
14622W        W86948  29.499  44.479  12.081
14623W        W86949  11.408  25.120   3.416
14624W        W86950   7.222  41.294  13.615
14625W        W86951  25.635  12.156  10.558
14626W        W86952  22.620   7.154  10.290
14627W        W86953   9.348   9.868   2.884
14628W        W86954  15.672   9.735  11.158
14629W        W86955  22.360  38.056   2.953
14630W        W86956  10.946  43.495   2.919
14631W        W86957  18.330   6.858  12.558
14632W        W86958  35.867  35.815   5.367
14633W        W86959  18.615   8.875  12.148
14634W        W86960  19.515   1.900   0.302
14635W        W86961  30.109  19.164   0.036
14636W        W86962  30.164  14.151   0.942
14637W        W86963  23.127  30.477   3.870
14638W        W86964  33.339  34.725   0.821
14639W        W86965  24.988  42.934   0.115
14640W        W86966  25.903   6.092  11.166
14641W        W86967  31.121  19.787  13.323
14642W        W86968  28.072  15.242   2.694
14643W        W86969   2.790  38.265   0.358
14644W        W86970  44.205  17.105   0.064
14645W        W86971  13.559  21.342  12.983
14646W        W86972  30.008  22.605  11.486
14647W        W86973  36.451  37.452   5.019
14648W        W86974  15.246  34.368   1.218
14649W        W86975  32.536  18.493   3.330
14650W        W86976  34.881  36.852  13.478
14651W        W86977  21.714  25.548   2.436
14652W        W86978  44.484  23.237   3.215
14653W        W86979  34.051   4.742   2.338
14654W        W86980  24.194  11.613  14.592
14655W        W86981  42.361  20.727  13.825
14656W        W86982  17.002  23.822   1.071
14657W        W86983  41.208  13.878  14.043
14658W        W86984  43.329  39.935  13.706
14659W        W86985  34.867  40.922   0.343
14660W        W86986  27.941  32.468   4.034
14661W        W86987  20.199  19.234   3.275
14662W        W86988  22.252  28.128   1.307
14663W        W86989  36.391  20.187  14.450
14664W        W86990  34.942  37.414  10.096
14665W        W86991  43.773   8.380   0.002
14666W        W86992  41.972  42.474   4.189
14667W        W86993  28.681  17.751  12.569
14668W        W86994   7.916  15.095   3.033
14669W        W86995  15.834  31.070   0.342
14670W        W86996   7.728  37.468  10.686
14671W        W86997   8.794  42.062  12.029
14672W        W86998  14.627  19.044  11.102
14673W        W86999   3.807  28.443  10.535
14674W        W87000  40.991  11.661  13.812
14675W        W87001  32.565  44.344   1.901
14676W        W87002  21.055   5.741  13.413
14677W        W87003  25.453  38.518   1.223
14678W        W87004  43.887  36.361  11.303
14679W        W87005  20.841  18.253  10.388
14680W        W87006  12.549   3.190  11.693
14681W        W87007  37.341  40.361   3.863
14682W        W87008   1.304  33.279  10.848
14683W        W87009  27.662   4.509   1.201
14684W        W87010  33.903  13.358  13.982
14685W        W87011  22.517  23.759  13.709
14686W        W87012  39.039  15.220  12.157
14687W        W87013  43.246  32.628  12.692
14688W        W87014   8.976  22.734   3.169
14689W        W87015  36.433   8.001  11.074
14690W        W87016  35.511  43.704  13.082
14691W        W87017  36.336  27.499  12.884
14692W        W87018  18.150  33.362  14.817
14693W        W87019  27.534  32.517  14.802
14694W        W87020  34.655   4.369   1.932
14695W        W87021  25.632  12.016  14.096
14696W        W87022  12.891  39.658   2.898
14697W        W87023  10.415  36.420   1.922
14698W        W87024  26.842   6.254  14.383
14699W        W87025   5.006  41.584   1.684
14700W        W87026  13.557  23.962  14.275
14701W        W87027  35.075  25.605   4.583
14702W        W87028  40.015  11.117  12.996
14703W        W87029  43.299  18.429  11.555
14704W        W87030  41.277  15.319   0.865
14705W        W87031  16.633  39.916  12.716
14706W        W87032  30.386  22.286  10.570
14707W        W87033  17.923  20.394   3.732
14708W        W87034  35.475   3.768   2.086
14709W        W87035  19.643  18.276   0.483
14710W        W87036   6.741  24.330   4.491
14711W        W87037  25.579  32.640  14.021
14712W        W87038  28.933  39.931  13.444
14713W        W87039  40.253   1.671  13.941
14714W        W87040   5.647  33.938   3.929
14715W        W87041  40.355  31.899   0.310
14716W        W87042  26.453  14.644  14.798
14717W        W87043  17.103  21.952  14.065
14718W        W87044  13.801  34.571  11.194
14719W        W87045  23.494   9.829  14.436
14720W        W87046  44.824  35.865   1.615
14721W        W87047  35.367  20.082  14.601
14722W        W87048  30.077  12.910  14.222
14723W        W87049   3.123  40.834   2.771
14724W        W87050  27.774  18.617  14.445
14725W        W87051   0.162  26.488   3.392
14726W        W87052  26.569  11.080  12.077
14727W        W87053  31.941  25.754   4.148
14728W        W87054  10.332   8.045  13.872
14729W        W87055  26.186  36.004  11.350
14730W        W87056  12.786  25.166   3.592
14731W        W87057  27.194  18.093   4.286
14732W        W87058  27.257   9.888  10.586
14733W        W87059  35.999  44.914   1.115
14734W        W87060  33.525  34.131  11.898
14735W        W87061  40.460  15.279   3.175
14736W        W87062  13.585  30.665   1.303
14737W        W87063  22.143  27.105  13.321
14738W        W87064  24.683  13.241  11.588
14739W        W87065  11.917  44.990  11.445
14740W        W87066  10.873  41.833  11.349
14741W        W87067  44.546  35.597   0.040
14742W        W87068  11.733  40.525  13.436
14743W        W87069  21.699  15.557  12.652
14744W        W87070  37.489  44.073  13.153
14745W        W87071  19.747   8.304   4.152
14746W        W87072  23.295  40.863  10.057
14747W        W87073  26.229  30.607   3.218
14748W        W87074  38.255  34.499  13.431
14749W        W87075  13.636   0.066  12.057
14750W        W87076  25.111   4.691   1.064
14751W        W87077  21.661  39.226   0.050
14752W        W87078  16.633   8.896  13.510
14753W        W87079  13.747  26.436   1.006
14754W        W87080  27.952  39.820  11.110
14755W        W87081  11.218  10.419  12.075
14756W        W87082  43.380   5.075  10.748
14757W        W87083  31.659   3.282   1.325
14758W        W87084  34.703  15.333   1.333
14759W        W87085  13.136  11.878   1.390
14760W        W87086  38.391  18.509  12.500
14761W        W87087  28.424   9.449   4.080
14762W        W87088   3.366   4.926  12.823
14763W        W87089   7.814  21.295  14.821
14764W        W87090   3.276  21.961   2.367
14765W        W87091  43.511   8.313  13.079
14766W        W87092  44.082   9.827   1.294
14767W        W87093  23.671  41.252   3.958
14768W        W87094  28.161  42.810  14.150
14769W        W87095  10.715  25.208   4.276
14770W        W87096  13.321   6.431   0.981
14771W        W87097  32.558   5.336   1.845
14772W        W87098  28.478   2.688  11.209
14773W        W87099  38.331  11.086  12.613
14774W        W87100  23.068   5.187   1.878
14775W        W87101  17.677   5.713   1.782
14776W        W87102  38.065   4.396  12.119
14777W        W87103  30.097  43.471   4.775
14778W        W87104   8.664  32.968   0.824
14779W        W87105  13.724  40.315  14.516
14780W        W87106   7.789  16.236   0.526
14781W        W87107  25.199  38.770   4.155
14782W        W87108  28.250   9.737  12.439
14783W        W87109  10.651  22.158  11.074
14784W        W87110  26.545  32.954  11.174
14785W        W87111  28.688   2.999  11.561
14786W        W87112  41.834   7.285  12.008
14787W        W87113  23.441  37.395   1.068
14788W        W87114  42.185  35.942   1.206
14789W        W87115  28.814  37.900  13.793
14790W        W87116  25.494  14.098  14.266
14791W        W87117  16.408   0.431   0.342
14792W        W87118  36.365  43.016   0.413
14793W        W87119  20.593  27.656   2.772
14794W        W87120  41.304  39.834  10.664
14795W        W87121  32.534  13.719   4.616
14796W        W87122   7.891  16.066  10.514
14797W        W87123   0.401  11.574  11.433
14798W        W87124  29.593  21.036   4.583
14799W        W87125  34.538  18.979  13.105
14800W        W87126  36.116  42.061   0.385
14801W        W87127  37.149   2.717   0.356
14802W        W87128  13.411  12.771   2.340
14803W        W87129  43.524  29.121   0.506
14804W        W87130  37.928  38.638   1.731
14805W        W87131  18.975   2.774   1.992
14806W        W87132  14.025  44.849   3.433
14807W        W87133  32.222  16.807  11.150
14808W        W87134  34.787  34.039   3.748
14809W        W87135   6.808  39.604   0.970
14810W        W87136  15.060  24.220   2.687
14811W        W87137  11.118  31.392   1.397
14812W        W87138   4.229  42.889   3.366
14813W        W87139  37.635   4.291  11.847
14814W        W87140  33.935   2.934   2.400
14815W        W87141  38.275  21.611   3.189
14816W        W87142  29.922  14.492   2.773
14817W        W87143  19.578  36.135   4.772
14818W        W87144  34.160   2.177   1.908
14819W        W87145  25.102  29.637  14.293
14820W        W87146  26.267   2.981  13.422
14821W        W87147  44.926  37.182  13.694
14822W        W87148  18.079  16.774   2.744
14823W        W87149  20.255  37.405   2.984
14824W        W87150  28.701  32.870   1.490
14825W        W87151   2.898  41.817   4.813
14826W        W87152  14.829  12.613  14.764
14827W        W87153  37.377  16.115  11.132
14828W        W87154   2.396  44.601   3.342
14829W        W87155  33.004  42.827  10.995
14830W        W87156  40.488  41.219  10.381
14831W        W87157  10.356   9.836   0.441
14832W        W87158   9.402  10.092  14.842
14833W        W87159  11.312  11.160   2.761
14834W        W87160  10.263   0.566   0.332
14835W        W87161  11.389  43.786  11.013
14836W        W87162  22.508   3.773  12.622
14837W        W87163   6.345  36.518   4.603
14838W        W87164  27.686  34.866  11.047
14839W        W87165  16.594  30.377  11.395
14840W        W87166  33.044  39.527  10.668
14841W        W87167  33.699   3.869   2.902
14842W        W87168   4.881   4.215   1.333
14843W        W87169  23.542  30.088   1.607
14844W        W87170  19.210  35.163   0.844
14845W        W87171  12.179  26.495  14.202
14846W        W87172  16.301  18.937  10.659
14847W        W87173  38.329  21.594  12.011
14848W        W87174  25.995   2.142   2.934
14849W        W87175  27.455   5.727   4.218
14850W        W87176  17.310  42.566   4.686
14851W        W87177  23.777  42.927  10.612
14852W        W87178  31.120  39.378   4.847
14853W        W87179  30.943  20.472  14.872
14854W        W87180   1.346  25.778  14.785
14855W        W87181  17.234  17.322   4.553
14856W        W87182  21.135  27.692   2.224
14857W        W87183   1.851   0.234   0.968
14858W        W87184   4.383   2.846  10.302
14859W        W87185   1.297   7.175  13.867
14860W        W87186  23.091  42.225   3.328
14861W        W87187   2.032   7.200   4.416
14862W        W87188  16.041  13.110   3.369
14863W        W87189  16.632  33.654  12.823
14864W        W87190  10.955  18.711   4.192
14865W        W87191  33.086   4.670   0.336
14866W        W87192  16.795  13.256  13.840
14867W        W87193  39.266  36.651  11.419
14868W        W87194  12.545  33.717   1.849
14869W        W87195  31.574  20.788   2.204
14870W        W87196  39.311   9.614  12.642
14871W        W87197   6.552  16.727  10.538
14872W        W87198   9.331  27.175   1.771
14873W        W87199   6.874  33.525   0.484
14874W        W87200  19.731  16.147   3.809
14875W        W87201  13.298  33.843   5.673
14876W        W87202  21.433  12.646  12.947
14877W        W87203  33.723  30.668   0.979
14878W        W87204  41.988  30.642  14.831
14879W        W87205  20.865  30.681  11.567
14880W        W87206  36.074  12.619  11.637
14881W        W87207  28.805   0.819  12.244
14882W        W87208  31.338   4.456   0.547
14883W        W87209   6.598   8.171  12.947
14884W        W87210  10.790  29.381  11.636
14885W        W87211  30.289  43.854  13.012
14886W        W87212  11.153  24.996   0.147
14887W        W87213  28.157   8.842  14.103
14888W        W87214  40.824  37.522   3.747
14889W        W87215  23.484  24.982  14.944
14890W        W87216  43.515  36.367  12.566
14891W        W87217  34.320  22.077   3.336
14892W        W87218  12.365  23.411  13.825
14893W        W87219   3.425  38.945  13.506
14894W        W87220  35.052  20.961  13.852
14895W        W87221  32.525  22.264  12.698
14896W        W87222  29.220  32.203   0.367
14897W        W87223   0.352  17.022  10.742
14898W        W87224  23.999  18.986  13.866
14899W        W87225  26.173   5.124   2.693
14900W        W87226  17.167   1.262   0.307
14901W        W87227   3.379  20.579   4.377
14902W        W87228  19.127  20.716   1.507
14903W        W87229   1.434   2.894   2.641
14904W        W87230  39.614  11.204   1.250
14905W        W87231   2.977  14.093  11.507
14906W        W87232  38.651  37.691  12.569
14907W        W87233  21.032   9.483  12.037
14908W        W87234  34.857  35.222  14.137
14909W        W87235  11.298  26.994  11.670
14910W        W87236  44.753  14.180  10.358
14911W        W87237  16.230  10.985   0.568
14912W        W87238   9.656  12.941  12.054
14913W        W87239   4.261  23.490  12.850
14914W        W87240  18.157  38.056  12.590
14915W        W87241   5.132  23.391  14.768
14916W        W87242  16.911  19.238  14.259
14917W        W87243  44.311  17.743  14.416
14918W        W87244   5.919  11.300   0.945
14919W        W87245  22.513  22.652  14.325
14920W        W87246  24.092   7.752   4.016
14921W        W87247  11.294   8.111   3.652
14922W        W87248  37.311  18.477  14.927
14923W        W87249  12.725  21.794  12.006
14924W        W87250  37.933  32.592   4.514
14925W        W87251   3.305  11.723   2.784
14926W        W87252  31.475  14.189   1.398
14927W        W87253  14.608  33.860   3.118
14928W        W87254  17.847  28.505  14.038
14929W        W87255   9.132   8.231   0.926
14930W        W87256  29.859  20.240   0.388
14931W        W87257  34.158  44.737  11.112
14932W        W87258  39.880   4.123  12.439
14933W        W87259  25.717   1.371  14.043
14934W        W87260   3.779  18.753  12.382
14935W        W87261  25.094  33.657  13.350
14936W        W87262  10.777  34.039  10.633
14937W        W87263   7.271  38.748   1.722
14938W        W87264  14.297   9.811   4.142
14939W        W87265  15.598  42.478  12.016
14940W        W87266   1.431  25.691   1.163
14941W        W87267  13.771  44.883   1.364
14942W        W87268  38.026   2.404   2.192
14943W        W87269   4.908  30.758   4.543
14944W        W87270  20.696   5.015   1.911
14945W        W87271   4.152   6.403   3.566
14946W        W87272  23.297   9.958  13.063
14947W        W87273  27.083  21.987  13.868
14948W        W87274   6.124  27.219   2.153
14949W        W87275   8.097   2.018   5.033
14950W        W87276   5.819  27.955   1.009
14951W        W87277   3.582   5.624   3.746
14952W        W87278  14.813  30.383   1.043
14953W        W87279  40.371  25.115  14.713
14954W        W87280   2.925  29.908  12.532
14955W        W87281  20.993  18.895   3.598
14956W        W87282  30.160  28.380   2.111
14957W        W87283   5.725  26.730   4.034
14958W        W87284  14.640  38.188   2.311
14959W        W87285   0.703  20.205  12.938
14960W        W87286  31.520  32.878   0.850
14961W        W87287  20.800  37.577  12.038
14962W        W87288   7.713  23.388  11.169
14963W        W87289   8.756   5.898  11.171
14964W        W87290  24.422  27.918  14.774
14965W        W87291   8.165  32.367   4.228
14966W        W87292  41.482   6.554   1.653
14967W        W87293  37.324  41.757  13.912
14968W        W87294  31.543   3.761  12.118
14969W        W87295   4.810   9.062   2.798
14970W        W87296  44.389  11.068   1.789
14971W        W87297  39.219  21.898  14.799
14972W        W87298  36.014  44.261   2.952
14973W        W87299  18.884  17.333  14.816
14974W        W87300  11.369  12.438  13.591
14975W        W87301  43.773  38.869   1.273
14976W        W87302  16.200  18.821   2.803
14977W        W87303  27.943  19.489   4.799
14978W        W87304  23.088  31.138   2.111
14979W        W87305  40.769  10.750   3.673
14980W        W87306  34.264  34.101   0.823
14981W        W87307  23.038  37.359   4.759
14982W        W87308  11.545   6.882  13.103
14983W        W87309   3.341  20.456  14.431
14984W        W87310  37.743  20.150  14.549
14985W        W87311   8.245   7.372   3.861
14986W        W87312   6.470  16.575   3.185
14987W        W87313  10.969  16.004  12.065
14988W        W87314  26.952  12.674   0.924
14989W        W87315   8.082  23.768  11.152
14990W        W87316  16.072   0.945  10.575
14991W        W87317  38.573  39.545  13.436
14992W        W87318  23.279   9.312   3.330
14993W        W87319  19.497  34.889  10.743
14994W        W87320  31.879   7.248  12.051
14995W        W87321  16.158  39.059  12.375
14996W        W87322  18.553  15.709  12.943
14997W        W87323   1.512  41.917  14.062
14998W        W87324   7.824   5.044  14.849
14999W        W87325  18.118   0.868   1.300
15000W        W87326  30.534  27.479   4.993
15001W        W87327  21.477  30.523   2.831
15002W        W87328  28.729  18.463   4.297
15003W        W87329  39.516  44.180   0.073
15004W        W87330  45.000  23.620  12.453
15005W        W87331  19.385   9.528  14.817
15006W        W87332   9.354  42.854  12.051
15007W        W87333   2.476   1.842   0.467
15008W        W87334  37.640  40.094   0.398
15009W        W87335   9.127  31.865   0.725
15010W        W87336  10.885  16.931  11.928
15011W        W87337  37.038  23.020   4.912
15012W        W87338  33.447  28.126  12.490
15013W        W87339   1.867  35.423  11.485
15014W        W87340   4.010  35.892   4.565
15015W        W87341   8.097  17.287  11.478
15016W        W87342  43.455  31.816  10.421
15017W        W87343  27.733  20.616  12.403
15018W        W87344   7.382   6.558  10.929
15019W        W87345  26.527  42.586  12.585
15020W        W87346  31.135  31.353  13.979
15021W        W87347  24.426  30.432   4.822
15022W        W87348   5.911  16.555  11.838
15023W        W87349  31.080  33.076  14.307
15024W        W87350  34.316  17.540   3.231
15025W        W87351  37.782   5.258  10.479
15026W        W87352   1.027  10.077  12.926
15027W        W87353  14.764  16.829  12.227
15028W        W87354  35.609   3.241  13.257
15029W        W87355  29.545   4.235   0.888
15030W        W87356  26.496   7.843  14.112
15031W        W87357   1.609  10.928  14.987
15032W        W87358  33.050  40.717  13.967
15033W        W87359  27.677  40.256   1.263
15034W        W87360  33.135  14.835  14.468
15035W        W87361   7.299  34.580   0.019
15036W        W87362  23.132  34.149   0.777
15037W        W87363  10.328  21.207  12.969
15038W        W87364   5.211  26.435  11.524
15039W        W87365  31.934  42.082   3.417
15040W        W87366  22.020  12.848   0.508
15041W        W87367  17.908  25.575  11.528
15042W        W87368  18.122  41.045  11.898
15043W        W87369  38.804  35.552   4.755
15044W        W87370   5.130  29.962   3.167
15045W        W87371   0.285  16.930   3.231
15046W        W87372  43.016  18.199   3.532
15047W        W87373  44.222  23.764  13.111
15048W        W87374  40.807  39.841   1.273
15049W        W87375  25.746  36.228   1.799
15050W        W87376  33.387  11.753   2.171
15051W        W87377  22.127  38.097  10.503
15052W        W87378  31.749  12.700  11.574
15053W        W87379  40.315  39.008  10.757
15054W        W87380  22.544   5.137  14.550
15055W        W87381  10.706   8.418  14.543
15056W        W87382  29.627  32.072   4.578
15057W        W87383   0.335  27.516   1.994
15058W        W87384  23.945  38.216   0.433
15059W        W87385  33.302  28.683  13.316
15060W        W87386  15.265   6.329   1.416
15061W        W87387  32.852  42.829  14.873
15062W        W87388  39.736  38.679  10.061
15063W        W87389  37.848  10.864  12.483
15064W        W87390  40.337   3.127  12.436
15065W        W87391  28.585  23.769  11.357
15066W        W87392   6.419  10.392   0.806
15067W        W87393  36.506   1.433   2.864
15068W        W87394   0.154  23.155   9.900
15069W        W87395  44.816   7.787   3.675
15070W        W87396  12.331  25.484  14.877
15071W        W87397   8.171  39.592  13.791
15072W        W87398   2.192  44.990   2.405
15073W        W87399  37.401   5.495  13.006
15074W        W87400  32.952  41.082  11.538
15075W        W87401  44.269  43.236  12.395
15076W        W87402   5.027  42.099   4.034
15077W        W87403   5.658  16.839   1.477
15078W        W87404   3.031  23.437   1.690
15079W        W87405  24.788   3.630  14.508
15080W        W87406  25.103  16.198  13.834
15081W        W87407   5.646  17.748   3.652
15082W        W87408  23.448  38.008   3.747
15083W        W87409  42.390   9.091  14.400
15084W        W87410  22.802   1.477   2.159
15085W        W87411  11.637  39.512   4.055
15086W        W87412  36.206  40.917  10.667
15087W        W87413  23.310  13.779  11.070
15088W        W87414  27.636  24.217  12.780
15089W        W87415  14.287  14.633  12.691
15090W        W87416  25.904  43.011   2.084
15091W        W87417  20.825  12.360  13.438
15092W        W87418  22.859   9.867   2.297
15093W        W87419  42.064  26.022  11.653
15094W        W87420  41.561  35.406   1.797
15095W        W87421  10.204  24.551   1.359
15096W        W87422  26.102   6.478   0.166
15097W        W87423  18.338  28.624   0.251
15098W        W87424  18.631   4.433   2.187
15099W        W87425  29.134   1.742   1.953
15100W        W87426  19.255  10.877  14.776
15101W        W87427   0.355  20.363  11.144
15102W        W87428  43.259   7.916   0.334
15103W        W87429  19.183  33.203  11.744
15104W        W87430  11.327  40.205  13.406
15105W        W87431   9.132  34.659   4.073
15106W        W87432  44.454  27.647   4.580
15107W        W87433  21.057   8.176  10.822
15108W        W87434  24.547  40.500   1.805
15109W        W87435  31.065  34.827   3.736
15110W        W87436  20.063  30.443   0.154
15111W        W87437  40.231  31.526   1.770
15112W        W87438  10.338  28.184  13.836
15113W        W87439  36.138  27.034  10.889
15114W        W87440   6.234  41.049   2.369
15115W        W87441  39.511  28.034   1.606
15116W        W87442  25.776  44.368  10.708
15117W        W87443  23.502  23.019   4.239
15118W        W87444  16.105  25.139  14.665
15119W        W87445  30.559  10.774   2.267
15120W        W87446  14.858  42.900   2.243
15121W        W87447   6.938  40.424  14.497
15122W        W87448  14.943  27.528   0.889
15123W        W87449  18.642   1.397  12.622
15124W        W87450  32.999  40.457   4.311
15125W        W87451   0.080  33.801  11.050
15126W        W87452  41.384   1.273  12.398
15127W        W87453  26.387   2.249  10.465
15128W        W87454  17.348  17.214  13.347
15129W        W87455  14.346  11.460   2.347
15130W        W87456  40.867  17.590  14.206
15131W        W87457  43.039  27.589  11.670
15132W        W87458   2.380  13.375  11.290
15133W        W87459  33.402  26.966  13.934
15134W        W87460  10.095  44.758   3.657
15135W        W87461  37.503  24.123  11.647
15136W        W87462   6.712  10.749   1.514
15137W        W87463   1.396  32.391  11.643
15138W        W87464   1.472   9.933   2.707
15139W        W87465  21.092  22.010  10.287
15140W        W87466  15.076  15.663  13.824
15141W        W87467  14.688  31.448  12.066
15142W        W87468  30.391  44.349   3.698
15143W        W87469  13.565   8.152   2.719
15144W        W87470  14.800   0.795   1.736
15145W        W87471  44.856  18.880  12.839
15146W        W87472   5.961  11.005  12.433
15147W        W87473  29.549   0.952  11.150
15148W        W87474  39.928  17.167   4.130
15149W        W87475  16.265  24.321  14.425
15150W        W87476  18.971  26.339   3.319
15151W        W87477  19.053  18.170  14.347
15152W        W87478  25.770  30.346  14.332
15153W        W87479  42.915  21.648   1.250
15154W        W87480   3.657   3.767  12.204
15155W        W87481  11.803  24.992  10.244
15156W        W87482   6.383  11.590   3.559
15157W        W87483  23.732  14.680   2.737
15158W        W87484  40.832  17.951   0.483
15159W        W87485  43.651  21.194   2.252
15160W        W87486  42.854  22.596   2.516
15161W        W87487   9.879  39.520   3.317
15162W        W87488  31.490   7.715  13.852
15163W        W87489   2.229   2.278  13.099
15164W        W87490  14.300   1.052   1.707
15165W        W87491  35.073   5.270   0.105
15166W        W87492  40.554  29.791   4.205
15167W        W87493   0.146  14.578   0.463
15168W        W87494   8.663  19.154  14.348
15169W        W87495  41.574  33.030  12.072
15170W        W87496  33.972  21.576   1.663
15171W        W87497  15.748  41.260   4.501
15172W        W87498   8.705   8.418   4.185
15173W        W87499  15.859  32.565   2.151
15174W        W87500  13.831  39.570  13.613
15175W        W87501  19.664   2.756   1.277
15176W        W87502  41.554  12.573   2.408
15177W        W87503  37.842  12.411  13.627
15178W        W87504  24.277  10.236  14.506
15179W        W87505   6.920   0.010   2.779
15180W        W87506  26.677  16.806   1.341
15181W        W87507  31.110   4.618   3.334
15182W        W87508  30.378  34.528   1.205
15183W        W87509  35.452  14.205  14.964
15184W        W87510  13.653  14.305   3.380
15185W        W87511  22.660   5.843  11.188
15186W        W87512  29.667  22.190   2.202
15187W        W87513   0.355  39.916  11.092
15188W        W87514   2.825  42.424  11.579
15189W        W87515  41.555  25.931  14.854
15190W        W87516  35.538  36.942  10.282
15191W        W87517  33.981  43.053  13.457
15192W        W87518  28.562   5.717   4.832
15193W        W87519  33.741   0.021   1.591
15194W        W87520  34.377  38.836  14.505
15195W        W87521  19.059  10.793  11.983
15196W        W87522  13.854  38.963  13.768
15197W        W87523  17.858  32.911  13.521
15198W        W87524  16.555  12.772  11.468
15199W        W87525  13.193  30.367   2.583
15200W        W87526  33.671   6.115   3.236
15201W        W87527  14.745  23.199   2.312
15202W        W87528  40.564  30.877  14.396
15203W        W87529  38.015  14.542  10.656
15204W        W87530   6.331  19.252   4.067
15205W        W87531  39.600  27.013   4.653
15206W        W87532  21.011   7.464  12.926
15207W        W87533  42.170   1.421   3.255
15208W        W87534  14.045  42.436   2.280
15209W        W87535  19.322  13.184  11.548
15210W        W87536  20.001  23.516   5.048
15211W        W87537  30.978   0.622  11.656
15212W        W87538  37.463  23.624  12.368
15213W        W87539  11.207  42.870  11.912
15214W        W87540   0.032  31.255  11.612
15215W        W87541  42.803  26.905  13.119
15216W        W87542   0.028  40.665   2.683
15217W        W87543  26.541  21.701  10.211
15218W        W87544  21.769  43.022   0.037
15219W        W87545  18.593  40.589  12.617
15220W        W87546  30.039  36.293   4.948
15221W        W87547   6.596  19.657  10.660
15222W        W87548   0.817  19.640  10.286
15223W        W87549  22.311  19.213   0.302
15224W        W87550  43.554  28.435   1.925
15225W        W87551   0.264  10.084   2.301
15226W        W87552  30.442  40.414   0.037
15227W        W87553  27.525  41.784  11.477
15228W        W87554  26.046  13.602  11.499
15229W        W87555  15.356  33.710  13.002
15230W        W87556  32.854  13.719  11.152
15231W        W87557   1.495   0.742   2.697
15232W        W87558  36.605   4.416  10.232
15233W        W87559  22.068   5.238   1.802
15234W        W87560  22.141   7.697   0.495
15235W        W87561   6.520   4.882   2.158
15236W        W87562  27.119  33.042  13.110
15237W        W87563   4.878   2.186  12.499
15238W        W87564  43.587  40.906  12.240
15239W        W87565  31.947  36.574   0.890
15240W        W87566  35.343   1.992  14.001
15241W        W87567   3.874  41.555  12.589
15242W        W87568  36.449  44.434  12.535
15243W        W87569  26.976  32.504  10.616
15244W        W87570  40.117   4.701  14.448
15245W        W87571   2.544  32.945  14.734
15246W        W87572  13.827  24.748   1.798
15247W        W87573  10.112  13.184  12.147
15248W        W87574  43.410  41.683  10.754
15249W        W87575  40.844  24.804   4.724
15250W        W87576   7.868  35.290  11.585
15251W        W87577  13.109  11.844  11.704
15252W        W87578  39.845  10.705   0.262
15253W        W87579  33.506  35.072  12.886
15254W        W87580  44.103  40.362   4.616
15255W        W87581  20.231  43.273  10.592
15256W        W87582  13.053  37.695   0.901
15257W        W87583  24.484   3.443   4.572
15258W        W87584  21.144  21.072   0.257
15259W        W87585  43.831   8.833   3.475
15260W        W87586   6.176   5.862  14.856
15261W        W87587  17.388  44.290  13.445
15262W        W87588   8.749  29.488  11.910
15263W        W87589  26.953  43.402  11.403
15264W        W87590   5.651  37.093  11.299
15265W        W87591  24.649  31.983   5.016
15266W        W87592  17.760  18.187   3.346
15267W        W87593  11.071   9.400  14.953
15268W        W87594  14.551   6.060  10.339
15269W        W87595  34.121  37.617  11.059
15270W        W87596   6.387  20.648   0.344
15271W        W87597  26.293  29.866   1.789
15272W        W87598  36.470  39.773  11.123
15273W        W87599  18.311   1.887  13.119
15274W        W87600  28.639  19.446   0.561
15275W        W87601  10.178  44.901   1.135
15276W        W87602  13.104  36.872  14.800
15277W        W87603   3.413  16.727  11.101
15278W        W87604  26.033   6.305  12.111
15279W        W87605  10.208  21.194  11.028
15280W        W87606  38.805  34.378  11.937
15281W        W87607  10.878  31.902   0.745
15282W        W87608  25.611  25.687  10.730
15283W        W87609   9.925  44.928  12.925
15284W        W87610  12.326   8.992   3.823
15285W        W87611  13.169  44.596   9.560
15286W        W87612  21.771  38.577   1.301
15287W        W87613  39.292  29.595   4.684
15288W        W87614  24.455  17.018  11.969
15289W        W87615  19.512  43.443  13.958
15290W        W87616  43.152  22.836   2.887
15291W        W87617  38.390  41.965   2.544
15292W        W87618  21.436  32.597   4.170
15293W        W87619  38.762  12.755   5.615
15294W        W87620   9.399  42.118  12.545
15295W        W87621  34.696  29.583  12.452
15296W        W87622  32.049  34.699   5.014
15297W        W87623  28.168   6.679  14.788
15298W        W87624  17.640   0.305   0.360
15299W        W87625  27.157  31.944   2.733
15300W        W87626  16.568  27.119   2.664
15301W        W87627   6.217   9.157   3.359
15302W        W87628   3.416  12.556   5.016
15303W        W87629  20.642  36.032  11.889
15304W        W87630  32.016   3.634   3.781
15305W        W87631  38.445  27.223   3.981
15306W        W87632  18.869  32.427   0.349
15307W        W87633   2.287  32.987  11.803
15308W        W87634  31.018  28.034   2.421
15309W        W87635  39.207  20.370  13.845
15310W        W87636   7.751  12.982  14.514
15311W        W87637  31.567  23.002  12.938
15312W        W87638  39.916   1.027  12.790
15313W        W87639  13.664  11.159   0.130
15314W        W87640   0.359  26.954  12.826
15315W        W87641  14.392   0.881   4.643
15316W        W87642  33.557   2.803   1.685
15317W        W87643   1.882   9.854  13.585
15318W        W87644   4.893  22.618   1.336
15319W        W87645  42.808  24.767  10.723
15320W        W87646  30.869  14.307   3.177
15321W        W87647  13.076   5.454  14.037
15322W        W87648  28.402  43.872  14.540
15323W        W87649  22.700  34.034   3.331
15324W        W87650  43.270  19.202  11.981
15325W        W87651  32.582  44.588  13.783
15326W        W87652  41.478   9.860  13.615
15327W        W87653  15.663  33.163   1.150
15328W        W87654   4.043   6.561  12.570
15329W        W87655  44.795  13.811   2.777
15330W        W87656  16.180  34.187  11.139
15331W        W87657  23.452  21.409  12.465
15332W        W87658  29.392  41.010  14.783
15333W        W87659  39.895  13.047   2.401
15334W        W87660  21.703  28.957  14.441
15335W        W87661  12.611  27.576  14.738
15336W        W87662  33.146  42.996   4.345
15337W        W87663  10.782  16.462   1.295
15338W        W87664  41.988   2.042   2.872
15339W        W87665  11.610  29.978  11.917
15340W        W87666  38.857  23.067   3.271
15341W        W87667   2.391  14.195   1.408
15342W        W87668  22.205  33.387   0.429
15343W        W87669   2.819  28.674   0.690
15344W        W87670   2.348  39.035  14.351
15345W        W87671  30.435  22.952  13.920
15346W        W87672   0.291  37.435  12.859
15347W        W87673  31.414  36.488   2.859
15348W        W87674  19.707  17.740   3.691
15349W        W87675  25.466  39.218   4.292
15350W        W87676   2.794   2.501   4.174
15351W        W87677  22.071   2.920   0.339
15352W        W87678  15.386   1.834   4.674
15353W        W87679  32.457  13.428   4.192
15354W        W87680  13.911   1.675  13.037
15355W        W87681  22.956  24.961   4.090
15356W        W87682  40.804  41.980  14.816
15357W        W87683  36.972  11.345  10.252
15358W        W87684  41.453  25.161   2.833
15359W        W87685  26.105  16.826  14.491
15360W        W87686  25.777  28.427  12.476
15361W        W87687  17.291  15.612  14.265
15362W        W87688   3.938  13.144   1.967
15363W        W87689  32.374  35.323  12.033
15364W        W87690  19.212  22.672  13.302
15365W        W87691   2.839  22.202   2.223
15366W        W87692  21.068  38.008   4.202
15367W        W87693  35.533  21.160  12.204
15368W        W87694  24.914  42.887  14.590
15369W        W87695  15.754  12.512   4.564
15370W        W87696   9.158  40.426   2.247
15371W        W87697  34.828   2.351   4.941
15372W        W87698  24.086  23.196   3.122
15373W        W87699  38.385  18.580   1.442
15374W        W87700   7.666  38.840   4.125
15375W        W87701   9.644  35.013   0.133
15376W        W87702  15.579   6.705   0.310
15377W        W87703  22.656   1.243  10.442
15378W        W87704  40.638  18.762   3.582
15379W        W87705  21.665  23.102  14.435
15380W        W87706  31.360  35.254   3.665
15381W        W87707   8.651  33.917  14.006
15382W        W87708  37.840   4.243   1.908
15383W        W87709   9.235  23.766  12.085
15384W        W87710  13.324  30.867   3.926
15385W        W87711   2.556  13.580  13.382
15386W        W87712  26.402  42.684   3.723
15387W        W87713  11.682   5.220   3.996
15388W        W87714  22.268  44.038  11.214
15389W        W87715  14.191  31.351   2.653
15390W        W87716  21.264  36.676   2.225
15391W        W87717  40.683  12.156   3.391
15392W        W87718  38.219  12.337   2.305
15393W        W87719  43.388  21.368  11.897
15394W        W87720   2.493  31.439   2.620
15395W        W87721   0.225  20.249  13.102
15396W        W87722  25.260  11.657  12.440
15397W        W87723  44.891  17.317  12.937
15398W        W87724  14.361  10.422   1.324
15399W        W87725  28.209  12.461  12.198
15400W        W87726  33.987  10.848   0.473
15401W        W87727  37.917   1.167   1.721
15402W        W87728  15.021   9.077  10.676
15403W        W87729  23.296   7.317  12.099
15404W        W87730  40.319  31.736  14.363
15405W        W87731   6.316  38.073   3.587
15406W        W87732  17.550  38.670  13.897
15407W        W87733  44.479  13.999   0.426
15408W        W87734  20.700  44.745  10.680
15409W        W87735  15.677   3.656  13.414
15410W        W87736  15.070  10.865   3.905
15411W        W87737   5.818  22.740  11.850
15412W        W87738  20.656  19.151   4.607
15413W        W87739  33.453   9.769   0.883
15414W        W87740  21.017  39.178  11.803
15415W        W87741  12.088   2.776   1.911
15416W        W87742  43.412   5.449   4.116
15417W        W87743   6.336   8.273   0.735
15418W        W87744   2.644  29.685   2.673
15419W        W87745  26.921  41.536   0.460
15420W        W87746  43.387  17.853   0.404
15421W        W87747  26.970   3.678   3.188
15422W        W87748  30.231   0.781  13.864
15423W        W87749  28.534  40.258  11.592
15424W        W87750  10.558   2.474   3.569
15425W        W87751  25.148  21.027  12.470
15426W        W87752  19.710   6.615  12.822
15427W        W87753  25.535  14.329   5.115
15428W        W87754  16.663  16.837   1.712
15429W        W87755  19.486  19.312  12.416
15430W        W87756  37.153  16.073  12.479
15431W        W87757  37.125   9.315  12.396
15432W        W87758  27.456  32.447   1.841
15433W        W87759   2.609  10.099   0.455
15434W        W87760  36.115  38.557   0.022
15435W        W87761  44.269  33.914   2.725
15436W        W87762   9.344  30.483  14.959
15437W        W87763  24.192  18.681   3.618
15438W        W87764   7.625  43.747  14.956
15439W        W87765  15.019  44.898   3.262
15440W        W87766  29.833  33.136  13.405
15441W        W87767  22.531  20.109  11.429
15442W        W87768  20.696  16.602  14.517
15443W        W87769   2.390   5.010  11.058
15444W        W87770   4.385   8.945   4.553
15445W        W87771  28.752  26.312   3.533
15446W        W87772   8.131   0.968  10.956
15447W        W87773  36.857  21.775   1.437
15448W        W87774  15.767  29.928   3.954
15449W        W87775  23.593   8.604   1.353
15450W        W87776  11.929  14.826  11.609
15451W        W87777  18.035  43.274   1.231
15452W        W87778   9.980  11.779  13.605
15453W        W87779  37.394   9.916   4.665
15454W        W87780  15.072  23.279  12.805
15455W        W87781  23.509  31.430   3.400
15456W        W87782   7.348   2.662   4.331
15457W        W87783  44.506   5.138   3.055
15458W        W87784  11.430   0.834  10.427
15459W        W87785   9.457  42.627  12.503
15460W        W87786  20.188  16.665  13.484
15461W        W87787   0.690  43.343  12.494
15462W        W87788  37.973   8.332  13.686
15463W        W87789  34.280  31.175   4.066
15464W        W87790   0.241  13.282  10.601
15465W        W87791  38.341   6.841  10.941
15466W        W87792  35.585   2.913  10.970
15467W        W87793   8.786  37.232   4.280
15468W        W87794  23.369  17.676  14.028
15469W        W87795   6.890   3.492  10.649
15470W        W87796  24.987   6.249   2.768
15471W        W87797   3.349  40.739   2.312
15472W        W87798  16.388  42.065  13.884
15473W        W87799  12.886  24.661   4.632
15474W        W87800  32.831  11.759   1.228
15475W        W87801  37.383   7.827   1.945
15476W        W87802  27.874  24.525  14.401
15477W        W87803   2.913  16.230   4.524
15478W        W87804   0.480  40.440   1.806
15479W        W87805  30.388  40.241   1.905
15480W        W87806  42.908  20.435  11.233
15481W        W87807  15.110  24.890  11.550
15482W        W87808  33.092  25.967   4.584
15483W        W87809  10.882   6.934   3.656
15484W        W87810  24.485  20.630  14.776
15485W        W87811   2.678  14.700   0.251
15486W        W87812   9.729   3.842  14.865
15487W        W87813  17.739  32.001   4.410
15488W        W87814  41.416  18.512  11.736
15489W        W87815  35.843  22.247  11.527
15490W        W87816  24.094  38.370   1.210
15491W        W87817  42.439  10.967   2.145
15492W        W87818  11.616  33.106  13.555
15493W        W87819  29.552  27.068   2.631
15494W        W87820   1.305  38.788   0.854
15495W        W87821  17.729  18.790  14.720
15496W        W87822  31.542  43.901  12.474
15497W        W87823  37.431  15.372  10.444
15498W        W87824  35.922  13.012   2.291
15499W        W87825  12.809  17.186  12.250
15500W        W87826  14.052  16.333   3.670
15501W        W87827  30.237  17.091  12.635
15502W        W87828   5.866  32.069   0.327
15503W        W87829  21.103  10.659  12.914
15504W        W87830  25.091  41.298  14.448
15505W        W87831  39.939   2.944   2.716
15506W        W87832  24.736  43.700   3.134
15507W        W87833  21.534  42.813   3.734
15508W        W87834  17.276  44.065   2.214
15509W        W87835   6.650  33.075   0.792
15510W        W87836  31.521  23.746   5.239
15511W        W87837  17.570  34.535  12.110
15512W        W87838   1.089  21.556   3.374
15513W        W87839  42.787  36.743  13.116
15514W        W87840  33.415  44.042   2.810
15515W        W87841   9.404   3.452   2.420
15516W        W87842   2.946   3.366  14.092
15517W        W87843  39.457  13.674  14.646
15518W        W87844  37.787  37.709   3.721
15519W        W87845  39.227   6.296  11.452
15520W        W87846  19.011  14.672   3.720
15521W        W87847  42.710  40.948   2.762
15522W        W87848  13.091  21.789  11.224
15523W        W87849   5.821  19.225  14.776
15524W        W87850  40.139   5.807  12.360
15525W        W87851  31.045   3.263   2.568
15526W        W87852  36.105   4.864   3.855
15527W        W87853  37.324  41.027  14.389
15528W        W87854  33.077  11.816   1.724
15529W        W87855  19.992   0.032   1.538
15530W        W87856  43.624  12.190   2.283
15531W        W87857  10.750  40.757  10.707
15532W        W87858  34.927  35.864  11.463
15533W        W87859  16.111   1.888  10.675
15534W        W87860  12.304  33.077   4.400
15535W        W87861  38.550   2.415   4.548
15536W        W87862  21.431   7.534   2.099
15537W        W87863   9.814  23.033   0.427
15538W        W87864  22.599   1.401  12.826
15539W        W87865  27.517   3.747   3.224
15540W        W87866  33.072  42.542  12.199
15541W        W87867  38.140  19.573  12.073
15542W        W87868  36.965  16.275  12.907
15543W        W87869  34.999  23.693  13.800
15544W        W87870   0.589  44.428  10.567
15545W        W87871   1.117  10.560   0.237
15546W        W87872   7.986  41.291  12.902
15547W        W87873  23.485  10.753  14.475
15548W        W87874  40.983  41.953   4.111
15549W        W87875   6.825  44.901   4.780
15550W        W87876  28.069  16.056  13.195
15551W        W87877  35.999  11.297   0.678
15552W        W87878   0.522  31.499   3.599
15553W        W87879  17.316  31.335   2.128
15554W        W87880  34.304  20.246   2.563
15555W        W87881  15.510   8.435   1.017
15556W        W87882  17.620  31.045  14.288
15557W        W87883  31.615  12.263   0.517
15558W        W87884   6.981  39.855   1.625
15559W        W87885   5.741  18.149  14.870
15560W        W87886  43.081  13.464   4.224
15561W        W87887  31.048  43.304   0.844
15562W        W87888  13.315  28.877   4.535
15563W        W87889  40.490  11.795   2.121
15564W        W87890  14.020  14.846  14.470
15565W        W87891  21.448  27.896  12.567
15566W        W87892  11.709  17.945  13.762
15567W        W87893   2.756   6.669   4.497
15568W        W87894   9.633  25.096   4.554
15569W        W87895  30.119  42.329  12.158
15570W        W87896  20.468   6.037   3.189
15571W        W87897  30.748  17.589  13.255
15572W        W87898   9.574  42.509  11.614
15573W        W87899   1.801  35.050   1.935
15574W        W87900  26.294  12.101   4.555
15575W        W87901  32.608   7.359   1.671
15576W        W87902   6.701  35.311  13.858
15577W        W87903  32.764  18.125   1.760
15578W        W87904  11.125  44.326   1.736
15579W        W87905   9.845  37.039   1.300
15580W        W87906  23.980  14.834  14.312
15581W        W87907  10.812  31.118  12.104
15582W        W87908  40.206   4.926   9.920
15583W        W87909   0.506  20.199  13.548
15584W        W87910   3.458  15.604   0.043
15585W        W87911  38.841   6.777  11.105
15586W        W87912  35.374  42.225  12.906
15587W        W87913  23.464  21.174   5.021
15588W        W87914  12.021  11.803  13.923
15589W        W87915  41.505  38.659  10.028
15590W        W87916  19.212  16.320  14.543
15591W        W87917   5.380   3.423   3.589
15592W        W87918  21.706  39.592  12.358
15593W        W87919  17.716  12.660  12.175
15594W        W87920   7.677  10.463  11.072
15595W        W87921  21.665  42.157   1.393
15596W        W87922  17.394   8.362  10.032
15597W        W87923  27.557  29.277   2.051
15598W        W87924  43.625  19.114  13.552
15599W        W87925   9.337  19.649   3.695
15600W        W87926   3.268  13.832   0.377
15601W        W87927  26.578  31.936   4.980
15602W        W87928  23.247  43.136   3.729
15603W        W87929  33.569  10.284  14.932
15604W        W87930   8.704  16.072   4.161
15605W        W87931   9.588  34.336   4.234
15606W        W87932  29.046  20.628   2.215
15607W        W87933  42.443  31.836  12.927
15608W        W87934   7.081  16.690  10.595
15609W        W87935  18.772   6.176   3.671
15610W        W87936   6.265  36.729   0.145
15611W        W87937  44.178  43.833   1.252
15612W        W87938  37.313  22.790  10.744
15613W        W87939  35.428  42.991   5.040
15614W        W87940  36.087  22.489   3.149
15615W        W87941  42.481  27.959   3.888
15616W        W87942  16.809  23.696   3.101
15617W        W87943  22.731  22.312  12.957
15618W        W87944  36.182  14.731  14.578
15619W        W87945  41.627  41.526   2.289
15620W        W87946  33.951  35.520  14.315
15621W        W87947   6.634  35.957   0.448
15622W        W87948  26.464  19.203  10.686
15623W        W87949  21.518  31.872  14.285
15624W        W87950  11.300   6.811   3.926
15625W        W87951  37.289  41.000  13.579
15626W        W87952  34.747  35.509  11.120
15627W        W87953  20.251  14.637  12.570
15628W        W87954  30.839   5.255   1.227
15629W        W87955  34.646  41.565  14.459
15630W        W87956  20.077  27.523   2.852
15631W        W87957   0.867  28.616   1.184
15632W        W87958  41.137  25.227   4.766
15633W        W87959  12.586  23.781   3.111
15634W        W87960   7.523  34.030   4.638
15635W        W87961  15.619   4.749   4.136
15636W        W87962   5.925  24.356  13.973
15637W        W87963  43.020  32.239  11.057
15638W        W87964  13.311   8.438   4.701
15639W        W87965   2.115   2.004   1.373
15640W        W87966  12.120  23.644  12.087
15641W        W87967  11.223  44.033   0.390
15642W        W87968   2.577   9.591   0.383
15643W        W87969   8.447  17.081   1.415
15644W        W87970  31.866  18.600  10.917
15645W        W87971   0.202   9.884  14.818
15646W        W87972  17.348  24.182   1.252
15647W        W87973  43.127  25.847  11.971
15648W        W87974  11.176  16.540  12.837
15649W        W87975  10.041  21.995   3.537
15650W        W87976  42.904  37.477   1.714
15651W        W87977  14.165  36.893   1.939
15652W        W87978  22.667  18.848   0.737
15653W        W87979  24.987  26.923   3.751
15654W        W87980  41.739  35.899   4.194
15655W        W87981  27.171  26.233  11.967
15656W        W87982   3.351   8.909   0.923
15657W        W87983  29.361   6.226  13.302
15658W        W87984  27.254   9.188   0.887
15659W        W87985  12.796  24.654   3.751
15660W        W87986   3.963  21.032  12.953
15661W        W87987   3.696   6.187  14.784
15662W        W87988  33.597  35.611  10.180
15663W        W87989  44.674  10.783   1.376
15664W        W87990  32.214  16.665   1.725
15665W        W87991   6.176  16.130  13.191
15666W        W87992   6.724  19.688  13.441
15667W        W87993  25.631  16.220  13.915
15668W        W87994   0.003  24.619   1.912
15669W        W87995  34.358  42.583  13.878
15670W        W87996  24.066  10.198   1.267
15671W        W87997  39.140  14.398  14.885
15672W        W87998   3.235  38.476  13.479
15673W        W87999  13.645  44.515  12.706
15674W        W88000  37.982  14.759   1.267
15675W        W88001   1.873  23.471  11.063
15676W        W88002   2.301  22.545  14.019
15677W        W88003  11.774   2.230  12.811
15678W        W88004  41.024  31.958   2.837
15679W        W88005  30.960  18.141   3.670
15680W        W88006   8.811  21.233   2.248
15681W        W88007  14.484  12.885   1.425
15682W        W88008  17.789  27.907  14.196
15683W        W88009   3.233  31.078   0.428
15684W        W88010  18.746  24.989   3.722
15685W        W88011  14.753  26.747  13.482
15686W        W88012  12.589  37.864   2.384
15687W        W88013  38.490  17.333   0.377
15688W        W88014  17.317  44.974  12.342
15689W        W88015  32.655  17.333   4.539
15690W        W88016  24.517  14.741   0.846
15691W        W88017  25.692  27.207  11.517
15692W        W88018  39.998  38.389   2.835
15693W        W88019  21.217   9.579  12.903
15694W        W88020  41.792   3.452   1.806
15695W        W88021  15.388  11.560   1.898
15696W        W88022   5.033  30.035  11.946
15697W        W88023  44.808  39.343   3.170
15698W        W88024  18.394  17.574  14.874
15699W        W88025  23.225  32.193  13.426
15700W        W88026  27.867  35.630  14.135
15701W        W88027  36.422   1.700  14.896
15702W        W88028  12.383  22.641   3.934
15703W        W88029  26.386  44.614  12.915
15704W        W88030  17.163  20.790   1.736
15705W        W88031  38.049  16.096   3.136
15706W        W88032  14.635  39.352   4.262
15707W        W88033  29.068  19.048   2.339
15708W        W88034  39.992  37.528  12.074
15709W        W88035   8.915   9.301   1.479
15710W        W88036  35.342  19.758  11.619
15711W        W88037   4.154  12.419  12.576
15712W        W88038  37.001  33.929  13.902
15713W        W88039  31.365  26.809   2.287
15714W        W88040   8.401   8.481   1.411
15715W        W88041   6.126   4.051  14.933
15716W        W88042   7.763  34.113  14.547
15717W        W88043  18.533  26.957  12.492
15718W        W88044  28.037  24.163   0.292
15719W        W88045   1.340  34.318  12.044
15720W        W88046   5.154  16.883   1.404
15721W        W88047  12.191  44.178  10.171
15722W        W88048  35.164  18.832   2.182
15723W        W88049  24.474  42.882   2.543
15724W        W88050  32.635  20.154   3.494
15725W        W88051  44.739   2.743  14.599
15726W        W88052  28.157  22.162  14.243
15727W        W88053  37.557  44.397  11.174
15728W        W88054  40.499  24.153   1.922
15729W        W88055  27.085  16.588   4.523
15730W        W88056  37.069  42.165  10.816
15731W        W88057   6.156  42.437  11.527
15732W        W88058  15.110   5.404   0.193
15733W        W88059   3.972  20.219   0.263
15734W        W88060  24.734  41.732   2.228
15735W        W88061  32.410  20.547  13.559
15736W        W88062   9.096   5.295  13.819
15737W        W88063  13.244  18.554  12.035
15738W        W88064  17.208   2.205  11.981
15739W        W88065  42.318   5.588   3.526
15740W        W88066  22.732  35.911   4.552
15741W        W88067  35.829   4.763  11.113
15742W        W88068  37.106  39.790  13.791
15743W        W88069  39.044  40.268   1.296
15744W        W88070  35.380  18.749  10.698
15745W        W88071  38.151  41.162   2.859
15746W        W88072   2.677  24.625  11.161
15747W        W88073  44.414   2.667   3.950
15748W        W88074  19.787   8.792  10.876
15749W        W88075  28.664  34.114  11.690
15750W        W88076  39.022  14.312   2.183
15751W        W88077  29.342  16.854  12.415
15752W        W88078  12.199  29.379  13.039
15753W        W88079   2.472  28.143  11.235
15754W        W88080  25.464  42.272  11.049
15755W        W88081   8.095   9.289   3.359
15756W        W88082   2.489  14.220   3.218
15757W        W88083  33.266  34.984   3.617
15758W        W88084  20.203  34.862   2.368
15759W        W88085   4.344  11.844   2.877
15760W        W88086  22.179  39.144   4.631
15761W        W88087   1.560   8.239   2.591
15762W        W88088   0.230  29.084   0.746
15763W        W88089  28.865  44.849   2.914
15764W        W88090  35.104  10.693   0.947
15765W        W88091  23.470  11.849  13.723
15766W        W88092   4.861  16.647  14.627
15767W        W88093   6.467  30.175   2.352
15768W        W88094  20.875   7.451  14.252
15769W        W88095  13.270  24.041   3.421
15770W        W88096  16.039  24.064  14.870
15771W        W88097  15.543  30.598   5.033
15772W        W88098   5.742  36.105  11.601
15773W        W88099  16.171  32.135  12.126
15774W        W88100  37.141  22.651  13.626
15775W        W88101  44.248  21.246  13.793
15776W        W88102  19.590   1.344   4.421
15777W        W88103  39.867  34.667  13.420
15778W        W88104  21.601   2.134   1.716
15779W        W88105   5.158  14.866   2.839
15780W        W88106   7.890  31.119   3.877
15781W        W88107  40.944  39.778  12.892
15782W        W88108  28.687  26.056   2.193
15783W        W88109  26.160  15.503   1.057
15784W        W88110  35.518  27.738   3.050
15785W        W88111  21.718   3.523   4.123
15786W        W88112  41.878  23.215  11.930
15787W        W88113  36.854   3.013   2.312
15788W        W88114  41.922   6.378   1.885
15789W        W88115   5.736  36.300   2.944
15790W        W88116   5.571  18.705   4.092
15791W        W88117   0.760  28.457  14.441
15792W        W88118   8.450   7.337   0.615
15793W        W88119   4.977   7.261  11.517
15794W        W88120  24.731  36.353  13.119
15795W        W88121  44.706  23.752  12.887
15796W        W88122   3.521   7.776   1.341
15797W        W88123  16.211   9.442  13.764
15798W        W88124  32.630   6.445   3.681
15799W        W88125  19.827   8.840  11.954
15800W        W88126  29.372   6.782   4.183
15801W        W88127  38.549  35.886   0.903
15802W        W88128  36.393   4.840   1.193
15803W        W88129  30.056  28.224   3.362
15804W        W88130  29.997  40.595   1.870
15805W        W88131  36.953  42.025   2.377
15806W        W88132  25.442  31.377   3.951
15807W        W88133  11.250  40.006   3.565
15808W        W88134  27.522   2.834  10.692
15809W        W88135   9.459   5.680   1.732
15810W        W88136  38.047   5.165  11.535
15811W        W88137  12.293   1.928   0.316
15812W        W88138  19.617  42.889  10.268
15813W        W88139   5.262  19.298   0.187
15814W        W88140  10.917   0.416  13.908
15815W        W88141  34.548  29.426   1.578
15816W        W88142  19.667  23.240  14.583
15817W        W88143  40.771  40.423   4.645
15818W        W88144  19.540  21.971  10.497
15819W        W88145   4.845  11.869  10.767
15820W        W88146  25.648  24.142   4.112
15821W        W88147  30.945   5.881  11.130
15822W        W88148  40.680  42.855   4.582
15823W        W88149  43.800  43.262   4.105
15824W        W88150  14.558  17.028  12.706
15825W        W88151  13.973  34.830  11.627
15826W        W88152   8.923  28.073  14.780
15827W        W88153  27.863  29.412   1.296
15828W        W88154   7.900  12.455  14.459
15829W        W88155  18.567   0.588  12.193
15830W        W88156   7.648   6.345   2.587
15831W        W88157  27.458  26.311  10.554
15832W        W88158  43.952  30.988  13.021
15833W        W88159  13.860  34.022   0.132
15834W        W88160   9.294  37.773   3.711
15835W        W88161  14.082  17.680   4.571
15836W        W88162  20.279  22.579   0.261
15837W        W88163  39.787  42.888  10.556
15838W        W88164  24.292  17.695   3.045
15839W        W88165  42.995  29.628   0.232
15840W        W88166  27.756  37.978   0.353
15841W        W88167  44.010  29.995   1.324
15842W        W88168  34.854   6.856  14.275
15843W        W88169  17.141  20.273  13.396
15844W        W88170  17.925  41.441  11.679
15845W        W88171  15.215  17.243   1.807
15846W        W88172  29.873  39.044   4.584
15847W        W88173  38.790  22.067  14.547
15848W        W88174   0.318  19.944   4.804
15849W        W88175  29.712  11.444   3.680
15850W        W88176  41.360  41.471  14.211
15851W        W88177  10.319   9.047  14.216
15852W        W88178  25.596  10.448   0.366
15853W        W88179  32.940  41.593  11.630
15854W        W88180   8.265  17.666  12.469
15855W        W88181  19.117  35.617  11.988
15856W        W88182  24.763  30.903   3.645
15857W        W88183  42.953  30.644  13.948
15858W        W88184  34.426  21.061   4.070
15859W        W88185  20.697  13.228  11.022
15860W        W88186  33.206  15.588  13.975
15861W        W88187  32.068  37.021   3.373
15862W        W88188  10.614  30.451   1.027
15863W        W88189  20.207   0.464   1.309
15864W        W88190  36.928  24.498   3.307
15865W        W88191  30.427  24.614   2.228
15866W        W88192  16.226  21.659  10.753
15867W        W88193  16.197  24.787   3.310
15868W        W88194  22.719   3.433  12.964
15869W        W88195  39.336  20.975   2.295
15870W        W88196  24.119  24.324  11.096
15871W        W88197  23.576  26.606  14.742
15872W        W88198   9.903  44.245  14.933
15873W        W88199  30.581  10.205  14.008
15874W        W88200  21.013  43.467  10.939
15875W        W88201  41.230  40.122  12.627
15876W        W88202  30.036  44.223  13.961
15877W        W88203  39.931  24.143  11.603
15878W        W88204  13.509   3.478  11.475
15879W        W88205   4.745  10.708   3.256
15880W        W88206   3.191  39.620   3.285
15881W        W88207   1.751  38.940  12.152
15882W        W88208  12.001  33.455   4.653
15883W        W88209  16.304   8.101   4.130
15884W        W88210  13.117  28.658  11.205
15885W        W88211  29.754  38.115  12.454
15886W        W88212   3.020  12.773   0.722
15887W        W88213   8.354  38.803  10.382
15888W        W88214   4.384  28.251   3.237
15889W        W88215  25.160  32.155  14.387
15890W        W88216  35.818  15.666   4.240
15891W        W88217   7.085  37.053   2.366
15892W        W88218  18.020  24.799   3.771
15893W        W88219   5.310  24.334   4.652
15894W        W88220   4.695   0.570  14.429
15895W        W88221   3.810  26.073  13.082
15896W        W88222  31.364   3.251  11.002
15897W        W88223  43.874  29.466   4.613
15898W        W88224  16.176  13.541  12.915
15899W        W88225  38.947  10.679  14.791
15900W        W88226   8.513  23.317  13.066
15901W        W88227   8.778   1.106  12.213
15902W        W88228  44.604  27.644  14.456
15903W        W88229  27.680  39.903  12.497
15904W        W88230  21.194  34.189  14.548
15905W        W88231   8.914  34.024  13.550
15906W        W88232  36.558  34.850  13.811
15907W        W88233  28.181  33.146  12.465
15908W        W88234  26.186   3.731  13.026
15909W        W88235   4.304  15.425  13.204
15910W        W88236  19.962  44.548  10.238
15911W        W88237  37.117  37.344   3.187
15912W        W88238   2.197   7.285  10.633
15913W        W88239  30.361   8.066  13.089
15914W        W88240   3.286  22.332   2.931
15915W        W88241  29.672   8.314  14.304
15916W        W88242  20.122  36.038   4.667
15917W        W88243  44.966   4.358  13.857
15918W        W88244  19.687  26.397   2.774
15919W        W88245   2.958  22.134   1.693
15920W        W88246  14.691   0.453   4.505
15921W        W88247  16.866  30.885  13.885
15922W        W88248  38.844  26.114  11.065
15923W        W88249   8.619  21.758  12.560
15924W        W88250   2.425  12.643  11.688
15925W        W88251  20.588  34.644   3.721
15926W        W88252  37.583  20.793  10.763
15927W        W88253  44.520  41.083   1.477
15928W        W88254  31.180   0.266  14.453
15929W        W88255   5.973  39.166   1.241
15930W        W88256  34.366  10.667  11.201
15931W        W88257   3.721  30.494   2.257
15932W        W88258  42.995   6.632   0.564
15933W        W88259  19.637  34.007   4.059
15934W        W88260  18.041  15.235  13.717
15935W        W88261   8.253  23.973  14.992
15936W        W88262  26.567  44.212  13.412
15937W        W88263  11.413  35.420   2.267
15938W        W88264  35.077   3.911   3.899
15939W        W88265   8.348   4.538   0.383
15940W        W88266  16.343  44.329  13.388
15941W        W88267   0.330  11.529   1.831
15942W        W88268   2.144  15.236  12.650
15943W        W88269  26.110   8.387  11.696
15944W        W88270   1.212  27.917  10.953
15945W        W88271  15.610   5.595   4.260
15946W        W88272  43.462  15.597  13.773
15947W        W88273   5.327  29.165   2.426
15948W        W88274  39.858   1.254  13.278
15949W        W88275  43.853  21.675  14.610
15950W        W88276   5.504  15.982   4.434
15951W        W88277  14.342  20.203  12.820
15952W        W88278  37.988  13.589   4.680
15953W        W88279   8.316  30.416  14.808
15954W        W88280  31.075  21.167   4.581
15955W        W88281   2.431   0.517  12.923
15956W        W88282  42.402   5.379  14.318
15957W        W88283  17.830   5.665  11.195
15958W        W88284  37.948  31.444  10.934
15959W        W88285   8.523  15.564   1.201
15960W        W88286  37.859  28.536  14.051
15961W        W88287   6.593  41.902   3.864
15962W        W88288  14.332  28.287   3.774
15963W        W88289  18.436  32.328  13.902
15964W        W88290  22.303  38.626  14.821
15965W        W88291  21.264  30.345   2.371
15966W        W88292  39.831  19.615  12.577
15967W        W88293  27.534  34.551   4.539
15968W        W88294  27.348  24.555  14.433
15969W        W88295  43.402  12.691   2.765
15970W        W88296  37.054   5.158   3.204
15971W        W88297  35.390  26.564  12.599
15972W        W88298  43.940  16.195   0.448
15973W        W88299  13.069  40.816   2.222
15974W        W88300  37.799  30.977  14.871
15975W        W88301  15.678  15.128   3.372
15976W        W88302  12.803   1.664   4.233
15977W        W88303  34.595  14.585  11.210
15978W        W88304  14.057  35.883   1.430
15979W        W88305   0.825  30.381   0.791
15980W        W88306  10.372  28.310   0.634
15981W        W88307  35.347  39.412   4.788
15982W        W88308  12.553  15.004   1.138
15983W        W88309   4.393  15.033  14.746
15984W        W88310  28.121   8.231   1.384
15985W        W88311  12.522  30.483  14.059
15986W        W88312  10.969   1.931   4.149
15987W        W88313  32.693  29.119   1.166
15988W        W88314  15.067  13.738  14.222
15989W        W88315  24.219  28.890   3.296
15990W        W88316  13.414  41.834   4.098
15991W        W88317  28.228  24.625  12.453
15992W        W88318   6.567   8.795   2.621
15993W        W88319  38.880   0.086   4.359
15994W        W88320  15.436  27.557   0.745
15995W        W88321   7.858  37.867   2.585
15996W        W88322   6.606   7.766  12.045
15997W        W88323  39.777  13.104  12.376
15998W        W88324  11.817  20.178   3.486
15999W        W88325  20.055  44.354  13.930
16000W        W88326  42.427   1.231  12.457
16001W        W88327  28.656   6.227  12.980
16002W        W88328  25.316  17.315   5.708
16003W        W88329  11.405  10.360  11.027
16004W        W88330  44.803  24.329   0.939
16005W        W88331  38.043  16.314  13.947
16006W        W88332  23.671  38.896   4.248
16007W        W88333  15.589  15.077  14.341
16008W        W88334  44.360  41.756  13.016
16009W        W88335  28.492   6.829  13.421
16010W        W88336  43.024  43.951   0.681
16011W        W88337   3.387  28.742  12.576
16012W        W88338  39.530  22.000  11.626
16013W        W88339  17.048  25.084   3.135
16014W        W88340  38.891  35.395   4.281
16015W        W88341  13.879   9.215   4.310
16016W        W88342   7.241  17.134  13.629
16017W        W88343  18.539  12.582  11.813
16018W        W88344  38.868   9.281   3.614
16019W        W88345  20.800   7.787   3.861
16020W        W88346  43.867  32.336   0.732
16021W        W88347   8.338  43.948  11.136
16022W        W88348  24.586  29.554  11.596
16023W        W88349   5.205   2.365   0.280
16024W        W88350   3.240   4.256  10.660
16025W        W88351  11.805  44.552   3.771
16026W        W88352  24.560   3.398   3.674
16027W        W88353  41.587  44.184   2.798
16028W        W88354  40.949   1.493   1.997
16029W        W88355  33.232  31.058  12.516
16030W        W88356  18.325  20.047   1.364
16031W        W88357   2.216   7.389   1.620
16032W        W88358  37.631  13.787  14.034
16033W        W88359   2.910  18.584   0.663
16034W        W88360  24.279  44.797   4.617
16035W        W88361  40.496   9.157  14.305
16036W        W88362  32.002  19.777   0.537
16037W        W88363  28.519  39.409  10.609
16038W        W88364   8.324  32.993   0.028
16039W        W88365  23.687  27.582  14.737
16040W        W88366   7.946  17.305  12.002
16041W        W88367   4.719  15.272  11.827
16042W        W88368  43.956  29.125   0.193
16043W        W88369  38.140  28.063   9.940
16044W        W88370  36.430  37.357   3.655
16045W        W88371  26.134   9.452  11.923
16046W        W88372  34.335  38.909   0.264
16047W        W88373  15.815  38.451   0.926
16048W        W88374  42.476   3.466   2.694
16049W        W88375  42.907   7.026   1.946
16050W        W88376   7.815  23.079   4.358
16051W        W88377  27.769  31.726  10.921
16052W        W88378  26.523  12.282  13.063
16053W        W88379  12.807  20.088  11.581
16054W        W88380  31.124   0.397  12.096
16055W        W88381   1.842  28.696   1.856
16056W        W88382   8.467  35.811  10.632
16057W        W88383  32.986  44.586   3.627
16058W        W88384  26.998  31.778  11.358
16059W        W88385  25.537   6.102  10.233
16060W        W88386  26.411   1.503   2.158
16061W        W88387  27.927  18.586   1.829
16062W        W88388  31.995  13.176   4.236
16063W        W88389   1.346   0.020  14.964
16064W        W88390   1.985  44.344   1.002
16065W        W88391   1.223   5.326  14.291
16066W        W88392  37.407  10.314  12.903
16067W        W88393  27.020  40.832   5.097
16068W        W88394  38.116  39.336  11.211
16069W        W88395  14.805  42.478  13.626
16070W        W88396  18.145  36.914  11.168
16071W        W88397  12.695  27.671  12.761
16072W        W88398  32.434  13.076  14.675
16073W        W88399  32.272   8.614  13.587
16074W        W88400  29.158  36.530   3.339
16075W        W88401  11.909  15.496   4.262
16076W        W88402  42.007  13.746   5.006
16077W        W88403   5.120  21.366  10.167
16078W        W88404  41.600  23.681  12.625
16079W        W88405  24.945  44.984  13.504
16080W        W88406  15.688  11.801  12.169
16081W        W88407  18.295  17.233  11.616
16082W        W88408  17.003   8.900   0.343
16083W        W88409  33.617  43.850   3.705
16084W        W88410   2.805  38.777   0.281
16085W        W88411  10.763  23.528   4.870
16086W        W88412   5.333   8.106   1.881
16087W        W88413  18.046  36.194   4.210
16088W        W88414  25.986   2.254   1.885
16089W        W88415  29.745   6.433   4.205
16090W        W88416  31.036   6.162  14.260
16091W        W88417  21.187  25.670   1.127
16092W        W88418  22.173  43.291   0.753
16093W        W88419  24.193  39.066   4.215
16094W        W88420  41.475  40.959  14.194
16095W        W88421  38.343  20.249  11.171
16096W        W88422   8.312  41.955  11.284
16097W        W88423   0.023  26.832   9.976
16098W        W88424  30.824  25.267  12.944
16099W        W88425  25.725  11.420  12.589
16100W        W88426  33.543  12.902  13.330
16101W        W88427   5.663   6.683   1.209
16102W        W88428  34.839   6.387  11.112
16103W        W88429  38.578  40.573   0.472
16104W        W88430  39.949  30.882  12.835
16105W        W88431  39.375   6.787  12.575
16106W        W88432  33.265  10.901   3.491
16107W        W88433   9.334  44.862  11.751
16108W        W88434  16.065  42.218   4.131
16109W        W88435  34.019  17.972  12.641
16110W        W88436  26.930  30.572  12.557
16111W        W88437   6.964  44.818  12.047
16112W        W88438   9.375  37.150   3.908
16113W        W88439  38.572  23.945   1.980
16114W        W88440   8.833  29.950   2.291
16115W        W88441  34.359  36.604  14.898
16116W        W88442  44.888   7.479  10.731
16117W        W88443   0.407   1.412  14.132
16118W        W88444  14.906  21.197   1.136
16119W        W88445  16.197  24.260   3.277
16120W        W88446  44.508  21.025   2.766
16121W        W88447  22.777  15.194  13.423
16122W        W88448  27.085  22.036  13.314
16123W        W88449  31.052  28.879   0.904
16124W        W88450  36.312  15.193   4.583
16125W        W88451   0.798  26.709  12.774
16126W        W88452   2.481  25.299   4.077
16127W        W88453  31.887  24.480  14.121
16128W        W88454  24.038  42.792   2.310
16129W        W88455  38.688   1.206   3.297
16130W        W88456  32.732  32.228  14.741
16131W        W88457  16.736  14.440   2.427
16132W        W88458  15.057   0.990  10.593
16133W        W88459  30.667  15.363   3.217
16134W        W88460  39.972  19.095  13.533
16135W        W88461   0.623  41.786  14.063
16136W        W88462  11.148  26.853   2.425
16137W        W88463  29.835   4.198  11.175
16138W        W88464  10.964  13.893   0.665
16139W        W88465  31.588  33.487  11.101
16140W        W88466  44.940  22.372   0.107
16141W        W88467  15.500  18.261   2.725
16142W        W88468  33.634  42.548   4.429
16143W        W88469  24.127  16.182  14.412
16144W        W88470  14.124  17.113  13.969
16145W        W88471  11.324  21.000   1.272
16146W        W88472   5.625  24.130   3.762
16147W        W88473  36.078   0.975   0.896
16148W        W88474   1.325  22.258   4.012
16149W        W88475   1.407  35.355   4.579
16150W        W88476  41.336   1.956  12.938
16151W        W88477  25.093  20.611   2.340
16152W        W88478  39.650  27.134  12.370
16153W        W88479  27.722  11.196  14.371
16154W        W88480   1.560  39.943   3.773
16155W        W88481  39.343  22.645   1.683
16156W        W88482  21.623  20.636  12.129
16157W        W88483  39.349   0.116  13.982
16158W        W88484  26.636  21.590   1.266
16159W        W88485   2.383   3.927  11.060
16160W        W88486  17.744  39.237   2.275
16161W        W88487  22.390  27.690   3.894
16162W        W88488   9.399  24.799  14.895
16163W        W88489  13.425   9.258  12.642
16164W        W88490   0.458  28.581  10.710
16165W        W88491  10.291  30.014  12.522
16166W        W88492  44.121  30.709  12.611
16167W        W88493  28.664  44.710   0.799
16168W        W88494  18.789  34.477  10.627
16169W        W88495  33.501  29.871   0.426
16170W        W88496  18.806  28.191   2.320
16171W        W88497   8.913  32.676  11.054
16172W        W88498  27.050  17.069  13.552
16173W        W88499   4.356   2.903  11.680
16174W        W88500   0.210  36.456  11.238
16175W        W88501  37.024  17.212  11.634
16176W        W88502  21.321  41.142  14.900
16177W        W88503  20.685  22.689  12.189
16178W        W88504  17.067  20.262  14.920
16179W        W88505  43.537   7.874   3.130
16180W        W88506  33.544  34.999   5.119
16181W        W88507  11.524   9.322   3.262
16182W        W88508  33.581  12.786  11.871
16183W        W88509   3.772  42.053   4.546
16184W        W88510  27.235  33.626   0.145
16185W        W88511  26.135   5.075   1.285
16186W        W88512  32.441  24.786  10.467
16187W        W88513  24.009  34.135  10.517
16188W        W88514  20.589   7.940  10.732
16189W        W88515  25.269   1.322   4.234
16190W        W88516  31.923  31.815  14.142
16191W        W88517  29.722  13.202  14.488
16192W        W88518  21.221   6.884   3.276
16193W        W88519  34.792  42.232   1.553
16194W        W88520  13.651  14.806   4.144
16195W        W88521  15.731  11.776   0.831
16196W        W88522   8.782   6.618   3.578
16197W        W88523  13.585  37.298   4.089
16198W        W88524  22.132  44.519  12.923
16199W        W88525   9.653  13.848   3.590
16200W        W88526  14.505  28.929   1.238
16201W        W88527  23.669  15.642   4.573
16202W        W88528   1.392   1.758  10.288
16203W        W88529  22.224   3.656  14.801
16204W        W88530  18.160  42.056   0.769
16205W        W88531   6.636  38.423  12.413
16206W        W88532  15.145  39.794  11.911
16207W        W88533   0.491  41.972   2.374
16208W        W88534  35.852  22.002  11.030
16209W        W88535   0.261   6.492  11.533
16210W        W88536   2.777  23.660   2.712
16211W        W88537  26.539   0.930   2.168
16212W        W88538   9.841  17.790  12.411
16213W        W88539  27.029  37.602  13.215
16214W        W88540  27.235  38.717   3.146
16215W        W88541   5.157   6.626   3.863
16216W        W88542  15.265  30.007   0.017
16217W        W88543   6.727   5.338  12.867
16218W        W88544  23.836  13.959   4.484
16219W        W88545  21.132   4.648   3.769
16220W        W88546  17.795  10.100  13.764
16221W        W88547   1.547  37.370   1.899
16222W        W88548  26.530  19.302   2.122
16223W        W88549  21.031  43.697   5.192
16224W        W88550   6.166  33.591   2.371
16225W        W88551  10.153  15.137   2.160
16226W        W88552   0.785  11.300   1.151
16227W        W88553  12.556  16.233   4.340
16228W        W88554  14.700  32.417  13.549
16229W        W88555  12.722  29.687  13.018
16230W        W88556   7.086  42.029   3.750
16231W        W88557  25.748  25.292  11.516
16232W        W88558  16.225  16.063  13.011
16233W        W88559   7.933   0.466  14.047
16234W        W88560   3.780  43.858   3.916
16235W        W88561   3.452  43.399  12.151
16236W        W88562  42.591  20.823  12.089
16237W        W88563  43.854  34.696  14.053
16238W        W88564  10.175  31.860   1.549
16239W        W88565  25.059  35.505   4.442
16240W        W88566  44.818  19.745   4.733
16241W        W88567  22.730  19.250   3.203
16242W        W88568  29.168  17.703   2.700
16243W        W88569  10.674  38.547   0.536
16244W        W88570  19.006  22.980  14.301
16245W        W88571  12.281   0.646  11.023
16246W        W88572   1.220  13.676  13.070
16247W        W88573  16.381  18.799  13.305
16248W        W88574  29.014   8.688   4.149
16249W        W88575  32.822  35.059   3.870
16250W        W88576  30.003  30.110  11.183
16251W        W88577  44.357  17.295  10.645
16252W        W88578  11.031  15.956  11.097
16253W        W88579  25.085  41.927   4.606
16254W        W88580   0.729   4.270  14.079
16255W        W88581  13.055  14.256  14.114
16256W        W88582  33.366   4.585  14.895
16257W        W88583  31.609  20.295   3.286
16258W        W88584  22.705  28.352  11.641
16259W        W88585  33.755  24.240   3.235
16260W        W88586  14.619  29.678   4.684
16261W        W88587   1.225  13.649   3.991
16262W        W88588  21.248  23.088   3.058
16263W        W88589  25.162  22.983  10.624
16264W        W88590  43.887  41.882  12.873
16265W        W88591  12.306   5.251   1.375
16266W        W88592  26.683  38.504  13.981
16267W        W88593   9.452  12.292   0.418
16268W        W88594  39.037  35.741  10.257
16269W        W88595  16.006  26.543   3.919
16270W        W88596  20.710  41.976  14.794
16271W        W88597  30.251  24.092   4.065
16272W        W88598  30.966  34.796   2.803
16273W        W88599  21.176  14.191   0.784
16274W        W88600  16.102  41.786  11.559
16275W        W88601  44.482  19.134   3.250
16276W        W88602  33.427   5.640   3.144
16277W        W88603   8.142  35.681   2.594
16278W        W88604  28.968   9.581  13.129
16279W        W88605  36.069  42.582   0.379
16280W        W88606  17.793  22.093   3.399
16281W        W88607  38.325  22.787  12.952
16282W        W88608  19.504  11.675   1.182
16283W        W88609  40.318  33.600   3.482
16284W        W88610  39.995   1.730  13.035
16285W        W88611   6.394  32.116  10.721
16286W        W88612  23.557  43.527   4.560
16287W        W88613   1.834  44.279   2.007
16288W        W88614  32.596   4.882  10.555
16289W        W88615  12.805  44.066   1.008
16290W        W88616  29.026  16.230  11.610
16291W        W88617  17.794  15.147  11.025
16292W        W88618  34.813  41.000   4.766
16293W        W88619   3.989   4.483   5.407
16294W        W88620   5.884  22.819  10.412
16295W        W88621  15.928  28.530   2.832
16296W        W88622  16.327  28.165  14.430
16297W        W88623   9.239  39.959  10.415
16298W        W88624  44.427   6.290  12.943
16299W        W88625  32.028  21.949   0.924
16300W        W88626  10.092   4.373   1.530
16301W        W88627  21.640  35.149   1.226
16302W        W88628  13.609  32.517   0.940
16303W        W88629  33.619  40.297   0.797
16304W        W88630   6.148  21.604  11.618
16305W        W88631  19.008  19.524   2.683
16306W        W88632  23.682  28.178  14.267
16307W        W88633  17.998  29.150   1.872
16308W        W88634   0.507  40.882   0.473
16309W        W88635  14.458  32.425  12.053
16310W        W88636   4.749   8.403  11.705
16311W        W88637  29.089  17.295  12.526
16312W        W88638  10.475   4.741  11.634
16313W        W88639  13.660  18.835   0.029
16314W        W88640  40.255  26.527  12.430
16315W        W88641  14.739   5.951  13.857
16316W        W88642  42.274  10.358  13.878
16317W        W88643  42.685  35.936  10.545
16318W        W88644   0.493  13.011  13.894
16319W        W88645  38.255   9.790  10.286
16320W        W88646   5.968  15.088   3.587
16321W        W88647  39.107  32.578   4.098
16322W        W88648  23.130  15.371   4.647
16323W        W88649  29.266  23.211  11.986
16324W        W88650   7.102   9.627  14.914
16325W        W88651  19.994  37.347   1.580
16326W        W88652  31.645  38.772  11.053
16327W        W88653  40.406  38.841   0.851
16328W        W88654  31.709  10.725  10.640
16329W        W88655  15.717  39.347   1.879
16330W        W88656   4.472   2.871   5.392
16331W        W88657  17.256  32.976  14.362
16332W        W88658  44.104  12.622  12.661
16333W        W88659   2.800   3.855   3.611
16334W        W88660   4.912   0.237   3.573
16335W        W88661  40.251   7.381   2.925
16336W        W88662   6.481  29.015   9.781
16337W        W88663  10.423  17.728  11.742
16338W        W88664  12.220  22.199   0.808
16339W        W88665  37.535  36.216   4.878
16340W        W88666  43.371   9.583  14.324
16341W        W88667  22.046  42.866   3.699
16342W        W88668  14.080  38.326  10.896
16343W        W88669   9.573  13.922  13.008
16344W        W88670  40.921  15.396   0.336
16345W        W88671  18.624  33.501  14.651
16346W        W88672  20.454  15.537  11.059
16347W        W88673  44.229  29.181   4.296
16348W        W88674   3.217  36.941   3.989
16349W        W88675   9.680  33.888   2.787
16350W        W88676  26.050   2.768   1.915
16351W        W88677  44.826  13.860   1.838
16352W        W88678  13.120   6.379   2.373
16353W        W88679   4.208  14.117   0.059
16354W        W88680  44.017  41.076   3.228
16355W        W88681  31.414  33.534   4.336
16356W        W88682  43.547   0.078   2.738
16357W        W88683   0.383   2.094   4.036
16358W        W88684   2.321  42.998   2.346
16359W        W88685  13.871  34.461  12.909
16360W        W88686  24.034  12.825  13.119
16361W        W88687   7.233   0.218  12.262
16362W        W88688  19.316  28.967  11.334
16363W        W88689  31.924  33.751   1.334
16364W        W88690  15.885   4.456   2.950
16365W        W88691   7.933  27.059   2.583
16366W        W88692  18.663  44.671  12.997
16367W        W88693  38.315  18.025   3.274
16368W        W88694   0.764  13.097  14.774
16369W        W88695  25.462  17.690  13.736
16370W        W88696  11.233  42.004  11.657
16371W        W88697   7.419  28.600   0.958
16372W        W88698   6.662  11.104   3.715
16373W        W88699  17.700  32.127  12.905
16374W        W88700   4.120  27.531   4.073
16375W        W88701  30.870  12.951   2.694
16376W        W88702  40.548  38.799  11.709
16377W        W88703  30.383   3.621  14.037
16378W        W88704  37.872   7.140  11.922
16379W        W88705  14.748   2.042  11.612
16380W        W88706  15.294  12.618   2.817
16381W        W88707  29.538  16.691  14.249
16382W        W88708   7.367  19.472  11.585
16383W        W88709  22.951  19.756  14.535
16384W        W88710  27.607   5.248  11.074
16385W        W88711  42.143  32.492  14.608
16386W        W88712  18.302  12.276  10.932
16387W        W88713  11.404  20.789   3.776
16388W        W88714   5.285   7.741  12.599
16389W        W88715   7.804  32.963   4.249
16390W        W88716  23.754  21.255   4.545
16391W        W88717  33.030  36.318  13.878
16392W        W88718  32.703  34.394   1.740
16393W        W88719   9.683  37.693  14.106
16394W        W88720  25.384  13.735   0.902
16395W        W88721  20.110  40.541   1.191
16396W        W88722  33.290  42.858  11.438
16397W        W88723  31.226  33.449   3.864
16398W        W88724  17.797  26.678   1.461
16399W        W88725   0.778  38.870  14.243
16400W        W88726   0.319  39.449   1.971
16401W        W88727   1.373  27.125  14.782
16402W        W88728  32.319  23.348  14.222
16403W        W88729  14.796  44.536  11.477
16404W        W88730  43.055  30.118   0.428
16405W        W88731   7.609   2.493   2.779
16406W        W88732   5.197   5.492   3.245
16407W        W88733  32.478  13.043   3.210
16408W        W88734  21.248  34.435  12.768
16409W        W88735  39.961   3.285  14.986
16410W        W88736   7.656  18.162  11.162
16411W        W88737  15.160  18.033  12.579
16412W        W88738  40.720  28.572   0.293
16413W        W88739  30.369  39.107  11.498
16414W        W88740  44.300  16.223   3.741
16415W        W88741   5.233  22.604  11.348
16416W        W88742  39.277   2.326   1.888
16417W        W88743  27.438  33.070   4.842
16418W        W88744  31.240  15.694   4.708
16419W        W88745  21.243  12.817  14.118
16420W        W88746  34.869  35.583  12.874
16421W        W88747  38.454   9.336  13.080
16422W        W88748   3.061  36.882   4.472
16423W        W88749  30.971  23.555  10.988
16424W        W88750  39.219  21.819  11.181
16425W        W88751   2.749  33.129  13.747
16426W        W88752   8.668   1.188   3.113
16427W        W88753  41.484  24.296  14.406
16428W        W88754  19.266   0.212   4.275
16429W        W88755   3.419  27.904   4.766
16430W        W88756  10.356  31.010  12.413
16431W        W88757  10.417   0.448  12.464
16432W        W88758  37.528  13.352   4.618
16433W        W88759  31.169  15.240  13.822
16434W        W88760  31.533   7.856  11.836
16435W        W88761  19.658   0.213   2.235
16436W        W88762   3.650   8.316  10.862
16437W        W88763   3.711  20.410  11.768
16438W        W88764  16.232   4.416   4.549
16439W        W88765  42.607  13.312  14.878
16440W        W88766  34.419  36.068  10.089
16441W        W88767  30.832  11.966  13.281
16442W        W88768  20.550   3.652   1.914
16443W        W88769  35.853   6.457  12.883
16444W        W88770  13.259   6.224  10.740
16445W        W88771  28.422  13.696   3.251
16446W        W88772  14.669  21.269  13.054
16447W        W88773  29.827  27.603  10.114
16448W        W88774  10.294  37.891   1.801
16449W        W88775   9.814  29.786   0.860
16450W        W88776  11.946  20.041  11.920
16451W        W88777  42.465  10.147   1.801
16452W        W88778   9.687  23.278  11.222
16453W        W88779  34.001  15.562   0.402
16454W        W88780  16.863   8.730  14.855
16455W        W88781  40.839   1.838  12.787
16456W        W88782  30.206  35.014  12.759
16457W        W88783  26.221  13.259   2.410
16458W        W88784  39.811   7.427   4.763
16459W        W88785  39.640  43.786   3.674
16460W        W88786  18.842  24.251  13.469
16461W        W88787  16.637  26.252  13.200
16462W        W88788   3.248  26.922   0.804
16463W        W88789  32.164  39.516   3.144
16464W        W88790  14.428  12.328   1.367
16465W        W88791  41.896  26.312  10.242
16466W        W88792  24.417  37.825   9.752
16467W        W88793  43.238   8.422  12.649
16468W        W88794   2.170  24.653  13.333
16469W        W88795  17.604   2.524  12.629
16470W        W88796  38.414  27.102  11.465
16471W        W88797  42.498  27.071  11.161
16472W        W88798   3.184  27.166   2.730
16473W        W88799  35.581  13.142   4.573
16474W        W88800  43.346  10.327   4.548
16475W        W88801  19.030  32.471   4.616
16476W        W88802  18.772  35.441   0.790
16477W        W88803  38.822  19.129   3.789
16478W        W88804  12.668  36.204  12.454
16479W        W88805  29.868  40.415  13.584
16480W        W88806   8.788  43.950   2.170
16481W        W88807  41.904  34.093  12.555
16482W        W88808  34.995  30.934  14.351
16483W        W88809   2.486  34.360   4.641
16484W        W88810   0.855  15.614  14.933
16485W        W88811  23.563   4.401  13.547
16486W        W88812  41.544  13.643   4.819
16487W        W88813  20.230  23.867   3.988
16488W        W88814  37.290  15.181   2.304
16489W        W88815  42.984  22.556   3.837
16490W        W88816  35.880   4.376  11.442
16491W        W88817  33.025  22.986   0.323
16492W        W88818  31.406  37.428   3.761
16493W        W88819   8.018  11.466  11.587
16494W        W88820  16.536  22.571  11.410
16495W        W88821  17.409  14.446  13.894
16496W        W88822  19.436   0.317   0.700
16497W        W88823   4.403  20.107  14.361
16498W        W88824  42.442  28.654  10.662
16499W        W88825  20.849  44.692  12.877
16500W        W88826  22.231  28.108   4.764
16501W        W88827   4.818  36.313   1.904
16502W        W88828  31.556  39.079  12.880
16503W        W88829  16.574  34.633  12.907
16504W        W88830  24.199  16.934   2.709
16505W        W88831  30.218  16.093   1.730
16506W        W88832  41.860   7.794  11.235
16507W        W88833  15.674   7.584   3.993
16508W        W88834  24.989  30.713   0.432
16509W        W88835  21.881  24.969   3.561
16510W        W88836  36.932  11.817  13.501
16511W        W88837  29.080  32.858  13.803
16512W        W88838  36.131  13.801   3.314
16513W        W88839  12.596  19.605  11.564
16514W        W88840  35.589  18.224   4.145
16515W        W88841  17.102  40.439   3.431
16516W        W88842  28.238  44.821   4.626
16517W        W88843  21.611   0.423  12.978
16518W        W88844  22.137   7.244   0.249
16519W        W88845  35.757  21.014   2.153
16520W        W88846   7.437   8.096   1.792
16521W        W88847  19.809  11.307   1.915
16522W        W88848  22.022  13.666  10.580
16523W        W88849  38.040  39.565  13.492
16524W        W88850  33.553  13.145   3.897
16525W        W88851   9.419  43.364  12.115
16526W        W88852   4.880  22.176   5.212
16527W        W88853  30.032  35.113  10.774
16528W        W88854  18.160   9.604  14.024
16529W        W88855  40.834  22.604   3.042
16530W        W88856  17.207   3.731  14.952
16531W        W88857  44.109  10.101  13.031
16532W        W88858  27.534  36.039   1.875
16533W        W88859  20.021  10.820   1.772
16534W        W88860  13.168  21.924  13.056
16535W        W88861  16.495   0.909  14.134
16536W        W88862  39.838   0.350  13.552
16537W        W88863  21.191  25.314   0.238
16538W        W88864   7.774   5.178  11.491
16539W        W88865   6.098  13.319  12.622
16540W        W88866  43.580  16.253   4.667
16541W        W88867  15.790  24.556   0.169
16542W        W88868   2.899  44.717  11.960
16543W        W88869  27.597  13.997  11.061
16544W        W88870  42.043  44.986   3.804
16545W        W88871  19.607   3.318   2.378
16546W        W88872   0.778   3.162   5.055
16547W        W88873  40.796  36.808  11.176
16548W        W88874  22.743  23.919   3.249
16549W        W88875   3.041  17.662   2.192
16550W        W88876  36.513  39.587   3.532
16551W        W88877  34.082   3.957  12.002
16552W        W88878  17.646  13.368   1.940
16553W        W88879  30.673   5.920   2.113
16554W        W88880   6.934  33.889   3.804
16555W        W88881   2.894  34.817  14.812
16556W        W88882   4.834  27.418   2.350
16557W        W88883  44.297  23.323  10.623
16558W        W88884   3.813   6.890  11.652
16559W        W88885  43.625   2.954  14.257
16560W        W88886  26.549  33.468  12.069
16561W        W88887  44.668  34.336  14.902
16562W        W88888  14.686  20.297   0.908
16563W        W88889   9.170  12.812  11.407
16564W        W88890  40.903  21.591   3.158
16565W        W88891   4.703   3.306  11.660
16566W        W88892  34.939  19.485  11.183
16567W        W88893  37.598  34.338   0.275
16568W        W88894  28.626  37.771   1.840
16569W        W88895  42.762   3.417   4.519
16570W        W88896   5.081  29.284   9.934
16571W        W88897  18.530  20.123  12.491
16572W        W88898  30.186  21.755   1.225
16573W        W88899  28.683  39.901  10.722
16574W        W88900  33.972  44.854   0.331
16575W        W88901  26.401  41.383   1.250
16576W        W88902  13.130   5.439   3.429
16577W        W88903  20.474  28.999  13.134
16578W        W88904  25.605  44.035  11.095
16579W        W88905   8.462   1.461  12.047
16580W        W88906  10.665   1.254  12.010
16581W        W88907  13.899  36.481   4.164
16582W        W88908  37.358  34.449  14.790
16583W        W88909  31.013   5.241   0.752
16584W        W88910  39.873   6.250  13.445
16585W        W88911  20.587  38.558   3.997
16586W        W88912   1.842  17.784   0.243
16587W        W88913  16.349  42.240  12.859
16588W        W88914  36.291   9.304   0.885
16589W        W88915  16.095  33.789  14.397
16590W        W88916   4.367  14.022   4.114
16591W        W88917  24.072  27.948   1.278
16592W        W88918  38.372  29.931  13.977
16593W        W88919   0.353  35.517   3.271
16594W        W88920  19.059  22.859   4.628
16595W        W88921  20.711  34.154  13.090
16596W        W88922   5.877  38.488   0.663
16597W        W88923  14.597  19.006  10.590
16598W        W88924  26.765  38.086  11.431
16599W        W88925   0.181   3.614  13.905
16600W        W88926  28.682  13.620  12.052
16601W        W88927   9.687  32.021   1.677
16602W        W88928  21.108   1.040  11.015
16603W        W88929  17.022  43.895   3.161
16604W        W88930  20.482  43.406   3.315
16605W        W88931   9.309  29.079  12.959
16606W        W88932  39.721  31.639  10.497
16607W        W88933   0.273  42.635  14.101
16608W        W88934   2.527  37.061   3.325
16609W        W88935  35.344   9.377  12.553
16610W        W88936  43.422   6.561  12.728
16611W        W88937  34.377  30.310   3.117
16612W        W88938  31.866  18.567   2.822
16613W        W88939  29.021  14.733   3.854
16614W        W88940  38.084  19.373  10.589
16615W        W88941  38.848  40.362  13.949
16616W        W88942  21.645  38.546  10.210
16617W        W88943  29.659  41.286  12.562
16618W        W88944  25.518   2.929  11.990
16619W        W88945  39.462  39.947   0.430
16620W        W88946  14.675  32.115  14.521
16621W        W88947  15.852  41.120  14.167
16622W        W88948  40.294   9.834   0.148
16623W        W88949   9.321   8.998  12.885
16624W        W88950  31.200  22.177  11.157
16625W        W88951  25.628  11.723   4.925
16626W        W88952  27.058  43.168  10.373
16627W        W88953  39.586  21.065  12.684
16628W        W88954  33.528  19.995  10.780
16629W        W88955  22.347  28.995   3.383
16630W        W88956  44.465  11.328   2.262
16631W        W88957  22.967  43.714  14.245
16632W        W88958   0.962  43.306  12.909
16633W        W88959  44.967   5.798   4.507
16634W        W88960  23.887   8.433  14.586
16635W        W88961  14.461  12.104  14.090
16636W        W88962  12.113  38.559   0.572
16637W        W88963   2.685  40.543  12.519
16638W        W88964  24.579  15.239   9.699
16639W        W88965  30.310   4.186   1.430
16640W        W88966  42.500  35.383  11.016
16641W        W88967  24.551  14.872   3.212
16642W        W88968  20.554  15.731  13.044
16643W        W88969  30.962  30.366  14.692
16644W        W88970  11.088  30.103   1.725
16645W        W88971  23.535  40.499  11.968
16646W        W88972  32.178  44.050   4.096
16647W        W88973  23.159  23.885  13.457
16648W        W88974  17.914  34.576   2.214
16649W        W88975  24.376   7.715  11.117
16650W        W88976   9.329  44.124   2.283
16651W        W88977  35.812   5.884   3.200
16652W        W88978  23.067   0.548   1.718
16653W        W88979  27.472   1.496  12.304
16654W        W88980  37.787  20.535   2.649
16655W        W88981   8.571  33.903  11.920
16656W        W88982  43.342   4.955   4.273
16657W        W88983  32.352  10.794   0.918
16658W        W88984  44.576   1.726  12.846
16659W        W88985  35.036   7.254  13.537
16660W        W88986  14.005  36.976   4.083
16661W        W88987  24.640  15.372   3.349
16662W        W88988  25.540   8.847  11.606
16663W        W88989   8.672  39.260  11.580
16664W        W88990  21.399  20.771  13.377
16665W        W88991  39.539  18.004   0.732
16666W        W88992   9.049  38.003   2.195
16667W        W88993   5.666   3.933   2.831
16668W        W88994  26.163  37.882  12.982
16669W        W88995   9.621  20.598   2.330
16670W        W88996  26.519  32.155   4.212
16671W        W88997   1.343  19.502   2.576
16672W        W88998  11.264   5.378  14.105
16673W        W88999  15.063   8.715   3.649
16674W        W89000  40.385  25.271  11.387
16675W        W89001  18.688  36.548  11.570
16676W        W89002  34.120  23.041   2.232
16677W        W89003  26.074  15.332  11.023
16678W        W89004  11.372  11.282  11.998
16679W        W89005  43.307   2.349  11.520
16680W        W89006  13.057  16.110  12.934
16681W        W89007   8.411  40.520   4.809
16682W        W89008   3.182  22.033  10.636
16683W        W89009  15.828  15.569   1.815
16684W        W89010   1.351  37.397   0.954
16685W        W89011  30.645  29.728   3.759
16686W        W89012  10.446  40.872   1.292
16687W        W89013  42.227  31.838   4.930
16688W        W89014   3.760  31.135  10.573
16689W        W89015   5.146  39.954  10.337
16690W        W89016  35.827  30.425   0.321
16691W        W89017  19.814  27.256   1.108
16692W        W89018  10.376  21.190   3.195
16693W        W89019  13.557  10.076   0.072
16694W        W89020  42.935  18.399  14.827
16695W        W89021  43.260  27.632   4.056
16696W        W89022  35.081  41.844   2.618
16697W        W89023   6.159   1.844  11.185
16698W        W89024  42.402  37.583  11.618
16699W        W89025  21.016   6.218  11.560
16700W        W89026   6.921  11.633  14.373
16701W        W89027   8.761  30.222  14.323
16702W        W89028  39.805  12.351  14.152
16703W        W89029  32.877  30.662   0.204
16704W        W89030  12.765  13.737  12.643
16705W        W89031  41.293  39.851  11.684
16706W        W89032  15.143  31.433   3.548
16707W        W89033  34.815   4.623   2.874
16708W        W89034  13.190   2.503   3.637
16709W        W89035  18.763  22.418  13.998
16710W        W89036   4.355  20.548  13.580
16711W        W89037   4.899  14.829  14.751
16712W        W89038  39.823   3.722   2.309
16713W        W89039  22.543   4.971   1.812
16714W        W89040  12.037   3.080   5.194
16715W        W89041   3.720  44.282   3.594
16716W        W89042  15.878  41.553  14.461
16717W        W89043  34.611  21.177  12.087
16718W        W89044  11.058  11.273   1.314
16719W        W89045  42.334   7.320   3.233
16720W        W89046  10.340  17.656  12.236
16721W        W89047   0.210  40.495   2.233
16722W        W89048   5.816  13.851   4.384
16723W        W89049  29.954  31.960  13.123
16724W        W89050  17.506  16.373  14.317
16725W        W89051  40.312  14.470  10.099
16726W        W89052   0.824  11.774  10.687
16727W        W89053  24.298  43.625  13.055
16728W        W89054   5.439   7.216  11.847
16729W        W89055   5.216  37.038  14.070
16730W        W89056  16.619  43.015   0.287
16731W        W89057  33.478  19.646   2.357
16732W        W89058   5.784  32.255  14.833
16733W        W89059   4.275  22.154   2.418
16734W        W89060  11.111   0.954  10.805
16735W        W89061   9.179  23.283  11.113
16736W        W89062   5.239  41.061  12.971
16737W        W89063  30.447  16.592  12.797
16738W        W89064  25.799   0.953   0.851
16739W        W89065  40.332  28.419   4.733
16740W        W89066   8.117  39.657  12.389
16741W        W89067  27.950  42.123   3.229
16742W        W89068  17.127  26.933  12.802
16743W        W89069  33.768  18.128   0.962
16744W        W89070  17.533  21.059   1.085
16745W        W89071  22.518  23.061   0.857
16746W        W89072  41.688  39.916  14.464
16747W        W89073  40.846  35.664  14.527
16748W        W89074  21.356  26.646  11.505
16749W        W89075  36.879  33.639  13.417
16750W        W89076  10.662   5.818  14.581
16751W        W89077   4.656  39.163  12.870
16752W        W89078  38.675  37.577   4.996
16753W        W89079  27.232   7.209   3.324
16754W        W89080  44.709   0.331  11.452
16755W        W89081  17.840  29.983  14.853
16756W        W89082  39.840   1.720  13.547
16757W        W89083  20.575  28.128   1.820
16758W        W89084  14.303  33.155   0.338
16759W        W89085  28.511  22.604  14.307
16760W        W89086   0.211  38.462   1.374
16761W        W89087   8.396  23.789   2.377
16762W        W89088  14.351   9.116   3.492
16763W        W89089  22.096  35.760  12.475
16764W        W89090  13.730  42.299  11.573
16765W        W89091  24.121  19.065  10.941
16766W        W89092  36.457  44.006   3.310
16767W        W89093  21.654  39.134   1.371
16768W        W89094  38.596  35.637   2.201
16769W        W89095  19.578   3.856   3.898
16770W        W89096   5.927   0.453   1.241
16771W        W89097  15.697  27.125  11.052
16772W        W89098   9.380  27.400   3.581
16773W        W89099  40.939  12.249  11.848
16774W        W89100  13.258  29.882   4.406
16775W        W89101   0.422  13.639  11.368
16776W        W89102  15.339  16.350   4.188
16777W        W89103   0.967  43.085  14.475
16778W        W89104  32.080  11.218  11.445
16779W        W89105  29.693  18.823   3.222
16780W        W89106   3.080  17.050  11.330
16781W        W89107  23.267  10.588   4.515
16782W        W89108  21.400  26.033   3.842
16783W        W89109  35.361  22.137  13.365
16784W        W89110  41.350  42.110  12.566
16785W        W89111  31.467  14.673  12.138
16786W        W89112  30.182   4.897   3.614
16787W        W89113  32.977  14.205  12.674
16788W        W89114  38.904  40.423  12.069
16789W        W89115  16.826  28.415   3.108
16790W        W89116   9.676  25.131   1.146
16791W        W89117  23.863  21.152   1.394
16792W        W89118  32.185  16.229  10.717
16793W        W89119   1.895   6.003   0.048
16794W        W89120   1.679  16.302   1.620
16795W        W89121  43.506  34.547   5.428
16796W        W89122  30.664  22.548  12.582
16797W        W89123   7.144  23.941  13.546
16798W        W89124  42.059  31.638  11.170
16799W        W89125  37.376   3.537  13.470
16800W        W89126  40.942  42.415   0.387
16801W        W89127  28.669  19.005   2.770
16802W        W89128  24.408  19.340   4.227
16803W        W89129   8.604  17.049  12.779
16804W        W89130  23.125  39.458   2.283
16805W        W89131   3.243  20.173   4.642
16806W        W89132   3.440  14.701   1.989
16807W        W89133  27.017  15.361   0.881
16808W        W89134   0.789   0.979   4.633
16809W        W89135  25.773   9.410  13.410
16810W        W89136   4.304  14.246   5.037
16811W        W89137  32.961  39.696   0.296
16812W        W89138  13.296  20.709  13.873
16813W        W89139   9.118  43.388  13.438
16814W        W89140  27.653  21.490   2.474
16815W        W89141  20.560  40.605  13.287
16816W        W89142   2.280  10.633  10.609
16817W        W89143  20.115   0.798  11.142
16818W        W89144  38.444   9.619   2.864
16819W        W89145  32.976   9.118   4.607
16820W        W89146  39.039  31.112  13.757
16821W        W89147  31.896  16.656  13.094
16822W        W89148  27.620  31.555  12.359
16823W        W89149  42.408   6.952   2.195
16824W        W89150   2.386  31.138  11.583
16825W        W89151  36.039  44.654   0.649
16826W        W89152  11.688  18.664  10.494
16827W        W89153  35.499   8.738  14.418
16828W        W89154  12.640  26.952   0.918
16829W        W89155  43.373  16.252   0.261
16830W        W89156  15.077   4.995  12.516
16831W        W89157  22.153  29.914   3.083
16832W        W89158  42.849  36.013  12.187
16833W        W89159  33.154  15.070  10.461
16834W        W89160  25.552   4.686  10.988
16835W        W89161  21.267  32.958   0.389
16836W        W89162  35.499   8.425   4.109
16837W        W89163  40.699  29.524  11.261
16838W        W89164  43.677  36.102   3.545
16839W        W89165  38.357   6.707   0.756
16840W        W89166  20.073  17.685   4.036
16841W        W89167  35.311  43.463  11.066
16842W        W89168  16.778  17.534   4.703
16843W        W89169  32.700  16.342   4.407
16844W        W89170  34.876   9.107  13.698
16845W        W89171   6.659  41.414  11.383
16846W        W89172  12.363  24.946   3.795
16847W        W89173  17.280  33.013   1.805
16848W        W89174  36.107  19.688   4.934
16849W        W89175  28.918  26.108  10.522
16850W        W89176   8.790   3.800   0.208
16851W        W89177  25.259  12.183  12.434
16852W        W89178   9.488   1.895  12.521
16853W        W89179  22.618   7.733   4.128
16854W        W89180  26.543  41.849   0.317
16855W        W89181  26.709  38.879  13.158
16856W        W89182  23.330  15.152  14.900
16857W        W89183  16.192  31.970   2.865
16858W        W89184  18.218   1.282  13.820
16859W        W89185   5.780  44.037   4.190
16860W        W89186  21.307   3.276  14.331
16861W        W89187   9.383  22.635  13.361
16862W        W89188  30.361  40.027  13.339
16863W        W89189  33.122  17.229  10.549
16864W        W89190  41.876   1.425   1.725
16865W        W89191  25.021  27.913  13.901
16866W        W89192  26.443  20.054   4.040
16867W        W89193  11.140  35.263  12.575
16868W        W89194  44.624  11.606  10.978
16869W        W89195  31.469  22.817  14.961
16870W        W89196   8.816  17.186   0.419
16871W        W89197  25.916  42.555  13.142
16872W        W89198  27.382  23.257   2.260
16873W        W89199  31.494  15.554   3.102
16874W        W89200  25.669  37.059   2.616
16875W        W89201  23.787   8.249  14.114
16876W        W89202  11.293   6.462   1.132
16877W        W89203  12.809   1.321   3.803
16878W        W89204  26.451   9.762  13.822
16879W        W89205  20.073  36.410  12.953
16880W        W89206   9.843   8.850  14.324
16881W        W89207  19.921   3.154  14.697
16882W        W89208  10.647  20.741   2.399
16883W        W89209  42.503  44.434   5.056
16884W        W89210  12.551   6.477  10.972
16885W        W89211  24.498  19.653   3.556
16886W        W89212  24.948   2.851   1.336
16887W        W89213  22.969  30.644   4.870
16888W        W89214  32.978  27.830  13.509
16889W        W89215  15.900  42.057  11.135
16890W        W89216  36.352  35.359   2.001
16891W        W89217  42.735  42.502   1.238
16892W        W89218   9.730  40.942   3.376
16893W        W89219  20.266  31.078  13.517
16894W        W89220   9.175  36.631  13.048
16895W        W89221  26.306   1.846  11.113
16896W        W89222  43.660  19.853   3.341
16897W        W89223   4.848   3.781   0.723
16898W        W89224   5.473  43.465   2.291
16899W        W89225   5.224  34.550  13.351
16900W        W89226  38.053  18.121   2.193
16901W        W89227  34.512  31.637  14.143
16902W        W89228  11.876  22.785   0.896
16903W        W89229  11.671   4.926   1.772
16904W        W89230  38.032   3.771  11.067
16905W        W89231  40.362   0.268  12.404
16906W        W89232  31.423   4.842   1.937
16907W        W89233  17.569  38.301   0.369
16908W        W89234   6.762  38.305  13.262
16909W        W89235   6.227  15.421  14.929
16910W        W89236  39.847  29.219  11.596
16911W        W89237  25.754   7.459  14.773
16912W        W89238  14.707  21.343  13.882
16913W        W89239  26.893   4.641  11.328
16914W        W89240   5.858   5.613   4.073
16915W        W89241  16.185   9.966  13.596
16916W        W89242  16.517  27.609   2.337
16917W        W89243   1.822  34.678  13.856
16918W        W89244  27.925  13.214   2.840
16919W        W89245  23.853  15.200  13.453
16920W        W89246  26.356  18.051   4.725
16921W        W89247  31.101  28.854   1.432
16922W        W89248   2.149  15.667   3.693
16923W        W89249  40.359  32.362  11.473
16924W        W89250  38.890  16.629   4.148
16925W        W89251  30.268  16.500   0.203
16926W        W89252  22.757  16.212  11.423
16927W        W89253   5.459  41.345  13.352
16928W        W89254  26.585  23.799   4.534
16929W        W89255  16.649  29.968   4.377
16930W        W89256   1.424  14.625   4.941
16931W        W89257   9.239  10.378   3.700
16932W        W89258   7.677  11.005  13.282
16933W        W89259  35.099   3.293   4.051
16934W        W89260   3.433  17.343  13.855
16935W        W89261  37.071  10.718   2.273
16936W        W89262  24.515  34.940  12.559
16937W        W89263   7.433  11.573  12.438
16938W        W89264  28.099  22.909   0.903
16939W        W89265  37.408  16.830  14.331
16940W        W89266   7.359  22.519   1.628
16941W        W89267  23.779  35.149   3.359
16942W        W89268  32.652  42.947  10.602
16943W        W89269  43.237  16.620   1.789
16944W        W89270  17.805  23.974   1.384
16945W        W89271  17.331  20.269   2.779
16946W        W89272   7.576   3.555   9.878
16947W        W89273   1.901  19.805   0.103
16948W        W89274  30.429  28.808  11.915
16949W        W89275  14.647  18.789   3.653
16950W        W89276  34.142  14.126   2.359
16951W        W89277  10.113   8.103   0.763
16952W        W89278  19.122   8.375  11.221
16953W        W89279  40.873   8.571   1.365
16954W        W89280   0.761  35.961   0.196
16955W        W89281  10.214  31.077  13.437
16956W        W89282  14.934  40.513  13.350
16957W        W89283   7.055  31.555   3.677
16958W        W89284  22.164  19.339  10.616
16959W        W89285  39.780   8.620  14.400
16960W        W89286  28.847  37.634  11.472
16961W        W89287   6.466   5.040   2.713
16962W        W89288  27.687   5.246  13.113
16963W        W89289  21.064  37.773  11.585
16964W        W89290  28.172   5.798   2.737
16965W        W89291   1.242  39.526   2.433
16966W        W89292   3.418   9.508   2.183
16967W        W89293  28.714  10.971   3.648
16968W        W89294   6.292  11.670  12.020
16969W        W89295   1.452   2.182   3.919
16970W        W89296  27.060   7.175   1.298
16971W        W89297  42.539  29.391  13.349
16972W        W89298  36.136  10.693   3.353
16973W        W89299   9.900   9.719  13.917
16974W        W89300  10.798  23.587   0.774
16975W        W89301  20.812  43.189  14.355
16976W        W89302  42.057  17.075   0.281
16977W        W89303  21.508   9.982   4.137
16978W        W89304  39.269  35.991  10.881
16979W        W89305  15.413  29.446  11.610
16980W        W89306  35.944  39.355  10.679
16981W        W89307  36.932  35.813   3.220
16982W        W89308  16.747  17.441   2.885
16983W        W89309  24.767  33.532   2.697
16984W        W89310  28.936  33.117  14.236
16985W        W89311  20.693  43.853   3.885
16986W        W89312  13.065  37.306  10.185
16987W        W89313  18.241  11.354   4.792
16988W        W89314   6.620  35.409   4.268
16989W        W89315  15.726  35.421  14.203
16990W        W89316  13.652  37.045   1.707
16991W        W89317  21.783  36.800   0.858
16992W        W89318  36.467  24.223   0.851
16993W        W89319  22.464  25.980  12.861
16994W        W89320  44.968  33.081   2.133
16995W        W89321  33.808  34.580  11.016
16996W        W89322  16.094  16.802  11.204
16997W        W89323  21.784  42.352   3.743
16998W        W89324  38.861  10.356  14.383
16999W        W89325  13.028  30.472  12.636
17000W        W89326  21.593   2.428   0.256
17001W        W89327   8.884  22.442  13.057
17002W        W89328  40.770  36.062   1.257
17003W        W89329  39.237  41.630  12.274
17004W        W89330   4.742   8.741   2.342
17005W        W89331  13.205  38.420   4.492
17006W        W89332  16.397  43.124   4.141
17007W        W89333   6.288  31.709  14.048
17008W        W89334  11.810   0.538  13.766
17009W        W89335  31.829  21.296  11.074
17010W        W89336  12.490  17.216  13.597
17011W        W89337   3.548  27.499  14.115
17012W        W89338  15.228  43.289   3.273
17013W        W89339   8.825   1.369   1.087
17014W        W89340  14.743   5.120   4.626
17015W        W89341  14.168  27.208   0.428
17016W        W89342  43.015  22.524   1.535
17017W        W89343  12.046  36.019   0.926
17018W        W89344   5.065   5.833   1.795
17019W        W89345  42.461  13.543  10.373
17020W        W89346  26.001  20.555   0.813
17021W        W89347  24.519   0.875   0.256
17022W        W89348  36.167  37.800  14.390
17023W        W89349  12.853  27.354  12.393
17024W        W89350  23.722  27.627  11.166
17025W        W89351  44.287  38.852   5.050
17026W        W89352  15.746  13.291   0.418
17027W        W89353  24.204   6.155   2.390
17028W        W89354  12.553  38.367  11.984
17029W        W89355   2.449  39.347  11.517
17030W        W89356   4.291  26.711  10.510
17031W        W89357  19.213  18.568   0.334
17032W        W89358  14.729  14.022  10.728
17033W        W89359  28.454  41.119  14.706
17034W        W89360  42.528   3.220   3.154
17035W        W89361  17.714   0.291  12.925
17036W        W89362  35.483   8.726   0.966
17037W        W89363  13.134  40.487  13.964
17038W        W89364   3.756  31.948  12.457
17039W        W89365  25.983  38.933   4.588
17040W        W89366   1.846  35.541  10.441
17041W        W89367  19.591  41.509  14.898
17042W        W89368  22.955  36.930   3.153
17043W        W89369  19.658  25.746  14.648
17044W        W89370  22.183  38.265  12.358
17045W        W89371  30.717  39.849   1.718
17046W        W89372  14.710  35.099   4.552
17047W        W89373  40.386  25.477   2.237
17048W        W89374   6.489   2.838   0.551
17049W        W89375  29.059   9.876  11.593
17050W        W89376  40.918  38.279  11.360
17051W        W89377  39.329  41.690   3.722
17052W        W89378  39.515  39.101   0.956
17053W        W89379  19.591  31.637   2.818
17054W        W89380  21.704  31.617   3.609
17055W        W89381   7.829  33.751  14.995
17056W        W89382  41.279  10.790   3.628
17057W        W89383  27.050  39.685   2.817
17058W        W89384  15.694  15.332  12.133
17059W        W89385  37.283  22.515  14.488
17060W        W89386  22.192   7.710   1.014
17061W        W89387  12.750   9.553  13.486
17062W        W89388   7.232  19.259   3.269
17063W        W89389   3.381  18.788  13.812
17064W        W89390  34.117  22.158  13.917
17065W        W89391   3.448  16.806  13.494
17066W        W89392   3.056  36.355  14.925
17067W        W89393   8.679  12.533  11.646
17068W        W89394  32.912   5.016  13.098
17069W        W89395  20.224  42.385  12.846
17070W        W89396  10.297  15.514   3.670
17071W        W89397  33.166  34.592   0.353
17072W        W89398   7.664  14.212  14.679
17073W        W89399  13.328  31.825   3.631
17074W        W89400  31.862  39.973  12.170
17075W        W89401  12.715   5.150  10.271
17076W        W89402   2.297  26.820   0.008
17077W        W89403  16.607  39.634   1.835
17078W        W89404  21.059   4.265  13.245
17079W        W89405  28.915   0.460   3.375
17080W        W89406  27.457  28.003  12.933
17081W        W89407  18.638  22.134  11.154
17082W        W89408  12.347  32.954   1.317
17083W        W89409  31.720  43.720  11.232
17084W        W89410  35.771  42.078  14.145
17085W        W89411  12.953  12.976   0.513
17086W        W89412  14.773  27.134   5.740
17087W        W89413  20.726   6.694   0.846
17088W        W89414   3.024   6.103  11.991
17089W        W89415  18.093  12.021   3.377
17090W        W89416  22.780  34.958  12.130
17091W        W89417  38.244   6.217  11.642
17092W        W89418   8.402  23.639   2.879
17093W        W89419  20.028   3.831   1.792
17094W        W89420  23.158   0.082  11.913
17095W        W89421  12.482  30.249  11.467
17096W        W89422  19.286  41.367   4.939
17097W        W89423   4.791  34.003  14.286
17098W        W89424  12.543  42.054  14.941
17099W        W89425   7.699  37.511  11.657
17100W        W89426  12.333   3.443  12.109
17101W        W89427  28.157  12.405   1.245
17102W        W89428  37.145  32.096   1.000
17103W        W89429  31.058  30.376   1.895
17104W        W89430  17.759   2.207  11.092
17105W        W89431  24.818   6.973  12.926
17106W        W89432  12.624  10.391  13.854
17107W        W89433  43.253  15.670   1.973
17108W        W89434  41.227  25.226  10.944
17109W        W89435   3.942   1.466   3.639
17110W        W89436  24.815  21.134   3.646
17111W        W89437   3.193  35.179   3.276
17112W        W89438  42.395  32.343   0.486
17113W        W89439  15.913  44.056   0.713
17114W        W89440  15.748   0.904  13.852
17115W        W89441  34.442  18.551   3.292
17116W        W89442  25.166   7.723   2.466
17117W        W89443  23.732  43.262   1.756
17118W        W89444  34.506  38.290  13.798
17119W        W89445  10.737  17.688   4.628
17120W        W89446  11.726  36.592  13.987
17121W        W89447   6.267  34.206  12.407
17122W        W89448  28.478   6.350   1.299
17123W        W89449  24.218  40.259   2.678
17124W        W89450  20.103  30.549  11.202
17125W        W89451  23.239  34.836   3.759
17126W        W89452  26.040  10.383  10.676
17127W        W89453  14.705  19.565   3.200
17128W        W89454  35.377  10.697  13.571
17129W        W89455  22.673  23.480   1.432
17130W        W89456  20.466  34.531   4.215
17131W        W89457  23.566  30.546   3.579
17132W        W89458  13.435  35.657  10.274
17133W        W89459  26.897  39.758  12.104
17134W        W89460  34.388  10.294   4.595
17135W        W89461  23.516  41.865  12.539
17136W        W89462   5.875   2.736  10.659
17137W        W89463  22.106   5.457   3.709
17138W        W89464  37.997   1.975   1.252
17139W        W89465  36.095   3.203   1.817
17140W        W89466  15.217  14.537  13.047
17141W        W89467  39.063  12.169  12.991
17142W        W89468  25.571  30.086   4.246
17143W        W89469  35.511   2.654   1.277
17144W        W89470  41.861  23.888   0.367
17145W        W89471   7.567  32.925  11.207
17146W        W89472  32.609  24.456   2.283
17147W        W89473  12.816  22.747   3.118
17148W        W89474  29.440  15.797   2.127
17149W        W89475  25.199  15.432  13.083
17150W        W89476   9.826  39.986  12.890
17151W        W89477  40.788  12.549   3.731
17152W        W89478  18.121  24.725  13.213
17153W        W89479  22.694  18.341   0.548
17154W        W89480  19.489  31.058   2.820
17155W        W89481  35.342  39.885   3.199
17156W        W89482   5.258  13.380  13.816
17157W        W89483  16.178   8.834  14.792
17158W        W89484   7.888   9.375   1.584
17159W        W89485  35.875  21.225   0.902
17160W        W89486  39.360  38.522   2.360
17161W        W89487  36.875  38.765   2.194
17162W        W89488   0.664  32.594   0.235
17163W        W89489  12.374   1.049   3.239
17164W        W89490  10.056  10.172   2.467
17165W        W89491  21.599  20.308   0.889
17166W        W89492   7.629  38.480  13.531
17167W        W89493  16.253  11.680   1.400
17168W        W89494   9.194  33.599  13.510
17169W        W89495  17.396  42.562   9.983
17170W        W89496  24.977  17.008  12.603
17171W        W89497  31.907   0.428   3.377
17172W        W89498   1.778  26.184  10.427
17173W        W89499  36.459  16.673   1.381
17174W        W89500  23.643  34.647  12.068
17175W        W89501   8.950   3.357   2.740
17176W        W89502  20.709  42.332   1.840
17177W        W89503  20.627  12.734  14.278
17178W        W89504   1.986  24.510   2.321
17179W        W89505  37.846  41.213   0.278
17180W        W89506  10.448  37.998  12.443
17181W        W89507  34.368  44.491  14.084
17182W        W89508  17.834  16.774   2.275
17183W        W89509  38.915  33.607   4.142
17184W        W89510  42.180  16.020  14.393
17185W        W89511  13.993  17.791   2.813
17186W        W89512   0.476   0.175  11.271
17187W        W89513  16.018  17.047   0.051
17188W        W89514  43.271   8.362   0.801
17189W        W89515  39.997  38.880   0.153
17190W        W89516   3.755   0.942  13.019
17191W        W89517  16.521  19.697  12.949
17192W        W89518  44.748  28.566  12.851
17193W        W89519   7.581  22.084   0.562
17194W        W89520  16.343  14.537   3.255
17195W        W89521  29.436   7.079  11.442
17196W        W89522   6.422  43.561  10.994
17197W        W89523  13.455   2.879   4.884
17198W        W89524  16.824   3.056   2.365
17199W        W89525   4.768   7.749  14.369
17200W        W89526  33.904  31.406  13.636
17201W        W89527  44.961  41.886  13.434
17202W        W89528  25.112  10.383   1.278
17203W        W89529   5.398  26.154   3.281
17204W        W89530  31.399   2.304   4.760
17205W        W89531  29.688  25.624   1.307
17206W        W89532  38.467  14.858   1.432
17207W        W89533  43.901  40.272  14.924
17208W        W89534  22.237  17.136   0.810
17209W        W89535  43.750  10.391  14.459
17210W        W89536  27.931  32.385  12.658
17211W        W89537  44.427  40.811  10.704
17212W        W89538   6.167  23.799   2.262
17213W        W89539   1.461   0.085   3.372
17214W        W89540   9.395  21.227   3.131
17215W        W89541  28.985   0.119   3.845
17216W        W89542  39.119  28.142   0.651
17217W        W89543  37.516  16.820  10.633
17218W        W89544   4.844  32.142   0.261
17219W        W89545  13.857  26.706  12.509
17220W        W89546   0.806  29.917  14.833
17221W        W89547  29.394  41.823   4.993
17222W        W89548  17.974  30.865  11.990
17223W        W89549  31.059  24.943   1.373
17224W        W89550   6.781  44.968  13.395
17225W        W89551   9.583   7.208  14.908
17226W        W89552  25.774  22.732   1.187
17227W        W89553  21.580  34.613  11.091
17228W        W89554  38.021  18.999  10.977
17229W        W89555  40.872  44.903   3.922
17230W        W89556   6.196  22.465  12.083
17231W        W89557  24.163  17.595   2.006
17232W        W89558   7.712  27.946  12.873
17233W        W89559   0.985  21.136  11.995
17234W        W89560   8.189  12.242  14.053
17235W        W89561  21.791  33.535   4.161
17236W        W89562  12.788   2.163   4.241
17237W        W89563   1.431  34.416   3.899
17238W        W89564  15.182  12.630  13.364
17239W        W89565  20.311   7.257   4.956
17240W        W89566  22.992  26.277   2.157
17241W        W89567  23.370  34.205   4.919
17242W        W89568  15.698  36.399   0.045
17243W        W89569  21.639  34.036   2.189
17244W        W89570  42.950  31.162  14.001
17245W        W89571  40.752  39.441   2.285
17246W        W89572  19.562  25.076   4.605
17247W        W89573  39.597  11.601  14.373
17248W        W89574   2.778   2.260   3.723
17249W        W89575  22.282   3.331  14.377
17250W        W89576  37.812  33.392  12.020
17251W        W89577  17.264  16.274   3.728
17252W        W89578  35.431  30.625   0.019
17253W        W89579  39.247  36.155  11.362
17254W        W89580  24.073  39.859   0.266
17255W        W89581   5.212   7.455  14.847
17256W        W89582  19.726  38.273  14.851
17257W        W89583  41.089  12.492  14.005
17258W        W89584  37.343  32.128  14.077
17259W        W89585  14.570   5.674   1.449
17260W        W89586   4.908  39.315  10.735
17261W        W89587   0.848  40.760   2.745
17262W        W89588   7.833   6.458   3.949
17263W        W89589  24.771  15.836   2.233
17264W        W89590  12.874  32.140  10.692
17265W        W89591   3.796  33.402   1.319
17266W        W89592  21.073  19.505   1.052
17267W        W89593   3.817  39.471   4.654
17268W        W89594  12.879   8.716  11.015
17269W        W89595  28.223  17.169   2.711
17270W        W89596  12.864  16.606  13.429
17271W        W89597   0.746  26.488  11.740
17272W        W89598  21.013  13.335  13.047
17273W        W89599   6.892  32.032  10.465
17274W        W89600  30.633  27.744   1.697
17275W        W89601  19.598  16.115  10.799
17276W        W89602  33.989  32.383  13.303
17277W        W89603  20.279  43.402   0.939
17278W        W89604  25.621  37.443   2.266
17279W        W89605  22.533   8.535   3.097
17280W        W89606  43.607  15.623  12.446
17281W        W89607  29.443  23.022   1.650
17282W        W89608  44.514  43.717  11.224
17283W        W89609  32.997   1.117  14.332
17284W        W89610  41.624  24.675  14.855
17285W        W89611  10.802  20.894  11.567
17286W        W89612  24.252   5.173  13.527
17287W        W89613  10.599  23.233   3.648
17288W        W89614  12.721  17.794  14.084
17289W        W89615  12.356  42.985   0.326
17290W        W89616  13.215   1.307   2.349
17291W        W89617   9.323  25.551  13.585
17292W        W89618   4.686  37.925  14.165
17293W        W89619  15.295  26.024   1.645
17294W        W89620  29.905  34.927   2.506
17295W        W89621  27.202  42.987   3.316
17296W        W89622  11.252  32.948  11.984
17297W        W89623  34.169  17.641   4.222
17298W        W89624   7.425  44.071  14.088
17299W        W89625  21.304  17.794   3.305
17300W        W89626  15.708  34.544   4.843
17301W        W89627   9.930   5.203  14.373
17302W        W89628  17.172  24.734  14.454
17303W        W89629  24.940  14.520   4.074
17304W        W89630  11.545  23.084  12.467
17305W        W89631  42.730  22.961   1.608
17306W        W89632  23.236  14.408   5.329
17307W        W89633   9.180  11.270  11.128
17308W        W89634  24.180   5.880  11.418
17309W        W89635   3.860  38.922  10.091
17310W        W89636   8.644  40.453  13.930
17311W        W89637   4.440   3.416   3.856
17312W        W89638  24.052  42.308  14.832
17313W        W89639  43.228   6.350  12.255
17314W        W89640  15.219  12.612   0.418
17315W        W89641  12.756   7.702   1.310
17316W        W89642  27.442  36.310   0.745
17317W        W89643  29.196  44.107  10.846
17318W        W89644  22.395  14.211   2.782
17319W        W89645  19.814  13.240   0.027
17320W        W89646   3.335  34.691  11.117
17321W        W89647  10.365  10.410   2.805
17322W        W89648  10.988  24.462   0.899
17323W        W89649  33.857   1.941  12.035
17324W        W89650  33.218  31.745  10.410
17325W        W89651  44.434  17.063   0.509
17326W        W89652  22.508  24.498  13.321
17327W        W89653  43.008  26.890   3.825
17328W        W89654  28.822  15.144   2.243
17329W        W89655   2.942  18.165  11.237
17330W        W89656  13.583   0.909   1.349
17331W        W89657  41.565  36.427   0.181
17332W        W89658  28.127   1.947  10.808
17333W        W89659  15.115   6.713   0.554
17334W        W89660  40.856  38.408  12.315
17335W        W89661  16.647  41.453   1.313
17336W        W89662  32.097  24.505  14.961
17337W        W89663  36.427   1.854  10.326
17338W        W89664  39.346  22.101   2.278
17339W        W89665  24.972  42.320  11.920
17340W        W89666  27.162  42.221  14.575
17341W        W89667  22.884  27.755   4.049
17342W        W89668  37.612  21.235   1.164
17343W        W89669  10.793  43.388   1.087
17344W        W89670  19.634  43.729   4.210
17345W        W89671  24.745  38.995   4.218
17346W        W89672   9.265   0.717   1.898
17347W        W89673  44.342  28.230   4.450
17348W        W89674  12.599  37.783  14.325
17349W        W89675  10.440  38.571  11.643
17350W        W89676  16.816  43.009  12.862
17351W        W89677  44.371  20.625   2.453
17352W        W89678  22.032  29.212  14.743
17353W        W89679  33.614  27.897   3.650
17354W        W89680  10.413  16.130   3.407
17355W        W89681  39.060  15.611  13.523
17356W        W89682   9.945  40.804   2.252
17357W        W89683   2.755  33.538  14.068
17358W        W89684  38.316  30.108   0.028
17359W        W89685  24.344  38.869  10.146
17360W        W89686  36.973  17.117   3.375
17361W        W89687  27.142  44.344  11.879
17362W        W89688  16.626  24.177   2.968
17363W        W89689  15.302   4.773   0.321
17364W        W89690  28.976  20.503   2.752
17365W        W89691   0.189  31.106  10.745
17366W        W89692  15.188  25.077  14.074
17367W        W89693  16.235  26.536  11.594
17368W        W89694   5.490  15.421  14.129
17369W        W89695   8.405  43.305  11.533
17370W        W89696  42.469  32.711  13.289
17371W        W89697  34.564   7.679   1.030
17372W        W89698  15.022  14.213   1.871
17373W        W89699   8.608  14.638  14.771
17374W        W89700  21.978  39.516  10.491
17375W        W89701  34.020  24.543   2.327
17376W        W89702  24.430  42.411   0.655
17377W        W89703   1.194  41.514   2.349
17378W        W89704   8.624   5.577   3.617
17379W        W89705  29.386  17.591   0.877
17380W        W89706  43.581  24.937   4.915
17381W        W89707  22.723  42.075   2.137
17382W        W89708   6.126  17.895   5.066
17383W        W89709  34.520  16.293   4.162
17384W        W89710  34.836  10.229   3.206
17385W        W89711  21.726  26.779   3.750
17386W        W89712  30.057  14.905  12.046
17387W        W89713  13.699  43.739   3.399
17388W        W89714  37.907  39.882  14.587
17389W        W89715   7.460   2.284  11.315
17390W        W89716  44.007  28.609  10.444
17391W        W89717  18.305  38.522  12.339
17392W        W89718  10.690  40.583   0.843
17393W        W89719  20.000   5.327  14.840
17394W        W89720  15.222  33.047   2.353
17395W        W89721  43.757  18.196   2.242
17396W        W89722   2.058  25.605  14.312
17397W        W89723  41.385  24.235   2.782
17398W        W89724  40.447   0.937   4.832
17399W        W89725  24.565   6.147  13.909
17400W        W89726   9.850  39.387   1.387
17401W        W89727  25.912  34.723  12.032
17402W        W89728  34.977  15.697   2.443
17403W        W89729  12.151  28.933  13.454
17404W        W89730   2.428  17.101   3.081
17405W        W89731  16.029  41.587   1.929
17406W        W89732  35.128  43.779  13.963
17407W        W89733  13.342  13.764   2.120
17408W        W89734   0.359  28.412   3.915
17409W        W89735  18.289   9.177  14.900
17410W        W89736  23.030  37.420  11.005
17411W        W89737  22.594   7.350  12.585
17412W        W89738   3.262  32.862  12.982
17413W        W89739   7.887  26.670  10.066
17414W        W89740  43.160  31.595   0.480
17415W        W89741  33.538  19.191  14.041
17416W        W89742  13.615  12.802  14.783
17417W        W89743   9.140  20.981  14.332
17418W        W89744  13.899  18.576   2.277
17419W        W89745  24.139  17.854   0.233
17420W        W89746  29.015   0.036  14.845
17421W        W89747  42.313  41.401   1.451
17422W        W89748  29.109  42.121   2.201
17423W        W89749  12.715  40.497   2.453
17424W        W89750   6.403  12.641  11.959
17425W        W89751  10.634  40.959   0.010
17426W        W89752  12.165  19.319   1.423
17427W        W89753  33.706  37.360   1.902
17428W        W89754  23.119  12.072  12.053
17429W        W89755   9.775  12.810  10.698
17430W        W89756  24.386  32.784   2.683
17431W        W89757  14.728  19.343  11.502
17432W        W89758  13.171  37.283   3.335
17433W        W89759   3.376  20.065   4.142
17434W        W89760   9.811  40.723  14.469
17435W        W89761   0.637   5.445  11.690
17436W        W89762  10.084  28.675   4.697
17437W        W89763  21.262  43.532  11.994
17438W        W89764  14.411  41.265  11.640
17439W        W89765  26.907  30.381   1.541
17440W        W89766   4.454  10.244  11.198
17441W        W89767  30.778  35.084  13.922
17442W        W89768   3.273   1.536  13.528
17443W        W89769  20.308  16.249  13.784
17444W        W89770  27.986   0.782   1.805
17445W        W89771  12.907  42.950  10.905
17446W        W89772  40.504  44.297   1.770
17447W        W89773   5.273  36.359  11.598
17448W        W89774  14.238   3.403   3.745
17449W        W89775  31.438   0.418   0.823
17450W        W89776  11.300  27.886  14.869
17451W        W89777  18.400   4.257   3.220
17452W        W89778  18.990   3.591   4.716
17453W        W89779  36.723  35.071   2.785
17454W        W89780  35.145   0.907  10.554
17455W        W89781   3.759  23.911   2.305
17456W        W89782   2.622  38.456   0.812
17457W        W89783  14.565  42.272   0.404
17458W        W89784  25.307   2.903  10.626
17459W        W89785   5.380  35.620   1.904
17460W        W89786  41.853  39.289  11.211
17461W        W89787  26.074  31.978  10.618
17462W        W89788  40.313   9.307   4.305
17463W        W89789   0.044  10.307  13.339
17464W        W89790  33.328  44.242  10.726
17465W        W89791  30.059   0.221   1.773
17466W        W89792  20.326  36.366   3.298
17467W        W89793   0.439  14.679  14.712
17468W        W89794  37.568   0.780   0.410
17469W        W89795  20.565  35.910  13.897
17470W        W89796  18.862  41.506   2.318
17471W        W89797  22.024  41.887   0.813
17472W        W89798  11.578   1.236  11.091
17473W        W89799  17.632   3.619   2.679
17474W        W89800   7.940  14.524  13.588
17475W        W89801  18.010  21.304  12.762
17476W        W89802  16.296  43.049  12.886
17477W        W89803  21.541  16.161  13.982
17478W        W89804  44.234   1.985   9.730
17479W        W89805   0.208   7.948   1.402
17480W        W89806  21.305   4.149   4.654
17481W        W89807  13.201  30.838  14.034
17482W        W89808   0.283   8.681  10.684
17483W        W89809  31.146  25.383   2.754
17484W        W89810  25.855  31.093   2.212
17485W        W89811  20.797  13.283  12.532
17486W        W89812  17.642  32.204   0.888
17487W        W89813  11.556   6.532   0.358
17488W        W89814   3.317  17.543  10.560
17489W        W89815  18.426  10.009  14.902
17490W        W89816  39.673  42.499   0.393
17491W        W89817  22.214  22.550   1.331
17492W        W89818  14.830  22.512  11.230
17493W        W89819  40.835   5.398   2.708
17494W        W89820   2.891  41.880   3.790
17495W        W89821  43.943  17.407  10.920
17496W        W89822  21.897  23.389   1.484
17497W        W89823  18.843  11.186  13.452
17498W        W89824  24.790   2.469  12.056
17499W        W89825  35.794  31.211   4.006
17500W        W89826  43.345  42.859   0.565
17501W        W89827  30.590  17.524  12.778
17502W        W89828   6.432  16.851   2.296
17503W        W89829  42.284  40.887  11.134
17504W        W89830  22.221   4.293  14.451
17505W        W89831  18.309  44.938  14.867
17506W        W89832  33.741  22.673  13.100
17507W        W89833  23.805   5.781  10.619
17508W        W89834  22.660  27.787   1.363
17509W        W89835  18.076  43.554   4.481
17510W        W89836  44.364  41.780   0.972
17511W        W89837   0.731   3.349  13.892
17512W        W89838  30.345  40.501  12.457
17513W        W89839  34.943  43.994   1.826
17514W        W89840  19.179  20.212  13.068
17515W        W89841  22.734   0.098  13.973
17516W        W89842  30.008  44.396  12.106
17517W        W89843  29.435  39.911   3.794
17518W        W89844  40.840  37.410   2.885
17519W        W89845  16.165  19.272  13.273
17520W        W89846  34.146   7.178  14.249
17521W        W89847  30.224  17.292  14.879
17522W        W89848  12.549  37.530   4.567
17523W        W89849   6.820  35.478  13.348
17524W        W89850  44.584  33.228  11.509
17525W        W89851  29.454  32.283  13.867
17526W        W89852  18.649  23.229   1.428
17527W        W89853  21.924  25.026  13.082
17528W        W89854  20.881  26.034   1.737
17529W        W89855  17.915   4.336   3.057
17530W        W89856  12.768   4.746   3.181
17531W        W89857  34.417  42.767  13.414
17532W        W89858  40.624  29.523   2.781
17533W        W89859  29.318   4.176  11.072
17534W        W89860  12.947  12.650  10.522
17535W        W89861  35.825  36.573  13.885
17536W        W89862   9.699  36.860  12.441
17537W        W89863  28.453  18.537   0.194
17538W        W89864  23.972  13.251  11.046
17539W        W89865   5.315  44.085   2.804
17540W        W89866  34.380  17.686  12.362
17541W        W89867  13.022   3.392  11.639
17542W        W89868  26.335  12.232   4.059
17543W        W89869  35.091   1.776   2.876
17544W        W89870  17.701  40.693   3.864
17545W        W89871  11.325  25.611  10.614
17546W        W89872  19.624  12.296   2.206
17547W        W89873  44.982   8.774   0.445
17548W        W89874  40.919  24.403   0.268
17549W        W89875  15.687  23.626   0.698
17550W        W89876  27.931  26.448   3.677
17551W        W89877  24.177  18.180  10.496
17552W        W89878  36.347  15.605  14.368
17553W        W89879  24.964  15.560   1.826
17554W        W89880  24.789  43.456  13.032
17555W        W89881  33.118   7.762  13.451
17556W        W89882  35.516   1.618  11.955
17557W        W89883  34.696   1.382   3.716
17558W        W89884  35.473  19.017   0.323
17559W        W89885   8.174  11.301  13.450
17560W        W89886  17.626   6.849   2.901
17561W        W89887  37.777  24.593   4.563
17562W        W89888  42.164  21.143   3.157
17563W        W89889  20.317  17.724  14.600
17564W        W89890  32.437  15.263   1.604
17565W        W89891   7.951  13.635  11.499
17566W        W89892  22.593  34.953  14.803
17567W        W89893   2.645  15.100  13.766
17568W        W89894  31.919   5.076  11.050
17569W        W89895   6.306  41.751   3.066
17570W        W89896  41.120   9.052   3.982
17571W        W89897  26.658  44.435  12.502
17572W        W89898   7.803  35.714   1.009
17573W        W89899  10.905  22.500   3.314
17574W        W89900  12.406  33.982  14.495
17575W        W89901  38.578   0.997  12.849
17576W        W89902  28.839   0.516   4.612
17577W        W89903   0.276  34.835   0.807
17578W        W89904  25.701  35.521  12.345
17579W        W89905  10.117  38.733   3.048
17580W        W89906  16.600  13.588  13.466
17581W        W89907  13.065  33.473   2.180
17582W        W89908  22.621  19.105  10.520
17583W        W89909  10.823  24.185  14.021
17584W        W89910  14.679  11.170   2.646
17585W        W89911  20.166   5.326  11.159
17586W        W89912  14.842  17.137  10.388
17587W        W89913  20.613   1.491  11.524
17588W        W89914  32.926  36.097   4.756
17589W        W89915   1.174   5.797  14.530
17590W        W89916  27.172  29.378  13.012
17591W        W89917  10.937  40.703   1.941
17592W        W89918  10.716  12.115   4.729
17593W        W89919  36.351  32.502   4.974
17594W        W89920  32.066   8.415   1.145
17595W        W89921  24.025  21.145   4.118
17596W        W89922  25.218  27.191   4.203
17597W        W89923  38.800  43.878   3.137
17598W        W89924  34.882  30.116   2.292
17599W        W89925  35.658  32.537  14.001
17600W        W89926  40.740  23.158  11.253
17601W        W89927   7.417  27.141  12.562
17602W        W89928  31.914  20.627   1.652
17603W        W89929  28.692  41.758  13.998
17604W        W89930  15.638   4.731  12.589
17605W        W89931  26.576  13.825  13.090
17606W        W89932  38.515  27.570  12.174
17607W        W89933   0.066  28.709  13.495
17608W        W89934  41.607  20.636   1.482
17609W        W89935  25.887   5.845   4.238
17610W        W89936  39.065   5.869   3.052
17611W        W89937  41.092  39.032   2.277
17612W        W89938  10.390  11.473  14.741
17613W        W89939  17.015  12.418  11.637
17614W        W89940  12.121  29.737  13.863
17615W        W89941  40.282   1.534   3.056
17616W        W89942   6.130   1.729   3.268
17617W        W89943  32.704  32.155  12.068
17618W        W89944  24.270  30.125  12.895
17619W        W89945  11.506  34.219  14.018
17620W        W89946  16.210  35.577  14.394
17621W        W89947  14.688  38.012   4.304
17622W        W89948  24.101   2.188   0.189
17623W        W89949   9.536   1.971   0.014
17624W        W89950   2.686  12.802  12.944
17625W        W89951  16.254  39.263   1.859
17626W        W89952  33.633  19.282   4.125
17627W        W89953  15.257  43.185  13.473
17628W        W89954  27.673  39.401  11.064
17629W        W89955  42.728  29.585   2.267
17630W        W89956   8.011  17.561  13.493
17631W        W89957  38.454  21.028   0.653
17632W        W89958  22.504  13.169  10.663
17633W        W89959  40.244   5.458  11.173
17634W        W89960   7.106  32.416   3.181
17635W        W89961   3.530  40.977   3.199
17636W        W89962  19.297   9.712  12.887
17637W        W89963  17.616  25.144  13.539
17638W        W89964  33.523  37.095  14.000
17639W        W89965  32.956   1.937  12.145
17640W        W89966  14.682  22.721  14.730
17641W        W89967  12.233  14.022  13.861
17642W        W89968  29.179  24.594  11.485
17643W        W89969  21.245  17.604  10.893
17644W        W89970   5.674  37.624   0.790
17645W        W89971  27.738  43.112  11.140
17646W        W89972  15.032  25.532  11.791
17647W        W89973  10.173  31.371   4.838
17648W        W89974  35.625  18.644   3.795
17649W        W89975  15.768  34.509   2.766
17650W        W89976  29.409  38.829   1.753
17651W        W89977  12.088  39.268   3.344
17652W        W89978  43.897  30.733  13.485
17653W        W89979   4.275  19.749  11.660
17654W        W89980  15.901  13.278  14.018
17655W        W89981  14.815  12.805  13.869
17656W        W89982   2.190  26.211   2.794
17657W        W89983  41.221   2.764  10.720
17658W        W89984   0.072  21.813   2.445
17659W        W89985  14.774  26.967  14.331
17660W        W89986   3.481  36.589  14.748
17661W        W89987  24.552  32.403   0.525
17662W        W89988  35.901  38.981  14.703
17663W        W89989  22.892  31.948   1.423
17664W        W89990  32.783   9.614   3.112
17665W        W89991   5.446  19.293  11.596
17666W        W89992  38.442  37.053  11.457
17667W        W89993  11.340  33.164  11.510
17668W        W89994  11.140  29.872  11.101
17669W        W89995   3.398  31.657   3.751
17670W        W89996  16.758   9.087   3.372
17671W        W89997  35.476  29.554  11.542
17672W        W89998   2.816  38.946   0.774
17673W        W89999  32.342  34.966   3.693
17674W        W90000  44.917  23.467  11.959
17675W        W90001  12.509  32.456   1.750
17676W        W90002  12.228  15.840   2.198
17677W        W90003  29.964  27.439   2.542
17678W        W90004  39.047  12.934   5.161
17679W        W90005  12.581  31.416   0.821
17680W        W90006  22.848  38.284   2.287
17681W        W90007  12.258   1.533   3.086
17682W        W90008  35.562  42.793   3.292
17683W        W90009   9.807  33.011   3.043
17684W        W90010  44.080  11.098  10.318
17685W        W90011  36.148  33.092  13.277
17686W        W90012  43.851  39.536   3.637
17687W        W90013  29.027   4.976  11.222
17688W        W90014  29.345  36.704   0.302
17689W        W90015  13.283  21.243  13.965
17690W        W90016  42.454  22.256  13.417
17691W        W90017  39.344   4.826  11.927
17692W        W90018  16.237   2.330  12.480
17693W        W90019   5.956   1.059   2.913
17694W        W90020  14.384  14.738   3.122
17695W        W90021  44.980  22.428  14.576
17696W        W90022   4.320   5.746  11.523
17697W        W90023   5.182  33.361  11.268
17698W        W90024  25.687  43.094  14.432
17699W        W90025  15.562  30.108  14.319
17700W        W90026  29.258  16.711   3.239
17701W        W90027   5.184   2.227  13.389
17702W        W90028  35.024  24.529   2.395
17703W        W90029  14.723  15.780  12.944
17704W        W90030   2.810  32.034   0.393
17705W        W90031   5.970  43.563   2.268
17706W        W90032   3.692  26.596  12.564
17707W        W90033  36.868  41.240  12.607
17708W        W90034   8.860  27.916   3.748
17709W        W90035  38.479  33.363  12.153
17710W        W90036   5.765  39.565  14.503
17711W        W90037  29.254   5.481  11.161
17712W        W90038  13.654  24.382   9.910
17713W        W90039  28.959  13.603  14.195
17714W        W90040  41.278   1.045  11.964
17715W        W90041   3.367  19.223   4.658
17716W        W90042   6.381  42.770  11.177
17717W        W90043   9.815  42.525   4.104
17718W        W90044   2.183  26.116  14.333
17719W        W90045  21.175  29.408  12.965
17720W        W90046   6.970  31.985  12.845
17721W        W90047   4.967  30.936   2.663
17722W        W90048  25.673  34.455   3.685
17723W        W90049  13.620  35.416   3.971
17724W        W90050  18.307  24.292  13.459
17725W        W90051  28.867  28.682  12.371
17726W        W90052  40.363  32.588   0.762
17727W        W90053   1.284  18.227   3.907
17728W        W90054   8.776  33.095   0.322
17729W        W90055  28.143   7.051  12.950
17730W        W90056  20.723  13.228  13.474
17731W        W90057  13.533  17.668  10.648
17732W        W90058  29.136  14.756  13.925
17733W        W90059  19.037  15.561   2.664
17734W        W90060  28.923  44.322   4.653
17735W        W90061   1.744   6.951   0.356
17736W        W90062  10.015  31.585  13.470
17737W        W90063  33.192   6.774  10.506
17738W        W90064   2.891  33.079   1.998
17739W        W90065  25.056  35.411  10.670
17740W        W90066   2.871  33.592   2.396
17741W        W90067  23.828  43.515  12.108
17742W        W90068  25.872  24.507  13.131
17743W        W90069  32.692  26.604  10.981
17744W        W90070  29.585  26.637   5.498
17745W        W90071  24.537  13.367   4.627
17746W        W90072  19.964  43.428  11.026
17747W        W90073  18.671  27.656   2.335
17748W        W90074   1.288  10.906   3.831
17749W        W90075   2.778  17.638  10.660
17750W        W90076  23.965   0.523   4.330
17751W        W90077   4.363   9.167   2.585
17752W        W90078  10.000   6.935   1.408
17753W        W90079  25.922  30.421  12.517
17754W        W90080  25.135  38.013   0.704
17755W        W90081  24.527  34.076  10.588
17756W        W90082   6.836  35.476   2.581
17757W        W90083  18.238  26.061   3.967
17758W        W90084  11.269   1.949  12.026
17759W        W90085  43.731  26.151  14.373
17760W        W90086  35.603  22.437   1.186
17761W        W90087  27.948  27.049  10.354
17762W        W90088  38.340   1.827  11.369
17763W        W90089   0.475   5.272   2.446
17764W        W90090  27.786  14.357  10.732
17765W        W90091  37.536  44.306   0.044
17766W        W90092  35.452  39.876   2.295
17767W        W90093   5.184  29.248  13.357
17768W        W90094  36.761  32.348   0.092
17769W        W90095   2.892  33.677   5.138
17770W        W90096  41.799  21.503   3.212
17771W        W90097  28.965  27.449  13.493
17772W        W90098  25.514  34.404  12.104
17773W        W90099  29.436  25.575   3.398
17774W        W90100  34.163   4.312  12.339
17775W        W90101  19.867   8.661   3.172
17776W        W90102  26.727  21.630   2.163
17777W        W90103  12.660  15.794   4.613
17778W        W90104  36.562  33.413   4.551
17779W        W90105  26.654  30.111   4.001
17780W        W90106   6.716  29.865  12.494
17781W        W90107  32.500   7.178   1.186
17782W        W90108  21.044  42.994   3.964
17783W        W90109  41.457   9.102  14.275
17784W        W90110  22.877  13.219  12.611
17785W        W90111  19.421  14.755  14.590
17786W        W90112  14.899  40.298  14.783
17787W        W90113  34.511  29.213  13.947
17788W        W90114  37.850  22.534   4.637
17789W        W90115  18.054  15.167  13.200
17790W        W90116   5.826  10.751  11.083
17791W        W90117   6.775  29.776   4.961
17792W        W90118  14.740  22.567   2.791
17793W        W90119   9.569  39.449   2.400
17794W        W90120  26.864  21.162  14.403
17795W        W90121   5.466  19.588   2.174
17796W        W90122  25.424  21.623   1.313
17797W        W90123  42.401   8.284  13.774
17798W        W90124  12.563  29.428  11.148
17799W        W90125  22.146   6.932   3.791
17800W        W90126  13.143  24.710   2.221
17801W        W90127   9.710  41.340  12.542
17802W        W90128  34.386  10.448  14.630
17803W        W90129   3.691   5.724  10.503
17804W        W90130  18.816   2.879   0.813
17805W        W90131  27.222   7.870   2.290
17806W        W90132   0.325  35.111  14.040
17807W        W90133  12.301  38.047   2.772
17808W        W90134  43.022   9.454  13.433
17809W        W90135  24.717  29.445   1.957
17810W        W90136  16.077  39.320  14.576
17811W        W90137  42.601   2.276  12.043
17812W        W90138   9.866  20.154   2.242
17813W        W90139  19.079  16.186   0.833
17814W        W90140  44.688  22.181   2.420
17815W        W90141  12.155  15.954   4.539
17816W        W90142   9.168  38.734  13.850
17817W        W90143  19.942   3.193  13.409
17818W        W90144  37.373  27.951   1.380
17819W        W90145   1.844  12.076   1.428
17820W        W90146  29.973  43.500  13.401
17821W        W90147   9.810  23.212  12.789
17822W        W90148   7.648  22.183  13.259
17823W        W90149  44.272   3.795  10.544
17824W        W90150  38.527  15.090   0.963
17825W        W90151  40.562  12.018   1.127
17826W        W90152  23.663   4.148   4.275
17827W        W90153   5.212  16.710  11.373
17828W        W90154  33.757  20.498  13.635
17829W        W90155   0.274  38.788   2.895
17830W        W90156  41.954   9.361  12.911
17831W        W90157  35.277  14.942   4.500
17832W        W90158  14.722  14.539  13.364
17833W        W90159  10.179  32.395  10.500
17834W        W90160   1.250  34.647  11.125
17835W        W90161  35.895  26.251  13.952
17836W        W90162  34.033  12.136  11.619
17837W        W90163  21.481  12.883  11.063
17838W        W90164  26.670   1.415   4.738
17839W        W90165  14.130   3.358   0.731
17840W        W90166  42.467   0.240  10.739
17841W        W90167  27.529  10.190   4.145
17842W        W90168   4.053  23.434   5.459
17843W        W90169  12.733  44.983   2.068
17844W        W90170  10.889   7.370  12.863
17845W        W90171  36.280  39.884   0.059
17846W        W90172  44.333  41.249  13.015
17847W        W90173  27.704  12.877   1.902
17848W        W90174   1.180  28.819   3.520
17849W        W90175   6.785   3.428  12.419
17850W        W90176  35.345   1.332  10.782
17851W        W90177  11.617  43.502   2.179
17852W        W90178   6.453  23.540  10.595
17853W        W90179  14.533  23.441   2.724
17854W        W90180  16.338  25.109   4.696
17855W        W90181   4.756  35.226  11.938
17856W        W90182  36.360  18.209  11.037
17857W        W90183  43.322  31.447  14.198
17858W        W90184  41.276   6.778  14.313
17859W        W90185  12.877  24.972   5.042
17860W        W90186  41.985  43.776   2.816
17861W        W90187  16.275  33.213  12.113
17862W        W90188  32.031   4.675  14.383
17863W        W90189  33.887  43.442   3.233
17864W        W90190  17.706  13.705   0.631
17865W        W90191  39.958  22.310   3.961
17866W        W90192   6.924  14.759  13.495
17867W        W90193   5.914  26.455   0.951
17868W        W90194  35.029  30.301   3.711
17869W        W90195  21.154  15.840   0.466
17870W        W90196  27.086  25.657   2.202
17871W        W90197   7.627  26.845   4.092
17872W        W90198  36.398  33.870   0.585
17873W        W90199  40.411  14.302  12.929
17874W        W90200   8.623  22.658  10.634
17875W        W90201  30.934   6.925  11.105
17876W        W90202  32.826   0.734  14.796
17877W        W90203  25.132  30.108  11.205
17878W        W90204  38.514   0.279   2.379
17879W        W90205  13.866  41.380  12.576
17880W        W90206  21.452  38.866  14.736
17881W        W90207  40.485  32.083  12.766
17882W        W90208  13.395  12.946  12.765
17883W        W90209  39.537  22.883  14.983
17884W        W90210  38.152   8.209  11.888
17885W        W90211  14.581  16.676   0.829
17886W        W90212  36.522   5.313   3.202
17887W        W90213  16.823  38.727   2.349
17888W        W90214   8.333  37.056   4.518
17889W        W90215  19.398  29.847  13.590
17890W        W90216  23.253  15.637   4.209
17891W        W90217  28.115  11.374  14.072
17892W        W90218  33.970  12.464  14.451
17893W        W90219  39.644  30.513  11.474
17894W        W90220  18.423  20.627   3.769
17895W        W90221  36.403  10.275  12.764
17896W        W90222  30.168  17.340   1.722
17897W        W90223   6.700  26.565   1.430
17898W        W90224   1.232  38.008   3.748
17899W        W90225  14.744   8.706  14.336
17900W        W90226   2.471   3.941   0.336
17901W        W90227  20.642   0.203  13.867
17902W        W90228  11.604  36.394   3.838
17903W        W90229  36.418  32.549   3.674
17904W        W90230  37.854  15.222   4.563
17905W        W90231  37.344  28.346  10.995
17906W        W90232  31.920   8.170   2.696
17907W        W90233  27.422  11.318  11.291
17908W        W90234  34.910  26.348   1.809
17909W        W90235   3.404  30.231   0.863
17910W        W90236  19.647  39.505   4.652
17911W        W90237  29.643  31.549  14.510
17912W        W90238  36.661  37.984  14.444
17913W        W90239  44.264  31.136   4.190
17914W        W90240  12.013  34.488  10.143
17915W        W90241  20.258  26.228  10.527
17916W        W90242  15.082   0.262  11.048
17917W        W90243  11.615  12.694  14.929
17918W        W90244  12.470   3.902   4.081
17919W        W90245   1.506  24.946   1.828
17920W        W90246  34.851  30.901   1.855
17921W        W90247  25.526   2.151   1.651
17922W        W90248  42.530   9.898  12.207
17923W        W90249  33.395  21.856  11.735
17924W        W90250  26.429  32.492  13.346
17925W        W90251   4.770  44.993  12.919
17926W        W90252  40.083  17.193   1.732
17927W        W90253  13.178  10.719  14.470
17928W        W90254  14.213  18.742  11.152
17929W        W90255  29.775  10.863   4.319
17930W        W90256  21.991   2.389  10.556
17931W        W90257   8.736  44.300   4.632
17932W        W90258  28.202  21.850   9.983
17933W        W90259   2.975  43.432  13.847
17934W        W90260   8.864  21.666   0.657
17935W        W90261  41.546  18.057  13.801
17936W        W90262  28.577  40.676  13.826
17937W        W90263  25.485  15.175   3.296
17938W        W90264  35.199  40.454  12.940
17939W        W90265  31.424  24.648   2.399
17940W        W90266  31.671  31.637   3.838
17941W        W90267   1.825  36.863  11.514
17942W        W90268   9.886  15.356  14.819
17943W        W90269  17.684  35.073   0.284
17944W        W90270   8.378  23.088  11.590
17945W        W90271  43.783   5.800   1.197
17946W        W90272  37.453  10.437  13.914
17947W        W90273  16.802  20.864  12.497
17948W        W90274  39.677  38.600  11.461
17949W        W90275  44.858   6.733   4.924
17950W        W90276  37.298   1.048  12.016
17951W        W90277  38.017  25.259   0.686
17952W        W90278  41.294   2.823  14.932
17953W        W90279  36.354  16.307   2.672
17954W        W90280  25.309  13.688   1.767
17955W        W90281  38.288  41.010  13.511
17956W        W90282  30.595  21.032  10.807
17957W        W90283   7.672   8.320   3.745
17958W        W90284  23.744  20.318   1.781
17959W        W90285  42.290  36.998   0.278
17960W        W90286  26.128  13.389   4.931
17961W        W90287   0.804  42.159  11.400
17962W        W90288  14.882   4.428  11.372
17963W        W90289  29.434   5.793  14.093
17964W        W90290   8.804  38.644   0.209
17965W        W90291  33.096  29.075  12.300
17966W        W90292   5.693  44.543   4.131
17967W        W90293  15.276  27.650  10.450
17968W        W90294  33.170   4.362  12.336
17969W        W90295  43.697   7.436  13.527
17970W        W90296  36.391  36.935  13.038
17971W        W90297  22.755   8.805  11.958
17972W        W90298   9.321  29.112   1.771
17973W        W90299  30.683  18.260   1.494
17974W        W90300  37.424  12.712  10.202
17975W        W90301  24.515  36.453  10.872
17976W        W90302  33.273  15.611   1.487
17977W        W90303  40.261   5.575   3.625
17978W        W90304   0.736   8.418  12.543
17979W        W90305  40.263  29.426   2.279
17980W        W90306  43.962  44.991  14.422
17981W        W90307  23.109  24.147   2.742
17982W        W90308  12.708  18.102   2.505
17983W        W90309  31.208  12.827   3.077
17984W        W90310   9.408  36.960  10.751
17985W        W90311  26.916  41.003   0.268
17986W        W90312   7.364  20.116  10.764
17987W        W90313  42.222  40.465  11.826
17988W        W90314  25.975  12.660   1.088
17989W        W90315  14.530  27.977   1.640
17990W        W90316  30.239  29.901   4.311
17991W        W90317   9.452  33.437   2.856
17992W        W90318  35.686  26.571  12.140
17993W        W90319  22.146  33.935   1.930
17994W        W90320  21.651  14.239  14.543
17995W        W90321  20.177  16.300  14.283
17996W        W90322  16.340  18.735  14.977
17997W        W90323  27.317  34.283   4.132
17998W        W90324   4.664  29.562   5.058
17999W        W90325  41.421  34.908   1.937
18000W        W90326  14.276  20.082  11.355
18001W        W90327  24.596  38.368  12.635
18002W        W90328  44.930  18.301   3.179
18003W        W90329  37.559   0.447  12.608
18004W        W90330  36.511  25.669   4.734
18005W        W90331  38.947  26.814   1.877
18006W        W90332   3.730  24.075   0.956
18007W        W90333   0.847  22.470  13.058
18008W        W90334  33.090  44.871  12.348
18009W        W90335  26.470  44.373   4.536
18010W        W90336   9.104  36.962  11.187
18011W        W90337  37.030  17.154   4.432
18012W        W90338   5.695   9.279  11.784
18013W        W90339  20.079  36.445  14.985
18014W        W90340   5.439   4.099  13.367
18015W        W90341   2.282  23.549   0.924
18016W        W90342  28.358   7.938  10.891
18017W        W90343   4.349   1.136   2.006
18018W        W90344  29.707  20.751  14.484
18019W        W90345   5.795  28.884  12.841
18020W        W90346  20.644  42.011  13.366
18021W        W90347  43.524  10.774  10.968
18022W        W90348  35.478  12.839  14.557
18023W        W90349   9.204  15.866   0.361
18024W        W90350  11.890  38.294   3.584
18025W        W90351  35.613  35.879   2.294
18026W        W90352   8.369  37.862   3.828
18027W        W90353  23.606  27.260   3.184
18028W        W90354   6.920  26.629   3.591
18029W        W90355   2.526   0.276   2.684
18030W        W90356   8.118  41.310  13.409
18031W        W90357   0.966  14.107   4.028
18032W        W90358  43.556  13.272   4.160
18033W        W90359   5.278   8.344   0.371
18034W        W90360  15.813  36.133   0.922
18035W        W90361   9.179  28.523  11.537
18036W        W90362  37.866  35.028   3.538
18037W        W90363  28.043  35.441  13.679
18038W        W90364   0.557  19.148  12.151
18039W        W90365   7.102  15.747  14.484
18040W        W90366  20.515  12.746  10.974
18041W        W90367  13.253   7.642  13.359
18042W        W90368  12.662  14.741  11.263
18043W        W90369  33.656  24.700  13.346
18044W        W90370  20.629   1.274   4.725
18045W        W90371  22.975  39.794  14.142
18046W        W90372  38.471  18.261   0.870
18047W        W90373  33.548  19.055   1.705
18048W        W90374  23.766  39.639   2.234
18049W        W90375  34.054  40.514  14.529
18050W        W90376  33.875  10.201   3.699
18051W        W90377   5.651  37.865  11.918
18052W        W90378  29.187  20.766   4.771
18053W        W90379  37.168   1.986  12.405
18054W        W90380  25.109  30.091  12.719
18055W        W90381   8.161   1.390  13.776
18056W        W90382  17.683  22.293   1.791
18057W        W90383   8.373  19.175  13.016
18058W        W90384  11.607  12.089   1.710
18059W        W90385  35.932  44.400   3.481
18060W        W90386  30.480  30.388  12.545
18061W        W90387  40.902  44.426  14.443
18062W        W90388  43.462  41.344  12.492
18063W        W90389  29.072   1.778   3.809
18064W        W90390  28.220  37.567   0.490
18065W        W90391  21.926  25.990  14.307
18066W        W90392   6.822   1.396  14.061
18067W        W90393  30.868  16.839   4.043
18068W        W90394  15.306   1.891   1.779
18069W        W90395   0.743  39.764   3.383
18070W        W90396   2.294   8.148   4.094
18071W        W90397  41.477  26.263  13.122
18072W        W90398  25.648  43.826  13.773
18073W        W90399   2.032  16.219  13.966
18074W        W90400  30.434  31.016   3.151
18075W        W90401  42.744   2.835  14.911
18076W        W90402  42.412  43.422   3.575
18077W        W90403  31.104   8.692  10.627
18078W        W90404  22.254  30.880   0.375
18079W        W90405   6.655  33.942  14.088
18080W        W90406  35.101  18.287   4.002
18081W        W90407   2.475  28.734   3.372
18082W        W90408  30.701  38.955  12.955
18083W        W90409  31.943  30.998  14.433
18084W        W90410  14.886   2.420   1.900
18085W        W90411  19.095  29.520  14.502
18086W        W90412  38.052  39.323   0.322
18087W        W90413   8.145  28.728  14.589
18088W        W90414  38.738  32.152  10.057
18089W        W90415  37.583  39.078   0.326
18090W        W90416  22.086  30.498  13.843
18091W        W90417  35.562  28.044  13.911
18092W        W90418  20.061  14.699  12.101
18093W        W90419  44.337  12.116   1.702
18094W        W90420  13.579  44.716   3.648
18095W        W90421  16.019  11.781   5.019
18096W        W90422  29.687  22.067   3.760
18097W        W90423   5.414  18.533  12.939
18098W        W90424   4.045   9.668   1.939
18099W        W90425  15.930   4.823   3.731
18100W        W90426  21.703  38.401   4.523
18101W        W90427  11.879  38.437   2.254
18102W        W90428   3.731   6.706   2.333
18103W        W90429   8.794  30.722   0.768
18104W        W90430  35.859  41.509   3.214
18105W        W90431   8.442  22.267   4.100
18106W        W90432  23.525   5.175   3.373
18107W        W90433  27.191   5.235   0.409
18108W        W90434  12.947  40.482  11.860
18109W        W90435  25.046  20.679  11.100
18110W        W90436  35.427   1.468  12.728
18111W        W90437  44.947  25.705   0.853
18112W        W90438  22.623  28.839  11.617
18113W        W90439  21.153  17.571  12.991
18114W        W90440  39.046  34.304  11.476
18115W        W90441  28.997   3.195   2.021
18116W        W90442  19.019  27.133  13.152
18117W        W90443  34.100  21.201  12.040
18118W        W90444   9.210  10.223  11.123
18119W        W90445  20.968   4.754  11.986
18120W        W90446  29.987   8.330   3.182
18121W        W90447  27.122  19.282   0.478
18122W        W90448  30.295  28.662   0.204
18123W        W90449   8.675  42.203  11.537
18124W        W90450  27.279  30.477  11.879
18125W        W90451  18.108  39.960   4.074
18126W        W90452  18.748  21.077  14.050
18127W        W90453  33.455  14.996   4.583
18128W        W90454  13.515  34.819  10.857
18129W        W90455   0.858  34.362  12.206
18130W        W90456  10.425  35.460   1.463
18131W        W90457  15.679  12.655  10.696
18132W        W90458   1.911  21.131   4.972
18133W        W90459   5.787   3.859   3.938
18134W        W90460  26.106  34.953  13.354
18135W        W90461  40.451   6.221  14.468
18136W        W90462  19.269  23.473  14.311
18137W        W90463  18.131  30.614  10.707
18138W        W90464  43.227  20.737  14.743
18139W        W90465  18.042  25.668  12.910
18140W        W90466  21.328   0.903   4.733
18141W        W90467  15.234   0.725   3.228
18142W        W90468  27.111  38.856  10.710
18143W        W90469   4.193   0.579   1.842
18144W        W90470  11.664  32.509  14.711
18145W        W90471  10.153  23.585  12.931
18146W        W90472  14.315  44.500   4.689
18147W        W90473   6.689  43.769   3.240
18148W        W90474  38.996  35.004  10.729
18149W        W90475  26.899  27.636  11.122
18150W        W90476  39.756  17.666   2.391
18151W        W90477  34.930   3.618   3.101
18152W        W90478   7.269  28.438  11.736
18153W        W90479  13.634  19.942   2.269
18154W        W90480  14.663  31.510   2.847
18155W        W90481  30.837  38.402  11.057
18156W        W90482   4.093  35.883   2.148
18157W        W90483  28.586   9.896  10.502
18158W        W90484  18.360   6.396  14.847
18159W        W90485  38.945   8.875  13.587
18160W        W90486   9.905   4.776   0.470
18161W        W90487  21.567  39.144  12.997
18162W        W90488   3.831  17.035  13.805
18163W        W90489  36.181   7.114   4.327
18164W        W90490  26.913  29.022   3.243
18165W        W90491  26.499  17.288   4.137
18166W        W90492  32.369   3.875  12.446
18167W        W90493  16.729   5.182  10.479
18168W        W90494  12.481  40.271  11.019
18169W        W90495   4.736  40.899  14.819
18170W        W90496  29.650  30.892  12.150
18171W        W90497   3.262  26.042  13.119
18172W        W90498   0.635   8.326   4.497
18173W        W90499   8.656  34.421   4.176
18174W        W90500  36.533  33.608  10.259
18175W        W90501  18.253   8.213   2.748
18176W        W90502  39.619   8.748   4.570
18177W        W90503  26.625  12.806  11.069
18178W        W90504  12.875  25.746  12.459
18179W        W90505  23.112  39.325  13.992
18180W        W90506   7.360  35.183   0.441
18181W        W90507  39.540  41.063   0.009
18182W        W90508  44.075   2.604   2.383
18183W        W90509  34.939  13.081  13.903
18184W        W90510   3.752  23.119  12.161
18185W        W90511  34.830  23.540  12.389
18186W        W90512  31.085   7.378   4.794
18187W        W90513  18.306  23.577   1.237
18188W        W90514  37.776  25.694   2.246
18189W        W90515   7.309   6.337   4.620
18190W        W90516  12.133  30.910  14.920
18191W        W90517  11.181  29.066  10.555
18192W        W90518  26.086   0.780   4.203
18193W        W90519   8.771  18.345   1.646
18194W        W90520  19.483   9.817  11.529
18195W        W90521  20.425  11.752  14.269
18196W        W90522  41.890  12.652  10.491
18197W        W90523  34.957   4.957  13.026
18198W        W90524  19.344   3.724  12.937
18199W        W90525  19.581  42.239  11.147
18200W        W90526  14.036   1.341  11.941
18201W        W90527  11.124  29.432  14.382
18202W        W90528  26.916   7.918   4.520
18203W        W90529  26.128  19.124   0.802
18204W        W90530  44.279  27.687   4.091
18205W        W90531   1.660  13.315   0.487
18206W        W90532  30.478   3.441  10.447
18207W        W90533  36.828  33.367   3.190
18208W        W90534   7.615  16.523   3.766
18209W        W90535   0.541  43.794   0.774
18210W        W90536  37.804  37.369  14.505
18211W        W90537  35.857  28.670   0.999
18212W        W90538  29.593  13.708  13.760
18213W        W90539   9.181  40.017  11.995
18214W        W90540  23.555  33.263  13.028
18215W        W90541  42.271  33.450   1.112
18216W        W90542  37.051  14.517   3.728
18217W        W90543  42.855  40.319  13.021
18218W        W90544   1.230  35.936   0.416
18219W        W90545   8.465  41.311  10.785
18220W        W90546  24.725  43.023  10.433
18221W        W90547  23.667  16.281  12.049
18222W        W90548  17.506  24.760   3.868
18223W        W90549  35.478   6.637  11.168
18224W        W90550  34.392  12.714   2.182
18225W        W90551  12.897  24.284  13.088
18226W        W90552  13.672  43.577  13.824
18227W        W90553  19.370  22.332   0.991
18228W        W90554  11.113   0.323   3.981
18229W        W90555  17.318  42.581   0.757
18230W        W90556  13.363  31.009  14.864
18231W        W90557  39.401  12.778  13.521
18232W        W90558   4.661  26.171   4.525
18233W        W90559  13.289  27.447  12.133
18234W        W90560  20.457   7.954   2.912
18235W        W90561  32.030   1.111  13.485
18236W        W90562   5.381   2.247   1.814
18237W        W90563  17.174  15.212  14.600
18238W        W90564   8.922   6.953  11.910
18239W        W90565  10.075  36.565   3.759
18240W        W90566   4.443   5.644  12.135
18241W        W90567  36.100  43.501  10.656
18242W        W90568  19.576   6.226  14.116
18243W        W90569  11.473   5.566   2.485
18244W        W90570  14.143  29.601  12.942
18245W        W90571  40.271  31.161  14.082
18246W        W90572  11.726  42.435   4.434
18247W        W90573  35.913   6.570   0.386
18248W        W90574  21.695   6.999   0.846
18249W        W90575  32.396   2.824  14.563
18250W        W90576  29.916  28.636   3.089
18251W        W90577  13.495   9.757  12.064
18252W        W90578  13.803  14.820  13.957
18253W        W90579  19.615  30.536   2.862
18254W        W90580  42.360  23.210   2.425
18255W        W90581  30.406  23.652   2.348
18256W        W90582  23.994  31.892   2.755
18257W        W90583   8.895  26.570  12.588
18258W        W90584  27.509  34.830  12.557
18259W        W90585  41.616  13.837  11.600
18260W        W90586   6.389   3.634  13.313
18261W        W90587  41.033  29.010   1.948
18262W        W90588  12.036  40.605  11.905
18263W        W90589  12.760  31.026   1.122
18264W        W90590  16.661  25.026  13.895
18265W        W90591  16.193  14.796   0.220
18266W        W90592  29.724  12.428   2.076
18267W        W90593   3.282  35.893  13.453
18268W        W90594  30.732  12.895   4.848
18269W        W90595  22.216  10.233  12.817
18270W        W90596  14.826  44.811  11.065
18271W        W90597  37.104  22.563   3.244
18272W        W90598   2.405  25.754  12.297
18273W        W90599  29.100  37.335  10.700
18274W        W90600  13.693  30.095  13.081
18275W        W90601  18.701  11.640  10.254
18276W        W90602  35.226  26.319   4.200
18277W        W90603  39.504  40.018  10.404
18278W        W90604   5.356  41.894   0.913
18279W        W90605  21.134   7.646   4.918
18280W        W90606  30.461   3.992   3.723
18281W        W90607   0.358   8.915  13.258
18282W        W90608  35.106  43.289  13.778
18283W        W90609  36.573  11.569   1.841
18284W        W90610  39.121  25.039   2.180
18285W        W90611   9.383  20.565  12.883
18286W        W90612  41.902  32.219  13.825
18287W        W90613  22.584   0.210   3.474
18288W        W90614  41.846  35.650   2.493
18289W        W90615  26.009   2.007  12.038
18290W        W90616   9.814   2.848  13.058
18291W        W90617  35.941  24.923  13.511
18292W        W90618  16.369   1.624  12.806
18293W        W90619  36.377  19.592  12.408
18294W        W90620  12.812  42.004  12.968
18295W        W90621  31.082  42.507   4.560
18296W        W90622  19.769  36.853   0.815
18297W        W90623  33.886  44.886   3.589
18298W        W90624  18.702  10.688  13.533
18299W        W90625  25.620  41.803   0.759
18300W        W90626  25.582  32.233  13.468
18301W        W90627   5.787   8.191   4.082
18302W        W90628   8.599   5.801  14.462
18303W        W90629  34.448  15.733  10.413
18304W        W90630  44.360  12.774   0.449
18305W        W90631  14.106  40.475  12.944
18306W        W90632   2.524  21.612  14.682
18307W        W90633   9.466   4.206   0.758
18308W        W90634  32.099   6.898   2.345
18309W        W90635  33.587  13.857  10.742
18310W        W90636  26.234  40.001  11.514
18311W        W90637  27.392  30.739   1.802
18312W        W90638  23.826  15.855  12.847
18313W        W90639  23.583  34.922  11.602
18314W        W90640  31.617  11.196   1.033
18315W        W90641   5.526  22.233   1.836
18316W        W90642  40.430   2.133  12.575
18317W        W90643   2.704  19.454   0.038
18318W        W90644   5.485  41.550  12.884
18319W        W90645  32.919   3.349   0.481
18320W        W90646   4.342  21.340  13.133
18321W        W90647  15.325  10.268  13.033
18322W        W90648  28.009  44.620   4.220
18323W        W90649  16.344  42.318   3.710
18324W        W90650  34.128  21.201  11.138
18325W        W90651  11.991   8.403  14.787
18326W        W90652   6.312   3.786   4.576
18327W        W90653  13.149  16.475   3.660
18328W        W90654   1.328  19.855   4.160
18329W        W90655  44.090  29.493  10.554
18330W        W90656   0.505  29.267   3.791
18331W        W90657  14.074  31.899  12.578
18332W        W90658  25.496  34.849  14.384
18333W        W90659  15.678  41.988   3.841
18334W        W90660  33.019  15.336   0.077
18335W        W90661  13.713  37.593   3.093
18336W        W90662  15.293  38.766   4.093
18337W        W90663  14.436  30.117  10.996
18338W        W90664  13.138  34.453  13.281
18339W        W90665  22.681  34.082   0.509
18340W        W90666   0.842  39.343   3.670
18341W        W90667  24.926  35.900   2.266
18342W        W90668  22.023   5.842   4.880
18343W        W90669  11.129  39.448  13.147
18344W        W90670  34.013   0.216  13.771
18345W        W90671  41.548  17.152  13.335
18346W        W90672  17.079  39.316  14.344
18347W        W90673  19.646   9.150  13.610
18348W        W90674  39.450  42.858  11.806
18349W        W90675  12.103  26.495   2.348
18350W        W90676   4.932   6.783  10.721
18351W        W90677  26.076  25.739   3.310
18352W        W90678   3.361  18.730  12.075
18353W        W90679  21.494  36.328   0.862
18354W        W90680   6.862  24.363   0.551
18355W        W90681   0.703  36.274  11.206
18356W        W90682  29.134  42.089  11.189
18357W        W90683  20.299  17.851  12.934
18358W        W90684   3.377  37.288  12.056
18359W        W90685  16.279   3.670  12.133
18360W        W90686  23.566  39.142   2.292
18361W        W90687  25.484   1.831   2.513
18362W        W90688  35.619  10.421  14.896
18363W        W90689  44.497   9.669   0.396
18364W        W90690   3.925  37.159   3.654
18365W        W90691  16.686  23.905  11.719
18366W        W90692  32.427  41.064  11.011
18367W        W90693  41.838  42.801  10.746
18368W        W90694   4.790   8.720  14.739
18369W        W90695  13.704   8.106  12.614
18370W        W90696  21.957  19.324  12.504
18371W        W90697  18.597   0.167  13.057
18372W        W90698  16.805  27.554   4.616
18373W        W90699  15.076  28.125  13.896
18374W        W90700  24.663   5.569  10.734
18375W        W90701  10.636  24.029   2.733
18376W        W90702  35.964  30.060   2.842
18377W        W90703   3.226  19.142   3.278
18378W        W90704  24.352  32.946  13.513
18379W        W90705  15.690  20.151  12.217
18380W        W90706  10.209  13.309   2.619
18381W        W90707  35.561  18.569   2.413
18382W        W90708  16.356  36.403   2.817
18383W        W90709  42.494  15.663  13.463
18384W        W90710   2.486  24.637  14.299
18385W        W90711   6.747  26.585  10.747
18386W        W90712  23.242  17.306  14.775
18387W        W90713  43.117  39.925   5.093
18388W        W90714   7.559  16.183  13.602
18389W        W90715  37.890  22.141   2.990
18390W        W90716   6.379  41.531  13.822
18391W        W90717  10.095  37.007   3.132
18392W        W90718  26.708  16.554  11.989
18393W        W90719  10.184  28.895   1.692
18394W        W90720  26.202  36.051  14.842
18395W        W90721  15.772  36.824   4.076
18396W        W90722  16.570  26.925  11.661
18397W        W90723  42.586  30.703  13.346
18398W        W90724   8.708  32.690  11.541
18399W        W90725  10.748   6.282   3.295
18400W        W90726  19.164  42.459   4.885
18401W        W90727   3.938  32.274  12.060
18402W        W90728  29.021  43.750  13.839
18403W        W90729   4.920  20.137   0.269
18404W        W90730   8.310   9.422  14.412
18405W        W90731  20.342  15.737   0.660
18406W        W90732   8.161  40.438   1.982
18407W        W90733   3.414  21.000   2.575
18408W        W90734  13.081  34.532   3.659
18409W        W90735  32.472  25.256   2.784
18410W        W90736  22.406  36.861   4.066
18411W        W90737  27.244   9.307   1.745
18412W        W90738  25.558  33.628   0.590
18413W        W90739  27.968  38.935  10.829
18414W        W90740  14.685  40.439  14.321
18415W        W90741   0.389  28.924   4.647
18416W        W90742   4.311  20.330  13.097
18417W        W90743  24.936  24.043   2.723
18418W        W90744   5.081  17.162  10.091
18419W        W90745   7.308   7.707  12.500
18420W        W90746  36.427  19.988  10.825
18421W        W90747   7.809  23.414   0.441
18422W        W90748   9.943   5.953   0.320
18423W        W90749  12.141  27.034   1.046
18424W        W90750  27.654  38.320  10.316
18425W        W90751  21.175  36.991  10.439
18426W        W90752   7.448  35.844   4.181
18427W        W90753  35.916  13.119   4.935
18428W        W90754  37.458   1.877   4.598
18429W        W90755  37.388   5.623  10.491
18430W        W90756  37.946  43.297   4.228
18431W        W90757   4.426  12.399  13.069
18432W        W90758   2.184   8.259   1.753
18433W        W90759   1.906  12.004   9.816
18434W        W90760  25.080  41.388  13.162
18435W        W90761  42.850  22.075  11.466
18436W        W90762  44.844  18.712  10.663
18437W        W90763  42.433  34.505   0.073
18438W        W90764   9.780   1.914  14.524
18439W        W90765  20.772  29.970   3.130
18440W        W90766   4.621  22.360   4.244
18441W        W90767   1.465  36.259   1.911
18442W        W90768  13.594  26.188   1.473
18443W        W90769  30.103  26.694  10.121
18444W        W90770  25.531   6.175  12.005
18445W        W90771  12.666  44.006   3.585
18446W        W90772  21.973  43.728   3.152
18447W        W90773   4.326  39.488   1.900
18448W        W90774  15.429   5.594   1.804
18449W        W90775  38.617  17.028  14.935
18450W        W90776   4.487  13.619   4.416
18451W        W90777   0.954  34.835  12.004
18452W        W90778  30.414  15.790  14.985
18453W        W90779   9.333   4.968   1.410
18454W        W90780  30.656   2.815   4.602
18455W        W90781  44.303  33.099  12.746
18456W        W90782   9.190  22.460  11.514
18457W        W90783  36.970  26.679  11.604
18458W        W90784  44.451  32.549   4.185
18459W        W90785   5.674  38.453   1.704
18460W        W90786   5.996  27.979   1.866
18461W        W90787   8.291  14.263  10.290
18462W        W90788  27.403  30.079  11.523
18463W        W90789  35.115  12.031  13.798
18464W        W90790  22.558   3.535   3.816
18465W        W90791  10.919  33.863  11.886
18466W        W90792  17.287  11.692  14.959
18467W        W90793  41.726  31.680   1.776
18468W        W90794  13.294  29.724  13.378
18469W        W90795  11.314   5.411   1.969
18470W        W90796   7.387  13.162  10.738
18471W        W90797  21.740   5.638   2.215
18472W        W90798   9.796  27.673  12.530
18473W        W90799  13.281  40.082  14.246
18474W        W90800   4.692  24.230  12.466
18475W        W90801  21.268   2.006  12.953
18476W        W90802  36.030  32.603  11.923
18477W        W90803  40.808  27.297   2.014
18478W        W90804   7.043  41.599  12.626
18479W        W90805   0.465  25.986  10.793
18480W        W90806  30.973   7.622   2.684
18481W        W90807  21.102   8.174   4.137
18482W        W90808  39.335  17.700  10.703
18483W        W90809  12.841  32.236  11.216
18484W        W90810  37.927  21.621   1.274
18485W        W90811  14.302  24.236   1.899
18486W        W90812  10.718  37.191  11.574
18487W        W90813  35.499  15.658  10.181
18488W        W90814  17.812  37.456  11.422
18489W        W90815  42.202  10.023  12.559
18490W        W90816  15.274  44.295  10.553
18491W        W90817  35.331  13.359   4.180
18492W        W90818  11.131  44.433   2.652
18493W        W90819  23.186   1.350  10.734
18494W        W90820  35.781  18.503   3.329
18495W        W90821  30.591  41.554   4.845
18496W        W90822   6.934  17.271  12.050
18497W        W90823  37.995  20.224   0.382
18498W        W90824   2.175  13.222   0.513
18499W        W90825  15.759  42.990  13.812
18500W        W90826  16.810  36.813  10.682
18501W        W90827   6.913  34.607  10.870
18502W        W90828  35.665  34.768   4.181
18503W        W90829  30.992  11.727   0.930
18504W        W90830   7.772  25.742   4.715
18505W        W90831  13.742  29.365   0.945
18506W        W90832  38.715  32.983   3.615
18507W        W90833  17.930   4.767  12.401
18508W        W90834  37.478   1.439   1.587
18509W        W90835   4.795  25.921  13.099
18510W        W90836  26.647  42.370  14.484
18511W        W90837  35.815  34.456  14.034
18512W        W90838   7.761   6.433  13.572
18513W        W90839  15.336  33.682   3.141
18514W        W90840  31.982  26.298   0.492
18515W        W90841  22.460  11.897  11.181
18516W        W90842  35.327  10.191  14.522
18517W        W90843  41.995  25.788  13.493
18518W        W90844   1.179  24.641  13.308
18519W        W90845   3.364  39.368  14.179
18520W        W90846  38.545  43.298   4.700
18521W        W90847  11.694  20.882  13.073
18522W        W90848  24.051   9.483   2.625
18523W        W90849  28.885  27.073   4.469
18524W        W90850  10.975  43.872  12.516
18525W        W90851   5.762  16.387  10.632
18526W        W90852  39.434  17.267  13.315
18527W        W90853   9.494   8.842   2.228
18528W        W90854  14.801   7.321   4.391
18529W        W90855  26.011  14.829  11.042
18530W        W90856  26.760  35.700   3.223
18531W        W90857  38.949  20.822   4.986
18532W        W90858  16.705  15.753  14.924
18533W        W90859  40.694  34.444  11.913
18534W        W90860  18.185  30.761   2.881
18535W        W90861  27.181  17.751   1.186
18536W        W90862   4.965  42.825   1.238
18537W        W90863   7.916  39.409  11.931
18538W        W90864  15.472   5.205   0.541
18539W        W90865  34.740   4.271  12.521
18540W        W90866  31.951  27.590   0.402
18541W        W90867   5.176   8.785   4.039
18542W        W90868   1.048   5.743  13.092
18543W        W90869  30.619  24.109   2.197
18544W        W90870  35.488  36.065  13.478
18545W        W90871  43.944  19.092  14.373
18546W        W90872  32.106  35.572  11.641
18547W        W90873  19.019  27.605  12.015
18548W        W90874  16.193  36.599  14.304
18549W        W90875  18.945  34.816   0.342
18550W        W90876  33.055  21.141   1.951
18551W        W90877  36.615  27.154  11.031
18552W        W90878  15.099  20.852   5.340
18553W        W90879  31.118   5.737   2.334
18554W        W90880   5.750  28.270   1.479
18555W        W90881  23.117  35.192  12.486
18556W        W90882  19.536  28.091  14.417
18557W        W90883   8.316  41.540   2.132
18558W        W90884  22.985   3.701   4.105
18559W        W90885  22.030  21.370  11.675
18560W        W90886   6.098  21.590   3.390
18561W        W90887  41.130  36.317  14.924
18562W        W90888  40.541  40.983   3.696
18563W        W90889   6.776  43.989  10.705
18564W        W90890   7.248  29.998  12.215
18565W        W90891  18.288  30.594   4.633
18566W        W90892  31.210  20.184   0.751
18567W        W90893  25.137  13.119  10.669
18568W        W90894   5.734  33.237  14.757
18569W        W90895  44.970   8.781   2.406
18570W        W90896  37.862   0.510   4.093
18571W        W90897  24.089  17.517  13.427
18572W        W90898  28.508   5.144  14.816
18573W        W90899   0.768  44.925  10.611
18574W        W90900  20.357  28.455  10.601
18575W        W90901  33.842  32.650   2.366
18576W        W90902   9.255  30.886  13.486
18577W        W90903  17.368  22.560   3.954
18578W        W90904  33.148  26.028   1.447
18579W        W90905  36.878  32.639   1.695
18580W        W90906  24.486   6.797  14.755
18581W        W90907  24.194  27.116  12.013
18582W        W90908  38.443   6.679   1.619
18583W        W90909  35.035  19.286  12.444
18584W        W90910  10.659  11.418  14.252
18585W        W90911  20.417  18.801   2.275
18586W        W90912  41.954  10.142  11.593
18587W        W90913  23.642  36.283  10.926
18588W        W90914  24.585  11.691  12.945
18589W        W90915  20.614  32.145   4.988
18590W        W90916   9.157  35.250  13.610
18591W        W90917  38.930   1.730   3.415
18592W        W90918  22.200  43.463  14.293
18593W        W90919   6.223  23.556   4.114
18594W        W90920  41.626   0.541   3.570
18595W        W90921  32.556  41.768  12.632
18596W        W90922  23.109  19.539   2.539
18597W        W90923  34.976  32.696  14.832
18598W        W90924  41.599  15.540   5.200
18599W        W90925  31.517  44.196   0.747
18600W        W90926  20.976  29.260  14.876
18601W        W90927  40.276  19.632   0.235
18602W        W90928  39.358  25.300   3.741
18603W        W90929   7.906  27.055   0.316
18604W        W90930   3.056  41.020   1.749
18605W        W90931  21.671  40.935  13.276
18606W        W90932  11.695  15.147  14.406
18607W        W90933  14.650  20.933   1.989
18608W        W90934  44.815  16.551  14.781
18609W        W90935  29.067   9.172  12.763
18610W        W90936  24.989   1.398  14.526
18611W        W90937  12.630  29.665  12.053
18612W        W90938  18.181   1.880  12.611
18613W        W90939  11.723  39.066   5.103
18614W        W90940  42.028   2.671   1.718
18615W        W90941  43.731  42.310   1.230
18616W        W90942   0.764  33.936   2.031
18617W        W90943  44.546  18.649   2.283
18618W        W90944  37.951  29.778   0.281
18619W        W90945   1.941  20.037   2.200
18620W        W90946  22.022  28.714  14.761
18621W        W90947  40.369  16.845   1.986
18622W        W90948  37.997  24.148   3.263
18623W        W90949  11.315   4.320   4.365
18624W        W90950  16.289  43.254  13.595
18625W        W90951  22.943  42.218  12.150
18626W        W90952  10.122   4.675   2.816
18627W        W90953   5.153  32.374  12.084
18628W        W90954   0.371   3.176   1.620
18629W        W90955  24.633  30.158   2.617
18630W        W90956  35.746   4.278   0.961
18631W        W90957  14.285  26.268   3.663
18632W        W90958  36.233  26.892  10.061
18633W        W90959  31.010  25.992   2.929
18634W        W90960  32.412  18.769   9.957
18635W        W90961  16.157  23.213  11.391
18636W        W90962  29.625  24.669  13.575
18637W        W90963   1.955  22.777  12.829
18638W        W90964  11.413  32.618   2.876
18639W        W90965  26.373  12.371  11.004
18640W        W90966  31.720  41.279   4.207
18641W        W90967  23.547  44.760  10.714
18642W        W90968  32.944   3.755   3.584
18643W        W90969  29.557   2.434  14.464
18644W        W90970  30.836  14.407  12.397
18645W        W90971  33.599  12.663   0.198
18646W        W90972  39.764  15.587  12.992
18647W        W90973  33.564   5.345   0.373
18648W        W90974  34.776  17.310  12.521
18649W        W90975   9.752  23.894  11.527
18650W        W90976   2.671  31.145   4.214
18651W        W90977  24.011  35.445   0.803
18652W        W90978  42.847  43.320   1.312
18653W        W90979  40.304  17.822  11.545
18654W        W90980   1.813   7.408   3.978
18655W        W90981   5.201  12.772  13.000
18656W        W90982   0.924  12.683  12.314
18657W        W90983  35.819  15.027  14.827
18658W        W90984  14.169  43.915   3.682
18659W        W90985   2.389  10.194  13.785
18660W        W90986   0.985  44.931   4.626
18661W        W90987  13.351  24.650  14.402
18662W        W90988  13.696  26.007   0.752
18663W        W90989   3.394  20.720   1.454
18664W        W90990  13.034  35.360  12.504
18665W        W90991  36.950   9.711   2.237
18666W        W90992  24.290  37.926   1.982
18667W        W90993  11.741  21.115   2.982
18668W        W90994  43.854  21.810   0.938
18669W        W90995  36.327  19.487   3.047
18670W        W90996   8.566  21.773   4.075
18671W        W90997  42.123  31.143   3.183
18672W        W90998  35.387  38.526   0.386
18673W        W90999  29.909  14.716   3.226
18674W        W91000  20.694  12.797   0.739
18675W        W91001  44.951   2.911  11.939
18676W        W91002   8.145  38.871   1.758
18677W        W91003  14.357  33.538   3.396
18678W        W91004  22.857   9.436  13.986
18679W        W91005   6.308   6.492  12.998
18680W        W91006  39.601  28.521   2.396
18681W        W91007  12.270   2.814   2.737
18682W        W91008  11.084  30.381   1.264
18683W        W91009  29.599  21.638  14.583
18684W        W91010  39.219  11.535   3.695
18685W        W91011   7.400  36.957  12.165
18686W        W91012  14.576  15.168  14.425
18687W        W91013  26.231  30.523  12.060
18688W        W91014  41.917  14.643   4.778
18689W        W91015  20.838  44.459  14.377
18690W        W91016  12.111  12.649   0.862
18691W        W91017  36.785  43.957  14.800
18692W        W91018  14.272   3.798   1.924
18693W        W91019  19.393  37.148   5.012
18694W        W91020   3.376  16.755   1.170
18695W        W91021   3.691  30.643   2.769
18696W        W91022  16.123  39.059   3.628
18697W        W91023  41.599  37.352  12.102
18698W        W91024  22.584   6.908   0.762
18699W        W91025  19.163   3.221   0.336
18700W        W91026  38.592   4.173  14.455
18701W        W91027  38.412   8.194   3.825
18702W        W91028  18.265  10.354  13.734
18703W        W91029  14.218  16.907   2.793
18704W        W91030  16.659  13.108   1.667
18705W        W91031  35.155  14.785  12.383
18706W        W91032  11.931  25.706   0.753
18707W        W91033  44.844  11.723   1.788
18708W        W91034  33.883  13.318   4.273
18709W        W91035   6.147  40.452   1.841
18710W        W91036  23.828  17.201   5.245
18711W        W91037  13.602  42.389   3.181
18712W        W91038  35.026  18.598   1.305
18713W        W91039  36.441  39.540  10.657
18714W        W91040  38.891  19.252   3.301
18715W        W91041  44.923  15.673  11.630
18716W        W91042  43.416  17.135   0.021
18717W        W91043  33.492  39.869   2.420
18718W        W91044  43.546   2.254   1.354
18719W        W91045  17.312  10.238   0.808
18720W        W91046  32.060  33.425  10.553
18721W        W91047  43.289  23.197   0.806
18722W        W91048   2.807   5.963  11.526
18723W        W91049  44.076  23.646   0.624
18724W        W91050  21.450  28.664  12.189
18725W        W91051  40.584  21.260   1.862
18726W        W91052  34.600  10.322  13.592
18727W        W91053   4.832  44.260   2.707
18728W        W91054  43.397   9.336   0.785
18729W        W91055   2.624   4.420   1.893
18730W        W91056  21.207  32.044   0.971
18731W        W91057  24.316  37.346  12.419
18732W        W91058  38.525   3.729   4.794
18733W        W91059  37.418   4.543   1.768
18734W        W91060  20.655  38.823  13.419
18735W        W91061  39.928  26.544   3.585
18736W        W91062  29.381   0.532  14.858
18737W        W91063  29.663  27.018  10.123
18738W        W91064  22.717   4.428  14.856
18739W        W91065  27.722  35.610   2.123
18740W        W91066   8.589  38.344  11.080
18741W        W91067  18.156   4.250   2.253
18742W        W91068  31.470  32.110   1.691
18743W        W91069   8.393  31.381   2.242
18744W        W91070   1.019   2.275  14.241
18745W        W91071  25.221  12.568  14.873
18746W        W91072   8.615  13.913   4.993
18747W        W91073  15.704   4.729  14.980
18748W        W91074   3.654  30.104  13.328
18749W        W91075  19.826  19.215   0.114
18750W        W91076  29.490  31.618   4.382
18751W        W91077  29.876  19.735  11.909
18752W        W91078  21.605  30.381  13.560
18753W        W91079   5.699  44.447   1.667
18754W        W91080  18.001  16.056  12.388
18755W        W91081  25.550  42.705  10.751
18756W        W91082  13.942  15.813  12.368
18757W        W91083  42.001  28.111  14.072
18758W        W91084  26.521  31.375  13.909
18759W        W91085   6.442  10.086  12.941
18760W        W91086  41.303  36.032   0.381
18761W        W91087   9.859  35.832  14.447
18762W        W91088  22.829  41.456  13.881
18763W        W91089  41.628  20.671   4.291
18764W        W91090  20.661   1.703   0.926
18765W        W91091  10.757   2.747   1.286
18766W        W91092  30.472   2.163  10.549
18767W        W91093  26.096  31.143   0.156
18768W        W91094  31.951  42.304  12.995
18769W        W91095  16.944  12.196  10.790
18770W        W91096  28.971   2.488   4.458
18771W        W91097  34.975  33.950  14.126
18772W        W91098  41.593  22.792   1.384
18773W        W91099  19.173   4.191  11.633
18774W        W91100   0.422  11.526   0.437
18775W        W91101   9.104  43.635   2.439
18776W        W91102  34.028  33.182   3.238
18777W        W91103  17.129   4.915  12.455
18778W        W91104  35.969  36.035  10.945
18779W        W91105  30.869  15.867   5.047
18780W        W91106  18.589   5.921  11.658
18781W        W91107  36.502  44.684  11.004
18782W        W91108  15.801  44.763   2.816
18783W        W91109  16.125  12.783   1.477
18784W        W91110  32.119  36.489   4.647
18785W        W91111  32.327  21.850  11.055
18786W        W91112   7.258  28.915  14.115
18787W        W91113  32.031  12.203   4.666
18788W        W91114  28.951  22.105   0.317
18789W        W91115  18.836  39.845   4.336
18790W        W91116  21.020  37.910  10.157
18791W        W91117  37.128  12.243  14.935
18792W        W91118  31.716  39.944   1.925
18793W        W91119  19.124  36.909  14.346
18794W        W91120  22.781  33.987  13.946
18795W        W91121  29.863  29.163  11.333
18796W        W91122  25.594  44.027  12.788
18797W        W91123  44.050  43.769  11.024
18798W        W91124   0.456  34.146  11.953
18799W        W91125   5.263  14.310   4.873
18800W        W91126  14.110   0.746   1.316
18801W        W91127  15.657  25.755   4.266
18802W        W91128  44.258   5.170   1.732
18803W        W91129  31.622  11.709   3.335
18804W        W91130  19.993  20.530   2.817
18805W        W91131  28.943  42.759  14.578
18806W        W91132   2.539   0.184   1.193
18807W        W91133  38.616  42.402   3.810
18808W        W91134   1.840  18.496  14.578
18809W        W91135  10.160  18.182   3.114
18810W        W91136  13.287  19.735  10.325
18811W        W91137   8.609  29.411   1.353
18812W        W91138  25.678  12.584  13.802
18813W        W91139  37.332   7.137   0.338
18814W        W91140  13.213  28.193   3.260
18815W        W91141   6.697  31.075  11.209
18816W        W91142   2.978  24.358   0.060
18817W        W91143  23.919  41.000  13.514
18818W        W91144  20.678  40.748   2.742
18819W        W91145  37.039  28.261  14.681
18820W        W91146  36.142   9.061  12.545
18821W        W91147   5.876  27.197  11.132
18822W        W91148  23.151   9.200   4.203
18823W        W91149  30.011  19.826  13.465
18824W        W91150  37.713   3.588  10.228
18825W        W91151   3.236  31.664  14.409
18826W        W91152   0.414  39.089   0.955
18827W        W91153  35.049  37.839   2.751
18828W        W91154  42.828   6.866  14.338
18829W        W91155  28.006  28.506   2.876
18830W        W91156  34.596   2.867  12.992
18831W        W91157  39.807  42.978   4.096
18832W        W91158  44.490  32.034  12.135
18833W        W91159  35.710  41.798  12.898
18834W        W91160  44.458  37.120  14.766
18835W        W91161  21.495   0.896  14.910
18836W        W91162  21.304   5.904   1.365
18837W        W91163  35.302  11.137  14.480
18838W        W91164  12.882  19.439   0.607
18839W        W91165  27.022  18.198   1.382
18840W        W91166  35.858   4.519   3.067
18841W        W91167  30.320  21.307  13.505
18842W        W91168  31.982   9.691   2.770
18843W        W91169   0.591  41.470   4.468
18844W        W91170  37.611   7.620  13.608
18845W        W91171   6.877  17.695  14.322
18846W        W91172  26.346  13.307  12.177
18847W        W91173  17.529  37.636  14.342
18848W        W91174  43.921  18.490   1.863
18849W        W91175   9.632  26.626   2.340
18850W        W91176  11.908  43.831  11.471
18851W        W91177  30.950   4.173  12.907
18852W        W91178  29.079  40.088   2.465
18853W        W91179  33.822  13.685  12.476
18854W        W91180  15.030   8.763  13.304
18855W        W91181  15.848  30.688  13.326
18856W        W91182  26.166   6.442   2.153
18857W        W91183  27.849  15.428   3.125
18858W        W91184  15.784   2.821  12.059
18859W        W91185   8.369   9.343  12.475
18860W        W91186  43.979  10.406  12.586
18861W        W91187  29.822  21.178   0.422
18862W        W91188  10.176  25.623  12.815
18863W        W91189  35.956  22.453   4.063
18864W        W91190   7.830  26.610  12.132
18865W        W91191  25.679  16.863   0.288
18866W        W91192   8.209  39.108  11.093
18867W        W91193  23.488   7.874  10.763
18868W        W91194  25.110  11.874   3.155
18869W        W91195   6.324  18.181   0.721
18870W        W91196  10.333  31.436  14.765
18871W        W91197  21.199   7.173  13.323
18872W        W91198  34.437  22.735   4.601
18873W        W91199  34.586  20.057   4.198
18874W        W91200   7.237  32.461  13.456
18875W        W91201  13.250  15.374  11.577
18876W        W91202   9.621  38.879  14.738
18877W        W91203  13.298  20.085  11.375
18878W        W91204   5.840  15.824  14.098
18879W        W91205   3.350  16.813   2.084
18880W        W91206  18.588  38.076  11.229
18881W        W91207  26.353   3.986  12.533
18882W        W91208  28.585  26.101  10.916
18883W        W91209   0.054  40.290  12.391
18884W        W91210  19.132  44.424   4.717
18885W        W91211  14.846   3.852  12.045
18886W        W91212   5.660  24.739   3.169
18887W        W91213  11.467  38.286   3.250
18888W        W91214  15.337  41.481   3.627
18889W        W91215   2.668  12.269  13.533
18890W        W91216  27.502   3.770  13.322
18891W        W91217  20.779  34.490  10.606
18892W        W91218  39.835  40.414   0.747
18893W        W91219  44.898  29.461   2.645
18894W        W91220   6.754  18.776  13.097
18895W        W91221  44.518  23.514  11.064
18896W        W91222  16.333  33.546   3.678
18897W        W91223  22.892  25.958   4.299
18898W        W91224  22.591  38.096  10.746
18899W        W91225  40.770   5.903   0.227
18900W        W91226   7.815   6.620  12.579
18901W        W91227  11.863  27.553  12.490
18902W        W91228  39.594  29.090  13.019
18903W        W91229  23.533  38.507   0.410
18904W        W91230  11.206  33.463   0.056
18905W        W91231   0.463  17.401   3.368
18906W        W91232  43.320   3.012   1.053
18907W        W91233  14.628  14.310  12.027
18908W        W91234  35.400  32.699  14.477
18909W        W91235  41.587  20.572   3.763
18910W        W91236  27.064  32.119   5.024
18911W        W91237  22.142  44.902  12.571
18912W        W91238  23.698  35.506  10.380
18913W        W91239  40.864  44.014   0.175
18914W        W91240  21.170  40.671   3.650
18915W        W91241   6.781  17.656  10.566
18916W        W91242  39.387  15.329   1.484
18917W        W91243   5.550  33.500  12.761
18918W        W91244   6.679  31.299  13.514
18919W        W91245  30.853  36.787  14.288
18920W        W91246  43.384  36.862   2.318
18921W        W91247  42.458  28.074   0.845
18922W        W91248   5.513  29.085   0.224
18923W        W91249  23.583  16.694   4.565
18924W        W91250  35.195  38.930  12.481
18925W        W91251  16.190  27.476  14.209
18926W        W91252  21.450   6.438   3.149
18927W        W91253  11.663  20.561   2.209
18928W        W91254  14.613  14.598   0.830
18929W        W91255  29.641   3.329  11.498
18930W        W91256  14.194  44.387  11.983
18931W        W91257  11.156  18.253   0.380
18932W        W91258   3.498   5.414   4.243
18933W        W91259  31.490   3.822  13.589
18934W        W91260   9.239   6.617  12.090
18935W        W91261  43.966  26.606   3.152
18936W        W91262  26.646  16.153   2.722
18937W        W91263   5.266  43.530  13.028
18938W        W91264  35.153  19.122  14.903
18939W        W91265  29.906  42.855   1.362
18940W        W91266  37.415  10.233   5.061
18941W        W91267  17.740   9.737  14.379
18942W        W91268  43.419  37.250   1.914
18943W        W91269  15.792  13.998   1.755
18944W        W91270  42.518  12.605   4.207
18945W        W91271  28.027  29.231   5.149
18946W        W91272   6.750  17.650   3.969
18947W        W91273  10.409   9.777  13.036
18948W        W91274  19.316  42.512   3.220
18949W        W91275  26.104  28.016  12.435
18950W        W91276   0.358  23.989   4.417
18951W        W91277  34.906  10.661  13.340
18952W        W91278  21.624   0.739   3.420
18953W        W91279   0.227   0.996   3.741
18954W        W91280   5.332   5.247  14.496
18955W        W91281  44.493   9.210   4.702
18956W        W91282  35.780  11.785   3.652
18957W        W91283  20.275   0.829   3.747
18958W        W91284   4.686  26.957   0.995
18959W        W91285  22.358  24.719  11.538
18960W        W91286  41.639  32.540  14.472
18961W        W91287   7.010  19.800  13.989
18962W        W91288  22.064  38.933   1.597
18963W        W91289  22.966   8.908  12.779
18964W        W91290  22.593  10.141  11.406
18965W        W91291  26.246  36.370  12.168
18966W        W91292  28.216   8.090   2.880
18967W        W91293   4.260  22.123  12.528
18968W        W91294  37.932  32.740   3.845
18969W        W91295  42.497  28.987  12.971
18970W        W91296  43.456  33.599   1.927
18971W        W91297   4.254  39.333  11.236
18972W        W91298  34.029  23.485  11.817
18973W        W91299  25.648  18.008   1.109
18974W        W91300   6.755  16.163   3.830
18975W        W91301  14.719  25.191  12.021
18976W        W91302  37.537  22.761   0.825
18977W        W91303  39.056   1.189  14.884
18978W        W91304  20.310  13.795   2.498
18979W        W91305  36.362   8.377   2.766
18980W        W91306  32.630  12.366  12.517
18981W        W91307  29.795   2.211  12.020
18982W        W91308  22.270  28.709  12.553
18983W        W91309   4.345  42.957  11.950
18984W        W91310  27.018  15.162  11.296
18985W        W91311  32.834   0.664   4.791
18986W        W91312  41.570   4.287   1.466
18987W        W91313  28.579   3.513   2.873
18988W        W91314  29.198  36.985  13.004
18989W        W91315  42.441   4.649   1.042
18990W        W91316  36.624  13.664  11.345
18991W        W91317  29.019   1.987   0.857
18992W        W91318  17.667  14.409   4.692
18993W        W91319  17.822   4.712  14.909
18994W        W91320   3.503  36.489   2.911
18995W        W91321  15.951  10.483  14.773
18996W        W91322  19.099  40.570  11.428
18997W        W91323  35.996  11.193  12.568
18998W        W91324   9.448  20.185   0.577
18999W        W91325   6.904  42.913  10.610
19000W        W91326   9.095  15.883  12.649
19001W        W91327  38.404  41.773   4.783
19002W        W91328   4.852   5.415  14.691
19003W        W91329   9.142  30.903  11.604
19004W        W91330  43.838   9.797   4.530
19005W        W91331  15.875  40.004   2.264
19006W        W91332  31.117  15.993   1.800
19007W        W91333  17.083  24.959  12.298
19008W        W91334  15.572   8.111   1.473
19009W        W91335  15.219   5.467   0.918
19010W        W91336  23.155   7.345   2.161
19011W        W91337  16.329   1.248   0.356
19012W        W91338  39.408  16.887  12.540
19013W        W91339  43.246   9.308  13.893
19014W        W91340   7.444  32.668   4.506
19015W        W91341  25.492  26.116   1.363
19016W        W91342  12.907   1.764   0.397
19017W        W91343  32.995  23.161  10.634
19018W        W91344  31.934  41.509   3.398
19019W        W91345   6.584   3.185  12.033
19020W        W91346  29.654   7.852  13.992
19021W        W91347  21.473  15.145   2.634
19022W        W91348   6.285  44.434   2.861
19023W        W91349  40.884  17.615  12.164
19024W        W91350  30.617  17.225  10.955
19025W        W91351   9.726  22.159  11.405
19026W        W91352  32.332   3.855  10.658
19027W        W91353   3.707  23.672   3.663
19028W        W91354  20.083  16.660   1.519
19029W        W91355  21.687  14.372   4.611
19030W        W91356  31.516  34.110  13.377
19031W        W91357   4.511  34.930   2.238
19032W        W91358  28.748   0.303   2.675
19033W        W91359  30.380   7.261   2.161
19034W        W91360  29.150   2.729  12.456
19035W        W91361   1.759  24.740  11.036
19036W        W91362  19.075  40.556   0.458
19037W        W91363   5.507   3.015   3.922
19038W        W91364   8.705  26.622  11.147
19039W        W91365  43.907  17.906  14.801
19040W        W91366  36.876  37.340  10.291
19041W        W91367   3.002  37.343  13.151
19042W        W91368  43.987  15.154  10.807
19043W        W91369  15.058  29.830  11.614
19044W        W91370  20.747   1.367  13.446
19045W        W91371   9.760  38.728  13.403
19046W        W91372  20.343  13.912   0.219
19047W        W91373   8.884  16.787   0.725
19048W        W91374   1.132  33.734   1.711
19049W        W91375   0.354  36.563   3.216
19050W        W91376  12.187  29.835  10.567
19051W        W91377   9.265  31.849   4.639
19052W        W91378  12.943  29.485   4.201
19053W        W91379  15.137  19.829  12.370
19054W        W91380  38.096  37.046   2.812
19055W        W91381  11.392  19.780  11.046
19056W        W91382  21.198  39.844   3.903
19057W        W91383  19.611  21.308  11.610
19058W        W91384  31.606  25.249   0.017
19059W        W91385  17.431  44.535   2.319
19060W        W91386  37.731  23.179  14.094
19061W        W91387  29.444  16.363   1.157
19062W        W91388  31.561  12.734   0.738
19063W        W91389   0.409   6.414  14.412
19064W        W91390  33.128  43.280  11.177
19065W        W91391   6.928  37.452  14.424
19066W        W91392   3.002  44.847  13.346
19067W        W91393  34.148  42.864  14.799
19068W        W91394  15.120   5.737  14.411
19069W        W91395   7.288  28.178   2.885
19070W        W91396  18.975  36.104  11.600
19071W        W91397  41.455  44.781  14.814
19072W        W91398   7.043  21.131   0.268
19073W        W91399  31.988  34.284  10.850
19074W        W91400  13.061  19.542   3.682
19075W        W91401   0.243  31.499   4.567
19076W        W91402  42.924  32.678   9.983
19077W        W91403  31.611  38.529  12.892
19078W        W91404  22.148   5.957  11.087
19079W        W91405  13.869  20.369  13.081
19080W        W91406  18.154  24.020  12.487
19081W        W91407  33.410   6.272  14.438
19082W        W91408   7.062  20.437  14.021
19083W        W91409  30.211  32.634  12.313
19084W        W91410  24.893  12.699  10.867
19085W        W91411  22.834  23.704   2.751
19086W        W91412  32.450   2.402  11.626
19087W        W91413  14.779  31.563   4.399
19088W        W91414  32.489  19.281  12.991
19089W        W91415  40.449  28.761  12.093
19090W        W91416  41.951   6.927   3.730
19091W        W91417  32.939  19.673  12.050
19092W        W91418  19.659   2.632   1.778
19093W        W91419  25.450  37.750   5.133
19094W        W91420  43.834  16.804  11.532
19095W        W91421  12.748  30.648  14.925
19096W        W91422   7.624  22.493  10.681
19097W        W91423  17.665  28.024   2.776
19098W        W91424   6.385  44.409   0.852
19099W        W91425  24.761   7.383  14.057
19100W        W91426  22.633  34.411  11.065
19101W        W91427  31.951  27.157  11.433
19102W        W91428  15.272  42.316  14.495
19103W        W91429   4.413   6.321   4.526
19104W        W91430  22.983  23.683   4.538
19105W        W91431  22.105  33.425   4.641
19106W        W91432   4.332  39.030   3.133
19107W        W91433   3.302  44.914   4.126
19108W        W91434  12.196  19.772   1.816
19109W        W91435  12.582  16.223   2.388
19110W        W91436  23.070  43.422   4.721
19111W        W91437  18.077  22.671  12.433
19112W        W91438  14.336  38.787  10.644
19113W        W91439  25.818  17.316  12.598
19114W        W91440  43.991  21.089   2.625
19115W        W91441   7.211  42.048   2.384
19116W        W91442  14.073  23.043   3.078
19117W        W91443  27.817   4.981  13.536
19118W        W91444   4.977  42.057  12.945
19119W        W91445   6.365  42.551   1.352
19120W        W91446   9.099  37.735   2.659
19121W        W91447  35.696  29.600  10.715
19122W        W91448  22.599  36.804   1.360
19123W        W91449  10.835  25.396   0.295
19124W        W91450  12.445  13.494  10.948
19125W        W91451  12.617  26.561   5.407
19126W        W91452  11.220  27.035  10.106
19127W        W91453  21.542  43.740   2.800
19128W        W91454  36.654  44.092   1.291
19129W        W91455  29.646  22.657  10.273
19130W        W91456  30.668  34.412   4.214
19131W        W91457  16.371  25.210  10.642
19132W        W91458   3.345  41.822   2.754
19133W        W91459  13.414  36.270   4.178
19134W        W91460   8.751   7.745  12.396
19135W        W91461  43.900   6.431  10.723
19136W        W91462   5.467  35.398   1.018
19137W        W91463  21.069  15.676  13.054
19138W        W91464  27.156  21.041  14.827
19139W        W91465   6.156   2.909  12.097
19140W        W91466  23.972  40.258   2.226
19141W        W91467   3.927  26.453  12.107
19142W        W91468  20.655  44.301  14.825
19143W        W91469   9.876  23.481   4.920
19144W        W91470  34.001  31.839  13.341
19145W        W91471   3.752  18.136   3.703
19146W        W91472  32.491   9.817  12.244
19147W        W91473   9.684  11.437   3.872
19148W        W91474  32.502   9.327   0.273
19149W        W91475  18.140  29.644  11.800
19150W        W91476  27.483   2.755  12.929
19151W        W91477   1.250  34.410   0.760
19152W        W91478  26.257   7.412  12.987
19153W        W91479   6.467  43.406   2.288
19154W        W91480  35.720  16.126   1.358
19155W        W91481  33.838  42.713   0.220
19156W        W91482   4.727  42.025  11.666
19157W        W91483  14.065  33.280   3.770
19158W        W91484  17.548   3.952  13.709
19159W        W91485  17.771  14.755  14.859
19160W        W91486   9.703  22.528   4.515
19161W        W91487  16.243  41.610  11.082
19162W        W91488  31.960  33.652  11.465
19163W        W91489  18.593  25.946   3.173
19164W        W91490  12.822  15.722  12.109
19165W        W91491  21.285  33.441   4.237
19166W        W91492   7.237  35.004   0.973
19167W        W91493   4.337  18.728   2.124
19168W        W91494  37.259  20.032   0.869
19169W        W91495  26.583  44.987  10.391
19170W        W91496  27.236  13.538  12.793
19171W        W91497  35.658  27.057  13.872
19172W        W91498   4.103  14.798  11.125
19173W        W91499  40.857  43.942   1.891
19174W        W91500   0.407  40.908  11.476
19175W        W91501  44.976   2.498   1.947
19176W        W91502  43.069  36.002  14.527
19177W        W91503  33.483   5.775   1.251
19178W        W91504  20.052  17.158   1.762
19179W        W91505  26.261   6.435  11.354
19180W        W91506  33.583  14.364  10.713
19181W        W91507   4.829   4.746   1.391
19182W        W91508  13.925  23.419  10.739
19183W        W91509  19.605  42.139  12.059
19184W        W91510  16.119  24.992   2.134
19185W        W91511  32.857   6.274   2.671
19186W        W91512  12.358   2.920  12.060
19187W        W91513   0.530  25.008   5.043
19188W        W91514  35.873  25.290  12.548
19189W        W91515   3.805  31.705   2.967
19190W        W91516  11.855  22.558  13.616
19191W        W91517   7.532  39.875   0.724
19192W        W91518  23.159  30.092  12.075
19193W        W91519  12.270  26.632   0.724
19194W        W91520  31.950   6.484   5.019
19195W        W91521  19.831  36.459   3.152
19196W        W91522  39.157  16.759  13.130
19197W        W91523   1.788   7.010  13.867
19198W        W91524   9.871  13.444  14.852
19199W        W91525   4.469  12.016  14.756
19200W        W91526  11.138  25.984  12.666
19201W        W91527  31.174  18.114  11.029
19202W        W91528  18.695  21.775  13.437
19203W        W91529  37.189  12.476   4.466
19204W        W91530  41.980  30.144  13.910
19205W        W91531  32.712  16.185   0.348
19206W        W91532  14.353  10.860  14.412
19207W        W91533  23.212   2.368  11.112
19208W        W91534   7.277  36.071   4.605
19209W        W91535  35.260   0.309   2.637
19210W        W91536   9.713  39.077  11.235
19211W        W91537  36.415  24.777   5.040
19212W        W91538  36.058  33.406  11.411
19213W        W91539  16.007  33.002   3.000
19214W        W91540  16.501  13.578  12.055
19215W        W91541  21.137   4.415  11.127
19216W        W91542  41.769  17.017  10.004
19217W        W91543  30.199  33.342   0.850
19218W        W91544  41.527  29.704   3.903
19219W        W91545   8.245   4.026   0.355
19220W        W91546  34.780   4.904  12.083
19221W        W91547  41.524  20.214  14.387
19222W        W91548  13.639  10.743  12.352
19223W        W91549  16.327  12.103   3.183
19224W        W91550  27.650  29.882  14.938
19225W        W91551   7.434  26.582   3.666
19226W        W91552  23.548   3.071   3.112
19227W        W91553  12.893  25.615   1.855
19228W        W91554  34.570  18.043  10.422
19229W        W91555  18.799  19.057   2.780
19230W        W91556  13.094  25.419  13.997
19231W        W91557   5.657  25.868  12.069
19232W        W91558  25.644  27.621  10.569
19233W        W91559  13.262   8.113  10.597
19234W        W91560  24.179  30.304   3.594
19235W        W91561  39.933  39.091   2.121
19236W        W91562  17.827  36.963  11.602
19237W        W91563  36.092  35.971  11.440
19238W        W91564  13.029   9.099  11.741
19239W        W91565  42.650  22.993   2.778
19240W        W91566  31.869  12.350  13.719
19241W        W91567  25.458   4.214  11.161
19242W        W91568  12.210  20.196   2.156
19243W        W91569  20.068  41.933   1.437
19244W        W91570  38.895  26.309   1.979
19245W        W91571  14.812  35.322  12.585
19246W        W91572   5.488  29.935  11.033
19247W        W91573  11.345  21.811   0.466
19248W        W91574  33.039   8.151  13.974
19249W        W91575  23.086  39.528   9.775
19250W        W91576  13.122   1.484  12.927
19251W        W91577  27.944   8.851   1.397
19252W        W91578  16.717  15.046  11.386
19253W        W91579  34.871  29.602  13.929
19254W        W91580   8.520  39.026   0.472
19255W        W91581  24.539  14.239  14.797
19256W        W91582  16.901  41.025  12.932
19257W        W91583   5.716  40.399   4.045
19258W        W91584  13.652  42.764  11.894
19259W        W91585  28.167   8.736  12.481
19260W        W91586  28.541  11.369  10.644
19261W        W91587  40.542  17.183  13.370
19262W        W91588  25.409  27.047   1.410
19263W        W91589   3.423   7.296   2.133
19264W        W91590  14.175  12.649   1.913
19265W        W91591  35.690  24.790   4.192
19266W        W91592   8.856  18.289   1.117
19267W        W91593  19.175  28.219   2.841
19268W        W91594   6.917  39.898  14.797
19269W        W91595  31.965  35.878  12.840
19270W        W91596  14.334   9.714  14.681
19271W        W91597  11.209  39.484  14.451
19272W        W91598   7.238  27.665  12.955
19273W        W91599  10.145  15.456   0.290
19274W        W91600  38.598  42.870   0.790
19275W        W91601  22.549  44.900  14.409
19276W        W91602  39.401  18.305  11.207
19277W        W91603  42.252  18.827   3.760
19278W        W91604  33.725  13.843  10.248
19279W        W91605  30.563  44.221  10.500
19280W        W91606  27.603  12.707   4.671
19281W        W91607  32.534  27.947  13.820
19282W        W91608  22.005  20.060   3.741
19283W        W91609  25.177  37.417  14.050
19284W        W91610  22.391  20.147  12.133
19285W        W91611   0.776  41.970   2.811
19286W        W91612   2.362  29.564   0.733
19287W        W91613  40.317   9.512  14.744
19288W        W91614  43.006  43.872  10.650
19289W        W91615   2.548  38.719  10.112
19290W        W91616  28.848  43.884  12.247
19291W        W91617  33.076  16.023   4.605
19292W        W91618  40.472  12.243   2.913
19293W        W91619   0.599  20.025   1.863
19294W        W91620   2.643  41.470  11.024
19295W        W91621  30.198   1.065   0.446
19296W        W91622  30.653  18.807   3.117
19297W        W91623  14.265  19.603   0.890
19298W        W91624  27.932   5.842  14.829
19299W        W91625   2.533  21.507   4.597
19300W        W91626  39.104  42.941   3.597
19301W        W91627  31.502  19.721   0.693
19302W        W91628   9.638   6.468  13.841
19303W        W91629  13.266  13.138   1.975
19304W        W91630  38.444   4.874   3.773
19305W        W91631   2.344  30.570   2.074
19306W        W91632  39.136  36.495  14.133
19307W        W91633  17.557  21.504   1.416
19308W        W91634  41.104  27.942   4.677
19309W        W91635  27.627   5.882   1.234
19310W        W91636  36.902   2.929   1.444
19311W        W91637  18.270  17.780   1.951
19312W        W91638  12.864  19.159  12.478
19313W        W91639  44.282  30.923   2.271
19314W        W91640   7.876  42.952  14.494
19315W        W91641  22.185   1.059   4.696
19316W        W91642  43.623   7.462  12.570
19317W        W91643   2.869   8.232  13.455
19318W        W91644   1.445  10.630   4.241
19319W        W91645  13.561  30.266   2.216
19320W        W91646  18.196   9.204  12.879
19321W        W91647  21.795  37.646   4.122
19322W        W91648  32.757  40.132  10.185
19323W        W91649   1.134  27.005   2.818
19324W        W91650   6.262  42.046   1.265
19325W        W91651  13.835   0.614  13.549
19326W        W91652   8.291   8.626   2.653
19327W        W91653   2.917  12.695   1.294
19328W        W91654  32.612  32.594   3.602
19329W        W91655   7.318   5.636   0.729
19330W        W91656  32.453   9.126   0.758
19331W        W91657   6.874  30.185   1.788
19332W        W91658   1.918  17.120  12.534
19333W        W91659   0.724   1.154  13.791
19334W        W91660  16.148  14.050  12.897
19335W        W91661  31.113  38.998  12.600
19336W        W91662  26.381  22.572   2.537
19337W        W91663  30.371  12.237   3.743
19338W        W91664  26.493  21.904  13.024
19339W        W91665  12.835  21.821   3.261
19340W        W91666  31.003  14.207   5.006
19341W        W91667  29.614  11.603   1.456
19342W        W91668  36.436  35.519  10.263
19343W        W91669   9.734  19.951  13.900
19344W        W91670  14.746  21.120  14.686
19345W        W91671  38.084  39.884   0.578
19346W        W91672  34.681  38.409   1.629
19347W        W91673  36.560   5.085   1.864
19348W        W91674  14.658  16.580   2.933
19349W        W91675  24.114  14.446  14.612
19350W        W91676   9.310  34.128   4.693
19351W        W91677  36.370   6.477   4.140
19352W        W91678   9.178  20.148  12.677
19353W        W91679  41.754  38.293   1.610
19354W        W91680  26.265  42.254  12.893
19355W        W91681  12.245  23.973   1.647
19356W        W91682   2.867  35.619   1.883
19357W        W91683   2.791  30.112  12.983
19358W        W91684  22.670  42.394  12.564
19359W        W91685  33.843  15.422   3.107
19360W        W91686  30.167  39.000   0.733
19361W        W91687  24.593  28.849  10.698
19362W        W91688  34.584  21.431   3.053
19363W        W91689  16.303  26.248   1.809
19364W        W91690  25.247  24.023   4.514
19365W        W91691   3.767  29.460  14.547
19366W        W91692  22.818  13.061  12.111
19367W        W91693  23.371  43.583   3.381
19368W        W91694  34.103  19.099   4.448
19369W        W91695  12.266  15.704  13.514
19370W        W91696   8.934  18.106   0.592
19371W        W91697  44.835  39.564  10.591
19372W        W91698  40.530  44.506   4.633
19373W        W91699   4.818   8.392   4.086
19374W        W91700  31.180   7.461   1.873
19375W        W91701  25.065   7.236  12.486
19376W        W91702   7.854  38.128   1.684
19377W        W91703  29.782  33.465  11.902
19378W        W91704  15.795  12.155  12.541
19379W        W91705  44.920  11.081   3.276
19380W        W91706  17.288  34.643  13.299
19381W        W91707  22.247  29.148  11.553
19382W        W91708   3.923  40.656  14.011
19383W        W91709  21.571  39.585  14.008
19384W        W91710  18.107  22.450  11.970
19385W        W91711  17.834  39.452   3.140
19386W        W91712  20.540   7.645  11.611
19387W        W91713  42.606  10.600   4.116
19388W        W91714  37.807  34.184  12.059
19389W        W91715  24.069  28.451  13.355
19390W        W91716  44.107  25.021   3.993
19391W        W91717  13.289   3.104  11.996
19392W        W91718  17.170  41.129   4.646
19393W        W91719   4.346  21.782   1.572
19394W        W91720   8.831  41.045  12.989
19395W        W91721  20.577  11.090   3.009
19396W        W91722  38.301   6.529  12.854
19397W        W91723  38.802  25.893   4.008
19398W        W91724  24.570  25.690   4.717
19399W        W91725  14.795  13.029  14.473
19400W        W91726   4.985   0.910   4.200
19401W        W91727  36.120   1.158  14.615
19402W        W91728  44.932  19.565   1.075
19403W        W91729  27.274   4.123   1.053
19404W        W91730  41.940  34.966   1.935
19405W        W91731  32.697  18.581  13.367
19406W        W91732   2.650  18.954  12.098
19407W        W91733  42.354  29.166  10.645
19408W        W91734  31.381  43.415  12.494
19409W        W91735  30.502  11.629  14.240
19410W        W91736  15.342  16.120   3.188
19411W        W91737   4.299  17.313   0.041
19412W        W91738  27.293  44.026   4.650
19413W        W91739  35.158  24.217   0.757
19414W        W91740  30.453  43.815   3.644
19415W        W91741  32.025   0.449   4.425
19416W        W91742   1.815  31.195   3.985
19417W        W91743  12.022  12.645  12.052
19418W        W91744  14.093  40.610   1.927
19419W        W91745  26.537  15.098  13.992
19420W        W91746   2.032  32.482   4.679
19421W        W91747  30.491  30.112   2.198
19422W        W91748  23.011  41.958  10.494
19423W        W91749  39.202  32.903   3.448
19424W        W91750  40.643  22.948   0.564
19425W        W91751   4.697   5.778  14.339
19426W        W91752  38.492  23.268  13.996
19427W        W91753  37.505  38.796   4.635
19428W        W91754  28.080  29.008  14.540
19429W        W91755  36.834   3.425  14.326
19430W        W91756  19.640   3.371   4.773
19431W        W91757  34.782  42.227  11.814
19432W        W91758  36.516  30.476   3.602
19433W        W91759  28.003  33.832   2.768
19434W        W91760  38.905  19.871   4.735
19435W        W91761  14.552  33.325  12.518
19436W        W91762   2.880   0.665   2.754
19437W        W91763  34.217  28.433  10.576
19438W        W91764   5.459  13.689  11.594
19439W        W91765  28.891  41.801  12.475
19440W        W91766   8.359  38.418   0.377
19441W        W91767  35.109  31.615   2.841
19442W        W91768   3.698  40.874  10.980
19443W        W91769  33.039  40.050   2.657
19444W        W91770  13.599   7.662  11.450
19445W        W91771  24.483  14.235   0.777
19446W        W91772  37.896  25.276  14.757
19447W        W91773  36.979   4.260   1.643
19448W        W91774  33.453  12.598   2.657
19449W        W91775  23.098  37.843   0.436
19450W        W91776   9.014  25.779  14.537
19451W        W91777  36.116  36.337   0.351
19452W        W91778  39.849  26.411  11.102
19453W        W91779  23.938  30.371   2.745
19454W        W91780   1.041  28.469  12.082
19455W        W91781  22.709  38.783  14.524
19456W        W91782  37.100   2.449   1.467
19457W        W91783  34.259  12.747  11.159
19458W        W91784   7.840  11.396   0.749
19459W        W91785  31.558  22.110  12.622
19460W        W91786  19.739  34.043  11.753
19461W        W91787  18.127   1.207   0.399
19462W        W91788  13.305  38.172  11.752
19463W        W91789   2.983  38.013  13.302
19464W        W91790  34.326  36.429  12.913
19465W        W91791  22.926   5.361  13.006
19466W        W91792   0.440   6.161  14.897
19467W        W91793  43.935  40.374   3.382
19468W        W91794  25.470  40.972   1.235
19469W        W91795  23.856   8.593   5.038
19470W        W91796   1.517   9.893  10.712
19471W        W91797  21.032  16.922   4.583
19472W        W91798  37.022  16.770   4.787
19473W        W91799  44.022  33.635   0.911
19474W        W91800  31.888  41.776  11.027
19475W        W91801  37.985   3.951   1.315
19476W        W91802  34.334  33.101  13.675
19477W        W91803  34.500   7.058  14.609
19478W        W91804  27.529  28.904   2.408
19479W        W91805  32.127   9.635   2.050
19480W        W91806  22.957  17.177   3.564
19481W        W91807  29.899  23.132   3.235
19482W        W91808  22.590  13.358  11.135
19483W        W91809   9.088  24.425  13.986
19484W        W91810  21.705   6.732   3.593
19485W        W91811  37.512  24.608  14.011
19486W        W91812  37.980  23.960  12.924
19487W        W91813  26.972  42.277  14.108
19488W        W91814  24.729   0.694   4.611
19489W        W91815  36.501   3.557   4.108
19490W        W91816  22.145  30.666   2.316
19491W        W91817   7.426  20.280  12.052
19492W        W91818  31.237  42.956  10.448
19493W        W91819  26.685  22.378  14.945
19494W        W91820   4.432  43.451   2.361
19495W        W91821  20.138  21.762   4.838
19496W        W91822  34.021  31.076   4.663
19497W        W91823  40.732  15.170  12.842
19498W        W91824  12.617  18.209   3.900
19499W        W91825   3.194  18.736  12.980
19500W        W91826   9.770  43.787   0.489
19501W        W91827  24.608  26.367  12.856
19502W        W91828  16.069  15.023  11.990
19503W        W91829  11.634  44.787   1.924
19504W        W91830   1.004   1.293  14.723
19505W        W91831  39.268  12.432  11.715
19506W        W91832  28.400  40.646  14.531
19507W        W91833  29.086  13.841  13.754
19508W        W91834  20.285   9.420  14.766
19509W        W91835   8.007  20.216   1.851
19510W        W91836  17.763  29.389   1.497
19511W        W91837  39.418  32.840   1.282
19512W        W91838  14.651  44.231  11.836
19513W        W91839  40.678  24.945   3.271
19514W        W91840  11.825  15.580  13.798
19515W        W91841   2.809  33.023   3.873
19516W        W91842  25.896  20.166  11.143
19517W        W91843  38.516   3.935   3.764
19518W        W91844  44.449   3.424   0.340
19519W        W91845  41.713  36.401  13.488
19520W        W91846  40.476  15.639   0.418
19521W        W91847   4.360   7.784  14.716
19522W        W91848   1.456  40.343   0.808
19523W        W91849  23.632  31.385   2.907
19524W        W91850  18.079  11.907   2.683
19525W        W91851  39.260   3.491  13.446
19526W        W91852  24.712  26.630   1.227
19527W        W91853  38.607   8.354  12.092
19528W        W91854  40.741  41.844   3.162
19529W        W91855  16.984  14.227  13.013
19530W        W91856  29.909   3.461   1.685
19531W        W91857   2.829  34.087   1.365
19532W        W91858  17.047  10.664  11.928
19533W        W91859   8.299  41.894  12.537
19534W        W91860  37.987  31.443  14.710
19535W        W91861   1.776  40.263  12.833
19536W        W91862   8.277  16.101   3.882
19537W        W91863   0.949  25.457   1.041
19538W        W91864  10.685   1.044   3.745
19539W        W91865  21.971  37.326   3.141
19540W        W91866  27.047  30.833  13.940
19541W        W91867  41.418  12.551   0.316
19542W        W91868  43.637  34.431   1.604
19543W        W91869   1.979  14.935   4.683
19544W        W91870   6.913  18.710  11.612
19545W        W91871  11.142  18.831  13.408
19546W        W91872  25.617   1.790   3.012
19547W        W91873  23.686   9.573  13.077
19548W        W91874   0.788  22.530   9.930
19549W        W91875  31.035  29.964  14.057
19550W        W91876  39.303  18.565  13.411
19551W        W91877  35.235  10.712   4.504
19552W        W91878  20.875  36.328   2.217
19553W        W91879  22.677  41.560   1.986
19554W        W91880   8.243  13.427   3.211
19555W        W91881  27.005  44.006  13.767
19556W        W91882   2.321  15.298  12.161
19557W        W91883  44.690  38.609  12.489
19558W        W91884  28.503  43.464  10.488
19559W        W91885  29.795  18.439   1.155
19560W        W91886  38.036  42.297  12.462
19561W        W91887   8.979  39.698  11.168
19562W        W91888  37.301  35.542  11.216
19563W        W91889   0.414  24.018   3.906
19564W        W91890  43.281  18.812   3.757
19565W        W91891  38.082   5.491   1.420
19566W        W91892  21.621   9.783   0.816
19567W        W91893  39.073  37.017  11.734
19568W        W91894   2.816  28.159   0.779
19569W        W91895  41.042  20.512  11.465
19570W        W91896  29.288  44.391  10.439
19571W        W91897  26.036  19.960   1.706
19572W        W91898  32.485   1.705  12.096
19573W        W91899  39.661  11.263  14.828
19574W        W91900   0.937  36.910  14.803
19575W        W91901  15.882   5.678   3.769
19576W        W91902  38.393  32.037  10.880
19577W        W91903  43.375   9.333  12.944
19578W        W91904  16.270  26.987  14.356
19579W        W91905   8.831  20.320   3.798
19580W        W91906  28.132  22.528  12.975
19581W        W91907  27.470  41.734   1.758
19582W        W91908  28.914   5.367  11.515
19583W        W91909   2.303   6.092   4.169
19584W        W91910  43.094  33.065   4.717
19585W        W91911   6.729  12.515  13.972
19586W        W91912  17.136  31.401  13.150
19587W        W91913  43.534   1.184  10.805
19588W        W91914  24.942   8.686  13.817
19589W        W91915  39.005  42.264  12.327
19590W        W91916  24.033  18.263  14.394
19591W        W91917  42.354  16.194   1.396
19592W        W91918  12.768  28.200   3.877
19593W        W91919   7.315   8.653   2.615
19594W        W91920  17.372  18.449   2.208
19595W        W91921  42.706   0.359   0.862
19596W        W91922  28.083  25.241   4.031
19597W        W91923   9.863  20.536  13.075
19598W        W91924  11.267  33.487  12.033
19599W        W91925   1.312  20.694  14.886
19600W        W91926  18.244   9.495  11.063
19601W        W91927  37.877  25.736  10.639
19602W        W91928  29.127   0.785  10.908
19603W        W91929   7.309   2.127  12.081
19604W        W91930  33.956  10.229  13.926
19605W        W91931  42.238   8.271  10.654
19606W        W91932  23.326  34.412  14.815
19607W        W91933  27.060  16.247  11.525
19608W        W91934   5.572   1.359   2.708
19609W        W91935   8.756  39.090   2.920
19610W        W91936  15.857  19.420   4.888
19611W        W91937  36.347  25.978  13.946
19612W        W91938  30.871   1.588   4.051
19613W        W91939   8.936  35.016  12.400
19614W        W91940  20.999   1.973  13.974
19615W        W91941  16.725   0.041  14.035
19616W        W91942  41.090  31.246   3.356
19617W        W91943  41.279  13.197  12.013
19618W        W91944   3.331  25.803   1.305
19619W        W91945  26.516  10.076   1.515
19620W        W91946   7.852   3.210  13.589
19621W        W91947  14.859   2.412   2.860
19622W        W91948  39.154  27.133  14.709
19623W        W91949  40.809  15.989   2.724
19624W        W91950  20.991  33.820  10.602
19625W        W91951   3.738  29.848   3.661
19626W        W91952  37.097  38.362   4.108
19627W        W91953   7.896   5.985   1.270
19628W        W91954  19.218  31.503   1.201
19629W        W91955  23.043  39.781  14.643
19630W        W91956  44.958  25.222  11.251
19631W        W91957  36.364  28.681  13.918
19632W        W91958   5.968   3.251  10.786
19633W        W91959  20.287   2.228  11.156
19634W        W91960  41.273  35.028   0.038
19635W        W91961  39.494  20.572   0.756
19636W        W91962  33.592   4.900   4.808
19637W        W91963   8.901  41.312   3.654
19638W        W91964  13.591  37.562   0.953
19639W        W91965  37.299  27.676   3.576
19640W        W91966  13.667   8.649   3.553
19641W        W91967  29.268   4.247   1.324
19642W        W91968  29.490   0.286  14.393
19643W        W91969  37.330  26.711  12.838
19644W        W91970   4.391  41.235  11.881
19645W        W91971  16.312   7.808   1.776
19646W        W91972  26.931  10.639   1.838
19647W        W91973  17.230  36.180   4.546
19648W        W91974  27.322  35.622  10.790
19649W        W91975   9.450  37.738   4.632
19650W        W91976  15.556   5.662  11.569
19651W        W91977  38.996  36.424   0.400
19652W        W91978  15.997  43.979   3.298
19653W        W91979   7.609  14.700   3.254
19654W        W91980  17.776   5.222   0.003
19655W        W91981  44.863  39.487   2.298
19656W        W91982  11.068   0.014   0.231
19657W        W91983   4.220   5.430   2.357
19658W        W91984   5.741  25.387  14.787
19659W        W91985   5.716   8.210  10.804
19660W        W91986  17.229  35.104   0.530
19661W        W91987  42.249  31.867   0.297
19662W        W91988  18.144  34.973   0.093
19663W        W91989   0.875   3.336  10.560
19664W        W91990  17.261  39.423   2.454
19665W        W91991  36.662  21.480  14.944
19666W        W91992  19.135  38.000  13.521
19667W        W91993  26.871  15.887   5.042
19668W        W91994   1.964  43.761  13.491
19669W        W91995  13.684  39.846  14.033
19670W        W91996  32.051  30.993   3.257
19671W        W91997  42.263   3.922   2.855
19672W        W91998  13.285  32.471   3.039
19673W        W91999  19.101  22.605   5.086
19674W        W92000  19.013  10.336  13.127
19675W        W92001  33.972  14.864   0.550
19676W        W92002  34.838  12.049   4.573
19677W        W92003  15.256  10.625   4.761
19678W        W92004   7.469  30.964   2.285
19679W        W92005  37.836  38.413   2.740
19680W        W92006  32.699  38.250   3.657
19681W        W92007  38.642   0.034   3.772
19682W        W92008  33.637  20.641   4.970
19683W        W92009  31.770  33.108  13.501
19684W        W92010   9.849  24.167  11.964
19685W        W92011  35.969  24.997  13.002
19686W        W92012  44.554   1.897   1.258
19687W        W92013   8.900  42.463  14.394
19688W        W92014  36.459  21.649   3.069
19689W        W92015  36.504   8.707   4.588
19690W        W92016   2.246  21.184  14.815
19691W        W92017  41.317   0.953  11.077
19692W        W92018  24.884  31.663   3.351
19693W        W92019   5.201  31.344   2.848
19694W        W92020  33.984  35.146  13.165
19695W        W92021  18.478  44.999  11.125
19696W        W92022  18.212  38.182   3.584
19697W        W92023  13.950  16.048  14.359
19698W        W92024  25.975  42.819  12.212
19699W        W92025   1.822   5.792   3.224
19700W        W92026   5.208  34.879   0.610
19701W        W92027   0.167  18.824  13.972
19702W        W92028  16.395   7.272  11.644
19703W        W92029   7.380  18.059   0.650
19704W        W92030  37.342   9.831  13.992
19705W        W92031  22.551  38.455   0.329
19706W        W92032   1.648  18.723  14.154
19707W        W92033  27.073  40.250  12.047
19708W        W92034  36.884  18.662  12.656
19709W        W92035  35.245   7.426  11.714
19710W        W92036   0.876  38.799  12.485
19711W        W92037  22.716  14.489   4.554
19712W        W92038  40.830  22.650   2.543
19713W        W92039  29.599  34.663  10.568
19714W        W92040  44.449   6.414  14.481
19715W        W92041  29.128  25.658   4.746
19716W        W92042  18.217  25.581  11.946
19717W        W92043  18.075   9.647   0.029
19718W        W92044  40.121  22.695  10.567
19719W        W92045  10.813  24.937   1.053
19720W        W92046  40.826  19.060  13.448
19721W        W92047  36.842  39.293  12.258
19722W        W92048  29.913  27.086  14.614
19723W        W92049  33.808   4.358   2.684
19724W        W92050  20.708  42.101   0.776
19725W        W92051   9.164   4.733   2.773
19726W        W92052  16.529  15.861   1.277
19727W        W92053  39.989   6.050  14.171
19728W        W92054  10.738   3.145   3.137
19729W        W92055  38.904  36.968  11.248
19730W        W92056  38.821  26.267  14.685
19731W        W92057  35.402  30.607   0.534
19732W        W92058  11.730  35.344  11.210
19733W        W92059  14.165  17.042   1.725
19734W        W92060  30.741   0.892   4.709
19735W        W92061   3.756  43.026  10.605
19736W        W92062  35.899  21.625  13.902
19737W        W92063  14.721  17.020   2.675
19738W        W92064  25.920  29.246   2.295
19739W        W92065  13.765  22.198  14.666
19740W        W92066  22.655  12.054   4.130
19741W        W92067   7.263   8.836  14.687
19742W        W92068  17.265  40.625  13.948
19743W        W92069  17.337  44.907   2.695
19744W        W92070   2.019  16.255   4.658
19745W        W92071  22.625   6.465  14.969
19746W        W92072  28.067  42.074   0.500
19747W        W92073  16.136  29.565   2.185
19748W        W92074  24.005  31.576   1.804
19749W        W92075  43.100  32.106   0.723
19750W        W92076  16.020  21.661  14.430
19751W        W92077  44.974  20.655  13.872
19752W        W92078  37.850   5.476   1.913
19753W        W92079  35.491  33.877  13.326
19754W        W92080  13.911  13.586  14.442
19755W        W92081  41.212  20.360   2.766
19756W        W92082  26.459  18.535   4.630
19757W        W92083  42.976  27.269   0.443
19758W        W92084   1.469  29.373  13.913
19759W        W92085   8.949  32.585  12.507
19760W        W92086  24.198  39.759  14.773
19761W        W92087   8.368  40.359   1.506
19762W        W92088   8.858  29.900  13.326
19763W        W92089   8.499   0.900  14.425
19764W        W92090   4.721  22.871   4.251
19765W        W92091  42.059  21.475  13.349
19766W        W92092   2.016  37.598  11.102
19767W        W92093  43.600   3.511  13.019
19768W        W92094  23.527   5.829   4.612
19769W        W92095  26.796  31.435  11.057
19770W        W92096  22.976  39.507   4.199
19771W        W92097  16.209  33.806  13.062
19772W        W92098  14.554  27.677  13.352
19773W        W92099   0.399  18.230   3.413
19774W        W92100  16.369  17.262  13.430
19775W        W92101  32.898  22.574   2.766
19776W        W92102   4.885  16.630   2.112
19777W        W92103  15.635  14.465   2.663
19778W        W92104  15.543   2.274  14.364
19779W        W92105  17.542  13.239   0.828
19780W        W92106  28.965   9.433   1.239
19781W        W92107  20.048  31.335  10.791
19782W        W92108  25.494  21.494   3.089
19783W        W92109  28.213  11.683  11.009
19784W        W92110  25.746   3.343   3.849
19785W        W92111  18.331  25.151  14.033
19786W        W92112  38.570   1.204   2.343
19787W        W92113  43.667  35.169   4.206
19788W        W92114   6.742  35.921   2.832
19789W        W92115   5.426   6.778  10.510
19790W        W92116  26.264   0.804  14.426
19791W        W92117  13.514  28.999  11.148
19792W        W92118  22.244  40.857  11.916
19793W        W92119   6.875  29.672   1.736
19794W        W92120  26.865  35.890   2.649
19795W        W92121  12.644  29.695   1.437
19796W        W92122  28.628  25.610   0.027
19797W        W92123   4.900   0.737  14.903
19798W        W92124  20.237   5.900   4.634
19799W        W92125  33.026   3.162   4.546
19800W        W92126   2.103  17.265   3.456
19801W        W92127  20.209   0.461  10.758
19802W        W92128  39.801  39.444   4.176
19803W        W92129  20.668  40.758  10.945
19804W        W92130  26.100  26.260   3.175
19805W        W92131   9.927   3.979  13.944
19806W        W92132   2.773   8.682  10.133
19807W        W92133  40.432  18.153   0.241
19808W        W92134  16.554  35.587  12.350
19809W        W92135  23.159  16.910  12.401
19810W        W92136  22.298  30.864   3.705
19811W        W92137  23.102  40.583  12.907
19812W        W92138  28.918  29.125  13.057
19813W        W92139  19.934  22.673  14.447
19814W        W92140  13.683  28.972   4.128
19815W        W92141  44.280   5.870   1.338
19816W        W92142  43.325  29.011   2.425
19817W        W92143   8.418  27.625  12.486
19818W        W92144  34.731  42.400   3.110
19819W        W92145  38.405   5.855  14.743
19820W        W92146   2.117  26.464   0.356
19821W        W92147  11.067  10.280   1.855
19822W        W92148  16.323  11.839   0.793
19823W        W92149  37.005  11.496  12.473
19824W        W92150  44.006  36.481  13.732
19825W        W92151  18.550  25.234  12.101
19826W        W92152  21.181   6.108  14.745
19827W        W92153  10.622  10.274   3.218
19828W        W92154   8.193  13.923   3.080
19829W        W92155  42.760  27.831  12.067
19830W        W92156   7.939  21.211   0.842
19831W        W92157  21.191   8.734  14.996
19832W        W92158  34.121  28.108   1.271
19833W        W92159  15.848  22.649  14.832
19834W        W92160  38.875  42.193   3.113
19835W        W92161  23.020  42.816   4.060
19836W        W92162  37.089  44.395   4.149
19837W        W92163  31.468   2.683  13.636
19838W        W92164  29.946  11.270  12.885
19839W        W92165  28.998  24.769   4.125
19840W        W92166  11.704  17.323  11.502
19841W        W92167  17.026  33.083  11.628
19842W        W92168  27.667  12.165   0.942
19843W        W92169  22.429  11.388  12.381
19844W        W92170  41.803  22.616  14.561
19845W        W92171  36.370  37.860   2.922
19846W        W92172   0.354  12.653   0.430
19847W        W92173  37.068  21.693   0.567
19848W        W92174  44.646  37.854   0.728
19849W        W92175  32.476  40.338   4.726
19850W        W92176  40.537  16.954  10.511
19851W        W92177  17.265  16.646  12.532
19852W        W92178  27.202  44.853  14.760
19853W        W92179  44.498   5.951  12.374
19854W        W92180   6.293  16.204   1.474
19855W        W92181  12.324  24.693   4.703
19856W        W92182   9.213   6.825   0.869
19857W        W92183  35.051  18.585   2.606
19858W        W92184   7.302  16.989  13.146
19859W        W92185   0.939  27.577   1.276
19860W        W92186  41.985  11.591  14.202
19861W        W92187  26.734   1.931  11.556
19862W        W92188  29.021  11.126  12.887
19863W        W92189  18.750  28.213   4.178
19864W        W92190  16.328  16.184  14.910
19865W        W92191  40.011  10.255   4.119
19866W        W92192  40.268  44.283   3.673
19867W        W92193   5.687   3.070   2.656
19868W        W92194  18.862  34.632   1.255
19869W        W92195  29.054  44.948   3.364
19870W        W92196  29.404  24.754   2.320
19871W        W92197   6.283  20.602  14.833
19872W        W92198  14.084  20.458  14.884
19873W        W92199  14.774  41.178   2.825
19874W        W92200  10.221  24.145   1.825
19875W        W92201  28.527  23.701  11.899
19876W        W92202   1.136  26.382  10.359
19877W        W92203  31.063   0.364   2.848
19878W        W92204  44.530  26.890  14.991
19879W        W92205  44.551  16.875  12.052
19880W        W92206  14.991  33.957  13.267
19881W        W92207  15.836  11.377  14.047
19882W        W92208  43.176  23.994  11.946
19883W        W92209  15.834   9.272   0.903
19884W        W92210  16.183   2.082   3.626
19885W        W92211  21.769   1.394  11.368
19886W        W92212  13.903  13.070   0.784
19887W        W92213  28.115  26.368   4.590
19888W        W92214   0.885  19.713   2.383
19889W        W92215  12.720  31.106   1.617
19890W        W92216  29.343  34.238  12.542
19891W        W92217   3.743   7.638   1.903
19892W        W92218  34.442  34.878  14.797
19893W        W92219  16.408  20.326   1.209
19894W        W92220  39.179  27.572  13.972
19895W        W92221  23.207  30.879  13.716
19896W        W92222  23.421   2.375   0.805
19897W        W92223  20.149  16.780  14.487
19898W        W92224  19.306  41.967   4.189
19899W        W92225  18.671  40.275  11.213
19900W        W92226  41.863  36.939  12.043
19901W        W92227  14.103  38.907   2.800
19902W        W92228  17.307   5.923   0.374
19903W        W92229  26.660  38.678  10.593
19904W        W92230  20.822  43.836  13.811
19905W        W92231   2.936  44.986  11.090
19906W        W92232  11.103  23.164   3.794
19907W        W92233  29.725  27.417   3.387
19908W        W92234  19.863  26.056   3.623
19909W        W92235  11.841  13.131  13.152
19910W        W92236  11.918  15.097   4.618
19911W        W92237  33.593  19.076  14.938
19912W        W92238  38.346   5.256   2.792
19913W        W92239  13.892   8.485  14.410
19914W        W92240   0.334  17.110   0.376
19915W        W92241  44.745  28.465   3.139
19916W        W92242  25.151  38.157  10.878
19917W        W92243  37.522  26.073  14.510
19918W        W92244  40.889  35.362   0.041
19919W        W92245  30.907   3.167  11.195
19920W        W92246   6.679  34.339  10.464
19921W        W92247  33.998  42.985   2.358
19922W        W92248   5.107  44.214  10.313
19923W        W92249   4.496   2.492  11.422
19924W        W92250  37.928   0.395  13.131
19925W        W92251  36.424   9.785   2.923
19926W        W92252  18.666   7.385  12.045
19927W        W92253  33.130  29.647   4.929
19928W        W92254  42.942   9.276   3.329
19929W        W92255   0.826  38.961   0.270
19930W        W92256  42.311  35.026   1.212
19931W        W92257  10.707   1.962  11.670
19932W        W92258  29.002  40.430  11.543
19933W        W92259  24.417  38.908   0.009
19934W        W92260   4.404  14.645   0.818
19935W        W92261  25.413  26.495   2.640
19936W        W92262  43.013  38.509   1.355
19937W        W92263  30.521  25.810   5.103
19938W        W92264  22.112  40.165  13.643
19939W        W92265  11.763  12.577  10.684
19940W        W92266   6.795   4.869  13.053
19941W        W92267  31.227   7.371  11.065
19942W        W92268  24.978   8.848   4.287
19943W        W92269  23.947   9.974  13.286
19944W        W92270  20.101  38.627  14.967
19945W        W92271   9.427  25.387  10.437
19946W        W92272   6.447  16.892  11.241
19947W        W92273  20.605  20.589  12.308
19948W        W92274  34.953  31.924  12.977
19949W        W92275   0.375  22.684  11.844
19950W        W92276  10.662  14.522   4.702
19951W        W92277  41.729   6.230  10.756
19952W        W92278  29.405  28.063  14.026
19953W        W92279  11.298   8.611  11.436
19954W        W92280  34.958  20.313  12.405
19955W        W92281  43.892  10.114   0.871
19956W        W92282   6.622  17.553   4.458
19957W        W92283  12.068  22.088  14.217
19958W        W92284  30.818   2.467   4.968
19959W        W92285  22.576  12.073   0.332
19960W        W92286   6.136  27.137   0.408
19961W        W92287  25.165  23.433   0.792
19962W        W92288  18.760  13.774  13.126
19963W        W92289  43.336  28.401  10.973
19964W        W92290  10.771   2.247   4.534
19965W        W92291  26.603  34.892   0.992
19966W        W92292   5.414  27.705  14.948
19967W        W92293  18.520  28.023  14.451
19968W        W92294  39.981  38.153  12.850
19969W        W92295  24.547   5.398  14.876
19970W        W92296  30.174   5.203  11.049
19971W        W92297   6.691   4.809   0.781
19972W        W92298  24.234  11.137   4.332
19973W        W92299  33.540   1.163  10.388
19974W        W92300   2.745   7.681   0.705
19975W        W92301   9.293  28.039   4.043
19976W        W92302  42.216  19.249  14.439
19977W        W92303  41.390  32.731   3.990
19978W        W92304  26.692  27.600  12.811
19979W        W92305  25.358  35.127  11.010
19980W        W92306  12.840   8.196   4.629
19981W        W92307  44.490  42.395   1.738
19982W        W92308  29.972   3.305  11.130
19983W        W92309  27.144  27.671   0.402
19984W        W92310  11.777  28.370   1.049
19985W        W92311  22.208  36.897  12.080
19986W        W92312   7.060  19.147   1.996
19987W        W92313  40.535  24.013   2.443
19988W        W92314  42.587   4.879   1.522
19989W        W92315  22.279  37.193   3.651
19990W        W92316   5.075  35.045   1.083
19991W        W92317  13.264  30.095   1.333
19992W        W92318  24.239  39.471  13.361
19993W        W92319  31.133   3.857   1.257
19994W        W92320  33.404   0.804  12.575
19995W        W92321  32.435   4.340  11.595
19996W        W92322  22.995  38.322  14.416
19997W        W92323  29.885   2.810   2.285
19998W        W92324   9.721  19.727  10.760
19999W        W92325  31.718   7.793   2.315
20000W        W92326  21.088  38.142  14.160
20001W        W92327  32.519  13.051  12.627
20002W        W92328  24.608   2.357   3.756
20003W        W92329   0.336   6.995   4.659
20004W        W92330  30.580  15.123  13.143
20005W        W92331  43.061  31.690   3.749
20006W        W92332  14.591   3.856  12.493
20007W        W92333  38.338  12.779   3.735
20008W        W92334  30.035  41.192  14.001
20009W        W92335  15.638   8.501   2.515
20010W        W92336  38.135  35.554  10.791
20011W        W92337  21.537   6.487   4.014
20012W        W92338  35.775  18.467   1.440
20013W        W92339  25.480   4.780  14.638
20014W        W92340  11.861  43.917   2.419
20015W        W92341  23.627  26.311  14.310
20016W        W92342  17.617  32.621  14.905
20017W        W92343   2.708  12.303   9.571
20018W        W92344  41.776  28.409  10.729
20019W        W92345   5.904  37.102  11.755
20020W        W92346  20.407  14.832   1.704
20021W        W92347  32.868  29.388  11.416
20022W        W92348   9.064  24.078  14.945
20023W        W92349  25.650  16.696   4.123
20024W        W92350  19.010  14.395  14.469
20025W        W92351  36.362   7.309   0.242
20026W        W92352  29.024  12.872   3.342
20027W        W92353   0.483   5.509   1.123
20028W        W92354  22.160  27.340   3.322
20029W        W92355   0.415   3.480  12.437
20030W        W92356  13.754  15.795  14.782
20031W        W92357  20.279  14.213   2.864
20032W        W92358  15.112  22.295  14.005
20033W        W92359   7.321  20.001   0.838
20034W        W92360   7.882   9.854   4.608
20035W        W92361   1.235  14.138  13.352
20036W        W92362   3.510  26.220  13.510
20037W        W92363  17.196  31.944   0.866
20038W        W92364  24.058   5.137   4.194
20039W        W92365  11.212  31.910  10.991
20040W        W92366  25.174   3.845   1.251
20041W        W92367  15.023  23.973   3.171
20042W        W92368  37.484  23.696  14.811
20043W        W92369  44.776   6.865   3.530
20044W        W92370  39.769  31.367  12.740
20045W        W92371  26.556  36.617   1.212
20046W        W92372  30.481  38.004  10.908
20047W        W92373  29.547  14.306   5.378
20048W        W92374   4.436  31.946  11.926
20049W        W92375  36.320  18.287   2.805
20050W        W92376  23.931   6.153  10.287
20051W        W92377  25.008  37.544   2.406
20052W        W92378  39.015  38.037  11.672
20053W        W92379   5.348   7.854   4.560
20054W        W92380  42.978  20.081  10.425
20055W        W92381  12.660  34.434   0.188
20056W        W92382  34.860  41.545   3.384
20057W        W92383  41.417  44.251   3.304
20058W        W92384  39.263   0.420   4.197
20059W        W92385  19.238  17.407  12.465
20060W        W92386   2.026   5.769   3.702
20061W        W92387  19.762  43.080  13.027
20062W        W92388   1.432   8.770  12.332
20063W        W92389   7.155  24.199   1.424
20064W        W92390   4.694  16.102  14.311
20065W        W92391   9.323  44.721  10.235
20066W        W92392  20.591  41.902   4.768
20067W        W92393   7.091  20.170  11.200
20068W        W92394  20.747  30.468   2.298
20069W        W92395  42.297  12.358  11.964
20070W        W92396  29.699  44.159  10.715
20071W        W92397  21.190  13.318  11.199
20072W        W92398  31.505  22.036  14.583
20073W        W92399  26.746  43.809   0.312
20074W        W92400  43.593  13.510   4.974
20075W        W92401   1.769  29.454  14.422
20076W        W92402  41.303   1.596   2.367
20077W        W92403  30.554  43.446   1.016
20078W        W92404  21.053  19.801   1.533
20079W        W92405  14.672   4.718   3.123
20080W        W92406  20.015  33.388  11.641
20081W        W92407   3.213   7.370  10.692
20082W        W92408  35.838  26.392   3.685
20083W        W92409  27.359   6.198  14.429
20084W        W92410  11.710   2.222  10.503
20085W        W92411  22.092  29.188   2.372
20086W        W92412  35.244  11.653  12.066
20087W        W92413   7.732  28.741  11.698
20088W        W92414  20.001  34.995  13.894
20089W        W92415  22.614  23.740  12.865
20090W        W92416   1.395  35.025   4.983
20091W        W92417  27.008  44.058  10.634
20092W        W92418  18.812  35.816  10.738
20093W        W92419   2.800  33.364  12.454
20094W        W92420  17.011  30.292  14.535
20095W        W92421  27.227  11.133  13.818
20096W        W92422  31.908  18.142  12.090
20097W        W92423  19.299  15.285  12.815
20098W        W92424  43.941  19.301   2.273
20099W        W92425  44.507  44.378  14.718
20100W        W92426  34.525   0.833  14.843
20101W        W92427  30.238  35.055  13.266
20102W        W92428   8.587   1.656   2.838
20103W        W92429   4.866  30.101   0.859
20104W        W92430  12.154  21.751   1.068
20105W        W92431   3.306  35.072   0.054
20106W        W92432  31.204  42.055   4.803
20107W        W92433  41.237  29.518  13.644
20108W        W92434  19.787   2.996  12.555
20109W        W92435  33.040  14.908   2.863
20110W        W92436   6.951  34.977   4.297
20111W        W92437   5.429  37.097   1.907
20112W        W92438  27.244  39.486   4.761
20113W        W92439  43.780  43.089  12.507
20114W        W92440  31.502  44.772   2.882
20115W        W92441  27.061   7.634   4.114
20116W        W92442  17.818  38.368  11.553
20117W        W92443  40.214   3.228  10.346
20118W        W92444   1.478   6.254   4.335
20119W        W92445  36.551  30.941  12.938
20120W        W92446   9.875  22.548  11.120
20121W        W92447  14.648  11.892   2.409
20122W        W92448  11.144  15.471   3.789
20123W        W92449  44.215  32.377  11.485
20124W        W92450  38.796  28.179   2.352
20125W        W92451   5.981  14.149  12.893
20126W        W92452   1.322   3.142   1.213
20127W        W92453  13.637  13.349  11.145
20128W        W92454  27.552  27.404   0.185
20129W        W92455  29.471  16.526   4.520
20130W        W92456  11.864  32.122   0.412
20131W        W92457  40.178  27.177   2.810
20132W        W92458   7.174  28.667   0.023
20133W        W92459  16.359   4.417   0.718
20134W        W92460  44.994  19.996   4.076
20135W        W92461   7.113  15.300  14.770
20136W        W92462  28.612  16.035  10.640
20137W        W92463   5.414   0.274  13.140
20138W        W92464  38.719  19.407  11.766
20139W        W92465  19.174  42.731   0.769
20140W        W92466   8.259  12.788  14.257
20141W        W92467  20.830  13.726  13.397
20142W        W92468   9.444  32.948  14.108
20143W        W92469  35.854   3.787  12.979
20144W        W92470  21.622   8.500  13.498
20145W        W92471  20.023   4.337  13.042
20146W        W92472  35.562  32.993  12.396
20147W        W92473   6.437  40.331  12.444
20148W        W92474  44.404  44.349   4.513
20149W        W92475   1.277   4.647   3.257
20150W        W92476  16.598  27.495  11.536
20151W        W92477   8.216  16.442   4.961
20152W        W92478  14.225  35.104   0.815
20153W        W92479  33.134  11.183  13.751
20154W        W92480  18.757  18.526   5.247
20155W        W92481  42.894  17.271  10.399
20156W        W92482  40.011  31.183   2.676
20157W        W92483  34.810  39.942  14.812
20158W        W92484  23.685  17.570   5.577
20159W        W92485  24.292  22.269  14.505
20160W        W92486  14.778  24.546   4.870
20161W        W92487  28.447   0.372  10.409
20162W        W92488  14.138  15.300   3.838
20163W        W92489  32.957  25.617  13.682
20164W        W92490  21.109   3.047   0.729
20165W        W92491   5.219  22.985   4.276
20166W        W92492   7.390  25.705   3.717
20167W        W92493  23.563  19.313   0.774
20168W        W92494  19.149  42.766   2.795
20169W        W92495   4.990  13.309   4.284
20170W        W92496   6.975  38.679   2.753
20171W        W92497  42.841  40.641  11.147
20172W        W92498  16.761  12.241  12.883
20173W        W92499  33.544   4.267   3.186
20174W        W92500   8.286  29.048   1.609
20175W        W92501   0.001   6.414   1.280
20176W        W92502  26.602  13.749   1.227
20177W        W92503  29.592  34.897  12.130
20178W        W92504   5.281   5.003   1.484
20179W        W92505  40.321  16.102   2.798
20180W        W92506   2.155   1.301  11.528
20181W        W92507   3.151  42.928  14.987
20182W        W92508  15.567  11.124   3.913
20183W        W92509  36.868  17.709  11.529
20184W        W92510   8.664  12.663  12.583
20185W        W92511   5.399  33.453  13.985
20186W        W92512  27.698  10.908   4.432
20187W        W92513  39.963  24.445   4.683
20188W        W92514  19.582  19.763   1.457
20189W        W92515  21.690   2.421  11.079
20190W        W92516  24.580  12.288  13.729
20191W        W92517  16.594  21.695   2.672
20192W        W92518  19.174   6.659   4.824
20193W        W92519  23.993  28.939   2.839
20194W        W92520  25.504   7.437  14.314
20195W        W92521  11.237   4.234   0.075
20196W        W92522  21.171  11.313   0.234
20197W        W92523  13.975  34.449  11.992
20198W        W92524  35.665   7.862  12.559
20199W        W92525  16.750   3.528  10.528
20200W        W92526  20.038  16.598  10.870
20201W        W92527  25.632  27.979  12.201
20202W        W92528  38.841   0.718   2.644
20203W        W92529  12.816  24.084  10.346
20204W        W92530  38.817  42.855  14.703
20205W        W92531  36.294  43.196   1.002
20206W        W92532   6.044  35.153  11.508
20207W        W92533  33.604  34.560   4.864
20208W        W92534  22.203   6.450   3.637
20209W        W92535  24.039   1.844  10.041
20210W        W92536   3.536  24.097   2.779
20211W        W92537  34.803  34.614  11.114
20212W        W92538  25.414   1.046  12.858
20213W        W92539  13.270   0.039   1.496
20214W        W92540   1.302  22.516  12.121
20215W        W92541  40.309   6.505  13.291
20216W        W92542  20.889  20.192  12.427
20217W        W92543   3.673   7.375  10.456
20218W        W92544   1.191  41.390  11.154
20219W        W92545   1.376  18.860  10.683
20220W        W92546  39.047  14.564   4.399
20221W        W92547  38.902   8.993  10.972
20222W        W92548  30.977   7.157  13.772
20223W        W92549   3.339   8.994  10.261
20224W        W92550   8.923   1.272  14.271
20225W        W92551   2.253  18.592  13.391
20226W        W92552  13.468  17.728   2.858
20227W        W92553  38.712  13.538  14.825
20228W        W92554  44.791  35.389  12.375
20229W        W92555  39.572  44.987  14.476
20230W        W92556  32.060  11.556  10.688
20231W        W92557  25.458  27.664   3.874
20232W        W92558  27.214  12.787   0.475
20233W        W92559  32.388  16.877  11.634
20234W        W92560  32.224  33.573   1.720
20235W        W92561  39.805  30.930  11.127
20236W        W92562  37.545  26.834   4.168
20237W        W92563  40.632   1.764   2.589
20238W        W92564  36.417  33.839  11.784
20239W        W92565  13.778   5.703   2.272
20240W        W92566  40.066  34.505  12.952
20241W        W92567   5.044  10.254   3.237
20242W        W92568  37.076  44.436  14.875
20243W        W92569  10.717  41.774  12.338
20244W        W92570  32.730  26.978   4.554
20245W        W92571  17.165  14.326   2.146
20246W        W92572  44.250  44.946   3.865
20247W        W92573  30.556  16.044  13.385
20248W        W92574   6.505  23.395  11.931
20249W        W92575   0.296  33.027   4.059
20250W        W92576  28.809  17.320  12.971
20251W        W92577   2.897  34.151  10.595
20252W        W92578  18.271   3.519  10.771
20253W        W92579  10.710  16.191   4.091
20254W        W92580   8.726   2.935   2.943
20255W        W92581  13.386  26.630   1.322
20256W        W92582  10.373  33.244  11.529
20257W        W92583  31.867  43.246  12.548
20258W        W92584  38.770  36.845   3.937
20259W        W92585  36.418  30.347  12.058
20260W        W92586  17.146  20.168  13.920
20261W        W92587   9.588  16.539  10.554
20262W        W92588  18.360  27.884  11.547
20263W        W92589  44.758  36.892   1.706
20264W        W92590  42.482  21.744  12.598
20265W        W92591   0.048  19.575   2.850
20266W        W92592  30.931   5.653  14.174
20267W        W92593  16.976  33.869  12.465
20268W        W92594  30.403  33.407   2.257
20269W        W92595  43.823  34.735  11.977
20270W        W92596  17.173   4.027   4.218
20271W        W92597  22.178  17.771  12.513
20272W        W92598   6.143  23.713   3.590
20273W        W92599  29.064  19.601   0.212
20274W        W92600   6.784  36.335  12.189
20275W        W92601  35.375  33.389   0.163
20276W        W92602  35.351  43.418  12.370
20277W        W92603   6.213  24.194  12.454
20278W        W92604  34.127  20.263  12.177
20279W        W92605  38.107  17.428  11.055
20280W        W92606  40.207  19.754  10.987
20281W        W92607  37.641  39.843  11.950
20282W        W92608  31.522   5.413   1.682
20283W        W92609  33.818  39.080  12.429
20284W        W92610  23.108   4.153  11.076
20285W        W92611  28.199  27.461  12.978
20286W        W92612   2.339   9.379  10.895
20287W        W92613  18.796  22.403  11.558
20288W        W92614  13.199  19.379   3.193
20289W        W92615  26.947  31.074   3.255
20290W        W92616  39.326   8.367   3.358
20291W        W92617   0.757  28.038   3.244
20292W        W92618   8.911  17.339   5.059
20293W        W92619  17.437   9.434   4.633
20294W        W92620  14.920  17.556   2.762
20295W        W92621  23.286  18.722   3.747
20296W        W92622  28.260  19.708  14.407
20297W        W92623  14.212  38.827  13.023
20298W        W92624  20.215  29.055  14.478
20299W        W92625  25.604  21.246   1.955
20300W        W92626   5.599  26.604   1.361
20301W        W92627   4.850  33.021  10.568
20302W        W92628  39.071  22.191   4.416
20303W        W92629  24.594  28.962   2.655
20304W        W92630  11.429  21.140  11.990
20305W        W92631  10.633   1.264  14.756
20306W        W92632   2.067  20.179  13.309
20307W        W92633   4.934  12.268  12.116
20308W        W92634  13.363  43.384  11.251
20309W        W92635  13.144  15.724  10.629
20310W        W92636  27.673  33.098  13.865
20311W        W92637   6.673  17.208  11.617
20312W        W92638  29.063  34.177  12.971
20313W        W92639  20.739  15.535   0.398
20314W        W92640  11.791   1.360  12.455
20315W        W92641   2.844   1.092   0.960
20316W        W92642  35.490  33.894   0.265
20317W        W92643  13.760  37.269   2.683
20318W        W92644  22.718   3.998  11.738
20319W        W92645  11.476  26.162  10.713
20320W        W92646  14.251  13.758  10.695
20321W        W92647  30.087   8.374  11.586
20322W        W92648  15.133  41.019   3.745
20323W        W92649  25.456  31.038   3.110
20324W        W92650   3.374   7.195  13.419
20325W        W92651  35.397   4.791   2.143
20326W        W92652  23.289   0.863  11.602
20327W        W92653  10.220  40.384   1.343
20328W        W92654  17.655  25.270   2.955
20329W        W92655   9.247  10.842   1.811
20330W        W92656  13.430  13.610   3.153
20331W        W92657  31.945   8.242   2.179
20332W        W92658  10.346  22.182  14.014
20333W        W92659  37.284   9.479  10.124
20334W        W92660   2.475  39.860  11.159
20335W        W92661  22.088   6.356  13.754
20336W        W92662   6.674  26.485  13.967
20337W        W92663  24.678  30.639  11.962
20338W        W92664   3.403  19.434   1.614
20339W        W92665  38.143  27.477  12.521
20340W        W92666  17.158  37.541  10.173
20341W        W92667  42.710   5.579   4.451
20342W        W92668  10.242  25.559  13.795
20343W        W92669  25.119  11.639   4.167
20344W        W92670  14.825  28.135  14.668
20345W        W92671   2.698  25.953  10.816
20346W        W92672  11.824   5.202   2.613
20347W        W92673  18.168  22.979   4.404
20348W        W92674  31.440   9.199   2.306
20349W        W92675  35.874   2.406   3.804
20350W        W92676  26.919  42.971   0.983
20351W        W92677  38.920  21.985  10.702
20352W        W92678   6.306   2.230  13.836
20353W        W92679  26.630  21.223   0.692
20354W        W92680   1.532  28.754   0.713
20355W        W92681  21.659  10.954  14.838
20356W        W92682  34.512  19.985  12.988
20357W        W92683   9.826  33.308   0.281
20358W        W92684   2.210  27.727  11.103
20359W        W92685  23.052   8.356  11.870
20360W        W92686  20.008  16.091   2.326
20361W        W92687  33.981  16.630   4.139
20362W        W92688  28.005   2.829   4.452
20363W        W92689  39.594  11.315   3.436
20364W        W92690  40.374  18.794  13.426
20365W        W92691  21.845  21.250   5.093
20366W        W92692  26.166  14.297   0.055
20367W        W92693   7.724  33.328   1.311
20368W        W92694   8.173   2.986  13.942
20369W        W92695  23.341  39.112  10.563
20370W        W92696  14.777   9.609   4.298
20371W        W92697  34.553   5.424   0.397
20372W        W92698  11.380  32.508   0.325
20373W        W92699   6.534  22.216   3.781
20374W        W92700  17.698  38.879   1.895
20375W        W92701  43.322  21.858  12.009
20376W        W92702  32.476   0.660  10.366
20377W        W92703   7.643  38.529   1.405
20378W        W92704  32.947   5.986  12.819
20379W        W92705   1.933  39.328   3.618
20380W        W92706  18.287  41.819   0.323
20381W        W92707  17.279   8.977  13.153
20382W        W92708  34.020  41.048   1.168
20383W        W92709  21.731  33.189   0.496
20384W        W92710   0.367   1.826   4.493
20385W        W92711  11.570  27.357  11.972
20386W        W92712  38.422  24.508   0.776
20387W        W92713  19.729  24.908   4.141
20388W        W92714  42.962  29.145   0.444
20389W        W92715  26.675   7.461  11.125
20390W        W92716  38.905   2.452  10.241
20391W        W92717  11.584  37.319   0.977
20392W        W92718  40.689  44.436  12.414
20393W        W92719  16.150  39.392  10.642
20394W        W92720  15.091  38.499   1.838
20395W        W92721  12.907  30.694   4.620
20396W        W92722   5.060  15.052  11.507
20397W        W92723  12.195   2.965  10.642
20398W        W92724   6.868  15.832  12.879
20399W        W92725  20.456  31.464  12.482
20400W        W92726  23.487  16.553   5.042
20401W        W92727   7.584   4.895  11.883
20402W        W92728  34.030  18.089  11.652
20403W        W92729  21.174   5.370   0.438
20404W        W92730  31.636  30.616   0.940
20405W        W92731   7.425  23.911  11.940
20406W        W92732  39.182   0.366  10.412
20407W        W92733  29.135  34.687  12.112
20408W        W92734  27.904   3.911  14.166
20409W        W92735  32.055  22.801   1.317
20410W        W92736   0.725  33.535   0.074
20411W        W92737  32.333  42.092   4.185
20412W        W92738  23.725   6.399   0.328
20413W        W92739  15.705   9.426   0.414
20414W        W92740  28.634  31.186  12.321
20415W        W92741  38.029   1.781   2.811
20416W        W92742  21.072  31.927  12.955
20417W        W92743  33.044   5.020  14.911
20418W        W92744   1.720  33.525   3.707
20419W        W92745  27.443   3.949  12.440
20420W        W92746  10.927  12.363  11.675
20421W        W92747  28.721  13.435  13.753
20422W        W92748  32.838  22.658  12.059
20423W        W92749  11.808  26.026  11.354
20424W        W92750   9.912  37.018  14.872
20425W        W92751  14.125  35.528  13.316
20426W        W92752  18.112   6.182  10.734
20427W        W92753  43.289  14.912  13.135
20428W        W92754  10.603  15.176   4.448
20429W        W92755  32.176  22.616   4.506
20430W        W92756  23.686  23.236   3.415
20431W        W92757  44.290  15.204   3.409
20432W        W92758  26.022  26.018   2.263
20433W        W92759  27.967   1.898  14.278
20434W        W92760  17.032  38.220   2.991
20435W        W92761  21.516  39.989   0.438
20436W        W92762  38.939  18.294   4.560
20437W        W92763   9.170  25.894   4.933
20438W        W92764  38.778   7.206   0.028
20439W        W92765   6.725   5.771  14.984
20440W        W92766   1.864  19.969   1.263
20441W        W92767  25.646  18.240  11.520
20442W        W92768  14.883  16.177  12.615
20443W        W92769   2.412   4.503  14.853
20444W        W92770   7.087  17.233  14.340
20445W        W92771   0.600  42.350  13.816
20446W        W92772  35.894  40.613   0.462
20447W        W92773  27.631  14.775   4.662
20448W        W92774  40.356  15.838  12.378
20449W        W92775  27.611  31.918  12.723
20450W        W92776  39.964  16.329  13.539
20451W        W92777  20.261  39.502  14.405
20452W        W92778  21.367  12.551   4.989
20453W        W92779  27.655   3.920   0.726
20454W        W92780  24.516   7.251   0.378
20455W        W92781  28.077  32.630  13.070
20456W        W92782  18.185   9.386  13.370
20457W        W92783  33.912  13.085   2.291
20458W        W92784  40.753   7.760  12.987
20459W        W92785  16.220  32.839  14.077
20460W        W92786  28.982   4.675  14.383
20461W        W92787  31.058  23.442   4.072
20462W        W92788  28.399  21.127  13.425
20463W        W92789   3.152  36.913   2.694
20464W        W92790  32.092  39.322   3.640
20465W        W92791  21.338  22.924   5.068
20466W        W92792  20.464  12.756   4.710
20467W        W92793  19.658  32.372   1.908
20468W        W92794   9.879   6.016   1.709
20469W        W92795  11.316  19.504   1.428
20470W        W92796  12.712  26.950   1.421
20471W        W92797  13.101  42.463  13.024
20472W        W92798  22.650  12.288  13.932
20473W        W92799  26.143  31.988  14.862
20474W        W92800  29.565  12.359  13.939
20475W        W92801  19.280  31.680  11.570
20476W        W92802  19.948  24.436  12.055
20477W        W92803   5.668   3.119  13.489
20478W        W92804  28.074  27.913   1.246
20479W        W92805   2.711  15.612  12.947
20480W        W92806   4.370  10.610   1.221
20481W        W92807  16.600   4.867   0.800
20482W        W92808  38.947   7.871   4.920
20483W        W92809  24.061  27.528   2.769
20484W        W92810  32.074   4.256  12.585
20485W        W92811  41.162  44.047   3.704
20486W        W92812  43.815  38.308  13.986
20487W        W92813  36.373  43.422   4.092
20488W        W92814   7.611  37.551   4.494
20489W        W92815  14.878  28.614  11.167
20490W        W92816  14.830   2.771   3.252
20491W        W92817   5.781  40.088   0.872
20492W        W92818   6.368  18.194  13.871
20493W        W92819  19.204   1.848  12.988
20494W        W92820  17.578  19.036   3.592
20495W        W92821  21.458  12.846   4.547
20496W        W92822  41.065  44.956   2.937
20497W        W92823  43.820  42.017  14.502
20498W        W92824  16.527  24.250  14.889
20499W        W92825  28.451  42.754   2.246
20500W        W92826  40.914  25.165   2.841
20501W        W92827  36.918  13.188  11.072
20502W        W92828  34.093  43.136   0.948
20503W        W92829  20.417   8.175  12.490
20504W        W92830  16.776   5.998   4.495
20505W        W92831  37.588  36.307   0.031
20506W        W92832  31.737  11.716   4.715
20507W        W92833  26.896  14.185  11.586
20508W        W92834  41.377   1.055   2.234
20509W        W92835  32.695   8.243  14.390
20510W        W92836  20.215  32.916   0.290
20511W        W92837   5.800   2.764  12.504
20512W        W92838  37.335   7.711   2.436
20513W        W92839  12.238  40.764  11.030
20514W        W92840  14.841  20.181  11.508
20515W        W92841  26.022  19.467   1.872
20516W        W92842  17.405  14.810  10.991
20517W        W92843  26.971   6.994  13.302
20518W        W92844  40.906   7.273   0.044
20519W        W92845  17.115  24.441   5.281
20520W        W92846  35.459  38.137   2.726
20521W        W92847  14.237  31.904  13.925
20522W        W92848  30.097  10.831  13.315
20523W        W92849  16.231  39.082   0.400
20524W        W92850  42.781  32.589   3.672
20525W        W92851  11.350  10.781  13.032
20526W        W92852  33.136  41.337   3.293
20527W        W92853   0.325  24.241  11.963
20528W        W92854  11.269   6.649  11.124
20529W        W92855  18.275   1.834  13.618
20530W        W92856  40.981  38.032  13.969
20531W        W92857  23.458  32.961  14.849
20532W        W92858   4.728   4.933   4.217
20533W        W92859  40.964  41.473   0.831
20534W        W92860   2.951  43.437  13.334
20535W        W92861  31.960   1.505   1.209
20536W        W92862  16.517   7.152  10.503
20537W        W92863  32.541  38.880  14.301
20538W        W92864  44.013  35.923   2.653
20539W        W92865  21.675  35.040  14.756
20540W        W92866  12.792  42.784  14.455
20541W        W92867  23.114   2.824   3.414
20542W        W92868  24.983  40.805   0.350
20543W        W92869  36.062  16.614  10.889
20544W        W92870  34.896  21.151  13.399
20545W        W92871   2.813  21.713   2.488
20546W        W92872  26.695   4.817   4.374
20547W        W92873  13.360   9.877   0.515
20548W        W92874  29.563  31.548  13.421
20549W        W92875  16.062  21.069   0.724
20550W        W92876   7.943   7.882   1.400
20551W        W92877  18.711  31.384  11.894
20552W        W92878   0.307  35.767   0.877
20553W        W92879   5.481   2.807   0.230
20554W        W92880  17.134  15.234  12.650
20555W        W92881  24.309  17.155   9.762
20556W        W92882  11.121  33.964  14.818
20557W        W92883   5.368  39.411   0.682
20558W        W92884  21.062   3.526   1.748
20559W        W92885  28.473   1.415  11.624
20560W        W92886  11.392  32.832   4.870
20561W        W92887  24.153   2.395   2.388
20562W        W92888   5.948  42.321  14.070
20563W        W92889  21.240  15.301   4.550
20564W        W92890  43.351  20.037  14.567
20565W        W92891  16.841  42.326   3.734
20566W        W92892  23.504  35.137  14.404
20567W        W92893  26.151  18.822   3.694
20568W        W92894  14.608   2.806   3.750
20569W        W92895   5.807  18.726   3.612
20570W        W92896  41.037  35.182  14.564
20571W        W92897   1.868  15.654   2.816
20572W        W92898  16.118   5.019  12.504
20573W        W92899  17.785  11.776  11.504
20574W        W92900   4.244  35.304  14.233
20575W        W92901   7.420  26.588  11.346
20576W        W92902  14.395   2.636  11.127
20577W        W92903  17.863  22.527  14.002
20578W        W92904   1.856  21.505   1.248
20579W        W92905  18.104  12.674  14.305
20580W        W92906  17.331  28.961  14.453
20581W        W92907   6.392   3.477  13.816
20582W        W92908  27.997  40.951  12.417
20583W        W92909  41.995  24.166   1.266
20584W        W92910  38.860  20.684   0.123
20585W        W92911  13.223  17.085  14.193
20586W        W92912  20.671  40.238  10.969
20587W        W92913   5.338  10.299  10.724
20588W        W92914  24.765  22.720  11.843
20589W        W92915   8.277  29.515  12.597
20590W        W92916  13.709   3.689   0.726
20591W        W92917  39.785  27.662  11.552
20592W        W92918  43.786  40.136  13.541
20593W        W92919   6.377  12.916   1.243
20594W        W92920   4.888  29.195   0.930
20595W        W92921  38.787  28.059  11.990
20596W        W92922  22.632  21.269   3.202
20597W        W92923  17.618   4.734   1.642
20598W        W92924   8.609   6.428  13.742
20599W        W92925  15.756   2.018   3.231
20600W        W92926  14.218  44.209   4.222
20601W        W92927  40.088  24.398  13.493
20602W        W92928   5.960   9.784  13.030
20603W        W92929  12.371  25.484   1.848
20604W        W92930   3.269   7.063  11.110
20605W        W92931   9.900  13.054  11.630
20606W        W92932  21.272  17.924   3.799
20607W        W92933   7.867  20.848   4.759
20608W        W92934  33.506   2.475  11.535
20609W        W92935  15.755   6.181   1.255
20610W        W92936  37.535  34.159  10.799
20611W        W92937  33.172  19.234   4.351
20612W        W92938  30.980  13.909   1.405
20613W        W92939   2.708  15.394   3.305
20614W        W92940   2.967   5.242   1.781
20615W        W92941   2.729  29.134  12.105
20616W        W92942  22.650  33.119  14.914
20617W        W92943  24.814  14.831   9.934
20618W        W92944  14.089   8.659   0.666
20619W        W92945   8.755  16.309  14.023
20620W        W92946  12.255  29.972   2.761
20621W        W92947  12.213   4.217   1.214
20622W        W92948   4.848  40.563   0.808
20623W        W92949  31.065  15.544  11.028
20624W        W92950  26.387  18.801   0.472
20625W        W92951  41.558  36.922  11.596
20626W        W92952   5.458  15.771  14.517
20627W        W92953  10.101  23.491  11.510
20628W        W92954  38.400  42.398  11.643
20629W        W92955   6.993  25.674  11.426
20630W        W92956   9.896  26.934   2.665
20631W        W92957  21.535  13.601   0.846
20632W        W92958   1.860   1.499  10.293
20633W        W92959  34.874  22.582  11.197
20634W        W92960   2.929  17.674  12.823
20635W        W92961  34.189  44.497   3.406
20636W        W92962   9.859   3.316  12.059
20637W        W92963  34.555  39.826  11.579
20638W        W92964  27.986  39.493  12.360
20639W        W92965  21.203  25.427   4.999
20640W        W92966  24.201  29.352   0.903
20641W        W92967  26.009  27.040   9.729
20642W        W92968  25.258  14.742   2.856
20643W        W92969  44.717  37.540  13.377
20644W        W92970  33.630  37.918   2.437
20645W        W92971   8.324  15.374   1.698
20646W        W92972  35.054  24.420  12.563
20647W        W92973  10.191  23.078  13.529
20648W        W92974  42.575   4.327   2.741
20649W        W92975  37.548  44.066   1.112
20650W        W92976   7.444  27.139   2.819
20651W        W92977  18.164  37.008   4.095
20652W        W92978  42.561  42.291  12.559
20653W        W92979  19.480   4.356  12.014
20654W        W92980  18.604  30.040   2.456
20655W        W92981   2.908   2.992   4.194
20656W        W92982   8.363  11.779   4.814
20657W        W92983   2.227  43.608  12.108
20658W        W92984  12.192  34.840  10.617
20659W        W92985  24.415  44.358  14.929
20660W        W92986   3.457  34.625  14.752
20661W        W92987  32.485  26.470  14.978
20662W        W92988  12.726   8.542  13.478
20663W        W92989  38.274  21.250   0.213
20664W        W92990   1.945  39.506  14.027
20665W        W92991  22.727  34.697   3.835
20666W        W92992  42.816  12.695   2.250
20667W        W92993  38.857  28.775  11.215
20668W        W92994  14.288  21.984  12.103
20669W        W92995  18.714   4.080  13.402
20670W        W92996  13.328  44.802   1.028
20671W        W92997  11.731  28.901   0.435
20672W        W92998  41.513  27.131   2.123
20673W        W92999  36.053   9.232  14.331
20674W        W93000  19.002   4.515  14.598
20675W        W93001   6.452  35.899  12.093
20676W        W93002  32.647  10.239  13.079
20677W        W93003  30.070   6.895   2.396
20678W        W93004  40.415   7.216   0.251
20679W        W93005  25.095  37.717   1.108
20680W        W93006  15.625  26.047   5.159
20681W        W93007  32.675  19.272   4.520
20682W        W93008  20.239   6.272  10.764
20683W        W93009  43.501  13.202   3.663
20684W        W93010  18.291  12.737   4.930
20685W        W93011  39.058   4.428  14.519
20686W        W93012  11.729  28.821   4.696
20687W        W93013  10.119  19.204  13.522
20688W        W93014   7.396  41.208  14.472
20689W        W93015   7.225   1.750   3.239
20690W        W93016  20.524  33.122   2.718
20691W        W93017  24.044  16.852  13.981
20692W        W93018  15.421  40.952   3.342
20693W        W93019  22.630  41.943  13.479
20694W        W93020  12.999   1.274   0.580
20695W        W93021  34.120  11.029   3.577
20696W        W93022   7.846  23.720   1.737
20697W        W93023   9.473  21.012  12.066
20698W        W93024  39.511  30.964   4.122
20699W        W93025  35.047  25.273  12.980
20700W        W93026  16.906  39.787  14.165
20701W        W93027  12.320  33.886   9.803
20702W        W93028   2.004  14.188  12.881
20703W        W93029   3.423  36.406  10.658
20704W        W93030   0.870  42.623   3.691
20705W        W93031  24.606   6.841   1.141
20706W        W93032  43.948  43.333   3.612
20707W        W93033  12.312  28.196   3.608
20708W        W93034  17.510  23.260  12.676
20709W        W93035  40.702  37.447   1.387
20710W        W93036   4.261  13.691  14.390
20711W        W93037  24.202  16.175   3.284
20712W        W93038  11.567  26.516   2.368
20713W        W93039  21.399  29.082   1.239
20714W        W93040   5.823  31.001  14.526
20715W        W93041  28.976  24.115  11.509
20716W        W93042  23.542  22.551   3.999
20717W        W93043  11.351  33.744   2.928
20718W        W93044  28.129  12.675   1.676
20719W        W93045  18.252  39.826   0.969
20720W        W93046  12.194  42.070  14.558
20721W        W93047   1.087  38.669  12.945
20722W        W93048   8.234  11.214  14.430
20723W        W93049  13.709   1.916  10.776
20724W        W93050   1.539  42.354   2.850
20725W        W93051  33.603  28.294   5.004
20726W        W93052  29.122  37.693   0.343
20727W        W93053  24.140  41.085  12.626
20728W        W93054  13.616  40.065   4.830
20729W        W93055  18.127  16.847  12.915
20730W        W93056  18.092  42.526   0.308
20731W        W93057  38.522  38.851   2.460
20732W        W93058   7.708   7.421  14.753
20733W        W93059   4.665  42.927  11.512
20734W        W93060  24.162  38.788   1.500
20735W        W93061  21.570   4.787   4.027
20736W        W93062   5.045  26.527  14.303
20737W        W93063  33.597  13.258   0.466
20738W        W93064  10.152  41.520   4.083
20739W        W93065   0.784  38.323   3.675
20740W        W93066  42.971  32.604  13.274
20741W        W93067  17.814  30.505  14.079
20742W        W93068  37.437  25.937   1.918
20743W        W93069   4.164  35.881  12.018
20744W        W93070  27.881  17.123  11.037
20745W        W93071   8.481  33.083  13.572
20746W        W93072  25.963  22.524   2.823
20747W        W93073  32.227  26.826  12.162
20748W        W93074  17.615  44.077  10.591
20749W        W93075  16.118   1.818  12.390
20750W        W93076  40.997  34.845   4.081
20751W        W93077  35.052  26.380   5.157
20752W        W93078  18.630  16.125   4.549
20753W        W93079   1.479  40.508  11.437
20754W        W93080  36.095   4.805   0.308
20755W        W93081   9.628  36.309  11.494
20756W        W93082  34.256  35.387  11.148
20757W        W93083  38.822  38.470  13.888
20758W        W93084  43.687   9.749  12.404
20759W        W93085   7.728  27.566  12.056
20760W        W93086  12.368  14.651   1.480
20761W        W93087   2.450   1.071   3.060
20762W        W93088  15.742  41.562  11.028
20763W        W93089  14.722  29.844  12.005
20764W        W93090  16.907  31.583   1.896
20765W        W93091  18.866  35.640  12.413
20766W        W93092  28.072  13.998  14.973
20767W        W93093  24.739   7.686   0.178
20768W        W93094  18.618  20.706  13.722
20769W        W93095   4.266   8.871   1.572
20770W        W93096  24.059  41.134   4.719
20771W        W93097  20.221  29.359  10.483
20772W        W93098  35.910  22.981   4.052
20773W        W93099  39.450  38.274  13.625
20774W        W93100  26.949   7.744  14.408
20775W        W93101  23.080  18.036   4.344
20776W        W93102  29.312  24.030   2.908
20777W        W93103  41.781  13.615   0.330
20778W        W93104  21.458   9.750  10.690
20779W        W93105  15.633  31.413   3.765
20780W        W93106  20.779   4.839   0.995
20781W        W93107   6.353  42.047  12.928
20782W        W93108  38.505  16.353   2.176
20783W        W93109  13.388  40.924  13.802
20784W        W93110   0.817  29.881  11.560
20785W        W93111  17.230  20.660   0.227
20786W        W93112   5.290  24.990  14.035
20787W        W93113  26.861  13.101  14.791
20788W        W93114  23.856  36.398  13.177
20789W        W93115  40.293   0.954  13.410
20790W        W93116  36.893  23.664   1.748
20791W        W93117   8.160  25.633  14.827
20792W        W93118  40.434  36.659  14.251
20793W        W93119  34.493   0.255  14.810
20794W        W93120   3.871   7.744   0.512
20795W        W93121   1.793  43.204  14.814
20796W        W93122  23.416   0.835   3.369
20797W        W93123  27.583   1.577   3.802
20798W        W93124   3.994  40.469  11.046
20799W        W93125  23.594  25.557  14.785
20800W        W93126   9.266  16.998   2.867
20801W        W93127  35.626  39.408   0.528
20802W        W93128  43.437  30.899   2.663
20803W        W93129  42.656  42.015   5.046
20804W        W93130  16.660  44.318   4.773
20805W        W93131   4.555  40.229  12.951
20806W        W93132  19.204  40.481  10.652
20807W        W93133  11.392   0.514  10.922
20808W        W93134  10.190   6.419   0.336
20809W        W93135  22.619  15.781  10.514
20810W        W93136  15.041  37.118   0.885
20811W        W93137  33.388  17.217   4.140
20812W        W93138   7.506   0.878   3.616
20813W        W93139  10.399  21.178   9.797
20814W        W93140  20.066  12.411   4.148
20815W        W93141  15.824  23.184   3.917
20816W        W93142  23.682  31.356  10.758
20817W        W93143   7.441   1.305   1.612
20818W        W93144  33.109  21.302  12.680
20819W        W93145  34.206  22.896  13.139
20820W        W93146  32.036  17.776   3.250
20821W        W93147  36.330  13.815   1.692
20822W        W93148  26.327  34.297  14.396
20823W        W93149  28.194  33.887   4.198
20824W        W93150   3.895  34.961   2.796
20825W        W93151  41.209   3.859   0.057
20826W        W93152   9.620  26.635  10.874
20827W        W93153  16.089   9.836   1.730
20828W        W93154  32.915  10.943   1.835
20829W        W93155  10.793   2.486  11.714
20830W        W93156  16.854   7.246   1.040
20831W        W93157   4.213   8.933  12.352
20832W        W93158  43.955  36.874  11.415
20833W        W93159  36.024  38.885   1.213
20834W        W93160  28.527  19.700  10.984
20835W        W93161  14.256  37.052  14.421
20836W        W93162  25.870  13.352  11.072
20837W        W93163  19.613  18.507   4.262
20838W        W93164  32.734  28.049   0.344
20839W        W93165  22.604   7.967  11.314
20840W        W93166  26.950  40.469  12.491
20841W        W93167  35.374  28.283   0.163
20842W        W93168  28.426  12.792   4.142
20843W        W93169  10.380  11.792   0.284
20844W        W93170   7.718   0.475  12.655
20845W        W93171   3.182   0.945   3.751
20846W        W93172  20.025  17.039  11.147
20847W        W93173   5.604   2.882   1.918
20848W        W93174  11.100  23.697  11.871
20849W        W93175   0.159  21.949  14.772
20850W        W93176  33.352  41.547   1.412
20851W        W93177  39.946   8.400  11.892
20852W        W93178  28.494   0.708   2.453
20853W        W93179  27.775  39.482  12.819
20854W        W93180  39.837  17.983  10.997
20855W        W93181  10.795  31.380   3.780
20856W        W93182  17.226  40.907   3.739
20857W        W93183  21.557  12.853  10.556
20858W        W93184  34.142  23.736   2.726
20859W        W93185  17.622  23.253   1.836
20860W        W93186  14.065  12.466   4.160
20861W        W93187  32.171  35.823  13.306
20862W        W93188  17.493  27.140  10.527
20863W        W93189  36.932   0.291   4.589
20864W        W93190  36.817  29.423   2.242
20865W        W93191  39.725   0.842   3.249
20866W        W93192  10.670  29.089   3.429
20867W        W93193  31.566  27.523  11.522
20868W        W93194  13.303  13.186   3.897
20869W        W93195   2.001  41.783  14.195
20870W        W93196  44.917  10.860  12.611
20871W        W93197   7.984  40.686  12.120
20872W        W93198  25.500  31.158  10.797
20873W        W93199  20.507  10.173   1.419
20874W        W93200  25.762  14.448  12.415
20875W        W93201  16.179  30.585   3.881
20876W        W93202  34.960   3.952   1.271
20877W        W93203   1.891  15.535   4.147
20878W        W93204  11.558  33.958   1.751
20879W        W93205  15.117   9.755  11.878
20880W        W93206   0.892  28.936  11.752
20881W        W93207  39.413  12.269  10.742
20882W        W93208  11.711  19.587   1.097
20883W        W93209  22.511  15.658   1.616
20884W        W93210   2.302   8.766   3.396
20885W        W93211  17.791  42.818  14.052
20886W        W93212  38.649  25.202   2.172
20887W        W93213  41.992  20.141   3.242
20888W        W93214  22.039  30.450  12.865
20889W        W93215   3.962  20.730  11.455
20890W        W93216  40.428  40.280   1.861
20891W        W93217  11.255   6.932   0.258
20892W        W93218  24.610  34.620   0.841
20893W        W93219  24.746  30.916  12.853
20894W        W93220  21.699  38.955   4.500
20895W        W93221  24.475  23.719   3.023
20896W        W93222  17.128  42.099  12.422
20897W        W93223  10.621  15.342   2.192
20898W        W93224  35.028  13.144   0.256
20899W        W93225   3.420  35.631   3.407
20900W        W93226  16.658  15.131  12.438
20901W        W93227  40.697  15.682  12.958
20902W        W93228  10.567  11.324   1.170
20903W        W93229   8.122  22.567  10.613
20904W        W93230  17.950  26.889  11.612
20905W        W93231  31.190   9.395   1.849
20906W        W93232   7.661   0.186  13.077
20907W        W93233  42.511  39.814   1.051
20908W        W93234  27.659  19.818  13.281
20909W        W93235  14.652  15.855   0.219
20910W        W93236  10.648  39.499   3.985
20911W        W93237  12.218  16.308  11.505
20912W        W93238  26.982  35.930   4.236
20913W        W93239   6.877   2.667   0.912
20914W        W93240  33.092  28.149  13.902
20915W        W93241  41.420  24.450   1.715
20916W        W93242  19.108  36.463   0.044
20917W        W93243  26.252   1.260  12.472
20918W        W93244  21.762  38.551  12.976
20919W        W93245  21.846   1.846   2.364
20920W        W93246  28.447  32.351   2.710
20921W        W93247  41.450  16.752  13.633
20922W        W93248   0.872   8.252  14.300
20923W        W93249  26.955  38.709   3.724
20924W        W93250  35.950   5.279   0.163
20925W        W93251   4.939   1.513  10.744
20926W        W93252  43.826  15.872   3.313
20927W        W93253   5.288   7.079   4.022
20928W        W93254  25.744  12.896   4.693
20929W        W93255  20.262  27.039   1.454
20930W        W93256   6.860   8.314  13.791
20931W        W93257  15.483  36.768   2.658
20932W        W93258  19.620  27.426  13.937
20933W        W93259  26.160  11.248  13.722
20934W        W93260  31.990  32.038  12.498
20935W        W93261  29.442  42.272   3.110
20936W        W93262   5.165   6.984  13.910
20937W        W93263  14.244  37.950  11.887
20938W        W93264  37.802  42.959   4.614
20939W        W93265  18.113  21.591  11.609
20940W        W93266  31.417  25.667   3.108
20941W        W93267  11.798  30.386  11.677
20942W        W93268  25.345  15.576  10.665
20943W        W93269   6.814   2.897   1.366
20944W        W93270  11.745  37.844  10.719
20945W        W93271  20.983  35.624   1.771
20946W        W93272  19.057   4.302  11.106
20947W        W93273  32.531  13.816   0.467
20948W        W93274  42.662  44.757  13.862
20949W        W93275  30.885  42.824  12.223
20950W        W93276  20.376  28.978   3.179
20951W        W93277   4.484  36.404  14.057
20952W        W93278  34.598  10.839  14.319
20953W        W93279   5.524  41.523  13.827
20954W        W93280  16.275  12.798   2.446
20955W        W93281  36.203   7.743   5.014
20956W        W93282  44.496  25.016  11.109
20957W        W93283  26.600  26.431   3.253
20958W        W93284  23.541  10.151  11.005
20959W        W93285  25.221   8.253  13.869
20960W        W93286  17.342   7.579  11.084
20961W        W93287  36.296  13.340   5.183
20962W        W93288  13.173  41.406   2.350
20963W        W93289  38.770  22.666   4.106
20964W        W93290  11.637  31.417  12.890
20965W        W93291  30.201   2.259  11.200
20966W        W93292  27.988  16.532   4.429
20967W        W93293  19.547  37.012   1.801
20968W        W93294   0.879  19.789   3.362
20969W        W93295   0.321  43.218   4.156
20970W        W93296  26.610   5.761  11.599
20971W        W93297  24.618  35.520  10.355
20972W        W93298  14.517  18.438   1.001
20973W        W93299  11.652  42.332   2.910
20974W        W93300  26.242  34.420  13.892
20975W        W93301  41.113  43.103   3.779
20976W        W93302   3.812  28.499  11.122
20977W        W93303  40.776  29.990   3.741
20978W        W93304  19.315  40.820   1.789
20979W        W93305  23.261  17.195  13.792
20980W        W93306   5.882  40.310  12.978
20981W        W93307  12.177  41.077  14.306
20982W        W93308  32.985  17.925  14.119
20983W        W93309  10.306  24.692   3.594
20984W        W93310  19.294  19.646   4.743
20985W        W93311  32.891  28.542  12.404
20986W        W93312   0.247  23.198   3.704
20987W        W93313  10.583  20.073  12.897
20988W        W93314  28.086  33.093  10.911
20989W        W93315  32.379  17.790   2.778
20990W        W93316  35.585   8.140   2.156
20991W        W93317  33.132  24.703   1.807
20992W        W93318  33.154  13.258   2.727
20993W        W93319  37.854  28.599   1.974
20994W        W93320   8.988  42.386  12.401
20995W        W93321  22.773  22.329   2.489
20996W        W93322  38.848  43.683  12.537
20997W        W93323   6.751   4.794   5.252
20998W        W93324  20.604  29.716  11.363
20999W        W93325  22.181  33.306   1.355
21000W        W93326  42.592  33.899  10.701
21001W        W93327   1.957  32.793   2.312
21002W        W93328  39.409  31.329   4.927
21003W        W93329  31.003  19.706   0.791
21004W        W93330   3.934  41.415   4.838
21005W        W93331  41.840  30.208   1.901
21006W        W93332   6.277   0.816  11.147
21007W        W93333  11.723  25.459   2.641
21008W        W93334  17.166  39.803  10.601
21009W        W93335  17.293  29.438  11.961
21010W        W93336   5.573   9.875  14.902
21011W        W93337  43.937   6.527  14.428
21012W        W93338  35.597  12.752  12.931
21013W        W93339   1.776   0.160  10.657
21014W        W93340   8.226  41.001  11.165
21015W        W93341  20.961   1.775   1.364
21016W        W93342  20.021  14.663  11.278
21017W        W93343  17.699  39.000   1.399
21018W        W93344  26.731  30.611   0.633
21019W        W93345  23.483  44.759   2.509
21020W        W93346  34.921  39.272  11.087
21021W        W93347  30.732   6.396  11.989
21022W        W93348  29.894  29.679  12.418
21023W        W93349  34.587  34.047  13.301
21024W        W93350  13.710  10.295   3.652
21025W        W93351  26.852   6.795   3.391
21026W        W93352  13.235  18.203   2.697
21027W        W93353  43.552   9.090   2.707
21028W        W93354   0.719  43.291   0.766
21029W        W93355  24.136  25.608  14.784
21030W        W93356  22.706  17.558  10.754
21031W        W93357   8.176  29.990   1.667
21032W        W93358  34.329   9.206   3.760
21033W        W93359  34.510  17.753   4.593
21034W        W93360   8.983   7.091  13.252
21035W        W93361  16.139  27.243  11.485
21036W        W93362  14.239  28.809   2.147
21037W        W93363   0.471  22.512   4.220
21038W        W93364  24.540  41.048   0.188
21039W        W93365   0.434  31.599  11.644
21040W        W93366  27.751  38.613   3.240
21041W        W93367  31.751  41.071  13.440
21042W        W93368  32.946  40.998  14.398
21043W        W93369  14.198  10.921  12.081
21044W        W93370  26.595  19.815  11.534
21045W        W93371  24.006  40.448   0.357
21046W        W93372  15.071  34.925  14.389
21047W        W93373  19.322  13.801   2.580
21048W        W93374   0.034  18.583   2.155
21049W        W93375  20.553  35.835   0.666
21050W        W93376  18.646  44.697   3.119
21051W        W93377   9.963  37.106  12.044
21052W        W93378   6.906  19.713   4.637
21053W        W93379   0.159  32.696   0.263
21054W        W93380  37.572  43.211   4.986
21055W        W93381  22.625   8.997   4.404
21056W        W93382  26.229   8.523   4.936
21057W        W93383   9.258  16.635   1.938
21058W        W93384  34.214  14.241   1.757
21059W        W93385  41.989  41.794   3.099
21060W        W93386  38.877  24.263  14.963
21061W        W93387  10.948   8.169   3.260
21062W        W93388  28.743   5.137  14.285
21063W        W93389  28.797  10.789  12.133
21064W        W93390  20.022  18.398  11.067
21065W        W93391  25.619  33.611   4.592
21066W        W93392  33.456  25.097   3.734
21067W        W93393   0.723  24.783  13.477
21068W        W93394  21.879   2.811  12.134
21069W        W93395   4.887   1.323  11.227
21070W        W93396  32.394  36.579  10.922
21071W        W93397   9.443  27.162   2.630
21072W        W93398  17.754   6.286   2.163
21073W        W93399  31.657  38.368   3.830
21074W        W93400   2.578   4.987  12.324
21075W        W93401  20.535  28.018   0.563
21076W        W93402  13.136  37.018   0.294
21077W        W93403  35.319  43.785   0.118
21078W        W93404   6.898  42.331  12.179
21079W        W93405  10.604   8.176  13.339
21080W        W93406  21.167  25.069   2.926
21081W        W93407  42.711  14.239  11.212
21082W        W93408  43.327  15.029  14.974
21083W        W93409  34.814  24.317   3.369
21084W        W93410  30.979   5.596   1.829
21085W        W93411   0.740  21.125  12.838
21086W        W93412  35.497  13.699  11.250
21087W        W93413   7.167  12.088   1.849
21088W        W93414  10.337  11.750  10.788
21089W        W93415   4.379  21.398  13.994
21090W        W93416   2.834   8.882  12.846
21091W        W93417  24.103  20.069   4.699
21092W        W93418  43.061   3.290  14.899
21093W        W93419  30.909  23.574   1.459
21094W        W93420  12.575  40.419   3.446
21095W        W93421  43.567  42.602  12.515
21096W        W93422  28.509  11.879  10.625
21097W        W93423   5.817  13.922   0.038
21098W        W93424  26.213  25.588   3.804
21099W        W93425  32.578  32.659  13.457
21100W        W93426  32.046  43.143  13.467
21101W        W93427  42.082  26.397   4.669
21102W        W93428   2.719   2.751   0.804
21103W        W93429   8.943  27.087  14.668
21104W        W93430  35.147   5.429   0.929
21105W        W93431  19.034  23.285   3.188
21106W        W93432  41.405  29.333  11.540
21107W        W93433   4.906  31.763   2.867
21108W        W93434   9.768  44.938   0.785
21109W        W93435  36.897  43.591   0.905
21110W        W93436  39.531  20.179  14.853
21111W        W93437  22.503   0.214   4.881
21112W        W93438  41.435  42.694  14.835
21113W        W93439  21.574   3.238   0.892
21114W        W93440  38.539  44.352  13.035
21115W        W93441   3.890  26.074  11.121
21116W        W93442  17.589  22.107  12.552
21117W        W93443   8.740   6.781   1.699
21118W        W93444  13.331  29.701  11.620
21119W        W93445  34.890  25.283  10.960
21120W        W93446  33.454  11.256  14.879
21121W        W93447  44.470   1.495  11.967
21122W        W93448  31.119  41.987  11.830
21123W        W93449   9.412  15.124  11.060
21124W        W93450   4.023  42.848   4.313
21125W        W93451   0.500  42.957   4.591
21126W        W93452  22.005  44.696  10.719
21127W        W93453  27.210  30.215  12.874
21128W        W93454   4.038   3.275   3.387
21129W        W93455  35.370  43.066   0.731
21130W        W93456  36.444  19.934   3.338
21131W        W93457   7.290  14.288   0.324
21132W        W93458  17.363  22.092   3.692
21133W        W93459  43.961   2.359   3.232
21134W        W93460  18.194  24.626  12.324
21135W        W93461  33.306  35.607  11.986
21136W        W93462  21.989   3.702  12.565
21137W        W93463   2.241   2.998   3.729
21138W        W93464   2.960  14.882  12.435
21139W        W93465  17.116   3.969  13.372
21140W        W93466  41.079  35.440  10.450
21141W        W93467  34.017  22.780   3.613
21142W        W93468  30.030  15.226   2.689
21143W        W93469  36.587   8.993  11.061
21144W        W93470  19.248  21.242   3.924
21145W        W93471  39.155  25.816   0.376
21146W        W93472  11.835  40.809   2.908
21147W        W93473  22.505  29.676  13.859
21148W        W93474  22.892  41.347  11.646
21149W        W93475  13.262  40.992   3.938
21150W        W93476   6.556  31.322  14.351
21151W        W93477  41.844  38.367  14.282
21152W        W93478   5.798   9.351   2.298
21153W        W93479  29.987  42.731   2.777
21154W        W93480  30.338  25.220  12.821
21155W        W93481  10.253  28.226   3.007
21156W        W93482  28.149  33.470   0.773
21157W        W93483  38.596   3.201  14.813
21158W        W93484   1.421  41.528  11.614
21159W        W93485  39.309  27.957  12.016
21160W        W93486  30.204   4.339  14.045
21161W        W93487  26.501  20.748   1.839
21162W        W93488  36.127  41.317   0.702
21163W        W93489  12.115  34.511  11.515
21164W        W93490   3.466  37.028  11.591
21165W        W93491  44.207  42.894  11.700
21166W        W93492  11.287  43.497  12.714
21167W        W93493  27.046  22.552  11.982
21168W        W93494  18.487  22.248  13.578
21169W        W93495  42.377  14.088  12.160
21170W        W93496  27.926  26.722   2.342
21171W        W93497  14.647  21.707  11.214
21172W        W93498  25.287   8.969   1.967
21173W        W93499  28.468   9.601   1.181
21174W        W93500  12.116  12.141   1.748
21175W        W93501  19.679  20.234   4.042
21176W        W93502  11.451  42.974   3.721
21177W        W93503   2.476  31.024  10.611
21178W        W93504  12.030   2.383  10.121
21179W        W93505   3.188  34.368   2.068
21180W        W93506   2.206  23.120   1.225
21181W        W93507  23.778  12.550  12.711
21182W        W93508   3.204  33.857   2.093
21183W        W93509  40.440  22.705   9.886
21184W        W93510  17.102  41.461  12.303
21185W        W93511  44.387  23.713  14.460
21186W        W93512   5.052  43.234  11.072
21187W        W93513  14.999   4.337  14.006
21188W        W93514  30.308  33.826  12.481
21189W        W93515  10.368  26.882  11.587
21190W        W93516  22.732  18.344  13.316
21191W        W93517  28.607  31.943   1.454
21192W        W93518  37.272  34.844   4.915
21193W        W93519  40.952  39.426  12.101
21194W        W93520  26.169  16.021  10.443
21195W        W93521   3.882  32.842  14.261
21196W        W93522   5.369  44.666   4.524
21197W        W93523  36.857   1.940  14.019
21198W        W93524   5.130  33.585  14.417
21199W        W93525  10.844  10.918  14.250
21200W        W93526  38.559  21.447   0.940
21201W        W93527  42.300  29.164  12.433
21202W        W93528  37.853  11.047   1.784
21203W        W93529  22.019  14.795   5.483
21204W        W93530  41.164  41.998   0.201
21205W        W93531  10.674   0.897  13.558
21206W        W93532   6.753   4.861  13.555
21207W        W93533  23.936  14.703   4.706
21208W        W93534  41.697  23.509  10.688
21209W        W93535  41.977  37.252  12.454
21210W        W93536  17.585  42.240  12.640
21211W        W93537   8.701  30.962  11.896
21212W        W93538  29.676  37.639  11.233
21213W        W93539  41.922  31.028  12.990
21214W        W93540   1.794   1.354  14.637
21215W        W93541  42.741  16.790   1.751
21216W        W93542  14.692   7.496  12.114
21217W        W93543  26.565  13.194   5.134
21218W        W93544  33.100  33.913   0.947
21219W        W93545   7.157  29.939   1.348
21220W        W93546  29.125  19.039  11.090
21221W        W93547  32.631  30.748   3.793
21222W        W93548   5.242   9.614   4.457
21223W        W93549  36.827  43.019  11.876
21224W        W93550  34.222  34.088   4.591
21225W        W93551  33.431  33.879   9.744
21226W        W93552   7.634   3.449  13.000
21227W        W93553  34.833  37.178   1.952
21228W        W93554   5.307  35.001  12.186
21229W        W93555  29.602  34.374  12.107
21230W        W93556  25.174  36.380  12.616
21231W        W93557  21.388   0.342  14.267
21232W        W93558  44.537  16.652  13.360
21233W        W93559  27.995  26.272  14.171
21234W        W93560  23.733  16.533  11.610
21235W        W93561  35.502   9.520   2.356
21236W        W93562  12.586  25.217   1.101
21237W        W93563  42.869  42.334   4.568
21238W        W93564  28.468  22.770   1.839
21239W        W93565  37.838  38.217  13.100
21240W        W93566   6.031   1.235   3.418
21241W        W93567  26.511  12.031   0.462
21242W        W93568   1.264   8.377   1.109
21243W        W93569  11.439   8.847   4.277
21244W        W93570   9.927   8.335  14.029
21245W        W93571  11.267  21.233   3.123
21246W        W93572  39.501  10.034  14.037
21247W        W93573  28.261  22.930   0.397
21248W        W93574  33.849   3.375   2.129
21249W        W93575  35.185  30.046   4.986
21250W        W93576   3.989   9.496   0.445
21251W        W93577  39.937  30.884  14.396
21252W        W93578  25.560  18.447  11.034
21253W        W93579   6.080   3.265  11.301
21254W        W93580  36.132  41.285   4.601
21255W        W93581  14.077  11.155   3.689
21256W        W93582   2.262  39.368  11.052
21257W        W93583  21.454  41.285  12.939
21258W        W93584   6.955  23.195  11.588
21259W        W93585  12.378  27.464   4.199
21260W        W93586  22.294   5.297   4.163
21261W        W93587   0.935  37.396  10.658
21262W        W93588  12.933  40.562   4.190
21263W        W93589  33.179  43.317   2.293
21264W        W93590  27.444  22.533   1.900
21265W        W93591   7.292  24.812  12.858
21266W        W93592   4.209   2.590  10.731
21267W        W93593  30.049  14.020   0.025
21268W        W93594  35.927  15.976   0.005
21269W        W93595   0.442  41.284  10.707
21270W        W93596   1.447  37.912   4.265
21271W        W93597  31.181  10.856   0.043
21272W        W93598  13.159   6.688  14.473
21273W        W93599   4.092  33.456  14.022
21274W        W93600  24.217  30.618  11.111
21275W        W93601   6.408  42.769   4.033
21276W        W93602  14.421  42.753   4.680
21277W        W93603  14.799  13.705  13.734
21278W        W93604  20.502  17.095   0.296
21279W        W93605  30.937  10.910  12.972
21280W        W93606   4.727   7.134  13.017
21281W        W93607  34.990  26.698   2.183
21282W        W93608  26.267  18.329  13.522
21283W        W93609  38.394  10.634   4.653
21284W        W93610  42.016  22.701  11.032
21285W        W93611  31.909   1.174   1.826
21286W        W93612  22.816  19.254   0.431
21287W        W93613  14.041  28.823  14.931
21288W        W93614   1.940  16.774   4.623
21289W        W93615  20.615  25.443   3.286
21290W        W93616  42.899  26.191   2.012
21291W        W93617  35.813  13.233  10.586
21292W        W93618  38.292  37.549   3.712
21293W        W93619   0.652  10.543   0.462
21294W        W93620  10.859  43.224  12.011
21295W        W93621  35.494  21.508  12.614
21296W        W93622  21.592  34.041  13.367
21297W        W93623  12.430  31.037  13.393
21298W        W93624  41.264  40.065   3.222
21299W        W93625  26.968   6.560  13.564
21300W        W93626   3.715  18.507  11.306
21301W        W93627   6.903   9.387  12.503
21302W        W93628  27.890   5.651   1.754
21303W        W93629   5.681  35.030  13.286
21304W        W93630  18.615  28.037   0.895
21305W        W93631  40.825  25.952   4.328
21306W        W93632  25.936  37.249  11.994
21307W        W93633  12.879  23.810  12.912
21308W        W93634  33.852   2.861  11.547
21309W        W93635  44.482   9.278  14.974
21310W        W93636  13.859  15.785   2.061
21311W        W93637  39.975   4.229  12.952
21312W        W93638  30.871  36.975   3.242
21313W        W93639  26.699  43.372   2.290
21314W        W93640   1.529  44.022   3.243
21315W        W93641  41.377  23.666   0.459
21316W        W93642   6.503  30.087  11.046
21317W        W93643  44.465  12.810   3.415
21318W        W93644  28.139  21.095   0.831
21319W        W93645  12.707  14.200   0.869
21320W        W93646  24.689  24.248  13.615
21321W        W93647  37.541  32.873   1.629
21322W        W93648  26.582  37.331   1.717
21323W        W93649  33.346   2.411  10.640
21324W        W93650  19.178  17.591   0.447
21325W        W93651   2.854  25.536  12.157
21326W        W93652  20.737  27.364   2.294
21327W        W93653  37.958  39.242   1.222
21328W        W93654   5.294  36.589   3.129
21329W        W93655  44.796  44.032  12.081
21330W        W93656  38.870   9.418   2.659
21331W        W93657  19.783  44.997   4.804
21332W        W93658  27.015  25.141   5.033
21333W        W93659  15.370  18.134   1.062
21334W        W93660  12.845   6.705  13.449
21335W        W93661  25.160  22.328  14.771
21336W        W93662  42.283  30.602   4.739
21337W        W93663  41.990  28.788  10.429
21338W        W93664  24.294  18.985   2.371
21339W        W93665  39.812  23.810   3.620
21340W        W93666  39.993  20.805  11.973
21341W        W93667  10.331  38.395   2.374
21342W        W93668   2.783  28.331   0.279
21343W        W93669  25.154  32.872   2.470
21344W        W93670  29.169   7.693   3.280
21345W        W93671  13.284  32.825  13.476
21346W        W93672  23.720  13.562   4.781
21347W        W93673  38.243  40.980  10.769
21348W        W93674  37.618  43.882   0.317
21349W        W93675  32.708  25.527  11.975
21350W        W93676  28.409  37.903   3.275
21351W        W93677   2.298  35.276   4.298
21352W        W93678  38.412  28.632   4.620
21353W        W93679  32.574   1.807  14.361
21354W        W93680   9.753  33.387   1.892
21355W        W93681  20.954  40.289  13.656
21356W        W93682  33.859  15.637  14.482
21357W        W93683  42.830  19.072  11.436
21358W        W93684  34.170  38.363   3.660
21359W        W93685  27.070  28.176   0.437
21360W        W93686  31.362  34.615   1.344
21361W        W93687   3.553  16.763   4.514
21362W        W93688   0.324   5.765   4.071
21363W        W93689  29.498  43.447   0.899
21364W        W93690  23.897  30.969   1.239
21365W        W93691  25.331  11.883   2.696
21366W        W93692  40.424   3.901  14.387
21367W        W93693   5.384  42.929   4.330
21368W        W93694  43.282   9.035   4.924
21369W        W93695  26.846  11.203   4.149
21370W        W93696  12.794  20.141  14.564
21371W        W93697  37.308  42.790   1.015
21372W        W93698  43.430  12.709   5.005
21373W        W93699  25.416  21.603  13.743
21374W        W93700  38.916  23.425  13.759
21375W        W93701  34.461  36.120  11.560
21376W        W93702  18.148  10.435   4.513
21377W        W93703   2.909  16.710   3.740
21378W        W93704  43.809  16.881  14.730
21379W        W93705  30.430  30.230  14.841
21380W        W93706  18.819  13.360  11.524
21381W        W93707  12.774   7.021   2.832
21382W        W93708   4.310  16.564   0.486
21383W        W93709  34.541  30.697   0.777
21384W        W93710   2.213  31.091  13.466
21385W        W93711  33.329   5.706  12.585
21386W        W93712  15.839  18.760  14.804
21387W        W93713  39.863   9.561   2.392
21388W        W93714  16.259  16.780  10.715
21389W        W93715   2.232  34.931  13.583
21390W        W93716  41.454  26.813   1.459
21391W        W93717  44.992  44.998  11.104
21392W        W93718   8.282  10.172   0.683
21393W        W93719   8.728   8.157   4.634
21394W        W93720  33.134  33.538   1.829
21395W        W93721  37.139  37.535   4.136
21396W        W93722  36.209  30.259   4.863
21397W        W93723  34.817   3.893   1.766
21398W        W93724   5.764  40.198   4.547
21399W        W93725  12.166  16.619   1.723
21400W        W93726  43.672  38.497  11.547
21401W        W93727  13.439  11.371  14.262
21402W        W93728  27.687  42.794  13.847
21403W        W93729  40.748   0.845  14.719
21404W        W93730   0.409  28.507  13.138
21405W        W93731  14.133  26.375  11.860
21406W        W93732   9.892  42.902  13.567
21407W        W93733   4.865  12.109  11.226
21408W        W93734  20.722  25.225  11.376
21409W        W93735  43.914   7.455   0.887
21410W        W93736  43.466  43.948   4.602
21411W        W93737  35.074   4.443  11.521
21412W        W93738  13.387   8.606  14.264
21413W        W93739   3.215  34.858   1.943
21414W        W93740   2.114  36.549  11.203
21415W        W93741  40.424   3.154   2.728
21416W        W93742  11.963  29.401  13.499
21417W        W93743  43.770   8.296  13.550
21418W        W93744  20.029  42.441  10.982
21419W        W93745  26.717   9.204   0.776
21420W        W93746   1.341  20.644   2.398
21421W        W93747   5.155   7.096  11.057
21422W        W93748  31.987  23.679   0.956
21423W        W93749  37.586  26.615   2.889
21424W        W93750  13.323   4.052   1.016
21425W        W93751  21.575  22.568  13.267
21426W        W93752  40.816  13.178  12.195
21427W        W93753   8.899  16.254   2.699
21428W        W93754  25.131  12.041  14.889
21429W        W93755  36.267  34.412  13.771
21430W        W93756   9.201  18.634   0.921
21431W        W93757  44.847   0.831  11.384
21432W        W93758  30.583  16.993  11.415
21433W        W93759  34.856  17.220  10.721
21434W        W93760  36.184  11.276  13.532
21435W        W93761  22.732  44.749  11.764
21436W        W93762  35.601   3.428  13.748
21437W        W93763  16.293  15.148  11.107
21438W        W93764  44.063  31.016  14.501
21439W        W93765  15.724   4.387  10.758
21440W        W93766  40.231  41.381   3.670
21441W        W93767  22.537   4.165  13.461
21442W        W93768  35.554  11.644  10.241
21443W        W93769  32.045  15.215  14.315
21444W        W93770  19.136  29.666  10.640
21445W        W93771   4.753  17.544   0.157
21446W        W93772  27.643   1.923  10.635
21447W        W93773  17.163  29.496  11.449
21448W        W93774  14.611  24.691  10.713
21449W        W93775   9.307   6.310  10.727
21450W        W93776  36.086   6.898   4.801
21451W        W93777  33.625   1.927   1.190
21452W        W93778  30.480  39.098  14.274
21453W        W93779  17.476  23.300  14.047
21454W        W93780  20.570  38.477  14.844
21455W        W93781   1.235  42.516  11.527
21456W        W93782  41.995  31.955  12.017
21457W        W93783  33.335  35.954   0.899
21458W        W93784  29.542  39.508   2.800
21459W        W93785   8.148   9.166   1.986
21460W        W93786  42.264  26.976   1.105
21461W        W93787  11.554  27.864  12.744
21462W        W93788  41.522   2.965  13.069
21463W        W93789   3.719  10.178  10.587
21464W        W93790  19.339  31.178  13.745
21465W        W93791  31.281   5.686   0.858
21466W        W93792  40.313   3.181   0.761
21467W        W93793  30.873  43.317   4.319
21468W        W93794  32.091  16.782  13.591
21469W        W93795  31.898   0.723  11.050
21470W        W93796  24.014  38.687   0.247
21471W        W93797  39.248  33.125   0.447
21472W        W93798   1.518   9.900  12.923
21473W        W93799   3.845  37.222  10.421
21474W        W93800  16.725   8.852   4.099
21475W        W93801  37.594  33.951   4.159
21476W        W93802  20.061  13.917  11.910
21477W        W93803  18.249  40.086   0.502
21478W        W93804  42.439  28.716   4.607
21479W        W93805  39.818  42.764  12.621
21480W        W93806  11.953  15.268  10.675
21481W        W93807  12.847  41.965   3.290
21482W        W93808   4.001  43.282  14.983
21483W        W93809   4.859  30.046   4.074
21484W        W93810  14.231  42.692  10.606
21485W        W93811  23.093  18.703   0.015
21486W        W93812   9.678  12.002  11.263
21487W        W93813   9.749  11.953   2.218
21488W        W93814   1.015  29.105   4.750
21489W        W93815  33.945  21.981   1.340
21490W        W93816  34.778  22.107  12.596
21491W        W93817  22.664  26.724  11.819
21492W        W93818  40.487  23.196   0.125
21493W        W93819  16.755  18.549   4.652
21494W        W93820   0.673  30.243   3.306
21495W        W93821  19.579  28.990   0.738
21496W        W93822  15.608  14.575  14.325
21497W        W93823  13.698  27.176   2.833
21498W        W93824  16.420  11.605  11.089
21499W        W93825  33.521  42.255  13.432
21500W        W93826  44.562  26.124   3.864
21501W        W93827   0.986  22.281   3.585
21502W        W93828  35.553  34.093  14.331
21503W        W93829  27.062  27.758   4.506
21504W        W93830  30.134   0.789  14.793
21505W        W93831  39.928  39.291  10.968
21506W        W93832  36.630  13.353   3.701
21507W        W93833  22.329  40.018   0.749
21508W        W93834  28.962  26.197   4.453
21509W        W93835  36.926  23.289  14.287
21510W        W93836   3.896   2.867  12.538
21511W        W93837  17.240  39.538   3.865
21512W        W93838   0.385  37.423  11.457
21513W        W93839  28.599  29.615  10.674
21514W        W93840  10.925   6.214   0.846
21515W        W93841  11.347  31.669   3.872
21516W        W93842  43.266  26.454   3.698
21517W        W93843  27.675   9.963   3.685
21518W        W93844  38.626  35.312  11.981
21519W        W93845   2.651  17.536   1.761
21520W        W93846  26.022   4.058   2.913
21521W        W93847  16.967  14.709  13.854
21522W        W93848  25.993   8.744  11.338
21523W        W93849   8.617  25.429   1.704
21524W        W93850   1.413  21.073  14.410
21525W        W93851  25.758  33.133  12.661
21526W        W93852  38.431  33.316  14.944
21527W        W93853  17.820  42.644  12.920
21528W        W93854  23.088  16.907  10.084
21529W        W93855  16.958  38.396   3.806
21530W        W93856  29.951   9.915   0.981
21531W        W93857  21.611  31.884   3.083
21532W        W93858   5.261  40.543   0.416
21533W        W93859  28.067  10.362   0.489
21534W        W93860  27.284  10.371   0.824
21535W        W93861   1.056  43.829   0.929
21536W        W93862   2.902  10.953  11.875
21537W        W93863  26.630  13.035   3.720
21538W        W93864  18.578  12.701  11.030
21539W        W93865   3.812   8.976   1.307
21540W        W93866  42.990  44.783  11.506
21541W        W93867  37.948  35.844   1.299
21542W        W93868  14.816  13.148   2.671
21543W        W93869  32.687  28.017  11.232
21544W        W93870  32.125  25.868   3.684
21545W        W93871   8.229  15.726  12.091
21546W        W93872  41.240  28.593  14.397
21547W        W93873  27.856  34.003  11.950
21548W        W93874  43.041  30.489  14.792
21549W        W93875  18.344  17.470  10.772
21550W        W93876  11.082  30.883  13.154
21551W        W93877  40.423  21.100  11.152
21552W        W93878  37.466  29.917   1.566
21553W        W93879  40.337  26.577   1.770
21554W        W93880   7.954  40.110   4.153
21555W        W93881  40.447  33.773   3.949
21556W        W93882  13.163   8.115   1.904
21557W        W93883   7.945   9.343  13.167
21558W        W93884  41.588   8.538  11.903
21559W        W93885  29.369  22.058   1.244
21560W        W93886   1.758   7.697   2.729
21561W        W93887   9.713   2.232   1.229
21562W        W93888  23.133  37.544  13.800
21563W        W93889  12.087   9.189   0.424
21564W        W93890  22.750  30.565  13.054
21565W        W93891  45.000  43.354   0.169
21566W        W93892  30.917  15.809   0.036
21567W        W93893  40.333   7.846   2.684
21568W        W93894  30.933  19.295   3.759
21569W        W93895  22.777  30.922  13.418
21570W        W93896  19.521  20.258   2.199
21571W        W93897  29.051  16.500  12.069
21572W        W93898  33.035  19.110  14.816
21573W        W93899  14.595  20.771   1.498
21574W        W93900   2.403  27.741   3.648
21575W        W93901  26.075  39.494  11.481
21576W        W93902  11.868  18.520  12.355
21577W        W93903  39.958  16.646  12.588
21578W        W93904  29.743  13.294   3.211
21579W        W93905  29.340  38.963  11.488
21580W        W93906  15.826  41.509   0.657
21581W        W93907  11.161  42.511   2.799
21582W        W93908  17.171   2.304   2.745
21583W        W93909   8.729  13.924   0.903
21584W        W93910  24.674   8.413  11.232
21585W        W93911  17.800   9.954  11.074
21586W        W93912  19.001  18.393  14.869
21587W        W93913  34.816  28.602  12.005
21588W        W93914  40.565  35.423  10.558
21589W        W93915  25.244  22.834  14.806
21590W        W93916  41.539   4.719   4.706
21591W        W93917  23.375  32.569   0.548
21592W        W93918  11.838   5.251  10.500
21593W        W93919  43.902  11.107  11.360
21594W        W93920   8.408  13.709  14.715
21595W        W93921   9.331  12.091   4.580
21596W        W93922  25.058   2.272   1.936
21597W        W93923  30.111  39.990   3.634
21598W        W93924  19.577   9.269  10.721
21599W        W93925  38.045  25.970  13.720
21600W        W93926  19.448  37.504   3.778
21601W        W93927  22.816   8.192   4.277
21602W        W93928  36.587  26.262   0.295
21603W        W93929  17.612  24.457  10.598
21604W        W93930  14.834  29.453   1.877
21605W        W93931   1.900  16.510  14.584
21606W        W93932  22.068  10.782  14.560
21607W        W93933   5.713  40.867  12.145
21608W        W93934   2.719  43.863  13.946
21609W        W93935  40.363  32.569  11.940
21610W        W93936   9.135  21.623   1.451
21611W        W93937  14.188  32.109  11.692
21612W        W93938  21.164  23.505   0.205
21613W        W93939  13.078  31.502  13.026
21614W        W93940  21.631  33.117   1.386
21615W        W93941  29.909   1.235   1.851
21616W        W93942  39.515   8.349   1.384
21617W        W93943  43.345  34.625  10.827
21618W        W93944   4.948   3.304  13.903
21619W        W93945  36.500  20.715  13.324
21620W        W93946   8.722  33.826   2.612
21621W        W93947  24.493  21.553   3.275
21622W        W93948   1.264  35.055   3.312
21623W        W93949  10.285  39.004   4.001
21624W        W93950  40.203   4.194  11.152
21625W        W93951  43.305  38.974  14.708
21626W        W93952  18.337  17.729   3.468
21627W        W93953   7.250  44.266   4.306
21628W        W93954  20.737  21.612  11.151
21629W        W93955  28.436  43.452   0.418
21630W        W93956  38.541  42.283   4.705
21631W        W93957  36.126  14.261   4.592
21632W        W93958  28.790  29.342   2.351
21633W        W93959  20.178  22.305   3.780
21634W        W93960   3.210  31.670  11.713
21635W        W93961  19.100  41.996  10.882
21636W        W93962   7.138  15.661  10.578
21637W        W93963  19.096  43.387   4.671
21638W        W93964  30.159  36.375   1.444
21639W        W93965   0.983   1.700   5.119
21640W        W93966  27.019   2.701  11.402
21641W        W93967  14.984  11.651   2.750
21642W        W93968  29.056  11.451  14.305
21643W        W93969  42.484   0.191   4.020
21644W        W93970  31.505   4.197  14.049
21645W        W93971  20.139  27.771   0.893
21646W        W93972   6.671  23.283  11.004
21647W        W93973   8.445  36.425   3.351
21648W        W93974  31.399   2.325  13.250
21649W        W93975  10.051  15.711   4.683
21650W        W93976   4.635   5.340   9.608
21651W        W93977  44.328  12.134  12.768
21652W        W93978  35.897  38.400  12.418
21653W        W93979  43.962  23.568   1.675
21654W        W93980  35.776  40.585   1.329
21655W        W93981  41.840  18.169  10.608
21656W        W93982  13.575  24.575   4.053
21657W        W93983  10.190  25.270   0.811
21658W        W93984   5.896  33.518   4.635
21659W        W93985  33.534   8.849  13.133
21660W        W93986   1.022  21.767  13.960
21661W        W93987  37.834  28.652  14.557
21662W        W93988  25.098   3.794   0.253
21663W        W93989  33.441   6.185   5.044
21664W        W93990   3.065   2.341   0.791
21665W        W93991  32.476  17.717  12.347
21666W        W93992  43.192  39.455  12.991
21667W        W93993  26.012  37.046  14.400
21668W        W93994  11.672  33.427   1.819
21669W        W93995   3.917   2.576  10.217
21670W        W93996   9.240  13.555   2.638
21671W        W93997  13.563   5.386  10.601
21672W        W93998   9.450  13.119  14.944
21673W        W93999  36.850  15.143  11.139
21674W        W94000   0.361  41.931   4.582
21675W        W94001  13.093  15.673   1.017
21676W        W94002   8.311  21.269   1.635
21677W        W94003  12.025   6.863  12.999
21678W        W94004  38.000   6.548  13.786
21679W        W94005  37.993  40.804   3.204
21680W        W94006  28.683  38.264  12.982
21681W        W94007  36.770  39.300   2.171
21682W        W94008  32.070   2.644  12.483
21683W        W94009  15.026  24.550   0.799
21684W        W94010   5.886  35.150   3.629
21685W        W94011  32.367  36.608   2.633
21686W        W94012  35.563  18.046  13.481
21687W        W94013  24.100  12.831   1.403
21688W        W94014  36.564  43.565  12.944
21689W        W94015  32.959   8.692  14.459
21690W        W94016   3.114   6.345  12.468
21691W        W94017  24.005  43.794  12.654
21692W        W94018  29.619  41.641  10.403
21693W        W94019  19.039   5.200   2.856
21694W        W94020  32.190   9.139  12.023
21695W        W94021  12.805  44.439  13.304
21696W        W94022  16.574  36.056  12.560
21697W        W94023  38.606  15.805   0.372
21698W        W94024  10.229  26.474   4.050
21699W        W94025  21.469  36.355  12.292
21700W        W94026  15.873  39.518  11.049
21701W        W94027   8.630  37.180  11.076
21702W        W94028  38.237  12.842   0.438
21703W        W94029   0.269  30.547  13.315
21704W        W94030  15.159  23.153  12.307
21705W        W94031  16.106  19.566  13.723
21706W        W94032   4.479   8.772   3.677
21707W        W94033  35.922  19.822  12.558
21708W        W94034   3.366  42.192  10.762
21709W        W94035   0.359  33.981   3.986
21710W        W94036   9.735   4.653  12.679
21711W        W94037  14.236  34.843  13.958
21712W        W94038  14.775   0.954   3.350
21713W        W94039  41.680   2.738   4.110
21714W        W94040   1.851  31.670   3.827
21715W        W94041  20.160   0.584   4.248
21716W        W94042  41.005  36.250   3.622
21717W        W94043  31.038  26.510   0.272
21718W        W94044  44.057  19.564   0.715
21719W        W94045  37.771   2.292  14.938
21720W        W94046  20.046  23.414   4.165
21721W        W94047   7.099  21.431   2.223
21722W        W94048   9.507   9.128   0.774
21723W        W94049  12.340   0.384  11.878
21724W        W94050  40.372  43.319  13.928
21725W        W94051  16.780  30.916   1.295
21726W        W94052  27.969  31.668  13.016
21727W        W94053  42.091  36.617   2.212
21728W        W94054   8.608   6.681  12.830
21729W        W94055  38.342  11.308  10.491
21730W        W94056  35.978  11.552   2.822
21731W        W94057   0.796   5.293   0.763
21732W        W94058  14.177  36.741  10.040
21733W        W94059   5.888  21.011   4.629
21734W        W94060  13.719  43.490   4.714
21735W        W94061  34.626  43.941   4.054
21736W        W94062  32.305  24.526  11.872
21737W        W94063  38.313   8.720   1.871
21738W        W94064   7.260  31.895  11.250
21739W        W94065  25.195   1.030   2.812
21740W        W94066  34.874  14.142  12.892
21741W        W94067  21.100  42.600   4.306
21742W        W94068  21.087  33.396   2.377
21743W        W94069  27.080  39.147  13.408
21744W        W94070   3.906  38.049   1.910
21745W        W94071   9.069  17.507   2.469
21746W        W94072  21.453  29.553   2.645
21747W        W94073  32.916  10.659   2.264
21748W        W94074  25.359  31.879   3.315
21749W        W94075  33.073  15.653   2.299
21750W        W94076  23.201   6.228   4.487
21751W        W94077  31.024  41.755   2.772
21752W        W94078   1.461  30.920  12.060
21753W        W94079  25.133  32.071  12.819
21754W        W94080  15.612   5.964  11.971
21755W        W94081   4.653  44.729  11.558
21756W        W94082  42.257  32.926   4.147
21757W        W94083  31.220  37.841   1.700
21758W        W94084  33.888  12.090  10.598
21759W        W94085  36.688  19.966   3.802
21760W        W94086   8.136  44.959  12.692
21761W        W94087  40.714  22.661  13.751
21762W        W94088   5.329   7.407   1.399
21763W        W94089  42.930  40.907  14.440
21764W        W94090  43.063  18.134   4.094
21765W        W94091  27.261  22.082   1.690
21766W        W94092  16.193  44.795  13.100
21767W        W94093  31.142   9.621   0.085
21768W        W94094   0.085  16.110   3.210
21769W        W94095  30.251  35.508   0.346
21770W        W94096   9.834  21.158  10.666
21771W        W94097  18.494  34.916  12.978
21772W        W94098  18.728  11.544  13.086
21773W        W94099  32.615  25.873  14.917
21774W        W94100   3.334  32.000   0.285
21775W        W94101  37.584   4.011  10.891
21776W        W94102  12.240  34.666  12.868
21777W        W94103  29.123  19.061  14.826
21778W        W94104  44.480   2.862  13.216
21779W        W94105  19.284   3.759   2.273
21780W        W94106  28.378  22.642  12.537
21781W        W94107  33.360   9.130   4.231
21782W        W94108  36.688  26.197  14.447
21783W        W94109  21.811  16.261  13.002
21784W        W94110  34.790  15.102   3.851
21785W        W94111  22.138  32.364  12.412
21786W        W94112  20.385  28.608   1.860
21787W        W94113  37.389   0.455   4.384
21788W        W94114  11.484  35.266   5.381
21789W        W94115  20.161  13.684   2.976
21790W        W94116  38.685  44.905  13.039
21791W        W94117  10.295  36.802   1.262
21792W        W94118  37.879  44.809   1.395
21793W        W94119   4.628  29.159   0.357
21794W        W94120  42.250  13.678   1.334
21795W        W94121  23.066  13.592  13.988
21796W        W94122   6.907  13.343  14.735
21797W        W94123  26.140   3.480   9.875
21798W        W94124   3.238  43.771  11.675
21799W        W94125  17.018  24.171   4.800
21800W        W94126   9.776  38.445  12.915
21801W        W94127  14.557  20.588  12.572
21802W        W94128  27.617  10.920   4.936
21803W        W94129   3.162  25.307   2.215
21804W        W94130  28.275   2.767  13.390
21805W        W94131  24.759  22.626  13.853
21806W        W94132  31.121   6.096  12.402
21807W        W94133  16.693  42.457   0.055
21808W        W94134  19.010  15.716  12.738
21809W        W94135  22.906   8.396  11.345
21810W        W94136  11.748  34.814   4.467
21811W        W94137  24.239  12.760  10.071
21812W        W94138  34.351  19.621  13.956
21813W        W94139   0.856  32.986  11.532
21814W        W94140   1.375  21.274   3.042
21815W        W94141   8.071  36.280  10.451
21816W        W94142  37.563  10.856  14.790
21817W        W94143  22.545  42.696  13.005
21818W        W94144   4.151  19.702   3.696
21819W        W94145  36.850  22.549   1.830
21820W        W94146  26.470  36.139   4.273
21821W        W94147   4.284  43.446   3.692
21822W        W94148  13.217   4.017  13.957
21823W        W94149   0.820  42.477   2.213
21824W        W94150  18.037  24.175  12.000
21825W        W94151   9.323  43.627   3.657
21826W        W94152  13.194  35.513   3.654
21827W        W94153  33.114  22.832   4.162
21828W        W94154  23.589  21.312   3.169
21829W        W94155  26.088  24.611  12.667
21830W        W94156  28.212  44.203  14.099
21831W        W94157   4.028  39.854  13.846
21832W        W94158   6.196   6.809   0.401
21833W        W94159  34.748  20.430   2.839
21834W        W94160   4.697   2.250   0.277
21835W        W94161  44.313  17.602  14.966
21836W        W94162  40.659  32.465  14.786
21837W        W94163  42.982   0.073   3.901
21838W        W94164  19.497  25.386   0.015
21839W        W94165  33.939   5.758   2.438
21840W        W94166  18.640   8.139  13.452
21841W        W94167  39.074  27.688  12.403
21842W        W94168  14.850  34.395   0.504
21843W        W94169  34.442  34.065  13.786
21844W        W94170  13.632  27.675   3.751
21845W        W94171  41.897   9.945  13.912
21846W        W94172  40.503  38.973   0.317
21847W        W94173  23.478   0.815   4.246
21848W        W94174  20.821  38.096  11.931
21849W        W94175  16.127  44.494  14.528
21850W        W94176  14.684   5.987  11.216
21851W        W94177  40.430  36.452   4.802
21852W        W94178  28.103  22.258   1.518
21853W        W94179  13.738  22.003   2.931
21854W        W94180  12.370   9.670  11.872
21855W        W94181  15.105  32.036  14.233
21856W        W94182  12.336  42.274  12.499
21857W        W94183  32.442  43.822   4.486
21858W        W94184   0.856  15.643   4.166
21859W        W94185  11.311  18.525  14.973
21860W        W94186   7.292  27.316  12.054
21861W        W94187  43.003  22.806   3.380
21862W        W94188  42.165  18.237  12.963
21863W        W94189  23.433  12.225   2.740
21864W        W94190  26.119   8.541  10.881
21865W        W94191   1.679  17.948  13.046
21866W        W94192  37.564  12.845   4.468
21867W        W94193  41.087  28.973   3.745
21868W        W94194  12.241  30.160  14.440
21869W        W94195  34.642  27.256  11.708
21870W        W94196  42.944   4.705   2.402
21871W        W94197   1.837  13.014  11.574
21872W        W94198  35.854  34.117  11.847
21873W        W94199  27.998   0.685  13.874
21874W        W94200   2.201  15.710  13.881
21875W        W94201  24.370  39.796   3.706
21876W        W94202  42.455   6.331  11.341
21877W        W94203   6.377  24.577   0.689
21878W        W94204  44.853  44.465  12.859
21879W        W94205   4.816  16.885  11.625
21880W        W94206  30.603  37.332   1.673
21881W        W94207  20.464  40.929   4.692
21882W        W94208   1.774  29.488   3.176
21883W        W94209  14.304  29.150  14.338
21884W        W94210  38.275  27.360   4.452
21885W        W94211   5.021  43.993   0.549
21886W        W94212  43.879  21.128   1.769
21887W        W94213  14.313  41.428  14.895
21888W        W94214  17.505  24.979   3.381
21889W        W94215  31.168  31.739   0.221
21890W        W94216  37.969   3.734   1.803
21891W        W94217   1.222  13.084  11.610
21892W        W94218  36.790  29.535  10.568
21893W        W94219  24.803  28.558   0.282
21894W        W94220  10.405   0.982  11.499
21895W        W94221  20.211   5.871   3.613
21896W        W94222  17.335   7.387   3.812
21897W        W94223  27.064  37.121  13.482
21898W        W94224  39.165  20.638  11.591
21899W        W94225  34.573  36.517   2.389
21900W        W94226  37.893  33.487  13.478
21901W        W94227   2.982  26.213  11.153
21902W        W94228   6.319  21.221   2.847
21903W        W94229   7.132  22.425   0.665
21904W        W94230  12.900   9.242   3.644
21905W        W94231  44.490  36.644   3.632
21906W        W94232  38.064  31.458  14.205
21907W        W94233  21.239  18.269  13.967
21908W        W94234  16.212   4.224  12.956
21909W        W94235  35.122  24.707   3.265
21910W        W94236  17.060  28.896   1.664
21911W        W94237  22.217  15.083  10.716
21912W        W94238   0.449   8.822   0.015
21913W        W94239  44.360  26.643   2.794
21914W        W94240  22.819  14.638  10.947
21915W        W94241  44.333  12.656  11.944
21916W        W94242  32.021  17.269   1.091
21917W        W94243   8.631   7.265  12.530
21918W        W94244  20.279  13.130  12.512
21919W        W94245   3.606  30.639   4.122
21920W        W94246  40.997  14.546  12.387
21921W        W94247  42.023  30.646  13.927
21922W        W94248  37.402  15.580  13.010
21923W        W94249  39.847   6.501  13.900
21924W        W94250   4.756  15.264  13.925
21925W        W94251   6.620  41.320  11.889
21926W        W94252  37.607  16.557   1.438
21927W        W94253  35.356  16.681  11.596
21928W        W94254   3.867  32.505  13.866
21929W        W94255  38.523  10.684   0.094
21930W        W94256  40.253  34.490  10.159
21931W        W94257  28.983   6.319  10.585
21932W        W94258  17.005  24.730   2.232
21933W        W94259  35.328   8.222  10.759
21934W        W94260  31.769  18.187   1.537
21935W        W94261  29.504  17.984  13.568
21936W        W94262  32.667  36.566   2.215
21937W        W94263  13.256  28.189  14.461
21938W        W94264  15.533  30.383  14.774
21939W        W94265  15.820  19.607   1.792
21940W        W94266  42.014   6.415  11.588
21941W        W94267  37.256  20.480  10.508
21942W        W94268  22.618  18.259   1.043
21943W        W94269  32.774  27.148  13.911
21944W        W94270  42.134  26.710  11.103
21945W        W94271  33.643  11.104   3.775
21946W        W94272  37.257  30.442  13.833
21947W        W94273  21.520  32.875  10.919
21948W        W94274  36.462  18.072   1.869
21949W        W94275  38.497  31.890   2.685
21950W        W94276  19.193   0.847   3.416
21951W        W94277   5.029  11.791   4.593
21952W        W94278  33.152  33.392  10.822
21953W        W94279  10.895  15.055   0.744
21954W        W94280  15.127  43.809   3.250
21955W        W94281  23.569  10.305  13.456
21956W        W94282   4.307  27.723  10.620
21957W        W94283  42.905  15.029   0.274
21958W        W94284   3.681  12.346  13.554
21959W        W94285  38.051  22.100   1.525
21960W        W94286  12.349  21.288   4.147
21961W        W94287  20.038  25.625   3.866
21962W        W94288   1.180   4.237   2.344
21963W        W94289   4.951  29.778  12.584
21964W        W94290   9.872  35.462  13.373
21965W        W94291  28.525  12.257   1.618
21966W        W94292  32.400   2.820  14.029
21967W        W94293  43.672  24.138  12.004
21968W        W94294   0.003  35.049  12.896
21969W        W94295   0.918  31.385   4.142
21970W        W94296  32.113  25.078   3.378
21971W        W94297  42.577  13.566   4.238
21972W        W94298   5.151  22.093  10.669
21973W        W94299  11.380  10.892  11.020
21974W        W94300  17.035  25.676  11.495
21975W        W94301  43.478  18.080  12.421
21976W        W94302  41.845  38.826  11.576
21977W        W94303  19.191  22.445  11.852
21978W        W94304   1.739  21.454  10.155
21979W        W94305   9.769  17.948  13.867
21980W        W94306  14.305   8.343   2.172
21981W        W94307  17.583   8.351  10.523
21982W        W94308  35.134  38.597   1.434
21983W        W94309   4.136  26.271   4.607
21984W        W94310  30.405   7.408  12.070
21985W        W94311   9.284  38.054   1.718
21986W        W94312  37.992  21.489   4.706
21987W        W94313   6.568  19.123   2.143
21988W        W94314  19.899  10.809  14.096
21989W        W94315  38.104  31.056  13.881
21990W        W94316   1.756   4.770  11.656
21991W        W94317  21.534  27.214   1.857
21992W        W94318  18.243  21.071  13.930
21993W        W94319   0.157   5.057  10.654
21994W        W94320  28.159  24.425   4.234
21995W        W94321  13.666  11.332   4.643
21996W        W94322  12.242   1.072  12.438
21997W        W94323   0.515  43.891  11.573
21998W        W94324  29.003   7.990   0.277
21999W        W94325  37.159  18.794  14.541
22000W        W94326  38.913  38.805   4.275
22001W        W94327  22.928  32.102   3.187
22002W        W94328   7.769  36.141  12.868
22003W        W94329  16.889  44.167   0.036
22004W        W94330  26.467  38.299  12.945
22005W        W94331  38.374  37.548  10.629
22006W        W94332  15.150   0.294  14.483
22007W        W94333  12.140  25.606  14.331
22008W        W94334  34.827  13.796  12.489
22009W        W94335  42.313   8.384  12.374
22010W        W94336  24.762  38.538  14.047
22011W        W94337  30.087  37.422  10.987
22012W        W94338  44.868  34.881   1.163
22013W        W94339  28.225   0.202  14.082
22014W        W94340  42.903   5.892   2.774
22015W        W94341   8.477  24.127  13.531
22016W        W94342  32.747  30.903  12.374
22017W        W94343  41.859   6.501   3.363
22018W        W94344  33.059  34.502  14.851
22019W        W94345  20.358   7.305   1.262
22020W        W94346  23.167  17.607   5.441
22021W        W94347  12.351   8.837   4.792
22022W        W94348  42.066  34.502   5.273
22023W        W94349  18.055  44.587   4.461
22024W        W94350   9.197  37.575   4.171
22025W        W94351  18.439   1.743  11.126
22026W        W94352   0.819   6.791  14.336
22027W        W94353  14.408  13.262  10.706
22028W        W94354  37.562   9.427   4.763
22029W        W94355   0.939  21.163   1.391
22030W        W94356  41.476  19.053   4.855
22031W        W94357   1.304  32.146   2.319
22032W        W94358  23.853  13.167   4.051
22033W        W94359  34.849  35.036  11.956
22034W        W94360  33.909   0.577   0.567
22035W        W94361   8.164  43.811  14.994
22036W        W94362  10.690  36.838  12.902
22037W        W94363  18.100   5.386   0.398
22038W        W94364  23.101  43.973  10.486
22039W        W94365  27.719   9.868  12.203
22040W        W94366  34.623  28.370   0.738
22041W        W94367  15.018  10.746   2.917
22042W        W94368  13.086  16.849   2.715
22043W        W94369  31.178  32.924  10.502
22044W        W94370  43.071  35.537  12.083
22045W        W94371   6.948  43.647  13.445
22046W        W94372  32.039  12.600   0.539
22047W        W94373  43.588   1.440  11.561
22048W        W94374  27.386  39.230  13.816
22049W        W94375   8.082  19.184  12.077
22050W        W94376  21.782  41.485   4.095
22051W        W94377   2.625   7.084  12.035
22052W        W94378  10.143  41.446  11.204
22053W        W94379  25.256   5.914   0.925
22054W        W94380  44.384   4.445   3.611
22055W        W94381  38.540  15.179  10.726
22056W        W94382   8.094  16.117   1.439
22057W        W94383  41.863  12.760  14.122
22058W        W94384  41.206  24.245  14.844
22059W        W94385  23.503  27.722   4.518
22060W        W94386   9.764  40.347   0.894
22061W        W94387  16.627   6.527   2.354
22062W        W94388  25.534   0.732  12.053
22063W        W94389  40.807  32.005  14.538
22064W        W94390  19.456  40.503   3.608
22065W        W94391   5.904  40.301  10.829
22066W        W94392   0.859  34.706   3.349
22067W        W94393  16.007   9.471  10.687
22068W        W94394  37.462  29.530   3.486
22069W        W94395  37.045   5.792  14.416
22070W        W94396  36.053  38.941  11.468
22071W        W94397   1.811  15.378  11.154
22072W        W94398  23.183  35.534   4.386
22073W        W94399   2.319   7.591   2.794
22074W        W94400  37.938  37.928  14.888
22075W        W94401   1.066  10.321  10.694
22076W        W94402  18.508  22.059   4.150
22077W        W94403  19.879  40.843   4.277
22078W        W94404  18.693   6.916  11.810
22079W        W94405  12.791  36.088   5.139
22080W        W94406  25.099  19.957   2.824
22081W        W94407  10.470  31.731   2.489
22082W        W94408  29.893  25.567   1.896
22083W        W94409  33.452   3.892  10.705
22084W        W94410  24.321  35.386   2.986
22085W        W94411  22.176  22.104   4.277
22086W        W94412  21.752   0.307   2.282
22087W        W94413  31.417  15.867  14.909
22088W        W94414   7.512  17.660  11.129
22089W        W94415  30.654  35.795  13.371
22090W        W94416   7.262   3.813  12.928
22091W        W94417   4.871  22.707   5.131
22092W        W94418  19.755   0.292   0.266
22093W        W94419  42.399   2.915   0.419
22094W        W94420  43.893  32.624   2.757
22095W        W94421  18.226   8.173  14.775
22096W        W94422  41.846   3.238  12.777
22097W        W94423  12.947  32.767  13.861
22098W        W94424   9.437   2.754  14.469
22099W        W94425  35.575  26.458   0.367
22100W        W94426  41.566  27.989  11.656
22101W        W94427  25.530  12.680   1.838
22102W        W94428  36.221  34.691   4.128
22103W        W94429   6.654  31.592  11.240
22104W        W94430  44.906  23.178  12.864
22105W        W94431  44.543  43.763  11.723
22106W        W94432  26.440   2.410   3.177
22107W        W94433  41.035  25.042  11.405
22108W        W94434  16.076  26.946   2.656
22109W        W94435  43.527  17.541  12.354
22110W        W94436  28.964  13.156   2.692
22111W        W94437  15.206  32.099   0.241
22112W        W94438  13.869  17.265  11.470
22113W        W94439  23.679  33.079  11.745
22114W        W94440  44.100  11.188   2.646
22115W        W94441  33.213  11.331  11.880
22116W        W94442  22.831  18.083   3.112
22117W        W94443  32.882   2.554  10.437
22118W        W94444  44.807  23.721  10.687
22119W        W94445  29.600  24.164  10.616
22120W        W94446  18.647   8.924   1.770
22121W        W94447  15.523  20.478   1.320
22122W        W94448  36.352  25.169   0.358
22123W        W94449   2.248  34.447  13.396
22124W        W94450  17.146  15.747  12.244
22125W        W94451   6.023  17.558   4.551
22126W        W94452  15.893  44.937   4.589
22127W        W94453  21.045  26.638  14.482
22128W        W94454  15.617   6.360  11.119
22129W        W94455  42.516  37.311   0.937
22130W        W94456  11.699   5.431   1.594
22131W        W94457  21.218   8.965  11.197
22132W        W94458  21.644  20.260  10.920
22133W        W94459  25.255  42.800  12.783
22134W        W94460  43.870  16.568  10.724
22135W        W94461  14.631  19.164  12.912
22136W        W94462  16.827  18.240  11.952
22137W        W94463  20.677  16.571   3.601
22138W        W94464   0.937  17.569   3.492
22139W        W94465  29.959  12.301   1.087
22140W        W94466  22.186  37.382   1.933
22141W        W94467   6.761   4.928  12.093
22142W        W94468  37.827  12.132  10.897
22143W        W94469   2.590  11.099   2.665
22144W        W94470   2.011   2.939   3.272
22145W        W94471  13.520  21.130  10.918
22146W        W94472  28.866   7.655   4.163
22147W        W94473  28.613   8.745   2.827
22148W        W94474  37.433  21.945  14.045
22149W        W94475   6.820  18.881  11.142
22150W        W94476  41.132   3.535   2.138
22151W        W94477  42.781  26.109   4.890
22152W        W94478  43.872  25.157  12.141
22153W        W94479   1.986  34.615  14.383
22154W        W94480  24.934  38.990  14.984
22155W        W94481  17.157  11.431   0.422
22156W        W94482  25.635  36.168  13.945
22157W        W94483   7.871  40.407  13.479
22158W        W94484  20.554  24.692   0.451
22159W        W94485   6.008  26.873  11.501
22160W        W94486   2.842  21.778  11.534
22161W        W94487  11.155  34.871   0.058
22162W        W94488  39.000  16.603  11.180
22163W        W94489   4.275  28.569  12.611
22164W        W94490   5.674  23.133  12.107
22165W        W94491  41.444  25.236  14.125
22166W        W94492   7.281  18.504   2.878
22167W        W94493  32.683  38.504   4.104
22168W        W94494  42.005   4.250  11.380
22169W        W94495  36.488  12.615   0.808
22170W        W94496  16.206   9.265   3.552
22171W        W94497  35.630  35.268   2.744
22172W        W94498  36.305  17.633  12.430
22173W        W94499   6.726  10.663  11.167
22174W        W94500  13.840  31.825   0.269
22175W        W94501   5.672  37.108  12.641
22176W        W94502  39.441  15.165   0.449
22177W        W94503  29.400  41.316   3.518
22178W        W94504   5.250  19.791  10.777
22179W        W94505  15.114  20.554   2.799
22180W        W94506   7.883  15.076  13.548
22181W        W94507   0.154  23.125  12.402
22182W        W94508  12.559  34.480   3.700
22183W        W94509   5.664  34.875   3.264
22184W        W94510   8.817  36.952   4.721
22185W        W94511  42.349   3.837   5.005
22186W        W94512  43.310  21.270  14.781
22187W        W94513   6.068  29.162   3.319
22188W        W94514  32.950   6.849   4.761
22189W        W94515   4.838  13.747   4.055
22190W        W94516  36.083  23.771   2.774
22191W        W94517   3.075  11.661  12.824
22192W        W94518   3.323  43.545  11.212
22193W        W94519  30.515  43.308  14.500
22194W        W94520  10.922  19.247   3.699
22195W        W94521  31.163  26.982   0.467
22196W        W94522  40.462   5.664   0.849
22197W        W94523   6.800   6.308  13.018
22198W        W94524  38.019  20.057  11.934
22199W        W94525  14.308  30.010   0.741
22200W        W94526  25.194  12.594  11.776
22201W        W94527  18.224  13.219  12.922
22202W        W94528  22.585  12.414  13.403
22203W        W94529  40.349  16.283   4.535
22204W        W94530   4.337  25.020   4.413
22205W        W94531  33.072  31.040   0.931
22206W        W94532   7.616  30.385   4.225
22207W        W94533  15.577  17.297  13.938
22208W        W94534  39.753   1.355   3.094
22209W        W94535   4.100  39.992  11.841
22210W        W94536  43.582   4.645   3.923
22211W        W94537  40.847  37.377  10.396
22212W        W94538  35.106  18.336  13.495
22213W        W94539  24.959  26.366  12.483
22214W        W94540  26.743   0.113  14.886
22215W        W94541   6.512  13.870  10.747
22216W        W94542   5.208  17.237  13.913
22217W        W94543  38.572  30.078   0.490
22218W        W94544   9.485  14.150   4.816
22219W        W94545  37.822  39.220  13.884
22220W        W94546  43.848   5.059  10.948
22221W        W94547   6.210  27.607  10.857
22222W        W94548  28.093   2.275   0.877
22223W        W94549  24.760  38.497  14.918
22224W        W94550   7.196  17.323   2.204
22225W        W94551  23.963   8.782   4.323
22226W        W94552  19.985  29.537   3.466
22227W        W94553  41.216  41.296  13.024
22228W        W94554   7.348  12.837  12.001
22229W        W94555  43.766  19.795   2.294
22230W        W94556   4.742  31.287   1.401
22231W        W94557  14.069   5.810   2.752
22232W        W94558  40.012  33.543   2.361
22233W        W94559  20.290   6.793   2.191
22234W        W94560  25.183   3.518  14.830
22235W        W94561  23.879  23.692  13.480
22236W        W94562  44.847   1.933  14.718
22237W        W94563  34.721   7.275  11.515
22238W        W94564  40.497  32.946   2.646
22239W        W94565   1.065  11.451  14.272
22240W        W94566  33.730  19.690   2.813
22241W        W94567   0.843  20.550   4.536
22242W        W94568  18.535  24.775   1.284
22243W        W94569  36.305  14.449  11.097
22244W        W94570   3.286  27.381   1.841
22245W        W94571   5.908  19.204  11.769
22246W        W94572  23.138  25.096   4.559
22247W        W94573   8.487  20.689  13.862
22248W        W94574   5.394  40.407  11.614
22249W        W94575   7.594  32.093  13.585
22250W        W94576  18.060  10.899   1.789
22251W        W94577   7.184  44.758  12.525
22252W        W94578   1.957  21.312  12.967
22253W        W94579  26.725   8.268  13.847
22254W        W94580   0.871  14.626  12.290
22255W        W94581  34.381  28.216   1.728
22256W        W94582  44.314  36.224  10.440
22257W        W94583  20.172  22.617  12.335
22258W        W94584   3.748  38.063  11.075
22259W        W94585  39.905   5.587   4.043
22260W        W94586   1.685  25.528   0.305
22261W        W94587   1.456  19.728   3.681
22262W        W94588  20.616   2.672  14.303
22263W        W94589  18.637  27.599   0.403
22264W        W94590   6.382  42.903   4.529
22265W        W94591   2.191  41.266  11.126
22266W        W94592  21.185  28.511   4.871
22267W        W94593  35.762   0.821   1.477
22268W        W94594   0.051  35.099  14.473
22269W        W94595  19.673  27.036   4.616
22270W        W94596  11.342   9.898   3.664
22271W        W94597  13.559  27.790  11.532
22272W        W94598  33.545  24.034  10.528
22273W        W94599   9.100  40.813  14.746
22274W        W94600  37.309  35.472  12.897
22275W        W94601  19.264  42.966  14.750
22276W        W94602  16.303   8.330   3.635
22277W        W94603  15.530  30.836   4.239
22278W        W94604   5.218  12.147  13.431
22279W        W94605  37.358  16.580   1.930
22280W        W94606  39.087  42.529  13.895
22281W        W94607   2.261  35.946  14.463
22282W        W94608   7.454  15.882  11.968
22283W        W94609  26.612  27.934   0.549
22284W        W94610  35.450   0.734   4.721
22285W        W94611  37.075  19.822  14.546
22286W        W94612  31.133  20.808  11.617
22287W        W94613   2.125  38.515  14.405
22288W        W94614  27.551  39.057   1.884
22289W        W94615  17.318  44.933   1.882
22290W        W94616  20.876  26.649   4.006
22291W        W94617  17.060  42.852  13.325
22292W        W94618  27.726  19.024   2.686
22293W        W94619  12.357  29.741  13.397
22294W        W94620  25.536  38.119  10.535
22295W        W94621  36.119  18.107  14.824
22296W        W94622  15.231  41.998   3.583
22297W        W94623  15.229  11.829   1.050
22298W        W94624   2.525  17.064   3.634
22299W        W94625  40.839  39.353   0.378
22300W        W94626  25.544  14.749   1.478
22301W        W94627  23.805  41.799   0.444
22302W        W94628  11.231  11.274  12.967
22303W        W94629  28.866  31.340   0.797
22304W        W94630  17.312  27.597   2.721
22305W        W94631  43.918  12.317   0.040
22306W        W94632  33.714  18.665  13.370
22307W        W94633  14.317  42.019  12.902
22308W        W94634  23.296   6.411   2.147
22309W        W94635  37.968  25.980   1.775
22310W        W94636  36.927   7.201  11.108
22311W        W94637  20.029  10.056   1.264
22312W        W94638  20.974  29.443   2.396
22313W        W94639  29.220   2.432  11.139
22314W        W94640   2.368  35.271  11.574
22315W        W94641   4.780  12.486  14.843
22316W        W94642  33.503  40.179  13.304
22317W        W94643  30.639  34.805  14.354
22318W        W94644   4.262  22.075  11.128
22319W        W94645  33.042  33.429  13.293
22320W        W94646  12.076  24.956  11.577
22321W        W94647  43.774   9.161  13.867
22322W        W94648  11.676  21.205  14.962
22323W        W94649  38.424  27.959  14.322
22324W        W94650  38.157  13.300  13.377
22325W        W94651  30.824  17.444  11.536
22326W        W94652  13.008  12.849   1.041
22327W        W94653  41.003  11.748   0.907
22328W        W94654  44.984  37.850   3.113
22329W        W94655  25.370  17.808  11.555
22330W        W94656  39.995   1.929  10.724
22331W        W94657  19.567  37.901   0.794
22332W        W94658  43.487  13.442  12.661
22333W        W94659  23.545  39.434   1.311
22334W        W94660  11.036   4.745  11.064
22335W        W94661  12.593   9.226   0.389
22336W        W94662   7.419   5.819   1.215
22337W        W94663  35.461   1.137  11.786
22338W        W94664  37.725  29.439   9.714
22339W        W94665  25.611  23.772   2.338
22340W        W94666   2.438  38.843   2.310
22341W        W94667   7.721   8.438   0.873
22342W        W94668  37.016  18.832   4.105
22343W        W94669   3.649  23.530   5.146
22344W        W94670  25.419  21.462  14.503
22345W        W94671   9.428  27.917   1.318
22346W        W94672  21.969  39.362   4.211
22347W        W94673   1.022  33.495  11.646
22348W        W94674  39.547  19.055   3.167
22349W        W94675   2.646  34.835   4.232
22350W        W94676  27.499   2.202  13.812
22351W        W94677  43.914   9.237   3.089
22352W        W94678  31.905  44.198  14.835
22353W        W94679  40.225   2.458  14.399
22354W        W94680   3.972  28.970  11.267
22355W        W94681  29.667   1.454  11.168
22356W        W94682   3.140   5.204   0.009
22357W        W94683  36.344   5.806   3.170
22358W        W94684  30.115  26.398  10.575
22359W        W94685  38.640   2.682   3.324
22360W        W94686  31.835  13.147   2.375
22361W        W94687   1.790  18.188   3.792
22362W        W94688  31.183  28.936   0.405
22363W        W94689  19.988  28.318  12.545
22364W        W94690  33.147   7.329  12.727
22365W        W94691  43.002  30.515  11.515
22366W        W94692  21.691  18.049   1.321
22367W        W94693  17.650  34.429   4.491
22368W        W94694  11.567  17.262   0.419
22369W        W94695  16.155   3.138   0.334
22370W        W94696  16.671  19.642   2.414
22371W        W94697  44.457   3.525   4.071
22372W        W94698  20.249  26.964   3.657
22373W        W94699  41.421  15.731  12.449
22374W        W94700  19.610   8.927   2.769
22375W        W94701  34.031   6.353  12.410
22376W        W94702  34.183  16.035   0.356
22377W        W94703  32.023  32.013   0.450
22378W        W94704  37.122  42.445   2.625
22379W        W94705  15.631   0.976   1.248
22380W        W94706   3.395  25.909   0.781
22381W        W94707  41.333   3.939  10.786
22382W        W94708  37.297  19.738   4.070
22383W        W94709  40.074  35.035  14.371
22384W        W94710   0.293   6.932  14.392
22385W        W94711  10.846  14.611  14.500
22386W        W94712  43.772  11.841   2.668
22387W        W94713  42.733   9.713   1.900
22388W        W94714   2.762   7.104   3.714
22389W        W94715  27.930   8.000  12.091
22390W        W94716  20.360   0.743  12.021
22391W        W94717   7.915  25.253  14.497
22392W        W94718   8.962  36.247  13.389
22393W        W94719  42.089  39.045   4.090
22394W        W94720   4.570  26.550   2.843
22395W        W94721  41.861   7.483   3.281
22396W        W94722  39.912   0.572  11.958
22397W        W94723  40.307   1.859  14.433
22398W        W94724  30.909  29.431  12.456
22399W        W94725  38.847  33.947   4.520
22400W        W94726  38.640  11.259  12.240
22401W        W94727  38.232  38.069   3.731
22402W        W94728  36.045  19.744   2.684
22403W        W94729  27.985  21.328   4.372
22404W        W94730   3.527  36.337   1.382
22405W        W94731  28.015  10.802  11.446
22406W        W94732   9.371  35.779  13.937
22407W        W94733  34.454  40.753   1.178
22408W        W94734  11.328   6.852   1.793
22409W        W94735  43.352  30.104   3.688
22410W        W94736   0.559  19.653   2.933
22411W        W94737  31.990  20.267  13.374
22412W        W94738  27.270  12.142   3.627
22413W        W94739   6.293   2.767   4.034
22414W        W94740  19.608  24.749  14.440
22415W        W94741  31.369  31.615   4.234
22416W        W94742   6.189   8.097  13.828
22417W        W94743  43.485  39.560   3.288
22418W        W94744  14.102  34.305   4.591
22419W        W94745  30.172  13.094  12.924
22420W        W94746  37.845  42.301   3.375
22421W        W94747  15.859  38.834   2.300
22422W        W94748  27.338  18.692   3.522
22423W        W94749   4.807  23.250  12.276
22424W        W94750  39.047  28.963   3.559
22425W        W94751   4.367  38.741  10.207
22426W        W94752  25.177  24.813   4.200
22427W        W94753  25.429  26.150  14.934
22428W        W94754  39.979  33.863  11.571
22429W        W94755  12.332  40.494  10.588
22430W        W94756   3.352  24.844   2.120
22431W        W94757  44.349  29.953  10.545
22432W        W94758  15.275  28.164  14.924
22433W        W94759  43.263  28.253   3.396
22434W        W94760  34.466  25.239   0.365
22435W        W94761  38.006  26.920   2.245
22436W        W94762  34.027  20.676  11.170
22437W        W94763  35.068  40.095  11.459
22438W        W94764  22.222  17.302  12.289
22439W        W94765  21.111  13.078  10.721
22440W        W94766   0.840   0.009   1.384
22441W        W94767  41.084  23.722   4.488
22442W        W94768   8.813  19.576  14.099
22443W        W94769  36.520  36.509   1.278
22444W        W94770  40.521  39.929   4.614
22445W        W94771  35.900  10.674  12.464
22446W        W94772  36.858  31.003  11.743
22447W        W94773  40.500  42.841  12.837
22448W        W94774  33.641  29.704  10.624
22449W        W94775  32.208  10.255   0.970
22450W        W94776  20.030  27.728   1.904
22451W        W94777  12.619   4.545   5.046
22452W        W94778  20.765  10.419  14.219
22453W        W94779  41.756  21.112   3.923
22454W        W94780  30.949  26.567  12.117
22455W        W94781  23.229   2.682   4.307
22456W        W94782  31.830  18.991  11.650
22457W        W94783  13.843  44.448  14.404
22458W        W94784  13.315  37.686  11.999
22459W        W94785  44.205   0.960   3.790
22460W        W94786   9.659  40.476   3.124
22461W        W94787  10.992  10.852  11.923
22462W        W94788  39.363   5.190   2.850
22463W        W94789  20.212  35.073   1.882
22464W        W94790  30.460  27.880  12.121
22465W        W94791  34.853  25.097   0.735
22466W        W94792   9.369  16.589   3.872
22467W        W94793  21.195  32.843   1.464
22468W        W94794   9.659  22.650  11.574
22469W        W94795  26.534  37.980   0.730
22470W        W94796  31.278  43.384  10.791
22471W        W94797  13.589  11.182   1.875
22472W        W94798  27.162  24.108   0.268
22473W        W94799  44.712   6.397  12.461
22474W        W94800  13.444  20.458   2.205
22475W        W94801  28.736  12.975   3.748
22476W        W94802  35.016  23.937  13.315
22477W        W94803  38.738  12.260   2.194
22478W        W94804  14.779  25.924   4.615
22479W        W94805   9.363  24.265  12.076
22480W        W94806  10.213  40.581  12.392
22481W        W94807   7.236   3.381   0.261
22482W        W94808   6.781  10.649   2.525
22483W        W94809  28.020  33.415   4.275
22484W        W94810  41.819  11.379  10.777
22485W        W94811  10.307  11.891   2.638
22486W        W94812  38.518  30.678  13.294
22487W        W94813  25.170  31.619  13.049
22488W        W94814   8.225   3.053   2.856
22489W        W94815  17.718  42.128   1.604
22490W        W94816  22.031  11.115  10.675
22491W        W94817  28.716   6.356  11.035
22492W        W94818  35.870  23.463   1.828
22493W        W94819  21.663  37.479  13.727
22494W        W94820  36.605  10.282  13.510
22495W        W94821   5.318  37.575   3.164
22496W        W94822  37.270  29.537  10.730
22497W        W94823  23.375  14.366  14.150
22498W        W94824  36.042  34.688   4.605
22499W        W94825  32.147  38.282  10.789
22500W        W94826  39.114  11.778  13.322
22501W        W94827  23.809   9.919   2.444
22502W        W94828   6.273  38.260  14.737
22503W        W94829  29.530   4.750   0.799
22504W        W94830  14.359  21.982  12.914
22505W        W94831   4.159  28.657   3.912
22506W        W94832  31.075   0.895  13.261
22507W        W94833  15.118  39.270   4.059
22508W        W94834  28.134   9.749  14.737
22509W        W94835  31.897   6.835   4.597
22510W        W94836  13.453   0.010   4.775
22511W        W94837   9.127  14.638  14.852
22512W        W94838  14.267  16.094  13.930
22513W        W94839  25.741   6.311  10.717
22514W        W94840  16.678   0.501  13.829
22515W        W94841  32.536  43.298  13.431
22516W        W94842  43.289  37.907  12.487
22517W        W94843  17.021   0.714  12.917
22518W        W94844  31.526   7.250   4.340
22519W        W94845  18.658  19.249   2.317
22520W        W94846  33.503  21.761   2.449
22521W        W94847  38.403  14.778  14.534
22522W        W94848   8.346  20.498   1.312
22523W        W94849   0.853   1.991   4.503
22524W        W94850  27.411  25.692  13.592
22525W        W94851  39.447   8.376  11.687
22526W        W94852  44.915  24.130   4.658
22527W        W94853  32.955  20.555   3.844
22528W        W94854  33.531  32.521   4.250
22529W        W94855  16.195  13.582  14.798
22530W        W94856  12.780  12.413  12.026
22531W        W94857  28.152  35.835   5.212
22532W        W94858   1.575  44.907  14.047
22533W        W94859  38.348  17.773   0.134
22534W        W94860   9.428   7.104  12.005
22535W        W94861  37.978  28.373  12.162
22536W        W94862   9.175  15.875   3.028
22537W        W94863  22.146   6.201   0.766
22538W        W94864  11.937  18.230  13.350
22539W        W94865   7.716  44.102   0.838
22540W        W94866  17.093  44.019   4.527
22541W        W94867  36.598  27.410   2.176
22542W        W94868  15.948  42.633   3.196
22543W        W94869  12.645  32.601  10.916
22544W        W94870  15.543   6.033   4.026
22545W        W94871  12.185   7.117  11.699
22546W        W94872  23.105  11.741  14.481
22547W        W94873  11.980  21.653  11.117
22548W        W94874  27.680   3.483  14.363
22549W        W94875  29.743  34.531   4.959
22550W        W94876  26.449  19.192   1.648
22551W        W94877  22.631  21.274  10.961
22552W        W94878  37.528  33.949   1.024
22553W        W94879  33.399  25.413   3.322
22554W        W94880  18.796  15.125   2.581
22555W        W94881  10.829  21.562   1.704
22556W        W94882  25.598  19.170   1.744
22557W        W94883  44.490  22.275  10.654
22558W        W94884  25.251  20.507  12.455
22559W        W94885  29.568  32.895  12.993
22560W        W94886  18.812  34.029  12.416
22561W        W94887   0.185  35.055   4.082
22562W        W94888  36.543   1.498  12.010
22563W        W94889  27.501  33.294  12.816
22564W        W94890  21.990   3.366   1.541
22565W        W94891  36.898  31.168   2.937
22566W        W94892  26.968  40.122   1.779
22567W        W94893  39.295  28.624  11.425
22568W        W94894  26.523  44.726   3.634
22569W        W94895  40.273  30.091   3.342
22570W        W94896  14.716  17.574  11.199
22571W        W94897  37.113  21.075  13.903
22572W        W94898  25.416  25.314  13.063
22573W        W94899  42.913  34.469  11.977
22574W        W94900  18.358  30.870  14.789
22575W        W94901  30.816  27.496  11.027
22576W        W94902  10.304   0.933   2.358
22577W        W94903   2.250  19.205   1.684
22578W        W94904   8.347  13.249   3.736
22579W        W94905   7.143  28.123   4.175
22580W        W94906  20.622  44.217  11.878
22581W        W94907  34.495  32.383   1.888
22582W        W94908  26.039  34.031  13.018
22583W        W94909   0.669  43.109   3.758
22584W        W94910  17.177   9.934  14.539
22585W        W94911  21.585  33.346  10.693
22586W        W94912   4.274  24.912   3.925
22587W        W94913   5.351  37.872   2.721
22588W        W94914  44.454  12.389  11.496
22589W        W94915  22.029  40.650   4.604
22590W        W94916  32.717   6.919  14.978
22591W        W94917  10.648  16.674  10.471
22592W        W94918  33.992  20.171   0.118
22593W        W94919  21.159  22.294  13.909
22594W        W94920  17.743  32.952   4.397
22595W        W94921  25.109  29.324   1.390
22596W        W94922  11.084  22.217   0.240
22597W        W94923   9.352  19.182   4.532
22598W        W94924   8.624  19.345   0.397
22599W        W94925  14.809   9.423  11.186
22600W        W94926  30.067  41.729   2.849
22601W        W94927  18.671   3.712   1.517
22602W        W94928  40.103   9.081  13.078
22603W        W94929  18.737  42.159   3.495
22604W        W94930   5.208  31.449  12.024
22605W        W94931   5.254  30.191  10.661
22606W        W94932  32.113  25.670  12.523
22607W        W94933  20.248  38.525   9.837
22608W        W94934  40.121   7.846   4.105
22609W        W94935  26.670  10.948   3.435
22610W        W94936  10.555  15.044  11.901
22611W        W94937  43.030  30.888   5.016
22612W        W94938   6.445   0.938  13.372
22613W        W94939  33.667  38.216  12.650
22614W        W94940  21.221  25.473   2.567
22615W        W94941  39.520  42.817  13.049
22616W        W94942  28.028   7.559  13.015
22617W        W94943  20.424   4.373  14.880
22618W        W94944   5.224  17.116  12.911
22619W        W94945  25.900  20.733   4.054
22620W        W94946  39.350  36.870  13.082
22621W        W94947   0.498  18.816   2.199
22622W        W94948  12.861  31.935   0.408
22623W        W94949  40.624   4.974  11.165
22624W        W94950   1.545  42.837  11.203
22625W        W94951  22.155  40.473   2.688
22626W        W94952   4.815  21.607   3.122
22627W        W94953  42.512  23.288  13.506
22628W        W94954   8.300  16.226   0.971
22629W        W94955  38.885  13.355  11.948
22630W        W94956  27.366   4.420  11.493
22631W        W94957  25.540   8.481   0.464
22632W        W94958  16.742  36.629   4.448
22633W        W94959  14.704  22.511  12.488
22634W        W94960   3.535   6.032   0.360
22635W        W94961  34.626  43.215   0.220
22636W        W94962  44.367  12.609  11.044
22637W        W94963  36.150  19.726  14.358
22638W        W94964   2.257  17.317   2.129
22639W        W94965  10.162  11.669  14.310
22640W        W94966   0.606  35.094  14.483
22641W        W94967  31.929   9.907  11.659
22642W        W94968  22.156  42.432  10.618
22643W        W94969  15.112  27.127  11.729
22644W        W94970   5.757  40.807  13.926
22645W        W94971  11.700   1.050  13.789
22646W        W94972  25.942  27.822   3.713
22647W        W94973  16.332  41.258  14.988
22648W        W94974  38.454  41.934   3.580
22649W        W94975  34.749  18.255  13.977
22650W        W94976  15.562  15.103  10.114
22651W        W94977  11.404  43.657   1.729
22652W        W94978  26.103  35.890  12.358
22653W        W94979   5.055  18.247   0.502
22654W        W94980  34.513  17.974  11.449
22655W        W94981  23.498  26.424   3.549
22656W        W94982  44.818  28.986   2.927
22657W        W94983  25.267  23.612  10.688
22658W        W94984  15.745  19.178   0.108
22659W        W94985  34.748  16.259   3.698
22660W        W94986  17.104  21.790   1.348
22661W        W94987  40.166  35.831   3.260
22662W        W94988  33.627   8.895  14.071
22663W        W94989  22.327  27.587  10.710
22664W        W94990   1.908   9.723  14.467
22665W        W94991  35.870   7.997  14.833
22666W        W94992  42.802  36.918   1.693
22667W        W94993  22.634  27.695  14.209
22668W        W94994  37.228  35.153   2.829
22669W        W94995  40.795  42.308   3.398
22670W        W94996  21.665  44.435   1.739
22671W        W94997  17.330  18.092  12.933
22672W        W94998  15.077  37.801   1.445
22673W        W94999  15.154  21.548   0.839
22674W        W95000   9.858  17.256   3.730
22675W        W95001  42.000   3.661  12.997
22676W        W95002  40.521  44.898  14.990
22677W        W95003  28.962   7.944   2.822
22678W        W95004  23.979   6.916  11.586
22679W        W95005  40.643  28.517  13.027
22680W        W95006   2.813  25.004   9.662
22681W        W95007  32.446   0.050  12.108
22682W        W95008  14.334  17.289   1.275
22683W        W95009  10.098  14.289  11.063
22684W        W95010  25.947  22.289   0.955
22685W        W95011  16.366  16.193   3.288
22686W        W95012  40.284   1.911   1.286
22687W        W95013  40.428   3.660  12.473
22688W        W95014  31.079   2.241   2.255
22689W        W95015  15.177   5.811   0.521
22690W        W95016   4.334  37.260  14.537
22691W        W95017  37.841   4.431   4.197
22692W        W95018  42.469   5.135   4.406
22693W        W95019  35.428  27.234  14.979
22694W        W95020  42.310  21.102   4.640
22695W        W95021   6.621  39.038   2.791
22696W        W95022   2.341  20.564   5.506
22697W        W95023  12.598  42.418   3.333
22698W        W95024  19.670  17.644  14.192
22699W        W95025  10.578  14.860  14.865
22700W        W95026  24.584  21.846  14.379
22701W        W95027   2.313  24.886   3.188
22702W        W95028   6.480  26.802   9.947
22703W        W95029  16.848   4.796  11.307
22704W        W95030   8.626  43.984   1.242
22705W        W95031  39.992  34.045   3.714
22706W        W95032  23.187  34.473  13.912
22707W        W95033  41.750  43.150   4.631
22708W        W95034   5.283  20.280  12.186
22709W        W95035  27.766  33.918   3.283
22710W        W95036  34.096  40.388   0.547
22711W        W95037   8.886   9.281  11.194
22712W        W95038   0.582  32.494   1.892
22713W        W95039  28.624  21.918   4.889
22714W        W95040  35.285   8.346   2.813
22715W        W95041   5.427  42.500  10.765
22716W        W95042  38.734  33.831   2.199
22717W        W95043  13.667  32.767  14.877
22718W        W95044  44.035  14.250   1.295
22719W        W95045  30.807   7.440   4.373
22720W        W95046  12.143  12.253  11.042
22721W        W95047  35.664  10.480  11.099
22722W        W95048  10.572  16.653  11.608
22723W        W95049  16.373  41.418  14.501
22724W        W95050  27.616  42.464  11.994
22725W        W95051  13.414  30.397   0.901
22726W        W95052  31.891  34.931   2.808
22727W        W95053  18.332   7.392  12.487
22728W        W95054   5.095  33.580  13.576
22729W        W95055  18.098   0.373  11.939
22730W        W95056  25.630  13.910   1.367
22731W        W95057  11.360  13.868   2.797
22732W        W95058  44.880  20.048   0.918
22733W        W95059  26.685  44.981  13.959
22734W        W95060   1.620  10.604   0.424
22735W        W95061   7.759  30.091  14.057
22736W        W95062  44.270  40.367   0.310
22737W        W95063  42.387  24.516   4.862
22738W        W95064   5.289  44.360  14.279
22739W        W95065  15.876   4.293   0.675
22740W        W95066  41.543   6.226   1.255
22741W        W95067  37.294  44.930  14.799
22742W        W95068  18.528  23.460   0.561
22743W        W95069  16.377  32.509   0.827
22744W        W95070  40.244  15.854   3.760
22745W        W95071  11.762  35.022   2.192
22746W        W95072  29.665  15.872  12.397
22747W        W95073  17.871  20.714  14.160
22748W        W95074   4.493   1.129   2.526
22749W        W95075  11.345  15.553  11.968
22750W        W95076  24.575   7.582  10.670
22751W        W95077  24.703  12.168   2.268
22752W        W95078   4.383  27.176   2.456
22753W        W95079   4.061  26.570   2.916
22754W        W95080  12.158  23.191  13.404
22755W        W95081  18.380   1.840  11.641
22756W        W95082   4.839  25.594  11.658
22757W        W95083   2.811  24.157  10.528
22758W        W95084  20.063  24.595   3.471
22759W        W95085  40.047  16.183   4.113
22760W        W95086  11.687   4.796   0.862
22761W        W95087  25.019   0.884   0.396
22762W        W95088   5.475  36.617   5.015
22763W        W95089   6.756  39.887   2.664
22764W        W95090   3.878  18.637   1.779
22765W        W95091  21.173  33.730   2.889
22766W        W95092  39.586  38.605   3.785
22767W        W95093  39.318  19.128   0.439
22768W        W95094  13.273   7.117   1.702
22769W        W95095  14.707  16.221  10.969
22770W        W95096   4.196   0.641   4.506
22771W        W95097  33.998   2.468  13.355
22772W        W95098  34.991  23.266   3.588
22773W        W95099  18.157  40.539  11.883
22774W        W95100  36.473   8.475   1.272
22775W        W95101  32.382  26.572   4.640
22776W        W95102   5.568  12.664  11.325
22777W        W95103  44.567   0.329   3.121
22778W        W95104  23.610  43.319  10.903
22779W        W95105  26.721  36.965   0.867
22780W        W95106  25.673  20.889  12.466
22781W        W95107  15.663  26.463   0.182
22782W        W95108  19.010  43.499  14.063
22783W        W95109  11.901  23.979   0.447
22784W        W95110  30.189   6.662  14.101
22785W        W95111  37.893  22.306   4.170
22786W        W95112  26.484  41.333   0.221
22787W        W95113  32.407  42.912  10.126
22788W        W95114  40.630  43.414  11.665
22789W        W95115  33.070  17.011  11.030
22790W        W95116  20.160   2.776   1.037
22791W        W95117  19.664   2.357   2.296
22792W        W95118  26.160  23.861   2.133
22793W        W95119  14.880  24.687   0.315
22794W        W95120  33.463   9.813   2.437
22795W        W95121  26.930  19.043  12.034
22796W        W95122   4.882  36.006  11.524
22797W        W95123  28.464  31.812  14.411
22798W        W95124  33.517  18.295   1.406
22799W        W95125  14.907  14.592   2.222
22800W        W95126  26.812  13.139   1.247
22801W        W95127   0.178   7.727   4.031
22802W        W95128  34.743  10.402   4.065
22803W        W95129  12.797  40.883   1.657
22804W        W95130  14.349  44.879  13.786
22805W        W95131   6.780   6.857  11.700
22806W        W95132  39.548   1.222   3.585
22807W        W95133  32.885  43.078   0.354
22808W        W95134  11.663  14.571  11.997
22809W        W95135  24.602  16.946   0.536
22810W        W95136  18.871   6.148   2.855
22811W        W95137  32.120   3.356  11.555
22812W        W95138  42.201  17.052   0.797
22813W        W95139  13.631  32.971   2.601
22814W        W95140   4.369  38.871   4.707
22815W        W95141  20.577  42.996   4.186
22816W        W95142  40.341   3.425   0.301
22817W        W95143  37.794  13.893   5.549
22818W        W95144  25.345  16.053   3.653
22819W        W95145   3.077  20.171   1.439
22820W        W95146  40.416  21.544   0.989
22821W        W95147  39.598  44.935   2.462
22822W        W95148  17.604  37.802   3.838
22823W        W95149  16.599  23.934  11.180
22824W        W95150  13.608  10.420  13.219
22825W        W95151  43.696  23.150   3.775
22826W        W95152  17.863  25.069  11.659
22827W        W95153  32.890   1.434   2.729
22828W        W95154  28.106  34.608   1.983
22829W        W95155  28.820   1.741   3.349
22830W        W95156  43.263  23.971  12.920
22831W        W95157   0.764  10.292  11.122
22832W        W95158  16.147  29.066   2.061
22833W        W95159   6.892   9.368   1.388
22834W        W95160   1.449   4.043   4.230
22835W        W95161  27.484  28.898   0.188
22836W        W95162  44.445  11.413  13.894
22837W        W95163  27.046   3.915   0.033
22838W        W95164   8.338  39.119   2.175
22839W        W95165   3.396  16.201   3.198
22840W        W95166  41.664  44.126   3.756
22841W        W95167  20.175  30.438   3.815
22842W        W95168  27.633  36.961  11.864
22843W        W95169  10.161  10.868   2.909
22844W        W95170   1.515  19.071  12.347
22845W        W95171   4.652  15.319   2.585
22846W        W95172   5.443  36.253   1.230
22847W        W95173   4.885  43.395  11.538
22848W        W95174  14.127  34.948  13.008
22849W        W95175  34.454  30.530  12.213
22850W        W95176  34.148  33.649   2.299
22851W        W95177  17.643   1.468   1.929
22852W        W95178   0.833   3.806   1.169
22853W        W95179  21.118  33.609  12.302
22854W        W95180  22.740  24.952   3.245
22855W        W95181  35.973  24.130   4.609
22856W        W95182  14.706  32.485   2.867
22857W        W95183   4.939  31.220  11.460
22858W        W95184  21.732  12.659  13.916
22859W        W95185  39.488  27.896  14.312
22860W        W95186  29.208  27.232   3.494
22861W        W95187  16.759  40.228   2.294
22862W        W95188  14.587  17.173   0.610
22863W        W95189  43.852  37.391  11.598
22864W        W95190  37.918  29.640  14.791
22865W        W95191  25.722  28.651  11.585
22866W        W95192  41.133  27.840   3.726
22867W        W95193  27.518  36.530   2.739
22868W        W95194   9.113  33.501   2.473
22869W        W95195  27.273  29.872  11.030
22870W        W95196  42.748  36.352   3.316
22871W        W95197  23.988  36.618   0.379
22872W        W95198  39.110  42.615   2.951
22873W        W95199  15.839  13.268   2.868
22874W        W95200   0.428  18.762  13.518
22875W        W95201  14.323  30.899   3.827
22876W        W95202  18.078  29.373   2.856
22877W        W95203  33.633  23.095   3.714
22878W        W95204  31.892  43.772   1.756
22879W        W95205  28.690  33.786  11.277
22880W        W95206  18.155   3.462   4.531
22881W        W95207   0.265  34.003  12.411
22882W        W95208   9.240  19.795  11.623
22883W        W95209  30.031   2.110   0.124
22884W        W95210   3.996  11.735   2.506
22885W        W95211   5.312  39.864  14.937
22886W        W95212  22.626  42.399  14.369
22887W        W95213  22.480  42.662  10.088
22888W        W95214  27.604  24.782  14.022
22889W        W95215  36.432  36.441   3.308
22890W        W95216   0.420  13.326  12.674
22891W        W95217  18.819  14.455  13.977
22892W        W95218  13.170   1.373   4.635
22893W        W95219  37.936   1.030   2.256
22894W        W95220  28.713  10.328   1.924
22895W        W95221  43.884   8.512  12.208
22896W        W95222  40.529   4.888   3.172
22897W        W95223  32.574   4.166  11.137
22898W        W95224  21.725   9.654   2.656
22899W        W95225  24.329  43.363   3.122
22900W        W95226  26.133  31.841   4.067
22901W        W95227  16.031  23.534  14.784
22902W        W95228  33.761   4.617  11.139
22903W        W95229   4.195   3.679  14.027
22904W        W95230  38.811   0.895  12.052
22905W        W95231  37.252  38.864  13.246
22906W        W95232  42.051  32.954  11.151
22907W        W95233   5.825  40.302  10.279
22908W        W95234  44.851  16.789  12.955
22909W        W95235  35.437  36.145   5.408
22910W        W95236  30.032  32.236  12.683
22911W        W95237   3.396   7.454   3.321
22912W        W95238  19.713  17.082   2.337
22913W        W95239  17.107  36.168  11.642
22914W        W95240  13.918  31.395  12.551
22915W        W95241  24.924   1.535  14.046
22916W        W95242  16.595   2.996   3.721
22917W        W95243   6.145  25.570  13.548
22918W        W95244  30.693  37.072   1.226
22919W        W95245  43.251   4.346   2.151
22920W        W95246  19.158  20.564  14.494
22921W        W95247  24.397  42.562   4.879
22922W        W95248  16.229  34.595   4.643
22923W        W95249  12.243  13.170   3.739
22924W        W95250  10.735  27.371  11.565
22925W        W95251  43.711  24.710   2.440
22926W        W95252   9.188  30.596   3.886
22927W        W95253   1.347  20.905  13.671
22928W        W95254   9.451  17.845   2.227
22929W        W95255  22.325  16.351  11.175
22930W        W95256  26.672  18.344   9.924
22931W        W95257  34.465   9.857  11.814
22932W        W95258  13.271  38.343   3.171
22933W        W95259   2.330  32.976  10.430
22934W        W95260  14.353  37.289  13.585
22935W        W95261  16.639  27.795  10.547
22936W        W95262  23.496   1.943  11.855
22937W        W95263  37.933   1.723  14.275
22938W        W95264  35.973   8.624   4.029
22939W        W95265  12.019  38.919   4.691
22940W        W95266  36.364  12.304  11.983
22941W        W95267  42.344  34.942  10.751
22942W        W95268  36.363   7.332   3.336
22943W        W95269  42.743   2.915   4.707
22944W        W95270  24.441   0.544   3.593
22945W        W95271  20.184  21.651   0.079
22946W        W95272  14.692  19.292   3.673
22947W        W95273  34.960   0.496  14.841
22948W        W95274  39.034  34.649  11.113
22949W        W95275  32.896   1.856   1.972
22950W        W95276  23.554  10.277   1.407
22951W        W95277  40.546  14.049  12.029
22952W        W95278  17.687  30.599   3.190
22953W        W95279  20.737  33.660  13.168
22954W        W95280  38.633   4.848  12.511
22955W        W95281  15.303  26.951   2.051
22956W        W95282  28.411  21.754  12.644
22957W        W95283  34.511  15.487   4.120
22958W        W95284  21.634  27.134  12.992
22959W        W95285   1.706  41.458  11.179
22960W        W95286  15.281  24.169  11.997
22961W        W95287  37.045   6.265   1.046
22962W        W95288  26.693  10.859   0.361
22963W        W95289   9.366   2.493   0.339
22964W        W95290  14.239  14.320   0.508
22965W        W95291  40.832   3.934   4.225
22966W        W95292   4.658  10.222  10.427
22967W        W95293  19.497  17.880   1.945
22968W        W95294  30.104   1.500   2.264
22969W        W95295   2.754  34.979   1.310
22970W        W95296   4.587   0.829  12.092
22971W        W95297  20.654   3.882  14.717
22972W        W95298  10.654  16.615  12.868
22973W        W95299  14.290  44.854  11.746
22974W        W95300  18.000   0.269   3.842
22975W        W95301  39.055  21.692  14.309
22976W        W95302  24.558  11.387   2.705
22977W        W95303  12.167   4.782   4.514
22978W        W95304   9.799  22.304   0.957
22979W        W95305   7.261  28.868  11.383
22980W        W95306  27.813  23.071  12.086
22981W        W95307  15.594  38.585  12.883
22982W        W95308  27.531  28.403   3.747
22983W        W95309  32.362  38.295  11.238
22984W        W95310   8.185  38.439   1.415
22985W        W95311  24.489  39.295  10.841
22986W        W95312  44.739  38.398  11.448
22987W        W95313  10.519  35.992   3.028
22988W        W95314  31.623  31.406  14.308
22989W        W95315  35.580   7.023   4.764
22990W        W95316  19.041  25.567   2.157
22991W        W95317   8.184  38.386   4.709
22992W        W95318   3.689  42.038  12.495
22993W        W95319  39.307  41.184  11.646
22994W        W95320  41.477  40.955   3.609
22995W        W95321  12.642   0.343  10.792
22996W        W95322  43.477  31.392   2.798
22997W        W95323   9.984  30.389   5.096
22998W        W95324  40.054   8.119   2.275
22999W        W95325  18.891  26.035  14.803
23000W        W95326  12.554   4.227   2.464
23001W        W95327  26.051   0.740   2.156
23002W        W95328  11.354  13.912  13.281
23003W        W95329  29.442  35.968   4.264
23004W        W95330  37.356  33.731   1.918
23005W        W95331  22.046  17.026  10.648
23006W        W95332  44.912  28.442  13.914
23007W        W95333  43.425  39.944  11.808
23008W        W95334   0.033   1.814   0.193
23009W        W95335  15.297  30.100   3.750
23010W        W95336  17.358  26.594  10.285
23011W        W95337  36.764   6.238   5.107
23012W        W95338  22.623  27.824  10.329
23013W        W95339  29.712  17.639  13.280
23014W        W95340  21.338  44.539  11.166
23015W        W95341  22.514  35.460   0.881
23016W        W95342  37.049   1.494  12.012
23017W        W95343  15.868  13.264   1.307
23018W        W95344  38.496  44.933   1.977
23019W        W95345  28.560  23.689  12.443
23020W        W95346  25.528   9.771  14.390
23021W        W95347  32.666  23.053   4.465
23022W        W95348   4.441  22.816   1.174
23023W        W95349  38.474  15.036  11.911
23024W        W95350  33.948  42.256   0.993
23025W        W95351  15.818  25.472   3.838
23026W        W95352  32.458   5.906   3.695
23027W        W95353  12.623  33.047  12.418
23028W        W95354  16.512   8.159   1.400
23029W        W95355  27.917   1.568   4.190
23030W        W95356   1.765  15.282   3.191
23031W        W95357  25.755  16.461  14.344
23032W        W95358  25.451  43.054   2.355
23033W        W95359  35.955  39.551   3.762
23034W        W95360   4.643  29.363  13.944
23035W        W95361  23.077  27.218   3.267
23036W        W95362  24.932  28.423   1.144
23037W        W95363  41.392   4.459  14.026
23038W        W95364  36.532  31.920  14.637
23039W        W95365  18.691  36.609  11.070
23040W        W95366  42.795  43.404  12.609
23041W        W95367  38.350  32.845   3.264
23042W        W95368  13.934   3.010   2.382
23043W        W95369  20.870  39.299  10.220
23044W        W95370   6.288  33.083   4.101
23045W        W95371   6.999  23.661   4.530
23046W        W95372   6.612  15.143  13.318
23047W        W95373  10.292  23.767   4.780
23048W        W95374  35.088  40.496   4.610
23049W        W95375   8.644  22.040  14.799
23050W        W95376   4.306   5.145  12.198
23051W        W95377   5.245  31.122  12.429
23052W        W95378  22.516  15.614  13.305
23053W        W95379  24.943  22.773  11.057
23054W        W95380   7.848  42.512  13.218
23055W        W95381   2.151   4.338   0.281
23056W        W95382  33.801   6.812  12.504
23057W        W95383  19.622  24.583  12.494
23058W        W95384  10.834  16.211  10.618
23059W        W95385   9.401  11.179  12.538
23060W        W95386  41.974  20.087  12.831
23061W        W95387   7.216  25.375  13.529
23062W        W95388  29.116  28.689   1.756
23063W        W95389  11.826  12.902   1.337
23064W        W95390  35.117   1.787  10.667
23065W        W95391  39.991  24.958  11.163
23066W        W95392   8.850  25.744   2.603
23067W        W95393   3.757  42.826   2.499
23068W        W95394   5.595  10.039   0.908
23069W        W95395  23.023  11.020   0.928
23070W        W95396   4.689   3.765  13.875
23071W        W95397  29.366  32.697  14.203
23072W        W95398  38.561  40.147   0.207
23073W        W95399   5.954  30.478  13.374
23074W        W95400  35.505  34.609  14.434
23075W        W95401  40.977  31.101   4.530
23076W        W95402  14.130  29.443  11.074
23077W        W95403  28.586  20.794   2.537
23078W        W95404  14.079   7.623  13.953
23079W        W95405  28.107  40.511   4.874
23080W        W95406  12.288   2.911  13.754
23081W        W95407  40.345  35.600  11.550
23082W        W95408  23.483   6.388   0.793
23083W        W95409  11.657  35.400  13.644
23084W        W95410  43.314  30.252   1.608
23085W        W95411  18.797  28.623  11.620
23086W        W95412  43.063  19.614   0.469
23087W        W95413   0.342  14.182   3.518
23088W        W95414  32.029  24.656   0.987
23089W        W95415   7.125  25.670   1.439
23090W        W95416  38.929  11.514  11.877
23091W        W95417  15.317  31.994   5.144
23092W        W95418  31.109  41.821   3.743
23093W        W95419   5.465   7.117   0.985
23094W        W95420   2.828  42.783   4.583
23095W        W95421  13.788  30.404  12.617
23096W        W95422   5.647  27.722   4.134
23097W        W95423   2.970  28.990   1.086
23098W        W95424  40.251  25.673  13.932
23099W        W95425  35.875  15.249  11.182
23100W        W95426  18.471   8.725   2.633
23101W        W95427  38.385  40.740  13.083
23102W        W95428  31.867  19.487  12.856
23103W        W95429  12.851  37.841   2.817
23104W        W95430  44.953  31.959   2.653
23105W        W95431   6.688  10.188  10.955
23106W        W95432  15.226   3.056  12.150
23107W        W95433  33.500  27.175  12.552
23108W        W95434  21.238   8.731  13.248
23109W        W95435  38.668   7.136   1.701
23110W        W95436  17.242   9.096   5.250
23111W        W95437  21.278  28.418   3.930
23112W        W95438  42.363  26.919   2.135
23113W        W95439   8.667  26.230   3.739
23114W        W95440  16.663  24.311  13.594
23115W        W95441  18.808  29.928  12.012
23116W        W95442  39.724   7.527   2.962
23117W        W95443  19.840   1.990   3.521
23118W        W95444  29.138  10.384   1.609
23119W        W95445   6.439   7.593   2.224
23120W        W95446   9.753  25.223  14.439
23121W        W95447   9.783   9.030  13.389
23122W        W95448  32.055   2.414  14.014
23123W        W95449  10.683  20.941  13.797
23124W        W95450  17.944  20.179  14.290
23125W        W95451   1.325  23.215   5.154
23126W        W95452  17.425  18.033   1.813
23127W        W95453  35.256  15.948   2.850
23128W        W95454  43.382  31.578   4.142
23129W        W95455  32.464  30.565   4.242
23130W        W95456  11.096  15.742  10.647
23131W        W95457  44.138  18.148  10.429
23132W        W95458  24.555  39.280   5.462
23133W        W95459  44.941  19.749  10.669
23134W        W95460  23.702  26.453  12.919
23135W        W95461   3.677   5.732   1.956
23136W        W95462  42.822  20.630   0.671
23137W        W95463  35.761  21.368   9.611
23138W        W95464  25.117   7.266   2.717
23139W        W95465  18.694  13.099  13.127
23140W        W95466  19.731   5.523  14.425
23141W        W95467  15.498  36.498  11.863
23142W        W95468  18.192  35.614  13.439
23143W        W95469  20.807  23.061  11.045
23144W        W95470  32.065  28.235  13.794
23145W        W95471   9.823  10.883  13.787
23146W        W95472  41.913  31.337  13.405
23147W        W95473  33.484  31.827   1.831
23148W        W95474   0.991  43.031   0.423
23149W        W95475  27.522   2.997   0.864
23150W        W95476  28.247  30.935   3.717
23151W        W95477   7.307  37.562  10.977
23152W        W95478  34.115  44.027  11.576
23153W        W95479  29.274  11.624   4.638
23154W        W95480   9.062   3.639   4.133
23155W        W95481  12.356  21.668   3.361
23156W        W95482  10.740  15.806   3.721
23157W        W95483   8.452  32.874  11.129
23158W        W95484  30.021  24.134   4.522
23159W        W95485  30.011   8.868  14.986
23160W        W95486  39.539  27.523   4.342
23161W        W95487  11.712  12.093  13.070
23162W        W95488  44.070   9.816   4.071
23163W        W95489  19.687   4.482  10.195
23164W        W95490  30.755  27.986   0.804
23165W        W95491  12.786  21.017   1.932
23166W        W95492  18.318  28.044   2.363
23167W        W95493   9.779  31.958  11.949
23168W        W95494  28.642  32.740  11.474
23169W        W95495  37.978  16.973   0.521
23170W        W95496  12.516   8.422  14.820
23171W        W95497  38.378  39.919   3.248
23172W        W95498  31.036  26.730  11.646
23173W        W95499  16.259  14.559   0.747
23174W        W95500   2.666   7.371  13.968
23175W        W95501  23.653  39.490  10.419
23176W        W95502  25.884  15.691  11.348
23177W        W95503  33.013  31.911  13.379
23178W        W95504  44.947  11.375  14.021
23179W        W95505  40.471  26.911   2.185
23180W        W95506  37.025  17.628  12.008
23181W        W95507  27.463  20.907  11.161
23182W        W95508  15.840   3.552   2.645
23183W        W95509  34.592   8.699   4.541
23184W        W95510   4.788  29.877   3.575
23185W        W95511  32.620  30.267  11.166
23186W        W95512  18.196  32.142  11.708
23187W        W95513  19.943  14.182  11.117
23188W        W95514  44.800  28.074   4.667
23189W        W95515   5.267  43.054   2.669
23190W        W95516  32.188   3.811  13.920
23191W        W95517  35.587  15.891   2.450
23192W        W95518  35.101  32.435  13.096
23193W        W95519  39.985  14.898  10.973
23194W        W95520  23.439  30.243   1.109
23195W        W95521  35.359  17.595  14.991
23196W        W95522  29.222  30.329   4.463
23197W        W95523  38.936  31.439   4.566
23198W        W95524  41.755   3.259  11.849
23199W        W95525  15.739   4.444   1.148
23200W        W95526  11.326  13.080   1.485
23201W        W95527  29.104   1.217   1.955
23202W        W95528  11.841  15.396  13.307
23203W        W95529  21.643  41.323   1.794
23204W        W95530  32.916  27.932  11.712
23205W        W95531  13.562  33.520   3.748
23206W        W95532  38.023  16.337   4.361
23207W        W95533  15.611  33.624  14.514
23208W        W95534  23.795  43.886  13.665
23209W        W95535  32.849  17.696  10.673
23210W        W95536  25.991  11.969   1.228
23211W        W95537  38.948  12.663  13.787
23212W        W95538  18.328  42.980   0.261
23213W        W95539   5.752  17.300   3.357
23214W        W95540  23.049  39.260   1.818
23215W        W95541  37.607  30.393   0.804
23216W        W95542   4.329  15.009   1.199
23217W        W95543  15.894  12.322   1.380
23218W        W95544  23.779  41.743   4.119
23219W        W95545  12.671   0.714  14.227
23220W        W95546   3.447  14.030  13.483
23221W        W95547  25.512  25.103  14.788
23222W        W95548  33.501  44.765  10.574
23223W        W95549  17.745   9.121  12.632
23224W        W95550  19.084  44.489   3.659
23225W        W95551  30.095  34.149   0.297
23226W        W95552  39.999  11.528  10.633
23227W        W95553  23.026  32.359  12.099
23228W        W95554  28.971  28.634  11.033
23229W        W95555  11.107  13.712  13.702
23230W        W95556  39.589  18.633  12.932
23231W        W95557  34.015   2.973  13.342
23232W        W95558   7.240   0.838  11.577
23233W        W95559  29.868  24.201  12.006
23234W        W95560  11.248   3.217  12.489
23235W        W95561  40.048   2.304  12.867
23236W        W95562   2.877  28.000   4.731
23237W        W95563   2.799  11.333   4.130
23238W        W95564  39.693  32.961  11.483
23239W        W95565  12.801  30.566   2.873
23240W        W95566  20.725  24.706  12.480
23241W        W95567  44.497  26.667   1.360
23242W        W95568  13.812   6.372  13.811
23243W        W95569  35.987  14.772   4.543
23244W        W95570  25.268  14.274  13.839
23245W        W95571  27.912  43.619  11.162
23246W        W95572  15.287   3.217   0.306
23247W        W95573  20.124  30.375   4.637
23248W        W95574   2.713  41.292  13.115
23249W        W95575  12.415  44.449   1.334
23250W        W95576   8.731  28.738  11.281
23251W        W95577   4.388  28.070  13.496
23252W        W95578  32.345  14.151  11.911
23253W        W95579  25.271  18.151  13.413
23254W        W95580   7.192  21.314  12.926
23255W        W95581   9.519   8.135  12.034
23256W        W95582  35.020  24.653   1.016
23257W        W95583  43.924   3.273   1.890
23258W        W95584  29.082  43.500  13.384
23259W        W95585   1.004   4.391  12.154
23260W        W95586   1.365   7.147  14.952
23261W        W95587  35.491  16.234   4.133
23262W        W95588  13.851  40.898  12.790
23263W        W95589  37.868  17.363  11.519
23264W        W95590   6.685  20.242  12.621
23265W        W95591  12.517   9.462   3.330
23266W        W95592  32.118  17.023   3.788
23267W        W95593   5.174  19.484  11.192
23268W        W95594  27.697  28.745  14.289
23269W        W95595  20.548  10.706   2.181
23270W        W95596   8.700  23.297   4.199
23271W        W95597  13.209  13.719  14.963
23272W        W95598   7.221  16.839  12.140
23273W        W95599  17.202  12.295   4.365
23274W        W95600  18.709  43.045  14.921
23275W        W95601  35.126  26.013   0.044
23276W        W95602  29.377  17.904  11.404
23277W        W95603  31.451  20.020   4.209
23278W        W95604  43.584  18.049   4.242
23279W        W95605  37.628   4.846  12.467
23280W        W95606  15.630  23.137   3.345
23281W        W95607  28.171  15.037  13.366
23282W        W95608  18.259  33.006   3.632
23283W        W95609  14.009  44.048  14.717
23284W        W95610  31.622  24.512  13.201
23285W        W95611  28.027   5.334  14.880
23286W        W95612  39.614   4.891  12.357
23287W        W95613  40.369   0.983  13.942
23288W        W95614   7.293   8.334  11.614
23289W        W95615  24.013  21.608  14.766
23290W        W95616   7.961  14.267  11.964
23291W        W95617  34.047   5.938   2.898
23292W        W95618   6.682  17.956  10.989
23293W        W95619  11.760  38.116   2.648
23294W        W95620   0.240   3.357  11.932
23295W        W95621  13.353  25.987   3.398
23296W        W95622  41.379  21.048  14.020
23297W        W95623  35.981  33.970  13.795
23298W        W95624  20.708  22.717   3.216
23299W        W95625  20.251  26.548   0.547
23300W        W95626  26.092   4.327   3.830
23301W        W95627  15.587   9.495   2.796
23302W        W95628  32.917   0.453   0.690
23303W        W95629  19.951  34.560   3.207
23304W        W95630  37.501   9.583  13.547
23305W        W95631  13.877  40.537  12.392
23306W        W95632  33.058  11.250  13.237
23307W        W95633  25.839   4.899   3.310
23308W        W95634  16.977  12.147   9.832
23309W        W95635  25.171   4.741  10.588
23310W        W95636  12.685  22.496   4.887
23311W        W95637  12.237   7.406   3.602
23312W        W95638  26.671   4.770   1.443
23313W        W95639  29.134  28.591  11.582
23314W        W95640  37.565   2.273   1.316
23315W        W95641  24.744  29.931   1.756
23316W        W95642  42.742  16.621   0.850
23317W        W95643  22.075  41.359  13.782
23318W        W95644   0.745  24.567   3.231
23319W        W95645  40.599  24.187   5.265
23320W        W95646   9.700  24.650   1.331
23321W        W95647  21.088  10.508   3.613
23322W        W95648  36.471  29.141  10.477
23323W        W95649  20.159  24.939   3.828
23324W        W95650  41.185   6.657   4.147
23325W        W95651  24.671  32.625  10.749
23326W        W95652  42.980   5.727   0.091
23327W        W95653   6.251  43.987  14.902
23328W        W95654   3.970   7.608   3.356
23329W        W95655  33.880  43.713   1.811
23330W        W95656  31.829  29.001   4.126
23331W        W95657  42.853  23.780  10.599
23332W        W95658  30.444  44.403  11.405
23333W        W95659  22.719  25.101  12.691
23334W        W95660  26.081   0.561  14.859
23335W        W95661  37.366  22.601   4.954
23336W        W95662  10.140  39.024   0.744
23337W        W95663  43.276  31.422  13.381
23338W        W95664  34.338   6.327  11.942
23339W        W95665  42.517   7.816   3.288
23340W        W95666   2.437  33.963  10.353
23341W        W95667  16.658  40.017   0.426
23342W        W95668   2.413   4.307   2.650
23343W        W95669  23.135   4.873   1.262
23344W        W95670  31.453  10.356   4.857
23345W        W95671  26.762   2.807   2.412
23346W        W95672  13.377  12.126  13.195
23347W        W95673  14.866  13.889   0.495
23348W        W95674  19.025  20.551  11.388
23349W        W95675  24.816  40.863   2.114
23350W        W95676  27.451  19.967   4.005
23351W        W95677  37.196  25.877   1.471
23352W        W95678   1.868   5.326   2.424
23353W        W95679  33.991   8.108  13.966
23354W        W95680   5.232  40.863  14.949
23355W        W95681   5.713  31.427  12.992
23356W        W95682  26.524  37.587  13.949
23357W        W95683  24.033  27.415  13.402
23358W        W95684  27.608  36.284  14.383
23359W        W95685  17.810   4.793  10.926
23360W        W95686   4.159  23.142   4.924
23361W        W95687  15.710  11.709  13.646
23362W        W95688  33.464   7.721  11.516
23363W        W95689  15.792  34.970  13.911
23364W        W95690  32.588  16.307   1.786
23365W        W95691  24.513  25.168   4.721
23366W        W95692  23.275  29.024   0.997
23367W        W95693  36.000  23.363  13.391
23368W        W95694  16.513   1.257   3.100
23369W        W95695  35.477  36.879   1.250
23370W        W95696  32.064   9.687   0.244
23371W        W95697  16.892  18.735  13.382
23372W        W95698  40.555  23.401  11.962
23373W        W95699  28.464  37.508   3.708
23374W        W95700   1.028  42.275  10.967
23375W        W95701  17.280  12.259  12.626
23376W        W95702  41.291  41.117   0.160
23377W        W95703  10.512  26.139  11.945
23378W        W95704   9.847  29.483  10.747
23379W        W95705  35.837  44.836  13.458
23380W        W95706   3.640  21.568   1.384
23381W        W95707  24.152  31.117  11.013
23382W        W95708   9.582  21.942   3.308
23383W        W95709  26.639  35.269  11.598
23384W        W95710  20.132  22.370   1.412
23385W        W95711  31.768  40.591  14.198
23386W        W95712  44.719  13.719  13.044
23387W        W95713   4.828  28.536   3.225
23388W        W95714  10.666   5.398   3.646
23389W        W95715  11.994  15.888  13.122
23390W        W95716  10.132  20.183  11.628
23391W        W95717  11.376  25.603  11.540
23392W        W95718  27.675   2.274   1.811
23393W        W95719  14.283  21.647  14.716
23394W        W95720  32.871  21.897   4.116
23395W        W95721  38.383  22.099   2.314
23396W        W95722  36.056  35.133  11.884
23397W        W95723   6.709  10.384  14.366
23398W        W95724  33.409  26.155  12.458
23399W        W95725  23.553  40.188  11.561
23400W        W95726  28.344  38.820  11.357
23401W        W95727  39.690  32.942   3.264
23402W        W95728  30.181  39.307  10.525
23403W        W95729  16.328  30.118  12.920
23404W        W95730  10.633  21.669  11.610
23405W        W95731  23.878  34.301   3.860
23406W        W95732  28.627  29.977   0.961
23407W        W95733  40.952  10.563  13.039
23408W        W95734  24.525  30.406  14.041
23409W        W95735   4.790   9.165   0.004
23410W        W95736   4.217  34.841  14.518
23411W        W95737  34.353  28.587   3.611
23412W        W95738   3.805  18.218  12.233
23413W        W95739   2.715  15.756   3.686
23414W        W95740   4.949  44.411   1.705
23415W        W95741  44.823  30.911   1.711
23416W        W95742  14.303   0.251  12.519
23417W        W95743  41.011  13.432  13.036
23418W        W95744   3.646  29.043   4.064
23419W        W95745  42.769   3.823   3.325
23420W        W95746  22.604  15.891   0.520
23421W        W95747   5.678  21.051  13.011
23422W        W95748  20.214  35.935   1.626
23423W        W95749  14.116  38.356   2.721
23424W        W95750  12.169  24.933   0.355
23425W        W95751  40.044   3.420   4.060
23426W        W95752  28.089  16.545  12.948
23427W        W95753  36.663  21.675   0.958
23428W        W95754  34.541   1.248   0.878
23429W        W95755  23.551  10.925  11.403
23430W        W95756  28.948  29.636   0.360
23431W        W95757  37.629  23.957   3.561
23432W        W95758  13.328  33.179  11.557
23433W        W95759  34.146  18.649   2.566
23434W        W95760  25.573   4.438   1.308
23435W        W95761  24.428  15.211  10.188
23436W        W95762  31.414  33.077  13.116
23437W        W95763  28.712  33.884   0.366
23438W        W95764  25.890  21.246  13.410
23439W        W95765  13.723  16.145   2.622
23440W        W95766  38.730  13.406   1.878
23441W        W95767  22.802   0.860   2.044
23442W        W95768  23.998  24.819  11.048
23443W        W95769  16.132  36.570   3.274
23444W        W95770  36.339  32.521  12.380
23445W        W95771  17.294  14.335  11.185
23446W        W95772  28.899  17.219  11.536
23447W        W95773   1.966  22.120  13.989
23448W        W95774  41.920  22.513   4.121
23449W        W95775  36.407  31.162   2.754
23450W        W95776  35.151   6.136   4.981
23451W        W95777   8.189  29.352  13.865
23452W        W95778  36.537  12.754   1.827
23453W        W95779   8.853  35.483   2.137
23454W        W95780  12.066  18.885   1.160
23455W        W95781  18.712  28.156  13.947
23456W        W95782  43.363   9.043   3.614
23457W        W95783  14.274  24.062   3.210
23458W        W95784  20.450   5.371  11.611
23459W        W95785  44.388  33.846   3.623
23460W        W95786  36.350  44.403   1.587
23461W        W95787  43.331  33.094  14.810
23462W        W95788   3.756   8.480   2.203
23463W        W95789  30.167  26.588   1.753
23464W        W95790  27.657  39.582  14.068
23465W        W95791  25.420  16.835   4.536
23466W        W95792  20.810  35.451  13.974
23467W        W95793  25.705  15.351   1.253
23468W        W95794  23.866  32.009   4.016
23469W        W95795  31.533  30.634   2.025
23470W        W95796  40.886   4.187   0.928
23471W        W95797  24.580  36.113   1.423
23472W        W95798  17.921  44.171  14.897
23473W        W95799   1.541   3.290  10.663
23474W        W95800  43.517  41.933   3.091
23475W        W95801  36.009   5.930  11.701
23476W        W95802  16.357   5.323   4.168
23477W        W95803  28.984  22.229  14.091
23478W        W95804  30.139  13.417  14.292
23479W        W95805  31.398  33.373  10.637
23480W        W95806  44.842   0.748   3.172
23481W        W95807   0.175   8.867   2.889
23482W        W95808   8.664  41.891   2.244
23483W        W95809  35.768  17.818  13.935
23484W        W95810  28.594   7.141   3.891
23485W        W95811  31.119  35.832   2.780
23486W        W95812  22.675  36.908  14.988
23487W        W95813   1.798  12.220   2.846
23488W        W95814   0.863  41.795  12.465
23489W        W95815  27.227   2.626   3.849
23490W        W95816  10.637  43.406   0.563
23491W        W95817  14.920  29.154   3.354
23492W        W95818  38.711  17.780   0.621
23493W        W95819  19.714  28.379   2.784
23494W        W95820  18.614  16.901  14.831
23495W        W95821  22.783  30.500  12.140
23496W        W95822   2.759   9.468  13.803
23497W        W95823  22.285  35.270  10.499
23498W        W95824  31.342  20.593   2.674
23499W        W95825   8.352  34.568   4.577
23500W        W95826  16.616  19.538   4.340
23501W        W95827   7.813  21.730   0.188
23502W        W95828   2.335  22.515   3.647
23503W        W95829  18.752  31.547  11.404
23504W        W95830  13.406  44.856  14.916
23505W        W95831  22.764  40.868  11.861
23506W        W95832  22.547  28.050   2.293
23507W        W95833  39.755   9.806   0.279
23508W        W95834  13.129   5.147  11.427
23509W        W95835  27.112   6.453  14.787
23510W        W95836  40.490  24.522   3.035
23511W        W95837  22.547  39.100   1.716
23512W        W95838  12.854  28.175  11.942
23513W        W95839  43.280  28.964  13.787
23514W        W95840  35.053  10.944   2.305
23515W        W95841   9.341  24.083  10.718
23516W        W95842  44.403  23.053   4.538
23517W        W95843  41.238  12.721  12.472
23518W        W95844  22.206   1.739  14.478
23519W        W95845  13.221  14.712  10.502
23520W        W95846  14.264  25.302   2.923
23521W        W95847  25.590  43.022   1.375
23522W        W95848   7.639  44.642  14.918
23523W        W95849   8.270  42.524  13.865
23524W        W95850  39.054  38.424   3.935
23525W        W95851  16.060  38.340  12.911
23526W        W95852  12.815  26.320  12.962
23527W        W95853  23.101  23.623  13.897
23528W        W95854  42.555  29.223   4.596
23529W        W95855   0.191  37.356   0.414
23530W        W95856  43.420  29.356   0.063
23531W        W95857  23.006  17.709   2.781
23532W        W95858  29.925  20.615  14.015
23533W        W95859  33.557  28.439  12.028
23534W        W95860  31.392   0.394  12.543
23535W        W95861  16.039  14.328  14.903
23536W        W95862  42.268  36.636  14.578
23537W        W95863  33.449  27.116   0.728
23538W        W95864  36.605   6.038  14.558
23539W        W95865  40.785  26.486  13.332
23540W        W95866  42.158  39.737  14.396
23541W        W95867  14.818  36.124  13.799
23542W        W95868   4.123  20.223  11.495
23543W        W95869  35.019  43.271  10.653
23544W        W95870  12.781  33.710  13.496
23545W        W95871  15.726   7.254   0.373
23546W        W95872  14.162  15.338   1.884
23547W        W95873   7.172  31.111  13.080
23548W        W95874  21.095   3.391  12.032
23549W        W95875  44.888  40.824  11.166
23550W        W95876  27.891  41.953  10.102
23551W        W95877  29.939  16.419   0.897
23552W        W95878  18.199  29.459  14.025
23553W        W95879   5.425   9.165  12.682
23554W        W95880   1.158  27.091   1.348
23555W        W95881   9.190   0.013  12.785
23556W        W95882  30.127  14.264  14.536
23557W        W95883  11.617  19.601   0.579
23558W        W95884  39.437  26.172   1.941
23559W        W95885  40.509   1.883  11.708
23560W        W95886  22.994  34.281  14.366
23561W        W95887  42.810  12.119   2.729
23562W        W95888  38.941   8.270   1.385
23563W        W95889   7.478  16.531   0.993
23564W        W95890  14.942  36.825   4.915
23565W        W95891  19.811  20.085   1.078
23566W        W95892  16.673  28.148  10.923
23567W        W95893  10.318  17.552   3.743
23568W        W95894  31.444  39.570  11.070
23569W        W95895  44.645  35.493   4.290
23570W        W95896  31.462  11.801  10.731
23571W        W95897  15.181  23.754  13.935
23572W        W95898  44.715   0.998   3.596
23573W        W95899   5.519   2.110  11.115
23574W        W95900   8.832  36.083   3.234
23575W        W95901  44.902  34.137   4.286
23576W        W95902   3.481  19.722  11.053
23577W        W95903  36.012  44.797   2.170
23578W        W95904   5.141  32.076   4.611
23579W        W95905  22.859  25.709   0.274
23580W        W95906  38.657  20.705   2.986
23581W        W95907  10.146  18.623  12.559
23582W        W95908  23.406  16.083   1.217
23583W        W95909   9.270  30.994   0.413
23584W        W95910  44.415  25.641   9.914
23585W        W95911  26.368  15.736  10.928
23586W        W95912  28.712   0.361   1.620
23587W        W95913  38.796   8.435  13.827
23588W        W95914  11.815   0.009  13.939
23589W        W95915  22.001  30.976  12.918
23590W        W95916  43.584  17.596   3.591
23591W        W95917  29.892   5.785   4.702
23592W        W95918  30.958   3.263  13.339
23593W        W95919  38.922  40.297  14.842
23594W        W95920  18.544   8.200   1.276
23595W        W95921  18.615  32.470   0.861
23596W        W95922  21.070  33.092   4.850
23597W        W95923  15.813  27.267  12.899
23598W        W95924  38.034  44.348  11.485
23599W        W95925  15.181  43.395   4.937
23600W        W95926  23.238  20.687  14.347
23601W        W95927  38.414   5.342   4.082
23602W        W95928  15.124  44.114   0.250
23603W        W95929   5.834  43.057   4.068
23604W        W95930  13.338  29.025  13.973
23605W        W95931  15.216  37.288  14.837
23606W        W95932  36.678   5.809   0.420
23607W        W95933  36.051  36.088   4.186
23608W        W95934  39.415   7.911   1.765
23609W        W95935  21.788   3.807  13.888
23610W        W95936  29.048  18.662   2.698
23611W        W95937  22.975  10.775   2.307
23612W        W95938   3.419  14.611   3.338
23613W        W95939  21.618  12.528   2.746
23614W        W95940  22.064  42.187   0.278
23615W        W95941  19.952  38.595   2.790
23616W        W95942  43.933  32.942   4.601
23617W        W95943  20.826  31.343   1.641
23618W        W95944  29.697   7.772   3.769
23619W        W95945  27.945  21.238   3.675
23620W        W95946  44.623   8.903  12.528
23621W        W95947   1.620  44.207  10.353
23622W        W95948  13.548  42.991   4.781
23623W        W95949   4.494  25.700   3.293
23624W        W95950  30.252  25.008   4.219
23625W        W95951  14.038  29.391  13.921
23626W        W95952  38.563  24.924  10.564
23627W        W95953   5.311  14.123  13.348
23628W        W95954   5.373  22.738   3.649
23629W        W95955   8.614  21.184   3.572
23630W        W95956  21.953  10.329  13.774
23631W        W95957   5.714  28.502   0.532
23632W        W95958  36.462  24.160   4.409
23633W        W95959  33.086  29.572  12.969
23634W        W95960  31.788   2.411   0.089
23635W        W95961  34.978  24.833   1.964
23636W        W95962   0.420  29.597   1.856
23637W        W95963  10.122  35.340   1.060
23638W        W95964  22.534   2.019  11.552
23639W        W95965  25.960  39.107   3.672
23640W        W95966   4.265  39.053  13.852
23641W        W95967  22.298  43.308   3.149
23642W        W95968   3.361  27.780   3.544
23643W        W95969  37.869  37.383  12.224
23644W        W95970  34.357  28.475  12.201
23645W        W95971  27.109  32.303  11.968
23646W        W95972   8.054  18.819   1.987
23647W        W95973  25.449  29.656   1.135
23648W        W95974  25.216  29.606  12.594
23649W        W95975  27.265  25.722   1.710
23650W        W95976   5.223  11.246   3.724
23651W        W95977   8.193  40.803  13.404
23652W        W95978  28.526  25.219  14.688
23653W        W95979  15.268  10.987  11.552
23654W        W95980  23.157  39.367   3.695
23655W        W95981   2.658  16.689   3.278
23656W        W95982  28.131  25.680   3.713
23657W        W95983  39.485   5.953  11.164
23658W        W95984  14.300  39.452   2.113
23659W        W95985  42.359  16.480   1.909
23660W        W95986  31.175  30.543  10.649
23661W        W95987   0.333  12.593   1.785
23662W        W95988  31.010  35.967   1.742
23663W        W95989  11.798  25.435   3.553
23664W        W95990  24.411  33.814  14.425
23665W        W95991  25.534  40.404  12.973
23666W        W95992  23.043  10.914  12.837
23667W        W95993   9.424  19.742  12.482
23668W        W95994  29.144  43.901  11.827
23669W        W95995   9.594  20.940   5.057
23670W        W95996   7.962  23.551   3.191
23671W        W95997  16.314  38.802  14.846
23672W        W95998  33.093  38.033  11.641
23673W        W95999  13.864  19.114  13.385
23674W        W96000  23.744   3.215   4.112
23675W        W96001  25.749   9.669   1.787
23676W        W96002  31.645  15.979   0.371
23677W        W96003  21.593  27.509   2.305
23678W        W96004   0.338  24.962   3.979
23679W        W96005  17.601   2.661   3.796
23680W        W96006   7.680   2.549  11.702
23681W        W96007  32.134   6.672   0.433
23682W        W96008  40.126  27.005  14.907
23683W        W96009  15.093   5.706   4.079
23684W        W96010  21.788  26.658  10.809
23685W        W96011  39.966  12.469   4.089
23686W        W96012  40.418  40.917   4.629
23687W        W96013  18.639  27.528  12.524
23688W        W96014   3.739  40.950   4.641
23689W        W96015  32.693  15.602   3.341
23690W        W96016   0.748  28.424  11.651
23691W        W96017  44.523  22.718  11.690
23692W        W96018  20.190  11.078   2.187
23693W        W96019  34.108  30.948  13.685
23694W        W96020  13.856   5.897  13.991
23695W        W96021   3.041  23.625   4.654
23696W        W96022  22.442   9.642   0.411
23697W        W96023  29.575  18.516   0.693
23698W        W96024  43.186  34.514   3.793
23699W        W96025   1.459   1.456  13.155
23700W        W96026  26.098  18.566   2.229
23701W        W96027  18.111   6.117  12.972
23702W        W96028  18.644   9.202  12.558
23703W        W96029   0.442   9.782   5.112
23704W        W96030  12.777  32.667  14.336
23705W        W96031  17.099  42.505  13.911
23706W        W96032   0.848  21.943   0.363
23707W        W96033   0.417  40.551   3.008
23708W        W96034   8.827  43.013  14.460
23709W        W96035  30.371  26.788  14.754
23710W        W96036   6.845  34.620  14.514
23711W        W96037  21.404  36.805  14.920
23712W        W96038  33.946  29.245   3.736
23713W        W96039  37.103  14.343   1.772
23714W        W96040  41.279  38.312  14.828
23715W        W96041  32.132  13.805  12.494
23716W        W96042  12.316   9.704   4.488
23717W        W96043   5.769  43.407   0.683
23718W        W96044  22.224   1.618   4.465
23719W        W96045  13.843   5.490  14.316
23720W        W96046   8.802  22.949   1.879
23721W        W96047  43.377  20.783  10.586
23722W        W96048  38.640  12.738  11.896
23723W        W96049  18.511  29.968   0.961
23724W        W96050  24.525  28.444  14.819
23725W        W96051  32.140   5.996  12.584
23726W        W96052  13.560  28.679  14.717
23727W        W96053  17.699  24.853  12.438
23728W        W96054  18.237   8.677  10.625
23729W        W96055  13.715  26.656   2.846
23730W        W96056  27.416  12.641  14.499
23731W        W96057  21.473  37.755  12.824
23732W        W96058  33.188  13.624   2.373
23733W        W96059  32.132  39.796   0.256
23734W        W96060  18.254  27.142   3.487
23735W        W96061  32.444   1.777  13.870
23736W        W96062  10.411  31.721   3.855
23737W        W96063  12.335   7.741  12.498
23738W        W96064  12.346  39.966   4.081
23739W        W96065  14.477  29.368  12.072
23740W        W96066  33.912  32.013   0.268
23741W        W96067   2.014  11.695  12.837
23742W        W96068   4.225  22.705   0.698
23743W        W96069  23.504   8.681   4.541
23744W        W96070  44.915   3.762  12.709
23745W        W96071  29.218  39.751  12.977
23746W        W96072  10.877  29.472   0.747
23747W        W96073  31.129   7.777   3.573
23748W        W96074  14.143  22.460   0.560
23749W        W96075  16.082   4.871   4.343
23750W        W96076   7.490  23.799   2.693
23751W        W96077  34.633   8.442   1.439
23752W        W96078  30.049  17.808   1.906
23753W        W96079  28.059   5.856  13.513
23754W        W96080   0.871  17.109   0.494
23755W        W96081   6.470  23.038  14.765
23756W        W96082  25.504  12.270  14.537
23757W        W96083   2.778   8.774   4.128
23758W        W96084   5.243  43.569   2.761
23759W        W96085  27.255  34.001   3.321
23760W        W96086  10.549  32.451   0.935
23761W        W96087   9.106  33.462   1.233
23762W        W96088  29.591  28.223   3.634
23763W        W96089   6.358  24.390  11.996
23764W        W96090  38.944  28.666   4.990
23765W        W96091  29.437  41.465   1.470
23766W        W96092   1.248  17.790   1.657
23767W        W96093   5.153  32.016  13.823
23768W        W96094   7.790  34.971  10.622
23769W        W96095  16.186  28.003  10.138
23770W        W96096  20.803  24.041   3.279
23771W        W96097  27.090   4.831  14.882
23772W        W96098  33.323  31.016  13.050
23773W        W96099   3.527  33.129   0.950
23774W        W96100  24.296  13.221  11.924
23775W        W96101  32.303  39.343   1.984
23776W        W96102  21.561  40.714  14.702
23777W        W96103  37.008  18.162   1.743
23778W        W96104  31.626  36.003   3.583
23779W        W96105  41.450  29.757  12.635
23780W        W96106  16.075   2.115  13.821
23781W        W96107  21.580  29.915  14.998
23782W        W96108   0.185  42.959   0.960
23783W        W96109  41.236  27.738   1.443
23784W        W96110  27.671  26.089   4.589
23785W        W96111  27.561  25.147  12.312
23786W        W96112  25.486  31.663  10.710
23787W        W96113  22.668  38.466   3.726
23788W        W96114  34.303  20.752   3.701
23789W        W96115  17.000  27.224  10.766
23790W        W96116  17.371  18.845  11.835
23791W        W96117   2.875  15.545   2.244
23792W        W96118  38.069  32.929  13.342
23793W        W96119  24.047   7.294   1.708
23794W        W96120  16.085   4.864   0.898
23795W        W96121  22.233  25.689  12.506
23796W        W96122   1.940  25.566  11.647
23797W        W96123  38.340  30.093  12.485
23798W        W96124  19.084  14.839  12.402
23799W        W96125  27.181   5.236  11.972
23800W        W96126  33.140  15.647   3.615
23801W        W96127  21.090  29.191  13.423
23802W        W96128  39.623   2.795  12.800
23803W        W96129  35.149  30.869  12.884
23804W        W96130  39.061  25.941  14.352
23805W        W96131   2.045  37.124  11.910
23806W        W96132  40.887  36.208   4.693
23807W        W96133  11.800  44.052  10.486
23808W        W96134  30.495  42.564   0.440
23809W        W96135  39.330  16.565  14.398
23810W        W96136   7.816   2.236  12.094
23811W        W96137  10.863   9.970   0.284
23812W        W96138  20.864  27.481  13.259
23813W        W96139  40.879  18.472   1.446
23814W        W96140  18.594   3.670   0.295
23815W        W96141   9.639   5.711   3.628
23816W        W96142  20.138  10.549   1.355
23817W        W96143   8.970  42.529  11.866
23818W        W96144   8.663   7.644   3.709
23819W        W96145  17.944  23.059  13.992
23820W        W96146  41.973  25.166   3.703
23821W        W96147  28.672  28.585   4.617
23822W        W96148  41.485  22.100   2.142
23823W        W96149  24.006  44.369  12.544
23824W        W96150   9.778   3.981   1.943
23825W        W96151   4.910   6.297   1.994
23826W        W96152  35.266  18.366   3.510
23827W        W96153  11.608  36.800   2.422
23828W        W96154   0.284  26.078  12.462
23829W        W96155  31.114  25.388  10.441
23830W        W96156  13.862  13.743   1.339
23831W        W96157  25.707  40.657  14.848
23832W        W96158  17.649   1.460   0.442
23833W        W96159  19.074  11.123  11.605
23834W        W96160  41.769   6.688   4.179
23835W        W96161  13.823  19.617   4.103
23836W        W96162   6.393  10.830   4.084
23837W        W96163  35.576  13.821   4.149
23838W        W96164  35.486   4.987  13.002
23839W        W96165  43.563  30.448  14.768
23840W        W96166  25.033  24.584   3.239
23841W        W96167  29.618  37.475  13.591
23842W        W96168  44.897  11.202   1.679
23843W        W96169   6.177  35.878  13.460
23844W        W96170  44.965  25.629   3.251
23845W        W96171   2.284  21.227  11.312
23846W        W96172  15.550  17.028   3.654
23847W        W96173   4.423  31.636  10.968
23848W        W96174  23.526  12.890  13.020
23849W        W96175  43.483  39.125   1.618
23850W        W96176  37.035  27.979   2.796
23851W        W96177  17.913  15.180  11.884
23852W        W96178  33.213   5.519  11.577
23853W        W96179  16.173  10.167   1.320
23854W        W96180  43.762  15.783   1.905
23855W        W96181  13.377   5.341   4.372
23856W        W96182  29.653   9.785  10.424
23857W        W96183  23.222  10.231   2.472
23858W        W96184  14.803  26.957  11.009
23859W        W96185  27.446  39.506   0.576
23860W        W96186  34.567  34.596  11.560
23861W        W96187  33.044  43.772  12.935
23862W        W96188  27.075  15.365   3.611
23863W        W96189  37.493  14.739  14.074
23864W        W96190  21.018  40.797  14.439
23865W        W96191  28.026   7.743   4.104
23866W        W96192   4.298  10.907   3.730
23867W        W96193   0.059  30.488   5.048
23868W        W96194  36.855  10.432   9.615
23869W        W96195  44.474  15.678   2.675
23870W        W96196  30.844  19.743  12.868
23871W        W96197  40.902  39.072   0.816
23872W        W96198   3.741   9.297  10.010
23873W        W96199  17.322  30.545   2.295
23874W        W96200  32.270  35.947   4.174
23875W        W96201  17.221   0.733   3.194
23876W        W96202   8.107  27.558  10.741
23877W        W96203  24.148  35.352  13.429
23878W        W96204  26.757  16.261   3.225
23879W        W96205   1.530   4.772   4.986
23880W        W96206  29.070  16.065   0.943
23881W        W96207  37.574   4.350   4.639
23882W        W96208   2.297  39.934   9.786
23883W        W96209  24.451  16.793   4.651
23884W        W96210  42.507  30.629  11.369
23885W        W96211  44.513  37.396   3.344
23886W        W96212  29.429   2.988   1.813
23887W        W96213  38.937   9.653   4.574
23888W        W96214  22.511  38.663  12.429
23889W        W96215  41.277  25.148  14.632
23890W        W96216  43.744  27.446  11.010
23891W        W96217  37.366  27.624  12.882
23892W        W96218  27.581  32.397   3.618
23893W        W96219  43.522  27.926   1.770
23894W        W96220  24.002  35.828   1.673
23895W        W96221  24.440  33.735  11.442
23896W        W96222   6.969   9.584  12.019
23897W        W96223   5.414  29.695  11.943
23898W        W96224  13.894  33.153   9.927
23899W        W96225  43.698   1.990   0.905
23900W        W96226  14.193  40.499  10.662
23901W        W96227  23.485  43.269   0.744
23902W        W96228   2.491  25.015   4.519
23903W        W96229  10.866  25.621   5.469
23904W        W96230  41.865  11.561  14.706
23905W        W96231  16.757  17.596   0.031
23906W        W96232  33.751   7.823  14.825
23907W        W96233  41.904  32.090   1.104
23908W        W96234  15.060  31.718   3.144
23909W        W96235  31.468  43.475   3.793
23910W        W96236  20.321  18.189   4.688
23911W        W96237  39.178  29.172  11.138
23912W        W96238  21.644  44.317  13.393
23913W        W96239  13.133  13.997  14.543
23914W        W96240  38.524   8.374  11.583
23915W        W96241  21.804  25.383   5.053
23916W        W96242  37.290  42.880   2.889
23917W        W96243  43.186   5.893  14.225
23918W        W96244   6.306  28.780  11.613
23919W        W96245  40.056  19.695   3.576
23920W        W96246  19.135  28.576   3.298
23921W        W96247   6.120  25.687   2.873
23922W        W96248  22.515   2.299   3.277
23923W        W96249  32.390  10.313  12.499
23924W        W96250   3.897  35.861   3.557
23925W        W96251  42.829  34.797  11.590
23926W        W96252  33.506  41.768   2.741
23927W        W96253  22.620  38.887   4.524
23928W        W96254  15.388  41.509  13.527
23929W        W96255  38.921  37.908  12.178
23930W        W96256  31.524  33.330  11.577
23931W        W96257  29.183  23.088   0.270
23932W        W96258  17.534  34.950   1.307
23933W        W96259  21.104  31.826   1.455
23934W        W96260  24.474  15.304  11.616
23935W        W96261   0.068  15.914   4.891
23936W        W96262  23.580  34.282  12.910
23937W        W96263  30.603  35.798  14.266
23938W        W96264  16.230  40.395   2.346
23939W        W96265  23.307  41.374  12.581
23940W        W96266  42.997   3.198  11.542
23941W        W96267  15.366  37.116  13.779
23942W        W96268   7.460  37.346  13.452
23943W        W96269  12.974  32.712   5.065
23944W        W96270  27.572  42.314   2.334
23945W        W96271  32.001  35.422   2.335
23946W        W96272  11.292   2.295  12.987
23947W        W96273  28.269  16.186  14.069
23948W        W96274   8.919  22.951  13.213
23949W        W96275  42.123   0.494   3.755
23950W        W96276  30.196   5.427   0.079
23951W        W96277  24.784  18.305  14.920
23952W        W96278  25.524  10.809  14.258
23953W        W96279   4.669  42.475  14.026
23954W        W96280  19.409  10.639   0.814
23955W        W96281  30.114  30.031   3.472
23956W        W96282   6.145   4.718  14.403
23957W        W96283  38.438  38.509   1.111
23958W        W96284  40.160  36.474  13.842
23959W        W96285  11.314  12.906  12.485
23960W        W96286  13.008  32.935  11.172
23961W        W96287   4.870  35.871   3.603
23962W        W96288  36.844  18.702  13.162
23963W        W96289  34.935   9.630  11.668
23964W        W96290  27.958  18.237   1.006
23965W        W96291  32.020  25.518   4.599
23966W        W96292   0.672  13.705   1.413
23967W        W96293  17.467  12.138  11.699
23968W        W96294  36.412   0.137  12.882
23969W        W96295  24.120   2.673  13.889
23970W        W96296  38.432  33.620   4.383
23971W        W96297  17.726  33.924   4.188
23972W        W96298  20.682  26.455  14.996
23973W        W96299  39.450  29.499  11.425
23974W        W96300  39.749  33.449   0.002
23975W        W96301  33.889   5.114  11.189
23976W        W96302  40.955  28.037   0.437
23977W        W96303  44.880  36.462   3.359
23978W        W96304  44.553  44.295   3.128
23979W        W96305  32.483  32.603  11.011
23980W        W96306   7.289  39.936  11.886
23981W        W96307  40.291  44.766  12.378
23982W        W96308   0.011   1.482  14.493
23983W        W96309  33.169  24.850   4.517
23984W        W96310  13.175  25.534  13.058
23985W        W96311   3.140  30.383  10.882
23986W        W96312  11.675   5.513   3.008
23987W        W96313  27.632  14.355   3.320
23988W        W96314  40.911  15.780   4.036
23989W        W96315  12.809  27.724   2.550
23990W        W96316  35.440  39.597  13.312
23991W        W96317   3.718  31.023  12.440
23992W        W96318  32.486   7.968   3.857
23993W        W96319  43.221  32.589  11.408
23994W        W96320  40.363  41.329  12.411
23995W        W96321  24.325  26.441   3.404
23996W        W96322  35.168  29.588  13.481
23997W        W96323   2.493   6.328  13.034
23998W        W96324  31.417  21.960  10.747
23999W        W96325  42.545  12.171   1.383
24000W        W96326  39.918  42.249  14.817
24001W        W96327  37.442  42.352   0.741
24002W        W96328  36.872  21.463  13.678
24003W        W96329   3.396  39.832  14.404
24004W        W96330  25.580  34.098   4.337
24005W        W96331   2.651  39.893   2.737
24006W        W96332  13.794  39.049   4.103
24007W        W96333  28.938  21.422  12.836
24008W        W96334   7.457  12.613   2.756
24009W        W96335  37.634   6.203  10.633
24010W        W96336  26.766   3.521   3.634
24011W        W96337  28.696  20.623  13.368
24012W        W96338   4.896   3.468  13.010
24013W        W96339   4.844   5.672   2.476
24014W        W96340  12.141  26.157   0.919
24015W        W96341  42.836  27.023   2.867
24016W        W96342  33.920   9.175   2.417
24017W        W96343  38.658   2.025   2.663
24018W        W96344  24.996  20.783  12.905
24019W        W96345   7.290   2.395  13.499
24020W        W96346  10.352  28.277   4.930
24021W        W96347   7.174  22.154  13.464
24022W        W96348  32.887  32.402   2.588
24023W        W96349  24.583  10.311   1.364
24024W        W96350  21.824  21.714  13.484
24025W        W96351   1.821  14.050   3.769
24026W        W96352   9.948  32.256  13.437
24027W        W96353  38.000  22.242  11.590
24028W        W96354   9.259  12.762   1.303
24029W        W96355  18.818   3.855  12.925
24030W        W96356  28.558   9.864  12.958
24031W        W96357   4.404   6.451   0.833
24032W        W96358  22.656  26.204  10.105
24033W        W96359  10.581   7.759   4.584
24034W        W96360  44.338  41.834  10.702
24035W        W96361  34.869  37.373  14.640
24036W        W96362  22.202  19.051  13.905
24037W        W96363   1.918  26.920   3.620
24038W        W96364  43.047  44.951  12.862
24039W        W96365  41.494  10.166  14.533
24040W        W96366  33.940  20.840   4.116
24041W        W96367  33.914  21.203  13.400
24042W        W96368  21.642   4.341  11.355
24043W        W96369   5.016   2.189  10.941
24044W        W96370  37.136  43.415  10.724
24045W        W96371  31.839   5.451   4.092
24046W        W96372   1.221   1.748  14.492
24047W        W96373   5.722  31.468   4.623
24048W        W96374  43.297  41.755   3.934
24049W        W96375  16.028  21.143  14.432
24050W        W96376  22.024  40.373   4.161
24051W        W96377  35.137   3.320  13.450
24052W        W96378  22.034  25.935  13.788
24053W        W96379  11.706  14.250  14.565
24054W        W96380  30.029  42.568   3.734
24055W        W96381  19.775  33.534  11.101
24056W        W96382  13.615  12.695   1.158
24057W        W96383  38.016   6.940   0.335
24058W        W96384  21.708  10.476   0.035
24059W        W96385   1.315   6.043  11.638
24060W        W96386  32.973  44.046   3.606
24061W        W96387  38.340   5.353   1.879
24062W        W96388  41.527  41.101  12.388
24063W        W96389  27.625  33.655   1.447
24064W        W96390   4.456   1.712  14.337
24065W        W96391  28.015  19.463  10.055
24066W        W96392  30.052  32.582  10.573
24067W        W96393  15.678  19.259  11.155
24068W        W96394  22.812  14.138  11.577
24069W        W96395   8.707  31.730   2.455
24070W        W96396   5.216   3.248  11.923
24071W        W96397  15.410   5.479  14.749
24072W        W96398  16.572   5.260  13.426
24073W        W96399  14.895   2.316  10.566
24074W        W96400  20.521  34.064   2.495
24075W        W96401  21.288  38.532  13.888
24076W        W96402  40.526  26.980   1.220
24077W        W96403  29.763  23.474  11.591
24078W        W96404  24.458  16.983   4.142
24079W        W96405   1.508   0.521   3.654
24080W        W96406  15.155  14.831  13.477
24081W        W96407  13.289  43.373   4.458
24082W        W96408  14.548  35.302   0.186
24083W        W96409  31.949  37.393  14.467
24084W        W96410   8.031   1.818   2.830
24085W        W96411   4.730  24.460  12.936
24086W        W96412  20.970  28.323  11.027
24087W        W96413   7.232  42.379  10.697
24088W        W96414   4.856  11.789   2.823
24089W        W96415  37.097  13.792  14.014
24090W        W96416  20.198  34.782  10.294
24091W        W96417  36.335  28.960  11.787
24092W        W96418  38.027  25.411   1.718
24093W        W96419   1.175  36.906  11.831
24094W        W96420  33.698  36.412   5.033
24095W        W96421   4.258  17.264   1.830
24096W        W96422   7.680   3.582   2.201
24097W        W96423  20.141   9.836   1.714
24098W        W96424  14.936  10.250  11.214
24099W        W96425  12.363  43.273  13.523
24100W        W96426  39.928  37.706  10.699
24101W        W96427  27.193  17.175  14.030
24102W        W96428   1.199  31.967  11.399
24103W        W96429  27.115  26.747  12.129
24104W        W96430  36.798  22.358  14.395
24105W        W96431  39.265  10.472   5.297
24106W        W96432  38.102   6.449   2.849
24107W        W96433  32.176  33.445  14.916
24108W        W96434  15.900   7.432  11.615
24109W        W96435  28.683  10.132  11.188
24110W        W96436   0.480   9.607   4.198
24111W        W96437  19.195  40.588   1.339
24112W        W96438  17.044  23.277   3.295
24113W        W96439   6.658  14.549  12.462
24114W        W96440  25.415  40.553   4.459
24115W        W96441  20.574   8.945   1.688
24116W        W96442  15.266   1.960   3.713
24117W        W96443  42.843  11.307   0.237
24118W        W96444  34.626  13.696  12.963
24119W        W96445   2.647   1.313  11.608
24120W        W96446  21.026   7.170  11.618
24121W        W96447  34.164  16.491   3.227
24122W        W96448  42.659  21.285   3.245
24123W        W96449  38.389  23.766  14.064
24124W        W96450  16.214  31.063   3.629
24125W        W96451  10.677   7.689   2.785
24126W        W96452   0.752  15.882   1.358
24127W        W96453  19.116  23.894   1.109
24128W        W96454  33.973  22.046   4.615
24129W        W96455  39.582  41.875  13.077
24130W        W96456   1.995  27.400  12.454
24131W        W96457   1.961  39.323   3.088
24132W        W96458  25.407  36.978   2.170
24133W        W96459  23.716  37.483   9.885
24134W        W96460  24.569  39.310  10.316
24135W        W96461  33.822   2.465  11.955
24136W        W96462  30.801  12.332  10.980
24137W        W96463  21.150  39.378  14.246
24138W        W96464  31.245  30.436   9.907
24139W        W96465  27.026   0.951  13.883
24140W        W96466   7.619   9.094   0.389
24141W        W96467   7.769   8.271  14.201
24142W        W96468  36.488  28.446   2.295
24143W        W96469  27.084   5.152   1.290
24144W        W96470  20.682  33.646   2.755
24145W        W96471  25.687   7.850  13.463
24146W        W96472  14.608  10.646   2.626
24147W        W96473  38.979  40.379   2.677
24148W        W96474  43.814   5.084   4.118
24149W        W96475  13.170  30.718   0.253
24150W        W96476  10.652  34.363  12.618
24151W        W96477   0.235  32.733  13.121
24152W        W96478  19.581   1.480  13.152
24153W        W96479   6.912   7.858   2.221
24154W        W96480  11.169  28.178   4.165
24155W        W96481  13.163  30.577  10.610
24156W        W96482  26.131  31.452   3.326
24157W        W96483  18.223  15.268  14.261
24158W        W96484   7.318  30.517   2.010
24159W        W96485  36.596  44.358  13.329
24160W        W96486  28.992  10.819  13.612
24161W        W96487   9.145  24.041  12.534
24162W        W96488  19.219  14.832  11.167
24163W        W96489   4.647  17.612   1.794
24164W        W96490  17.557  13.781   1.671
24165W        W96491   8.935  22.562  13.569
24166W        W96492  23.153  24.255   1.179
24167W        W96493  25.612  28.384  13.495
24168W        W96494  15.592  21.668  14.064
24169W        W96495  21.997  31.729  14.421
24170W        W96496  32.096  16.545   3.622
24171W        W96497  22.150  13.043   2.121
24172W        W96498   1.714  13.547   1.362
24173W        W96499  28.165   6.704   2.674
24174W        W96500  13.379  13.414   0.822
24175W        W96501  10.189   4.640   0.073
24176W        W96502  40.980  31.519   1.332
24177W        W96503  34.292   9.108   0.825
24178W        W96504  31.526  24.666   0.868
24179W        W96505   2.841  22.420  14.276
24180W        W96506  16.053  17.183  12.093
24181W        W96507  17.686   1.283  14.538
24182W        W96508  42.408  22.733   4.035
24183W        W96509  16.616  41.243   2.187
24184W        W96510  22.055  37.249   1.002
24185W        W96511  21.014   6.295  12.434
24186W        W96512   9.073  40.281   4.234
24187W        W96513  37.808  24.127  14.843
24188W        W96514  29.477   9.276  10.653
24189W        W96515  12.951  13.953   4.982
24190W        W96516   1.278   5.491   0.683
24191W        W96517  38.507   6.159  14.302
24192W        W96518  15.128   7.675   0.429
24193W        W96519   9.084  17.181  10.493
24194W        W96520  37.403  38.211   0.494
24195W        W96521   8.594  41.532  14.803
24196W        W96522  13.741   1.751   2.852
24197W        W96523   3.709  13.333   2.465
24198W        W96524  35.889  23.246   3.609
24199W        W96525  25.797  23.769  11.610
24200W        W96526  17.483   9.282  13.530
24201W        W96527  35.058  43.532  13.322
24202W        W96528  29.501  39.411  10.725
24203W        W96529  26.446  40.011  11.053
24204W        W96530   3.162  44.731   2.364
24205W        W96531  19.486   4.909   2.370
24206W        W96532   9.165  42.444   0.681
24207W        W96533  15.922  38.873   1.784
24208W        W96534  34.920   2.421  12.929
24209W        W96535  23.225  42.445   4.369
24210W        W96536  37.473  11.111   3.875
24211W        W96537  18.749  38.516  11.501
24212W        W96538  42.807  36.231   4.121
24213W        W96539  26.010  26.695   4.580
24214W        W96540  12.844  41.899  13.931
24215W        W96541  19.618  26.053  12.762
24216W        W96542   2.321  38.314   1.224
24217W        W96543  24.266  19.200  13.443
24218W        W96544  43.220   8.644   2.547
24219W        W96545  41.936   9.638  11.476
24220W        W96546  28.069  13.452  12.100
24221W        W96547  24.313  22.727  13.135
24222W        W96548  44.800  24.756  10.767
24223W        W96549  37.856  10.651  11.989
24224W        W96550  28.617  25.922   1.392
24225W        W96551  32.423   2.643   2.280
24226W        W96552  43.330   3.286   1.658
24227W        W96553   5.999   8.510   4.421
24228W        W96554  23.175  36.755  10.895
24229W        W96555  13.961  16.110   1.178
24230W        W96556  13.870  26.221   0.325
24231W        W96557  38.597  27.987   2.820
24232W        W96558  41.870  44.565   0.789
24233W        W96559  35.554  30.900   1.331
24234W        W96560  34.138  18.610   1.159
24235W        W96561  10.346   0.411  14.796
24236W        W96562   9.679  40.366   2.227
24237W        W96563   4.183  13.155  14.973
24238W        W96564  25.723   0.423   2.391
24239W        W96565  26.513   3.676  14.770
24240W        W96566  37.749  33.951   2.286
24241W        W96567  32.882  34.815  11.481
24242W        W96568  24.625  10.253  14.922
24243W        W96569  35.302  21.629   4.163
24244W        W96570  24.417  27.052   1.391
24245W        W96571  15.909  26.048  14.385
24246W        W96572  27.805  12.242  14.525
24247W        W96573  16.149  12.397  13.949
24248W        W96574  16.816  42.511   1.013
24249W        W96575  26.400   5.968  11.171
24250W        W96576  33.475  44.049   1.905
24251W        W96577  19.728  36.595   2.665
24252W        W96578  29.028  29.828  12.391
24253W        W96579  27.191  33.460   1.666
24254W        W96580   3.242   4.152   0.733
24255W        W96581  21.804  36.654   3.954
24256W        W96582  30.707  15.344  10.722
24257W        W96583  32.133  22.534  11.524
24258W        W96584  40.088  20.465   4.203
24259W        W96585  38.335  28.104   3.272
24260W        W96586   9.962  16.433  13.564
24261W        W96587  30.678  28.462  13.826
24262W        W96588  37.337  39.500   2.845
24263W        W96589  31.026  11.612   0.422
24264W        W96590  31.320  13.212   2.493
24265W        W96591  35.141  38.006  12.318
24266W        W96592  28.990  42.305  10.751
24267W        W96593   1.497  14.639  14.436
24268W        W96594  29.022  19.541   1.129
24269W        W96595  44.312  38.084   3.809
24270W        W96596  19.223  33.895  13.555
24271W        W96597  18.782  11.657  12.569
24272W        W96598  12.696  35.891   2.345
24273W        W96599  23.519  40.269   0.608
24274W        W96600  29.531  24.908  11.267
24275W        W96601  32.418  44.246  11.611
24276W        W96602  35.866   0.592   3.124
24277W        W96603  17.110  40.342   0.406
24278W        W96604  44.268   5.477  11.574
24279W        W96605   4.482  30.854  14.896
24280W        W96606  16.811  24.911   1.334
24281W        W96607  25.784   4.838  12.289
24282W        W96608  34.692  16.095  13.370
24283W        W96609  40.153  41.864   2.310
24284W        W96610  38.390  15.613  10.478
24285W        W96611   1.169  30.818   1.846
24286W        W96612  40.101  42.892  11.650
24287W        W96613  12.786  33.308  11.490
24288W        W96614  30.471  27.187   4.539
24289W        W96615  30.181   4.389  10.835
24290W        W96616  12.084  39.532   0.456
24291W        W96617  33.035  26.577   2.209
24292W        W96618  36.049   8.089   0.409
24293W        W96619  29.447   0.774   0.337
24294W        W96620  31.485   0.202   4.213
24295W        W96621  10.898  12.709   1.343
24296W        W96622  20.571  32.616   0.019
24297W        W96623  34.494  14.890  10.768
24298W        W96624  30.489   7.231   4.709
24299W        W96625  33.100  38.359  14.823
24300W        W96626  33.331  24.684  12.944
24301W        W96627  10.457  18.324  13.391
24302W        W96628   3.318  43.865  10.790
24303W        W96629  21.332  14.831  14.315
24304W        W96630  36.038  35.603   3.267
24305W        W96631  12.214   1.886   1.779
24306W        W96632  40.270   7.988  12.982
24307W        W96633   4.156   8.485   4.624
24308W        W96634  26.908   7.310   3.721
24309W        W96635  40.901   4.170  12.514
24310W        W96636   4.549  35.250   1.430
24311W        W96637   3.113  11.183   2.853
24312W        W96638   4.284  17.204   4.584
24313W        W96639  21.073   9.610   5.030
24314W        W96640  16.094   2.490   3.969
24315W        W96641   5.074  19.797  14.896
24316W        W96642  43.917  26.920   4.583
24317W        W96643  25.241  34.487   1.405
24318W        W96644  22.106   8.354  13.391
24319W        W96645   7.779  34.357  11.461
24320W        W96646   5.496  36.380  14.220
24321W        W96647  32.650  35.096  14.262
24322W        W96648  32.860  18.761   0.181
24323W        W96649   1.321  31.303  14.296
24324W        W96650  32.401  25.997  12.191
24325W        W96651   6.202  21.083  13.111
24326W        W96652  15.084  14.553   4.389
24327W        W96653  28.628  27.706   2.720
24328W        W96654  38.409  28.935   0.291
24329W        W96655   3.036  36.406  13.978
24330W        W96656   8.947  11.722   4.986
24331W        W96657  27.128  39.546  10.724
24332W        W96658  27.908  37.366  11.586
24333W        W96659  36.514  38.623   1.326
24334W        W96660  31.844  19.603   3.254
24335W        W96661  41.037  21.203   0.546
24336W        W96662  24.207  21.563  10.229
24337W        W96663  18.921  13.892  10.890
24338W        W96664  39.088  34.535   2.721
24339W        W96665  37.964  19.630   4.551
24340W        W96666   2.582  23.466  12.070
24341W        W96667   1.222  19.209   1.259
24342W        W96668  26.213  25.517  11.624
24343W        W96669  21.549  15.411  11.747
24344W        W96670  23.237   8.740  11.095
24345W        W96671  25.093  14.084  11.068
24346W        W96672   8.910  13.162  14.902
24347W        W96673   6.254  24.517  12.869
24348W        W96674  10.454  17.544   0.541
24349W        W96675  20.644  24.134   3.759
24350W        W96676   2.987  43.394  11.941
24351W        W96677  34.449  22.038   3.861
24352W        W96678  43.732  14.826   0.264
24353W        W96679   1.393  44.922  12.393
24354W        W96680   9.183  16.774   4.701
24355W        W96681  17.335  41.261  11.047
24356W        W96682  42.128  28.190  14.930
24357W        W96683  22.216  42.627  12.390
24358W        W96684  35.750  27.249  12.479
24359W        W96685  30.563  11.471   0.234
24360W        W96686  37.125  42.883  12.321
24361W        W96687  11.467  31.876   2.221
24362W        W96688  14.207  20.351  10.534
24363W        W96689  42.957  22.679   2.025
24364W        W96690  18.778  13.471  10.632
24365W        W96691  25.280  20.161   3.672
24366W        W96692  36.320  17.375   2.908
24367W        W96693  12.797  29.979  14.195
24368W        W96694  41.094  28.263   4.262
24369W        W96695  26.033   5.597  11.168
24370W        W96696  36.215  26.341  11.516
24371W        W96697  36.038  11.418  10.231
24372W        W96698  23.882  27.007   0.137
24373W        W96699   8.788  20.147   4.687
24374W        W96700  21.005  29.892  13.027
24375W        W96701  43.218  29.601  12.628
24376W        W96702  12.074   0.511   2.218
24377W        W96703  20.925  42.304  14.438
24378W        W96704  36.318  21.118  14.762
24379W        W96705  20.228  17.726  11.955
24380W        W96706  38.753  41.923  14.464
24381W        W96707   9.753  17.462  13.996
24382W        W96708  25.521  38.186   4.837
24383W        W96709  33.119   4.193   4.296
24384W        W96710  10.618   2.230   1.270
24385W        W96711  24.696  35.457  13.428
24386W        W96712  24.172  34.870   1.771
24387W        W96713   2.420  13.634  13.907
24388W        W96714   6.032  43.450  10.660
24389W        W96715   4.948  40.324   2.921
24390W        W96716  22.087  13.121  14.815
24391W        W96717   9.714  16.794   3.061
24392W        W96718   2.770   3.748  14.473
24393W        W96719  13.650  33.166  13.435
24394W        W96720  31.536  17.626   2.266
24395W        W96721   8.902  23.624   3.049
24396W        W96722  20.551  22.739  11.675
24397W        W96723   8.380  36.730  10.648
24398W        W96724  19.271  23.652  11.642
24399W        W96725   0.230  42.823  10.581
24400W        W96726  26.166  29.395  12.708
24401W        W96727   3.888  32.467   4.069
24402W        W96728  32.414  22.472  13.379
24403W        W96729  14.014  41.799  14.389
24404W        W96730   8.105  38.589  13.887
24405W        W96731  11.162  42.342  13.923
24406W        W96732  42.894   0.476   4.243
24407W        W96733  11.127  26.501  10.945
24408W        W96734  12.827  37.599  11.849
24409W        W96735  13.829  19.650  11.084
24410W        W96736  30.698  41.266  10.393
24411W        W96737   9.718  20.192  13.429
24412W        W96738  21.709   0.184  11.243
24413W        W96739   0.934   5.800   0.481
24414W        W96740   6.696  39.446   4.556
24415W        W96741  33.434  33.838   4.905
24416W        W96742   8.845   5.148   1.404
24417W        W96743   4.691   9.676  14.868
24418W        W96744  26.593   6.864   1.085
24419W        W96745  37.066  11.849  14.446
24420W        W96746  16.794  32.181   9.979
24421W        W96747  37.794   2.847   2.336
24422W        W96748   9.368  26.035  13.285
24423W        W96749  10.704  10.446  13.339
24424W        W96750  12.225   1.354   4.564
24425W        W96751  24.883   7.550  14.542
24426W        W96752  41.533  10.406  11.466
24427W        W96753  44.777  42.528  10.568
24428W        W96754  37.663  35.060  11.180
24429W        W96755  15.616  41.543   2.216
24430W        W96756  12.374  38.058   4.632
24431W        W96757  11.675  42.338  13.861
24432W        W96758  39.058  42.284   4.763
24433W        W96759  29.872  40.234   9.858
24434W        W96760  32.491  20.639   3.641
24435W        W96761  24.231  19.569   4.823
24436W        W96762  35.115   9.515  12.119
24437W        W96763  20.058   2.400   2.649
24438W        W96764  20.547  37.709  10.201
24439W        W96765  15.594  33.603   4.269
24440W        W96766  23.782  21.267  12.829
24441W        W96767  20.795  41.467   4.953
24442W        W96768   9.814  15.655   3.708
24443W        W96769  44.319  23.883   4.053
24444W        W96770  36.736  20.567   3.832
24445W        W96771  37.830  14.247   1.247
24446W        W96772  25.604  44.022   1.104
24447W        W96773  44.550   8.325   1.769
24448W        W96774   7.573  21.249   0.295
24449W        W96775  24.631  37.947  10.216
24450W        W96776  33.138  17.125  12.056
24451W        W96777  32.796  27.495   4.549
24452W        W96778  14.599  15.535   1.656
24453W        W96779  30.555  18.649   4.472
24454W        W96780  36.890  31.600   3.222
24455W        W96781   2.684  31.983  13.854
24456W        W96782  10.338  25.443  11.469
24457W        W96783   3.741  22.514   0.801
24458W        W96784  41.037  37.554  13.810
24459W        W96785  31.173  29.874   4.435
24460W        W96786  34.394  21.152  13.565
24461W        W96787  41.526  27.987   3.429
24462W        W96788  18.351  19.677   4.431
24463W        W96789  27.525  38.927   4.596
24464W        W96790   6.008  23.052   1.452
24465W        W96791  12.982  13.553  10.969
24466W        W96792  13.442   8.169  14.531
24467W        W96793  29.566  34.489   2.268
24468W        W96794  23.228   7.245  11.185
24469W        W96795  26.050  20.573   4.571
24470W        W96796   7.236  25.158   1.316
24471W        W96797  35.566  13.079   1.903
24472W        W96798   6.828  42.616   0.227
24473W        W96799  43.699  37.467   0.120
24474W        W96800  20.757  18.076   3.876
24475W        W96801  33.895  10.293  13.038
24476W        W96802  28.556  15.239   4.354
24477W        W96803  29.576  27.450   4.378
24478W        W96804  19.984   3.329  12.217
24479W        W96805   0.650  15.163  13.564
24480W        W96806  32.614  32.157  14.232
24481W        W96807   7.417   7.222  13.911
24482W        W96808  36.996  31.618   1.843
24483W        W96809  28.110  41.819  10.733
24484W        W96810  17.177  12.443   1.341
24485W        W96811  44.393  23.354   4.099
24486W        W96812  19.512  18.598   2.420
24487W        W96813   2.937  24.190  10.042
24488W        W96814  22.711   2.012   2.132
24489W        W96815  38.140  11.293   1.369
24490W        W96816  42.369   0.860   2.641
24491W        W96817  40.280   0.880   4.339
24492W        W96818   5.610  20.809   1.772
24493W        W96819  33.874  28.475  12.437
24494W        W96820  25.977  11.237   3.850
24495W        W96821  19.126  38.872  14.127
24496W        W96822  20.239   8.324   4.279
24497W        W96823  34.461   8.300  14.906
24498W        W96824  11.717  21.183  14.428
24499W        W96825   9.015  11.848   1.709
24500W        W96826   6.451   4.431  12.546
24501W        W96827  41.020  19.253  12.012
24502W        W96828  16.090  16.643   2.588
24503W        W96829   0.792  12.825   0.205
24504W        W96830  38.533  24.741   1.360
24505W        W96831  29.008  22.815  14.349
24506W        W96832   6.386  22.732   2.231
24507W        W96833  24.863  34.463   4.115
24508W        W96834  13.384  41.582   1.844
24509W        W96835  28.160   6.559   1.817
24510W        W96836   7.739  23.107   0.872
24511W        W96837  33.257   3.235   4.055
24512W        W96838  22.122  11.694   4.651
24513W        W96839  35.897  38.570   2.477
24514W        W96840  41.299   6.609  12.483
24515W        W96841  13.703  17.785   0.876
24516W        W96842   5.985  34.525   0.560
24517W        W96843   9.904   8.427  12.613
24518W        W96844  37.810  43.964  11.860
24519W        W96845   3.914  11.344  14.281
24520W        W96846   9.864  20.652   4.617
24521W        W96847  21.023  23.198  12.429
24522W        W96848   5.100  35.979   2.189
24523W        W96849   9.326  44.790  11.257
24524W        W96850  30.434   2.165   1.668
24525W        W96851  43.309  28.227   4.684
24526W        W96852  13.310   6.730   0.451
24527W        W96853  17.050  22.592  11.513
24528W        W96854  44.293  25.596  13.118
24529W        W96855  20.763   1.087   1.748
24530W        W96856   2.373  38.029   4.562
24531W        W96857  20.431  38.422  11.994
24532W        W96858  22.068  43.735  13.846
24533W        W96859  27.870  15.680  11.189
24534W        W96860  28.512  22.090   3.336
24535W        W96861   8.272   7.164  10.862
24536W        W96862   0.587   2.805  13.951
24537W        W96863   7.739   8.258  14.979
24538W        W96864  42.708  42.532  12.132
24539W        W96865  28.124  11.862  14.255
24540W        W96866  29.526  25.793  12.802
24541W        W96867  20.555   1.019  14.899
24542W        W96868  25.018  38.768   1.236
24543W        W96869   9.707  36.886  14.001
24544W        W96870   4.016  23.441   2.235
24545W        W96871  27.951  12.308   2.606
24546W        W96872  19.637  31.919   1.660
24547W        W96873  42.522   5.280  12.965
24548W        W96874  41.084   9.043   1.373
24549W        W96875  30.639  28.996  11.027
24550W        W96876  35.855  12.740   3.704
24551W        W96877  17.556   9.868   2.956
24552W        W96878  22.445  41.961   1.719
24553W        W96879  12.140  27.151  12.331
24554W        W96880  38.491  40.324   2.947
24555W        W96881  17.486  42.038  13.108
24556W        W96882  31.984  23.625  11.498
24557W        W96883  18.753  40.285  13.009
24558W        W96884  15.973   9.181  13.351
24559W        W96885  33.542  15.158  13.815
24560W        W96886  41.377  34.551   0.258
24561W        W96887   0.947  13.236  12.976
24562W        W96888  28.648  27.297   4.892
24563W        W96889  12.638  44.924  14.698
24564W        W96890  34.279   9.238   2.809
24565W        W96891  16.769   3.225   3.265
24566W        W96892  27.035   0.478  10.451
24567W        W96893  34.029   5.119   4.674
24568W        W96894  14.820  34.630   1.428
24569W        W96895  10.311  15.220  10.595
24570W        W96896  25.774  29.025   4.660
24571W        W96897  21.691  10.241   3.741
24572W        W96898  23.990  38.929  12.526
24573W        W96899  22.030   5.410   3.190
24574W        W96900  24.513   2.659   0.208
24575W        W96901  19.230  11.442   2.404
24576W        W96902  29.996  19.662   0.778
24577W        W96903  26.175  41.437  11.850
24578W        W96904  22.513  12.555  14.399
24579W        W96905  32.335  14.670  11.194
24580W        W96906   7.400  19.174  10.669
24581W        W96907  32.937  13.286  12.857
24582W        W96908   0.774   1.518   4.672
24583W        W96909  21.074  32.106   1.942
24584W        W96910  37.168  11.783  11.557
24585W        W96911  11.181  44.951   2.164
24586W        W96912  24.919  22.196  11.063
24587W        W96913   3.800  26.056   0.415
24588W        W96914  13.351  44.915  12.903
24589W        W96915  40.951  43.307   0.336
24590W        W96916   2.558  35.917   0.443
24591W        W96917  43.373  34.829   1.198
24592W        W96918   2.250  18.765   3.208
24593W        W96919   8.971  44.348  13.546
24594W        W96920  11.664   8.026  11.009
24595W        W96921   7.238  10.896  11.076
24596W        W96922  34.193  39.840   1.682
24597W        W96923  27.719  37.151  10.956
24598W        W96924  42.385  41.434  14.531
24599W        W96925  16.099  15.198   4.690
24600W        W96926  34.008  40.940  13.375
24601W        W96927  24.765  39.835  13.979
24602W        W96928  34.074  34.421  11.448
24603W        W96929  35.841  12.892  12.036
24604W        W96930  35.012  20.089  12.850
24605W        W96931  16.157   0.419   4.516
24606W        W96932  23.962  42.249  11.993
24607W        W96933  22.058  34.878   1.438
24608W        W96934  41.133   4.888  12.197
24609W        W96935  36.923  17.683  13.410
24610W        W96936  24.433  23.748   0.774
24611W        W96937  11.942  40.001   1.929
24612W        W96938  28.687  43.483  13.057
24613W        W96939  34.571  17.886  14.377
24614W        W96940  32.945  37.848   3.320
24615W        W96941  35.943  42.590   4.163
24616W        W96942   3.524   3.812  13.083
24617W        W96943  31.938  35.962   2.255
24618W        W96944  17.012  17.002  13.968
24619W        W96945  14.206  19.165   3.125
24620W        W96946  42.186  29.712   3.260
24621W        W96947  23.880  16.036   2.904
24622W        W96948  26.483  29.488   1.464
24623W        W96949   1.144   0.702  11.025
24624W        W96950  13.183  21.300   3.100
24625W        W96951  38.514  14.098   1.667
24626W        W96952  37.566  15.935   3.281
24627W        W96953   0.820   8.844  13.496
24628W        W96954  26.545  39.325   1.683
24629W        W96955   0.282  14.855  13.807
24630W        W96956   6.809   6.346  10.927
24631W        W96957  14.380  15.782   2.047
24632W        W96958  35.290   0.720  13.519
24633W        W96959  44.251  43.727  12.125
24634W        W96960   7.170  36.300   1.682
24635W        W96961  31.722  44.971  11.475
24636W        W96962  38.544  32.343   3.273
24637W        W96963  14.675  27.019   4.725
24638W        W96964  21.903  20.682  10.558
24639W        W96965  27.579  13.059  14.075
24640W        W96966  12.066  43.392  11.166
24641W        W96967   2.760  26.614   3.268
24642W        W96968  35.467   5.923   0.578
24643W        W96969   4.437  14.441  10.997
24644W        W96970  23.221  12.193   1.714
24645W        W96971  16.200  11.575  12.400
24646W        W96972  10.200  16.149   4.921
24647W        W96973  10.265  22.134  12.560
24648W        W96974  27.961  17.520   4.103
24649W        W96975  19.350   5.363   0.425
24650W        W96976   5.492  39.028  11.664
24651W        W96977   9.118   0.935   3.955
24652W        W96978  36.670  36.115  14.933
24653W        W96979  19.442  34.566   3.172
24654W        W96980   0.803  24.117  12.130
24655W        W96981  27.657  27.495   2.688
24656W        W96982   1.525  21.678  13.865
24657W        W96983  24.614  29.177  13.408
24658W        W96984  24.663  22.124   1.310
24659W        W96985  16.538  27.984   4.424
24660W        W96986   3.980  13.319  13.137
24661W        W96987  21.702  18.957  12.762
24662W        W96988  11.395  15.256  12.449
24663W        W96989  31.114   4.059   0.233
24664W        W96990  40.674  36.644   3.817
24665W        W96991  42.260  23.535   2.063
24666W        W96992  41.278   5.343   0.268
24667W        W96993  17.678  43.450  14.864
24668W        W96994  14.802   0.935   4.352
24669W        W96995   5.239  29.450   1.781
24670W        W96996  23.274  29.186   2.395
24671W        W96997  25.203  15.807   0.287
24672W        W96998  26.459   8.948   4.251
24673W        W96999  16.813  30.474   3.599
24674W        W97000  38.934   7.695  11.672
24675W        W97001  12.801  31.593   4.500
24676W        W97002  14.609   8.936   2.018
24677W        W97003  17.800   3.887  14.189
24678W        W97004  18.887  20.663  11.855
24679W        W97005  20.043  13.699  13.765
24680W        W97006  28.764  36.338  12.487
24681W        W97007  20.316  32.317   1.389
24682W        W97008  36.545  40.857   2.713
24683W        W97009  43.465  25.774  12.354
24684W        W97010  41.816  13.319   4.322
24685W        W97011  12.605  12.218  13.335
24686W        W97012  22.604  39.190   0.824
24687W        W97013  37.036   3.237   1.860
24688W        W97014  35.668  11.046  11.056
24689W        W97015   6.415  36.395  13.458
24690W        W97016  40.909  26.968   0.277
24691W        W97017  18.336  34.021   2.789
24692W        W97018  17.677  26.170   2.435
24693W        W97019  20.325  14.257  12.198
24694W        W97020  41.552  31.471   2.652
24695W        W97021  20.813   4.062   4.814
24696W        W97022  32.036  26.926   0.856
24697W        W97023  11.791   2.922  13.502
24698W        W97024  29.766  18.903  14.314
24699W        W97025  38.493  44.168   2.414
24700W        W97026   5.345  26.269  13.965
24701W        W97027   7.248  30.046   4.092
24702W        W97028  14.666  25.616   0.720
24703W        W97029   2.039  38.460  12.059
24704W        W97030   8.217  39.406   4.566
24705W        W97031  12.504  15.716  10.121
24706W        W97032  35.072  11.547  14.719
24707W        W97033  35.140   7.259  14.053
24708W        W97034  19.580   8.655  13.529
24709W        W97035  19.037  37.501   4.565
24710W        W97036  14.822  21.227   1.628
24711W        W97037  28.560   1.818   2.858
24712W        W97038  40.450  21.558  14.959
24713W        W97039   4.843  11.517  13.901
24714W        W97040   8.889   1.233   3.580
24715W        W97041  38.607  18.153  13.826
24716W        W97042   9.917   2.610  12.615
24717W        W97043   1.743  34.495  12.467
24718W        W97044  11.946   4.367  13.436
24719W        W97045  33.063  37.761  12.624
24720W        W97046  44.427   9.362   0.868
24721W        W97047   9.152  16.987  14.456
24722W        W97048  30.693   9.243   4.519
24723W        W97049  39.617  28.046   2.673
24724W        W97050  10.291  10.757   0.619
24725W        W97051  35.524  24.572  11.422
24726W        W97052  12.829   1.850  14.375
24727W        W97053  41.434   9.843   4.723
24728W        W97054   4.247  31.014  12.484
24729W        W97055  11.793  31.001  12.401
24730W        W97056  24.091  23.730  13.000
24731W        W97057  34.394   8.924   2.384
24732W        W97058   2.064  42.519  13.897
24733W        W97059  24.474  36.056  13.862
24734W        W97060  21.025  33.597   0.907
24735W        W97061  16.071  32.378  14.857
24736W        W97062   6.856   2.158   0.877
24737W        W97063   5.180  44.703   4.042
24738W        W97064  36.537  31.871   1.725
24739W        W97065   4.473   4.198   3.221
24740W        W97066   9.873  15.841   0.032
24741W        W97067   3.003  25.611  13.102
24742W        W97068   0.970  32.510  11.352
24743W        W97069  20.811   8.369   2.999
24744W        W97070  12.728  40.829   4.617
24745W        W97071   4.349  25.584  12.385
24746W        W97072  32.853  30.536   4.749
24747W        W97073   4.407  18.476  13.540
24748W        W97074  31.268  12.688  10.248
24749W        W97075  30.100   5.896   1.416
24750W        W97076  12.225  38.808   2.189
24751W        W97077  19.688   4.733  13.069
24752W        W97078  36.896  22.534   2.347
24753W        W97079  32.540  33.099  11.093
24754W        W97080   4.891  12.965   2.193
24755W        W97081  29.870  30.690  13.412
24756W        W97082  12.661  27.749  13.270
24757W        W97083  42.838  13.637  13.969
24758W        W97084   8.739   6.201  11.620
24759W        W97085  27.475  36.508   1.701
24760W        W97086  28.935  13.754   3.244
24761W        W97087  16.973  29.662   4.074
24762W        W97088  21.604  44.390  12.860
24763W        W97089  41.910  26.999   2.406
24764W        W97090  30.065  23.850  14.865
24765W        W97091  27.090  29.546   2.803
24766W        W97092  36.276  28.031   3.309
24767W        W97093  15.256   0.166   0.359
24768W        W97094   5.261   9.711   1.662
24769W        W97095  17.190  13.622   4.591
24770W        W97096  36.509  19.235   0.706
24771W        W97097   8.194   7.343   2.226
24772W        W97098  24.575  43.494   3.583
24773W        W97099  13.338  33.481  10.110
24774W        W97100  18.929   1.476  14.879
24775W        W97101   7.617  21.236   1.261
24776W        W97102   2.832  36.852  14.926
24777W        W97103  34.821  35.060  10.067
24778W        W97104  27.156  38.554   0.222
24779W        W97105  26.743  14.633   2.933
24780W        W97106   9.176  28.194   1.739
24781W        W97107  20.496  25.969  12.984
24782W        W97108  26.211   8.683  14.344
24783W        W97109  30.447  12.261  13.436
24784W        W97110  28.039  24.893   4.388
24785W        W97111  32.123  27.467  10.640
24786W        W97112   7.343  33.914  11.446
24787W        W97113  33.327  13.780  13.407
24788W        W97114   9.128  25.180   4.844
24789W        W97115   1.884  26.260  12.960
24790W        W97116  11.388  32.040  11.910
24791W        W97117  23.421  16.027   3.729
24792W        W97118  18.355  32.920   2.325
24793W        W97119  44.851  17.104   3.623
24794W        W97120  29.948   3.298   5.020
24795W        W97121  25.974  18.154   2.520
24796W        W97122  26.651  28.675   4.654
24797W        W97123  15.196  31.198  10.534
24798W        W97124  36.913  10.206  12.840
24799W        W97125  22.756   9.553   4.118
24800W        W97126  28.584  20.616   3.565
24801W        W97127  14.165  40.826   4.553
24802W        W97128  23.277  41.221   5.073
24803W        W97129  40.598  37.382  11.683
24804W        W97130  21.581   5.811  13.411
24805W        W97131  32.922  25.667   2.165
24806W        W97132  24.661  40.786  13.770
24807W        W97133  24.149   4.660   0.305
24808W        W97134  38.906  40.536   3.178
24809W        W97135  32.848  27.370   1.513
24810W        W97136  34.417  33.079  14.172
24811W        W97137  43.956   9.447   2.611
24812W        W97138  31.389  26.465  12.464
24813W        W97139  10.764  36.062   3.510
24814W        W97140  27.194  34.478  12.840
24815W        W97141   1.060  25.076  14.987
24816W        W97142   6.242  31.554  13.428
24817W        W97143  13.259  29.173  11.609
24818W        W97144   9.847  41.039  14.017
24819W        W97145  12.596  31.100   4.503
24820W        W97146  17.539  12.389   0.485
24821W        W97147  32.700  18.065   0.913
24822W        W97148  26.240   1.802  12.463
24823W        W97149  32.138  41.235  13.807
24824W        W97150   7.617   1.874   2.090
24825W        W97151  14.990  41.081  10.913
24826W        W97152  44.714  44.732   4.051
24827W        W97153  17.335  35.452   4.220
24828W        W97154  38.984   0.888   0.704
24829W        W97155   8.927  15.384   2.771
24830W        W97156  24.992  17.660  10.241
24831W        W97157   3.555  19.524   0.159
24832W        W97158   3.334   1.891  14.937
24833W        W97159  35.846  43.979   4.462
24834W        W97160  21.444  21.834  12.492
24835W        W97161   5.196  33.589   1.894
24836W        W97162  13.402  28.944   1.897
24837W        W97163   7.406   0.890  12.526
24838W        W97164  19.981  11.165  11.737
24839W        W97165  36.001  16.250  12.184
24840W        W97166  41.921  13.215  13.237
24841W        W97167  36.042  23.972   0.684
24842W        W97168   2.968   3.710   0.801
24843W        W97169  33.118  34.565  10.244
24844W        W97170   1.899  34.101   4.051
24845W        W97171  21.966  33.297  12.307
24846W        W97172  19.043  24.660   0.091
24847W        W97173  38.041  20.961   4.617
24848W        W97174  15.768  18.245  13.908
24849W        W97175  21.503  33.394  11.370
24850W        W97176  10.108  38.829  12.601
24851W        W97177   3.753  15.558   1.742
24852W        W97178  35.216   4.222   0.907
24853W        W97179  25.156  24.489   1.768
24854W        W97180  31.544  15.785   4.015
24855W        W97181  43.662  36.654  13.380
24856W        W97182  37.005   5.344  10.821
24857W        W97183  18.731  39.412   1.748
24858W        W97184   7.261   6.427   2.194
24859W        W97185  20.101  42.352  13.850
24860W        W97186   8.150   2.462  13.134
24861W        W97187  33.919   2.289   0.317
24862W        W97188  43.427   5.587  10.649
24863W        W97189  37.505  21.944   2.183
24864W        W97190   4.283  31.112  10.665
24865W        W97191  43.597  40.044   1.877
24866W        W97192  34.545  33.916   3.303
24867W        W97193   5.495  11.284   2.358
24868W        W97194  22.633  17.883  11.726
24869W        W97195  34.742  11.913  14.919
24870W        W97196   5.258  44.217   4.243
24871W        W97197  44.954   3.501   0.489
24872W        W97198  35.014  11.753   0.327
24873W        W97199  43.045  42.863  13.335
24874W        W97200  26.016  17.810   0.447
24875W        W97201   1.513   5.663   1.908
24876W        W97202   0.463   2.847   3.282
24877W        W97203  23.145  40.520   0.319
24878W        W97204  38.021  38.799  11.902
24879W        W97205  25.421  35.042   4.639
24880W        W97206   4.621   3.964  12.164
24881W        W97207  28.749   8.745   0.440
24882W        W97208  44.543   1.781  11.514
24883W        W97209  32.672  16.811   4.639
24884W        W97210   0.805  19.050   1.590
24885W        W97211   6.472  24.686   3.676
24886W        W97212  20.104  24.916  14.420
24887W        W97213  26.665  18.897   2.437
24888W        W97214  25.163  11.161   3.326
24889W        W97215   8.731  33.315  14.832
24890W        W97216  40.833  14.278  14.308
24891W        W97217  16.569   6.239  12.559
24892W        W97218  40.818   5.932   2.787
24893W        W97219  34.004  16.827  14.722
24894W        W97220  13.952  14.759  11.657
24895W        W97221   9.260  12.244  14.045
24896W        W97222  37.509  17.067  13.807
24897W        W97223  17.645   0.671  14.772
24898W        W97224  42.492  31.150  14.254
24899W        W97225  20.693  19.400   4.152
24900W        W97226  12.960  30.917  12.341
24901W        W97227   4.285   3.928   1.771
24902W        W97228  25.636  34.771   1.802
24903W        W97229   7.324  29.962   1.828
24904W        W97230  21.748  17.625  12.184
24905W        W97231  30.412  29.121   2.083
24906W        W97232   4.503  10.122  12.091
24907W        W97233  17.080  15.202  12.150
24908W        W97234  17.202  19.019  12.650
24909W        W97235   6.210  33.581   3.431
24910W        W97236  18.776  32.733   2.891
24911W        W97237  38.479  25.198  13.038
24912W        W97238   4.346   0.526  14.832
24913W        W97239   0.514   9.636   0.158
24914W        W97240   4.553  29.938  12.082
24915W        W97241  12.520  43.074   4.582
24916W        W97242   8.153   8.245   3.901
24917W        W97243   9.728  35.620   0.805
24918W        W97244  41.627  14.743   3.348
24919W        W97245  23.072  36.091  13.943
24920W        W97246  21.264   0.343   3.425
24921W        W97247  17.798  13.559  12.470
24922W        W97248  10.353  43.269   3.674
24923W        W97249  25.219  21.211  14.102
24924W        W97250  32.594  40.071   0.359
24925W        W97251  31.401  11.145   2.527
24926W        W97252  20.084  26.246   2.130
24927W        W97253   1.315  13.429   3.433
24928W        W97254  14.584  10.415  12.396
24929W        W97255  22.232  11.578  13.547
24930W        W97256  23.039   6.959   2.848
24931W        W97257  42.665  24.439   0.018
24932W        W97258  13.745   8.798   4.611
24933W        W97259  11.241  43.908  14.049
24934W        W97260   6.237   0.664  11.651
24935W        W97261   9.864  39.547  10.905
24936W        W97262  17.003  12.381   0.493
24937W        W97263  35.916   7.582   4.154
24938W        W97264   8.076  17.163   0.945
24939W        W97265  19.536  18.459  11.224
24940W        W97266  21.533   5.364  11.745
24941W        W97267   9.503  25.672  11.270
24942W        W97268  20.363   8.547   3.135
24943W        W97269  43.738   9.164  11.059
24944W        W97270  12.306  43.972  10.633
24945W        W97271  30.233  35.436  12.472
24946W        W97272  43.708  19.571   4.178
24947W        W97273  11.162  15.159   1.276
24948W        W97274  24.469  40.270  13.925
24949W        W97275  42.116   4.801  14.390
24950W        W97276  14.101  11.256  11.678
24951W        W97277  13.945  32.445   1.357
24952W        W97278  34.957  33.377  10.201
24953W        W97279   0.300   3.816   4.618
24954W        W97280   7.765   3.957  13.104
24955W        W97281  22.017  29.981  14.374
24956W        W97282  37.370  38.064   1.457
24957W        W97283  43.011   9.278   1.964
24958W        W97284  22.936   2.468   0.948
24959W        W97285   2.793  32.609   3.155
24960W        W97286  12.202   3.215   1.637
24961W        W97287  22.398  32.066   5.164
24962W        W97288  17.289  26.069   4.677
24963W        W97289  16.232  38.307   0.619
24964W        W97290  43.505  44.056  11.662
24965W        W97291  15.839   7.603   1.497
24966W        W97292  14.686  12.604  11.515
24967W        W97293  16.464   1.491   2.649
24968W        W97294  29.556   3.285   1.358
24969W        W97295  16.982  11.246  14.977
24970W        W97296   1.299  14.062   2.177
24971W        W97297   1.818  19.447  11.886
24972W        W97298   3.477  31.979  12.936
24973W        W97299   9.815  43.524   4.530
24974W        W97300  29.253  37.418  12.638
24975W        W97301   1.901  24.530   5.143
24976W        W97302  36.945  28.081   1.893
24977W        W97303  30.475  44.222  11.886
24978W        W97304  42.023  25.551   1.322
24979W        W97305  21.735  27.551   0.347
24980W        W97306  40.047   9.472  14.303
24981W        W97307  38.254  30.473   2.288
24982W        W97308  14.125   6.148   2.326
24983W        W97309  35.575  15.346  11.866
24984W        W97310  10.981  30.985  10.509
24985W        W97311  28.728  28.218   1.893
24986W        W97312  10.107  30.449   4.565
24987W        W97313  15.416   0.827  14.653
24988W        W97314  39.137  23.043   0.245
24989W        W97315  25.161  35.514  14.719
24990W        W97316  37.171  20.991   3.161
24991W        W97317   1.764   6.325  10.736
24992W        W97318  29.115  40.635  11.096
24993W        W97319  28.932  12.596   1.920
24994W        W97320  41.443  27.653  12.448
24995W        W97321  21.732  39.266   1.873
24996W        W97322  27.121  29.981  14.782
24997W        W97323  28.909  13.691   0.574
24998W        W97324  14.955  30.864   2.606
24999W        W97325   4.481  16.748  13.276
25000W        W97326  40.787  32.494  12.829
25001W        W97327  12.122   7.240  12.497
25002W        W97328  37.119  11.266  13.760
25003W        W97329  11.095   4.748   2.765
25004W        W97330  35.487  23.240   2.943
25005W        W97331  17.207   9.262  13.975
25006W        W97332  12.345  25.412   0.460
25007W        W97333  33.866   5.978  11.189
25008W        W97334  23.172   6.859   2.357
25009W        W97335  20.262  30.091   2.260
25010W        W97336  28.025  37.132   0.295
25011W        W97337  35.598  19.392  13.917
25012W        W97338   3.878  34.058  10.735
25013W        W97339   9.386  40.731   1.331
25014W        W97340  15.031  15.777   1.423
25015W        W97341  23.673  16.701   2.309
25016W        W97342   5.929  14.117   3.643
25017W        W97343  13.749   9.339  11.915
25018W        W97344  27.388  40.718   0.365
25019W        W97345  16.022   6.758   4.056
25020W        W97346   6.859   9.466  14.480
25021W        W97347  41.200  44.397  12.468
25022W        W97348  43.733  11.287   2.314
25023W        W97349  38.067   4.359   0.983
25024W        W97350  28.432  28.429   4.176
25025W        W97351  15.653  32.891  12.583
25026W        W97352  42.290  23.151  11.138
25027W        W97353  22.644  26.897   0.882
25028W        W97354  44.498   7.808  13.700
25029W        W97355  33.750  37.359   3.258
25030W        W97356  30.448   5.792   3.580
25031W        W97357  26.327  35.501   1.959
25032W        W97358  40.867  32.437  14.235
25033W        W97359  21.320  38.976   3.429
25034W        W97360   8.568  24.876  10.615
25035W        W97361   2.823  37.582  10.697
25036W        W97362  42.683  37.929  11.214
25037W        W97363  31.416  30.134   2.257
25038W        W97364  35.952  15.363  12.650
25039W        W97365  12.848  11.341  14.828
25040W        W97366  10.174  20.491   1.123
25041W        W97367  11.313  21.503  14.399
25042W        W97368  20.194  16.592   3.227
25043W        W97369   1.148  42.797  10.873
25044W        W97370  25.112  41.547  10.292
25045W        W97371  20.303  25.114   1.308
25046W        W97372  26.666  21.422   4.465
25047W        W97373   2.480  23.955   1.361
25048W        W97374   5.124  24.209   3.832
25049W        W97375  38.138  15.861  12.065
25050W        W97376  18.811  12.005  11.572
25051W        W97377  16.117   8.707  12.489
25052W        W97378  44.790  38.720  12.995
25053W        W97379   1.820   1.599   0.592
25054W        W97380   2.909  18.738  10.780
25055W        W97381  14.649  27.072   0.441
25056W        W97382  24.085  13.823   0.447
25057W        W97383  29.042   4.848  10.378
25058W        W97384  37.823  18.570  14.998
25059W        W97385   4.849  34.776  10.061
25060W        W97386  13.278  39.395  12.123
25061W        W97387   6.660  35.382  10.459
25062W        W97388  19.665  30.424   0.996
25063W        W97389  27.612  20.608   2.249
25064W        W97390  44.823  37.090  12.451
25065W        W97391  25.004   5.336   3.806
25066W        W97392  18.531  35.152  11.437
25067W        W97393  21.573  32.985   4.857
25068W        W97394  14.878  28.554  14.964
25069W        W97395   3.367   6.579  10.918
25070W        W97396  43.321   5.669   1.737
25071W        W97397   4.474   7.247   4.106
25072W        W97398  43.918  37.261  11.066
25073W        W97399  27.214  43.294   2.480
25074W        W97400  33.540  24.657   0.857
25075W        W97401   5.392  22.908  10.542
25076W        W97402  30.574  37.075   2.598
25077W        W97403   3.337  43.122   3.772
25078W        W97404  41.039   9.400  14.291
25079W        W97405  20.295  21.035   1.864
25080W        W97406   0.998  34.018  10.753
25081W        W97407  30.455  31.925  10.741
25082W        W97408  35.847  36.433  12.508
25083W        W97409  39.924  29.194   1.372
25084W        W97410  36.352  21.792  13.467
25085W        W97411  40.910  44.186   2.498
25086W        W97412   6.092  36.808  11.161
25087W        W97413  33.679  10.659  14.123
25088W        W97414   7.121  40.812   2.669
25089W        W97415  29.110  26.627  13.829
25090W        W97416  43.429  23.125   3.290
25091W        W97417  34.528  20.059  12.468
25092W        W97418  29.046   6.788  12.608
25093W        W97419  30.742  28.623   3.725
25094W        W97420  18.746  27.553  10.634
25095W        W97421  13.672  38.675  10.774
25096W        W97422  43.982  42.312   1.717
25097W        W97423  38.516  30.822   1.998
25098W        W97424  41.715  23.167  13.346
25099W        W97425   6.966  44.579   9.712
25100W        W97426  10.658  26.078   4.679
25101W        W97427  33.090   9.181  11.502
25102W        W97428  44.212  41.541   4.217
25103W        W97429  19.110  22.753  13.807
25104W        W97430  34.538  13.236  11.928
25105W        W97431  42.530  40.860   4.179
25106W        W97432  21.004  40.511  11.239
25107W        W97433  26.885   3.990   4.000
25108W        W97434  38.580   3.925   2.787
25109W        W97435  22.261  31.419  12.997
25110W        W97436  35.034  26.503   1.300
25111W        W97437  15.072  14.138   0.042
25112W        W97438  36.882   0.454   0.932
25113W        W97439  18.111  12.554   1.350
25114W        W97440   3.271  21.532  13.324
25115W        W97441  31.555   9.273   3.970
25116W        W97442  33.817  25.182  14.192
25117W        W97443  37.235  22.901   4.126
25118W        W97444  24.654  18.793   1.883
25119W        W97445   0.048  22.948  11.067
25120W        W97446  19.790   0.215   4.304
25121W        W97447  15.338  24.217  14.222
25122W        W97448  15.193   8.685   2.687
25123W        W97449   6.868  17.690   0.510
25124W        W97450  31.048  13.128  14.182
25125W        W97451  40.499  41.718   0.865
25126W        W97452   4.725  11.009  14.856
25127W        W97453  17.186   6.949   0.255
25128W        W97454   6.791   6.432  10.425
25129W        W97455  29.476   1.983  13.833
25130W        W97456  24.231  40.561  13.552
25131W        W97457  20.430  24.550  11.191
25132W        W97458   8.336  24.961  11.891
25133W        W97459  35.779  26.969   3.707
25134W        W97460   4.424   3.027  12.526
25135W        W97461   4.786  10.135  14.031
25136W        W97462   4.770  30.227  11.504
25137W        W97463  31.035   4.315   0.961
25138W        W97464  39.420  43.410   4.164
25139W        W97465  34.164  20.590  14.890
25140W        W97466  25.261  40.395  11.544
25141W        W97467   1.726  22.583  14.031
25142W        W97468  15.591   3.271  14.536
25143W        W97469  23.482  37.158   4.914
25144W        W97470  17.748  27.673  13.745
25145W        W97471  19.988  28.266  14.550
25146W        W97472  24.478  14.655   1.350
25147W        W97473  21.224  22.701  13.609
25148W        W97474  12.804  26.760  11.530
25149W        W97475  18.325   9.976   0.403
25150W        W97476  36.532  39.116  11.522
25151W        W97477  41.725  29.937   3.239
25152W        W97478  34.137  43.800   4.159
25153W        W97479  13.793  24.236   1.763
25154W        W97480   6.356   5.733   9.956
25155W        W97481  22.993  16.582   0.912
25156W        W97482  26.192  39.158  12.497
25157W        W97483  35.588  34.389  10.300
25158W        W97484   6.742  28.559  14.770
25159W        W97485  12.556  38.604   1.816
25160W        W97486   1.191   1.273   4.870
25161W        W97487  33.061   9.622   1.209
25162W        W97488  10.932  19.115  12.998
25163W        W97489  39.435  26.893  11.974
25164W        W97490  42.300  21.001  12.967
25165W        W97491  13.364  17.361  13.450
25166W        W97492   9.878  38.239  13.379
25167W        W97493  32.809  28.214   3.984
25168W        W97494  40.586   7.765   3.825
25169W        W97495  37.738  28.987   2.292
25170W        W97496   0.419  42.895  13.663
25171W        W97497   4.329  35.594   1.761
25172W        W97498  11.505  30.152   0.861
25173W        W97499  32.103   4.467   3.353
25174W        W97500   4.448  14.172  13.018
25175W        W97501   9.744   5.656  12.555
25176W        W97502  42.611  31.016   1.202
25177W        W97503  42.538   4.831   2.074
25178W        W97504  35.515  28.581   3.292
25179W        W97505   0.316  36.326   3.675
25180W        W97506   4.731  14.796   4.022
25181W        W97507   6.911  44.950  11.237
25182W        W97508  23.048  19.607   1.561
25183W        W97509   1.235  23.121  11.825
25184W        W97510  31.216  33.470   0.397
25185W        W97511  13.631  29.430  10.827
25186W        W97512  18.525  18.336  12.419
25187W        W97513  31.786  38.195   4.293
25188W        W97514  34.888  39.086   3.693
25189W        W97515  30.865  26.506   1.167
25190W        W97516  33.481   9.929   1.391
25191W        W97517  31.060  10.746   2.484
25192W        W97518   6.718  22.018   2.753
25193W        W97519  14.167  31.602   3.092
25194W        W97520  15.316   0.941   2.760
25195W        W97521  15.705  38.012   3.168
25196W        W97522   9.781  25.312  13.015
25197W        W97523  38.448  41.905   3.059
25198W        W97524  14.352  42.420  14.955
25199W        W97525  40.899  28.180   2.209
25200W        W97526  26.557  10.633  14.020
25201W        W97527   7.860   2.499   0.267
25202W        W97528  40.548  22.914   1.190
25203W        W97529  39.784   6.157   1.022
25204W        W97530   7.677  42.052  13.118
25205W        W97531  39.447  40.600   4.264
25206W        W97532  19.828  32.389  13.707
25207W        W97533   6.929   4.320   0.856
25208W        W97534  26.240   2.872  12.533
25209W        W97535  39.910  35.368  12.607
25210W        W97536  40.216  17.613  10.999
25211W        W97537  18.244  13.723  13.117
25212W        W97538  12.837  21.564   4.773
25213W        W97539  14.183  17.505   0.819
25214W        W97540  28.491  31.518   2.867
25215W        W97541   6.379  20.067   4.015
25216W        W97542  36.265   0.277   2.274
25217W        W97543  36.883  29.744   2.738
25218W        W97544  12.816  27.478   1.610
25219W        W97545  29.794  21.220   5.081
25220W        W97546   8.800  33.481  12.660
25221W        W97547  14.554   1.398  11.094
25222W        W97548  28.471  11.552   3.586
25223W        W97549  10.369   6.054  14.984
25224W        W97550  35.016   9.298   0.325
25225W        W97551  32.898   4.432   2.863
25226W        W97552  32.012  13.006   0.858
25227W        W97553  36.833   6.716  12.023
25228W        W97554   3.867  23.807  12.554
25229W        W97555   1.746  41.350   0.244
25230W        W97556  11.322  14.038   3.304
25231W        W97557  23.264  24.540   2.457
25232W        W97558  28.097  11.692   3.994
25233W        W97559  28.023  19.156  10.505
25234W        W97560   3.643   6.831   0.471
25235W        W97561  17.242  40.329  10.643
25236W        W97562  34.574  12.245   0.272
25237W        W97563   0.102  17.791   0.072
25238W        W97564  20.121  27.523   4.382
25239W        W97565  13.358  40.951  12.892
25240W        W97566  26.938  17.699   0.232
25241W        W97567  31.954  21.695  13.833
25242W        W97568  19.229  31.480  14.661
25243W        W97569  26.437   3.932   3.729
25244W        W97570   9.397   7.595  13.781
25245W        W97571  11.079  11.864  11.110
25246W        W97572  11.615  41.911  13.546
25247W        W97573  32.019  37.597   0.880
25248W        W97574  24.949  24.514   4.553
25249W        W97575   6.479  13.333   1.785
25250W        W97576   6.665   5.359   2.350
25251W        W97577  20.393  29.552  12.320
25252W        W97578  19.544  18.002   4.193
25253W        W97579  24.492  43.931   2.717
25254W        W97580  25.441  17.940  11.046
25255W        W97581  36.350  39.337  12.545
25256W        W97582  32.295  32.422   4.610
25257W        W97583  11.190  35.104  12.104
25258W        W97584  10.747  40.221  10.669
25259W        W97585  13.129  32.314   0.889
25260W        W97586  35.955  28.418   4.601
25261W        W97587   3.953   8.861  13.738
25262W        W97588  20.296  16.191   1.385
25263W        W97589  37.027  19.047   4.613
25264W        W97590   7.126   2.672  11.217
25265W        W97591  16.673  21.099  13.001
25266W        W97592  10.749  26.624   5.000
25267W        W97593   0.007  33.435  13.820
25268W        W97594  21.135  12.935  12.256
25269W        W97595  19.317   4.326   2.847
25270W        W97596  12.066  29.497  11.295
25271W        W97597   4.752  33.374  11.987
25272W        W97598  21.086  25.219  13.154
25273W        W97599  30.299  25.518   3.236
25274W        W97600  29.996   5.770  14.119
25275W        W97601  37.001  10.337  10.103
25276W        W97602   8.877  36.572   3.113
25277W        W97603  24.192  16.120   0.895
25278W        W97604  44.789  42.395  13.993
25279W        W97605  11.558  22.073   0.041
25280W        W97606   2.414   9.152   4.115
25281W        W97607   3.948  16.286   1.667
25282W        W97608  37.294  12.131   2.772
25283W        W97609  28.887  13.079  11.686
25284W        W97610  12.113   1.981  10.713
25285W        W97611  10.355  35.898   0.391
25286W        W97612  42.945  31.070   0.357
25287W        W97613  21.817   4.682  10.740
25288W        W97614  37.588  14.846   4.879
25289W        W97615   7.730  22.195   2.415
25290W        W97616  25.566  44.149   3.622
25291W        W97617  36.306  18.495   1.587
25292W        W97618  20.401  30.364  14.443
25293W        W97619  43.714  40.901   1.801
25294W        W97620  11.694  36.886  12.909
25295W        W97621  24.432  12.450  11.037
25296W        W97622  23.793   4.761  10.572
25297W        W97623   9.835  18.202  14.328
25298W        W97624  37.435  17.160  11.266
25299W        W97625  15.674  23.578   3.607
25300W        W97626   0.830  24.423  13.019
25301W        W97627  29.519  31.890  12.846
25302W        W97628   2.743  28.275   4.252
25303W        W97629  26.460  44.743  13.467
25304W        W97630   5.305  37.482  13.824
25305W        W97631  21.385  26.880  11.042
25306W        W97632  13.883  36.645  11.094
25307W        W97633  44.633  15.677  14.988
25308W        W97634  13.100  11.551   3.644
25309W        W97635   7.270  38.148   0.319
25310W        W97636  21.663  20.848   2.604
25311W        W97637  35.439  31.050  14.107
25312W        W97638  28.493  39.511  12.390
25313W        W97639   7.527   7.286   0.211
25314W        W97640  21.567  13.849  14.871
25315W        W97641  12.771  38.560   2.303
25316W        W97642   3.363  27.362  12.856
25317W        W97643  31.526  10.731  13.695
25318W        W97644  23.568  32.772  13.159
25319W        W97645  42.601  12.084  10.713
25320W        W97646  34.560   0.233  12.535
25321W        W97647   5.229  40.773   2.872
25322W        W97648  11.357   2.256   1.766
25323W        W97649  29.447  42.587   0.736
25324W        W97650  24.629  43.367   2.691
25325W        W97651   2.557  23.721  10.655
25326W        W97652   7.661  15.360   2.128
25327W        W97653  41.724  18.703   3.697
25328W        W97654   9.090  43.320   4.051
25329W        W97655  33.992  43.745  12.978
25330W        W97656   8.750  34.578   0.407
25331W        W97657  36.478  44.781   1.917
25332W        W97658  21.240  19.787   0.648
25333W        W97659  23.167   3.490  13.891
25334W        W97660  24.567   7.019  11.577
25335W        W97661  43.738   3.947  13.641
25336W        W97662  39.448   1.849   4.705
25337W        W97663  42.376   0.923  12.016
25338W        W97664  31.930  17.095   1.577
25339W        W97665  44.330   3.384   2.703
25340W        W97666  23.511  27.361  10.776
25341W        W97667  19.864   5.539   4.869
25342W        W97668  25.214  26.540   0.719
25343W        W97669   9.609  18.727  14.298
25344W        W97670  10.848  28.396  13.883
25345W        W97671  38.836   2.752  12.580
25346W        W97672  16.765  19.152   2.185
25347W        W97673  34.573  25.560  10.654
25348W        W97674  28.979  26.758   1.376
25349W        W97675  27.241  28.553   5.511
25350W        W97676  26.973  14.549  14.787
25351W        W97677  22.204  18.543  13.959
25352W        W97678  11.741   4.268  12.858
25353W        W97679  40.820  37.340   0.843
25354W        W97680   1.276  28.387  13.112
25355W        W97681  43.281  43.214   4.122
25356W        W97682   9.617  39.508  13.941
25357W        W97683   5.674  14.395   2.212
25358W        W97684  42.417  23.268   4.121
25359W        W97685  43.939  29.113  11.658
25360W        W97686  35.010  14.642  12.863
25361W        W97687   8.290  11.781  12.713
25362W        W97688   3.942  25.921  10.626
25363W        W97689  16.086   1.379   1.785
25364W        W97690   5.108   4.980  12.464
25365W        W97691  35.485   4.705  12.568
25366W        W97692  35.845  11.635  11.533
25367W        W97693  23.181  14.742   3.532
25368W        W97694   3.153  18.557   3.293
25369W        W97695  31.097  31.978   0.729
25370W        W97696  35.062  14.468   0.180
25371W        W97697  31.891   0.776   0.006
25372W        W97698  10.900  30.649   0.355
25373W        W97699  19.126  42.114  12.813
25374W        W97700  29.613  12.343   4.013
25375W        W97701  42.104  16.171  13.401
25376W        W97702   8.162   9.437  11.591
25377W        W97703  36.965  20.797   0.504
25378W        W97704  17.116  32.743  14.788
25379W        W97705  28.514  23.646   3.279
25380W        W97706   8.237  31.619   2.694
25381W        W97707  37.533  38.147  10.663
25382W        W97708  28.568  24.651   2.977
25383W        W97709   4.847  27.938   0.711
25384W        W97710   6.266  12.072   0.342
25385W        W97711  29.908   8.819   3.321
25386W        W97712  15.011  31.058   1.666
25387W        W97713  44.699  43.317  11.492
25388W        W97714  32.150  10.164  12.054
25389W        W97715  26.534  33.826  14.411
25390W        W97716   9.718  22.521  12.982
25391W        W97717  27.840  36.985  13.735
25392W        W97718  10.577   0.011   3.150
25393W        W97719  25.978  10.765   4.107
25394W        W97720  38.042   2.527   1.327
25395W        W97721  10.413  44.721   2.749
25396W        W97722  28.453  27.470   0.332
25397W        W97723  24.685  22.151  14.830
25398W        W97724   8.921   4.811  13.002
25399W        W97725  15.714  22.338   2.086
25400W        W97726  18.710  24.631   3.038
25401W        W97727  37.677  12.181  12.817
25402W        W97728  23.128  23.146  11.075
25403W        W97729  27.652  17.777  14.047
25404W        W97730   0.538  20.691   3.253
25405W        W97731   1.562  11.381  14.026
25406W        W97732  29.634  28.010   0.981
25407W        W97733   2.272   3.428  11.999
25408W        W97734   4.663   6.533  13.841
25409W        W97735  10.782   1.331  10.511
25410W        W97736  43.747  26.696  13.509
25411W        W97737  25.427  15.388   4.263
25412W        W97738  39.905  16.064  11.543
25413W        W97739  41.806  37.651   4.507
25414W        W97740  11.250  20.492   1.357
25415W        W97741  32.281  29.428   3.412
25416W        W97742  17.450   1.762  11.143
25417W        W97743   7.480   8.182   1.277
25418W        W97744   8.355  34.174   2.786
25419W        W97745  10.738  15.778  10.053
25420W        W97746  11.206  10.311   4.303
25421W        W97747  11.484  29.251  14.750
25422W        W97748  11.919  18.659  14.307
25423W        W97749  10.080   7.789   4.764
25424W        W97750  31.415  14.145  12.044
25425W        W97751  24.918   4.583   3.247
25426W        W97752  28.481  30.089   1.821
25427W        W97753  36.306   1.277  11.036
25428W        W97754   9.683  37.798   4.176
25429W        W97755   7.709   1.194  14.749
25430W        W97756  31.629  15.320   4.844
25431W        W97757  35.318  16.637   0.030
25432W        W97758  20.553  40.974  11.958
25433W        W97759   5.365  11.783  10.733
25434W        W97760   4.703  13.863  11.188
25435W        W97761   1.001  14.111  12.914
25436W        W97762  32.855  22.134   3.056
25437W        W97763  22.597  27.353  13.245
25438W        W97764  38.532  35.136   2.286
25439W        W97765   7.435  17.284  11.935
25440W        W97766  43.344  22.577  12.584
25441W        W97767  38.804   4.378   2.878
25442W        W97768  41.431  36.748  14.006
25443W        W97769  43.612   6.717  14.843
25444W        W97770  28.207  43.195   2.160
25445W        W97771  12.659  34.360  11.471
25446W        W97772  28.421  40.390   0.913
25447W        W97773   3.264  34.077   1.641
25448W        W97774  44.444  27.105   4.591
25449W        W97775  37.269  16.663  12.406
25450W        W97776  17.830  35.435  11.668
25451W        W97777  13.835  27.732   4.541
25452W        W97778  29.209  41.066  14.284
25453W        W97779  31.525   3.274   4.936
25454W        W97780  41.249   7.888   1.766
25455W        W97781  38.547  17.222  11.192
25456W        W97782  39.767   2.734   2.253
25457W        W97783  25.592  17.976   5.027
25458W        W97784  40.972  34.797   1.680
25459W        W97785  26.011  39.298  14.179
25460W        W97786  23.015   6.920  12.952
25461W        W97787  32.611  33.369  12.372
25462W        W97788   6.770  27.066  10.923
25463W        W97789  36.310   0.889  11.639
25464W        W97790  38.944  34.798   2.282
25465W        W97791  42.898   5.425   0.934
25466W        W97792   4.301  31.674   3.672
25467W        W97793  38.997   1.816  12.623
25468W        W97794  27.414  35.205   1.535
25469W        W97795  31.662  37.545  13.168
25470W        W97796  25.795  10.852   0.629
25471W        W97797  35.109  14.937   0.391
25472W        W97798  18.183   4.854   0.950
25473W        W97799  16.051  31.134  12.116
25474W        W97800  25.890  44.033  14.553
25475W        W97801  18.748  36.966  14.666
25476W        W97802  42.142  15.508   1.638
25477W        W97803   1.483  33.390   0.803
25478W        W97804  27.039   3.616   2.458
25479W        W97805   9.126  44.604  13.100
25480W        W97806   2.919  44.894   4.853
25481W        W97807   5.777  40.831  13.048
25482W        W97808  22.251  36.201  13.482
25483W        W97809   3.193  32.549  10.542
25484W        W97810  44.366  18.656   1.406
25485W        W97811  39.953   1.391  12.430
25486W        W97812   1.075  25.781   2.308
25487W        W97813  31.509  40.034  11.258
25488W        W97814  15.583  32.625   0.300
25489W        W97815  43.560  14.010   5.089
25490W        W97816  15.614  25.511  11.094
25491W        W97817  16.358  20.125  11.171
25492W        W97818  15.342  13.795  12.357
25493W        W97819  38.533  40.253   2.433
25494W        W97820   1.761  23.747   3.602
25495W        W97821  33.076  34.955  14.558
25496W        W97822  43.949  12.331  13.070
25497W        W97823  23.618  21.936  13.384
25498W        W97824  39.032  28.528  13.872
25499W        W97825  41.585  20.063  10.530
25500W        W97826  18.737  36.559  12.491
25501W        W97827   5.169   0.006  14.092
25502W        W97828  35.341  14.286   4.146
25503W        W97829  21.688   8.143  13.107
25504W        W97830  35.605  18.114   2.186
25505W        W97831  13.574  20.652  12.484
25506W        W97832  11.138  37.279   1.864
25507W        W97833   1.015  30.603   3.032
25508W        W97834  43.182  12.457  12.542
25509W        W97835  15.263  32.182  13.784
25510W        W97836  27.742   2.943  12.532
25511W        W97837  26.621  33.469  11.185
25512W        W97838  38.876   9.605   1.300
25513W        W97839   0.204  39.929  10.591
25514W        W97840  42.305  25.173   0.348
25515W        W97841  18.153  36.607   1.839
25516W        W97842  19.765  14.287   1.837
25517W        W97843  35.339  15.230   0.023
25518W        W97844  15.390  31.479  13.474
25519W        W97845  13.566  18.711   0.920
25520W        W97846  18.511  27.536   0.923
25521W        W97847  25.627  30.229  10.406
25522W        W97848  15.633  11.492  14.520
25523W        W97849  41.860  13.767   0.884
25524W        W97850   5.675  36.373  12.939
25525W        W97851  35.110  18.476  12.071
25526W        W97852  36.130  30.364   1.839
25527W        W97853   8.846  42.999   3.608
25528W        W97854  25.121  20.358   1.873
25529W        W97855  31.641  33.009  12.055
25530W        W97856  17.470  13.883   3.288
25531W        W97857  33.213  19.655   2.812
25532W        W97858  24.417   6.911   1.616
25533W        W97859  27.016  12.040  11.420
25534W        W97860  21.177  44.378  14.948
25535W        W97861  21.438  25.450   4.388
25536W        W97862   8.605  30.416   4.078
25537W        W97863  32.122  11.689  12.495
25538W        W97864  26.615  44.101   2.791
25539W        W97865  43.504  21.358  10.069
25540W        W97866  33.087  20.855   4.304
25541W        W97867  25.486  31.525  14.750
25542W        W97868  14.754  39.873   0.541
25543W        W97869   3.945   9.159   1.861
25544W        W97870   7.429   5.446  13.407
25545W        W97871   7.839  15.991   3.095
25546W        W97872  35.526   6.698  11.820
25547W        W97873  28.157   9.554   0.188
25548W        W97874  26.182  28.451  13.860
25549W        W97875  33.128   1.886   0.250
25550W        W97876  20.536  13.155  12.979
25551W        W97877  19.084   6.755  14.969
25552W        W97878  25.697   9.129  13.875
25553W        W97879  35.649  33.010  13.328
25554W        W97880  14.137   4.230   3.544
25555W        W97881  20.425  19.055  12.582
25556W        W97882  31.819  42.768  14.745
25557W        W97883  24.943  28.808  14.168
25558W        W97884  19.181   1.510   0.346
25559W        W97885   5.778  10.237  11.003
25560W        W97886  30.563   3.756   4.656
25561W        W97887  36.746   9.175   4.379
25562W        W97888  29.769  35.230  12.480
25563W        W97889  27.008  26.467  13.501
25564W        W97890  23.279  19.774  14.134
25565W        W97891   0.407   7.793  12.145
25566W        W97892   0.290  13.863   1.055
25567W        W97893  31.970  22.786  13.372
25568W        W97894  44.313   8.312   0.012
25569W        W97895  20.684  35.095   4.299
25570W        W97896  20.756   4.675   4.181
25571W        W97897  11.037  32.683  12.980
25572W        W97898  20.464   8.700  11.507
25573W        W97899  14.314  20.668  12.126
25574W        W97900  20.162  17.750  12.447
25575W        W97901  18.774  10.685   1.455
25576W        W97902   5.487  19.685  12.830
25577W        W97903   1.794  29.574   4.742
25578W        W97904  33.414   1.470   4.391
25579W        W97905   2.829  42.959  10.572
25580W        W97906  23.438  28.558   3.692
25581W        W97907  33.979  39.846   2.680
25582W        W97908  16.894   4.027  10.367
25583W        W97909  13.720  39.553   4.347
25584W        W97910   9.300  23.133  13.531
25585W        W97911  39.041  43.288   4.892
25586W        W97912  25.469   4.151  13.565
25587W        W97913   7.384  36.528   3.769
25588W        W97914  44.885  41.962   0.973
25589W        W97915  21.959  29.550   2.761
25590W        W97916  16.533  12.118  11.099
25591W        W97917  30.560   7.137   0.316
25592W        W97918  21.473   9.806  11.529
25593W        W97919  34.817   9.726  11.189
25594W        W97920  14.237   8.304  11.443
25595W        W97921   1.925   8.175   4.842
25596W        W97922  38.747  28.085  13.845
25597W        W97923   5.397  25.081  11.223
25598W        W97924   8.767   2.464   2.640
25599W        W97925   6.932   1.738   3.651
25600W        W97926  22.229  26.128  13.292
25601W        W97927  33.805  26.138  10.470
25602W        W97928   5.689  15.345   3.221
25603W        W97929  17.050  17.028  11.088
25604W        W97930  13.401   1.900  11.284
25605W        W97931  39.462   1.705   3.376
25606W        W97932  28.471  27.992  13.824
25607W        W97933  26.010  21.317  12.546
25608W        W97934   3.451   5.523   0.313
25609W        W97935  19.788  14.059   2.823
25610W        W97936  38.799  41.068  11.623
25611W        W97937  38.252   8.705  14.394
25612W        W97938  23.271  27.776  12.962
25613W        W97939  31.018  10.834  13.520
25614W        W97940  35.373  22.792  10.452
25615W        W97941  36.793  25.771  12.558
25616W        W97942   5.708  30.360   3.682
25617W        W97943  35.011  36.913  11.653
25618W        W97944  16.659  23.496   0.353
25619W        W97945  22.796  13.829  11.057
25620W        W97946  16.204  27.427  12.355
25621W        W97947  22.296   4.141  14.968
25622W        W97948  29.590  43.226  14.909
25623W        W97949  12.336   7.624   4.070
25624W        W97950  37.357   0.298   0.193
25625W        W97951  18.975   5.309  13.852
25626W        W97952  14.129  38.138   2.240
25627W        W97953  37.073   4.943  11.609
25628W        W97954  42.210  33.994  14.244
25629W        W97955   1.343  27.474   4.040
25630W        W97956  20.724   4.577  10.748
25631W        W97957  39.404   3.078  14.449
25632W        W97958  32.333  12.416  10.845
25633W        W97959  17.246   2.961   1.756
25634W        W97960  31.424   2.054   0.031
25635W        W97961  37.520   9.334   4.264
25636W        W97962  35.567  18.691  12.934
25637W        W97963   3.958   1.959  12.159
25638W        W97964  31.001  11.114   1.734
25639W        W97965  16.052  42.122   3.193
25640W        W97966  14.676  40.500  12.872
25641W        W97967  34.617  25.152   2.917
25642W        W97968  36.519  43.354   2.649
25643W        W97969  19.725  26.057  11.371
25644W        W97970  33.078  13.698   4.744
25645W        W97971  12.230  42.788  13.352
25646W        W97972  29.920   7.885  11.189
25647W        W97973  32.967  22.667  13.966
25648W        W97974  17.629  12.213   1.441
25649W        W97975  19.200  19.717  12.887
25650W        W97976  42.496  37.198   3.328
25651W        W97977  11.218   5.293   3.762
25652W        W97978   9.893  12.295  10.628
25653W        W97979  33.533  44.334   2.364
25654W        W97980  40.553  29.527   3.721
25655W        W97981  30.029  43.231   1.776
25656W        W97982  17.048  13.315   0.724
25657W        W97983  24.418  19.657   1.610
25658W        W97984  13.755   8.523   5.068
25659W        W97985  12.602  20.951   0.900
25660W        W97986   8.289   9.729   0.306
25661W        W97987  13.321  39.769  11.191
25662W        W97988  16.506  43.305  10.679
25663W        W97989  18.652  24.705  13.291
25664W        W97990  37.032  39.747  12.401
25665W        W97991  11.682  43.700   4.531
25666W        W97992  16.528  33.272  11.169
25667W        W97993  29.553  10.341   2.160
25668W        W97994  43.899  31.470   1.302
25669W        W97995  20.493  12.784  13.359
25670W        W97996  38.142  34.655   2.660
25671W        W97997  24.179  18.262   3.904
25672W        W97998  29.905   6.370  14.842
25673W        W97999  37.406  41.806  11.640
25674W        W98000  29.460   5.359  13.795
25675W        W98001  16.908  37.654  10.922
25676W        W98002  13.311  18.168  13.833
25677W        W98003  33.856  12.317  12.069
25678W        W98004  18.818  44.387  12.082
25679W        W98005  32.462  41.203  12.762
25680W        W98006  25.993  34.604   2.134
25681W        W98007  43.001  40.505  10.674
25682W        W98008  15.317   7.803  11.115
25683W        W98009  20.102  30.919   3.588
25684W        W98010  14.066  28.067  11.103
25685W        W98011  34.327  15.161   0.330
25686W        W98012   8.074   3.906   4.805
25687W        W98013  32.045   4.852   1.256
25688W        W98014  17.295  10.964   4.574
25689W        W98015  21.475  23.181  14.914
25690W        W98016  22.744  22.153   3.881
25691W        W98017  27.326  18.831  10.752
25692W        W98018  15.035  29.451  11.273
25693W        W98019  42.755   7.495  11.951
25694W        W98020  30.004  16.214   4.627
25695W        W98021  30.579  11.151  10.569
25696W        W98022  44.805   6.190   4.879
25697W        W98023  26.331  33.559   4.998
25698W        W98024   9.634  13.622  14.437
25699W        W98025  39.477  20.576  12.861
25700W        W98026   7.710   2.782  14.818
25701W        W98027   0.321  27.205  14.763
25702W        W98028   3.745  10.674  12.944
25703W        W98029  12.802  35.989  12.936
25704W        W98030  39.572  32.008   1.459
25705W        W98031   4.863  10.580  13.804
25706W        W98032  15.388  17.235   0.793
25707W        W98033  14.192  30.648   1.677
25708W        W98034  37.328  21.521   1.503
25709W        W98035   2.137  43.217   4.052
25710W        W98036   5.611  16.092  11.026
25711W        W98037  42.995  20.171   2.291
25712W        W98038  15.357  40.572   3.763
25713W        W98039  40.193  15.142   2.727
25714W        W98040  13.343   1.269  13.365
25715W        W98041  44.339  11.605  12.836
25716W        W98042   1.979  39.408  12.236
25717W        W98043   5.660  12.792  14.751
25718W        W98044  44.050  40.477  11.544
25719W        W98045  13.829  18.644  12.367
25720W        W98046  40.188  43.356  11.395
25721W        W98047  40.906  15.388  11.094
25722W        W98048   1.448   1.045   3.117
25723W        W98049  33.062  36.928   1.506
25724W        W98050  42.640  14.027   0.331
25725W        W98051   1.825   8.183  14.220
25726W        W98052   4.501  22.491   5.640
25727W        W98053   6.341  12.715   2.182
25728W        W98054  35.599  11.105   2.253
25729W        W98055  42.015   0.521  10.724
25730W        W98056  29.640  25.630   0.760
25731W        W98057   4.886   3.395   2.121
25732W        W98058  40.925  30.979   2.525
25733W        W98059  11.800  11.129   2.540
25734W        W98060  14.236   3.374  13.360
25735W        W98061  33.692  17.179   0.640
25736W        W98062   6.009   7.411   2.951
25737W        W98063   1.948  33.711  12.156
25738W        W98064  30.871  20.637  12.054
25739W        W98065   8.778  28.086  13.886
25740W        W98066  44.542   2.679   1.712
25741W        W98067  43.239  13.576  13.084
25742W        W98068  40.455  34.946  10.331
25743W        W98069  38.748  36.510  11.421
25744W        W98070   7.030  33.328  14.986
25745W        W98071   6.868  31.101  12.115
25746W        W98072  26.539  39.837  13.681
25747W        W98073  24.439  41.460   0.881
25748W        W98074  24.196   3.720  13.857
25749W        W98075   8.298  10.637   3.681
25750W        W98076  36.045   3.221   0.985
25751W        W98077  26.830  14.599  12.088
25752W        W98078  19.522   8.277   3.170
25753W        W98079  39.497  22.151   4.119
25754W        W98080  44.244  39.874  13.641
25755W        W98081  39.109  27.790   4.568
25756W        W98082   8.323   1.508   1.844
25757W        W98083  23.053  11.447  12.924
25758W        W98084   7.279  39.852   2.854
25759W        W98085  16.309  36.289   0.854
25760W        W98086   3.876  15.148   1.465
25761W        W98087  18.407  40.116  12.666
25762W        W98088  43.934   0.421   2.646
25763W        W98089  44.459  31.661   0.776
25764W        W98090   9.862  36.597  11.867
25765W        W98091   3.322  10.132   4.154
25766W        W98092  27.462  17.389   3.375
25767W        W98093  14.316   5.677   2.314
25768W        W98094  31.596  40.370  12.353
25769W        W98095  26.449  29.727  11.259
25770W        W98096  19.118  19.446  14.021
25771W        W98097  19.700   3.348  12.985
25772W        W98098  31.037  44.842   2.634
25773W        W98099  23.973  31.380   3.652
25774W        W98100  23.027  19.616  12.007
25775W        W98101  29.652  42.195   4.525
25776W        W98102  44.864   6.290   4.375
25777W        W98103  11.350  14.544   3.404
25778W        W98104  10.302  26.920  13.392
25779W        W98105  15.616   7.283  12.032
25780W        W98106   8.325  41.811   3.140
25781W        W98107  43.992  16.807   4.145
25782W        W98108  26.922  24.144   3.733
25783W        W98109   7.393  43.393   1.164
25784W        W98110  29.816  17.692   0.566
25785W        W98111   8.428  14.652  12.309
25786W        W98112  19.145  42.636  12.828
25787W        W98113  43.717  41.555   4.396
25788W        W98114  25.616  19.171  12.760
25789W        W98115  26.478  19.620  14.980
25790W        W98116  20.561  16.354  10.455
25791W        W98117   8.265  26.477   2.734
25792W        W98118  19.004  20.720   4.159
25793W        W98119  27.012  40.764   0.727
25794W        W98120  15.792  44.722  13.928
25795W        W98121  24.527  36.365   0.470
25796W        W98122   1.988  34.035   0.883
25797W        W98123  17.561  43.801  13.327
25798W        W98124  44.095  12.952   1.864
25799W        W98125  30.172  33.874   0.921
25800W        W98126   3.161  31.845  13.935
25801W        W98127  18.216   6.876   4.700
25802W        W98128  11.294  42.840  13.321
25803W        W98129  10.204  30.122   0.862
25804W        W98130  14.912  29.425   4.314
25805W        W98131   6.406  38.595   1.833
25806W        W98132   3.148  37.905  10.433
25807W        W98133   2.402  20.698  14.810
25808W        W98134  18.500   4.956   0.444
25809W        W98135  13.913  26.200   2.995
25810W        W98136  21.023  29.073   1.591
25811W        W98137  14.842   3.663   3.170
25812W        W98138  24.636  44.170   2.146
25813W        W98139  24.784   5.316  13.549
25814W        W98140  25.599   9.634   1.271
25815W        W98141  33.121  28.197  12.102
25816W        W98142  15.255  41.921  14.845
25817W        W98143  13.360  42.888  11.163
25818W        W98144   0.780  24.573   0.554
25819W        W98145  25.490  41.593  14.319
25820W        W98146  23.311  29.598  12.188
25821W        W98147  24.940  31.082  11.949
25822W        W98148   9.110  12.185   3.255
25823W        W98149  40.519  36.599  12.019
25824W        W98150  33.830   6.176  11.942
25825W        W98151   3.860  26.267  11.600
25826W        W98152  14.191  32.629  10.933
25827W        W98153  36.975   3.076   5.005
25828W        W98154  19.041  18.631   2.629
25829W        W98155  25.692  40.501   2.931
25830W        W98156  40.329  34.561  10.665
25831W        W98157   2.359  16.445   0.960
25832W        W98158  23.782  26.277   4.841
25833W        W98159  29.117  16.116   4.470
25834W        W98160   7.644  39.874   1.250
25835W        W98161   3.421  30.673   3.623
25836W        W98162   6.966  24.853   3.605
25837W        W98163  32.413  18.278  12.037
25838W        W98164  40.320  19.258  14.391
25839W        W98165   4.312  44.622  11.180
25840W        W98166  18.612   4.488   5.038
25841W        W98167  16.212   2.385   1.701
25842W        W98168   3.818   2.394   2.208
25843W        W98169  19.079  33.539  11.368
25844W        W98170   7.710  38.937  12.105
25845W        W98171  30.472   9.849   4.569
25846W        W98172  12.454   5.442  14.844
25847W        W98173   2.437  19.786   3.272
25848W        W98174  28.991  16.659  14.040
25849W        W98175   4.870   0.158  12.419
25850W        W98176  42.335  24.637   4.342
25851W        W98177  40.436  20.637  14.882
25852W        W98178  29.907   6.960  11.195
25853W        W98179  16.238  15.857  14.484
25854W        W98180  43.901  30.428   0.697
25855W        W98181  29.850  41.169   4.287
25856W        W98182  42.892   5.777   4.887
25857W        W98183  17.112   4.484  13.365
25858W        W98184  33.876  19.642  11.420
25859W        W98185  27.267  13.618  11.145
25860W        W98186  31.863  12.401  14.234
25861W        W98187  24.275  25.606  11.227
25862W        W98188   5.109  20.089  11.720
25863W        W98189  14.339  33.912  10.098
25864W        W98190  42.436  29.194  11.531
25865W        W98191  31.464  40.862  12.497
25866W        W98192  28.066  17.565  14.339
25867W        W98193  35.093  41.861   0.324
25868W        W98194   9.502  10.671  13.412
25869W        W98195  29.024   3.227   0.140
25870W        W98196  15.338  20.109  11.389
25871W        W98197  35.170  44.154  14.344
25872W        W98198   0.586  17.653  14.871
25873W        W98199  25.994  33.355  14.808
25874W        W98200  24.023  29.528   4.083
25875W        W98201   7.235  41.954  11.986
25876W        W98202  24.205  20.694   0.258
25877W        W98203  13.695   0.789   2.903
25878W        W98204  17.323  29.078  10.179
25879W        W98205  15.540  17.737  12.812
25880W        W98206   2.166  17.302   4.018
25881W        W98207   3.733   1.030   2.337
25882W        W98208  42.987   1.881  12.084
25883W        W98209   0.935  37.902  13.330
25884W        W98210  28.035  39.825   3.818
25885W        W98211  26.919  25.629  12.996
25886W        W98212  29.036  12.564  12.524
25887W        W98213  27.828  22.535  12.533
25888W        W98214  20.079  19.863  13.425
25889W        W98215  10.842   6.880  12.014
25890W        W98216   5.825  14.811  12.042
25891W        W98217   0.745  23.077   3.825
25892W        W98218   9.710  41.609  10.978
25893W        W98219   9.484  10.763   4.773
25894W        W98220  28.039  39.472   0.448
25895W        W98221   4.946  32.525  13.916
25896W        W98222   1.003  37.955  14.264
25897W        W98223  31.959  43.135   0.698
25898W        W98224  17.474   5.231   4.556
25899W        W98225  44.748  29.974  12.622
25900W        W98226  36.463  11.856  10.788
25901W        W98227   1.951  31.060  10.645
25902W        W98228  34.987   0.779   2.632
25903W        W98229  22.160  16.804   5.179
25904W        W98230  30.244  13.973   2.231
25905W        W98231  36.829   4.856  12.052
25906W        W98232  31.345  16.671   4.038
25907W        W98233  28.441  33.066   1.016
25908W        W98234   1.922   1.004   1.431
25909W        W98235  16.261  17.433  11.680
25910W        W98236   3.113   9.708  11.118
25911W        W98237  27.436  21.700  14.575
25912W        W98238  42.813  29.080   2.322
25913W        W98239   0.700   3.056  11.473
25914W        W98240  41.799  18.257   2.497
25915W        W98241   5.440  16.260   3.145
25916W        W98242  36.164  18.295   3.643
25917W        W98243  15.195  12.776   3.871
25918W        W98244  14.638  25.394  12.526
25919W        W98245  17.838  41.245  11.208
25920W        W98246  44.279  18.362  13.499
25921W        W98247  35.937  33.481   2.915
25922W        W98248  26.126  37.420   3.310
25923W        W98249  27.650  28.616   4.629
25924W        W98250  29.901  40.883  14.836
25925W        W98251  20.364  37.288   3.499
25926W        W98252  43.381   1.605  14.895
25927W        W98253  24.983  13.342   1.431
25928W        W98254  41.880  14.054  14.958
25929W        W98255   7.451  24.500   0.018
25930W        W98256  29.692  11.388   1.914
25931W        W98257   4.901  43.364   1.320
25932W        W98258  24.724   7.366  11.202
25933W        W98259  30.915  14.511   1.920
25934W        W98260  12.236  34.699   0.005
25935W        W98261   2.669  12.062   2.745
25936W        W98262  31.190  43.712   4.169
25937W        W98263  39.590  23.951  13.510
25938W        W98264  18.530  31.039   1.493
25939W        W98265  40.412  43.253   0.275
25940W        W98266  23.622  27.087  11.203
25941W        W98267  28.963  34.535  11.621
25942W        W98268  17.356  39.433  14.968
25943W        W98269  34.297  29.544  11.504
25944W        W98270  25.056  11.175  13.328
25945W        W98271  23.447   4.429   2.631
25946W        W98272  43.821  17.069  10.571
25947W        W98273  34.310  17.526  11.566
25948W        W98274  29.853  39.903   4.106
25949W        W98275  24.663  18.988  11.058
25950W        W98276  11.836   9.748   3.288
25951W        W98277   0.743  20.614  13.369
25952W        W98278   2.904  30.135   3.610
25953W        W98279  43.423  25.687   0.947
25954W        W98280  30.359   4.502   0.236
25955W        W98281  34.431  23.707  11.548
25956W        W98282  19.695  40.612   1.509
25957W        W98283  27.350  26.473  11.516
25958W        W98284  32.086   3.885  12.943
25959W        W98285  20.254  34.335   0.495
25960W        W98286  36.555  36.148   4.250
25961W        W98287  18.021  13.841   4.210
25962W        W98288  11.895  11.570   4.164
25963W        W98289  32.607  27.488  13.546
25964W        W98290  29.637   8.203   2.809
25965W        W98291  41.816   0.551   2.783
25966W        W98292  28.552  41.323  10.746
25967W        W98293  39.293  19.055  12.858
25968W        W98294  42.933  38.927   3.219
25969W        W98295  11.665   6.794   4.406
25970W        W98296  19.062   8.885  11.183
25971W        W98297  39.383  39.074   2.338
25972W        W98298  27.745  36.005   3.167
25973W        W98299  30.004  40.378  14.703
25974W        W98300  41.340   5.292  13.386
25975W        W98301  20.754  44.764   4.002
25976W        W98302  41.842  38.339  13.347
25977W        W98303  35.806  37.326   2.397
25978W        W98304   5.196  12.401  12.559
25979W        W98305  34.090  13.192   1.392
25980W        W98306  26.066  40.148   2.730
25981W        W98307  32.044  32.690   1.177
25982W        W98308  25.900  32.594  13.243
25983W        W98309  10.703  25.729  13.584
25984W        W98310  38.852   4.316   3.768
25985W        W98311  20.110  15.484   4.539
25986W        W98312   0.813  13.887   2.258
25987W        W98313  37.164  33.459  13.828
25988W        W98314  35.432   9.632   0.407
25989W        W98315  36.124  32.429   4.139
25990W        W98316  27.629  31.140   4.747
25991W        W98317  13.145   8.884   2.369
25992W        W98318  20.194  14.823   3.750
25993W        W98319   3.013   3.768   2.252
25994W        W98320  29.179  10.839  12.477
25995W        W98321  15.403  23.660   2.365
25996W        W98322  36.533  42.510  14.530
25997W        W98323  43.460  38.117   3.251
25998W        W98324  12.617  37.540   1.636
25999W        W98325  30.142   5.953   2.723
26000W        W98326  43.298  32.642   3.690
26001W        W98327  39.693  36.251   1.159
26002W        W98328   5.963  18.155   2.854
26003W        W98329  39.507   0.858  10.703
26004W        W98330   8.963  37.470   3.377
26005W        W98331   6.318  25.737   0.429
26006W        W98332  18.793  36.024  14.944
26007W        W98333   4.611  18.434   1.376
26008W        W98334  40.361  35.118  11.372
26009W        W98335  39.050   4.717  13.377
26010W        W98336  18.525  29.048  14.008
26011W        W98337  10.419   2.839   0.900
26012W        W98338  17.103   8.273   2.262
26013W        W98339  33.650   4.188   4.143
26014W        W98340  34.954  33.333  12.869
26015W        W98341  29.362   1.772   1.207
26016W        W98342   9.329   9.082  14.969
26017W        W98343  28.497   8.755  11.180
26018W        W98344  18.682  38.150  12.479
26019W        W98345  18.804  44.060  10.994
26020W        W98346  41.260  18.183   0.698
26021W        W98347  14.846  36.327   4.152
26022W        W98348  10.651  25.541   3.458
26023W        W98349   6.795  33.899  13.605
26024W        W98350  42.597  16.191  13.522
26025W        W98351  41.788  20.643  12.583
26026W        W98352  33.498  25.669   2.163
26027W        W98353  43.447  27.413  12.121
26028W        W98354  29.015  33.942  14.756
26029W        W98355  39.621  18.703  12.398
26030W        W98356   3.291  40.316   0.163
26031W        W98357  42.887  33.482  14.389
26032W        W98358  40.286  39.973  14.118
26033W        W98359  25.032  39.946  13.542
26034W        W98360  40.080  14.535  14.770
26035W        W98361  31.966  36.147   1.744
26036W        W98362  30.681  14.774   2.331
26037W        W98363  31.110  24.021   1.990
26038W        W98364  44.669   3.071  11.557
26039W        W98365  39.228   9.907  11.726
26040W        W98366  13.838  40.537   0.912
26041W        W98367   7.066  11.260   0.377
26042W        W98368  42.518  40.220  14.963
26043W        W98369  35.052  25.964   1.475
26044W        W98370   3.640  39.896   1.578
26045W        W98371  44.034   1.469   1.314
26046W        W98372  43.215   1.001  14.286
26047W        W98373  40.560  38.948   2.339
26048W        W98374  26.137  26.831  11.014
26049W        W98375  16.253  27.000  12.882
26050W        W98376  22.886  34.441   1.405
26051W        W98377  36.332  20.649  11.465
26052W        W98378  30.920  29.530   0.259
26053W        W98379  24.934  25.414  11.944
26054W        W98380  19.558  44.797   2.508
26055W        W98381   3.231  23.460   3.681
26056W        W98382  29.602   8.861  12.147
26057W        W98383  23.655  22.037   2.927
26058W        W98384   8.568  35.823   2.863
26059W        W98385  13.340  24.986  12.927
26060W        W98386  28.267  36.280   9.958
26061W        W98387  31.219  33.748   2.999
26062W        W98388  27.719   3.106   4.816
26063W        W98389  20.714  25.190   0.389
26064W        W98390   3.262  12.794   4.583
26065W        W98391  12.531  39.292   0.448
26066W        W98392   6.228  15.682  12.366
26067W        W98393  16.992  41.642  11.297
26068W        W98394  31.112  25.970   2.414
26069W        W98395  25.510  18.045   2.747
26070W        W98396  14.304   5.519   1.010
26071W        W98397  13.409  33.348   5.738
26072W        W98398  42.928  10.195  10.603
26073W        W98399  16.699  33.023  14.711
26074W        W98400   1.362  29.638   2.371
26075W        W98401  24.960   7.937  12.930
26076W        W98402   8.584  40.159  14.752
26077W        W98403  42.537  13.638   3.641
26078W        W98404  24.253  21.110  14.941
26079W        W98405  17.029  14.680   0.362
26080W        W98406  24.669  33.917  12.000
26081W        W98407  10.465  26.440   1.287
26082W        W98408  25.675  39.445  14.958
26083W        W98409  25.981  34.855   3.763
26084W        W98410  37.082   3.887   1.278
26085W        W98411  16.552  39.270  12.109
26086W        W98412   2.565  11.032  10.780
26087W        W98413  25.466  16.431   2.147
26088W        W98414  40.178  32.531  14.935
26089W        W98415   4.671  19.512  11.892
26090W        W98416   5.794  17.157  12.943
26091W        W98417   2.172  23.053  13.298
26092W        W98418  32.503   5.817   9.674
26093W        W98419   3.525  42.990   4.247
26094W        W98420  30.957   9.232  13.885
26095W        W98421  37.450  12.722  13.486
26096W        W98422  27.507  10.301  12.539
26097W        W98423   9.699  23.100   3.552
26098W        W98424   4.799   8.197   2.355
26099W        W98425   9.929   1.488  14.271
26100W        W98426   2.483  39.369   0.850
26101W        W98427   4.360  37.402   1.365
26102W        W98428  23.230  43.292   4.230
26103W        W98429  25.467  21.416   2.572
26104W        W98430  31.472  34.051   2.171
26105W        W98431  29.461  12.262  12.390
26106W        W98432  26.819  10.439   3.602
26107W        W98433  23.594  19.771   3.156
26108W        W98434   5.977   9.822  14.023
26109W        W98435  27.492  23.870  12.420
26110W        W98436   6.425  44.794  12.111
26111W        W98437  11.219  42.338   2.290
26112W        W98438  42.943  30.802   4.511
26113W        W98439  31.720  43.978   2.199
26114W        W98440  26.647  31.930  14.632
26115W        W98441  21.504  37.552  14.729
26116W        W98442  19.473  41.913  13.387
26117W        W98443  27.614  10.654   3.428
26118W        W98444   2.807  18.217  12.963
26119W        W98445  35.456  29.050  11.370
26120W        W98446   9.807   7.357  14.289
26121W        W98447   2.171  32.464  10.484
26122W        W98448  20.804  37.051  12.093
26123W        W98449  15.416   6.793  11.959
26124W        W98450  27.938  44.241   2.140
26125W        W98451  20.028  44.439  13.031
26126W        W98452  29.652  36.553  12.482
26127W        W98453  33.497   6.305   1.328
26128W        W98454  10.790   0.237   1.956
26129W        W98455  34.076  17.689   1.841
26130W        W98456  42.407  38.656   4.247
26131W        W98457  40.585   8.275  13.760
26132W        W98458  17.278  21.514   0.948
26133W        W98459  20.452  37.850   1.005
26134W        W98460  42.200  23.937   0.800
26135W        W98461  21.149  15.520   2.090
26136W        W98462   4.503  23.588  11.955
26137W        W98463  30.328  14.183  11.629
26138W        W98464  17.553   6.696  14.968
26139W        W98465   1.269   7.817   2.732
26140W        W98466  28.239  34.299  12.116
26141W        W98467  17.289  32.117   4.210
26142W        W98468   8.793   4.697  12.506
26143W        W98469   0.551  23.463  12.370
26144W        W98470  28.684  35.124   0.285
26145W        W98471   5.408  44.100   0.225
26146W        W98472  30.870  10.213   9.962
26147W        W98473  11.163  17.347   1.849
26148W        W98474   9.414  36.056   0.765
26149W        W98475  42.084   1.261   0.433
26150W        W98476  24.028  43.816  11.685
26151W        W98477   5.269  18.121   3.422
26152W        W98478  36.653   9.518   1.187
26153W        W98479  30.697  22.119   4.763
26154W        W98480  33.465  31.681   2.697
26155W        W98481  32.201   6.883  14.956
26156W        W98482   0.282  42.401   2.206
26157W        W98483  10.785  32.702   0.326
26158W        W98484  18.625  10.634   3.584
26159W        W98485  19.628   7.939   0.945
26160W        W98486  35.109  37.215   3.297
26161W        W98487  37.090  18.021  14.828
26162W        W98488  20.760   5.088  10.692
26163W        W98489  43.178  24.215  14.949
26164W        W98490  44.916   1.414   0.478
26165W        W98491   0.422  10.637   2.885
26166W        W98492  20.095   3.861  12.361
26167W        W98493  11.850   6.741  14.994
26168W        W98494  42.619   5.832   0.472
26169W        W98495  20.236  11.607   0.284
26170W        W98496   1.995  24.112   9.829
26171W        W98497  35.985  41.391  11.957
26172W        W98498  18.747  23.500  14.384
26173W        W98499  17.545   3.154   2.873
26174W        W98500   1.804  31.686  13.072
26175W        W98501  15.033  11.178  13.397
26176W        W98502  31.668  21.323   2.200
26177W        W98503  42.066   8.129   0.300
26178W        W98504   3.523  19.093  14.342
26179W        W98505  16.043   0.012  14.459
26180W        W98506  35.800   5.246   3.645
26181W        W98507  13.840  24.754  14.494
26182W        W98508  36.236  44.637  12.952
26183W        W98509  29.141  27.925   5.532
26184W        W98510  23.564  18.123  12.428
26185W        W98511  39.562  17.289  10.470
26186W        W98512   4.915  32.944   4.627
26187W        W98513  23.752  36.804  14.925
26188W        W98514  16.664  43.003   1.935
26189W        W98515   7.735  19.710   2.785
26190W        W98516  19.512  26.579   3.240
26191W        W98517   5.594  28.034  10.779
26192W        W98518  23.581  11.736  10.435
26193W        W98519   5.307  22.178  11.652
26194W        W98520  11.867  34.403  14.760
26195W        W98521  30.839  33.449   2.735
26196W        W98522  32.136  33.859  13.106
26197W        W98523  25.769   5.287  10.523
26198W        W98524  41.630  41.259  13.335
26199W        W98525  17.979  42.176  13.080
26200W        W98526  11.913  15.780   0.329
26201W        W98527   5.796   4.446   0.049
26202W        W98528  29.446  26.925  11.994
26203W        W98529  28.631  26.589   0.038
26204W        W98530  18.033  35.030   1.502
26205W        W98531  26.487   6.779  13.656
26206W        W98532  14.638  39.471   0.262
26207W        W98533  38.396  40.593  12.581
26208W        W98534  28.356  43.313   3.851
26209W        W98535  33.845  19.604  14.027
26210W        W98536  21.345  43.687  13.924
26211W        W98537  21.161  43.937   4.173
26212W        W98538  14.673  22.945   3.676
26213W        W98539  44.064  34.847   4.223
26214W        W98540  19.456  11.671   1.686
26215W        W98541  13.039  23.275   4.058
26216W        W98542  35.666   1.895   1.930
26217W        W98543  40.933  37.298  14.261
26218W        W98544  41.940   6.221  12.069
26219W        W98545   2.690  20.540   2.271
26220W        W98546  28.743  30.940   2.057
26221W        W98547  23.834  12.237   4.108
26222W        W98548  36.076   2.772  12.100
26223W        W98549   3.651  26.262   2.886
26224W        W98550   9.146  41.494  13.605
26225W        W98551  19.117  23.035   0.283
26226W        W98552   2.133  20.719   9.744
26227W        W98553  18.949  36.417  14.472
26228W        W98554   2.729  20.563  12.058
26229W        W98555   6.940  29.606  12.082
26230W        W98556   8.945  35.886   0.651
26231W        W98557  27.107  12.743  13.468
26232W        W98558  20.611  44.996  12.458
26233W        W98559  10.838   9.195   1.384
26234W        W98560  35.064  34.148   3.319
26235W        W98561   6.298  15.137  10.742
26236W        W98562  10.911  28.448   0.905
26237W        W98563   9.699  32.909  11.062
26238W        W98564   7.596  30.385  12.449
26239W        W98565  39.195   9.210   1.345
26240W        W98566  35.291  10.324  13.189
26241W        W98567  16.220  23.256   0.211
26242W        W98568  28.090  34.690   3.904
26243W        W98569  18.243  12.328  12.976
26244W        W98570   4.324   0.942   1.500
26245W        W98571   3.171  17.740  10.998
26246W        W98572  30.962   2.436   3.588
26247W        W98573   6.247  36.592   0.663
26248W        W98574  23.003  38.927  11.571
26249W        W98575  32.486  42.329   0.514
26250W        W98576   0.185  33.007  12.680
26251W        W98577  39.486  16.066  14.376
26252W        W98578  19.282   4.637  12.752
26253W        W98579  17.783  35.501  12.982
26254W        W98580  35.571  27.643   4.056
26255W        W98581  37.505  18.203   3.472
26256W        W98582   9.298  26.078   4.454
26257W        W98583   5.493  15.845   3.935
26258W        W98584  16.233  24.260   0.319
26259W        W98585  41.256   8.441  11.522
26260W        W98586  41.815  13.227   1.720
26261W        W98587  25.345   6.705   3.149
26262W        W98588  19.749  42.564  13.010
26263W        W98589  34.661  30.436   1.685
26264W        W98590  33.222   2.490   1.919
26265W        W98591   2.203  19.119  11.149
26266W        W98592  43.875  39.275  13.895
26267W        W98593  35.541   8.609  12.031
26268W        W98594  36.083  30.904   3.660
26269W        W98595  14.347  28.137   0.494
26270W        W98596  42.344  35.445   2.374
26271W        W98597  37.383  28.844   1.828
26272W        W98598  17.096   2.527   0.713
26273W        W98599   3.137  36.440   3.879
26274W        W98600  38.593  38.662  11.055
26275W        W98601  16.416  38.439  11.127
26276W        W98602  17.099   4.221  12.908
26277W        W98603  30.544  11.951  11.217
26278W        W98604  33.349   1.651  14.825
26279W        W98605  16.835   4.741  11.832
26280W        W98606  36.362   2.321   4.789
26281W        W98607   3.197  12.751   3.779
26282W        W98608  38.333  44.284   0.618
26283W        W98609  14.621   4.757   0.732
26284W        W98610  18.767  14.797   4.149
26285W        W98611  28.270   5.604  10.756
26286W        W98612  37.667  15.222  14.923
26287W        W98613  27.904  21.707  14.338
26288W        W98614  35.355  37.519  14.481
26289W        W98615  14.590  32.930   2.653
26290W        W98616  34.966  24.786  10.721
26291W        W98617   6.631  15.898  14.318
26292W        W98618  19.567   6.810  14.795
26293W        W98619  25.569  23.233  13.549
26294W        W98620   5.025  26.165  13.525
26295W        W98621  17.143   3.929   3.391
26296W        W98622  35.889  37.076  12.946
26297W        W98623  19.208  29.366  13.549
26298W        W98624   4.331  30.603   3.604
26299W        W98625  26.943   7.197  10.697
26300W        W98626  43.033   0.982   2.461
26301W        W98627   4.991   0.686  12.377
26302W        W98628  34.853   8.294   3.639
26303W        W98629  11.052  43.575   4.131
26304W        W98630  37.361  26.421  12.380
26305W        W98631   5.627  31.425   1.227
26306W        W98632   8.676  37.624   0.146
26307W        W98633   4.903  27.616   0.288
26308W        W98634  42.790  33.566  13.348
26309W        W98635  32.446  29.174  13.475
26310W        W98636  36.341   6.907   0.976
26311W        W98637  37.160   5.986   4.823
26312W        W98638   9.319  28.679   2.725
26313W        W98639  16.597  42.118   0.757
26314W        W98640  34.824  31.095   2.794
26315W        W98641  22.225  10.809   3.602
26316W        W98642  37.076   3.967  10.652
26317W        W98643  37.543  18.986  14.802
26318W        W98644  31.117  35.905   0.416
26319W        W98645  22.902  33.534   2.863
26320W        W98646  22.762  42.337   4.140
26321W        W98647  21.232   4.992   1.911
26322W        W98648  40.888  11.458   2.157
26323W        W98649  41.938  19.759   2.922
26324W        W98650  36.382  14.131  11.487
26325W        W98651  38.886  29.172   4.013
26326W        W98652   1.776  29.845  12.372
26327W        W98653  38.860  42.430   1.993
26328W        W98654  11.160  33.544   1.065
26329W        W98655   8.845   3.053  11.594
26330W        W98656  22.192   6.997   1.311
26331W        W98657  37.668  41.756   5.188
26332W        W98658  37.243  33.082   4.523
26333W        W98659  30.948   1.872  14.927
26334W        W98660   6.838  35.043   0.318
26335W        W98661  39.476   9.696   3.550
26336W        W98662  20.204  33.310  12.629
26337W        W98663   6.403  30.928  11.921
26338W        W98664   9.874   0.413  12.492
26339W        W98665  40.978   3.347   2.608
26340W        W98666  26.606   5.852  12.583
26341W        W98667  31.995  39.571  12.495
26342W        W98668  34.091  44.381   4.355
26343W        W98669  28.062  20.962   4.752
26344W        W98670  21.017   2.731  11.102
26345W        W98671   5.651  19.621  11.048
26346W        W98672  10.589   2.137  14.861
26347W        W98673   9.397  31.437   0.809
26348W        W98674  35.749  42.646   2.821
26349W        W98675  15.654  21.895   2.879
26350W        W98676  17.592  15.077  10.545
26351W        W98677   2.371  30.502  11.092
26352W        W98678  16.182  39.727  14.297
26353W        W98679   6.261  21.068  13.623
26354W        W98680  22.979  32.650  13.383
26355W        W98681   1.737  29.135  12.155
26356W        W98682  36.979  36.739   1.319
26357W        W98683  37.931   8.286   1.195
26358W        W98684  28.518  41.385  11.630
26359W        W98685   8.447  44.234  14.867
26360W        W98686  21.257  11.245  10.251
26361W        W98687  38.953  15.117   0.254
26362W        W98688   6.134   5.637  13.588
26363W        W98689  12.871  10.483   1.226
26364W        W98690  26.190   4.241  12.968
26365W        W98691  18.433  11.381  14.841
26366W        W98692   9.788   6.379  14.368
26367W        W98693  14.907  29.031   1.601
26368W        W98694  13.688  28.675   3.701
26369W        W98695  12.209  29.891  12.926
26370W        W98696   8.750  14.622  13.280
26371W        W98697  41.958  32.126   1.614
26372W        W98698  19.106  22.462  14.419
26373W        W98699  27.261  44.501  13.861
26374W        W98700  39.985  10.086  11.582
26375W        W98701  11.733  27.266  10.090
26376W        W98702  22.512   6.500   1.772
26377W        W98703  28.196   4.328  14.277
26378W        W98704  39.345  18.327   3.805
26379W        W98705   0.422  29.893   0.445
26380W        W98706  28.801  18.193  12.822
26381W        W98707  18.568  16.080   1.627
26382W        W98708  30.181  41.951   1.278
26383W        W98709  10.834  30.591  14.782
26384W        W98710   6.778  23.525   1.426
26385W        W98711  33.869   5.034  13.846
26386W        W98712  31.060   1.773  11.615
26387W        W98713  19.889  31.516   3.499
26388W        W98714   3.097  26.602   0.438
26389W        W98715  21.568  36.441   0.276
26390W        W98716  27.665  17.885  11.199
26391W        W98717  35.458   7.264  14.753
26392W        W98718   1.040   9.441   1.251
26393W        W98719  30.655  12.346   2.814
26394W        W98720   6.085  32.351  12.166
26395W        W98721  15.108   1.408   4.611
26396W        W98722  33.907   5.473   1.363
26397W        W98723  17.448  20.516  11.999
26398W        W98724  17.123  38.804  14.181
26399W        W98725  14.008   7.786   3.362
26400W        W98726  21.104  21.062   1.191
26401W        W98727  43.110  23.276  13.474
26402W        W98728  13.800   4.754   0.996
26403W        W98729   1.309   2.051   9.823
26404W        W98730   5.869   7.087  11.556
26405W        W98731  16.154  11.254  13.036
26406W        W98732   5.660  13.146  13.580
26407W        W98733  11.424  10.796   4.183
26408W        W98734  14.978  30.227   4.152
26409W        W98735  34.884  20.996   0.840
26410W        W98736  10.559  40.466  12.940
26411W        W98737   4.651  22.271  13.872
26412W        W98738  24.683  15.545   4.353
26413W        W98739  18.650   9.431  13.937
26414W        W98740  18.662  42.875  12.069
26415W        W98741   7.328   1.469   2.819
26416W        W98742  30.404  17.150   3.059
26417W        W98743  10.633  41.353  11.402
26418W        W98744  11.783   2.922  14.021
26419W        W98745  21.014  41.640   4.532
26420W        W98746  21.650  19.320  10.771
26421W        W98747  26.582  32.373   3.323
26422W        W98748  42.369  35.729   3.620
26423W        W98749   3.331  39.387   1.706
26424W        W98750   2.442   9.775  10.565
26425W        W98751  40.353  27.592   3.802
26426W        W98752  27.687  10.889  13.014
26427W        W98753  28.093  31.217   5.046
26428W        W98754  31.584  12.769   2.704
26429W        W98755  30.684  42.590   2.368
26430W        W98756  25.977  16.280  12.597
26431W        W98757   3.162  18.167  14.455
26432W        W98758  34.506   4.366   3.287
26433W        W98759  11.675  32.482   3.422
26434W        W98760   1.596  32.215  10.157
26435W        W98761  24.300   4.003  12.955
26436W        W98762  36.073   7.162  14.495
26437W        W98763  19.010  35.408   4.197
26438W        W98764  44.899  10.700   1.839
26439W        W98765  42.418   8.601  14.545
26440W        W98766  14.290  37.392   0.019
26441W        W98767   5.612  20.308  14.459
26442W        W98768  33.000  14.734   4.718
26443W        W98769  16.138  32.171   2.379
26444W        W98770  26.446  24.189   1.857
26445W        W98771  26.058   5.271   3.622
26446W        W98772  43.448   5.293  12.137
26447W        W98773  29.390   7.592   4.146
26448W        W98774  12.962  10.561   0.112
26449W        W98775  13.089  43.327   2.423
26450W        W98776   7.705   5.399  12.048
26451W        W98777  15.235  11.644  13.376
26452W        W98778   6.286  28.954  12.106
26453W        W98779   1.916  44.851   3.282
26454W        W98780  17.325  34.880  10.989
26455W        W98781  39.599  26.626  14.021
26456W        W98782  24.231  21.735  11.550
26457W        W98783  20.935  19.298  13.692
26458W        W98784   0.814  17.763  14.381
26459W        W98785   5.127  37.475   3.665
26460W        W98786  38.360   2.493   3.714
26461W        W98787  38.009   6.187  12.097
26462W        W98788  21.701  13.289  11.308
26463W        W98789   2.495  31.892   2.899
26464W        W98790  43.089   2.908   2.397
26465W        W98791  14.650   4.379  14.453
26466W        W98792  19.590  27.868   3.714
26467W        W98793  23.756   4.977  12.755
26468W        W98794   5.918  37.628   9.862
26469W        W98795  14.304  22.685  13.910
26470W        W98796  10.859  35.505  14.832
26471W        W98797  25.068  35.651  11.129
26472W        W98798  31.423   4.245   3.697
26473W        W98799  24.192   6.668   2.386
26474W        W98800  19.042  10.854   0.496
26475W        W98801  21.671  21.955  11.123
26476W        W98802  41.851  39.688   4.558
26477W        W98803   9.381   5.845   4.051
26478W        W98804  43.438  27.677   4.530
26479W        W98805  11.368  21.850   0.992
26480W        W98806   4.622  29.481   2.653
26481W        W98807   8.474  28.275  11.409
26482W        W98808  28.513  42.764  14.905
26483W        W98809   1.875  27.178  12.928
26484W        W98810  14.252  37.520  12.685
26485W        W98811   7.057  22.928  11.136
26486W        W98812  32.943   1.316   4.672
26487W        W98813  34.030  34.626  10.555
26488W        W98814   3.257  16.750  12.105
26489W        W98815  25.593   9.326   2.162
26490W        W98816  31.939  13.559  13.370
26491W        W98817  22.518  18.326  10.949
26492W        W98818  17.334  19.690   1.862
26493W        W98819   3.872  16.694   3.620
26494W        W98820  34.308  18.162   1.882
26495W        W98821  23.030  35.400  11.994
26496W        W98822  32.806  20.606  13.231
26497W        W98823   3.157  38.581  14.404
26498W        W98824  40.006   2.345   1.432
26499W        W98825  41.872  41.590   0.764
26500W        W98826  34.557   7.858   3.422
26501W        W98827  26.150  10.384  13.542
26502W        W98828  23.371  16.258   2.294
26503W        W98829  40.678  41.766   0.301
26504W        W98830   1.307  28.867  12.942
26505W        W98831  36.337  42.769   1.362
26506W        W98832  43.436  25.601   4.837
26507W        W98833  32.658  14.904   1.313
26508W        W98834  20.969  22.258  12.099
26509W        W98835   9.221  11.589   4.545
26510W        W98836  21.777  39.788   1.854
26511W        W98837  10.227   9.955   1.331
26512W        W98838   6.608   7.138  13.556
26513W        W98839  33.471  33.635   0.694
26514W        W98840   9.828   2.905   2.731
26515W        W98841   3.959   6.520   4.724
26516W        W98842  40.490  28.182   0.026
26517W        W98843  37.909  12.655  11.125
26518W        W98844  22.983   3.442  11.653
26519W        W98845  39.345  41.420  14.189
26520W        W98846  25.269  10.678  11.481
26521W        W98847   9.176  10.651  12.101
26522W        W98848   2.869  28.856   0.218
26523W        W98849  11.324  18.062   2.361
26524W        W98850   7.368  43.211  14.445
26525W        W98851   4.731  26.573  10.726
26526W        W98852  13.373  16.591  12.026
26527W        W98853   8.505  14.630  11.429
26528W        W98854  38.598  39.108   3.354
26529W        W98855  28.105  28.868   5.517
26530W        W98856  21.119  35.827   1.307
26531W        W98857  14.176  44.846   2.402
26532W        W98858  17.087  12.959   2.159
26533W        W98859  14.289   3.310  14.776
26534W        W98860  24.089  25.982  13.608
26535W        W98861   0.075  38.854   3.729
26536W        W98862  16.892   0.910   2.788
26537W        W98863  35.615  33.413  13.962
26538W        W98864  14.534  13.745   3.919
26539W        W98865  24.543   2.737  11.169
26540W        W98866  39.489  21.103   0.798
26541W        W98867  16.608   1.396   1.869
26542W        W98868  37.364  24.138  11.163
26543W        W98869  24.177  25.254   1.296
26544W        W98870  34.915  30.567  13.234
26545W        W98871  24.218   5.846  10.920
26546W        W98872  32.986  44.556   1.700
26547W        W98873  38.790  38.800   1.633
26548W        W98874  37.247  35.597  14.383
26549W        W98875   3.786  43.001  11.486
26550W        W98876  13.800  31.994   1.822
26551W        W98877  26.799  29.353  11.584
26552W        W98878  43.080  41.544   1.326
26553W        W98879  11.797   1.394  11.531
26554W        W98880  27.147   6.318   0.756
26555W        W98881  31.905  11.039   2.304
26556W        W98882  33.363  42.328   0.288
26557W        W98883  39.576  28.060   4.572
26558W        W98884  24.205  35.340   0.109
26559W        W98885  42.481  11.882  12.091
26560W        W98886  44.869  24.742  13.317
26561W        W98887  10.742  44.299  11.217
26562W        W98888  15.463  18.087  14.321
26563W        W98889  33.046  34.007   0.046
26564W        W98890  23.438   3.264  12.494
26565W        W98891  28.001   6.752   0.362
26566W        W98892  39.282  10.126  12.490
26567W        W98893   9.941  25.531   1.851
26568W        W98894  33.360  28.828  14.252
26569W        W98895  31.227  14.263   2.320
26570W        W98896  22.248  36.660   3.586
26571W        W98897  26.601  12.501  13.976
26572W        W98898  31.631  11.007  14.496
26573W        W98899  17.525   8.478   2.973
26574W        W98900  13.606  21.134  10.405
26575W        W98901  10.369  16.081  10.427
26576W        W98902  18.256  39.070  13.501
26577W        W98903   1.464  10.276  10.375
26578W        W98904   6.054  30.502   2.209
26579W        W98905  18.999  32.089   2.410
26580W        W98906  39.168  32.088   4.238
26581W        W98907  37.571   9.067   1.103
26582W        W98908  20.283  44.239   1.540
26583W        W98909  23.072   6.446  10.643
26584W        W98910  44.015  24.946   0.709
26585W        W98911  34.428  36.251   1.748
26586W        W98912   7.215  27.520  14.477
26587W        W98913  25.934  39.461   2.230
26588W        W98914   7.692  42.604   1.762
26589W        W98915  10.645  17.323  12.505
26590W        W98916   6.593  14.416   3.241
26591W        W98917  33.414  11.168  11.456
26592W        W98918  44.866   9.638   0.823
26593W        W98919  33.541  13.328  10.696
26594W        W98920  13.744  12.841  12.027
26595W        W98921  17.667  23.666   0.454
26596W        W98922  33.063   1.622  14.394
26597W        W98923  44.479   7.140   2.807
26598W        W98924   9.924  14.690   2.299
26599W        W98925  30.599  25.534   0.981
26600W        W98926  41.903  27.528  10.668
26601W        W98927  12.622   9.201  10.934
26602W        W98928  24.996  34.835  14.630
26603W        W98929  19.120  12.989   1.335
26604W        W98930   4.413   0.369  13.061
26605W        W98931   4.370   4.519  12.764
26606W        W98932  19.109  35.672  11.162
26607W        W98933   8.145  38.606  11.156
26608W        W98934  16.053  26.002   2.187
26609W        W98935  35.782  41.109   0.400
26610W        W98936  40.426  20.233  13.112
26611W        W98937  25.668  40.695   0.813
26612W        W98938  16.910  32.598  12.164
26613W        W98939   3.765  22.528   1.688
26614W        W98940  39.434  33.620   4.729
26615W        W98941  16.741   0.965   0.498
26616W        W98942  22.858  17.597   0.587
26617W        W98943  15.173   5.268  11.649
26618W        W98944  38.547  37.849   4.080
26619W        W98945  18.829  36.830  10.519
26620W        W98946  43.219  36.518   4.212
26621W        W98947  11.918  20.475  13.943
26622W        W98948  11.470  13.704   3.669
26623W        W98949  11.726  24.715  13.158
26624W        W98950  10.808  31.969  14.812
26625W        W98951  39.966  22.443  14.946
26626W        W98952  16.357   9.180   3.066
26627W        W98953  38.597  39.878  13.910
26628W        W98954  21.545  37.421   0.264
26629W        W98955   0.991  32.831   1.962
26630W        W98956  15.684  44.203   1.204
26631W        W98957  29.062  10.918   3.240
26632W        W98958  11.938   6.189   1.665
26633W        W98959   3.439  43.733  13.429
26634W        W98960  34.075  10.580   0.912
26635W        W98961  20.779  10.778  14.585
26636W        W98962  37.328  25.340   3.305
26637W        W98963   9.381   1.212  12.000
26638W        W98964  22.136  34.230  12.499
26639W        W98965  14.054  41.231   0.343
26640W        W98966  10.769  16.913  11.078
26641W        W98967   2.868  18.577   4.619
26642W        W98968  28.872  27.191   0.420
26643W        W98969  39.249  11.150  12.616
26644W        W98970   5.466  21.251  14.968
26645W        W98971  28.886  28.710   5.106
26646W        W98972   1.311  29.902  12.089
26647W        W98973  30.713  31.343   0.923
26648W        W98974  40.953  22.498  14.203
26649W        W98975  43.560  38.596  10.669
26650W        W98976  14.264  20.704  13.037
26651W        W98977  13.593  15.735  11.501
26652W        W98978  15.719  32.115   1.261
26653W        W98979  34.296  33.546   1.338
26654W        W98980  21.272  26.042  10.638
26655W        W98981  30.403  29.006  13.981
26656W        W98982  40.317  22.025   1.277
26657W        W98983  37.299  20.715   2.726
26658W        W98984  37.082  32.524   3.215
26659W        W98985   1.497  13.164  13.039
26660W        W98986   4.805  16.561   0.604
26661W        W98987  19.297  42.394  12.394
26662W        W98988   1.578  11.671   4.330
26663W        W98989  43.201  44.729  14.978
26664W        W98990  15.102  38.532   4.520
26665W        W98991  12.216  31.047  12.095
26666W        W98992  14.756  41.303   1.969
26667W        W98993  32.044  21.542  11.472
26668W        W98994  20.466  28.075  12.679
26669W        W98995  22.689  30.171  11.766
26670W        W98996  23.447  44.742   1.951
26671W        W98997  21.220  13.873   2.658
26672W        W98998  23.122  13.233   1.298
26673W        W98999  21.656  31.631  13.824
26674W        W99000  21.191  34.383   2.181
26675W        W99001  30.771  40.956  14.481
26676W        W99002  36.849  11.915  12.799
26677W        W99003  36.080  27.512  13.401
26678W        W99004   2.979  22.264  11.434
26679W        W99005   5.401   5.484  14.011
26680W        W99006  40.449   7.169  10.539
26681W        W99007  43.740  17.274   2.452
26682W        W99008  13.350  27.622   5.115
26683W        W99009  11.235   2.060   4.626
26684W        W99010  32.854  24.296  13.087
26685W        W99011  36.288   8.233  14.511
26686W        W99012  18.352  41.369   2.306
26687W        W99013  12.284  32.991   3.891
26688W        W99014   4.560  37.959   4.202
26689W        W99015  25.431  41.222  11.132
26690W        W99016   9.705  26.372  12.973
26691W        W99017  18.243  10.550   1.446
26692W        W99018  21.517  23.229   1.816
26693W        W99019  33.610  15.914  11.511
26694W        W99020  13.831  12.122   3.313
26695W        W99021  20.585  11.613  12.872
26696W        W99022  21.229  35.233  12.368
26697W        W99023  20.132  23.084   2.213
26698W        W99024   8.854  42.059  10.579
26699W        W99025  33.899  34.257  10.205
26700W        W99026  29.542   6.321   3.486
26701W        W99027  10.873  28.968  14.491
26702W        W99028  15.341  36.530   1.772
26703W        W99029  23.037  14.297   1.372
26704W        W99030   1.714  37.311   3.189
26705W        W99031  34.559  20.870   4.531
26706W        W99032   6.757  27.764  14.328
26707W        W99033  21.066   1.986   0.473
26708W        W99034  25.123  39.454  11.426
26709W        W99035  11.247  28.137  13.503
26710W        W99036   8.324  25.518   0.718
26711W        W99037  10.363   0.463   3.260
26712W        W99038  16.191  21.577   1.749
26713W        W99039  10.338  20.715   0.372
26714W        W99040  33.418   3.351   0.363
26715W        W99041  15.693  10.802  10.448
26716W        W99042  34.851  35.381   0.899
26717W        W99043   5.325  24.485   1.923
26718W        W99044   8.167  28.226   3.266
26719W        W99045   0.264  14.676   1.865
26720W        W99046  38.930  31.390   3.220
26721W        W99047  14.823  41.426   4.599
26722W        W99048  43.895  18.730  11.466
26723W        W99049  21.618  37.792   1.775
26724W        W99050  34.158  14.734  12.147
26725W        W99051  17.396   4.748   0.190
26726W        W99052   9.085   9.731  13.418
26727W        W99053  10.767  11.180  13.797
26728W        W99054  11.129  20.737  13.941
26729W        W99055  26.878  24.586  12.359
26730W        W99056  24.425   5.358   0.894
26731W        W99057  41.098  10.323   3.597
26732W        W99058  32.461  24.141   1.632
26733W        W99059  32.053  18.331   4.115
26734W        W99060  11.788  44.747  11.866
26735W        W99061  31.822  26.244  11.641
26736W        W99062  37.842   8.562   3.327
26737W        W99063  22.560  33.958  12.015
26738W        W99064  23.493   6.181  12.032
26739W        W99065  14.084   7.244   2.785
26740W        W99066  15.879  31.843   4.115
26741W        W99067  29.077   6.993   1.828
26742W        W99068  41.145   6.257  11.609
26743W        W99069  12.433  16.112  14.682
26744W        W99070  44.985  37.388   0.928
26745W        W99071  32.039  13.330   3.234
26746W        W99072   5.606   5.914   1.825
26747W        W99073   0.781  25.524  14.943
26748W        W99074  28.490  31.898  11.914
26749W        W99075  20.615   1.306   2.197
26750W        W99076  43.501  29.415  13.634
26751W        W99077  20.324   9.927  14.927
26752W        W99078  16.160  42.254  12.366
26753W        W99079  35.706   5.434  13.340
26754W        W99080  41.438  27.307   1.233
26755W        W99081  12.599  32.526  10.417
26756W        W99082  42.983  31.037   1.906
26757W        W99083   1.281   9.683   1.667
26758W        W99084   7.603  28.549   2.442
26759W        W99085   1.130  43.770  13.010
26760W        W99086  32.339  30.090  10.385
26761W        W99087  27.710  27.973   4.133
26762W        W99088  23.695  17.084   0.581
26763W        W99089  29.630  18.297   3.245
26764W        W99090  35.518  10.931   4.133
26765W        W99091   8.273  23.159   3.075
26766W        W99092  18.806  37.063   2.352
26767W        W99093  36.315   8.193   3.716
26768W        W99094   6.646  31.920   3.716
26769W        W99095  39.945   7.256  14.869
26770W        W99096  25.006  39.086  14.487
26771W        W99097  29.678   7.540   3.298
26772W        W99098  28.100  15.547  13.285
26773W        W99099  41.834  10.350  13.581
26774W        W99100  18.547  35.610   4.222
26775W        W99101  37.079  26.699  14.859
26776W        W99102  13.814   5.932  12.806
26777W        W99103  10.680  42.999   3.268
26778W        W99104  27.113  44.348   2.644
26779W        W99105  38.947  17.937   2.107
26780W        W99106  35.143  16.725  10.762
26781W        W99107  10.185  15.009   3.149
26782W        W99108   8.162  25.423   3.264
26783W        W99109  26.238  26.846  14.885
26784W        W99110  34.104  31.892   0.785
26785W        W99111  15.728  32.009  11.851
26786W        W99112  26.474  11.316  13.301
26787W        W99113  28.499   8.501   4.084
26788W        W99114  31.598  20.480   0.234
26789W        W99115  27.578  13.578  14.225
26790W        W99116  24.619  41.991  10.674
26791W        W99117   3.405  20.865  12.275
26792W        W99118  28.091   5.653   0.295
26793W        W99119  24.014  19.395  13.024
26794W        W99120  18.764  12.220  12.509
26795W        W99121  28.567   6.828   3.489
26796W        W99122  44.283  34.156   2.248
26797W        W99123  10.591  39.928   2.711
26798W        W99124  16.552  30.845  12.207
26799W        W99125  37.305  23.639   2.387
26800W        W99126  40.399  40.964  11.181
26801W        W99127  40.187   7.435   3.807
26802W        W99128   4.043  44.963   3.233
26803W        W99129  10.328  29.372   4.278
26804W        W99130   3.101  36.690  10.966
26805W        W99131   2.896  27.027   4.523
26806W        W99132   0.874  13.190  12.460
26807W        W99133   9.091   8.278  14.159
26808W        W99134  13.324  38.799  14.519
26809W        W99135   1.404   9.214   2.472
26810W        W99136  25.646  26.744  10.207
26811W        W99137  35.821  38.228   0.285
26812W        W99138  15.564   7.259   3.580
26813W        W99139  21.616  35.897   4.620
26814W        W99140   3.888   7.261   0.288
26815W        W99141  44.859  10.186   3.725
26816W        W99142   4.995  28.618   2.746
26817W        W99143   7.682   4.981  13.476
26818W        W99144  38.939  12.592  13.280
26819W        W99145  42.526  14.647  13.456
26820W        W99146  40.298  43.326  12.642
26821W        W99147  32.387  28.604  13.476
26822W        W99148  23.774  22.494   2.688
26823W        W99149  34.615  36.866  10.746
26824W        W99150  21.334  29.588  12.009
26825W        W99151   1.355  12.403   4.636
26826W        W99152  38.959  39.805   0.299
26827W        W99153  40.171  35.198   2.885
26828W        W99154  26.427   4.471  12.340
26829W        W99155   8.191  21.960   2.328
26830W        W99156  40.016  44.789  14.306
26831W        W99157  10.412   8.789  11.082
26832W        W99158  20.555  43.938   2.566
26833W        W99159  27.793  23.666   0.429
26834W        W99160  21.594  37.375  13.231
26835W        W99161  32.878  30.946  11.630
26836W        W99162  33.493  21.525   2.960
26837W        W99163  20.732  23.964  13.433
26838W        W99164  39.653  31.912   4.300
26839W        W99165  33.165  14.873  12.489
26840W        W99166  39.511  13.276  13.829
26841W        W99167   4.313  30.744  12.975
26842W        W99168  28.557  16.634  11.976
26843W        W99169  28.264   8.689   4.587
26844W        W99170  44.457   2.168   1.704
26845W        W99171  40.894  44.324  12.906
26846W        W99172  12.585  38.895   3.740
26847W        W99173  37.816  21.728  13.310
26848W        W99174  27.411   2.424  13.355
26849W        W99175  10.722   7.730   0.370
26850W        W99176  10.186  23.269   4.136
26851W        W99177  22.087  44.774   0.106
26852W        W99178  33.860  16.122  10.587
26853W        W99179  23.345  35.864   3.802
26854W        W99180  10.910  34.118  14.354
26855W        W99181   6.356  15.798  12.837
26856W        W99182  19.327  25.530  11.057
26857W        W99183   7.183  32.982   0.812
26858W        W99184  14.560  40.118  13.591
26859W        W99185   5.694  42.679   5.020
26860W        W99186  27.768  34.462  14.815
26861W        W99187  10.936  24.023   2.277
26862W        W99188  32.612  35.088   0.582
26863W        W99189   8.462  15.877  13.413
26864W        W99190  36.868  21.304   4.024
26865W        W99191   7.226  18.659   1.855
26866W        W99192  39.291  41.799   2.422
26867W        W99193  43.775   8.283  12.646
26868W        W99194   1.513  27.642   4.498
26869W        W99195  35.821  35.027  10.652
26870W        W99196  32.986  40.958   4.562
26871W        W99197  26.765  12.142   0.899
26872W        W99198  23.719   0.724   1.686
26873W        W99199  26.416  42.767  13.092
26874W        W99200   9.149  19.208  11.264
26875W        W99201  28.657   4.158  12.926
26876W        W99202  16.814  23.818   2.213
26877W        W99203  24.259  21.253  12.635
26878W        W99204  12.372   1.408   4.056
26879W        W99205  29.734  22.801  13.068
26880W        W99206  12.762  17.017   1.354
26881W        W99207  25.126  32.913  10.692
26882W        W99208  28.589  24.601  13.845
26883W        W99209  44.869  39.232   1.802
26884W        W99210  17.797  40.854   1.753
26885W        W99211   7.339  42.939  12.910
26886W        W99212  44.259  27.995   4.903
26887W        W99213  36.351  40.981   1.680
26888W        W99214   7.691   5.688  14.470
26889W        W99215   8.651   2.887  12.449
26890W        W99216  12.916  39.111  13.962
26891W        W99217   4.426  41.367  10.886
26892W        W99218  28.667  19.608  13.357
26893W        W99219  18.312  11.818  12.823
26894W        W99220  26.646  25.223  11.767
26895W        W99221  34.513  23.612   0.928
26896W        W99222  33.522  39.333  12.093
26897W        W99223  11.472  40.371  11.061
26898W        W99224  25.880   4.957   0.423
26899W        W99225   7.329  31.857   1.300
26900W        W99226  26.448  31.643   1.328
26901W        W99227  18.718  31.166   4.916
26902W        W99228  28.068  42.608  14.675
26903W        W99229  20.540  21.782   1.255
26904W        W99230  40.228   6.262  14.962
26905W        W99231  27.391  14.650  12.948
26906W        W99232  39.367   0.777  14.849
26907W        W99233  30.493   8.683  11.816
26908W        W99234  42.882  11.668   4.799
26909W        W99235   8.359  32.929   2.411
26910W        W99236  27.978  30.552  12.413
26911W        W99237   1.357  39.556  13.261
26912W        W99238  44.348   7.918  11.494
26913W        W99239  39.627  16.301  13.937
26914W        W99240  18.573  10.213   4.301
26915W        W99241  37.987   9.197  11.316
26916W        W99242  10.130  43.094  10.134
26917W        W99243  41.360  24.568   4.165
26918W        W99244  22.705  16.741  12.758
26919W        W99245  37.834  42.277  10.377
26920W        W99246  23.032  30.571   2.840
26921W        W99247   7.158  23.411  11.141
26922W        W99248   3.590   8.980   2.200
26923W        W99249  13.114  44.553   1.916
26924W        W99250  31.941  24.712   2.443
26925W        W99251   6.379   9.332   1.444
26926W        W99252  21.681  35.336  11.558
26927W        W99253  21.744  19.660  11.616
26928W        W99254  29.890  17.967  10.657
26929W        W99255  20.818  37.793  11.136
26930W        W99256  22.555  44.695  13.454
26931W        W99257   1.670  42.706  14.803
26932W        W99258  19.595   3.559   1.888
26933W        W99259  16.234   2.184   3.117
26934W        W99260  40.624   9.722  11.949
26935W        W99261  15.082  21.603  11.512
26936W        W99262  34.240  39.099  14.078
26937W        W99263  21.728  26.759   0.791
26938W        W99264  38.901  43.979   9.829
26939W        W99265  42.532  23.747  10.999
26940W        W99266   8.613   0.323   4.613
26941W        W99267  17.842   1.949   1.765
26942W        W99268  36.135  20.849   1.811
26943W        W99269  38.059  12.349  13.093
26944W        W99270  11.765   6.446  13.297
26945W        W99271  12.197  39.656  14.954
26946W        W99272  44.391  10.541   1.766
26947W        W99273  38.452   9.273  11.069
26948W        W99274  34.923  43.715   2.270
26949W        W99275  24.165  38.658  10.868
26950W        W99276  22.035  25.429  13.951
26951W        W99277  22.005  29.702  14.800
26952W        W99278  43.713  39.416  13.020
26953W        W99279  32.610   8.426   1.275
26954W        W99280  10.433  31.569   0.715
26955W        W99281   1.023  28.938   0.075
26956W        W99282   0.252   4.436  11.608
26957W        W99283   7.905  39.033   2.724
26958W        W99284  40.024  38.331   0.889
26959W        W99285  42.562  23.541  11.911
26960W        W99286  27.669  27.513  12.876
26961W        W99287   0.996  16.898  14.246
26962W        W99288   8.913  37.452   1.209
26963W        W99289  23.046  13.177  14.764
26964W        W99290  13.828  37.605  14.797
26965W        W99291  28.740   6.144   3.786
26966W        W99292   2.470  21.032   0.281
26967W        W99293  31.868  37.282  13.549
26968W        W99294   2.882  12.771   0.210
26969W        W99295  41.867  14.809   2.493
26970W        W99296  24.959  26.157   1.299
26971W        W99297   2.572   3.241   0.872
26972W        W99298  18.140   1.445  11.865
26973W        W99299   2.406   9.663   4.169
26974W        W99300   7.399  36.609   3.121
26975W        W99301  28.505  36.102  10.717
26976W        W99302  22.904   6.642   4.245
26977W        W99303   4.376  30.179  14.020
26978W        W99304  31.051  37.947   1.215
26979W        W99305  32.838  28.328  13.368
26980W        W99306  16.409  13.217  11.692
26981W        W99307  15.153  35.093   3.237
26982W        W99308  38.078  25.682  12.600
26983W        W99309  35.336  26.205  12.053
26984W        W99310  17.582  30.206   1.777
26985W        W99311  22.305  23.407  14.936
26986W        W99312   6.737   0.802  10.865
26987W        W99313  42.264  37.493  10.767
26988W        W99314  32.691  35.806  13.382
26989W        W99315  16.143  14.555  12.859
26990W        W99316  12.557  31.573   1.758
26991W        W99317  18.502  42.246   4.272
26992W        W99318  37.015  44.055  13.409
26993W        W99319  32.386  35.901  12.028
26994W        W99320  26.441  10.461   1.864
26995W        W99321  34.858  11.574  13.799
26996W        W99322  43.386  20.286   0.013
26997W        W99323  12.417  36.356  12.005
26998W        W99324  35.882  41.041   1.898
26999W        W99325  38.522  21.193  10.306
27000W        W99326   8.228  15.834  11.159
27001W        W99327  34.273  31.192  10.668
27002W        W99328  21.240  36.083   1.749
27003W        W99329  21.505   1.302  14.572
27004W        W99330   3.663  12.338   1.753
27005W        W99331   7.279  20.654  11.083
27006W        W99332  11.896  15.069  13.897
27007W        W99333  26.554  27.066   1.696
27008W        W99334  41.811  17.838  12.839
27009W        W99335   7.868  31.782  14.653
27010W        W99336  27.691   4.781   3.976
27011W        W99337  38.512   0.890  10.769
27012W        W99338  21.610  33.635  12.113
27013W        W99339   9.323  36.094  14.448
27014W        W99340  14.645  43.713   4.715
27015W        W99341  20.789  26.603   4.510
27016W        W99342  14.766  42.097  14.003
27017W        W99343  26.761   5.427  10.746
27018W        W99344  44.823  30.682   0.381
27019W        W99345  21.125  42.376   2.677
27020W        W99346  20.452   8.288   4.768
27021W        W99347  32.833  39.414   1.315
27022W        W99348  25.917  30.541   3.612
27023W        W99349  36.397   0.851  14.283
27024W        W99350  33.214  15.370   0.967
27025W        W99351  18.606  34.424  13.167
27026W        W99352  16.284  36.298  13.858
27027W        W99353   7.693  17.543   1.837
27028W        W99354  39.353  36.863   2.314
27029W        W99355   9.893  32.951   2.139
27030W        W99356  15.811   8.834  13.824
27031W        W99357   3.900  36.157  10.558
27032W        W99358  37.798  16.830   1.874
27033W        W99359  38.733  35.395  13.274
27034W        W99360  14.664  38.291   2.820
27035W        W99361  28.154  24.101  14.261
27036W        W99362  38.270  40.998   3.598
27037W        W99363  21.758  35.108  14.181
27038W        W99364  37.088   9.432  14.320
27039W        W99365   7.661  11.152  10.726
27040W        W99366  33.379  44.301   3.823
27041W        W99367  11.688  33.391  14.883
27042W        W99368   0.712   1.978   3.644
27043W        W99369  12.288  32.423   2.660
27044W        W99370  20.027  35.873  13.817
27045W        W99371  38.021   0.229   2.644
27046W        W99372   6.235  12.617  13.922
27047W        W99373  17.785  11.390  11.131
27048W        W99374   8.732  18.520   4.526
27049W        W99375   9.105  31.364   4.480
27050W        W99376  37.791  17.308   1.360
27051W        W99377  23.159   9.711  14.847
27052W        W99378  25.186   3.431  12.088
27053W        W99379  42.274  36.336   0.922
27054W        W99380  38.824   8.766   0.857
27055W        W99381  39.291  25.516  14.532
27056W        W99382  24.185  29.142  12.079
27057W        W99383  29.229  27.956   2.757
27058W        W99384   7.254  11.961   0.309
27059W        W99385  43.281  18.687  12.024
27060W        W99386  12.943   4.396   0.961
27061W        W99387   0.695   6.665  12.898
27062W        W99388  40.312   4.848   4.104
27063W        W99389  22.781  41.333  11.119
27064W        W99390   2.254  22.920  11.256
27065W        W99391  26.035  22.883   3.193
27066W        W99392   2.300  18.105   3.877
27067W        W99393  10.063  30.961  14.851
27068W        W99394   7.000  20.613   1.431
27069W        W99395  20.688  11.189   1.363
27070W        W99396  13.653  12.113   1.896
27071W        W99397   9.161  19.597  14.473
27072W        W99398  14.635   3.256  13.018
27073W        W99399  12.122  35.571  11.947
27074W        W99400   4.935  41.752   2.146
27075W        W99401  20.688  10.687   4.474
27076W        W99402  32.759  36.124   4.270
27077W        W99403   8.682  29.660  11.433
27078W        W99404  13.308  28.411   1.866
27079W        W99405  40.770  31.593  11.953
27080W        W99406   9.441  44.465  14.854
27081W        W99407  25.319   5.396  11.529
27082W        W99408  19.385  40.000  13.530
27083W        W99409  31.549   3.626   3.572
27084W        W99410  41.110  23.699  12.393
27085W        W99411  12.763   4.306  11.856
27086W        W99412  22.233  28.940  14.328
27087W        W99413  17.161   5.970   2.743
27088W        W99414  22.040  17.279  13.152
27089W        W99415  35.376   0.030  13.034
27090W        W99416   7.783   1.740  14.822
27091W        W99417  28.568  42.968   1.775
27092W        W99418   9.387  32.688   0.400
27093W        W99419   9.330  12.725  10.405
27094W        W99420  31.452  34.776  14.807
27095W        W99421  41.251   9.117   0.892
27096W        W99422   9.766  43.972   3.165
27097W        W99423  17.145  16.631   1.834
27098W        W99424  36.197  18.083  13.982
27099W        W99425  27.532  33.132   1.452
27100W        W99426  32.560  36.155  14.501
27101W        W99427  37.322   3.755   2.414
27102W        W99428   1.766  33.355  13.036
27103W        W99429  20.767   2.268   1.442
27104W        W99430  20.762  27.119  14.283
27105W        W99431   1.419  22.171  13.987
27106W        W99432  21.696   8.747   4.600
27107W        W99433  40.283  22.985  12.047
27108W        W99434  14.542  20.009   4.092
27109W        W99435  35.965  20.642  14.160
27110W        W99436  31.062  36.379  14.540
27111W        W99437  31.722   2.344  12.820
27112W        W99438  27.994  27.679  12.513
27113W        W99439   0.846   6.102   2.453
27114W        W99440  22.569  13.391   4.552
27115W        W99441  35.993  42.267  11.079
27116W        W99442  31.572  42.054   3.764
27117W        W99443  32.597   7.745  11.914
27118W        W99444  20.030  28.133   3.662
27119W        W99445  25.121  11.174  12.426
27120W        W99446  12.288  37.086  13.188
27121W        W99447  16.183  13.828   2.681
27122W        W99448   0.658  41.882   0.505
27123W        W99449  27.162  16.469  12.966
27124W        W99450  15.354   3.994  14.870
27125W        W99451  23.184  22.041  13.638
27126W        W99452  44.238  36.296   0.806
27127W        W99453  25.951  34.404  13.417
27128W        W99454  35.427  10.283  10.680
27129W        W99455  17.815  41.057   0.306
27130W        W99456  34.282  35.599  14.824
27131W        W99457  25.036   1.501  11.154
27132W        W99458  25.029  34.845   3.834
27133W        W99459   3.296  42.771  10.750
27134W        W99460  12.464  34.471  13.790
27135W        W99461   5.437  20.817  10.723
27136W        W99462  13.939  11.184  14.301
27137W        W99463  10.430  30.979  13.917
27138W        W99464  34.663  31.508   0.409
27139W        W99465  32.039  23.540   1.957
27140W        W99466  39.004  10.654   2.251
27141W        W99467  41.751  40.359   0.267
27142W        W99468   3.189  33.928   4.186
27143W        W99469  33.289  31.147   1.791
27144W        W99470  26.535  21.761   2.657
27145W        W99471  10.187  10.276  10.965
27146W        W99472   5.317   5.354  14.993
27147W        W99473  10.815  20.915   0.251
27148W        W99474  41.840  15.322   4.185
27149W        W99475  21.634  43.235  10.700
27150W        W99476  29.584  17.460   2.872
27151W        W99477  11.282  18.611   4.641
27152W        W99478  18.697  29.355  10.634
27153W        W99479  34.999  25.717  14.125
27154W        W99480  27.960  11.682   4.482
27155W        W99481  34.526  23.987  14.719
27156W        W99482  35.063  18.064   1.298
27157W        W99483  29.525   3.898  14.497
27158W        W99484  17.099   5.833  11.644
27159W        W99485  13.527  29.176  12.069
27160W        W99486  44.822  12.229  10.386
27161W        W99487  28.417  14.734  12.950
27162W        W99488   5.373   9.714  14.425
27163W        W99489  26.567  18.866  12.497
27164W        W99490   6.566  21.711  10.730
27165W        W99491   1.047  21.006  13.256
27166W        W99492  34.144  26.138   4.987
27167W        W99493  24.293   4.829  12.512
27168W        W99494  30.402  44.265   4.668
27169W        W99495  41.854  33.895  13.416
27170W        W99496  27.990  41.798  13.484
27171W        W99497  40.082  17.252  10.637
27172W        W99498  37.649   7.985  11.555
27173W        W99499  17.926  19.578   4.172
27174W        W99500  19.767  39.424  14.186
27175W        W99501  38.325  19.023   4.622
27176W        W99502  23.749  30.044  14.782
27177W        W99503   4.639   2.121   2.304
27178W        W99504  38.867  38.619   3.465
27179W        W99505   5.294  28.588  11.122
27180W        W99506  21.089  15.127  10.718
27181W        W99507  37.095  40.057  11.982
27182W        W99508   3.559   5.251  13.648
27183W        W99509  28.031  23.626  14.069
27184W        W99510  17.369  35.554  14.939
27185W        W99511   9.767  39.466   3.833
27186W        W99512  22.173   1.482   3.765
27187W        W99513  39.722  42.752   4.713
27188W        W99514  36.689   9.848  14.466
27189W        W99515  41.330  36.438   4.557
27190W        W99516  28.116  33.982  13.471
27191W        W99517  27.749  11.164  13.768
27192W        W99518   6.288  12.812   3.176
27193W        W99519  23.943  37.058  13.735
27194W        W99520   9.162  41.363  14.585
27195W        W99521  26.212  39.899   2.210
27196W        W99522  30.048  39.057   1.766
27197W        W99523  25.398  40.393   4.978
27198W        W99524  43.896   5.395  10.559
27199W        W99525   5.931  41.808  13.994
27200W        W99526  11.440  27.086   5.460
27201W        W99527  13.579  20.008   1.434
27202W        W99528  36.014  43.766  12.944
27203W        W99529  12.370  40.979   0.730
27204W        W99530  41.126  33.852  14.986
27205W        W99531  42.514  36.004  13.348
27206W        W99532  15.370  28.732   1.718
27207W        W99533   7.861  28.950   1.909
27208W        W99534   8.948  33.941   1.642
27209W        W99535  11.767  33.506   4.169
27210W        W99536  16.861  40.223  11.976
27211W        W99537  16.261  32.261   4.218
27212W        W99538  38.491   7.133   0.457
27213W        W99539  19.717  22.551  12.612
27214W        W99540  25.893  10.397   0.832
27215W        W99541  27.055  29.812   3.815
27216W        W99542  28.568  38.532   0.383
27217W        W99543  41.461  44.794  13.485
27218W        W99544  37.823   5.806  12.990
27219W        W99545  31.900  15.781  13.192
27220W        W99546   5.170  35.799   0.846
27221W        W99547  31.642   4.600  10.705
27222W        W99548  23.655  43.410  14.427
27223W        W99549  20.169  18.782  11.367
27224W        W99550  39.825  12.173  13.672
27225W        W99551  14.124  11.909   2.230
27226W        W99552   3.465  21.660  10.245
27227W        W99553  25.522  24.581   1.046
27228W        W99554  27.153  34.784  11.875
27229W        W99555  26.027  25.933  13.145
27230W        W99556  37.637  34.404  11.608
27231W        W99557  16.222   8.484  11.570
27232W        W99558  26.964  41.516  13.181
27233W        W99559  42.307  35.982   1.699
27234W        W99560   1.384  18.312  14.397
27235W        W99561  10.146  16.862   2.764
27236W        W99562   2.141  25.027  14.213
27237W        W99563  14.190   1.529   3.935
27238W        W99564  40.351  23.475   1.382
27239W        W99565   3.683  34.510   3.665
27240W        W99566  40.933  24.749  10.992
27241W        W99567  33.187   9.400  11.947
27242W        W99568  40.455  16.287  12.817
27243W        W99569  42.818  18.623  14.019
27244W        W99570  25.723   8.347  10.627
27245W        W99571   3.462  44.519  11.519
27246W        W99572  13.593   4.898   4.175
27247W        W99573  27.483  25.303   3.161
27248W        W99574  28.124  24.506   2.283
27249W        W99575  32.997  26.105  13.422
27250W        W99576   8.200   7.862   3.571
27251W        W99577  11.124  35.655   5.651
27252W        W99578  15.743  43.752   4.056
27253W        W99579   3.716  17.126   1.008
27254W        W99580  10.821   2.349   0.314
27255W        W99581   3.282  41.947   0.941
27256W        W99582  32.789   1.515  10.817
27257W        W99583  13.417  17.713  12.232
27258W        W99584  41.524  40.849  11.455
27259W        W99585  29.935  16.716   4.373
27260W        W99586   5.819  22.282  10.564
27261W        W99587   3.782  25.001  14.529
27262W        W99588  38.117   9.418  12.282
27263W        W99589  13.269   1.748  13.604
27264W        W99590  22.411   5.251  13.083
27265W        W99591  23.148  31.398  13.763
27266W        W99592   2.680  23.459   4.996
27267W        W99593   3.802  15.616   3.835
27268W        W99594   4.707   1.223   1.307
27269W        W99595  30.591   4.487  14.401
27270W        W99596  17.292  28.537  11.879
27271W        W99597   5.027   8.860  10.612
27272W        W99598  10.549  16.384   2.350
27273W        W99599  42.043  18.398   3.982
27274W        W99600  24.277  15.167  10.756
27275W        W99601  21.710  40.459  12.548
27276W        W99602  39.380  32.045  11.186
27277W        W99603  11.703  37.562  11.536
27278W        W99604  10.797  34.820  11.931
27279W        W99605  18.582   5.423   0.223
27280W        W99606  17.129  11.147  11.568
27281W        W99607  31.056  17.478  13.663
27282W        W99608   6.874  18.217   0.717
27283W        W99609   1.346  31.952   0.818
27284W        W99610   6.930  11.805   4.661
27285W        W99611   2.852  15.222  11.074
27286W        W99612  42.907  20.461   4.118
27287W        W99613  11.411  30.320   2.378
27288W        W99614  10.925  11.348   4.281
27289W        W99615  36.903  16.985  12.575
27290W        W99616   8.794  42.469  13.285
27291W        W99617  42.065  35.025   0.237
27292W        W99618  22.700  19.197  11.968
27293W        W99619  39.429  33.326  11.149
27294W        W99620  13.910  18.804  11.553
27295W        W99621   4.888  15.745  14.711
27296W        W99622  26.998  27.248  14.438
27297W        W99623  25.795   8.682   5.421
27298W        W99624  17.972  42.298  11.926
27299W        W99625   2.914  26.599  14.936
27300W        W99626  40.755   1.187  12.848
27301W        W99627  12.160  19.453   3.291
27302W        W99628   9.889   2.443   0.784
27303W        W99629  38.007   7.364   2.616
27304W        W99630   8.257   5.671   2.643
27305W        W99631  14.180   8.370   1.091
27306W        W99632   7.965   8.206  11.086
27307W        W99633  42.790  14.877  13.887
27308W        W99634  36.173  36.433  10.712
27309W        W99635  23.951   8.621   2.209
27310W        W99636  23.946   8.641  13.800
27311W        W99637  25.694  43.397   0.319
27312W        W99638   3.201  11.506   3.251
27313W        W99639  30.921  13.837   4.296
27314W        W99640  37.383  32.403   1.780
27315W        W99641  15.137  22.708   3.673
27316W        W99642  43.573  15.156  11.502
27317W        W99643  42.468  26.655   3.117
27318W        W99644  21.052  28.571   2.871
27319W        W99645  37.438  41.375   4.167
27320W        W99646  10.272  25.872  13.362
27321W        W99647  24.673  27.891  12.098
27322W        W99648  16.793  44.790   0.873
27323W        W99649  41.239   0.212   1.659
27324W        W99650  37.380  41.091   4.595
27325W        W99651  24.081  37.592   5.123
27326W        W99652  13.623  40.925  11.438
27327W        W99653  33.003  25.965  11.061
27328W        W99654  13.359  21.995   0.356
27329W        W99655  42.696  29.544  14.776
27330W        W99656   5.519  26.889   2.784
27331W        W99657  41.018  35.286  12.797
27332W        W99658  13.416  12.905   0.726
27333W        W99659  33.867  38.431   3.271
27334W        W99660  29.697  17.282  14.859
27335W        W99661  43.367   0.457  14.393
27336W        W99662   8.368  18.069  14.883
27337W        W99663  37.430  18.828  12.124
27338W        W99664  26.163  22.416  14.931
27339W        W99665  41.851  14.266   4.264
27340W        W99666  12.030  14.599   4.640
27341W        W99667  19.756  28.715  11.317
27342W        W99668  25.656  27.104  12.566
27343W        W99669  36.415  43.202   4.962
27344W        W99670  13.718   5.232   0.781
27345W        W99671  19.419  29.905   2.082
27346W        W99672  37.411   9.577   2.453
27347W        W99673  27.426  24.072   3.724
27348W        W99674   8.743   1.768  13.677
27349W        W99675  20.438  22.585   1.781
27350W        W99676   5.447  19.375  12.352
27351W        W99677  39.432   4.769   2.584
27352W        W99678  21.136  31.882  12.129
27353W        W99679  35.145  32.389  11.615
27354W        W99680   4.375  15.563   3.154
27355W        W99681  18.910  36.344   4.460
27356W        W99682   2.318  19.995   4.637
27357W        W99683  34.164  24.034   2.279
27358W        W99684  43.377  15.387   0.974
27359W        W99685  20.288  31.935  12.545
27360W        W99686  34.486  11.632  11.192
27361W        W99687  19.764   1.353  14.499
27362W        W99688  38.222  10.169   1.453
27363W        W99689   1.343   7.693   0.029
27364W        W99690  20.465  40.442  13.781
27365W        W99691  33.935  39.354   3.935
27366W        W99692  32.637   4.776   1.339
27367W        W99693  17.603  14.741   2.896
27368W        W99694   9.776   7.858  14.451
27369W        W99695  18.450  32.188  10.837
27370W        W99696  36.979  39.196  11.751
27371W        W99697  15.266  29.510  14.833
27372W        W99698  12.768  16.325   4.793
27373W        W99699  31.966  16.052   3.777
27374W        W99700  26.048  31.538  14.071
27375W        W99701  39.311   4.048  12.603
27376W        W99702  11.334  32.669   1.189
27377W        W99703  28.726  27.947   4.084
27378W        W99704  29.419  41.804   3.314
27379W        W99705  20.172  38.832  12.547
27380W        W99706  26.036  31.992   2.877
27381W        W99707  37.438  43.798  13.576
27382W        W99708   5.101  42.322  14.905
27383W        W99709   8.938  20.490  14.011
27384W        W99710   5.960  28.464  12.013
27385W        W99711  14.630  10.904   1.173
27386W        W99712  32.404   7.292  12.078
27387W        W99713  12.610  11.029   4.884
27388W        W99714  25.764  28.722  13.986
27389W        W99715   5.391  15.659   0.456
27390W        W99716   9.978   2.173   4.141
27391W        W99717  44.389  38.540  13.324
27392W        W99718  26.513  21.631  10.711
27393W        W99719   1.854  27.689   4.128
27394W        W99720   9.319  34.636   4.571
27395W        W99721  33.668  19.138   3.079
27396W        W99722  28.208  32.260  12.203
27397W        W99723  33.718   8.125  14.426
27398W        W99724  38.094  33.981   4.100
27399W        W99725   0.339  36.057  10.906
27400W        W99726  23.459  30.059   3.416
27401W        W99727  14.357  41.897   4.164
27402W        W99728  26.576  38.307   2.678
27403W        W99729  33.632  11.047  13.802
27404W        W99730  36.629  20.522   1.810
27405W        W99731  39.238  25.448   0.031
27406W        W99732  11.252  38.177  12.959
27407W        W99733  24.726  26.122   3.256
27408W        W99734   5.909  37.335  14.523
27409W        W99735  35.125  12.278  10.894
27410W        W99736  44.270  11.345  14.779
27411W        W99737  23.256  39.552  11.106
27412W        W99738  14.271   0.365   3.208
27413W        W99739  22.517   1.896   1.677
27414W        W99740  12.233  30.900   4.196
27415W        W99741   2.734   8.298   4.312
27416W        W99742  36.892  35.585   2.720
27417W        W99743  41.590  30.758  12.547
27418W        W99744  11.518  15.166   3.996
27419W        W99745  33.188  20.262   0.681
27420W        W99746  30.772  32.369  14.766
27421W        W99747  37.618   5.985   2.635
27422W        W99748  38.490  25.420   3.272
27423W        W99749  10.420  16.509   3.788
27424W        W99750  23.459  31.306   2.431
27425W        W99751  33.890  30.560  12.896
27426W        W99752  26.471  16.311   1.329
27427W        W99753  21.090  11.414  12.857
27428W        W99754  22.863   8.295   0.403
27429W        W99755  32.051  14.185   2.721
27430W        W99756  36.047  17.192   3.631
27431W        W99757  28.938  38.287   4.156
27432W        W99758   5.427  11.838  11.606
27433W        W99759  43.688  38.419   0.441
27434W        W99760  29.555  25.002  14.924
27435W        W99761  44.240  28.688  14.984
27436W        W99762   1.001  26.110  10.798
27437W        W99763   1.871  18.757  12.024
27438W        W99764  34.629  28.561  13.173
27439W        W99765  12.809  31.981   2.718
27440W        W99766  17.548  15.577  11.202
27441W        W99767  25.195  25.012  12.698
27442W        W99768   4.795   0.242  14.851
27443W        W99769  44.421   1.832  12.365
27444W        W99770  19.495  16.789   3.755
27445W        W99771   8.684  23.150   0.446
27446W        W99772  21.525  21.789   2.758
27447W        W99773  31.091   8.196   1.264
27448W        W99774   7.378  11.882   4.402
27449W        W99775  23.182   0.460   2.207
27450W        W99776  29.070   1.986  10.943
27451W        W99777  16.589  23.191   4.819
27452W        W99778  16.094  24.106  11.222
27453W        W99779  21.786  30.940  14.543
27454W        W99780  35.556  32.401   9.817
27455W        W99781  20.151   8.266  10.243
27456W        W99782  26.316  10.271   4.645
27457W        W99783  15.273  29.740  12.533
27458W        W99784   6.778  25.388  14.875
27459W        W99785   8.334  14.376   4.364
27460W        W99786  39.953   5.737   4.546
27461W        W99787  37.499  22.808  14.870
27462W        W99788  26.775   4.236   1.261
27463W        W99789  41.249  12.733   4.523
27464W        W99790   7.090  26.892  10.069
27465W        W99791  13.282  24.999   3.896
27466W        W99792  31.602  35.550   4.614
27467W        W99793  39.614   8.747  13.919
27468W        W99794   9.610  43.497   3.261
27469W        W99795   3.232   8.860   4.456
27470W        W99796  10.628  29.740  14.367
27471W        W99797   7.158  35.054   3.795
27472W        W99798  41.056   0.402  10.626
27473W        W99799  35.145   7.855  12.447
27474W        W99800  14.071  29.087  13.045
27475W        W99801  39.906  38.856   3.024
27476W        W99802  35.008  24.168  14.735
27477W        W99803  32.073   1.774   0.781
27478W        W99804  25.132  36.044  13.000
27479W        W99805  21.166   7.770   0.889
27480W        W99806  16.378  24.597   1.290
27481W        W99807   3.028   0.262  12.972
27482W        W99808   9.792  24.457  14.938
27483W        W99809  25.076   6.649   1.373
27484W        W99810  15.894  13.145  11.624
27485W        W99811  22.530  18.819   1.701
27486W        W99812  11.152   1.948  10.709
27487W        W99813  42.523  32.184   2.353
27488W        W99814  10.148  35.503   4.266
27489W        W99815  25.082  19.322  10.621
27490W        W99816  40.125  25.014   2.351
27491W        W99817  29.696   4.705   4.171
27492W        W99818   2.172  36.038   3.679
27493W        W99819  23.565  41.523   1.169
27494W        W99820  40.825  13.873   4.250
27495W        W99821  40.720  23.177   1.660
27496W        W99822  15.656  18.126   1.849
27497W        W99823  28.280  19.206  10.955
27498W        W99824  17.244  36.032  13.754
27499W        W99825  10.140  38.370   4.717
27500W        W99826   3.256  30.471  12.164
27501W        W99827  40.096  39.877  14.944
27502W        W99828  42.952   2.348   3.081
27503W        W99829  27.047  36.599   3.602
27504W        W99830  41.930  42.445   1.884
27505W        W99831  15.823  30.187  13.184
27506W        W99832   7.146  36.085   0.458
27507W        W99833  29.962  37.367  11.975
27508W        W99834  21.455  44.577   4.783
27509W        W99835  15.538  43.150  10.130
27510W        W99836  10.745  11.071   4.679
27511W        W99837  14.221   8.870   1.248
27512W        W99838  35.105  22.480   3.242
27513W        W99839   7.220  41.514   3.753
27514W        W99840   2.261   3.028  10.189
27515W        W99841   1.378   5.827  11.140
27516W        W99842   7.811   3.961   2.721
27517W        W99843  18.205  44.808  10.750
27518W        W99844  36.226  40.180  11.599
27519W        W99845  38.576  14.232   3.521
27520W        W99846  32.146   0.117   0.781
27521W        W99847  33.997  16.489   0.234
27522W        W99848   4.809  33.619  11.505
27523W        W99849  15.060  12.109  12.560
27524W        W99850  42.163  12.263   0.319
27525W        W99851   1.423  24.977   2.732
27526W        W99852  17.875  10.191   0.216
27527W        W99853  17.177  11.595   3.113
27528W        W99854  30.443  14.600   4.337
27529W        W99855   0.834  29.929   1.232
27530W        W99856  29.383   2.272   0.324
27531W        W99857  42.997  16.717  11.949
27532W        W99858  13.568  14.842  13.483
27533W        W99859   0.946  25.307  11.478
27534W        W99860  44.818  36.309  12.091
27535W        W99861  33.566  42.530  12.965
27536W        W99862  34.947  25.317   2.101
27537W        W99863   9.348  22.112  10.514
27538W        W99864  25.035  37.132   0.289
27539W        W99865  32.409   1.015  12.688
27540W        W99866  32.700  20.285   0.792
27541W        W99867   5.205  16.021   3.553
27542W        W99868  26.634  42.151  11.103
27543W        W99869  10.292  12.974  10.749
27544W        W99870  15.360  28.446   0.883
27545W        W99871  10.132  40.455   4.076
27546W        W99872  31.997  31.170   1.460
27547W        W99873  25.638   3.330   9.950
27548W        W99874  18.772  15.584  11.741
27549W        W99875   5.347   9.981  11.131
27550W        W99876  19.731  24.399   4.096
27551W        W99877  22.212  39.660  13.557
27552W        W99878   6.089  33.102   4.884
27553W        W99879  11.859  40.729  10.635
27554W        W99880  22.373   9.632   1.254
27555W        W99881   3.518   0.739   4.105
27556W        W99882  22.334  22.955  13.911
27557W        W99883  16.288   9.159   4.060
27558W        W99884  42.782   1.852  10.777
27559W        W99885  16.729  34.484   3.632
27560W        W99886  40.881  29.400   4.119
27561W        W99887  15.618  13.546   2.460
27562W        W99888  18.179  29.697   1.322
27563W        W99889  40.772   1.504   0.985
27564W        W99890  40.329  10.165   1.436
27565W        W99891  14.406  25.661   3.709
27566W        W99892  17.661  11.702   1.283
27567W        W99893  34.354  36.022  14.059
27568W        W99894  17.244  22.957   3.640
27569W        W99895  27.772   7.891   3.130
27570W        W99896  13.967  36.316   9.753
27571W        W99897  18.324  10.493   1.974
27572W        W99898  37.316  27.898   0.499
27573W        W99899  37.342  24.816   3.262
27574W        W99900  11.216   5.258  11.153
27575W        W99901  20.072   3.518  10.883
27576W        W99902  41.954  14.590  14.900
27577W        W99903  36.982  23.784   4.181
27578W        W99904  36.036  17.570  12.000
27579W        W99905  22.209  31.389   0.453
27580W        W99906  18.659   2.503   2.307
27581W        W99907  23.020  34.801  13.478
27582W        W99908  39.289  24.796  13.882
27583W        W99909  41.048  38.618   3.635
27584W        W99910  13.659  43.344  14.308
27585W        W99911  32.378  44.364   4.762
27586W        W99912  36.031   5.307  13.712
27587W        W99913  16.785  32.555   0.466
27588W        W99914  35.905  25.230  13.960
27589W        W99915  25.627  36.452   1.335
27590W        W99916  26.665  11.941  11.060
27591W        W99917  18.131  35.319   3.314
27592W        W99918   1.665  43.949   1.527
27593W        W99919  20.734   8.465   4.378
27594W        W99920  15.095  34.387  13.534
27595W        W99921  39.226  39.569   2.293
27596W        W99922  18.663  40.614  13.937
27597W        W99923  22.464  30.483  10.173
27598W        W99924  20.117  42.461  11.912
27599W        W99925   7.423  31.189   4.634
27600W        W99926   7.289  35.407  14.538
27601W        W99927  14.386  11.737  11.060
27602W        W99928  10.804  35.705  10.632
27603W        W99929   5.298   3.882  10.730
27604W        W99930   0.485  23.530   3.217
27605W        W99931   7.714  44.544   3.626
27606W        W99932   4.304   0.910  10.808
27607W        W99933  10.833  27.109   4.831
27608W        W99934   4.833   3.521  12.103
27609W        W99935  30.964  18.813   3.552
27610W        W99936  23.746   3.486  12.126
27611W        W99937  33.046  21.200   0.042
27612W        W99938  16.703  18.555   3.646
27613W        W99939  38.972  21.551  12.457
27614W        W99940  11.113  44.736  11.201
27615W        W99941  13.960  19.589   3.359
27616W        W99942   5.363   1.922   4.402
27617W        W99943  17.575  29.266  12.916
27618W        W99944   3.101   4.742   5.533
27619W        W99945  12.505  33.615  13.912
27620W        W99946  23.388  16.632  13.374
27621W        W99947  32.387  26.939  11.700
27622W        W99948  23.810  12.938   0.804
27623W        W99949   8.722  30.084  11.117
27624W        W99950  40.584   0.932  11.588
27625W        W99951  34.624  35.916   3.738
27626W        W99952  21.530   2.616   1.524
27627W        W99953  18.586  23.933  14.666
27628W        W99954  12.662  34.719  13.372
27629W        W99955   8.602  36.857  12.371
27630W        W99956  22.715  19.630   4.622
27631W        W99957  13.167  15.270  14.332
27632W        W99958   8.591   5.266  13.811
27633W        W99959  39.834  25.566   4.143
27634W        W99960  14.092  28.190   1.416
27635W        W99961  13.426  38.454  10.342
27636W        W99962   5.843  40.538  13.466
27637W        W99963  14.459  33.618  12.073
27638W        W99964  30.462  31.888   4.245
27639W        W99965  23.222  18.298  12.848
27640W        W99966   1.436   6.945   0.777
27641W        W99967  23.473   8.649  14.022
27642W        W99968   9.465  38.951  10.817
27643W        W99969   2.612   7.813   1.477
27644W        W99970  41.111   9.812   4.117
27645W        W99971   9.816  27.441  11.201
27646W        W99972  39.111  21.044  12.486
27647W        W99973  41.556  27.525   2.567
27648W        W99974  10.782  28.807  11.221
27649W        W99975   9.850  21.658   0.215
27650W        W99976   6.106   7.943  11.197
27651W        W99977  44.944   6.083  12.088
27652W        W99978  43.382  44.540  11.745
27653W        W99979  21.368  13.035   2.332
27654W        W99980  42.407  42.074   3.843
27655W        W99981  22.162  28.143   3.787
27656W        W99982  41.564  28.914   4.545
27657W        W99983  27.457  20.249  13.071
27658W        W99984  30.688  26.689   2.606
27659W        W99985  31.059  13.719   0.388
27660W        W99986   7.718  20.856  14.493
27661W        W99987  33.824  25.460  13.473
27662W        W99988   7.100   9.047   1.770
27663W        W99989  20.719  26.633  12.902
27664W        W99990  26.945  12.265  13.367
27665W        W99991  15.662  25.664   0.818
27666W        W99992   2.961  23.129   3.390
27667W        W99993  32.025  42.822   2.762
27668W        W99994  41.059  38.547  10.519
27669W        W99995  14.318   4.963   0.363
27670W        W99996  26.150  26.223  11.954
27671W        W99997  33.586   7.528   3.743
27672W        W99998  29.613   7.197   1.671
27673W        W99999  24.270  37.474   1.675
27674W        W    0  13.133  21.713   4.086
27675W        W    1  37.909   7.686  11.225
27676W        W    2  21.966  17.151   2.285
27677W        W    3  23.653   3.473   2.748
27678W        W    4  23.175  42.257  13.497
27679W        W    5  44.290   7.676  11.963
27680W        W    6  32.581  39.704   4.748
27681W        W    7  10.773   6.254   4.863
27682W        W    8  34.979   0.553   1.800
27683W        W    9  25.311  20.583  11.543
27684W        W   10  26.193  16.720  11.952
27685W        W   11  34.469  21.142  12.590
27686W        W   12   4.935  44.301  13.895
27687W        W   13  36.575  33.678  12.920
27688W        W   14  14.621  26.070   5.065
27689W        W   15  21.998  33.971   3.934
27690W        W   16  36.942   5.848  13.486
27691W        W   17  40.280   6.645  14.127
27692W        W   18  17.768  18.181   0.466
27693W        W   19  20.225  11.614  11.607
27694W        W   20   5.627  22.330   0.785
27695W        W   21  22.030  18.944   3.169
27696W        W   22  29.444   8.319   2.349
27697W        W   23  42.427   0.706   4.135
27698W        W   24   4.789  18.336  10.680
27699W        W   25   4.914   4.387  11.528
27700W        W   26   3.383  24.100   1.538
27701W        W   27   8.102  23.942   4.122
27702W        W   28   9.039  37.028   0.939
27703W        W   29  18.565   4.689   1.295
27704W        W   30  26.010  21.806   0.793
27705W        W   31  23.734   2.385  11.190
27706W        W   32  41.386  23.123   2.278
27707W        W   33   1.449  15.316   2.749
27708W        W   34  31.619   0.690   4.193
27709W        W   35  40.914  44.838   4.481
27710W        W   36  37.302   8.411  12.408
27711W        W   37  31.436  34.476   2.459
27712W        W   38  44.160   0.873   1.955
27713W        W   39  11.698  43.765  11.947
27714W        W   40  38.342  26.949   0.255
27715W        W   41  37.766  40.640   4.939
27716W        W   42  30.561  30.448   4.322
27717W        W   43  36.596  26.438  14.006
27718W        W   44  38.162  22.299  12.924
27719W        W   45  39.639   5.219   2.410
27720W        W   46  38.174  25.127   2.340
27721W        W   47   4.848   4.436  12.050
27722W        W   48  30.822  42.414   0.827
27723W        W   49  27.458   0.484   1.008
27724W        W   50  34.214  30.969  12.649
27725W        W   51   0.285  41.870   3.722
27726W        W   52  22.692  42.592   2.260
27727W        W   53  12.575  44.367  12.841
27728W        W   54  30.476  23.703  13.423
27729W        W   55   1.796  31.140   4.514
27730W        W   56  21.087  38.326   3.797
27731W        W   57  26.472  42.278   4.013
27732W        W   58  43.059  14.809  10.590
27733W        W   59   8.225  26.998  13.421
27734W        W   60  11.638   7.266   1.859
27735W        W   61  23.821  19.111   2.235
27736W        W   62   1.066  12.325   4.173
27737W        W   63  35.494   8.119  12.137
27738W        W   64  41.793  17.838  12.314
27739W        W   65   9.471  31.619  11.625
27740W        W   66  21.653   2.909   0.038
27741W        W   67  41.056  18.064  14.038
27742W        W   68  25.090   8.812   1.242
27743W        W   69  28.996  26.151   2.615
27744W        W   70  25.671  30.068   3.709
27745W        W   71  40.593  34.273   2.766
27746W        W   72  43.053  19.296   1.323
27747W        W   73  18.244  35.128  10.714
27748W        W   74   2.549  16.090  13.987
27749W        W   75  29.549  39.689   5.180
27750W        W   76  36.808  28.190  12.317
27751W        W   77   0.694  39.971  10.678
27752W        W   78  17.190   8.180  13.309
27753W        W   79  17.326  22.435  13.956
27754W        W   80  23.498  26.522   2.026
27755W        W   81  12.228  20.967  12.939
27756W        W   82  27.040  37.536  14.832
27757W        W   83   6.969  10.068   4.146
27758W        W   84  41.360   7.888   0.188
27759W        W   85  38.602  40.540  13.502
27760W        W   86   2.193  31.675   0.786
27761W        W   87  32.090   1.871   2.506
27762W        W   88  43.869  24.486  11.666
27763W        W   89  36.014  42.558   1.837
27764W        W   90  18.096  34.266   4.134
27765W        W   91  32.472  38.968   1.264
27766W        W   92  12.840  39.561   4.955
27767W        W   93   1.045  35.210   0.763
27768W        W   94  24.944  22.532   3.460
27769W        W   95  43.921  40.544  10.635
27770W        W   96  18.314   3.043   0.847
27771W        W   97  32.207  44.076   0.829
27772W        W   98   7.182  43.246  11.618
27773W        W   99  25.926  20.674   3.468
27774W        W  100  15.731  32.918  13.945
27775W        W  101   1.023  16.404  11.189
27776W        W  102   6.715   0.495  13.472
27777W        W  103  40.531  28.912  10.437
27778W        W  104   8.821  25.361  14.321
27779W        W  105   6.928  37.342  13.527
27780W        W  106   0.190  25.954  11.219
27781W        W  107   3.952   2.537   3.633
27782W        W  108   0.378   0.361   3.805
27783W        W  109  29.813  40.663   4.331
27784W        W  110  40.086  43.999   1.771
27785W        W  111  11.046  17.381   0.405
27786W        W  112  14.837  36.960  10.681
27787W        W  113   1.681  27.833  12.403
27788W        W  114  31.089  10.646   0.521
27789W        W  115   7.282   2.571   3.819
27790W        W  116  25.982  20.453   1.821
27791W        W  117  19.518  21.463   1.018
27792W        W  118  28.950  22.468  11.020
27793W        W  119  34.957  10.365  12.378
27794W        W  120  36.223  15.555   5.188
27795W        W  121  40.766  22.903  14.470
27796W        W  122   4.762  17.350  10.616
27797W        W  123  39.534   2.294  12.839
27798W        W  124  31.016   8.813  11.112
27799W        W  125   2.515   8.785  11.694
27800W        W  126  43.612   0.801   0.798
27801W        W  127  32.938  32.389   0.184
27802W        W  128  19.979  13.695  10.968
27803W        W  129  34.841  32.884   0.763
27804W        W  130  14.830  40.987  12.633
27805W        W  131  31.934  32.976   1.832
27806W        W  132  22.166  32.899  12.039
27807W        W  133  43.684  41.992   4.782
27808W        W  134  34.961  30.056  13.357
27809W        W  135  33.300  23.486  14.539
27810W        W  136  34.133  33.372  12.638
27811W        W  137  35.857  43.281  12.386
27812W        W  138  23.281  14.246   3.707
27813W        W  139  16.499  34.932   3.786
27814W        W  140  17.674  15.065   2.367
27815W        W  141  41.380  38.009   1.392
27816W        W  142  28.961  32.466   2.671
27817W        W  143  17.113  24.953   0.859
27818W        W  144  29.253  18.731  11.508
27819W        W  145  40.034   6.718   2.393
27820W        W  146   5.859   9.367   1.452
27821W        W  147  43.753  19.337  12.081
27822W        W  148  36.549  23.804   3.331
27823W        W  149  44.892  18.568  14.759
27824W        W  150   9.855   0.755  13.122
27825W        W  151  38.109  17.706  13.356
27826W        W  152  33.939  12.585   4.762
27827W        W  153  18.556  27.837  12.039
27828W        W  154  15.618  27.078   0.809
27829W        W  155  22.319  15.144   5.232
27830W        W  156   6.380  16.539  11.612
27831W        W  157  38.418  36.571   2.260
27832W        W  158  36.176  13.174   1.378
27833W        W  159   9.258  15.070   0.892
27834W        W  160   2.231  41.793  11.130
27835W        W  161  13.625   5.414   3.136
27836W        W  162  16.521  44.256   3.736
27837W        W  163   4.172   1.508  12.347
27838W        W  164  36.588  24.032  11.590
27839W        W  165  15.329  44.625  13.395
27840W        W  166   7.159  11.144   2.860
27841W        W  167  31.887  17.187  13.287
27842W        W  168   0.329  27.951   4.552
27843W        W  169  17.688  12.139   2.401
27844W        W  170   2.277  19.058  12.976
27845W        W  171  28.946  21.683   2.161
27846W        W  172  21.599  37.890  13.329
27847W        W  173   3.408  24.654  11.576
27848W        W  174  25.444  20.439   4.140
27849W        W  175  43.307   4.328   0.790
27850W        W  176  18.829  17.676   3.318
27851W        W  177   9.469  34.240  10.884
27852W        W  178   5.450  23.165   0.928
27853W        W  179  23.558  17.621   5.067
27854W        W  180  37.416  36.434   1.436
27855W        W  181   3.621   0.655  13.951
27856W        W  182  24.749  15.736  11.824
27857W        W  183  17.069  44.599   0.306
27858W        W  184  20.620  42.018   2.347
27859W        W  185  15.142  20.057   1.148
27860W        W  186  32.951  10.486  10.466
27861W        W  187  24.069  33.915   1.698
27862W        W  188  26.716   4.221   0.350
27863W        W  189   5.670  17.683  13.471
27864W        W  190  17.328   5.947  13.867
27865W        W  191  44.884   4.787  12.687
27866W        W  192  36.166  43.990   1.191
27867W        W  193   3.797  39.059  14.799
27868W        W  194  27.239  15.440  11.698
27869W        W  195  28.951  36.006   1.693
27870W        W  196  30.482  14.330  14.943
27871W        W  197  21.543  23.847   0.051
27872W        W  198  18.964  33.845  12.881
27873W        W  199  23.256  30.212   2.057
27874W        W  200  14.171  25.168  10.066
27875W        W  201  19.668   2.019   1.876
27876W        W  202  32.685  39.015   4.195
27877W        W  203  22.094  26.340  11.102
27878W        W  204  28.441  22.965   3.633
27879W        W  205  26.884  24.285  14.384
27880W        W  206  39.537   9.890   2.679
27881W        W  207  38.550   6.568  13.799
27882W        W  208  17.187  11.912   1.330
27883W        W  209  16.565   2.852   0.496
27884W        W  210  25.102  34.651   3.161
27885W        W  211  19.437   0.250   1.783
27886W        W  212  36.988  18.171  12.776
27887W        W  213   7.608  43.979  10.976
27888W        W  214  44.595  28.025  11.036
27889W        W  215  36.025  39.593  13.467
27890W        W  216  38.255   1.240  12.537
27891W        W  217   2.897  20.719   2.816
27892W        W  218  23.170  33.998  12.725
27893W        W  219  15.826  17.773   3.863
27894W        W  220  30.644  13.298  11.189
27895W        W  221  24.481  31.379  14.802
27896W        W  222  33.186   9.696   0.423
27897W        W  223   7.731  10.116   1.402
27898W        W  224  25.404  44.780  13.434
27899W        W  225   1.223  38.363   3.379
27900W        W  226  33.560  32.911   4.590
27901W        W  227  35.598  13.200   3.740
27902W        W  228  30.758  42.478  13.961
27903W        W  229  18.650  25.934   2.650
27904W        W  230  42.486   6.996   3.699
27905W        W  231  13.630  34.882   1.332
27906W        W  232  14.592  38.524  14.055
27907W        W  233  12.322  11.417  14.821
27908W        W  234  24.711  13.835  14.525
27909W        W  235   6.859   3.484  11.159
27910W        W  236  43.881   1.696  13.095
27911W        W  237  18.220   2.032   0.834
27912W        W  238  28.727   1.680   0.560
27913W        W  239   1.658  12.724   3.703
27914W        W  240  30.183  21.039   1.843
27915W        W  241  31.144   3.476   0.227
27916W        W  242  24.153  35.482  11.638
27917W        W  243  15.362  29.866  11.183
27918W        W  244   5.735  23.678   4.550
27919W        W  245  21.547  29.391   3.133
27920W        W  246  44.401  43.798  12.606
27921W        W  247  31.348  39.909  12.266
27922W        W  248  37.627  14.263   1.820
27923W        W  249  41.302   5.152   2.676
27924W        W  250  33.532  10.306   2.822
27925W        W  251  10.409   6.447  13.565
27926W        W  252  29.468  43.039   4.197
27927W        W  253   0.876  10.564   3.846
27928W        W  254  27.474  12.687  10.640
27929W        W  255  24.030  44.274  13.962
27930W        W  256   9.616  22.070   3.858
27931W        W  257  10.531  10.307   3.705
27932W        W  258   0.247  16.909  13.922
27933W        W  259   1.355   5.832   4.636
27934W        W  260   9.734   4.163   4.571
27935W        W  261  33.249  29.365  14.166
27936W        W  262  36.197   5.635   0.442
27937W        W  263   4.852  38.920  12.456
27938W        W  264  22.694  11.411  13.358
27939W        W  265  16.694  14.032  14.454
27940W        W  266  35.801  16.825  12.327
27941W        W  267  23.406  36.869   5.328
27942W        W  268  28.021  26.045   4.997
27943W        W  269  32.102   9.768  11.214
27944W        W  270  35.324   1.259   4.646
27945W        W  271  24.548   1.728  13.368
27946W        W  272  43.129  43.719  10.116
27947W        W  273   8.885  15.424   0.853
27948W        W  274  21.200  23.658  14.706
27949W        W  275  39.320   9.234   2.821
27950W        W  276  30.255   7.790  10.808
27951W        W  277  17.133  23.152   1.668
27952W        W  278  29.422   7.366   2.455
27953W        W  279  41.172  42.324   3.043
27954W        W  280  40.060  31.156   3.206
27955W        W  281   0.081  37.742   1.683
27956W        W  282  18.378  39.560   1.393
27957W        W  283  18.695  25.695  12.404
27958W        W  284  21.331  34.130   2.609
27959W        W  285  16.545  18.481  10.716
27960W        W  286   6.403  34.409  13.402
27961W        W  287  35.007  39.579  11.596
27962W        W  288  31.909  18.486   1.939
27963W        W  289  26.581  10.579  12.016
27964W        W  290  39.115  38.740   1.202
27965W        W  291   2.701  40.911   3.565
27966W        W  292  11.182  25.239  11.892
27967W        W  293  23.328  44.531  11.147
27968W        W  294  26.578  19.933   3.566
27969W        W  295  27.718  44.100  11.266
27970W        W  296  21.034  35.965   2.922
27971W        W  297  28.101  39.978   0.969
27972W        W  298   3.458  14.754  13.935
27973W        W  299  41.012  38.352   0.278
27974W        W  300  31.655  24.039  13.884
27975W        W  301  32.541   4.810  13.401
27976W        W  302  17.124  29.972  13.356
27977W        W  303   8.791   6.721  14.193
27978W        W  304   7.804   1.857  13.883
27979W        W  305   7.878  25.126  11.179
27980W        W  306  29.679   8.355  11.184
27981W        W  307  43.443   4.626  14.018
27982W        W  308  26.136  42.667   4.186
27983W        W  309  15.688  14.703  10.880
27984W        W  310  25.690  11.778  12.161
27985W        W  311   9.906  44.089   4.693
27986W        W  312  22.934  24.219   3.702
27987W        W  313  33.964  31.012  11.651
27988W        W  314  29.363  33.274  14.439
27989W        W  315  10.096  11.266  13.561
27990W        W  316   5.260  23.695   4.811
27991W        W  317  41.610  36.423   2.209
27992W        W  318   7.688   8.265   2.308
27993W        W  319  39.573  26.999   0.760
27994W        W  320  35.679  22.003  14.494
27995W        W  321   8.654  27.083   4.198
27996W        W  322  20.099   8.850   1.889
27997W        W  323  28.733  16.262  14.275
27998W        W  324   5.947  42.136  13.562
27999W        W  325  28.159  37.987   4.850
28000W        W  326  33.371  36.418  14.822
28001W        W  327  39.133   5.682   2.596
28002W        W  328  38.995  32.457  11.334
28003W        W  329  44.613   3.470   3.547
28004W        W  330   1.868  29.582  11.033
28005W        W  331  37.259  19.743   2.428
28006W        W  332   4.440   6.162   1.793
28007W        W  333  33.908  34.066  11.082
28008W        W  334   1.657   3.378   2.137
28009W        W  335  19.061  33.630  10.487
28010W        W  336  42.810   1.609  11.664
28011W        W  337  15.722   3.074   3.206
28012W        W  338  28.684   5.815   3.376
28013W        W  339  26.532  18.750  13.453
28014W        W  340   3.461  28.893   0.936
28015W        W  341  27.155  29.673   4.778
28016W        W  342  41.238  28.826  11.516
28017W        W  343  33.826  44.343  10.640
28018W        W  344   8.839  37.517  11.435
28019W        W  345   3.505   6.258   4.562
28020W        W  346  30.103  10.403  14.018
28021W        W  347   9.641  28.625  11.714
28022W        W  348  40.999  11.575  12.926
28023W        W  349   8.504  20.105   0.973
28024W        W  350  39.255  43.049   1.842
28025W        W  351  23.263  44.496   1.535
28026W        W  352  23.147  19.550   1.053
28027W        W  353  19.510  28.884  10.845
28028W        W  354  28.685  37.424   0.365
28029W        W  355  33.415  12.752  10.646
28030W        W  356  38.788  40.543   1.660
28031W        W  357   4.787   7.157   4.584
28032W        W  358  39.597  28.443   4.170
28033W        W  359  18.026  33.881  12.524
28034W        W  360  16.129  12.459  10.882
28035W        W  361   5.357  15.305  12.483
28036W        W  362  17.551  33.853  11.689
28037W        W  363  22.518  31.348   3.264
28038W        W  364  35.443   2.154   3.637
28039W        W  365  14.590  24.749  12.223
28040W        W  366   2.094  23.659  11.990
28041W        W  367  13.252  40.488   4.613
28042W        W  368   9.869  34.509   3.599
28043W        W  369  21.999  44.831   0.599
28044W        W  370  34.325  13.662  12.556
28045W        W  371  24.006  24.531  10.615
28046W        W  372  37.609  37.968   2.905
28047W        W  373   9.840  41.426  10.518
28048W        W  374  14.485  34.463  12.070
28049W        W  375   9.341  33.983   2.393
28050W        W  376  35.889  13.581   2.884
28051W        W  377  13.577  27.153  10.935
28052W        W  378   5.840   4.754   5.017
28053W        W  379  33.755   6.126   2.153
28054W        W  380  37.600  43.804  12.431
28055W        W  381  23.568  32.530   2.787
28056W        W  382  20.481  27.142   4.099
28057W        W  383   9.757  13.327   3.814
28058W        W  384   2.427  39.549  14.254
28059W        W  385   1.353  42.993  13.531
28060W        W  386  17.874  13.663   2.401
28061W        W  387   9.920  15.339   2.824
28062W        W  388  24.241   5.287   3.166
28063W        W  389  43.753  37.770  10.951
28064W        W  390  31.118   4.007   2.331
28065W        W  391  28.046  43.513  14.754
28066W        W  392  37.407   7.441  14.926
28067W        W  393  27.532   6.444   0.363
28068W        W  394  39.346  41.403   3.301
28069W        W  395  31.467  34.508   0.276
28070W        W  396  10.217  32.410   3.265
28071W        W  397  42.070  41.276  10.838
28072W        W  398   1.810  24.799   1.406
28073W        W  399  25.726  16.360   0.249
28074W        W  400  31.854  38.515   1.437
28075W        W  401  12.313  28.967  12.132
28076W        W  402  26.886  34.826   2.322
28077W        W  403  28.570  16.767   0.537
28078W        W  404   7.001  24.509  10.478
28079W        W  405  25.557  41.577   3.677
28080W        W  406  42.795  10.897  11.574
28081W        W  407  21.671  40.443  14.260
28082W        W  408  20.333  42.524  12.369
28083W        W  409  32.065  25.538   0.838
28084W        W  410   7.705   3.576   4.531
28085W        W  411  29.191  31.707   3.129
28086W        W  412   3.294  41.152  12.226
28087W        W  413  24.747  30.894  11.474
28088W        W  414   8.946  25.221   2.679
28089W        W  415  35.251  10.406   4.098
28090W        W  416  22.600  10.390  12.462
28091W        W  417  17.253  33.431  12.480
28092W        W  418  11.842  24.719   9.804
28093W        W  419  25.902  30.145   1.239
28094W        W  420  29.928   1.967  11.549
28095W        W  421  34.271   6.443  12.859
28096W        W  422  28.917  38.987  14.439
28097W        W  423  36.875   3.814  12.576
28098W        W  424  11.372   0.234   3.080
28099W        W  425   5.030  33.894   5.054
28100W        W  426   9.824  38.959   3.716
28101W        W  427  23.508  29.160  11.196
28102W        W  428  19.518   6.023   4.171
28103W        W  429  29.208  38.877   1.269
28104W        W  430  16.208  21.990  13.083
28105W        W  431  24.857   8.320  11.690
28106W        W  432  21.292  33.949  12.949
28107W        W  433  40.620  36.761  12.499
28108W        W  434   8.326  12.236   2.910
28109W        W  435  33.001  11.004  10.589
28110W        W  436  11.039  30.752   0.893
28111W        W  437  28.533  35.111   2.804
28112W        W  438  24.153  21.278  10.671
28113W        W  439  40.242  12.471   1.436
28114W        W  440  41.442  36.828   4.253
28115W        W  441  30.834  44.273   4.970
28116W        W  442   4.183  24.127  14.191
28117W        W  443   8.639  31.615   0.771
28118W        W  444  17.209   5.408  10.309
28119W        W  445   0.460  35.346   3.756
28120W        W  446  39.939  20.356  12.938
28121W        W  447  37.107  31.835   2.322
28122W        W  448  18.574   0.623   2.075
28123W        W  449   8.685  34.270   1.323
28124W        W  450  41.692  17.560   1.367
28125W        W  451  43.252  15.874   1.089
28126W        W  452  42.060   4.945   4.136
28127W        W  453   8.600   9.236   0.578
28128W        W  454  21.551  19.684   4.323
28129W        W  455  42.206   1.031  14.245
28130W        W  456  41.429  42.453  10.630
28131W        W  457  10.215  39.507   0.985
28132W        W  458   0.356  43.214   1.613
28133W        W  459  12.307  28.243   0.837
28134W        W  460  33.083  36.846   2.429
28135W        W  461  40.411  38.493  11.163
28136W        W  462  16.109   1.849  13.377
28137W        W  463  14.815  23.160  14.441
28138W        W  464  21.862  30.589   1.857
28139W        W  465   9.923  37.419   0.484
28140W        W  466  42.494  35.913   0.189
28141W        W  467  33.172  33.886  13.003
28142W        W  468  28.641  24.026   3.594
28143W        W  469  22.739   5.261  13.496
28144W        W  470   2.863  33.059  10.477
28145W        W  471   1.226  19.705  12.474
28146W        W  472   4.756  44.541   4.276
28147W        W  473  40.785  26.493   2.039
28148W        W  474  29.611   2.792   2.722
28149W        W  475   3.855  36.602  14.364
28150W        W  476  22.124   9.299   2.021
28151W        W  477  32.998  34.879  13.089
28152W        W  478  19.355  17.501  14.925
28153W        W  479  33.580  17.898  11.866
28154W        W  480  16.814   5.830  13.778
28155W        W  481   7.486  37.644   3.300
28156W        W  482  11.344   3.361  10.945
28157W        W  483  17.767  43.491   4.074
28158W        W  484  16.311  12.327   2.202
28159W        W  485  26.663  37.793  12.800
28160W        W  486   8.810  31.049  13.290
28161W        W  487  12.921  21.060  11.519
28162W        W  488  32.997  14.447   2.663
28163W        W  489  25.921  44.760  13.450
28164W        W  490  42.339   7.885   2.437
28165W        W  491  21.863  25.878  12.069
28166W        W  492  17.080  13.100  13.441
28167W        W  493   9.943  43.910  11.692
28168W        W  494  24.105   4.391  10.994
28169W        W  495  23.029   5.384   3.437
28170W        W  496  28.599  19.261  11.778
28171W        W  497   6.235  22.691  13.445
28172W        W  498   6.981  29.793   3.600
28173W        W  499  23.669  16.602   0.360
28174W        W  500  37.962  14.195  11.038
28175W        W  501   8.680  31.389   1.484
28176W        W  502  44.943  33.363  10.203
28177W        W  503   4.000  43.797   0.986
28178W        W  504  14.648  22.457   1.835
28179W        W  505   6.121  18.573  10.466
28180W        W  506  23.971   2.222   3.257
28181W        W  507  38.897  13.879   1.928
28182W        W  508  33.403  35.123   2.628
28183W        W  509  13.138  34.930   2.164
28184W        W  510  33.552  18.563  11.107
28185W        W  511  31.946  35.963   4.578
28186W        W  512  30.135  32.955   2.278
28187W        W  513   5.017  41.543  13.082
28188W        W  514  17.315  24.551  12.555
28189W        W  515  23.056  15.653  13.330
28190W        W  516  20.244  12.860   2.797
28191W        W  517  40.360  30.424   4.850
28192W        W  518  28.121  33.674   1.603
28193W        W  519  20.138   6.351   3.445
28194W        W  520  43.017  22.389   1.044
28195W        W  521  40.451  44.792   4.213
28196W        W  522  44.932  17.258   4.240
28197W        W  523   8.126  34.404   3.287
28198W        W  524   7.735  19.712  13.342
28199W        W  525  20.111  41.909  10.959
28200W        W  526  14.266  16.745  12.115
28201W        W  527  13.226   8.146   4.257
28202W        W  528   8.206   7.398   3.355
28203W        W  529  30.857  39.513   3.192
28204W        W  530   0.810  23.735   0.741
28205W        W  531  10.815  12.914   4.148
28206W        W  532   0.496   6.476   0.736
28207W        W  533  19.213   6.890  13.499
28208W        W  534  32.599  31.518   4.167
28209W        W  535  36.040  20.146  14.058
28210W        W  536  16.765  36.207  11.218
28211W        W  537  18.885  13.876   2.236
28212W        W  538  39.379  33.301  13.510
28213W        W  539  21.683  16.218   0.707
28214W        W  540  14.177   1.922   3.109
28215W        W  541  41.461  19.536   0.051
28216W        W  542  35.447  13.706   1.451
28217W        W  543  40.850  12.562  10.674
28218W        W  544  14.634  29.542  11.597
28219W        W  545  20.044  40.206  11.463
28220W        W  546  36.028   0.284   4.627
28221W        W  547  31.344  27.969   2.802
28222W        W  548   0.339  12.681  14.908
28223W        W  549   6.760  38.897   0.506
28224W        W  550   9.314  25.598   2.766
28225W        W  551  36.970  38.106  12.745
28226W        W  552  28.028  25.455  13.509
28227W        W  553  44.750   7.431  12.061
28228W        W  554  37.275  13.133  12.167
28229W        W  555  43.852  23.653  14.451
28230W        W  556  40.437  25.703   0.445
28231W        W  557   5.022  22.300   3.642
28232W        W  558  25.084  43.470   3.504
28233W        W  559  16.845  17.831  14.556
28234W        W  560  13.184   5.381  14.990
28235W        W  561  13.792   8.466   0.272
28236W        W  562   9.421  21.685   1.899
28237W        W  563  25.036  33.590   3.143
28238W        W  564  15.178  43.051   4.562
28239W        W  565  14.195  26.922   2.866
28240W        W  566  39.400   2.468   4.049
28241W        W  567  44.837  30.521  13.887
28242W        W  568   8.145  14.650   0.853
28243W        W  569  19.334  36.432   3.950
28244W        W  570  34.447  35.917   5.206
28245W        W  571  25.666  32.606  14.924
28246W        W  572  36.024  15.184  14.344
28247W        W  573  26.269   1.354   5.047
28248W        W  574  41.381  26.599  11.615
28249W        W  575  24.921  39.120  11.059
28250W        W  576  20.209  23.982  12.052
28251W        W  577  43.559  26.636  12.558
28252W        W  578  33.984  24.218   2.752
28253W        W  579  35.547  32.671  10.261
28254W        W  580   2.805  15.996  12.134
28255W        W  581   2.827   3.394   3.357
28256W        W  582  27.902  22.059  13.271
28257W        W  583   0.663  15.713   9.980
28258W        W  584  23.736   0.677  13.510
28259W        W  585  16.646   8.838   2.374
28260W        W  586   3.184  12.239  11.631
28261W        W  587  22.130  23.998  10.759
28262W        W  588  34.628  22.352   1.235
28263W        W  589  44.956  38.411  12.100
28264W        W  590  18.748   4.469  11.507
28265W        W  591  18.638  23.809  13.935
28266W        W  592  26.843  38.858  14.373
28267W        W  593  32.466  17.699  13.841
28268W        W  594  21.553   2.121  10.685
28269W        W  595  43.292  20.773  13.793
28270W        W  596  33.541  42.634  10.673
28271W        W  597  27.005   0.438   4.615
28272W        W  598  21.856  41.424   4.971
28273W        W  599  23.038   8.153   0.916
28274W        W  600   4.596  30.392   4.952
28275W        W  601  28.026  31.680   4.131
28276W        W  602  29.661   2.269   4.136
28277W        W  603  23.617  23.521  11.155
28278W        W  604  31.033  28.898   4.709
28279W        W  605  43.018  35.425  13.471
28280W        W  606  24.129  35.890  13.454
28281W        W  607  43.661  32.354  11.158
28282W        W  608  12.286  44.558  14.444
28283W        W  609  27.029  34.823  13.288
28284W        W  610  28.974  24.474  11.042
28285W        W  611  37.310   6.796   0.801
28286W        W  612  33.227   6.962  14.867
28287W        W  613  13.547   1.330  12.040
28288W        W  614  19.061  31.847   4.134
28289W        W  615  31.922  27.636   1.314
28290W        W  616  22.224  35.855   0.732
28291W        W  617  23.083   6.390   3.450
28292W        W  618   5.303  12.673   4.108
28293W        W  619  22.824  20.520  13.401
28294W        W  620   9.901  24.963  14.855
28295W        W  621   2.474  38.470  11.214
28296W        W  622  10.696  26.582   2.416
28297W        W  623  10.221  29.903   3.836
28298W        W  624  27.153  40.201   3.732
28299W        W  625  18.724  42.044  11.619
28300W        W  626  34.312  24.701   2.739
28301W        W  627  11.586  31.031   3.510
28302W        W  628  31.053  27.624  11.485
28303W        W  629  15.269  41.058  12.378
28304W        W  630  17.555   0.796  12.894
28305W        W  631  12.574  19.836  13.710
28306W        W  632  39.337  26.065   4.782
28307W        W  633   1.336  28.869  12.022
28308W        W  634  26.631   5.743   1.050
28309W        W  635  16.727  22.213  13.784
28310W        W  636  20.573  12.104   1.771
28311W        W  637  26.220  36.963   0.774
28312W        W  638  29.920  13.076  12.464
28313W        W  639  27.120  44.715  12.559
28314W        W  640  23.057  25.154  13.897
28315W        W  641  39.949  30.340   1.966
28316W        W  642   6.740   1.461   4.080
28317W        W  643  19.276  26.583   1.666
28318W        W  644  31.217  41.626  14.747
28319W        W  645   3.980   8.987  11.586
28320W        W  646  36.353  24.201  14.405
28321W        W  647  36.015  25.513   3.578
28322W        W  648  31.898  38.963  11.540
28323W        W  649  15.881  29.426   4.111
28324W        W  650  32.675  11.853  12.538
28325W        W  651   7.776  19.747   0.775
28326W        W  652  12.328   9.243  14.129
28327W        W  653  30.999   5.111  13.313
28328W        W  654  34.188   4.876   1.360
28329W        W  655  37.391  13.351  10.815
28330W        W  656  35.073  39.369  14.654
28331W        W  657  36.002  31.252   4.863
28332W        W  658  41.031  14.213  11.934
28333W        W  659  15.106  41.553  13.953
28334W        W  660  33.978  44.378   2.946
28335W        W  661   2.652   3.810  12.018
28336W        W  662  17.139  14.262   2.867
28337W        W  663   3.478   4.702  14.938
28338W        W  664  16.600  44.305   1.937
28339W        W  665  33.905  39.790   4.238
28340W        W  666  27.542  26.729  10.252
28341W        W  667   7.319  41.939  10.968
28342W        W  668   2.916   3.514  10.469
28343W        W  669   3.627  30.312   5.090
28344W        W  670  40.460  44.242  11.026
28345W        W  671  39.641  27.666  12.325
28346W        W  672   4.666  41.453  10.442
28347W        W  673  26.184   3.949   2.012
28348W        W  674  34.135  34.903   1.982
28349W        W  675  42.759  39.238   2.836
28350W        W  676  12.469  22.670   1.535
28351W        W  677  32.374  16.828  12.930
28352W        W  678  13.511  27.930   1.825
28353W        W  679  44.754  43.790   0.357
28354W        W  680  15.151  11.691  10.565
28355W        W  681  34.278   6.604   4.274
28356W        W  682  43.550  33.870   1.450
28357W        W  683  38.014  31.557  13.700
28358W        W  684  35.064   5.212  11.123
28359W        W  685  36.049  16.983  12.766
28360W        W  686  14.309   3.571  13.839
28361W        W  687  38.476  43.137  14.985
28362W        W  688  43.504  25.826  13.554
28363W        W  689  31.461  10.966  11.007
28364W        W  690  35.142   3.833   0.281
28365W        W  691  10.616  11.870  14.491
28366W        W  692  23.255  28.953  13.570
28367W        W  693  34.658  33.254   1.605
28368W        W  694   7.632   3.503   2.773
28369W        W  695  35.898  19.488   2.252
28370W        W  696  35.935   4.007   2.187
28371W        W  697   6.859  12.656   0.388
28372W        W  698  16.243  39.420   4.596
28373W        W  699  12.294  41.052  12.959
28374W        W  700  14.849  10.837  10.496
28375W        W  701  15.623  40.103  13.083
28376W        W  702  15.076  26.537   1.057
28377W        W  703  16.261  23.132  10.320
28378W        W  704  34.668  19.585  10.756
28379W        W  705  16.249  12.626   4.594
28380W        W  706  31.177   7.060  12.381
28381W        W  707   7.128  33.890   0.798
28382W        W  708  18.181  18.938   4.936
28383W        W  709   0.231   6.977   0.444
28384W        W  710  10.897  26.425   0.485
28385W        W  711   7.367  11.196  11.481
28386W        W  712  25.093  31.329   4.327
28387W        W  713   0.463  17.623   0.398
28388W        W  714   2.962   0.861  13.653
28389W        W  715  40.328  17.812   3.295
28390W        W  716  26.582  43.385  10.612
28391W        W  717  43.267  37.135  12.021
28392W        W  718   7.561  37.950  10.753
28393W        W  719  38.793  32.563   1.708
28394W        W  720  25.029  15.061   4.131
28395W        W  721   8.531  20.899  13.048
28396W        W  722   4.466  33.566  13.624
28397W        W  723  31.974   5.434  11.979
28398W        W  724  26.206  33.421   2.681
28399W        W  725  40.102  36.504   1.885
28400W        W  726  39.037   5.701  11.134
28401W        W  727  33.311  26.651  14.989
28402W        W  728  29.611  42.778  12.463
28403W        W  729  37.079  21.560  14.156
28404W        W  730  39.951  16.015   3.376
28405W        W  731  19.005  38.887   1.000
28406W        W  732  22.201  23.912   0.709
28407W        W  733  35.960  13.640   2.304
28408W        W  734  31.058  44.058  12.533
28409W        W  735  35.505  20.856   3.156
28410W        W  736  24.523  20.019   1.251
28411W        W  737  25.760  34.340  10.748
28412W        W  738   1.805  17.469   2.444
28413W        W  739  33.196  30.938  14.898
28414W        W  740   9.082   5.751   4.469
28415W        W  741   4.905  44.894   0.997
28416W        W  742  12.364  18.795   2.160
28417W        W  743  43.947  37.997  10.516
28418W        W  744   9.154  22.076   3.613
28419W        W  745  43.023  34.323   2.264
28420W        W  746  23.522  15.089  11.539
28421W        W  747   3.828  40.360   3.808
28422W        W  748  18.339  24.854  11.842
28423W        W  749  33.142  26.581  13.291
28424W        W  750  18.211  35.954  13.058
28425W        W  751  15.646  19.227  12.998
28426W        W  752   5.162  33.377  10.758
28427W        W  753  16.361   1.315  11.451
28428W        W  754  10.408   7.206  12.139
28429W        W  755  33.704  39.713  11.397
28430W        W  756   9.359  20.700   1.329
28431W        W  757   9.627  21.782  12.521
28432W        W  758  41.840  40.693   4.829
28433W        W  759  25.139  15.904   0.817
28434W        W  760   4.932  30.494  10.380
28435W        W  761  16.121  40.227   4.323
28436W        W  762  42.370  32.849  13.810
28437W        W  763  18.088  28.082  13.809
28438W        W  764  31.163  16.756   3.199
28439W        W  765   8.924  43.777  12.959
28440W        W  766   9.375  23.532  11.566
28441W        W  767  35.516  44.854   1.836
28442W        W  768  40.953  21.655   4.626
28443W        W  769   2.711   1.964   4.155
28444W        W  770  10.391  31.303   4.382
28445W        W  771  42.239  41.947  12.802
28446W        W  772  13.216  44.199  13.529
28447W        W  773  40.289   5.138   4.539
28448W        W  774   8.221  33.665  13.892
28449W        W  775  22.550  37.503  13.362
28450W        W  776  40.463  18.223   2.383
28451W        W  777   8.314  28.519   0.526
28452W        W  778  28.057  20.173  14.561
28453W        W  779  23.230   9.238  10.692
28454W        W  780  39.091  28.657   0.804
28455W        W  781  23.878  43.424  10.457
28456W        W  782  39.565  30.399   4.100
28457W        W  783  21.059  41.923   4.988
28458W        W  784  38.430  19.438   3.120
28459W        W  785   0.336  23.550  10.629
28460W        W  786  11.350  14.761  14.474
28461W        W  787   9.373  34.159   1.914
28462W        W  788  27.122  24.764  11.102
28463W        W  789  36.088  32.964  12.351
28464W        W  790   9.351  44.323   1.327
28465W        W  791   9.026  16.463   4.282
28466W        W  792  37.892  19.319   1.248
28467W        W  793  23.688   5.280   2.452
28468W        W  794  15.808  10.274   1.778
28469W        W  795  23.711   6.101   1.207
28470W        W  796  21.554  35.862   2.806
28471W        W  797  33.221  38.470   1.670
28472W        W  798   1.422   1.023   2.251
28473W        W  799   6.948  43.082  12.611
28474W        W  800  41.429   8.616  13.708
28475W        W  801  18.516   2.713  12.402
28476W        W  802  22.617   4.318   2.268
28477W        W  803  32.566  40.726   4.381
28478W        W  804  38.359   5.500  12.952
28479W        W  805  21.506  32.715  13.033
28480W        W  806  16.250  33.606  12.449
28481W        W  807  43.780  36.806  12.868
28482W        W  808  25.594  39.245   1.867
28483W        W  809   4.955  44.705   3.577
28484W        W  810  19.288   9.842   0.218
28485W        W  811  18.649   8.711   3.602
28486W        W  812  38.519  25.557   1.814
28487W        W  813   1.419  33.830  13.968
28488W        W  814  19.045  41.463   1.806
28489W        W  815   7.384  30.394   1.514
28490W        W  816   4.212   9.091   0.186
28491W        W  817  13.617  14.241   4.309
28492W        W  818  35.837  32.393  11.504
28493W        W  819  36.044  33.345   4.401
28494W        W  820  37.710  23.782   4.165
28495W        W  821  21.125  13.749   4.003
28496W        W  822  14.602  10.134   0.915
28497W        W  823  27.551  43.599   2.755
28498W        W  824  40.088   9.816  12.025
28499W        W  825  23.121   4.381  14.426
28500W        W  826   6.208  22.985  10.030
28501W        W  827  40.048  30.555   3.411
28502W        W  828  20.528  17.853   2.305
28503W        W  829  25.865  21.140   3.640
28504W        W  830  17.255  12.668   3.553
28505W        W  831  22.598   7.403   0.538
28506W        W  832  44.016  39.606  10.948
28507W        W  833  11.348  19.039   2.377
28508W        W  834  42.474  11.199  14.309
28509W        W  835  26.546  44.746   0.398
28510W        W  836  10.054  31.562   2.721
28511W        W  837  28.459  10.476   3.693
28512W        W  838  22.972  31.686  13.346
28513W        W  839  20.669  17.225  11.334
28514W        W  840  40.062  19.412  13.965
28515W        W  841  33.782  37.803  12.377
28516W        W  842  37.262  25.509   2.247
28517W        W  843  28.444  41.623  14.804
28518W        W  844   5.493  27.043  12.357
28519W        W  845  14.560  39.909  14.972
28520W        W  846  16.064  11.771  14.490
28521W        W  847  39.598  16.304   1.180
28522W        W  848  14.230  30.190  14.362
28523W        W  849  43.590  42.309  12.046
28524W        W  850  37.443  33.240   1.990
28525W        W  851  40.336  25.729  13.416
28526W        W  852  31.440  40.991   0.242
28527W        W  853  38.368  18.058  11.920
28528W        W  854  38.001  35.452   3.781
28529W        W  855  30.654  17.012   4.489
28530W        W  856  22.860   3.560   0.328
28531W        W  857   3.175  26.952   3.227
28532W        W  858  15.541  32.444   3.663
28533W        W  859  14.690  38.944   0.859
28534W        W  860  24.876  15.711  14.847
28535W        W  861  29.985  15.289  12.383
28536W        W  862  30.835  32.415   2.393
28537W        W  863   9.764   8.638   2.616
28538W        W  864  11.133  31.492  14.400
28539W        W  865  14.529  28.901  14.745
28540W        W  866  33.872  16.621  10.382
28541W        W  867  22.297   3.700  12.154
28542W        W  868   3.814  24.672  11.085
28543W        W  869  35.416  30.643   2.801
28544W        W  870  20.636   5.905   1.898
28545W        W  871  23.429  40.209   5.173
28546W        W  872  23.878  44.716  11.113
28547W        W  873   6.605  14.847   0.798
28548W        W  874   1.912  22.027   0.755
28549W        W  875   7.104   4.926  14.515
28550W        W  876  30.990   2.929   1.504
28551W        W  877  44.838  37.824   1.228
28552W        W  878  21.472   8.765  11.589
28553W        W  879  30.696  18.990  13.252
28554W        W  880  15.206  16.482  14.137
28555W        W  881   8.384  35.047   0.385
28556W        W  882  26.030  27.291  11.927
28557W        W  883  18.566  34.870  10.358
28558W        W  884  38.442  11.342  11.774
28559W        W  885   4.684  19.088   1.986
28560W        W  886  19.790  20.251   0.201
28561W        W  887  25.011  38.008   2.663
28562W        W  888   7.591  16.747   2.896
28563W        W  889  14.724   0.295  12.833
28564W        W  890  42.891  32.460  14.328
28565W        W  891  17.643   9.249   0.381
28566W        W  892  10.896  31.174  14.060
28567W        W  893   2.553  41.432   1.679
28568W        W  894  44.844  30.946   3.064
28569W        W  895  21.319  27.246  12.057
28570W        W  896  19.913   2.207  13.477
28571W        W  897  32.198  44.515   0.114
28572W        W  898   4.260  30.679  13.917
28573W        W  899   0.172  25.265  12.073
28574W        W  900  10.673  14.552  11.121
28575W        W  901  16.615   1.778   4.390
28576W        W  902  43.455  35.125  12.097
28577W        W  903  24.780  32.489   3.677
28578W        W  904  37.243  32.804  10.707
28579W        W  905  35.799  10.115   1.192
28580W        W  906  22.616  37.583  10.730
28581W        W  907  20.635  33.041   4.568
28582W        W  908  13.822   9.582  11.435
28583W        W  909  18.178   2.322  12.346
28584W        W  910  40.093  26.936   3.851
28585W        W  911   3.348   3.757  13.615
28586W        W  912  32.773  31.243   1.893
28587W        W  913   4.014  26.921   2.187
28588W        W  914  40.777  25.659   0.819
28589W        W  915  34.079  34.366   5.016
28590W        W  916   0.174   1.374   1.404
28591W        W  917  36.991  22.628   3.759
28592W        W  918  23.562  13.544   1.271
28593W        W  919  24.306  40.609  12.591
28594W        W  920   2.411  20.796  14.295
28595W        W  921  24.178  10.916   3.291
28596W        W  922  27.189  27.545  10.674
28597W        W  923  29.290  36.918   4.667
28598W        W  924  25.069  16.809  10.631
28599W        W  925  43.024  30.004   2.308
28600W        W  926   9.383  36.583  12.118
28601W        W  927  19.828  25.492   2.702
28602W        W  928  19.230   4.660  11.421
28603W        W  929  39.792   7.906  11.547
28604W        W  930   4.320  34.462  12.349
28605W        W  931   4.678   2.671   2.311
28606W        W  932   4.437  32.344   3.465
28607W        W  933  14.905  13.008  10.715
28608W        W  934  12.843   7.794  12.627
28609W        W  935  22.100  34.160   2.971
28610W        W  936  42.467  26.539   1.293
28611W        W  937  30.656  42.751  12.868
28612W        W  938  28.378  36.009  13.153
28613W        W  939  35.378  24.379   4.232
28614W        W  940  44.117  16.985   0.904
28615W        W  941  40.023   4.364  11.634
28616W        W  942  33.591  13.516   4.673
28617W        W  943  38.486   9.128  12.597
28618W        W  944  40.913  22.939  14.991
28619W        W  945  36.388  23.730   4.743
28620W        W  946  27.970  13.038  11.169
28621W        W  947  29.641  31.403  12.355
28622W        W  948  39.192   0.835  14.348
28623W        W  949  42.557   2.436   1.345
28624W        W  950   9.019  19.747  14.963
28625W        W  951   0.644  15.793   3.706
28626W        W  952   2.522  22.433   0.308
28627W        W  953  11.423   0.795  14.641
28628W        W  954  40.404  25.212  13.491
28629W        W  955  37.568  41.387  11.359
28630W        W  956  27.776  14.354   2.125
28631W        W  957  35.292  15.696   3.313
28632W        W  958   0.232   4.409   3.800
28633W        W  959  30.600   6.010   1.266
28634W        W  960  27.582   7.182  12.083
28635W        W  961  30.585  34.363   2.729
28636W        W  962   2.248   8.670   4.173
28637W        W  963  42.116  21.188  10.189
28638W        W  964  40.426  26.925  10.738
28639W        W  965  41.803  27.232  12.001
28640W        W  966  36.606  42.813   1.815
28641W        W  967  25.041  17.332  10.724
28642W        W  968  10.905  28.663  10.757
28643W        W  969  34.055   7.332   5.078
28644W        W  970  41.034  35.296   1.919
28645W        W  971  34.515  19.527  14.863
28646W        W  972  20.727   6.143  13.489
28647W        W  973  31.591  25.501  10.615
28648W        W  974  13.592  32.074   1.230
28649W        W  975   3.721  27.474  13.649
28650W        W  976  38.519   5.563  11.068
28651W        W  977  30.538  38.559   3.103
28652W        W  978  22.390  39.323  14.429
28653W        W  979  15.186  43.004   3.687
28654W        W  980  10.868  27.970   0.730
28655W        W  981  28.912   9.710  14.474
28656W        W  982  33.530  26.523   1.993
28657W        W  983  35.654  23.094  12.797
28658W        W  984  35.089   3.125   3.213
28659W        W  985  33.695  36.110  13.447
28660W        W  986  40.148  32.099  11.969
28661W        W  987  40.787  29.567  13.401
28662W        W  988  29.466   4.655  14.940
28663W        W  989   6.273  36.370  12.098
28664W        W  990  14.426  29.317   4.054
28665W        W  991  25.140  26.444   2.159
28666W        W  992  30.102   5.374   1.877
28667W        W  993   4.293   5.890  13.035
28668W        W  994  18.804  37.979   2.104
28669W        W  995  24.552  31.574   2.393
28670W        W  996  13.179   5.239   1.483
28671W        W  997  39.536  18.820   2.709
28672W        W  998  23.154   9.816   4.854
28673W        W  999  32.653  24.678   4.610
28674W        W 1000   2.928  40.350   2.831
28675W        W 1001   2.787  19.599  12.064
28676W        W 1002  27.126  23.086   2.813
28677W        W 1003  42.356  28.421   3.662
28678W        W 1004   4.679   0.401   0.894
28679W        W 1005   3.237  27.798   2.677
28680W        W 1006   3.485  38.051  12.577
28681W        W 1007  15.641   9.989  14.508
28682W        W 1008  18.755  42.567  11.637
28683W        W 1009  10.321  43.562   0.967
28684W        W 1010  31.744   7.256  11.065
28685W        W 1011  17.286  36.576  12.999
28686W        W 1012  38.346   2.493   1.803
28687W        W 1013  34.700  19.937   2.725
28688W        W 1014  31.803   9.039  14.936
28689W        W 1015  15.369   6.347  14.827
28690W        W 1016  11.773  38.230  14.126
28691W        W 1017  44.979  43.502  11.113
28692W        W 1018  37.331  42.338  13.076
28693W        W 1019   9.870  28.624  14.926
28694W        W 1020  23.798  35.598   1.237
28695W        W 1021  34.440  17.132   4.742
28696W        W 1022  41.826   4.752  13.908
28697W        W 1023  13.383   9.170   4.207
28698W        W 1024  31.048  38.740   1.809
28699W        W 1025   3.770   9.305   0.912
28700W        W 1026  44.727  36.117  12.914
28701W        W 1027   5.664   2.327   4.546
28702W        W 1028   6.210  29.576  14.872
28703W        W 1029   1.256  31.441   0.700
28704W        W 1030  39.676   5.307   4.936
28705W        W 1031  41.552  15.361  13.073
28706W        W 1032  25.092   0.183  10.659
28707W        W 1033  13.862  16.448  11.042
28708W        W 1034   6.335  44.057   1.250
28709W        W 1035  17.064  32.096  12.074
28710W        W 1036  39.297  21.532   3.167
28711W        W 1037  42.410  38.461   2.221
28712W        W 1038  34.951  38.024  10.787
28713W        W 1039  33.477  28.284  14.242
28714W        W 1040   6.452  15.668  11.905
28715W        W 1041  13.795  25.932  10.539
28716W        W 1042  30.213  21.198  14.034
28717W        W 1043  14.109   2.926  12.424
28718W        W 1044   5.230  15.238   1.792
28719W        W 1045   7.798  21.974   4.627
28720W        W 1046  14.465   1.520   1.875
28721W        W 1047   0.266  27.810  12.254
28722W        W 1048   5.670   8.724   0.386
28723W        W 1049   3.748  12.723  12.836
28724W        W 1050  23.564   8.631  14.952
28725W        W 1051  27.110  31.102   4.191
28726W        W 1052  21.477  35.024   3.211
28727W        W 1053  32.124  10.840   3.395
28728W        W 1054   1.393  32.552   4.388
28729W        W 1055   0.914  40.344  12.366
28730W        W 1056   7.214  39.900   3.750
28731W        W 1057  43.868  33.103  10.787
28732W        W 1058   1.022  19.028   3.318
28733W        W 1059  30.698  10.486  12.194
28734W        W 1060  29.165   1.999  13.133
28735W        W 1061  21.663  22.753   0.147
28736W        W 1062   9.295  33.718   4.350
28737W        W 1063  13.286   4.461   3.302
28738W        W 1064   6.114  38.042  11.712
28739W        W 1065  31.252  36.169  10.604
28740W        W 1066  33.623   7.935   1.974
28741W        W 1067  33.940  17.021  10.711
28742W        W 1068  11.913   5.499   1.124
28743W        W 1069  30.749  10.620   4.205
28744W        W 1070   2.275  32.140  14.455
28745W        W 1071  30.356  19.631  13.805
28746W        W 1072  44.423  41.573  14.524
28747W        W 1073  30.197  12.547   4.619
28748W        W 1074  15.033  20.151   2.192
28749W        W 1075   4.143  14.120  11.766
28750W        W 1076  23.736  32.613   0.148
28751W        W 1077  30.184  23.686  14.034
28752W        W 1078  35.458  33.424   5.064
28753W        W 1079  44.000  22.560  14.022
28754W        W 1080  22.788  11.853  11.583
28755W        W 1081  22.318  35.054   3.794
28756W        W 1082  28.005  14.213  12.780
28757W        W 1083   3.605   0.514   1.833
28758W        W 1084   3.682  31.066  13.391
28759W        W 1085  41.942  38.978  13.068
28760W        W 1086  42.424  16.170   2.801
28761W        W 1087  26.590  33.740  10.732
28762W        W 1088   4.173  44.929   3.765
28763W        W 1089   0.781  32.154   2.234
28764W        W 1090  37.167   5.337  13.475
28765W        W 1091   0.685  12.764  11.009
28766W        W 1092  11.813  33.096  14.053
28767W        W 1093  25.138  41.554   0.822
28768W        W 1094   8.413  43.867  13.074
28769W        W 1095  19.037  41.074  11.476
28770W        W 1096  38.847  10.357   3.707
28771W        W 1097  40.930  18.411  11.590
28772W        W 1098  24.270  11.724   5.246
28773W        W 1099   6.208  14.909   0.039
28774W        W 1100  24.182   7.427  13.536
28775W        W 1101  22.078  39.528  10.987
28776W        W 1102  44.461   7.778   0.931
28777W        W 1103  20.128  30.642   1.191
28778W        W 1104  31.896  32.982   4.633
28779W        W 1105  15.621  31.081  11.780
28780W        W 1106  44.457  34.516   4.226
28781W        W 1107  31.897  10.269   2.797
28782W        W 1108   5.727  24.238   0.938
28783W        W 1109   2.519  15.056   1.376
28784W        W 1110  31.498  32.187  12.653
28785W        W 1111  19.498   3.954   3.378
28786W        W 1112  10.272  35.403   3.775
28787W        W 1113  31.128  43.570   3.111
28788W        W 1114  10.590   6.805   3.276
28789W        W 1115  38.323  13.698   1.935
28790W        W 1116  40.074   9.439   0.451
28791W        W 1117   0.742   9.892  14.734
28792W        W 1118  16.228  27.576  11.872
28793W        W 1119  23.642  18.023  10.691
28794W        W 1120  27.335   9.843  14.308
28795W        W 1121   8.216  33.863  12.870
28796W        W 1122  38.358   0.765   2.430
28797W        W 1123  16.809  38.819  12.140
28798W        W 1124  39.265   9.714   3.076
28799W        W 1125   7.862  27.475  14.971
28800W        W 1126  29.112  38.209   2.739
28801W        W 1127   4.882  42.765  11.023
28802W        W 1128  10.599  25.462  13.046
28803W        W 1129   7.893  40.059   2.758
28804W        W 1130  38.119  18.289   4.116
28805W        W 1131   0.263  10.638  10.444
28806W        W 1132  18.023  23.137  12.656
28807W        W 1133  29.712  43.944   2.159
28808W        W 1134  16.516  19.762  13.474
28809W        W 1135   8.653   2.234  13.890
28810W        W 1136  30.513  19.115  13.756
28811W        W 1137  17.728  42.862   1.055
28812W        W 1138  18.213  43.073   4.659
28813W        W 1139  17.033  43.092  12.391
28814W        W 1140  30.517   8.668  12.319
28815W        W 1141  41.605  12.276  13.970
28816W        W 1142  41.325  41.064  13.704
28817W        W 1143  23.136   0.907   2.460
28818W        W 1144   9.845  20.898   0.369
28819W        W 1145  21.584   7.890   1.748
28820W        W 1146   8.964   7.355   0.880
28821W        W 1147  22.728  15.760   3.175
28822W        W 1148  24.661  18.477  11.088
28823W        W 1149  12.852  23.102  12.429
28824W        W 1150  39.481   7.329  12.804
28825W        W 1151   5.282   0.202   1.773
28826W        W 1152  32.004  15.063  13.821
28827W        W 1153  22.029  23.024   1.102
28828W        W 1154   7.111   4.344  10.740
28829W        W 1155  14.715  23.269  11.979
28830W        W 1156  34.122   4.965   4.134
28831W        W 1157  24.811  39.640   0.214
28832W        W 1158  13.714  32.124  11.384
28833W        W 1159  16.753   4.599  13.966
28834W        W 1160  26.696  25.736  13.798
28835W        W 1161  24.590   5.817   3.743
28836W        W 1162  15.945  38.953  13.865
28837W        W 1163  16.551   4.223  12.571
28838W        W 1164  12.644   3.029  12.468
28839W        W 1165  31.956  44.000   4.563
28840W        W 1166  34.594  31.278  13.775
28841W        W 1167  36.707  31.495   0.392
28842W        W 1168   2.340  40.513   1.264
28843W        W 1169  25.005   6.758   3.522
28844W        W 1170  12.714  18.288  11.193
28845W        W 1171  30.829  31.643  11.065
28846W        W 1172   4.782  14.859  14.258
28847W        W 1173  16.091  23.573   2.696
28848W        W 1174  23.825   8.851   0.364
28849W        W 1175   5.963  30.042   2.420
28850W        W 1176  34.685  27.188   4.174
28851W        W 1177   7.245  14.688   5.254
28852W        W 1178  15.433  26.369  10.174
28853W        W 1179  19.077  17.458   3.726
28854W        W 1180   9.753  12.358  13.909
28855W        W 1181  15.203  31.996   1.293
28856W        W 1182  31.653  17.223  14.792
28857W        W 1183  21.838   7.866   3.521
28858W        W 1184  36.821  11.765   0.779
28859W        W 1185  24.627   2.178   2.425
28860W        W 1186  12.171  28.385  14.329
28861W        W 1187   9.629  16.301  14.895
28862W        W 1188  33.968  35.068  14.592
28863W        W 1189  32.570  24.420  14.793
28864W        W 1190  18.250   5.040   0.009
28865W        W 1191  43.381  15.209   0.466
28866W        W 1192  19.301  27.862  14.807
28867W        W 1193  24.268  20.800   2.835
28868W        W 1194  16.494  36.939  14.853
28869W        W 1195  14.095  14.641  13.564
28870W        W 1196   3.682  23.109  10.247
28871W        W 1197   8.648   5.904   0.933
28872W        W 1198  27.811  23.125   0.297
28873W        W 1199  10.677  28.215  12.546
28874W        W 1200   3.929  21.229   2.751
28875W        W 1201  19.593   3.986  12.403
28876W        W 1202  15.993   6.924   0.053
28877W        W 1203  15.382  26.029   0.138
28878W        W 1204  29.477  24.736   3.977
28879W        W 1205   4.877   0.032  10.622
28880W        W 1206   4.602  35.622  12.903
28881W        W 1207  40.528  30.849   0.628
28882W        W 1208   4.185   2.822   2.127
28883W        W 1209  21.676   0.386   4.224
28884W        W 1210   9.985  42.194   2.310
28885W        W 1211  10.219  24.388  13.186
28886W        W 1212   3.371   5.642   0.911
28887W        W 1213  42.233  14.383  11.338
28888W        W 1214   2.257  25.018  12.984
28889W        W 1215   7.150  36.894  13.595
28890W        W 1216   1.896   5.135  13.003
28891W        W 1217  40.844   5.752  12.667
28892W        W 1218  33.872  33.004   2.773
28893W        W 1219  35.322  29.085   0.458
28894W        W 1220  38.142   1.355  11.557
28895W        W 1221  37.876  31.624   1.968
28896W        W 1222  24.761   6.449  12.903
28897W        W 1223  26.421  34.548  12.053
28898W        W 1224  31.450   4.494   4.169
28899W        W 1225   7.916  17.874   4.504
28900W        W 1226   3.924   9.890  11.651
28901W        W 1227  43.696   4.714   4.540
28902W        W 1228  22.083  41.336  11.539
28903W        W 1229  10.135  25.397  12.363
28904W        W 1230  31.447  16.881  11.484
28905W        W 1231  14.655  41.452   9.882
28906W        W 1232  17.282  26.000  12.559
28907W        W 1233  29.733  43.835   0.298
28908W        W 1234  21.205  10.817   4.449
28909W        W 1235   6.688  30.335  11.600
28910W        W 1236   4.823  22.137   3.184
28911W        W 1237  27.256  19.108  14.999
28912W        W 1238  22.145   0.483  12.921
28913W        W 1239   4.357  37.350   2.296
28914W        W 1240   4.758  21.580   0.391
28915W        W 1241  33.528  16.778   4.381
28916W        W 1242  31.660  41.876  14.645
28917W        W 1243  30.878   3.397   1.669
28918W        W 1244  12.181  23.121   1.281
28919W        W 1245   9.100  33.041   2.719
28920W        W 1246  34.015  41.624   2.729
28921W        W 1247  18.733  17.105   0.877
28922W        W 1248   0.648   5.378  12.526
28923W        W 1249  17.742  18.755  13.747
28924W        W 1250  41.872  22.209  12.924
28925W        W 1251  20.877   5.716   3.221
28926W        W 1252  33.367  21.106   1.039
28927W        W 1253   5.364  29.230  12.869
28928W        W 1254  31.609  13.261  11.569
28929W        W 1255  44.276  41.514   1.465
28930W        W 1256   6.770  27.485  14.784
28931W        W 1257  32.020  18.807  14.279
28932W        W 1258  36.461  34.392   4.612
28933W        W 1259  17.768  32.547   2.748
28934W        W 1260  18.123   1.713   2.265
28935W        W 1261   9.786   4.687  11.721
28936W        W 1262   0.003  17.586   3.517
28937W        W 1263  14.741  34.240  10.194
28938W        W 1264  44.532   0.834  14.911
28939W        W 1265  19.217  34.571  14.882
28940W        W 1266  39.845  40.886  12.475
28941W        W 1267  25.032  36.128   0.503
28942W        W 1268  34.009  19.765  10.949
28943W        W 1269  34.349  14.327  12.919
28944W        W 1270  39.272  36.802   4.646
28945W        W 1271   2.292  32.009  10.706
28946W        W 1272  36.143  18.204   1.195
28947W        W 1273  33.320  30.563  11.605
28948W        W 1274  17.503  12.745  12.643
28949W        W 1275   3.189   8.212  12.151
28950W        W 1276  29.613  41.252  11.412
28951W        W 1277  43.505  33.619   9.847
28952W        W 1278  38.038  21.487  14.247
28953W        W 1279  18.844   3.364  14.986
28954W        W 1280   4.826  32.466  12.963
28955W        W 1281  27.918  28.047  12.061
28956W        W 1282  13.797  43.582  14.728
28957W        W 1283  44.970   7.886  13.956
28958W        W 1284  27.687   6.879   2.791
28959W        W 1285   6.850   0.070   3.748
28960W        W 1286  40.954  17.169  10.812
28961W        W 1287   2.221  14.947   0.968
28962W        W 1288  28.101  23.461  11.314
28963W        W 1289  43.614  31.554   2.327
28964W        W 1290  30.702   8.725   3.803
28965W        W 1291  27.860  42.118   1.654
28966W        W 1292  34.282  35.240   4.095
28967W        W 1293   8.356  11.098  11.671
28968W        W 1294  22.540  14.388  13.953
28969W        W 1295   8.788  21.986   4.498
28970W        W 1296  17.451  20.008  14.315
28971W        W 1297  15.452  43.438  13.888
28972W        W 1298  36.790   6.124   2.378
28973W        W 1299   5.659  43.874  13.071
28974W        W 1300  40.231  39.311   4.457
28975W        W 1301  13.755  21.516  10.071
28976W        W 1302  21.753  24.082   0.979
28977W        W 1303  12.948  20.523   2.062
28978W        W 1304  24.752  20.912   2.698
28979W        W 1305   2.830   5.111  12.768
28980W        W 1306  11.223   7.844   1.471
28981W        W 1307  39.455   7.475   4.296
28982W        W 1308  19.876   2.033  12.555
28983W        W 1309  17.835  24.077  14.303
28984W        W 1310  16.772  13.663  14.838
28985W        W 1311   1.387  41.850   3.650
28986W        W 1312   5.834  21.510   2.402
28987W        W 1313  34.582   8.464   4.074
28988W        W 1314  32.019   9.278   1.008
28989W        W 1315  15.337  22.681  12.187
28990W        W 1316  30.811  25.568   3.147
28991W        W 1317  22.552  25.266  10.317
28992W        W 1318  24.567  30.693  13.619
28993W        W 1319  17.158  22.590   1.858
28994W        W 1320  31.077  24.920  13.868
28995W        W 1321   8.422  34.142   4.890
28996W        W 1322   7.395  35.585   3.733
28997W        W 1323  41.487  37.823  13.948
28998W        W 1324  28.204  34.018   5.032
28999W        W 1325  44.899  26.419  12.491
29000W        W 1326   5.237  17.078  11.924
29001W        W 1327  26.489  17.284   1.198
29002W        W 1328   2.603   9.801  11.047
29003W        W 1329  25.721  15.620   2.560
29004W        W 1330  15.765  23.573   4.535
29005W        W 1331  29.608  21.520   3.695
29006W        W 1332  16.850  29.398   0.068
29007W        W 1333   2.063  42.343  12.059
29008W        W 1334  30.390   0.385   0.857
29009W        W 1335  10.592  36.153  13.352
29010W        W 1336   1.743  33.399  14.717
29011W        W 1337   1.967  21.911  13.043
29012W        W 1338  36.950  19.530  11.730
29013W        W 1339  24.664  11.839  14.769
29014W        W 1340   8.676  11.162  10.376
29015W        W 1341  19.978  23.327   1.324
29016W        W 1342  16.624  34.854   3.091
29017W        W 1343  22.682   9.214   2.713
29018W        W 1344  18.293  31.608   0.401
29019W        W 1345  37.762  16.073   1.329
29020W        W 1346   2.981  15.843  12.578
29021W        W 1347  29.302  30.741   1.365
29022W        W 1348  11.868  26.089  14.474
29023W        W 1349  35.820  30.394  13.429
29024W        W 1350   0.404   8.424   2.707
29025W        W 1351   3.477   1.799  12.947
29026W        W 1352  36.777  35.510   9.854
29027W        W 1353  30.453   7.713   1.749
29028W        W 1354  20.068  12.613   1.350
29029W        W 1355   1.211  34.545   4.886
29030W        W 1356   2.076  36.797  13.841
29031W        W 1357  11.654  21.930   1.430
29032W        W 1358  24.050  31.887  14.006
29033W        W 1359  25.588  12.821   0.772
29034W        W 1360  30.466  17.416  12.302
29035W        W 1361   2.495  41.537  11.995
29036W        W 1362  25.736  14.149   4.513
29037W        W 1363  22.534  18.298  11.465
29038W        W 1364  29.399  24.695  10.388
29039W        W 1365  23.769   9.109   3.377
29040W        W 1366  31.487   3.709   4.610
29041W        W 1367  43.854  30.994   3.458
29042W        W 1368   2.187   5.834  12.282
29043W        W 1369   0.407  43.837  12.454
29044W        W 1370  27.913  39.911  12.038
29045W        W 1371  21.110  16.664  11.836
29046W        W 1372   1.003  15.737   1.764
29047W        W 1373  32.596  40.466  13.984
29048W        W 1374  43.929  38.951   2.860
29049W        W 1375  21.043   2.036   1.804
29050W        W 1376  35.750  43.953   0.389
29051W        W 1377  29.429  29.209  14.287
29052W        W 1378  19.402   3.803   0.935
29053W        W 1379  35.827  41.516  10.655
29054W        W 1380  30.457  36.830   0.843
29055W        W 1381  40.749  16.019  14.423
29056W        W 1382   6.723  20.898   2.776
29057W        W 1383   4.483  15.672   0.516
29058W        W 1384   5.722   9.651   1.864
29059W        W 1385  43.449  12.218   3.896
29060W        W 1386  11.132  22.158  14.715
29061W        W 1387  26.403  27.932   1.849
29062W        W 1388  37.044  23.224  10.750
29063W        W 1389   1.187  41.777   0.426
29064W        W 1390  34.533  14.800  12.975
29065W        W 1391  38.032  13.582  12.154
29066W        W 1392  23.460   5.297  14.066
29067W        W 1393  16.298  17.649   3.623
29068W        W 1394  13.342  27.846   4.651
29069W        W 1395   0.486  23.118  14.676
29070W        W 1396  20.091   1.713  13.336
29071W        W 1397  27.857  16.016  12.041
29072W        W 1398  28.540  22.010  13.937
29073W        W 1399  11.221  33.946   1.377
29074W        W 1400  37.897  14.233  13.994
29075W        W 1401  34.416  17.082  14.958
29076W        W 1402  28.531  30.459  12.737
29077W        W 1403  44.319  19.801  13.867
29078W        W 1404  21.280  24.295   0.869
29079W        W 1405  26.514   9.514   3.238
29080W        W 1406   1.918  18.996  14.560
29081W        W 1407  31.508   5.020   4.166
29082W        W 1408  27.394  10.846  12.588
29083W        W 1409  10.206  12.860   5.054
29084W        W 1410  40.541  42.420  14.249
29085W        W 1411  11.056  13.401   4.849
29086W        W 1412   7.162  29.500  10.727
29087W        W 1413   6.171  14.245  10.613
29088W        W 1414   1.035  32.119  14.537
29089W        W 1415  16.271  10.203  11.495
29090W        W 1416   3.884  19.130   3.754
29091W        W 1417   0.094   0.812   2.324
29092W        W 1418   1.362  30.114   0.223
29093W        W 1419   1.958  42.729   0.689
29094W        W 1420  19.275   7.556   3.658
29095W        W 1421  32.677   0.714   2.080
29096W        W 1422  36.310  15.590   0.273
29097W        W 1423  43.064  15.119   1.794
29098W        W 1424  27.875   2.223   2.680
29099W        W 1425  26.212   0.197  13.388
29100W        W 1426  33.916  41.910  11.553
29101W        W 1427   2.494  25.129  12.150
29102W        W 1428  42.522  31.151  10.432
29103W        W 1429   0.385  15.951   2.284
29104W        W 1430  12.270  24.244  13.532
29105W        W 1431  31.589  22.039  13.124
29106W        W 1432   5.713  15.875  11.500
29107W        W 1433  32.180  39.120   4.122
29108W        W 1434  34.686  27.108  13.806
29109W        W 1435  31.806   3.738  11.665
29110W        W 1436   4.160  24.625   1.453
29111W        W 1437   2.986  16.693  11.680
29112W        W 1438  15.247   6.302  11.982
29113W        W 1439   6.943   7.951  11.673
29114W        W 1440  28.113   7.434  11.144
29115W        W 1441  34.157   1.492  13.496
29116W        W 1442   2.443  37.830   1.791
29117W        W 1443  31.939   2.838  14.845
29118W        W 1444  30.511  13.107  12.035
29119W        W 1445  39.759  23.102   0.878
29120W        W 1446  20.640  24.699  13.821
29121W        W 1447  14.993  18.627   0.408
29122W        W 1448  25.227   9.706   4.091
29123W        W 1449  26.591  39.641  10.640
29124W        W 1450  39.522  38.359   4.650
29125W        W 1451  24.766  29.995  13.088
29126W        W 1452  42.439   9.773  10.711
29127W        W 1453  26.226  25.011  11.955
29128W        W 1454  26.736  13.268  12.518
29129W        W 1455   9.993  41.076   0.495
29130W        W 1456   2.845  22.800   3.747
29131W        W 1457  26.149  32.063  12.812
29132W        W 1458   0.374  22.707  14.351
29133W        W 1459  17.684   6.853  12.099
29134W        W 1460   3.734  13.693   1.258
29135W        W 1461  37.204  34.345   5.009
29136W        W 1462   5.136  40.546   3.348
29137W        W 1463  22.987  22.885  14.527
29138W        W 1464  27.465  39.940   1.806
29139W        W 1465  41.264  23.668   0.974
29140W        W 1466  27.739  43.719  11.637
29141W        W 1467  15.583   0.252   2.632
29142W        W 1468  21.769  37.167  12.037
29143W        W 1469   1.740  28.470   3.661
29144W        W 1470   7.212  12.412  13.843
29145W        W 1471   2.981  37.010   0.868
29146W        W 1472  40.866  33.987  12.056
29147W        W 1473  27.889   5.349   2.777
29148W        W 1474  39.617   5.748   2.425
29149W        W 1475  19.575   9.341   0.306
29150W        W 1476   6.110  34.872  13.503
29151W        W 1477  38.779  31.954   3.656
29152W        W 1478   2.958  41.854  13.953
29153W        W 1479  30.720  30.621   3.859
29154W        W 1480  36.294  37.027  11.108
29155W        W 1481  43.561   0.953  12.689
29156W        W 1482  39.438  27.042   4.139
29157W        W 1483  43.879   1.755  14.931
29158W        W 1484  44.229   0.764  13.015
29159W        W 1485  34.986   6.765   1.794
29160W        W 1486  25.195  13.690  14.427
29161W        W 1487  19.184  21.111   4.449
29162W        W 1488  26.886   3.166  10.625
29163W        W 1489   3.002  20.569  13.567
29164W        W 1490  37.881   6.287   4.834
29165W        W 1491   0.578  43.965   3.688
29166W        W 1492   3.140  34.581  13.251
29167W        W 1493  18.805  14.305   9.919
29168W        W 1494   9.741  29.133   3.541
29169W        W 1495  19.193  10.765  13.817
29170W        W 1496  26.597   3.165  13.807
29171W        W 1497  25.011  15.127   3.089
29172W        W 1498   2.423  27.022   2.124
29173W        W 1499  42.881   5.593  11.137
29174W        W 1500  28.105  39.004  14.891
29175W        W 1501  40.959  16.664   3.282
29176W        W 1502  16.333   6.912   1.776
29177W        W 1503  19.240  38.931   1.437
29178W        W 1504  23.031  37.284   1.829
29179W        W 1505  36.549  43.085   3.109
29180W        W 1506  36.235  43.512   3.276
29181W        W 1507  21.224  18.037  11.179
29182W        W 1508   5.319  28.220   2.695
29183W        W 1509  14.645  16.844  14.905
29184W        W 1510  12.415  42.298  13.311
29185W        W 1511  23.059  35.651  10.980
29186W        W 1512  29.988  30.195   4.720
29187W        W 1513  13.081  34.541   4.558
29188W        W 1514   2.953  17.207   3.876
29189W        W 1515  29.500  38.526  10.757
29190W        W 1516  25.022  11.368   4.953
29191W        W 1517  25.549  30.619  10.788
29192W        W 1518  30.081   8.652   4.847
29193W        W 1519  26.175  37.683  13.552
29194W        W 1520  16.878  19.173   4.086
29195W        W 1521   0.478   3.407  13.344
29196W        W 1522  43.281  39.221   4.133
29197W        W 1523  13.375  18.539   2.225
29198W        W 1524  10.937  38.703  11.534
29199W        W 1525  22.162  23.100   3.033
29200W        W 1526  22.498  36.072  12.420
29201W        W 1527  35.501   1.753  11.066
29202W        W 1528  29.805  10.273  14.427
29203W        W 1529  42.160  38.920  13.592
29204W        W 1530   1.472  35.916  13.978
29205W        W 1531  43.992  15.354   1.632
29206W        W 1532  11.626   1.068  12.062
29207W        W 1533   0.110  44.311  12.402
29208W        W 1534  40.040  22.963  12.870
29209W        W 1535   5.392  38.239  14.281
29210W        W 1536  25.069  18.769   1.479
29211W        W 1537  17.808  35.282   1.901
29212W        W 1538   7.219  19.833   1.523
29213W        W 1539  35.395  14.771   0.785
29214W        W 1540   4.399  34.059   4.108
29215W        W 1541  43.927  14.668  12.606
29216W        W 1542  36.522  44.925   0.365
29217W        W 1543  38.433  29.574  12.505
29218W        W 1544  34.581  16.152   4.673
29219W        W 1545  17.576   0.758   2.220
29220W        W 1546  26.786  19.163  13.706
29221W        W 1547  24.461  35.864   4.262
29222W        W 1548  43.011  13.675   0.268
29223W        W 1549   8.216  32.108   3.785
29224W        W 1550  14.601  41.960  12.400
29225W        W 1551   4.669  24.159   0.887
29226W        W 1552   3.866   1.305  11.957
29227W        W 1553  38.114  37.951   2.784
29228W        W 1554  22.500   3.308   2.361
29229W        W 1555   5.713   0.937   1.413
29230W        W 1556   0.842  40.138   2.079
29231W        W 1557  29.511  16.988   4.174
29232W        W 1558  24.403  36.886   3.269
29233W        W 1559  30.139  37.251   0.950
29234W        W 1560  40.505  36.935   0.729
29235W        W 1561   5.478  13.861  10.719
29236W        W 1562  10.869   0.412   2.954
29237W        W 1563  35.934   1.279  11.643
29238W        W 1564   3.274  39.428   3.772
29239W        W 1565  23.266  27.244   2.362
29240W        W 1566  32.705  26.150   1.729
29241W        W 1567  10.460  11.293  11.086
29242W        W 1568  42.286  30.146  14.354
29243W        W 1569  24.627  25.679   1.867
29244W        W 1570  12.851  14.104   2.777
29245W        W 1571  22.272  12.724   3.523
29246W        W 1572  38.369  36.816  14.806
29247W        W 1573  38.383   9.340   3.313
29248W        W 1574  26.658  28.145  13.488
29249W        W 1575  15.943  29.426  14.876
29250W        W 1576  24.957   2.446   0.416
29251W        W 1577  22.611  13.649  12.768
29252W        W 1578  20.799  23.649   3.626
29253W        W 1579   1.261  31.500   4.561
29254W        W 1580  15.392  31.634  12.564
29255W        W 1581  43.481  22.680   3.671
29256W        W 1582   6.923  33.496   1.560
29257W        W 1583  24.989  31.444  11.579
29258W        W 1584  44.173  24.537  14.959
29259W        W 1585  24.728  25.493  10.908
29260W        W 1586  40.974  17.969   3.794
29261W        W 1587  25.246  33.494  14.728
29262W        W 1588  28.104   2.352   3.884
29263W        W 1589  18.713  42.346  12.998
29264W        W 1590  17.572   2.381   2.438
29265W        W 1591   7.226  29.125   2.110
29266W        W 1592  13.470  35.155  10.389
29267W        W 1593  21.752  14.687  11.029
29268W        W 1594  25.507  33.785   3.186
29269W        W 1595  41.928  23.477  11.473
29270W        W 1596  14.663  42.916  12.402
29271W        W 1597  38.266  27.226  14.820
29272W        W 1598  33.384  31.173  14.415
29273W        W 1599  21.014  22.150   0.429
29274W        W 1600  12.518  33.545  14.835
29275W        W 1601  24.942  25.373   4.910
29276W        W 1602  39.518  11.712   2.946
29277W        W 1603  42.221   8.783   2.895
29278W        W 1604  16.806  30.388   1.271
29279W        W 1605  36.302  35.630  11.112
29280W        W 1606  10.602  41.403  11.919
29281W        W 1607  40.015   3.369  13.984
29282W        W 1608  34.277  27.475   0.650
29283W        W 1609  39.931   1.910  12.517
29284W        W 1610  37.495  43.613  12.934
29285W        W 1611  44.801  23.186  11.491
29286W        W 1612  28.107  27.434  13.489
29287W        W 1613  15.149  35.327   2.776
29288W        W 1614  13.093   8.454   3.798
29289W        W 1615   5.880  39.281   0.573
29290W        W 1616  26.946  24.622   2.410
29291W        W 1617  27.755  35.017   5.055
29292W        W 1618  28.484   3.426   1.996
29293W        W 1619  39.738  18.135  12.870
29294W        W 1620  29.487  32.437  11.044
29295W        W 1621   8.962  32.971  13.757
29296W        W 1622  29.030  36.010   3.593
29297W        W 1623  39.188   7.639   2.160
29298W        W 1624  32.375  38.377  14.313
29299W        W 1625   5.938  40.368   1.361
29300W        W 1626  20.780  10.272  12.415
29301W        W 1627  30.657   2.830  13.552
29302W        W 1628   6.694  39.996  13.503
29303W        W 1629  26.429  12.118   1.864
29304W        W 1630  26.071  44.956   3.845
29305W        W 1631  36.106  31.161   2.065
29306W        W 1632  33.193   1.281  11.082
29307W        W 1633  23.758   4.399   3.035
29308W        W 1634  32.994  21.135   1.418
29309W        W 1635  44.308  11.417   0.805
29310W        W 1636  11.267  24.806   5.629
29311W        W 1637  31.473  26.737  13.327
29312W        W 1638  28.356  29.349   2.731
29313W        W 1639  25.138  31.009   2.717
29314W        W 1640  15.648  43.579   3.255
29315W        W 1641  12.255  32.515   4.118
29316W        W 1642  44.494  39.571  14.331
29317W        W 1643  24.008   4.107  11.454
29318W        W 1644  34.884  19.265  14.485
29319W        W 1645  30.507  31.033  10.542
29320W        W 1646   8.795  19.727  11.368
29321W        W 1647   4.751  35.395   2.403
29322W        W 1648   0.302   8.407   0.299
29323W        W 1649  38.783  29.926   2.778
29324W        W 1650  33.997   7.567   0.194
29325W        W 1651   6.506  15.206  11.627
29326W        W 1652  12.195  20.548  14.792
29327W        W 1653  43.343  40.851  14.779
29328W        W 1654  27.429  33.040  10.937
29329W        W 1655   8.976  17.215  14.937
29330W        W 1656  41.038   6.826  10.747
29331W        W 1657  38.399  26.978  14.363
29332W        W 1658  41.304   3.965   1.146
29333W        W 1659  34.418   9.936  13.867
29334W        W 1660   4.259  11.722   1.520
29335W        W 1661  38.432  13.242   3.513
29336W        W 1662  12.490  39.789  13.005
29337W        W 1663  29.212  31.449  14.813
29338W        W 1664  35.460  20.516  11.147
29339W        W 1665  11.485  28.638   1.831
29340W        W 1666  19.593  42.924  11.677
29341W        W 1667   9.045   1.433   4.063
29342W        W 1668  33.036  27.206  12.334
29343W        W 1669  35.593  25.601  12.932
29344W        W 1670  28.167   4.154  13.772
29345W        W 1671  33.725   9.861  14.195
29346W        W 1672  22.647  33.549  12.824
29347W        W 1673  11.688  24.109   2.908
29348W        W 1674  25.891  37.479   2.857
29349W        W 1675  16.572   2.803  14.295
29350W        W 1676  13.822  17.195  10.590
29351W        W 1677  20.137  24.650  11.632
29352W        W 1678  36.296   7.337   3.862
29353W        W 1679  40.057  30.848  11.570
29354W        W 1680  39.995  14.808   4.612
29355W        W 1681  38.563  23.979  12.511
29356W        W 1682  15.766   5.387   0.946
29357W        W 1683  29.929  24.566   3.066
29358W        W 1684  23.800  21.522  11.078
29359W        W 1685  28.897  39.283  14.007
29360W        W 1686   3.351  21.697   1.803
29361W        W 1687  18.610  21.722   1.440
29362W        W 1688  36.615  24.373   1.844
29363W        W 1689   1.474  31.198  14.864
29364W        W 1690  23.749  22.530  13.999
29365W        W 1691  34.382  28.488  12.720
29366W        W 1692  13.255  43.693   3.131
29367W        W 1693  11.653  30.621  10.246
29368W        W 1694  11.920  11.755   3.682
29369W        W 1695  30.532  41.877   2.679
29370W        W 1696   4.406  16.570  11.827
29371W        W 1697  40.537  20.795   1.502
29372W        W 1698   7.940  35.614   3.677
29373W        W 1699  24.206  40.563   0.818
29374W        W 1700  22.274  20.563  11.485
29375W        W 1701  21.780  40.952   4.253
29376W        W 1702   0.335   4.181  10.720
29377W        W 1703   9.352  42.337   3.195
29378W        W 1704  16.060  17.334  11.209
29379W        W 1705  43.466  18.213   0.032
29380W        W 1706  30.110  22.663   0.651
29381W        W 1707  40.937  43.560   3.653
29382W        W 1708  31.691   8.290  14.498
29383W        W 1709  42.722  11.178  12.897
29384W        W 1710  42.297   1.744  13.275
29385W        W 1711   5.325  30.323  14.238
29386W        W 1712  19.198   7.261  11.234
29387W        W 1713  27.100  26.050   5.452
29388W        W 1714   7.274  14.851  11.918
29389W        W 1715   7.221   6.884   0.337
29390W        W 1716  33.968  41.855  14.942
29391W        W 1717  14.614   7.148   3.189
29392W        W 1718  19.050  23.106   4.082
29393W        W 1719  34.124  25.292   1.682
29394W        W 1720   6.093  41.918   5.143
29395W        W 1721  22.968  18.776   3.219
29396W        W 1722  14.849  31.476  13.423
29397W        W 1723   0.556  16.717   1.260
29398W        W 1724  13.506  10.344   5.067
29399W        W 1725  23.616  26.003  13.904
29400W        W 1726  40.308  42.108   3.258
29401W        W 1727  24.572  37.382  11.074
29402W        W 1728  11.919  10.584   4.156
29403W        W 1729  12.772  32.896   1.715
29404W        W 1730  25.008  34.389  13.702
29405W        W 1731  36.635  29.251  10.964
29406W        W 1732  10.947   8.957   4.130
29407W        W 1733   1.575   9.126  12.002
29408W        W 1734  32.266  38.003   0.685
29409W        W 1735  39.034  13.149  13.589
29410W        W 1736  25.054  28.465   4.527
29411W        W 1737  19.295  37.017  12.061
29412W        W 1738  35.250   0.718   1.338
29413W        W 1739  12.562  11.299   0.726
29414W        W 1740  37.728  39.401  13.111
29415W        W 1741   8.294  25.459   4.712
29416W        W 1742  40.211  14.292   1.734
29417W        W 1743  19.153   0.413   1.388
29418W        W 1744  43.782   9.335   3.615
29419W        W 1745   8.895  11.534  11.711
29420W        W 1746  38.699  16.558  13.566
29421W        W 1747  16.797  29.861   1.384
29422W        W 1748  18.984  11.871  12.130
29423W        W 1749  40.242   6.955   4.145
29424W        W 1750  23.201  44.454   4.585
29425W        W 1751  19.356  24.509   1.864
29426W        W 1752   7.635  42.739  14.932
29427W        W 1753  13.190  22.162   1.669
29428W        W 1754  26.970  11.562  12.896
29429W        W 1755  40.589  15.620   4.679
29430W        W 1756  41.887   9.173  12.409
29431W        W 1757  15.314   8.002   0.808
29432W        W 1758  24.164   0.340   0.039
29433W        W 1759  17.237  15.352  13.134
29434W        W 1760  41.366  23.699   2.292
29435W        W 1761   0.217  32.154   1.744
29436W        W 1762  33.052   5.540  14.802
29437W        W 1763  27.508   7.180   0.999
29438W        W 1764  44.898  33.409  12.812
29439W        W 1765  17.063  19.235  10.227
29440W        W 1766  12.612  25.714   2.854
29441W        W 1767  27.300  40.329  13.793
29442W        W 1768   6.884  24.595   4.064
29443W        W 1769   9.248  24.936   3.876
29444W        W 1770   6.336  32.867  14.513
29445W        W 1771  23.444  14.882  10.210
29446W        W 1772  33.454  42.454   1.950
29447W        W 1773  23.707  42.871   3.709
29448W        W 1774  31.530  13.261  14.060
29449W        W 1775  23.642   6.343  12.910
29450W        W 1776  29.407  40.220  11.250
29451W        W 1777   2.337   7.398   3.311
29452W        W 1778  27.365   2.331   1.359
29453W        W 1779   8.750  35.537   3.253
29454W        W 1780   6.765  14.787  12.030
29455W        W 1781  13.373  12.706  14.339
29456W        W 1782   2.574  20.641  13.844
29457W        W 1783  34.572  10.287   2.728
29458W        W 1784  24.704  11.342  14.501
29459W        W 1785  24.672  43.315  11.742
29460W        W 1786  40.019  12.625   3.258
29461W        W 1787  10.631   5.475   2.797
29462W        W 1788  34.873  39.994   0.790
29463W        W 1789  18.950  21.475   2.935
29464W        W 1790  16.551  34.442  13.818
29465W        W 1791  14.284  18.450  11.636
29466W        W 1792  14.050  38.506   1.833
29467W        W 1793  37.081  29.427  11.567
29468W        W 1794  19.532  36.079   3.328
29469W        W 1795  11.113  24.319  10.968
29470W        W 1796  32.520  33.002   1.327
29471W        W 1797  32.166   1.967  11.632
29472W        W 1798  19.110  43.437  14.558
29473W        W 1799  35.841   2.383   0.485
29474W        W 1800  29.814  14.302   2.265
29475W        W 1801  21.167   8.305  14.718
29476W        W 1802   9.911  25.988   3.269
29477W        W 1803  38.821   9.270  14.786
29478W        W 1804  32.165   8.447  11.472
29479W        W 1805  27.365  12.923   5.070
29480W        W 1806   0.365   5.109  13.903
29481W        W 1807  31.634  44.163  12.909
29482W        W 1808  41.101   5.877  12.024
29483W        W 1809   9.697  21.246   2.711
29484W        W 1810  43.100   7.861  11.237
29485W        W 1811  27.555  43.466  14.469
29486W        W 1812   9.364  28.416   1.298
29487W        W 1813  15.020  35.998  12.499
29488W        W 1814  22.026  10.738   1.689
29489W        W 1815   9.234  39.914   1.710
29490W        W 1816  18.662   9.195  13.487
29491W        W 1817  37.296  28.313   5.109
29492W        W 1818  35.275   8.173  14.405
29493W        W 1819   1.147  36.994  10.916
29494W        W 1820  37.353  14.652  13.000
29495W        W 1821  43.207  16.405  10.801
29496W        W 1822  24.510   0.896   2.112
29497W        W 1823  36.932   4.894   0.977
29498W        W 1824  10.918  11.229  12.275
29499W        W 1825  22.718  39.854   4.781
29500W        W 1826  13.072   7.115  11.610
29501W        W 1827  27.499  28.633   2.873
29502W        W 1828  12.139  38.993  14.389
29503W        W 1829   3.564  11.322   1.561
29504W        W 1830  36.674   2.758   0.555
29505W        W 1831   6.289  22.094   3.342
29506W        W 1832  22.111  14.496   1.490
29507W        W 1833  25.150  32.186   1.139
29508W        W 1834  39.757  40.863  13.006
29509W        W 1835  37.471  39.035   5.071
29510W        W 1836  23.631   2.766   3.535
29511W        W 1837   2.898  16.517  13.968
29512W        W 1838  15.633  18.009   3.438
29513W        W 1839   0.743  18.216   4.662
29514W        W 1840  32.509   0.350  14.493
29515W        W 1841  27.893   5.131  14.010
29516W        W 1842  43.196  26.935  12.264
29517W        W 1843  16.909  40.478   1.861
29518W        W 1844  33.415  38.301   2.135
29519W        W 1845  34.921  13.536  12.058
29520W        W 1846   7.493  33.170  12.035
29521W        W 1847   3.439  22.640  12.556
29522W        W 1848  20.178  41.375  14.210
29523W        W 1849  23.902  21.598   1.657
29524W        W 1850  10.780  42.056  13.733
29525W        W 1851  34.449  10.991   0.313
29526W        W 1852   3.186  38.931   2.816
29527W        W 1853  18.569  19.985   3.144
29528W        W 1854   5.879  14.073   0.930
29529W        W 1855  37.276  25.151  12.550
29530W        W 1856  26.685   9.359  14.388
29531W        W 1857  19.180  14.169  10.519
29532W        W 1858   9.125  36.312   0.341
29533W        W 1859   2.216  25.076  11.723
29534W        W 1860  25.256  37.581   0.407
29535W        W 1861  30.403   1.292  13.770
29536W        W 1862  43.420  19.505  13.823
29537W        W 1863  10.460  34.330   2.774
29538W        W 1864  17.236   5.984   1.677
29539W        W 1865  19.252  17.882   2.414
29540W        W 1866  27.168   1.759   9.875
29541W        W 1867   3.931  20.833  13.434
29542W        W 1868   5.483  27.936   3.677
29543W        W 1869  37.945   8.332  14.200
29544W        W 1870  21.583  39.285  10.678
29545W        W 1871  39.458  24.746   1.935
29546W        W 1872  30.191  30.447  12.999
29547W        W 1873  33.014  36.182  11.387
29548W        W 1874  29.566  41.832   2.806
29549W        W 1875  37.468  26.986  14.662
29550W        W 1876  32.569  16.970  13.795
29551W        W 1877  18.915  39.231  13.824
29552W        W 1878  27.027  13.835   3.657
29553W        W 1879  20.711  14.532   3.049
29554W        W 1880  34.947  14.859   1.498
29555W        W 1881  25.387   0.996  14.215
29556W        W 1882  11.687  43.383  10.315
29557W        W 1883  39.334  33.211  12.418
29558W        W 1884  11.880  39.585  11.940
29559W        W 1885  15.129  38.101  12.615
29560W        W 1886   6.166  44.536   0.309
29561W        W 1887  32.375  34.325  12.059
29562W        W 1888   4.011  34.047  12.279
29563W        W 1889  32.436  19.509   0.411
29564W        W 1890  43.786   8.891   0.203
29565W        W 1891  44.786  34.865  12.479
29566W        W 1892  41.652  24.580   1.270
29567W        W 1893  42.477  35.121  12.071
29568W        W 1894   6.440  34.343  14.335
29569W        W 1895  34.533  41.634  13.967
29570W        W 1896  12.523  33.474   1.242
29571W        W 1897  44.563  37.024  11.449
29572W        W 1898  30.542   2.698   1.678
29573W        W 1899   8.788  31.998   1.068
29574W        W 1900  37.046  12.738  13.079
29575W        W 1901  25.082  18.478   3.816
29576W        W 1902   4.628  39.120  12.035
29577W        W 1903  23.712  16.082   1.645
29578W        W 1904  40.560  20.542  11.847
29579W        W 1905  13.246  19.203   2.686
29580W        W 1906  42.020  42.541  11.463
29581W        W 1907  27.011  33.195  12.077
29582W        W 1908  44.165  37.513  14.928
29583W        W 1909  37.745  34.428  13.507
29584W        W 1910  13.624  41.375  13.024
29585W        W 1911  43.014  33.473  11.546
29586W        W 1912  22.184   6.476  13.235
29587W        W 1913  10.266   5.380  13.846
29588W        W 1914  36.725  34.358   3.674
29589W        W 1915   4.364  41.792  14.932
29590W        W 1916  37.945  13.115   3.661
29591W        W 1917  44.947  20.695  12.925
29592W        W 1918  42.534  20.368  10.373
29593W        W 1919   1.580   8.337   0.688
29594W        W 1920  12.946  24.612  11.890
29595W        W 1921  28.211  14.084  14.481
29596W        W 1922  36.304  20.309   3.666
29597W        W 1923  41.839  31.515   4.810
29598W        W 1924  27.598  34.748   4.064
29599W        W 1925  19.247  29.629   4.228
29600W        W 1926  29.514  22.579  13.495
29601W        W 1927   0.538   0.156   3.377
29602W        W 1928  40.959  40.051   2.722
29603W        W 1929  13.140  15.742  14.565
29604W        W 1930  26.656  20.061  13.782
29605W        W 1931  44.250  27.628  11.113
29606W        W 1932   5.549  18.017  14.395
29607W        W 1933  14.288  13.397  12.931
29608W        W 1934  19.311   7.118   3.983
29609W        W 1935  14.053   2.137  12.755
29610W        W 1936  25.763  41.304  11.517
29611W        W 1937  12.117  27.160  13.880
29612W        W 1938  37.373  11.212  12.813
29613W        W 1939  41.659  39.804  13.536
29614W        W 1940  18.057  42.283   3.084
29615W        W 1941   6.171  18.221   2.392
29616W        W 1942   3.092  44.867  12.430
29617W        W 1943  10.499   9.019   0.987
29618W        W 1944   4.811  21.662   4.435
29619W        W 1945  15.807  17.335  10.754
29620W        W 1946  19.606  44.956  12.148
29621W        W 1947  41.327  13.568  13.495
29622W        W 1948  41.336   0.362   3.157
29623W        W 1949   4.343  29.532   1.394
29624W        W 1950  11.188   2.722  12.312
29625W        W 1951  27.551   8.693   2.757
29626W        W 1952  38.767   7.409  12.085
29627W        W 1953  39.491  16.382  12.522
29628W        W 1954   9.705  41.039   4.298
29629W        W 1955  22.072  40.287  10.039
29630W        W 1956   9.104  43.350   3.257
29631W        W 1957  39.233  14.954   3.639
29632W        W 1958  23.509  30.432   3.037
29633W        W 1959  11.117  44.883   4.250
29634W        W 1960  36.574  19.067  12.424
29635W        W 1961   1.173  21.719  14.871
29636W        W 1962  34.091   8.070   0.270
29637W        W 1963  10.408  24.636   1.823
29638W        W 1964  34.252   6.187   2.399
29639W        W 1965   6.480  42.771   5.181
29640W        W 1966  30.361  34.042  13.995
29641W        W 1967  41.567  24.606  12.589
29642W        W 1968  18.821  12.822   3.694
29643W        W 1969  14.855   4.811  10.433
29644W        W 1970   8.712   9.205   2.509
29645W        W 1971   2.785   6.831  14.268
29646W        W 1972  19.490  43.564  10.827
29647W        W 1973  18.969  32.263  10.783
29648W        W 1974   8.122  11.334   3.732
29649W        W 1975  26.060  19.491  10.877
29650W        W 1976  35.416  19.819  13.029
29651W        W 1977  28.118   8.368  14.315
29652W        W 1978   8.925   0.321  13.725
29653W        W 1979  12.734  13.136   2.742
29654W        W 1980  44.303  15.685   3.730
29655W        W 1981   2.406  14.860   4.112
29656W        W 1982  41.210  31.621  12.999
29657W        W 1983  28.398   3.781  14.049
29658W        W 1984  35.280  13.707   0.049
29659W        W 1985  10.213  33.461   0.585
29660W        W 1986   8.473  32.073   3.352
29661W        W 1987  27.119  42.548   0.431
29662W        W 1988   7.394   9.088  13.857
29663W        W 1989  26.581  19.647  13.407
29664W        W 1990   3.831  29.583   1.370
29665W        W 1991  42.197  13.600  13.936
29666W        W 1992   5.930  32.346  11.676
29667W        W 1993  43.054  32.181   5.089
29668W        W 1994   7.836  36.982  14.207
29669W        W 1995  43.212  26.321  10.964
29670W        W 1996  27.106  33.338  10.052
29671W        W 1997  15.126   1.733   4.206
29672W        W 1998  25.595  37.962   3.873
29673W        W 1999  21.668   0.953   0.395
29674W        W 2000  16.199  13.642   3.624
29675W        W 2001  18.497  17.068   3.110
29676W        W 2002  30.175   6.488  11.141
29677W        W 2003   8.568   3.330   0.869
29678W        W 2004   9.640  15.804  12.675
29679W        W 2005  39.759  40.872   3.282
29680W        W 2006  15.051  30.466  14.996
29681W        W 2007  42.789  19.617   0.018
29682W        W 2008  27.541  20.786  12.864
29683W        W 2009  37.358  37.429   4.595
29684W        W 2010  19.205  21.964  12.649
29685W        W 2011  38.835  23.776  11.165
29686W        W 2012   4.718  43.604   0.693
29687W        W 2013  39.966  15.317  12.059
29688W        W 2014  39.518  22.774  11.080
29689W        W 2015  17.669   9.164  12.125
29690W        W 2016  23.411  27.054  13.850
29691W        W 2017  19.904  24.133  12.454
29692W        W 2018   2.405  13.283   4.447
29693W        W 2019   6.480  13.657  11.624
29694W        W 2020  44.914  39.153  13.955
29695W        W 2021  41.049  32.578   2.356
29696W        W 2022  44.810   3.089  10.285
29697W        W 2023  33.992  17.066   4.441
29698W        W 2024  43.262  36.190  11.192
29699W        W 2025  29.228  39.025  12.591
29700W        W 2026  16.128   3.486   3.641
29701W        W 2027  36.021  42.027  11.527
29702W        W 2028  23.861  35.647   0.351
29703W        W 2029   5.986  25.175  14.361
29704W        W 2030  26.144  11.337  11.879
29705W        W 2031  12.383  25.775  12.326
29706W        W 2032  27.507   0.890   1.485
29707W        W 2033  10.716  18.594   4.638
29708W        W 2034  19.425   1.362  14.904
29709W        W 2035  10.768   6.238  14.275
29710W        W 2036  34.109  30.052  11.533
29711W        W 2037  12.313  20.157  13.990
29712W        W 2038  13.842   8.327  13.585
29713W        W 2039  32.387  22.591   2.790
29714W        W 2040   8.279  33.846   4.157
29715W        W 2041   8.593   9.461   4.114
29716W        W 2042  16.851  24.599   4.538
29717W        W 2043  37.768  44.266   1.985
29718W        W 2044  31.105  23.683  14.486
29719W        W 2045  34.473   7.842  14.023
29720W        W 2046  35.869   9.856   0.686
29721W        W 2047  40.068  37.472   3.251
29722W        W 2048  20.875  31.634   0.708
29723W        W 2049   3.705  29.799   4.536
29724W        W 2050  21.533  40.885   4.759
29725W        W 2051  29.588   2.066  14.843
29726W        W 2052  44.532  17.662   3.612
29727W        W 2053   6.195  32.163   4.587
29728W        W 2054  25.144  43.325   3.990
29729W        W 2055  27.573   8.928   3.669
29730W        W 2056   8.350  23.540   3.905
29731W        W 2057  35.301   7.190   2.851
29732W        W 2058  43.105  24.108   5.038
29733W        W 2059  41.431   1.794  10.896
29734W        W 2060  36.910   5.668   2.167
29735W        W 2061  16.372  40.413  10.962
29736W        W 2062  31.501  10.622  12.209
29737W        W 2063  19.636  12.621  13.022
29738W        W 2064  25.995   0.744   0.381
29739W        W 2065  24.206  14.806  10.388
29740W        W 2066  16.678  28.100   0.509
29741W        W 2067   6.156   6.458  13.928
29742W        W 2068  12.206  19.556  12.809
29743W        W 2069   1.154  23.798   2.046
29744W        W 2070  40.380   4.159  12.618
29745W        W 2071  27.077   9.455   3.917
29746W        W 2072   2.011   4.963   5.680
29747W        W 2073  44.618  19.416   1.994
29748W        W 2074   3.700  23.556  14.027
29749W        W 2075  28.036   7.064   1.747
29750W        W 2076  28.894  11.291  11.023
29751W        W 2077  38.216  12.083  13.488
29752W        W 2078  11.669  17.809   3.734
29753W        W 2079   6.980  17.825  13.022
29754W        W 2080  44.401  11.816   0.459
29755W        W 2081  24.636  42.859  11.995
29756W        W 2082  12.074   7.926  10.710
29757W        W 2083  27.595  31.297  11.300
29758W        W 2084  16.349   3.355   4.084
29759W        W 2085   6.465  33.190   2.262
29760W        W 2086   8.210  33.964  14.728
29761W        W 2087  31.573  34.683   3.424
29762W        W 2088   8.332  24.526  11.542
29763W        W 2089  15.554  17.692  12.303
29764W        W 2090  18.939   5.418  12.462
29765W        W 2091  40.836   6.235  12.954
29766W        W 2092  26.619  17.866   3.479
29767W        W 2093  17.133  32.455   3.069
29768W        W 2094   3.094  24.258   0.565
29769W        W 2095  24.259  28.719  12.970
29770W        W 2096   9.359  19.998   2.304
29771W        W 2097   6.741  11.241   1.365
29772W        W 2098  20.805  37.918   4.620
29773W        W 2099   9.786  15.816  13.610
29774W        W 2100  25.629  23.149   3.443
29775W        W 2101  41.608  37.813   1.826
29776W        W 2102  10.841   2.517  13.524
29777W        W 2103  27.606  37.247  14.990
29778W        W 2104  29.933  42.499  14.044
29779W        W 2105  44.988  35.933   2.538
29780W        W 2106  18.658   0.378   1.256
29781W        W 2107   4.397  25.032   1.235
29782W        W 2108  25.586  10.474  12.316
29783W        W 2109  11.707   5.189  13.920
29784W        W 2110  21.241  14.403   0.228
29785W        W 2111  27.514  43.475   0.527
29786W        W 2112  11.512   4.517  11.021
29787W        W 2113   3.717  41.297   1.265
29788W        W 2114  30.878  19.991   1.675
29789W        W 2115  14.791  19.515  14.290
29790W        W 2116   6.173  33.885  14.348
29791W        W 2117  30.986  26.013  13.627
29792W        W 2118  38.111   0.658  13.547
29793W        W 2119  38.001  17.091  10.672
29794W        W 2120  31.633   8.422   0.848
29795W        W 2121  21.607  27.457  14.852
29796W        W 2122  30.502  37.940  10.387
29797W        W 2123  40.061  32.717   2.399
29798W        W 2124  29.329  21.117   0.313
29799W        W 2125  19.705  15.225  13.860
29800W        W 2126   3.874   2.875  14.455
29801W        W 2127  14.105  32.132  13.036
29802W        W 2128  16.524  44.490  12.061
29803W        W 2129  11.686   3.645   1.678
29804W        W 2130  44.800  25.103   0.266
29805W        W 2131  43.676  17.070  12.465
29806W        W 2132  20.536  13.760  11.839
29807W        W 2133  35.001  31.077   3.290
29808W        W 2134  43.967   3.453   5.049
29809W        W 2135  41.444   7.859   2.316
29810W        W 2136  14.879   5.465  11.122
29811W        W 2137  37.639  35.609  13.364
29812W        W 2138  33.268   0.948   4.771
29813W        W 2139  19.548  26.567   0.752
29814W        W 2140  41.828  32.467  11.236
29815W        W 2141   8.104  38.360  14.929
29816W        W 2142   9.432  24.424   3.877
29817W        W 2143  35.752  19.754  10.835
29818W        W 2144  15.132   7.693  11.601
29819W        W 2145  19.704  30.594   1.488
29820W        W 2146  40.120  21.513  11.335
29821W        W 2147  13.655  10.884   2.709
29822W        W 2148  40.278  12.103  14.873
29823W        W 2149   1.186   2.062   0.834
29824W        W 2150  43.984  38.355  11.988
29825W        W 2151  13.090  14.088  11.150
29826W        W 2152  17.458   6.338  12.486
29827W        W 2153  44.672   3.806  13.173
29828W        W 2154  40.759  15.125   1.700
29829W        W 2155  29.525   5.359   3.206
29830W        W 2156   1.997   2.358   0.741
29831W        W 2157   9.287  26.495  10.455
29832W        W 2158  30.642   6.998  12.284
29833W        W 2159  40.262  11.870   4.733
29834W        W 2160  32.038   6.426  10.761
29835W        W 2161  13.789  14.323  13.889
29836W        W 2162   5.135   2.702   1.761
29837W        W 2163  42.521  32.529   1.412
29838W        W 2164  12.858   7.854  11.132
29839W        W 2165   2.389   8.576  14.826
29840W        W 2166  23.994   6.861  12.441
29841W        W 2167   5.381  11.757   2.107
29842W        W 2168  41.287  32.443   2.804
29843W        W 2169  12.089   6.732   2.342
29844W        W 2170  12.599  30.134   1.737
29845W        W 2171  19.830  13.158  13.817
29846W        W 2172  24.235  35.355  14.569
29847W        W 2173   4.017  38.261   0.455
29848W        W 2174   8.246  23.554  11.842
29849W        W 2175  14.238  40.391  14.570
29850W        W 2176  33.564  14.858  10.742
29851W        W 2177  28.572  18.140   1.661
29852W        W 2178  32.353  26.909  11.208
29853W        W 2179   5.601  27.461  13.283
29854W        W 2180  27.547  21.411  11.073
29855W        W 2181  16.116  23.236   1.195
29856W        W 2182  35.943  36.326   3.512
29857W        W 2183  32.015  11.745  14.940
29858W        W 2184  24.002  11.507   1.772
29859W        W 2185  27.297  20.052  14.078
29860W        W 2186  11.750  26.566  13.951
29861W        W 2187  23.239  34.362   3.542
29862W        W 2188  38.522  21.806  13.819
29863W        W 2189  43.353   7.630  12.979
29864W        W 2190  24.783  16.056   0.457
29865W        W 2191  25.543   0.964  11.009
29866W        W 2192  22.792  15.753   1.169
29867W        W 2193  20.389  40.985  14.479
29868W        W 2194  17.299  41.893   2.759
29869W        W 2195  44.296  21.021   3.702
29870W        W 2196  34.188  16.374   2.300
29871W        W 2197  17.138   0.328   3.538
29872W        W 2198  26.380  26.486   0.970
29873W        W 2199  14.694  28.893   4.193
29874W        W 2200   3.509  24.251   2.008
29875W        W 2201  20.475  44.599  10.230
29876W        W 2202   8.738  18.790   1.323
29877W        W 2203  42.888  37.663   5.192
29878W        W 2204  17.294  26.605   4.593
29879W        W 2205   5.748  44.940   1.253
29880W        W 2206  26.358  21.114  14.398
29881W        W 2207  11.567  40.414  11.988
29882W        W 2208  30.060  27.654   0.233
29883W        W 2209  30.187  13.066  14.711
29884W        W 2210  34.461  22.551   1.708
29885W        W 2211  13.312  35.952   1.834
29886W        W 2212  25.395  12.126  13.647
29887W        W 2213  42.573  34.979   0.281
29888W        W 2214   5.141  30.076   2.262
29889W        W 2215  23.439  21.124  10.362
29890W        W 2216  44.475  16.186  14.968
29891W        W 2217  32.299  25.984  11.684
29892W        W 2218  40.396  24.715  14.365
29893W        W 2219   1.197  39.294  14.946
29894W        W 2220  41.188  41.942   1.391
29895W        W 2221   0.409  41.283  13.324
29896W        W 2222  20.965  26.601   3.311
29897W        W 2223  13.664  43.234  11.663
29898W        W 2224  19.589   7.927  13.029
29899W        W 2225  36.790   8.951   1.961
29900W        W 2226   0.757   7.352   4.767
29901W        W 2227  18.291  13.662  12.597
29902W        W 2228   6.842  44.575   3.581
29903W        W 2229  36.996  13.333  11.560
29904W        W 2230   1.481  23.601  13.047
29905W        W 2231  20.483  21.647   2.794
29906W        W 2232  10.900  35.144  11.501
29907W        W 2233  25.454   9.080  13.022
29908W        W 2234  37.764  36.064  13.871
29909W        W 2235  43.586  37.599  12.091
29910W        W 2236  38.780   5.879  10.715
29911W        W 2237  12.026  22.983  13.877
29912W        W 2238   6.215  40.997   1.336
29913W        W 2239  23.436  22.507  11.881
29914W        W 2240  27.607  17.800   4.373
29915W        W 2241  40.880  24.912   0.398
29916W        W 2242   1.003   9.001  10.830
29917W        W 2243  28.606  38.114   4.563
29918W        W 2244   6.959  29.222  11.164
29919W        W 2245  35.785  12.364   0.778
29920W        W 2246   3.950  27.684  10.258
29921W        W 2247  11.891  23.934   2.465
29922W        W 2248   4.714  16.704   1.615
29923W        W 2249   2.114  11.441   5.022
29924W        W 2250  31.201   9.680   2.308
29925W        W 2251  40.908  15.175   3.422
29926W        W 2252   6.895  19.060   2.607
29927W        W 2253   8.893  15.328   3.622
29928W        W 2254  18.236  29.829   2.741
29929W        W 2255   2.008  10.373  11.575
29930W        W 2256  43.964   6.333   2.239
29931W        W 2257  39.952  10.863  12.024
29932W        W 2258   7.753  10.602  11.989
29933W        W 2259  11.450  19.035  12.998
29934W        W 2260   7.667  28.500   1.720
29935W        W 2261  43.600  12.844   1.817
29936W        W 2262  38.984  19.396  12.628
29937W        W 2263  44.881  15.230  11.359
29938W        W 2264  22.317  32.159   0.877
29939W        W 2265   5.245  18.979  11.216
29940W        W 2266  43.455  11.425   3.237
29941W        W 2267  31.410  33.955   4.050
29942W        W 2268  35.550  33.454  13.028
29943W        W 2269  13.698   2.607  12.507
29944W        W 2270   1.008  11.931  13.372
29945W        W 2271  11.866  30.473   0.705
29946W        W 2272  18.728  34.960  12.351
29947W        W 2273  23.604  22.737  12.711
29948W        W 2274  24.941  26.877  12.419
29949W        W 2275  44.870  26.543   2.674
29950W        W 2276  37.580  23.266   2.152
29951W        W 2277  43.909  41.169   4.015
29952W        W 2278  38.981  13.778  14.417
29953W        W 2279  26.541  32.357  12.047
29954W        W 2280   9.100  29.720  11.159
29955W        W 2281  35.802   7.263   3.736
29956W        W 2282  36.152   9.099   0.431
29957W        W 2283  36.221  16.189   1.346
29958W        W 2284  23.344  14.053  11.589
29959W        W 2285  24.175   1.683   1.676
29960W        W 2286  15.148  38.564   3.602
29961W        W 2287  32.756  23.559   4.627
29962W        W 2288  42.912  20.114   0.406
29963W        W 2289  13.665  21.770   2.475
29964W        W 2290  17.525  39.713   2.149
29965W        W 2291  15.173  33.684   0.452
29966W        W 2292  17.944  22.094   2.200
29967W        W 2293  19.131  22.189  10.823
29968W        W 2294  40.574   2.451   3.302
29969W        W 2295  31.608  36.825  14.994
29970W        W 2296  42.808  37.462  13.731
29971W        W 2297  18.338   2.809   4.293
29972W        W 2298  41.364  44.007  14.464
29973W        W 2299  43.044  41.010  11.586
29974W        W 2300  42.581   9.392  11.987
29975W        W 2301   2.179  40.020   0.237
29976W        W 2302  13.176  13.829  10.559
29977W        W 2303  28.162  15.030  14.833
29978W        W 2304   2.127  44.786  10.680
29979W        W 2305   3.789  39.400   1.422
29980W        W 2306  32.655  17.193  10.745
29981W        W 2307  25.413  44.314  10.301
29982W        W 2308  27.873   1.488  10.860
29983W        W 2309  10.635  22.545  10.682
29984W        W 2310   5.810  32.536   4.588
29985W        W 2311  43.463  32.668   4.700
29986W        W 2312  21.468  40.412   2.662
29987W        W 2313   9.874  23.473  13.385
29988W        W 2314  41.610  26.179  13.607
29989W        W 2315  11.851  24.328   3.399
29990W        W 2316  16.071   5.410  13.121
29991W        W 2317  22.241  42.143  11.583
29992W        W 2318  35.031  12.158  11.404
29993W        W 2319  25.028   6.807   4.518
29994W        W 2320   4.833  23.502   4.537
29995W        W 2321  20.211  36.910   4.791
29996W        W 2322  13.381  43.931  12.855
29997W        W 2323  43.982   8.409  10.436
29998W        W 2324  16.641   0.196   3.608
29999W        W 2325  22.595   2.551  11.540
30000W        W 2326  27.441  16.247  10.705
30001W        W 2327  38.059  15.072   0.754
30002W        W 2328   9.819   1.221   4.502
30003W        W 2329  15.302  18.138  11.097
30004W        W 2330  34.098  43.921   2.716
30005W        W 2331  43.362  34.899  13.887
30006W        W 2332  13.533  29.915   0.508
30007W        W 2333  44.457  22.259  11.960
30008W        W 2334  33.449   5.946   4.588
30009W        W 2335  23.847  13.747  11.161
30010W        W 2336   2.702  31.054   0.467
30011W        W 2337  33.436  18.271   4.132
30012W        W 2338  23.091   8.655  14.708
30013W        W 2339  25.909  26.259  13.513
30014W        W 2340   4.878  37.621   0.381
30015W        W 2341  22.505  28.123  10.736
30016W        W 2342  27.143  18.167   1.888
30017W        W 2343  16.035  35.323  13.084
30018W        W 2344  32.714  42.515  11.273
30019W        W 2345  44.311  22.168   3.301
30020W        W 2346   4.384   8.455   3.272
30021W        W 2347  30.680  43.803   3.208
30022W        W 2348  43.306   6.733   1.784
30023W        W 2349  35.568   3.997   4.162
30024W        W 2350   6.775  31.086   3.575
30025W        W 2351  32.117  20.077  14.705
30026W        W 2352  11.564  44.983   0.277
30027W        W 2353  22.752  27.244   0.487
30028W        W 2354  15.271  22.828  11.364
30029W        W 2355  16.864  29.513  13.360
30030W        W 2356  10.897  35.928  11.095
30031W        W 2357  35.775   7.340  11.820
30032W        W 2358  32.586  41.962   3.745
30033W        W 2359  26.758  27.155  11.526
30034W        W 2360  43.458   3.393   0.714
30035W        W 2361   0.954  19.756   0.886
30036W        W 2362   7.277  17.209   3.613
30037W        W 2363   9.333  26.146  11.443
30038W        W 2364  31.654  36.001  14.224
30039W        W 2365  38.948   0.748  12.555
30040W        W 2366  44.273  27.423   3.225
30041W        W 2367  43.770  40.398  13.102
30042W        W 2368  34.809  22.800   4.996
30043W        W 2369  31.655   5.270   4.855
30044W        W 2370   5.864  35.011  14.316
30045W        W 2371  31.133  27.660  13.719
30046W        W 2372   2.730  16.738   0.691
30047W        W 2373  26.262   6.795  12.030
30048W        W 2374  39.932  10.207   3.613
30049W        W 2375   0.899  44.377   3.767
30050W        W 2376  11.856  29.029   5.386
30051W        W 2377  31.886   1.247  12.474
30052W        W 2378  41.557  23.311   4.183
30053W        W 2379  42.062  28.591   1.891
30054W        W 2380  21.458   4.183   0.131
30055W        W 2381  21.057  32.412  14.946
30056W        W 2382  14.143   5.679   3.888
30057W        W 2383  21.979   9.602  10.722
30058W        W 2384  32.997  36.762  14.828
30059W        W 2385  32.117  23.990  12.463
30060W        W 2386  44.867  38.547  13.496
30061W        W 2387   8.941   1.771   4.504
30062W        W 2388  18.154  40.552   1.424
30063W        W 2389  39.203   7.275  11.843
30064W        W 2390  14.204  27.044   5.029
30065W        W 2391  37.546  21.417  13.957
30066W        W 2392  27.630  30.575  11.446
30067W        W 2393  14.257   7.765  12.522
30068W        W 2394  30.854   0.788  12.402
30069W        W 2395  34.135   3.389  11.365
30070W        W 2396  29.178  42.042  12.106
30071W        W 2397  11.503  13.931   0.542
30072W        W 2398  35.478  26.561  13.982
30073W        W 2399  37.889  12.729   3.092
30074W        W 2400  14.466  17.620   4.181
30075W        W 2401   0.643  21.759  14.890
30076W        W 2402  30.922   9.855   1.870
30077W        W 2403  20.203  15.410  13.777
30078W        W 2404  22.748   6.098  11.657
30079W        W 2405  36.295   1.622  12.993
30080W        W 2406  43.789  30.984   3.972
30081W        W 2407  27.600  17.192   0.936
30082W        W 2408  39.441  19.538  12.945
30083W        W 2409  14.782  44.004  14.173
30084W        W 2410  12.233   3.632  14.484
30085W        W 2411  30.878  11.512   4.553
30086W        W 2412  12.624   8.288  12.927
30087W        W 2413  13.159  41.321  11.246
30088W        W 2414   8.846  21.548  12.143
30089W        W 2415   7.331  28.119   0.751
30090W        W 2416  22.505   8.829  11.507
30091W        W 2417  10.736  11.778  13.503
30092W        W 2418  25.260   0.828   1.755
30093W        W 2419  41.396  24.255  11.597
30094W        W 2420  43.247  17.733   4.468
30095W        W 2421  29.186  10.817  10.651
30096W        W 2422  42.279  31.723   3.145
30097W        W 2423   8.341  22.056   1.326
30098W        W 2424  26.222   7.958  12.409
30099W        W 2425  15.258  36.969  11.959
30100W        W 2426  35.292   4.933  12.148
30101W        W 2427   1.072  18.279  12.597
30102W        W 2428   9.930   9.043   2.878
30103W        W 2429   9.359  44.525  12.592
30104W        W 2430  25.483  24.297   2.392
30105W        W 2431  22.968   8.460   4.735
30106W        W 2432   5.975  14.741  10.682
30107W        W 2433  16.283  23.971  12.966
30108W        W 2434  19.235  39.227  10.799
30109W        W 2435  25.461  30.544   0.205
30110W        W 2436  44.458  35.317   3.207
30111W        W 2437  25.970  14.817   4.678
30112W        W 2438  32.790  34.046   3.539
30113W        W 2439  25.199  43.807  14.929
30114W        W 2440  40.399  23.063   4.598
30115W        W 2441  23.035  31.007  12.853
30116W        W 2442  41.397  24.133  12.469
30117W        W 2443  28.912  18.006   4.568
30118W        W 2444  37.474   3.977  12.813
30119W        W 2445  32.527  22.734  12.473
30120W        W 2446   9.628  43.702   2.289
30121W        W 2447  39.644  29.366   1.828
30122W        W 2448  17.002  33.408  11.062
30123W        W 2449  22.560  13.790   1.201
30124W        W 2450  25.730   8.669   2.003
30125W        W 2451  10.213  43.268  11.580
30126W        W 2452  19.100   8.844  12.357
30127W        W 2453  15.720   4.625   1.936
30128W        W 2454  32.188   8.793  13.070
30129W        W 2455   7.749  38.389  10.922
30130W        W 2456  14.131  40.822  11.045
30131W        W 2457   2.219  41.733   3.094
30132W        W 2458  12.359   5.173  11.319
30133W        W 2459  23.364   1.754   4.680
30134W        W 2460  29.555  36.526   4.156
30135W        W 2461   0.041  24.203   3.596
30136W        W 2462  11.907  37.531  11.068
30137W        W 2463   4.011  43.367   3.225
30138W        W 2464  30.341   7.367  12.581
30139W        W 2465  23.527  17.252   3.175
30140W        W 2466  24.056  40.001  11.478
30141W        W 2467  43.850   5.361   3.680
30142W        W 2468  14.340  41.023   3.165
30143W        W 2469  17.607  27.013   2.828
30144W        W 2470  19.551  11.315  10.683
30145W        W 2471  34.987  42.019   3.605
30146W        W 2472  19.684   3.146   0.928
30147W        W 2473  16.040   0.800   0.361
30148W        W 2474  16.096  39.767   1.844
30149W        W 2475  16.790  14.214   3.320
30150W        W 2476  25.448  42.301  14.013
30151W        W 2477   5.416   5.351  10.746
30152W        W 2478   2.349  18.897  13.803
30153W        W 2479  35.620  34.375   2.893
30154W        W 2480  41.824   5.005  14.796
30155W        W 2481   9.669   9.684  13.439
30156W        W 2482  25.912  14.753  12.014
30157W        W 2483  10.231  29.083  10.779
30158W        W 2484  34.122  33.491  13.975
30159W        W 2485  11.595  37.415  12.879
30160W        W 2486  12.610  20.515   2.855
30161W        W 2487  40.147  18.796   3.431
30162W        W 2488  38.825  13.645   4.655
30163W        W 2489  31.349  35.046   0.262
30164W        W 2490   9.317  39.239  12.946
30165W        W 2491   7.698  40.898  13.554
30166W        W 2492  12.557  41.557   3.444
30167W        W 2493  39.738  21.050   5.024
30168W        W 2494  32.382   6.676   4.156
30169W        W 2495   5.318  13.223   0.839
30170W        W 2496  22.578  35.410   4.582
30171W        W 2497  31.137  24.261  12.488
30172W        W 2498  17.487  29.702   4.119
30173W        W 2499  33.012  40.868   2.114
30174W        W 2500  22.101   9.802   2.241
30175W        W 2501  33.612  16.264  12.471
30176W        W 2502  42.396  36.345  12.923
30177W        W 2503  21.219  22.726  12.210
30178W        W 2504  16.454   7.787  14.884
30179W        W 2505  39.578  37.324   2.120
30180W        W 2506   0.027  43.505  14.278
30181W        W 2507  32.670   8.883   2.195
30182W        W 2508   1.901  22.703   1.349
30183W        W 2509  19.705  18.763   0.337
30184W        W 2510  40.071   9.061  14.621
30185W        W 2511  31.155  24.142  11.569
30186W        W 2512  41.546  14.966   2.869
30187W        W 2513   1.963   4.749   0.551
30188W        W 2514  21.527  24.653   3.760
30189W        W 2515  23.490  41.322   3.096
30190W        W 2516   0.916  26.909   0.045
30191W        W 2517  18.191  26.197   2.642
30192W        W 2518  25.473  21.030   4.119
30193W        W 2519   4.481  14.335   2.751
30194W        W 2520   9.874  22.023  12.907
30195W        W 2521  40.822  25.077  10.613
30196W        W 2522  15.321  16.156  12.890
30197W        W 2523  17.603  18.638   0.691
30198W        W 2524  38.033  16.755  12.165
30199W        W 2525  26.498   2.415   2.668
30200W        W 2526  15.764  14.708   1.605
30201W        W 2527  39.464  10.501  13.820
30202W        W 2528  32.020   7.682  11.179
30203W        W 2529  23.169   2.770   2.921
30204W        W 2530   7.327  30.770  14.282
30205W        W 2531  13.039   6.737  13.955
30206W        W 2532   8.362  34.915   4.154
30207W        W 2533   6.576   9.565  14.901
30208W        W 2534  19.542  17.280   3.854
30209W        W 2535  38.373  31.994   2.201
30210W        W 2536  36.790   2.309  13.323
30211W        W 2537  37.440  33.443  14.838
30212W        W 2538   6.854  15.906   0.637
30213W        W 2539   5.683  11.720  12.038
30214W        W 2540  12.594  14.328  14.883
30215W        W 2541  30.912   6.225   3.738
30216W        W 2542  11.701  12.022  13.578
30217W        W 2543  44.491  36.279   1.697
30218W        W 2544  19.507   4.901   1.832
30219W        W 2545  21.114   1.790   4.137
30220W        W 2546  31.114  15.046  10.902
30221W        W 2547  32.653  28.814   3.020
30222W        W 2548   9.297  22.997   0.338
30223W        W 2549  40.042   1.852   2.693
30224W        W 2550   8.825  38.594   2.833
30225W        W 2551  13.992   7.320  11.340
30226W        W 2552   6.901   0.286   3.223
30227W        W 2553   9.601   1.850  14.029
30228W        W 2554  43.340   5.097   3.762
30229W        W 2555  31.608   9.454   0.757
30230W        W 2556  29.220  22.040   2.394
30231W        W 2557  39.413  22.384  14.873
30232W        W 2558   1.820   7.138   1.868
30233W        W 2559  39.412  12.775  10.590
30234W        W 2560  14.552  38.629  12.088
30235W        W 2561  40.297  42.324  11.542
30236W        W 2562  42.299   6.851  14.352
30237W        W 2563   6.796  33.444   4.748
30238W        W 2564  32.715  20.133   4.194
30239W        W 2565  42.275   8.755   0.752
30240W        W 2566  34.639  32.238   2.362
30241W        W 2567  35.883  17.560   3.167
30242W        W 2568   1.157  18.189   1.325
30243W        W 2569  30.402  19.703   3.573
30244W        W 2570  27.693  23.197  11.594
30245W        W 2571  26.117  13.527   4.020
30246W        W 2572  40.911  11.533  10.540
30247W        W 2573  29.432  27.230  13.373
30248W        W 2574  37.846  37.311   0.460
30249W        W 2575  22.273  41.782   2.191
30250W        W 2576   5.916   8.133  14.880
30251W        W 2577  33.948   5.461   3.789
30252W        W 2578  10.700   3.886  11.142
30253W        W 2579  32.382  20.983   3.274
30254W        W 2580  34.797  40.927   2.769
30255W        W 2581   1.540  32.537  12.679
30256W        W 2582  31.350   3.418  13.891
30257W        W 2583  24.684  43.906  14.804
30258W        W 2584   3.830  34.055   2.328
30259W        W 2585  22.650  30.411   3.636
30260W        W 2586   5.397  20.482   2.154
30261W        W 2587   2.356  32.892   1.850
30262W        W 2588   0.324   5.591  10.529
30263W        W 2589  34.396  33.895  14.824
30264W        W 2590  14.033   9.128  11.545
30265W        W 2591  11.718  14.814  10.730
30266W        W 2592   5.367  40.047  14.057
30267W        W 2593  19.255  40.995   3.440
30268W        W 2594  35.006   1.527  11.117
30269W        W 2595  11.631  19.971   3.938
30270W        W 2596  36.887  36.411   2.384
30271W        W 2597  21.114   3.420   4.997
30272W        W 2598  32.164  17.982  13.040
30273W        W 2599   1.052  42.823  10.362
30274W        W 2600  37.615  44.548  14.592
30275W        W 2601  10.468  32.771   3.752
30276W        W 2602  38.360   1.487  14.829
30277W        W 2603  11.179   3.675   1.439
30278W        W 2604  43.504   0.982  11.283
30279W        W 2605  31.914  41.148  11.669
30280W        W 2606  10.394  12.721   1.227
30281W        W 2607  38.977  24.539  14.419
30282W        W 2608  35.890  21.196  10.918
30283W        W 2609  38.039  41.862  10.662
30284W        W 2610   2.869  35.017   0.307
30285W        W 2611  19.692  25.550  11.493
30286W        W 2612  20.592  37.920  12.366
30287W        W 2613  13.710   1.716  14.838
30288W        W 2614  41.211  27.490   4.138
30289W        W 2615  16.212   9.380  14.866
30290W        W 2616   3.510  25.588  12.966
30291W        W 2617  18.642  18.438  14.485
30292W        W 2618  44.287   2.944  10.413
30293W        W 2619  12.114  21.206  13.364
30294W        W 2620   8.744  36.976  14.292
30295W        W 2621  35.504   1.941  11.541
30296W        W 2622  29.920  14.574   3.715
30297W        W 2623  13.168  37.966   0.469
30298W        W 2624  34.084  43.421   4.639
30299W        W 2625   4.718  16.378  10.444
30300W        W 2626   5.501  34.295  11.423
30301W        W 2627   8.720  18.489   4.021
30302W        W 2628  23.620  14.057  13.831
30303W        W 2629  37.090  44.897  13.967
30304W        W 2630  44.958  16.638  10.814
30305W        W 2631  10.102  17.736   0.917
30306W        W 2632  38.132  10.026  10.708
30307W        W 2633  21.298  24.739   3.303
30308W        W 2634   2.202   2.017  11.124
30309W        W 2635   2.976  24.422   3.588
30310W        W 2636  33.162  38.863  14.992
30311W        W 2637   4.957  44.497  10.726
30312W        W 2638   7.828  12.660   2.372
30313W        W 2639  15.581  17.460  11.472
30314W        W 2640  44.395  25.926  13.998
30315W        W 2641  13.732  44.439  14.937
30316W        W 2642   4.772  43.739   2.644
30317W        W 2643  22.558  16.465   5.072
30318W        W 2644  15.622  24.759  11.585
30319W        W 2645  40.268  30.534   0.309
30320W        W 2646  39.977  17.542  14.288
30321W        W 2647  11.852  31.643   0.224
30322W        W 2648   1.582  35.832   2.857
30323W        W 2649  15.822  20.315   2.368
30324W        W 2650  28.166  30.021  10.941
30325W        W 2651  34.094  38.484   2.290
30326W        W 2652  27.523   8.351   0.146
30327W        W 2653  41.877  28.457  12.647
30328W        W 2654  25.120  17.317   0.775
30329W        W 2655  15.140  16.294  10.678
30330W        W 2656  10.715  10.397  14.272
30331W        W 2657   0.964   2.379   5.425
30332W        W 2658   8.261  33.109   4.674
30333W        W 2659  39.753  16.385   3.698
30334W        W 2660  13.301  34.086   5.231
30335W        W 2661  11.174  22.968   4.270
30336W        W 2662  33.430  33.315   3.621
30337W        W 2663  16.193  32.040  11.604
30338W        W 2664  26.041  33.128   3.658
30339W        W 2665  22.244  26.606  11.521
30340W        W 2666   8.114  31.185  12.548
30341W        W 2667  17.254   6.883   3.739
30342W        W 2668   9.792   3.475   1.752
30343W        W 2669  19.919  44.629   3.278
30344W        W 2670  36.903  15.727   0.165
30345W        W 2671  37.107  27.567   2.206
30346W        W 2672   0.448   2.312   4.698
30347W        W 2673   6.451  38.507   2.807
30348W        W 2674   5.416  39.210  14.390
30349W        W 2675  24.508  38.001   1.211
30350W        W 2676   2.041   1.149  10.624
30351W        W 2677  42.485  44.973   2.478
30352W        W 2678   1.915  23.242   2.664
30353W        W 2679  24.626  38.016  13.904
30354W        W 2680   2.657   1.992   2.120
30355W        W 2681  10.613   2.999   1.714
30356W        W 2682  33.606  10.409  13.514
30357W        W 2683   8.491  12.868   1.665
30358W        W 2684   4.259  20.181   3.909
30359W        W 2685  11.969  33.949  11.073
30360W        W 2686  23.495   3.352  11.667
30361W        W 2687  25.532  36.636   0.417
30362W        W 2688  35.378  40.108  14.918
30363W        W 2689  10.554  43.034  14.039
30364W        W 2690  14.566   4.664   4.494
30365W        W 2691  25.221  21.213  13.118
30366W        W 2692  19.464   8.665  11.482
30367W        W 2693   3.872  23.356   4.532
30368W        W 2694  28.061  31.380  14.875
30369W        W 2695   2.963   8.138  12.638
30370W        W 2696  14.808  27.049   3.801
30371W        W 2697   3.973  42.119   1.384
30372W        W 2698  14.410  26.039  11.153
30373W        W 2699  38.579  19.689   0.952
30374W        W 2700  21.661  44.918   4.443
30375W        W 2701  40.823  41.538  14.488
30376W        W 2702  25.134  35.680  14.227
30377W        W 2703  35.791  14.571   3.661
30378W        W 2704  25.107   0.362   4.853
30379W        W 2705  26.483  40.527   3.731
30380W        W 2706  14.989  12.735   1.418
30381W        W 2707  32.368   5.281   1.305
30382W        W 2708  29.738   4.195   4.038
30383W        W 2709   8.214  21.474   0.471
30384W        W 2710  28.430  33.089   4.624
30385W        W 2711  22.747   2.274  13.843
30386W        W 2712  38.504  18.079   4.357
30387W        W 2713  42.778  31.410  13.582
30388W        W 2714  16.129  10.847  10.742
30389W        W 2715  31.901  24.492  12.462
30390W        W 2716  14.694  43.810   1.978
30391W        W 2717  25.715  23.629   4.188
30392W        W 2718  32.117  13.891  13.005
30393W        W 2719  19.305  43.532   2.861
30394W        W 2720  40.414  27.944  14.566
30395W        W 2721  12.074  32.055  13.503
30396W        W 2722   0.423  34.665  11.992
30397W        W 2723   4.979   9.780  10.504
30398W        W 2724  12.219  20.148   4.594
30399W        W 2725  32.934  38.364   2.629
30400W        W 2726   0.038   0.213   3.289
30401W        W 2727   9.476  20.334   1.912
30402W        W 2728  33.475  28.219   2.698
30403W        W 2729  25.606   6.990   2.771
30404W        W 2730  32.089  13.633   0.214
30405W        W 2731  17.998  30.083   0.334
30406W        W 2732  12.791  11.338  10.540
30407W        W 2733   4.488  18.755  11.377
30408W        W 2734  26.664  40.295  14.428
30409W        W 2735  28.947  37.462  11.954
30410W        W 2736   3.897  11.112  13.802
30411W        W 2737  44.858  31.179   1.268
30412W        W 2738  35.109   8.645   0.208
30413W        W 2739  36.692  30.658  10.243
30414W        W 2740   6.675  11.866  10.271
30415W        W 2741   7.829  17.842   0.445
30416W        W 2742  25.373  37.328  14.921
30417W        W 2743  30.613  44.403   0.685
30418W        W 2744  30.123  35.974  14.002
30419W        W 2745   5.191  16.215  13.047
30420W        W 2746  18.898  44.278   1.655
30421W        W 2747  43.551  28.107  14.027
30422W        W 2748   3.406   9.761   9.847
30423W        W 2749  12.362  38.273   2.186
30424W        W 2750  35.517  32.540   0.348
30425W        W 2751  19.504  17.821  11.548
30426W        W 2752  17.601  15.122  13.418
30427W        W 2753   8.411  30.988  12.972
30428W        W 2754   8.064  26.489  12.982
30429W        W 2755  40.939   1.218   2.433
30430W        W 2756  36.012  35.750  10.154
30431W        W 2757  31.972  40.518   1.002
30432W        W 2758  38.885  12.658  11.453
30433W        W 2759  21.826  27.497  10.594
30434W        W 2760  28.455  29.129  10.693
30435W        W 2761  27.343   4.808  11.160
30436W        W 2762  19.379  21.622  13.011
30437W        W 2763   3.415  38.744   5.085
30438W        W 2764  21.533  29.145  13.986
30439W        W 2765  27.677  30.055  13.606
30440W        W 2766  34.069  30.657  14.165
30441W        W 2767  40.730   6.133  13.544
30442W        W 2768  23.921  43.824   1.638
30443W        W 2769  22.181  22.090   0.582
30444W        W 2770  17.002  41.077   4.173
30445W        W 2771  10.648  39.657  13.141
30446W        W 2772  22.113  31.533   4.532
30447W        W 2773  32.873  39.913   4.167
30448W        W 2774  32.213  41.121  12.076
30449W        W 2775  22.442   2.897  11.179
30450W        W 2776  12.680  20.249   2.402
30451W        W 2777   3.704  11.852   3.693
30452W        W 2778  22.141  43.274  10.548
30453W        W 2779  20.250  30.453  12.979
30454W        W 2780  39.326  41.008  12.785
30455W        W 2781  40.422  24.561   4.891
30456W        W 2782  42.780  35.866   1.517
30457W        W 2783   4.264  30.233  13.022
30458W        W 2784  10.237  42.336  14.852
30459W        W 2785   1.999  10.851   5.074
30460W        W 2786   2.948  23.755  14.331
30461W        W 2787   6.192  26.896   0.879
30462W        W 2788  17.867   6.424  14.664
30463W        W 2789  10.980  11.557   3.452
30464W        W 2790  22.762  16.231   3.362
30465W        W 2791  35.785  30.691   4.048
30466W        W 2792  34.155  38.039  13.424
30467W        W 2793  35.380  14.027  11.655
30468W        W 2794  19.818  38.904   2.295
30469W        W 2795  43.487  35.412   1.022
30470W        W 2796  44.699  11.717   3.919
30471W        W 2797  34.338  40.113   4.330
30472W        W 2798   8.651  25.150   4.455
30473W        W 2799  44.859  11.622  14.478
30474W        W 2800  15.698  17.111   1.652
30475W        W 2801   4.181   0.739   2.345
30476W        W 2802  28.376  21.056  14.241
30477W        W 2803   0.474  22.038  10.537
30478W        W 2804  19.306  19.078   2.597
30479W        W 2805   5.435  22.551  13.123
30480W        W 2806  14.115  18.757   3.644
30481W        W 2807  15.277  37.457  13.401
30482W        W 2808   0.629  36.170   0.966
30483W        W 2809   9.368   5.406   4.774
30484W        W 2810  10.883  44.249   2.218
30485W        W 2811  29.590  19.850   9.842
30486W        W 2812  25.196  25.137   3.160
30487W        W 2813  11.240  41.573  14.453
30488W        W 2814  10.134  31.155   0.843
30489W        W 2815  27.941  33.044  11.406
30490W        W 2816  35.925  11.355  13.066
30491W        W 2817  37.319  30.589  11.068
30492W        W 2818  14.701  43.746   0.120
30493W        W 2819  17.780  33.993   0.258
30494W        W 2820   0.336  27.207  10.386
30495W        W 2821  26.634  34.507  10.245
30496W        W 2822  39.162  17.635   0.370
30497W        W 2823   0.425   4.783   2.277
30498W        W 2824  19.626  11.712   2.195
30499W        W 2825  30.040  20.650  11.570
30500W        W 2826  31.606  29.182   3.682
30501W        W 2827  41.432   5.236   4.052
30502W        W 2828  34.216  11.113   2.634
30503W        W 2829  24.027  43.464  13.490
30504W        W 2830  31.548  18.061  14.093
30505W        W 2831  40.882  38.549  13.884
30506W        W 2832  27.982  21.858  13.841
30507W        W 2833   6.189  11.484   2.763
30508W        W 2834   8.461   7.954   1.358
30509W        W 2835  18.699  21.390   1.927
30510W        W 2836  24.071  30.677   1.663
30511W        W 2837  38.575  20.278   2.111
30512W        W 2838  31.342   5.298   1.208
30513W        W 2839   5.738  30.890   2.284
30514W        W 2840  27.248  31.015  14.403
30515W        W 2841   2.352   0.188  13.744
30516W        W 2842   9.251  18.485  14.985
30517W        W 2843  16.183  33.425   9.938
30518W        W 2844  34.090  11.914   0.191
30519W        W 2845   5.205  24.572   2.934
30520W        W 2846  24.002  42.554   2.773
30521W        W 2847  19.983  35.528   1.889
30522W        W 2848  39.011  16.217  12.473
30523W        W 2849   7.938  20.406   4.994
30524W        W 2850   4.486  17.536  13.822
30525W        W 2851  36.453  19.503   0.238
30526W        W 2852  25.577   7.193   3.245
30527W        W 2853  32.285   0.917  11.335
30528W        W 2854  16.171   7.556   4.777
30529W        W 2855  35.996   4.960   2.832
30530W        W 2856   1.985   3.426  14.841
30531W        W 2857  20.728  36.100   1.589
30532W        W 2858  33.963  25.625   4.453
30533W        W 2859  33.778  30.028  12.005
30534W        W 2860  17.266  34.319  12.468
30535W        W 2861  26.143  27.269  10.164
30536W        W 2862  44.348   2.683   4.859
30537W        W 2863  29.669  25.976  12.337
30538W        W 2864  19.802  14.826   4.091
30539W        W 2865  43.387  22.756  10.468
30540W        W 2866   2.732  28.019  12.461
30541W        W 2867  10.795  20.159   2.834
30542W        W 2868  10.740  21.007  13.210
30543W        W 2869  32.901  26.879   1.370
30544W        W 2870  14.096  31.949   1.141
30545W        W 2871  34.068   5.218   0.404
30546W        W 2872   4.003  30.583   0.259
30547W        W 2873  30.740   9.064  12.048
30548W        W 2874   0.291  20.631   3.693
30549W        W 2875  25.916  37.469  11.155
30550W        W 2876  14.927  36.177  12.976
30551W        W 2877  12.976  38.574  11.722
30552W        W 2878  42.004   5.256  12.876
30553W        W 2879  12.237   1.651   4.990
30554W        W 2880  28.906   1.761  12.164
30555W        W 2881  33.423  42.594  14.779
30556W        W 2882  37.558  13.849  10.978
30557W        W 2883  37.524  28.177   3.673
30558W        W 2884  19.581  20.504  12.979
30559W        W 2885  43.560   8.704  11.308
30560W        W 2886  30.641  17.538   4.574
30561W        W 2887  29.038  44.610  14.527
30562W        W 2888   6.479  38.070  13.839
30563W        W 2889  24.562  13.077  14.109
30564W        W 2890  26.103  38.871   0.516
30565W        W 2891  39.220  11.757   2.506
30566W        W 2892  41.210   5.869  13.016
30567W        W 2893  20.631  24.903   2.829
30568W        W 2894  17.526   6.576   3.332
30569W        W 2895   8.689   1.586   0.648
30570W        W 2896  29.568  37.928  13.354
30571W        W 2897   4.682  25.798   0.319
30572W        W 2898   4.377  28.409   1.866
30573W        W 2899   0.552  31.732   3.119
30574W        W 2900  12.704  10.836  14.757
30575W        W 2901  19.612  17.141   3.372
30576W        W 2902  37.996  23.168   2.489
30577W        W 2903   5.174  43.348  14.053
30578W        W 2904  19.521  27.115   1.535
30579W        W 2905  33.546  35.910  10.643
30580W        W 2906  20.173   2.033   4.013
30581W        W 2907  35.931  35.466  11.499
30582W        W 2908   4.241  30.128  11.482
30583W        W 2909  16.199  15.682  14.981
30584W        W 2910  39.919  11.630  12.953
30585W        W 2911  16.894   5.676  12.090
30586W        W 2912  18.811  44.461  12.575
30587W        W 2913  43.939  36.517  11.807
30588W        W 2914   1.883  19.619  13.925
30589W        W 2915  36.009  28.653   1.992
30590W        W 2916  36.524  23.430   2.948
30591W        W 2917  38.099  21.440  10.160
30592W        W 2918  13.267  36.241   3.180
30593W        W 2919  35.293  34.330   0.027
30594W        W 2920  38.586  34.377   2.718
30595W        W 2921  19.967   6.127   1.779
30596W        W 2922   8.755  38.455   1.306
30597W        W 2923   7.732  25.250   0.685
30598W        W 2924  10.427   9.020  11.552
30599W        W 2925   0.456  32.012   1.285
30600W        W 2926  21.694  44.851   1.426
30601W        W 2927  41.401  28.878  10.723
30602W        W 2928  17.229  38.972   0.171
30603W        W 2929  41.244   3.506   0.428
30604W        W 2930  33.296   8.464  10.680
30605W        W 2931  40.488  38.543  14.387
30606W        W 2932  23.536  42.235  14.853
30607W        W 2933  43.981  37.383   3.357
30608W        W 2934  18.141  29.598   0.435
30609W        W 2935  18.225  18.242  11.093
30610W        W 2936  24.736   8.783   4.758
30611W        W 2937  26.492  12.906   3.230
30612W        W 2938  43.825  41.927   4.077
30613W        W 2939  33.296  38.827  12.002
30614W        W 2940  25.841  26.761   3.747
30615W        W 2941  33.890  16.810  13.318
30616W        W 2942   9.880   7.636  14.946
30617W        W 2943   5.634   5.578  13.570
30618W        W 2944   3.393  31.166   2.364
30619W        W 2945  35.025  44.995   4.738
30620W        W 2946  44.014  22.934   2.894
30621W        W 2947  13.715   8.179   1.267
30622W        W 2948  40.759  35.403   0.896
30623W        W 2949   0.479   4.891  11.594
30624W        W 2950  28.521  40.905  12.383
30625W        W 2951  28.774   4.025   3.744
30626W        W 2952  31.428   7.281   2.314
30627W        W 2953  41.918  29.645  13.939
30628W        W 2954  37.839  42.209  14.895
30629W        W 2955  26.173  24.198  13.991
30630W        W 2956   4.095  16.414  12.970
30631W        W 2957  26.180  15.733  10.023
30632W        W 2958  10.654  23.497  12.003
30633W        W 2959  26.265  14.219   2.318
30634W        W 2960  30.977  20.110   2.524
30635W        W 2961  24.161  18.730   4.536
30636W        W 2962  31.999   3.272   0.256
30637W        W 2963  29.442   7.309  10.108
30638W        W 2964  44.223  19.622  11.382
30639W        W 2965  18.013  20.244   2.225
30640W        W 2966  35.411  23.492   3.409
30641W        W 2967  30.088  17.300  13.517
30642W        W 2968  21.758  39.229   3.333
30643W        W 2969  13.953  40.835  14.558
30644W        W 2970  35.611   6.280  11.546
30645W        W 2971  23.506   6.964  12.570
30646W        W 2972  30.369  19.151   1.928
30647W        W 2973  23.145  12.246  13.789
30648W        W 2974  11.065   5.856  13.362
30649W        W 2975   2.309  29.428  14.764
30650W        W 2976  27.157  29.408   5.713
30651W        W 2977  10.121  38.986  14.826
30652W        W 2978   9.631  11.453  12.141
30653W        W 2979   9.607  17.241   3.286
30654W        W 2980  13.784  30.671   4.853
30655W        W 2981  13.022   5.710   1.266
30656W        W 2982   1.340   4.276  13.664
30657W        W 2983  21.658  25.596   3.934
30658W        W 2984  11.304  42.836   4.557
30659W        W 2985  35.417  26.627   3.846
30660W        W 2986  34.818  13.256  14.406
30661W        W 2987  11.146  17.483  12.545
30662W        W 2988  25.668  12.971  12.848
30663W        W 2989  21.531  26.821  14.460
30664W        W 2990   2.675  12.744   9.861
30665W        W 2991   5.882  32.134   4.190
30666W        W 2992   9.770  19.458   1.668
30667W        W 2993   7.719  44.897  13.497
30668W        W 2994   4.199   0.382  14.361
30669W        W 2995  11.776   0.783  11.233
30670W        W 2996  19.699  19.809   2.021
30671W        W 2997  17.849  16.759   4.556
30672W        W 2998  28.137  41.843  13.979
30673W        W 2999  44.297  22.201   1.436
30674W        W 3000  23.637  40.376   4.719
30675W        W 3001   5.752  23.442   2.221
30676W        W 3002  30.152  31.542  10.552
30677W        W 3003   6.296   3.275   4.024
30678W        W 3004   0.420   2.584   4.222
30679W        W 3005  41.085  35.946   3.205
30680W        W 3006   8.420   5.746  10.758
30681W        W 3007  44.441  41.585  13.491
30682W        W 3008   7.819  21.147   1.748
30683W        W 3009  44.605   7.837   2.304
30684W        W 3010  29.597   5.231   1.667
30685W        W 3011  35.651  28.501  11.194
30686W        W 3012  19.152  18.323   2.180
30687W        W 3013   8.212   4.885  10.095
30688W        W 3014   6.083  32.026   0.814
30689W        W 3015  39.467  34.349  11.140
30690W        W 3016  39.804  30.138   3.633
30691W        W 3017   1.995  18.601  11.097
30692W        W 3018  41.809   1.301   4.600
30693W        W 3019  29.640  42.482  12.026
30694W        W 3020  28.989  16.803   2.829
30695W        W 3021   9.165  42.824   4.089
30696W        W 3022   6.298  10.192  12.151
30697W        W 3023  20.838  30.750   1.839
30698W        W 3024  11.270  37.363  12.456
30699W        W 3025  34.588  32.347  13.041
30700W        W 3026  16.539   7.523   3.317
30701W        W 3027  41.761  25.220  12.117
30702W        W 3028  39.085  28.923   1.826
30703W        W 3029   0.466  15.231  10.707
30704W        W 3030  34.631   9.884  10.733
30705W        W 3031   4.978  43.365   2.333
30706W        W 3032  26.877   6.107  12.046
30707W        W 3033   7.773  31.940  12.390
30708W        W 3034  44.645  15.959   3.433
30709W        W 3035  17.671  11.016   3.689
30710W        W 3036  43.830  35.170  13.854
30711W        W 3037  20.954  11.745  14.593
30712W        W 3038  17.219   6.612  12.117
30713W        W 3039   1.931  11.988   3.309
30714W        W 3040  35.877  21.085   4.608
30715W        W 3041   5.202   1.678  12.928
30716W        W 3042  26.514  22.281   1.817
30717W        W 3043  12.250  31.133   1.815
30718W        W 3044  33.515   1.074   4.069
30719W        W 3045  27.153  25.635   4.838
30720W        W 3046  40.288  12.779   2.801
30721W        W 3047   2.471  13.795   4.301
30722W        W 3048   6.342  19.074  11.005
30723W        W 3049   0.245  10.620  11.670
30724W        W 3050  19.257  19.215   3.097
30725W        W 3051  11.596  14.421   5.186
30726W        W 3052  25.677  25.302   3.361
30727W        W 3053  40.468   2.956   3.277
30728W        W 3054  28.726  25.466  12.615
30729W        W 3055  36.109  40.995   2.424
30730W        W 3056  43.677  23.474   0.299
30731W        W 3057  11.355  34.607  13.014
30732W        W 3058  25.056  28.206  11.992
30733W        W 3059  25.700  17.278  13.497
30734W        W 3060  41.917  27.143  14.061
30735W        W 3061   7.656  34.445   1.806
30736W        W 3062  44.803  36.469   2.838
30737W        W 3063  29.599  15.421   1.768
30738W        W 3064  27.380  19.547   3.731
30739W        W 3065   3.798  26.026   1.407
30740W        W 3066  32.055  32.458   1.653
30741W        W 3067  32.869  41.776   3.329
30742W        W 3068   2.531  35.862  13.980
30743W        W 3069  12.645  18.743   4.677
30744W        W 3070  14.619   0.669   2.944
30745W        W 3071  33.549  41.078   1.339
30746W        W 3072  37.154  41.475  13.007
30747W        W 3073   3.434  40.607  12.992
30748W        W 3074   5.163  11.334  11.610
30749W        W 3075  36.394  21.459  13.902
30750W        W 3076  20.282  43.947  14.780
30751W        W 3077  18.736  22.575   3.251
30752W        W 3078  13.101  42.469  12.095
30753W        W 3079  21.745   1.812   4.608
30754W        W 3080  26.477  28.880   5.085
30755W        W 3081  25.223   6.849   2.425
30756W        W 3082   5.978   1.364  11.627
30757W        W 3083  39.575  33.207   1.698
30758W        W 3084  33.532  16.769   0.920
30759W        W 3085  35.352  43.899  12.125
30760W        W 3086  30.590   7.308  14.831
30761W        W 3087  28.534  29.078  14.315
30762W        W 3088  29.035  34.926   2.789
30763W        W 3089  39.329  20.510   3.111
30764W        W 3090   5.431  11.049  12.591
30765W        W 3091  14.129   5.751  11.547
30766W        W 3092  38.410   9.248   4.879
30767W        W 3093   3.472  40.066  12.974
30768W        W 3094   8.201   5.443   3.317
30769W        W 3095  34.592  35.089   3.256
30770W        W 3096  36.380  36.946   1.956
30771W        W 3097  16.127  11.696   3.731
30772W        W 3098  13.142  44.389  12.894
30773W        W 3099   2.243  44.335  14.876
30774W        W 3100  37.411   4.782   2.258
30775W        W 3101  22.690  42.599   5.148
30776W        W 3102  14.813  19.759  11.163
30777W        W 3103  26.053  26.024  11.451
30778W        W 3104   2.607  35.800  13.091
30779W        W 3105  15.170  42.407  12.300
30780W        W 3106  37.297  29.063  12.581
30781W        W 3107  12.243   2.301  11.636
30782W        W 3108   5.935  10.129   2.741
30783W        W 3109  22.999  35.161   9.942
30784W        W 3110  17.613  22.224   4.674
30785W        W 3111  43.737  22.387   2.246
30786W        W 3112  22.690   9.072   3.923
30787W        W 3113  37.210   9.549   2.949
30788W        W 3114   2.143  13.788   1.246
30789W        W 3115  23.204  17.010   1.815
30790W        W 3116  29.928  21.256   1.427
30791W        W 3117  13.351  17.163  14.697
30792W        W 3118  30.051  13.224   2.807
30793W        W 3119  40.103  23.889  13.466
30794W        W 3120  21.464  43.889  13.003
30795W        W 3121  29.480  44.401  11.158
30796W        W 3122  34.406   2.297  13.632
30797W        W 3123  39.001  41.352  13.088
30798W        W 3124  16.577  36.888   2.129
30799W        W 3125  37.151  30.125   1.908
30800W        W 3126  13.399  11.755  11.216
30801W        W 3127  13.556  16.159   3.642
30802W        W 3128  43.576   9.235  12.472
30803W        W 3129  18.621  22.754   1.257
30804W        W 3130  11.643  35.002   4.953
30805W        W 3131  39.307   2.094  11.523
30806W        W 3132  30.420  22.572   3.680
30807W        W 3133  22.677  31.005   4.311
30808W        W 3134  38.019  40.885  13.953
30809W        W 3135  18.488  32.092   0.200
30810W        W 3136   8.922  15.276  11.081
30811W        W 3137  15.604  11.536   3.603
30812W        W 3138   6.596  36.321   4.187
30813W        W 3139  14.576  31.139  11.645
30814W        W 3140  26.687  30.055   2.092
30815W        W 3141   8.116   4.452  14.369
30816W        W 3142   4.246  26.750   3.387
30817W        W 3143  11.595  17.819   0.884
30818W        W 3144  41.832  14.259  14.476
30819W        W 3145  18.847  31.252   1.958
30820W        W 3146   1.836   4.729  12.678
30821W        W 3147  12.787   0.312   0.407
30822W        W 3148  25.008  26.409   3.797
30823W        W 3149  42.726   2.504   0.356
30824W        W 3150  27.391   8.933   1.379
30825W        W 3151  19.584   6.260  12.073
30826W        W 3152  15.844  40.781  13.727
30827W        W 3153  33.338   6.936  13.698
30828W        W 3154  38.552  11.794  12.092
30829W        W 3155  15.509   9.185  13.596
30830W        W 3156  35.035  27.646   2.198
30831W        W 3157  43.436  42.854   4.959
30832W        W 3158  31.577  22.168   0.930
30833W        W 3159  20.772  27.476   1.411
30834W        W 3160   7.813  39.419   0.933
30835W        W 3161  41.553  17.123   0.321
30836W        W 3162  18.844  15.295  13.037
30837W        W 3163  26.139   0.662  11.647
30838W        W 3164   9.158  26.677  15.000
30839W        W 3165  31.726  12.500  12.528
30840W        W 3166   8.254  10.171  13.746
30841W        W 3167  35.433  41.560   1.078
30842W        W 3168  30.660   9.589  14.839
30843W        W 3169  15.493  15.617  10.176
30844W        W 3170   6.816  21.119  11.958
30845W        W 3171  32.465  37.455  11.596
30846W        W 3172   9.392  20.305  11.628
30847W        W 3173  24.193  23.532  14.861
30848W        W 3174  41.904  43.457   1.842
30849W        W 3175  31.349  18.785  13.390
30850W        W 3176  43.249  14.604   2.200
30851W        W 3177  32.628  23.753   1.309
30852W        W 3178  32.888  19.061  12.556
30853W        W 3179  36.938  20.641   2.312
30854W        W 3180  19.735  10.822  12.423
30855W        W 3181   3.254  23.072  10.586
30856W        W 3182  19.005  40.561  12.321
30857W        W 3183  19.097   0.699   0.950
30858W        W 3184  21.651  36.144   3.820
30859W        W 3185   9.644  27.874  10.242
30860W        W 3186  31.656   3.845   1.340
30861W        W 3187   9.862  12.721  13.031
30862W        W 3188  18.075  18.748   2.939
30863W        W 3189  17.577  28.106   0.176
30864W        W 3190  39.037  40.060  11.744
30865W        W 3191   6.852  32.148   1.354
30866W        W 3192  29.749  24.967   2.676
30867W        W 3193  35.934  35.690   1.902
30868W        W 3194  10.861  34.547  10.717
30869W        W 3195  16.076  27.124   4.709
30870W        W 3196  20.046  22.116  12.549
30871W        W 3197  12.220   0.328  12.964
30872W        W 3198   5.206   6.719   0.201
30873W        W 3199  23.467  33.973  11.588
30874W        W 3200  18.319  21.483   1.085
30875W        W 3201  27.222   7.067  13.752
30876W        W 3202  32.979  36.284   2.523
30877W        W 3203  27.089  15.845   2.821
30878W        W 3204  12.119  36.956  14.208
30879W        W 3205  25.942  27.078  14.498
30880W        W 3206   9.154  30.162   1.899
30881W        W 3207  13.786  20.630   3.160
30882W        W 3208  11.591  44.362  13.142
30883W        W 3209  39.449   7.246   2.368
30884W        W 3210   9.362   8.439   2.874
30885W        W 3211  19.410  26.740  12.048
30886W        W 3212  20.990  17.120   2.057
30887W        W 3213  16.838  29.097  14.484
30888W        W 3214  34.660   7.492  11.053
30889W        W 3215   6.622  32.507   2.189
30890W        W 3216  26.711  43.564  12.972
30891W        W 3217  11.231   9.204  10.570
30892W        W 3218  30.830  33.801  12.771
30893W        W 3219  22.517   2.191  13.395
30894W        W 3220  20.024  15.890  11.596
30895W        W 3221   0.937  43.107   4.270
30896W        W 3222  39.498  11.697  10.686
30897W        W 3223  39.049  16.832  14.749
30898W        W 3224  18.556  43.247   1.247
30899W        W 3225  26.593  30.383  14.758
30900W        W 3226   2.874  28.692   3.880
30901W        W 3227  21.531  16.280   3.147
30902W        W 3228   5.255  43.745  14.881
30903W        W 3229  10.173  23.047  12.430
30904W        W 3230   1.909  38.280  13.933
30905W        W 3231  35.584  29.520   0.347
30906W        W 3232  16.375  33.420   2.153
30907W        W 3233  33.093  31.435  14.831
30908W        W 3234  44.507  39.772   4.200
30909W        W 3235  24.967  27.471  13.558
30910W        W 3236  11.282  34.754   4.668
30911W        W 3237  14.826  25.008   3.759
30912W        W 3238  39.246  37.007  12.213
30913W        W 3239  12.825  43.902  10.718
30914W        W 3240  38.193  31.979  11.610
30915W        W 3241   3.304  30.369  14.519
30916W        W 3242  14.091  43.383   2.664
30917W        W 3243  38.089   5.814  14.319
30918W        W 3244  37.455  11.200  12.323
30919W        W 3245  22.254  28.669  13.457
30920W        W 3246  41.858  16.662  11.569
30921W        W 3247  30.198   6.697   3.330
30922W        W 3248  17.575  36.370  14.337
30923W        W 3249   1.098   3.403   5.406
30924W        W 3250  35.513  17.062   1.233
30925W        W 3251  30.323  16.252  11.118
30926W        W 3252  26.544  11.792   2.348
30927W        W 3253  32.032  12.833   3.448
30928W        W 3254   5.400  31.198  10.663
30929W        W 3255  43.576  33.026  11.225
30930W        W 3256  32.932  35.202   1.534
30931W        W 3257  34.933  32.884   1.279
30932W        W 3258   7.537  35.143  11.938
30933W        W 3259  42.805   6.042   4.225
30934W        W 3260  22.219  24.285   0.235
30935W        W 3261  19.203  28.708   4.667
30936W        W 3262   5.243  37.542   2.224
30937W        W 3263  24.194  33.930  12.795
30938W        W 3264  21.098  19.813   9.881
30939W        W 3265  22.132  24.941   2.607
30940W        W 3266   6.131  38.505  13.788
30941W        W 3267   0.445  32.060  10.734
30942W        W 3268   9.759  34.984  11.969
30943W        W 3269  10.864  12.597  10.746
30944W        W 3270   0.536  18.887  12.580
30945W        W 3271   2.405   3.636  12.458
30946W        W 3272   8.389  19.133   2.210
30947W        W 3273  37.229  44.729  11.975
30948W        W 3274  22.275  34.589   3.571
30949W        W 3275   9.311   5.932  12.473
30950W        W 3276  44.401  35.086   3.661
30951W        W 3277  30.369  10.204  12.457
30952W        W 3278  23.028   3.708  12.631
30953W        W 3279  42.427  24.275   3.600
30954W        W 3280  33.938  15.977  12.211
30955W        W 3281  22.236  33.033   1.870
30956W        W 3282   1.965  23.956  14.067
30957W        W 3283  19.581  42.724   0.307
30958W        W 3284   9.139  20.082  11.215
30959W        W 3285  22.609  23.067  10.837
30960W        W 3286  35.490  39.772  11.513
30961W        W 3287  30.418   1.180   1.815
30962W        W 3288  17.814  10.535  14.066
30963W        W 3289   7.768  24.621  11.176
30964W        W 3290   1.783  26.629  14.961
30965W        W 3291   3.491  21.974   5.166
30966W        W 3292  44.775  12.846   0.039
30967W        W 3293  17.211   5.028  14.224
30968W        W 3294  38.573  14.686  12.816
30969W        W 3295  34.317  40.434  11.173
30970W        W 3296  28.585  20.967  12.974
30971W        W 3297  44.860  38.200   1.658
30972W        W 3298   6.335  39.073  11.116
30973W        W 3299  31.610  25.018  10.444
30974W        W 3300  21.655  10.125   0.449
30975W        W 3301   6.057   5.561   0.994
30976W        W 3302  36.058   0.376  14.114
30977W        W 3303  20.087  11.436   4.237
30978W        W 3304  18.770  21.168   4.029
30979W        W 3305  31.152   6.721   3.658
30980W        W 3306  20.856  38.965   2.144
30981W        W 3307  25.555   3.961   2.663
30982W        W 3308  11.308   0.460   0.400
30983W        W 3309  31.298  20.579  11.165
30984W        W 3310  25.212  44.936  11.314
30985W        W 3311  38.730   1.278  14.505
30986W        W 3312  40.533  32.889   3.589
30987W        W 3313  25.730  23.250   1.466
30988W        W 3314  31.557   0.546  14.004
30989W        W 3315   4.011  11.336   1.797
30990W        W 3316  40.316  23.861  13.930
30991W        W 3317  34.077  39.940   0.228
30992W        W 3318  16.526  26.546  12.643
30993W        W 3319  30.139  10.125   0.411
30994W        W 3320   1.252  42.312   3.827
30995W        W 3321  17.128  12.324  14.024
30996W        W 3322   2.416  12.035  14.821
30997W        W 3323   4.915  22.568   4.628
30998W        W 3324   1.448  21.140   1.239
30999W        W 3325  18.533  40.798  12.135
31000W        W 3326  33.475  39.506   3.752
31001W        W 3327  18.133   3.716  14.990
31002W        W 3328   6.815  38.856   1.455
31003W        W 3329  26.462  29.534  11.900
31004W        W 3330  19.060  19.733   3.182
31005W        W 3331  19.488   2.779   3.760
31006W        W 3332  40.174   9.310   2.743
31007W        W 3333   2.193  11.920   2.714
31008W        W 3334  17.486  14.976  13.896
31009W        W 3335  22.077  34.524  11.104
31010W        W 3336  29.803  37.505  14.582
31011W        W 3337  27.951  11.935   2.215
31012W        W 3338  41.996  13.701  13.447
31013W        W 3339   5.885  36.949   1.711
31014W        W 3340   8.182  12.255   4.608
31015W        W 3341   6.493  15.248   2.913
31016W        W 3342  21.664  18.233   5.061
31017W        W 3343  19.647   5.970  11.201
31018W        W 3344   9.410  21.306  13.985
31019W        W 3345  30.685  34.842  10.817
31020W        W 3346  22.821  19.982  10.365
31021W        W 3347  21.717  40.468   0.415
31022W        W 3348  35.624  10.228  13.579
31023W        W 3349  22.370  29.595   0.861
31024W        W 3350  12.690  30.101   3.136
31025W        W 3351  22.342  14.704  11.872
31026W        W 3352  41.042  19.332   2.779
31027W        W 3353  34.412  41.533   1.657
31028W        W 3354  32.428  28.228   1.745
31029W        W 3355  32.128  20.040   3.377
31030W        W 3356  40.083  28.644  11.161
31031W        W 3357  40.778  17.284  12.915
31032W        W 3358  11.406   0.328  13.992
31033W        W 3359   0.505  36.793  11.489
31034W        W 3360  17.471  30.157   0.397
31035W        W 3361  43.312  40.558  12.921
31036W        W 3362  18.681  40.604  14.866
31037W        W 3363  42.264  31.537  12.161
31038W        W 3364  33.980  16.752   0.681
31039W        W 3365  16.112  26.611   5.102
31040W        W 3366  27.616  13.205  11.974
31041W        W 3367   6.714  14.837  13.984
31042W        W 3368  10.649  12.349   3.133
31043W        W 3369  41.492  24.799   2.077
31044W        W 3370  10.884  42.512   4.572
31045W        W 3371  30.606  21.462  14.303
31046W        W 3372  39.042  29.756  13.328
31047W        W 3373  41.705  10.676  14.576
31048W        W 3374  14.171   6.891  14.389
31049W        W 3375  40.339  29.893   2.060
31050W        W 3376  24.922  16.169   3.974
31051W        W 3377  44.549  12.254   4.774
31052W        W 3378  22.233  12.147  10.631
31053W        W 3379  40.654  28.027   3.637
31054W        W 3380  38.399   9.320  10.156
31055W        W 3381   6.763  18.886  13.616
31056W        W 3382  17.521  39.825   3.393
31057W        W 3383   8.277   6.312  11.437
31058W        W 3384   8.892  17.639  11.888
31059W        W 3385  34.998  23.807   3.480
31060W        W 3386   8.493  22.747   3.338
31061W        W 3387  19.086  41.419  12.083
31062W        W 3388  16.677  15.160  10.550
31063W        W 3389  18.638   4.672  12.152
31064W        W 3390  12.763  24.092  13.525
31065W        W 3391  12.440  29.147   1.767
31066W        W 3392  38.939  12.581   4.756
31067W        W 3393  14.110  40.078   1.980
31068W        W 3394  10.241  13.586  12.459
31069W        W 3395  14.733  16.656  10.670
31070W        W 3396  14.600  27.586   0.230
31071W        W 3397   7.365  19.325   1.582
31072W        W 3398   8.914   3.692   1.670
31073W        W 3399  39.735  38.473   0.380
31074W        W 3400  24.037  16.123  14.932
31075W        W 3401  44.380  11.757  14.350
31076W        W 3402   1.327  23.492  13.557
31077W        W 3403  21.114  38.656   0.363
31078W        W 3404   8.808  26.916   1.290
31079W        W 3405  27.889  39.460   1.731
31080W        W 3406   5.924  19.221   3.715
31081W        W 3407  15.264  18.770   4.627
31082W        W 3408   8.173  42.470   2.034
31083W        W 3409  38.885  16.716  12.702
31084W        W 3410  26.143  40.653   2.673
31085W        W 3411  23.188  28.458  13.742
31086W        W 3412   1.277  23.024   3.684
31087W        W 3413  27.072  15.486   4.785
31088W        W 3414  44.469  41.385   3.703
31089W        W 3415  13.647   4.218  13.733
31090W        W 3416  40.657  41.071  12.025
31091W        W 3417  25.094  21.553   0.926
31092W        W 3418  34.463   2.776  13.478
31093W        W 3419   7.769  41.312   2.301
31094W        W 3420  10.753  31.216   0.399
31095W        W 3421  39.156   8.713   1.265
31096W        W 3422  42.927   1.616   0.685
31097W        W 3423  33.913   1.295   4.547
31098W        W 3424  37.286  23.046   0.476
31099W        W 3425   0.367  36.915  13.819
31100W        W 3426  11.268   5.339  12.224
31101W        W 3427   0.635  32.854  12.016
31102W        W 3428  41.750  36.278   1.329
31103W        W 3429  22.578  29.530   4.720
31104W        W 3430  32.470  35.638  12.896
31105W        W 3431  33.085  37.619  14.465
31106W        W 3432  24.703  20.982  11.338
31107W        W 3433  41.840  33.734   1.248
31108W        W 3434   0.940  33.151   3.337
31109W        W 3435  10.359   7.666  14.773
31110W        W 3436  40.702  17.968   1.503
31111W        W 3437   4.230   7.357   0.675
31112W        W 3438  21.567  26.111   0.317
31113W        W 3439  31.634  29.865   0.466
31114W        W 3440  40.780   2.216   1.779
31115W        W 3441  32.414  34.576   2.575
31116W        W 3442  32.960  24.323  13.609
31117W        W 3443   6.374  34.706  10.172
31118W        W 3444   7.780  13.946   0.976
31119W        W 3445   3.367  11.108  11.080
31120W        W 3446  35.929  34.838   1.474
31121W        W 3447  34.949  35.777   2.802
31122W        W 3448  32.027  42.526   4.339
31123W        W 3449  24.884  32.187  11.105
31124W        W 3450  20.825  15.748   0.859
31125W        W 3451  23.026  23.112  13.403
31126W        W 3452  43.598  17.082   0.866
31127W        W 3453  37.409  34.163  12.669
31128W        W 3454  32.701  37.009  10.929
31129W        W 3455   9.421  33.988   1.432
31130W        W 3456  17.779  29.892  14.085
31131W        W 3457  44.579  27.736   0.872
31132W        W 3458  44.893   0.699  13.603
31133W        W 3459  35.103  34.641   0.419
31134W        W 3460   4.385  35.968   0.392
31135W        W 3461  13.339  32.534   2.538
31136W        W 3462  28.580  40.497  11.137
31137W        W 3463  32.881  44.035  13.359
31138W        W 3464  36.344  35.049   4.948
31139W        W 3465  33.844  39.547  14.942
31140W        W 3466  36.965  20.113   4.755
31141W        W 3467  19.914   4.399  14.751
31142W        W 3468  26.763  43.504   1.748
31143W        W 3469  29.041  11.783   0.226
31144W        W 3470  30.250  30.651   0.129
31145W        W 3471   7.351  13.655   4.676
31146W        W 3472   6.789  28.669   1.715
31147W        W 3473  28.409  39.129   3.611
31148W        W 3474  42.801  29.120  13.829
31149W        W 3475  15.116  35.265  13.009
31150W        W 3476   9.207  19.519  12.059
31151W        W 3477  25.961  17.623   2.004
31152W        W 3478  34.343  34.944   4.526
31153W        W 3479  10.672   0.034   4.032
31154W        W 3480  34.901  36.098  14.166
31155W        W 3481  35.929  40.081   4.460
31156W        W 3482  39.205   1.296   3.200
31157W        W 3483  26.071   6.922   1.210
31158W        W 3484  25.121  37.053   2.604
31159W        W 3485  19.800   3.096   1.927
31160W        W 3486  34.075  23.852  14.477
31161W        W 3487  29.439  42.969   1.114
31162W        W 3488  43.283  41.345  14.896
31163W        W 3489   6.446   5.128  11.678
31164W        W 3490  37.091  26.665   2.751
31165W        W 3491  38.318  13.357  12.865
31166W        W 3492  25.896  13.606  13.609
31167W        W 3493   2.752  35.397  13.967
31168W        W 3494  37.138  43.542  13.903
31169W        W 3495  29.784   4.340  12.421
31170W        W 3496  30.050  37.728   0.160
31171W        W 3497  44.951  43.393   1.339
31172W        W 3498   4.526  39.985  13.801
31173W        W 3499  30.047  35.270  12.023
31174W        W 3500   2.936  39.345  14.936
31175W        W 3501  27.977  35.413  12.025
31176W        W 3502  18.593  24.715  14.253
31177W        W 3503  41.009  37.775  14.413
31178W        W 3504  38.080  22.585   3.222
31179W        W 3505   5.359  12.592   0.252
31180W        W 3506  38.724  43.972   3.640
31181W        W 3507  17.205  13.802   0.502
31182W        W 3508   3.735   1.313   4.084
31183W        W 3509  27.991  36.649  14.536
31184W        W 3510  43.493  22.710  14.918
31185W        W 3511  23.919   6.457  11.296
31186W        W 3512   3.404  37.548  12.492
31187W        W 3513  13.880   8.182  14.823
31188W        W 3514  43.300  22.263  11.602
31189W        W 3515  22.709  21.584  14.271
31190W        W 3516  14.258  27.103   1.359
31191W        W 3517  20.278   2.976   2.055
31192W        W 3518   5.566   8.744  12.429
31193W        W 3519  23.666  25.775   0.970
31194W        W 3520  30.362  12.360   1.462
31195W        W 3521   0.327  37.465   1.316
31196W        W 3522   2.333  36.392  10.746
31197W        W 3523   4.487  44.596   0.958
31198W        W 3524  13.586  25.731   1.202
31199W        W 3525  43.472  19.359   3.295
31200W        W 3526  23.567  17.104  10.741
31201W        W 3527  40.450  17.333  12.478
31202W        W 3528  30.924  37.572  10.376
31203W        W 3529  37.420  11.383   3.428
31204W        W 3530  23.719   7.571   1.375
31205W        W 3531  19.281  13.629  10.642
31206W        W 3532  31.021  16.304  14.990
31207W        W 3533  40.619  29.537   0.325
31208W        W 3534   3.347  41.291   2.794
31209W        W 3535  37.806   3.868   2.284
31210W        W 3536  15.544   4.305  13.911
31211W        W 3537   4.495  14.099   1.526
31212W        W 3538  30.960  31.176  12.176
31213W        W 3539  37.777  19.251  11.944
31214W        W 3540   1.640  11.652   1.138
31215W        W 3541  32.940  22.797   0.935
31216W        W 3542  24.997  13.107   2.406
31217W        W 3543   8.935  24.590  12.361
31218W        W 3544   9.490  25.125   2.596
31219W        W 3545  25.184   2.918  11.129
31220W        W 3546  42.234  39.721   2.354
31221W        W 3547  13.854  41.453   0.822
31222W        W 3548  16.574  17.731  10.622
31223W        W 3549   2.944   9.226   1.546
31224W        W 3550  42.325   2.076  12.435
31225W        W 3551  43.044  34.020   3.676
31226W        W 3552   1.015  21.822   3.794
31227W        W 3553  17.703  25.571  12.066
31228W        W 3554  39.885   2.236   0.499
31229W        W 3555  22.525  21.538  11.636
31230W        W 3556  15.807  24.986   4.707
31231W        W 3557  21.402  35.791   0.860
31232W        W 3558   4.807  25.106   4.624
31233W        W 3559  34.492  23.081   3.821
31234W        W 3560  30.564  15.737  11.884
31235W        W 3561  18.544  29.140   2.679
31236W        W 3562   8.934   9.308  13.139
31237W        W 3563  42.419  21.060   0.673
31238W        W 3564  24.346  35.909   3.384
31239W        W 3565  32.175  29.780   4.205
31240W        W 3566  15.272  35.653   1.083
31241W        W 3567  40.983  17.971  14.545
31242W        W 3568  36.496  12.712  14.830
31243W        W 3569  20.055  10.170  10.660
31244W        W 3570  13.778  23.410   2.154
31245W        W 3571  35.501  34.592  11.627
31246W        W 3572  29.380  22.581   4.611
31247W        W 3573  33.090  34.385  13.296
31248W        W 3574  30.122   2.623   1.388
31249W        W 3575  33.565  29.627  14.849
31250W        W 3576  38.136  19.266  12.520
31251W        W 3577   4.176  31.692  13.144
31252W        W 3578   6.801  24.326  11.167
31253W        W 3579  22.565  13.693  10.621
31254W        W 3580  38.894  41.202   3.165
31255W        W 3581  19.892  44.231   1.896
31256W        W 3582  40.443  18.674  14.865
31257W        W 3583  37.050  43.219   1.288
31258W        W 3584  31.572  10.872   0.546
31259W        W 3585  25.058   6.866  11.606
31260W        W 3586  19.135  34.624   1.734
31261W        W 3587   9.386  19.144  12.966
31262W        W 3588  32.747  15.605   4.589
31263W        W 3589  15.480  42.972  11.930
31264W        W 3590  34.446  23.178   0.274
31265W        W 3591   8.136  40.593  13.915
31266W        W 3592  21.776   5.125   1.311
31267W        W 3593  16.118  16.279   2.135
31268W        W 3594  40.870  19.486   1.377
31269W        W 3595  32.038  26.502  14.705
31270W        W 3596   6.496  12.183  11.192
31271W        W 3597  16.352  19.203   0.955
31272W        W 3598  44.367  27.652  11.622
31273W        W 3599   0.166  19.847  14.851
31274W        W 3600  27.682  33.811   4.236
31275W        W 3601  32.069  32.030   2.998
31276W        W 3602   9.480  29.176   4.666
31277W        W 3603  31.124  10.135   0.360
31278W        W 3604  32.918  10.252   2.606
31279W        W 3605  29.391   0.762  12.960
31280W        W 3606  43.840  40.069  14.433
31281W        W 3607  32.090  27.736   3.697
31282W        W 3608  26.651  23.027   3.845
31283W        W 3609  10.350  21.758  13.755
31284W        W 3610   4.793  36.626  10.284
31285W        W 3611  44.972  26.669  11.947
31286W        W 3612  15.693   3.779   5.180
31287W        W 3613  30.402  36.825   1.709
31288W        W 3614  10.322  42.071  12.553
31289W        W 3615   0.555  35.157  11.946
31290W        W 3616  34.257   7.219   2.886
31291W        W 3617  14.801  40.736   0.059
31292W        W 3618  31.538  27.092  13.786
31293W        W 3619   0.289  31.390   0.108
31294W        W 3620   9.803  35.521  12.375
31295W        W 3621  12.281  41.052   2.638
31296W        W 3622   7.307  16.660   0.531
31297W        W 3623  41.197   0.562  13.886
31298W        W 3624  28.428  32.531  12.588
31299W        W 3625  29.761  36.369  13.946
31300W        W 3626  27.215  37.923  11.965
31301W        W 3627  11.625  39.020   1.630
31302W        W 3628  35.620  32.480   4.216
31303W        W 3629  42.591  28.905   3.724
31304W        W 3630  38.534  10.271  12.006
31305W        W 3631  13.384   4.786   1.318
31306W        W 3632  35.342  31.166   2.751
31307W        W 3633  15.026   3.967   0.683
31308W        W 3634  19.543  28.035   0.240
31309W        W 3635   7.654  39.953   3.232
31310W        W 3636   9.118   1.075  12.746
31311W        W 3637  28.700  37.824  13.274
31312W        W 3638  38.933  27.626   0.984
31313W        W 3639  36.935  40.610  11.118
31314W        W 3640  43.951  34.098   0.531
31315W        W 3641   2.165  41.558  13.100
31316W        W 3642   6.839   4.713  14.935
31317W        W 3643  26.848  23.517  10.769
31318W        W 3644  26.667  40.028  12.464
31319W        W 3645  13.292  16.957   3.500
31320W        W 3646  27.972   5.764   4.267
31321W        W 3647  42.000   6.093   2.317
31322W        W 3648  14.825  44.538  10.629
31323W        W 3649  35.495  36.548   1.784
31324W        W 3650   0.509  23.941   0.300
31325W        W 3651  44.544  27.201  12.484
31326W        W 3652  43.222  29.898  13.504
31327W        W 3653  44.252  39.337   4.341
31328W        W 3654   1.426   5.284   4.874
31329W        W 3655  16.760  25.922   1.219
31330W        W 3656  43.710  21.176   3.294
31331W        W 3657  27.090  25.256  12.040
31332W        W 3658  22.809  33.504  11.935
31333W        W 3659  33.662   2.838  10.666
31334W        W 3660  37.273   1.474   0.679
31335W        W 3661  29.553  12.893   2.232
31336W        W 3662  18.411   5.298  13.203
31337W        W 3663  28.524  41.088   4.335
31338W        W 3664  16.396   3.840  14.382
31339W        W 3665  40.751  36.498  11.580
31340W        W 3666  25.331   3.777  14.397
31341W        W 3667  40.236  11.291  12.568
31342W        W 3668  35.898  42.905  10.651
31343W        W 3669   2.233  25.685   2.780
31344W        W 3670  10.506  30.707  12.036
31345W        W 3671   1.011  33.135   0.973
31346W        W 3672  16.127  24.989  11.113
31347W        W 3673  25.199  37.799   4.666
31348W        W 3674  24.703  22.341   3.005
31349W        W 3675  36.603  37.515  13.808
31350W        W 3676  39.875  31.421  14.281
31351W        W 3677  39.476  17.331  12.785
31352W        W 3678  37.859   6.810  11.129
31353W        W 3679   9.873  39.856   2.301
31354W        W 3680  28.447  12.254   3.381
31355W        W 3681  17.564  38.156   4.265
31356W        W 3682   9.734  37.325  13.135
31357W        W 3683  34.030   4.020  14.260
31358W        W 3684  40.564   9.907  10.628
31359W        W 3685  10.816  28.517   1.403
31360W        W 3686  25.911  13.351  11.920
31361W        W 3687  22.429  32.147  10.128
31362W        W 3688  25.210  30.617  11.967
31363W        W 3689   8.291   5.186   1.584
31364W        W 3690  40.456  25.405   3.243
31365W        W 3691  17.809   4.443   0.892
31366W        W 3692  14.843  40.600   2.424
31367W        W 3693   8.703   6.899   0.790
31368W        W 3694   4.800  41.319   3.765
31369W        W 3695  42.844  13.189  11.876
31370W        W 3696  22.688   4.842   3.533
31371W        W 3697  35.122   6.250  12.453
31372W        W 3698  23.973  21.505   3.467
31373W        W 3699  35.396  36.309  13.020
31374W        W 3700  15.308   0.487  10.619
31375W        W 3701  19.716  25.244  14.575
31376W        W 3702  29.275  35.926  13.661
31377W        W 3703  12.847  16.303   2.848
31378W        W 3704  40.030   8.734   3.320
31379W        W 3705   5.309  12.399  14.766
31380W        W 3706  10.595  20.727  14.811
31381W        W 3707  32.029  40.120  13.325
31382W        W 3708  37.879  16.083  11.022
31383W        W 3709   4.178  15.825   4.484
31384W        W 3710  28.636  40.077   1.250
31385W        W 3711  39.004   4.431  11.659
31386W        W 3712  31.151  42.341   3.643
31387W        W 3713  39.042  22.259   3.902
31388W        W 3714  25.707  36.091  10.700
31389W        W 3715   3.277  10.524  10.219
31390W        W 3716   2.382  35.522  14.794
31391W        W 3717   7.951  25.695  11.841
31392W        W 3718  25.252  22.407  11.942
31393W        W 3719  32.940  22.383  13.406
31394W        W 3720  27.111  43.531   1.303
31395W        W 3721  31.950  18.841   4.107
31396W        W 3722  38.497   2.967   0.991
31397W        W 3723   7.840  22.025  10.687
31398W        W 3724  29.260  10.657  14.971
31399W        W 3725  41.907  20.746  14.078
31400W        W 3726  15.519  29.112   9.672
31401W        W 3727  11.259  43.991   1.357
31402W        W 3728  30.464   2.390   3.765
31403W        W 3729   0.245  38.369  11.666
31404W        W 3730  21.664  17.284  10.379
31405W        W 3731  13.694  33.307  12.348
31406W        W 3732  33.636  19.150   3.611
31407W        W 3733  35.034  43.485   3.812
31408W        W 3734  15.768  43.236   4.188
31409W        W 3735  29.299  33.131  10.381
31410W        W 3736  13.741  33.183   5.095
31411W        W 3737   3.432  22.223  14.776
31412W        W 3738  17.967  13.180  14.384
31413W        W 3739  10.123  12.695  13.503
31414W        W 3740  32.561   6.353   1.785
31415W        W 3741  23.997  12.264  11.899
31416W        W 3742  34.555  11.277  12.456
31417W        W 3743  17.105  19.571  10.671
31418W        W 3744  13.430  37.396  14.474
31419W        W 3745   9.449  31.947  14.885
31420W        W 3746   5.714  31.439  12.059
31421W        W 3747  24.529  43.486  13.505
31422W        W 3748  12.400  28.281  10.628
31423W        W 3749  31.388  26.016  12.709
31424W        W 3750   0.460   2.840  11.878
31425W        W 3751  44.465   2.185   0.807
31426W        W 3752   5.275  26.244  13.063
31427W        W 3753  18.810   1.553   3.282
31428W        W 3754   1.645  31.410  12.131
31429W        W 3755   4.657  37.036  13.435
31430W        W 3756   4.201  44.235   4.179
31431W        W 3757   1.279  37.442  11.646
31432W        W 3758   5.415   7.568   4.138
31433W        W 3759  39.942  24.155   1.804
31434W        W 3760  39.073  39.361   2.745
31435W        W 3761  32.353  29.986  11.548
31436W        W 3762  26.549  34.248  11.601
31437W        W 3763   3.275  33.538   0.175
31438W        W 3764  20.300   1.935   2.728
31439W        W 3765  28.547  26.450   1.323
31440W        W 3766   4.906   5.176   3.789
31441W        W 3767  26.256  33.679   1.645
31442W        W 3768  28.081  37.043  10.608
31443W        W 3769  10.288   6.836  12.774
31444W        W 3770  39.213  42.816  14.379
31445W        W 3771   4.866  37.983  14.652
31446W        W 3772   9.452  15.747  14.071
31447W        W 3773   7.864   5.373   4.577
31448W        W 3774  14.849  10.177  12.786
31449W        W 3775  14.712  13.760  14.989
31450W        W 3776  27.338  24.224   0.973
31451W        W 3777  40.566  17.455  10.634
31452W        W 3778   6.255  10.411  11.216
31453W        W 3779  44.904  11.563   0.378
31454W        W 3780  43.652   5.292   4.560
31455W        W 3781   8.803   3.769   0.710
31456W        W 3782  33.898  12.656   1.358
31457W        W 3783  33.006  28.926  10.545
31458W        W 3784  41.610  14.051   2.737
31459W        W 3785  21.164  16.090   2.823
31460W        W 3786  34.174  24.939   1.313
31461W        W 3787  12.914   5.199  13.087
31462W        W 3788  11.327  35.111   1.023
31463W        W 3789   3.775  11.894   0.333
31464W        W 3790  27.093  17.808  12.373
31465W        W 3791  13.667  15.517   1.662
31466W        W 3792   9.863   5.878   3.204
31467W        W 3793  22.937  10.875  10.727
31468W        W 3794   4.451  17.169  11.007
31469W        W 3795  33.162  16.158  11.434
31470W        W 3796   1.253  43.515   4.183
31471W        W 3797   7.740  34.623  12.794
31472W        W 3798   5.952  13.434   0.017
31473W        W 3799  16.147  34.373   0.943
31474W        W 3800  33.023  15.510  10.728
31475W        W 3801  43.498  31.946   3.789
31476W        W 3802  35.606  19.121   1.786
31477W        W 3803  29.831   3.845  11.575
31478W        W 3804  38.901  19.776   3.306
31479W        W 3805   5.935  32.127  11.118
31480W        W 3806  10.728  34.363  11.188
31481W        W 3807  24.496  39.573  12.887
31482W        W 3808  23.143  22.242  12.649
31483W        W 3809  17.152  37.965   4.005
31484W        W 3810  36.547  10.353   2.655
31485W        W 3811  25.710  36.033   3.736
31486W        W 3812  27.654  41.540  11.964
31487W        W 3813  15.806  19.176  11.962
31488W        W 3814  14.512  11.785   3.791
31489W        W 3815  34.608  37.256  13.306
31490W        W 3816  26.353  27.136   5.007
31491W        W 3817  35.518  33.453   2.608
31492W        W 3818  26.082  37.910   3.156
31493W        W 3819   7.378  31.990  14.808
31494W        W 3820  19.239  18.823  11.940
31495W        W 3821  37.569  21.602  14.423
31496W        W 3822  42.934  30.924   3.299
31497W        W 3823  16.712   3.437  12.978
31498W        W 3824  19.518   9.911  13.820
31499W        W 3825  39.552  33.557   1.275
31500W        W 3826   7.942  30.800  12.860
31501W        W 3827  10.592  33.422   3.787
31502W        W 3828   5.324   3.995  12.661
31503W        W 3829  37.934  25.460   1.173
31504W        W 3830   5.810  26.875  13.642
31505W        W 3831   1.562  30.569   1.498
31506W        W 3832  11.805  24.283  10.901
31507W        W 3833  12.758  22.270   1.392
31508W        W 3834  15.525  33.968   1.399
31509W        W 3835  38.542  16.046  13.553
31510W        W 3836  10.909  42.513   0.559
31511W        W 3837  29.412  20.079  11.661
31512W        W 3838  18.677  44.315   2.739
31513W        W 3839   1.583  39.364  11.908
31514W        W 3840  15.077  25.205  11.137
31515W        W 3841  14.382  25.626  10.235
31516W        W 3842  33.627  36.838   3.239
31517W        W 3843   7.454   1.910  11.654
31518W        W 3844   4.752  33.366  13.253
31519W        W 3845   4.971   6.035   1.309
31520W        W 3846  29.931  29.930  14.915
31521W        W 3847  18.093  41.529   3.808
31522W        W 3848  11.026  28.292   1.823
31523W        W 3849   2.413   5.408  13.539
31524W        W 3850  15.509  13.842  11.868
31525W        W 3851  14.650  37.085  14.789
31526W        W 3852   4.242   5.431   0.793
31527W        W 3853  26.785  14.196  10.707
31528W        W 3854  28.932  10.213   3.747
31529W        W 3855  37.910   2.758   1.815
31530W        W 3856  14.658  31.487  14.824
31531W        W 3857   9.674  32.944   4.049
31532W        W 3858  31.150   5.348  10.423
31533W        W 3859  13.381  32.835   5.853
31534W        W 3860   7.261  24.339  12.698
31535W        W 3861  32.013  18.085  13.828
31536W        W 3862  40.594  12.622  13.840
31537W        W 3863  13.597  24.253   1.282
31538W        W 3864  43.770  34.451   0.087
31539W        W 3865  24.277   2.451  14.773
31540W        W 3866  24.063  16.465   4.516
31541W        W 3867  13.705  13.782   0.055
31542W        W 3868  36.970  17.681   0.218
31543W        W 3869  21.570  39.844  10.604
31544W        W 3870   5.817   9.996  14.468
31545W        W 3871  11.211   3.699   3.670
31546W        W 3872  30.513  40.911   2.653
31547W        W 3873   4.685   8.378  13.952
31548W        W 3874   5.215  26.808  13.906
31549W        W 3875  11.091  20.210  12.904
31550W        W 3876  24.222   5.786  12.905
31551W        W 3877  32.581  34.944  12.351
31552W        W 3878  43.903  12.781   1.399
31553W        W 3879  31.565  44.303   3.246
31554W        W 3880  35.582  40.975   2.321
31555W        W 3881  20.438  23.930  14.706
31556W        W 3882  13.750  14.749   3.642
31557W        W 3883  13.175  40.169  13.238
31558W        W 3884  17.375  39.194  13.923
31559W        W 3885  15.706  29.816  10.764
31560W        W 3886  20.723  27.860   1.046
31561W        W 3887  35.371  41.505  10.915
31562W        W 3888  43.992   4.533  10.178
31563W        W 3889   6.922   8.806   3.185
31564W        W 3890  22.822  15.107  11.157
31565W        W 3891  10.722  22.839   2.902
31566W        W 3892  39.439  10.660  10.451
31567W        W 3893  24.939  33.898   3.623
31568W        W 3894  44.485  43.577  13.128
31569W        W 3895  34.035  26.707   0.244
31570W        W 3896  22.575  27.292   3.634
31571W        W 3897  16.591  30.656  10.955
31572W        W 3898  34.497  24.660  13.281
31573W        W 3899  20.295   0.353  14.314
31574W        W 3900  11.608  31.426   0.628
31575W        W 3901  29.209   1.422   3.446
31576W        W 3902  14.592  26.197  12.128
31577W        W 3903   9.648   4.383   0.255
31578W        W 3904  19.800   4.266  10.668
31579W        W 3905  13.865  22.175   2.245
31580W        W 3906   7.751  39.727  10.781
31581W        W 3907  10.880  22.667  13.534
31582W        W 3908   4.020  21.580  10.967
31583W        W 3909  24.244  27.956   5.029
31584W        W 3910  27.087  17.547  11.916
31585W        W 3911  38.552   4.666   0.316
31586W        W 3912  31.000   0.043   5.143
31587W        W 3913  21.940   8.275   4.626
31588W        W 3914  15.814   8.591   4.333
31589W        W 3915   4.348   6.690   1.306
31590W        W 3916   6.208   0.261   0.832
31591W        W 3917  31.321  44.499  14.834
31592W        W 3918  41.840  26.586   3.766
31593W        W 3919   9.052  37.958  11.657
31594W        W 3920  41.529  13.432  12.975
31595W        W 3921  21.940   0.835   1.378
31596W        W 3922  19.739   8.875  12.884
31597W        W 3923  20.197  33.490   2.884
31598W        W 3924  12.853  43.341  14.812
31599W        W 3925  44.967  26.855  14.648
31600W        W 3926   8.319  19.674  11.178
31601W        W 3927  27.078   5.151   2.208
31602W        W 3928   2.395  41.148  10.675
31603W        W 3929  17.691  11.962   0.768
31604W        W 3930   2.197  43.929   0.418
31605W        W 3931  44.958  21.500   1.232
31606W        W 3932   4.308   4.728   1.328
31607W        W 3933  28.750  44.949  11.031
31608W        W 3934  29.934  36.894  11.735
31609W        W 3935  38.443   2.752   0.007
31610W        W 3936  24.611  35.281   1.271
31611W        W 3937  21.056  32.444  12.965
31612W        W 3938  31.415  10.859  13.191
31613W        W 3939  24.105  24.541   4.363
31614W        W 3940  23.666  44.919   3.761
31615W        W 3941   7.730  30.209   3.268
31616W        W 3942  25.746  32.349  11.045
31617W        W 3943  24.106  40.743  12.149
31618W        W 3944   0.259  27.920   2.403
31619W        W 3945  38.846   3.917   0.700
31620W        W 3946   7.577   9.343   3.274
31621W        W 3947  37.106   3.674  13.033
31622W        W 3948   2.087  30.726   1.638
31623W        W 3949   4.768  19.100   1.472
31624W        W 3950  42.231  25.611  13.943
31625W        W 3951  20.551  16.630  14.026
31626W        W 3952   8.956  36.873  12.002
31627W        W 3953  37.551  12.410   1.727
31628W        W 3954  24.574  20.534   1.231
31629W        W 3955  11.532   0.703   1.716
31630W        W 3956  30.510   9.354   2.529
31631W        W 3957  36.701   8.205  14.879
31632W        W 3958  19.872  36.406   4.136
31633W        W 3959  24.625  17.277   0.948
31634W        W 3960   7.303  23.567   4.110
31635W        W 3961   1.225  13.109   0.305
31636W        W 3962  20.790  14.642   0.346
31637W        W 3963  29.163   4.195  14.226
31638W        W 3964  41.478  26.821  14.381
31639W        W 3965  44.542  41.098   3.282
31640W        W 3966  42.517  35.382  10.493
31641W        W 3967   7.252  11.799  13.134
31642W        W 3968  35.133   0.170  13.835
31643W        W 3969  37.805  33.461   0.468
31644W        W 3970  43.929  12.443   1.773
31645W        W 3971   8.563  22.233  13.412
31646W        W 3972  41.511   3.459  13.953
31647W        W 3973  37.402  35.880   0.244
31648W        W 3974  39.494  35.158  10.626
31649W        W 3975  31.468   6.903  13.504
31650W        W 3976  39.000  31.007  10.575
31651W        W 3977  17.338  36.394   2.711
31652W        W 3978  18.841  19.243   0.354
31653W        W 3979  34.011  28.693   4.624
31654W        W 3980  38.479  22.395   3.725
31655W        W 3981  14.682   1.695  13.493
31656W        W 3982  26.515  10.770   3.893
31657W        W 3983  43.225  44.373   0.380
31658W        W 3984  18.332  38.102  13.070
31659W        W 3985  19.774  40.308  10.708
31660W        W 3986  12.952   8.808  13.860
31661W        W 3987  35.832  27.437  12.958
31662W        W 3988   0.707  23.934  10.646
31663W        W 3989  11.123   6.041   1.369
31664W        W 3990  39.693   3.418   1.481
31665W        W 3991  26.942  19.333   2.406
31666W        W 3992  20.576  42.748  14.424
31667W        W 3993  29.114  19.313  14.334
31668W        W 3994   0.862  23.238   0.796
31669W        W 3995   1.173  16.648  12.509
31670W        W 3996  38.730  31.444  10.681
31671W        W 3997  41.000  34.817   2.706
31672W        W 3998  10.733  27.744  11.186
31673W        W 3999  20.543  12.025   0.283
31674W        W 4000   1.357  22.743  11.094
31675W        W 4001   8.286  26.531  14.454
31676W        W 4002  44.486  41.581  11.609
31677W        W 4003  22.560  18.078   4.427
31678W        W 4004  42.242   2.862   2.776
31679W        W 4005  40.791  26.526   3.086
31680W        W 4006  11.227  33.406   3.333
31681W        W 4007  14.322  20.286  13.332
31682W        W 4008   1.778  14.574  10.721
31683W        W 4009  20.273  31.301   4.896
31684W        W 4010  17.181  25.476   2.807
31685W        W 4011  22.768   8.752   1.139
31686W        W 4012   1.910  40.368   2.837
31687W        W 4013  17.687  21.513   2.388
31688W        W 4014  19.199  22.697  10.701
31689W        W 4015  27.772  19.044  14.852
31690W        W 4016   2.336   1.953   3.082
31691W        W 4017  13.189  43.313   4.957
31692W        W 4018  11.239   9.856  14.787
31693W        W 4019  28.208   4.210   4.175
31694W        W 4020  22.911  39.989  11.978
31695W        W 4021   3.896  12.603  14.117
31696W        W 4022  23.416   5.877  14.815
31697W        W 4023  31.292   8.997   0.086
31698W        W 4024  42.074   5.643  12.068
31699W        W 4025  18.165  43.267   2.216
31700W        W 4026  31.096  23.870   3.158
31701W        W 4027  35.044   6.360   4.210
31702W        W 4028  21.712  19.479  12.092
31703W        W 4029  35.122   5.810  12.047
31704W        W 4030  44.848  17.477  10.877
31705W        W 4031  27.712  42.759   4.124
31706W        W 4032  33.152  13.390   1.889
31707W        W 4033  44.133  24.492   4.018
31708W        W 4034  10.609  18.331   0.432
31709W        W 4035   2.935  15.735   4.161
31710W        W 4036  11.851  40.931   1.448
31711W        W 4037  20.329   5.335  13.017
31712W        W 4038  25.717  31.648   4.296
31713W        W 4039  18.031  36.359   2.288
31714W        W 4040  11.255   4.335  12.078
31715W        W 4041   6.660  31.066  13.042
31716W        W 4042  34.643   5.897  14.473
31717W        W 4043  22.025  31.867  12.943
31718W        W 4044  14.976  36.966   0.179
31719W        W 4045  27.756  31.141  14.492
31720W        W 4046  36.359  26.909   0.815
31721W        W 4047  18.673  41.011  10.689
31722W        W 4048  43.532  34.483  11.276
31723W        W 4049  31.321  15.535   3.612
31724W        W 4050  25.500  39.030   1.268
31725W        W 4051  19.124  24.032   4.619
31726W        W 4052  13.627  26.706  14.501
31727W        W 4053  18.200  29.360  12.636
31728W        W 4054  16.848  11.611   4.678
31729W        W 4055   8.684  10.350  11.061
31730W        W 4056  39.780  39.552   0.217
31731W        W 4057   5.746  18.493  12.193
31732W        W 4058   8.463  12.320  10.769
31733W        W 4059  19.128   8.739   2.785
31734W        W 4060   6.039  23.412   2.651
31735W        W 4061  21.054  20.122  14.271
31736W        W 4062  29.103   9.676  12.654
31737W        W 4063  13.310  13.000  13.360
31738W        W 4064  40.751  11.343  10.982
31739W        W 4065   6.716  31.702   1.976
31740W        W 4066   9.684   8.611   5.154
31741W        W 4067  19.578   3.408  14.360
31742W        W 4068  34.531  39.851   3.594
31743W        W 4069  27.554   7.615   4.301
31744W        W 4070   6.297  34.885   0.250
31745W        W 4071  38.261  31.637  12.033
31746W        W 4072  41.953  21.721  13.821
31747W        W 4073  35.291   4.646  13.343
31748W        W 4074   1.588   1.559   5.095
31749W        W 4075  17.244   0.080  11.584
31750W        W 4076  23.723   8.388   4.083
31751W        W 4077  39.162  20.099   0.253
31752W        W 4078  16.089   7.264   4.038
31753W        W 4079  18.534  16.691  12.024
31754W        W 4080   2.805  31.942   0.922
31755W        W 4081  15.613  33.591   4.860
31756W        W 4082  11.318  38.541  13.895
31757W        W 4083  19.102   1.379  13.868
31758W        W 4084   7.877  41.222   0.378
31759W        W 4085   8.968   7.986   2.417
31760W        W 4086  18.519  43.430   2.624
31761W        W 4087   5.223  39.188  12.991
31762W        W 4088  37.944  22.625   3.729
31763W        W 4089  44.053   5.700   2.818
31764W        W 4090   9.842  43.287   3.667
31765W        W 4091  42.307  33.372   4.427
31766W        W 4092  26.392   8.358  11.255
31767W        W 4093   6.121   2.772  14.583
31768W        W 4094  36.642  41.520  13.060
31769W        W 4095   1.487   5.723  14.108
31770W        W 4096  34.062  14.718  12.687
31771W        W 4097  43.795  10.296   3.318
31772W        W 4098  33.477   1.286  14.463
31773W        W 4099  15.137  35.342   4.748
31774W        W 4100  30.161  36.859   1.269
31775W        W 4101  21.943  43.947   1.212
31776W        W 4102  21.129  28.731  14.791
31777W        W 4103  43.604  20.695   1.646
31778W        W 4104  12.630  23.268  10.407
31779W        W 4105  36.344   4.298   2.318
31780W        W 4106  23.294  10.312   1.952
31781W        W 4107   9.354  14.341  11.664
31782W        W 4108  23.183  13.700  12.483
31783W        W 4109   7.615  12.913  11.145
31784W        W 4110   8.965  18.144   4.841
31785W        W 4111  17.931   2.936  14.374
31786W        W 4112  29.350  39.044   4.522
31787W        W 4113  28.892   4.578   2.583
31788W        W 4114  40.597   9.671  14.300
31789W        W 4115  13.156  37.980  12.559
31790W        W 4116  19.730  34.434   2.732
31791W        W 4117  27.255  28.612   3.348
31792W        W 4118  24.000  11.053  10.556
31793W        W 4119  23.492  35.109   4.340
31794W        W 4120  15.829  36.538  12.934
31795W        W 4121  19.971  30.874   2.606
31796W        W 4122   7.158  16.119   2.308
31797W        W 4123  18.692  33.386   1.704
31798W        W 4124  19.380  16.636   2.002
31799W        W 4125  32.446  20.256   1.269
31800W        W 4126   6.427  24.604  11.537
31801W        W 4127   6.902  42.038  13.491
31802W        W 4128  15.684  38.306  11.510
31803W        W 4129  15.567  43.932  12.399
31804W        W 4130  31.909  35.605   0.014
31805W        W 4131  44.342  42.542   3.694
31806W        W 4132  37.063  23.692  13.998
31807W        W 4133  24.285  41.572  10.698
31808W        W 4134  12.278  17.835  11.995
31809W        W 4135  24.727  30.086  10.564
31810W        W 4136  14.428  14.587  11.650
31811W        W 4137  18.496  31.575   4.683
31812W        W 4138  37.796  27.119  13.896
31813W        W 4139  13.084  37.732  11.425
31814W        W 4140  43.162   8.937  12.708
31815W        W 4141  26.502  37.432  14.954
31816W        W 4142   2.768  19.982   1.052
31817W        W 4143  31.939  42.666  10.312
31818W        W 4144  27.805  13.910   1.814
31819W        W 4145   0.344  10.987   4.659
31820W        W 4146  25.463  28.791   3.663
31821W        W 4147  21.631  26.732   1.753
31822W        W 4148   2.287  26.918   3.240
31823W        W 4149  23.481  35.981  12.606
31824W        W 4150   2.061   7.864   3.125
31825W        W 4151  27.069  13.278  13.891
31826W        W 4152  25.412  32.615  11.333
31827W        W 4153  28.717   9.980  12.467
31828W        W 4154  38.034  28.010   3.745
31829W        W 4155   5.779  10.107  12.379
31830W        W 4156  37.912  28.921  11.180
31831W        W 4157  14.554  34.021  13.005
31832W        W 4158  17.811  38.547   2.837
31833W        W 4159  10.775  26.741  10.050
31834W        W 4160   1.106  17.659  14.807
31835W        W 4161  36.358  17.897  11.479
31836W        W 4162  30.663  26.701   1.810
31837W        W 4163   4.245  16.587  10.378
31838W        W 4164   1.400  43.316   0.297
31839W        W 4165  12.559  28.602   2.824
31840W        W 4166   9.155  39.442  11.594
31841W        W 4167   6.714  34.114  11.633
31842W        W 4168   3.419  10.304  13.815
31843W        W 4169  41.237  11.576   0.426
31844W        W 4170  17.634   5.926  11.676
31845W        W 4171  16.764  34.454  11.549
31846W        W 4172  30.886   2.480   1.288
31847W        W 4173  14.366  13.811   1.254
31848W        W 4174  43.497   3.445  10.674
31849W        W 4175   8.751   8.408   2.225
31850W        W 4176  11.261  28.939   1.394
31851W        W 4177   8.081  30.046  12.595
31852W        W 4178  28.038  11.210   4.744
31853W        W 4179   2.704  42.329   3.627
31854W        W 4180   3.261   3.016  14.335
31855W        W 4181  21.038  42.268   0.233
31856W        W 4182  34.056  32.527   4.624
31857W        W 4183  19.562  29.964  10.720
31858W        W 4184   2.461  13.114   4.957
31859W        W 4185  25.553   9.929   4.438
31860W        W 4186  35.877   8.840  14.032
31861W        W 4187  24.666  44.035   3.636
31862W        W 4188  41.895  37.874   2.664
31863W        W 4189  41.964  38.133  10.746
31864W        W 4190  26.959  42.898   5.188
31865W        W 4191  22.977   9.637   1.846
31866W        W 4192  18.125  37.126   1.847
31867W        W 4193  21.717  37.995  11.993
31868W        W 4194  22.755   4.761  14.253
31869W        W 4195  28.552   8.206   1.085
31870W        W 4196  28.106   9.576   2.712
31871W        W 4197  30.682   3.038  11.660
31872W        W 4198  12.175  35.416   3.736
31873W        W 4199  35.582   8.106   4.505
31874W        W 4200  33.327  27.901   2.277
31875W        W 4201   1.032  13.154  11.135
31876W        W 4202  33.427  20.924  12.558
31877W        W 4203  43.388  44.015   1.932
31878W        W 4204   1.744  26.617   4.062
31879W        W 4205   5.163  17.631   1.830
31880W        W 4206  33.248  32.497   4.699
31881W        W 4207   9.630  34.814   3.987
31882W        W 4208  37.419  32.522  11.522
31883W        W 4209   9.420  13.245  12.383
31884W        W 4210   8.936  16.083  13.533
31885W        W 4211  21.989  25.304  10.994
31886W        W 4212  23.969  18.987   0.961
31887W        W 4213   3.213   5.117   2.547
31888W        W 4214  19.792  26.553  10.055
31889W        W 4215  38.060  41.057  12.855
31890W        W 4216  39.950  32.545  11.182
31891W        W 4217  34.236  32.287   4.143
31892W        W 4218  20.566  20.352   0.710
31893W        W 4219  14.143  44.516   0.278
31894W        W 4220  25.200  15.210   5.590
31895W        W 4221   8.301   2.476   4.900
31896W        W 4222  11.089  28.670   2.691
31897W        W 4223  30.118  40.982  12.070
31898W        W 4224  28.435   1.224  13.057
31899W        W 4225  17.941  11.220  14.756
31900W        W 4226   1.684  14.657   0.115
31901W        W 4227  34.957  32.714   4.656
31902W        W 4228  37.259  29.145   2.222
31903W        W 4229  22.553   2.427  14.294
31904W        W 4230  27.989  41.596   3.810
31905W        W 4231  37.057  42.381  14.519
31906W        W 4232  25.247   6.599  12.856
31907W        W 4233   0.921  35.067   3.722
31908W        W 4234  22.969  10.437   2.877
31909W        W 4235  39.385  19.603   2.217
31910W        W 4236  28.498   7.863   0.409
31911W        W 4237  23.305  11.642  11.133
31912W        W 4238  14.130  28.204   3.312
31913W        W 4239  38.953  43.319   4.391
31914W        W 4240  31.377  16.137  12.841
31915W        W 4241   1.348  17.243  14.518
31916W        W 4242  13.686  25.723   0.256
31917W        W 4243   9.302  25.226  14.152
31918W        W 4244  22.922  10.272   4.294
31919W        W 4245   7.693  25.115  10.703
31920W        W 4246  13.733  44.494   3.187
31921W        W 4247   4.444  14.543   2.274
31922W        W 4248  39.342  26.034  10.606
31923W        W 4249  30.540   4.482  12.973
31924W        W 4250  24.383   8.340  14.417
31925W        W 4251  38.012   0.192  10.995
31926W        W 4252  23.223  19.767   4.642
31927W        W 4253   8.232   2.982   4.847
31928W        W 4254   6.616  20.525  14.406
31929W        W 4255  33.528  10.573   4.281
31930W        W 4256   6.855  13.111   1.351
31931W        W 4257  38.798  40.367   0.872
31932W        W 4258  36.884  43.082  10.386
31933W        W 4259  22.174  32.431  11.426
31934W        W 4260  34.146  17.723  11.118
31935W        W 4261  25.625  10.515   2.902
31936W        W 4262   2.937  32.893  12.591
31937W        W 4263  20.351  34.569  12.897
31938W        W 4264   1.678  36.725  12.005
31939W        W 4265  33.292  12.122   2.782
31940W        W 4266  36.973  35.059   4.291
31941W        W 4267  16.850  26.054  13.968
31942W        W 4268  14.510  27.154   1.814
31943W        W 4269  21.806   7.628  12.027
31944W        W 4270   4.767   8.802   3.225
31945W        W 4271  15.224  39.044  11.012
31946W        W 4272  16.046  37.823  12.935
31947W        W 4273  39.193  26.578   4.075
31948W        W 4274  34.983  28.400  13.867
31949W        W 4275  23.146  42.428  10.713
31950W        W 4276  14.304  25.236   2.056
31951W        W 4277  42.335  24.654   0.401
31952W        W 4278  15.605  33.204  13.001
31953W        W 4279  24.545  27.648   1.253
31954W        W 4280  17.627  44.891   0.701
31955W        W 4281  31.707  10.897  14.994
31956W        W 4282  20.415  38.926  13.877
31957W        W 4283   5.336  42.957   3.821
31958W        W 4284  27.202  14.274   0.167
31959W        W 4285   8.610   5.708  11.634
31960W        W 4286  31.762  35.983  10.543
31961W        W 4287   3.381  16.409  13.835
31962W        W 4288  42.684  24.020  12.072
31963W        W 4289  10.367  41.826  13.987
31964W        W 4290   8.392  41.043   0.418
31965W        W 4291   9.789  32.909  12.757
31966W        W 4292  33.542  44.307  14.983
31967W        W 4293  13.245  16.096  13.829
31968W        W 4294   4.159  42.545   3.756
31969W        W 4295   4.297   9.066  14.175
31970W        W 4296   8.069  15.116  14.799
31971W        W 4297  27.356   0.778  11.234
31972W        W 4298  39.565  10.094  12.059
31973W        W 4299   9.298  31.404  14.970
31974W        W 4300  21.499  18.025  11.898
31975W        W 4301  25.946  13.682   1.006
31976W        W 4302  19.141  36.584  10.824
31977W        W 4303  20.020   7.421  14.438
31978W        W 4304   7.731  19.314   0.360
31979W        W 4305   6.133   9.352   1.891
31980W        W 4306  29.465  42.093   0.887
31981W        W 4307  25.585  16.556   0.712
31982W        W 4308  35.024  44.383  13.535
31983W        W 4309  15.975  25.302   1.748
31984W        W 4310  31.064  27.083  14.563
31985W        W 4311  25.806  25.712   1.379
31986W        W 4312   0.371  24.002  11.516
31987W        W 4313  16.762   0.498  14.337
31988W        W 4314   3.299  13.568  13.619
31989W        W 4315  33.599  16.552  14.925
31990W        W 4316  22.759  44.260  11.972
31991W        W 4317   4.806  25.704  12.607
31992W        W 4318  17.335  32.631  13.983
31993W        W 4319  18.460  40.160  13.805
31994W        W 4320   4.257   7.699  11.952
31995W        W 4321  27.948  36.350   0.899
31996W        W 4322  23.700  37.967   2.246
31997W        W 4323  37.996   8.797  13.457
31998W        W 4324  11.669  37.914  13.120
31999W        W 4325  21.153  17.833  14.233
32000W        W 4326  30.363  10.669   3.843
32001W        W 4327  40.590  30.862  11.549
32002W        W 4328   2.897  16.293   3.041
32003W        W 4329  22.749  10.682   4.577
32004W        W 4330  22.308   7.363  11.231
32005W        W 4331  18.046  33.354   2.266
32006W        W 4332  35.969  18.788  12.592
32007W        W 4333  14.199  22.553  14.814
32008W        W 4334  10.750   8.510   0.878
32009W        W 4335  38.868  16.336   4.574
32010W        W 4336  26.148  27.423   1.950
32011W        W 4337  10.332  39.182  11.981
32012W        W 4338   8.654  13.102   0.375
32013W        W 4339  36.049   2.756   4.149
32014W        W 4340   5.248  37.852  11.595
32015W        W 4341  32.314  15.652  14.424
32016W        W 4342   5.829   1.134  11.186
32017W        W 4343  14.699  42.892  12.907
32018W        W 4344  35.588  30.988   3.162
32019W        W 4345  25.337  24.098  14.368
32020W        W 4346  14.260   6.329   3.208
32021W        W 4347  36.804  37.492  14.319
32022W        W 4348  38.850  23.365   1.958
32023W        W 4349  27.387  20.787   4.328
32024W        W 4350   5.372  38.887   4.550
32025W        W 4351  32.406  44.283  13.348
32026W        W 4352  39.905  39.712   4.607
32027W        W 4353  44.837  23.574   1.703
32028W        W 4354  16.296  14.394  14.418
32029W        W 4355  33.892  37.675  13.769
32030W        W 4356  32.382  30.155  14.552
32031W        W 4357   5.228  11.165  10.487
32032W        W 4358  19.204  35.708   4.620
32033W        W 4359  24.999  43.492  10.664
32034W        W 4360  27.707  35.357   0.727
32035W        W 4361   0.216  14.352   4.551
32036W        W 4362   6.026  40.445  14.363
32037W        W 4363  25.136  15.666  13.527
32038W        W 4364  41.460  10.390  10.650
32039W        W 4365  22.568  23.238   1.889
32040W        W 4366  33.499  44.565   1.846
32041W        W 4367  37.066   3.475  13.877
32042W        W 4368  37.956  34.852   3.082
32043W        W 4369  12.704  25.874  14.743
32044W        W 4370  23.454   7.363  14.254
32045W        W 4371  32.258  31.293   1.911
32046W        W 4372   2.447  10.153   9.833
32047W        W 4373  18.178  20.084  10.769
32048W        W 4374  33.479  15.659   0.543
32049W        W 4375  24.710  40.984  11.494
32050W        W 4376  10.067   7.201  14.726
32051W        W 4377  22.313  16.209  13.755
32052W        W 4378   5.130   4.318   0.888
32053W        W 4379  24.120  12.689  12.333
32054W        W 4380  41.863  35.331  12.370
32055W        W 4381  31.470  18.651   2.131
32056W        W 4382  19.676  39.718  13.157
32057W        W 4383  30.655  15.337  14.995
32058W        W 4384  10.650  23.361   3.036
32059W        W 4385  32.437  32.349  12.557
32060W        W 4386  31.132  32.684   1.557
32061W        W 4387  19.031  35.098   2.549
32062W        W 4388  38.477  29.845  12.072
32063W        W 4389   1.823  11.425  14.968
32064W        W 4390   4.773  19.114   4.630
32065W        W 4391  29.831  34.098  12.503
32066W        W 4392  18.235  38.916   1.275
32067W        W 4393  38.848  10.246  13.330
32068W        W 4394  25.536  19.929   4.065
32069W        W 4395  22.091  14.898  13.905
32070W        W 4396  13.246  40.526  14.494
32071W        W 4397  32.437  13.340  13.602
32072W        W 4398  10.379  21.716   0.212
32073W        W 4399  35.423   6.765  13.317
32074W        W 4400  16.306   7.811  12.013
32075W        W 4401   9.122  23.748  12.964
32076W        W 4402  36.480  24.813   3.237
32077W        W 4403  27.508  35.483   3.617
32078W        W 4404  33.021  41.316   4.974
32079W        W 4405   0.741  27.692  12.442
32080W        W 4406   3.258   8.591   2.325
32081W        W 4407  28.708   7.318   3.248
32082W        W 4408  41.421  19.113  11.119
32083W        W 4409  25.402  11.619  13.862
32084W        W 4410  13.846   7.962   0.289
32085W        W 4411  12.586  34.239   1.776
32086W        W 4412  31.093  36.575  11.786
32087W        W 4413  10.385  43.399  12.056
32088W        W 4414  41.298  10.515  11.898
32089W        W 4415   1.775  12.598   2.348
32090W        W 4416  24.380  18.605   9.766
32091W        W 4417   6.232   7.742  14.237
32092W        W 4418  21.253  44.023  13.553
32093W        W 4419  34.133  28.484   0.878
32094W        W 4420  25.479   2.390   0.286
32095W        W 4421  17.035   9.753  12.192
32096W        W 4422  30.017  27.485   1.154
32097W        W 4423  21.544   4.113   1.224
32098W        W 4424  23.767  32.385  12.898
32099W        W 4425   2.402  15.100   0.467
32100W        W 4426  31.152  36.425   0.448
32101W        W 4427  16.480  20.552   0.144
32102W        W 4428  34.161  16.651  12.886
32103W        W 4429  24.050  36.140   1.273
32104W        W 4430  13.267  24.104   1.962
32105W        W 4431  16.177  34.477  14.230
32106W        W 4432  10.191  13.221   4.076
32107W        W 4433  28.210  41.859   2.336
32108W        W 4434  22.294  10.636  12.102
32109W        W 4435  21.153  18.477   2.649
32110W        W 4436   1.348  25.679   3.517
32111W        W 4437  34.074  35.696  10.774
32112W        W 4438  16.593  42.521  14.029
32113W        W 4439  14.264  27.933   0.027
32114W        W 4440  23.742  24.577   2.253
32115W        W 4441  22.224  17.175   2.780
32116W        W 4442  14.098  34.378  10.245
32117W        W 4443   7.481  19.747   3.328
32118W        W 4444   3.641  13.208  10.653
32119W        W 4445  14.205   5.948  14.576
32120W        W 4446  21.503   8.645  14.405
32121W        W 4447  28.723  20.659  14.225
32122W        W 4448  22.178  30.544  14.463
32123W        W 4449  19.395  39.896   1.832
32124W        W 4450  17.836  23.455   1.400
32125W        W 4451   0.990  27.052  11.124
32126W        W 4452  27.693  26.217   3.250
32127W        W 4453  10.288  41.890  12.060
32128W        W 4454  39.967  36.137   4.626
32129W        W 4455  20.121  30.915   4.575
32130W        W 4456   8.706   7.494  13.439
32131W        W 4457  41.963  31.748  12.518
32132W        W 4458   3.899   7.786  10.694
32133W        W 4459  36.350   5.375  11.548
32134W        W 4460  25.612  31.921   1.861
32135W        W 4461  40.818  33.021   2.165
32136W        W 4462  17.627  22.102  13.083
32137W        W 4463  19.468  39.931   0.023
32138W        W 4464  22.755  14.470   0.870
32139W        W 4465  17.306  17.431  13.856
32140W        W 4466  11.940  12.185   0.343
32141W        W 4467   1.419  38.019  14.549
32142W        W 4468  40.347  36.094  11.932
32143W        W 4469  43.923  30.457   4.203
32144W        W 4470  16.838  23.809  13.612
32145W        W 4471   7.429  32.497  12.489
32146W        W 4472  33.350   2.033   2.173
32147W        W 4473   3.870  15.825  14.359
32148W        W 4474  31.079  41.617   4.568
32149W        W 4475   0.950  32.204  10.963
32150W        W 4476  32.342  25.295  11.671
32151W        W 4477   6.441   9.088  14.019
32152W        W 4478  22.551  29.183  13.010
32153W        W 4479  21.496   9.940   1.769
32154W        W 4480  19.777   4.496   1.675
32155W        W 4481  12.196   0.130   2.537
32156W        W 4482  24.240  17.617   2.531
32157W        W 4483  33.866   6.409   4.065
32158W        W 4484  28.647  21.099   4.857
32159W        W 4485  28.933  27.977  13.560
32160W        W 4486  14.645  15.087   3.840
32161W        W 4487  33.444  11.586  13.892
32162W        W 4488   2.223  11.409   2.771
32163W        W 4489  21.478   5.416   3.151
32164W        W 4490  39.999  25.437  14.395
32165W        W 4491  25.785   0.299   0.475
32166W        W 4492  20.141  17.876   0.093
32167W        W 4493  15.878  15.328  13.852
32168W        W 4494   6.671  14.103   1.461
32169W        W 4495  29.003  10.116  12.891
32170W        W 4496  24.576  38.808  14.518
32171W        W 4497  40.088  39.774   1.040
32172W        W 4498  10.351  44.999  11.568
32173W        W 4499  44.933  14.621   2.292
32174W        W 4500  30.061  12.855  12.010
32175W        W 4501  33.109  25.707  14.825
32176W        W 4502   2.318  24.063   0.044
32177W        W 4503  16.174   3.319   0.830
32178W        W 4504  33.923   6.603  10.304
32179W        W 4505  43.901  36.461  14.760
32180W        W 4506  17.646  41.229   3.708
32181W        W 4507  20.183  34.762   0.182
32182W        W 4508  39.618  10.269   0.034
32183W        W 4509  34.885   3.761  12.410
32184W        W 4510  31.952   4.461  13.931
32185W        W 4511   4.867  44.933   1.884
32186W        W 4512  11.374  33.439  14.036
32187W        W 4513  25.553  25.440   0.466
32188W        W 4514  15.207   3.339   1.705
32189W        W 4515   7.795  16.714  14.299
32190W        W 4516   4.865  26.123  10.911
32191W        W 4517   9.366  41.938   2.610
32192W        W 4518  11.096  39.888   2.717
32193W        W 4519  32.684  16.432  11.578
32194W        W 4520  25.430  10.261   3.354
32195W        W 4521  43.285  24.764  12.406
32196W        W 4522  43.075  28.626   2.122
32197W        W 4523  19.280  15.132   3.681
32198W        W 4524   6.099  32.361  10.353
32199W        W 4525  37.931  21.947   2.511
32200W        W 4526  17.780  40.769  13.913
32201W        W 4527  27.551  19.283  10.679
32202W        W 4528  20.565  25.692  14.538
32203W        W 4529  38.027  33.035   0.206
32204W        W 4530  42.937  18.579   4.359
32205W        W 4531  26.120  34.333   2.640
32206W        W 4532  26.459  41.522   2.176
32207W        W 4533  20.125  13.516  14.720
32208W        W 4534  44.277   8.876   3.179
32209W        W 4535  12.186  30.677   0.374
32210W        W 4536  23.070  21.052  11.169
32211W        W 4537  23.001  10.811   4.134
32212W        W 4538   0.142  23.925   3.094
32213W        W 4539  15.592  23.313  13.902
32214W        W 4540  44.454  29.005  12.885
32215W        W 4541  29.402  20.563  14.983
32216W        W 4542  31.159   1.830  13.302
32217W        W 4543  19.507  41.459   0.398
32218W        W 4544  16.092   8.139   4.604
32219W        W 4545  26.098  40.450  11.179
32220W        W 4546  32.018  42.421   1.676
32221W        W 4547   5.310  22.259  12.164
32222W        W 4548   3.920  22.721  12.427
32223W        W 4549  40.864  44.482  10.764
32224W        W 4550  23.242  16.382  14.732
32225W        W 4551  28.743  37.362  12.439
32226W        W 4552  12.629   4.772  13.068
32227W        W 4553  29.572  17.301   5.161
32228W        W 4554   4.210  15.281  11.931
32229W        W 4555  11.687  36.372   0.828
32230W        W 4556  34.490  14.312   3.643
32231W        W 4557  35.430  18.085  12.427
32232W        W 4558  25.016   3.341  10.637
32233W        W 4559  10.372  32.075   2.869
32234W        W 4560  28.360   7.340   0.278
32235W        W 4561  38.922  18.259  10.629
32236W        W 4562  36.897  25.644  14.986
32237W        W 4563  28.407  29.473  14.642
32238W        W 4564  12.321  17.025  14.832
32239W        W 4565  14.149  19.281  10.429
32240W        W 4566  36.659   4.164  11.289
32241W        W 4567  10.271  40.486  14.403
32242W        W 4568  32.419  10.307   2.771
32243W        W 4569  32.925  17.226   3.210
32244W        W 4570   6.957  26.129   0.248
32245W        W 4571  17.517  19.079   4.650
32246W        W 4572  40.445   8.642   3.628
32247W        W 4573  11.173   5.142   4.242
32248W        W 4574  16.455  39.015  13.137
32249W        W 4575  36.422  43.916  10.726
32250W        W 4576  18.932  35.813  14.490
32251W        W 4577  15.198   0.668   4.116
32252W        W 4578  20.860  21.446   1.457
32253W        W 4579  35.589  44.877   0.795
32254W        W 4580  28.822  21.439   2.590
32255W        W 4581  17.144  18.791   4.405
32256W        W 4582   7.583  41.117  12.609
32257W        W 4583  23.233   2.521  14.955
32258W        W 4584  18.116  23.975  13.052
32259W        W 4585  28.837  22.590   3.727
32260W        W 4586  42.325  21.181   3.706
32261W        W 4587  44.589  31.499  10.653
32262W        W 4588  38.805   8.431   4.081
32263W        W 4589  24.609  41.778   1.649
32264W        W 4590  36.401   3.760   2.271
32265W        W 4591  37.546  30.962   4.116
32266W        W 4592  20.777  40.345  14.238
32267W        W 4593  22.190   1.518   1.832
32268W        W 4594  40.257   5.217  14.491
32269W        W 4595  15.786  17.889  13.259
32270W        W 4596   2.345  21.728   4.163
32271W        W 4597   6.676  21.621  12.489
32272W        W 4598  33.067  37.520   2.793
32273W        W 4599  16.071  44.468   0.430
32274W        W 4600  18.027  14.758  13.508
32275W        W 4601  19.073   9.115  10.682
32276W        W 4602   6.874  20.425   2.895
32277W        W 4603  11.738   1.270   2.366
32278W        W 4604  31.166  43.251  13.973
32279W        W 4605  10.150  15.068  12.443
32280W        W 4606  31.852  16.804  11.792
32281W        W 4607  11.290  14.288  14.255
32282W        W 4608  42.786   7.215   2.434
32283W        W 4609   8.463  11.349  13.006
32284W        W 4610  38.539  18.126   2.399
32285W        W 4611  42.554   6.476   4.896
32286W        W 4612  16.926  42.116  11.122
32287W        W 4613  33.102   0.940   0.528
32288W        W 4614  27.818   6.916  10.263
32289W        W 4615  23.420   4.462  12.052
32290W        W 4616   7.901  25.607  10.350
32291W        W 4617  37.089  44.335  11.359
32292W        W 4618  20.000  36.459  14.473
32293W        W 4619  28.856  27.000  14.802
32294W        W 4620  26.861   6.414   2.774
32295W        W 4621  15.579  42.233  11.557
32296W        W 4622  42.016  37.146   0.786
32297W        W 4623   6.421  37.093  11.657
32298W        W 4624  14.287  33.342  11.642
32299W        W 4625  31.908  39.537   1.200
32300W        W 4626   4.763   4.313   0.515
32301W        W 4627  38.047  13.617   3.700
32302W        W 4628  18.091  20.980  14.843
32303W        W 4629  30.974   4.741   1.276
32304W        W 4630  22.505   6.664  14.485
32305W        W 4631  14.228  10.155   1.782
32306W        W 4632  38.830  18.840   4.632
32307W        W 4633  19.707   7.262  11.730
32308W        W 4634   9.436  39.894  11.557
32309W        W 4635  16.559  43.970  12.024
32310W        W 4636  34.646  18.576  12.277
32311W        W 4637  38.193  17.842   0.670
32312W        W 4638  42.622  36.862  14.894
32313W        W 4639  18.209  40.042  11.861
32314W        W 4640  31.564  15.346  11.029
32315W        W 4641   4.890   4.943  11.975
32316W        W 4642   2.879  11.893   3.200
32317W        W 4643  17.035  37.008  11.831
32318W        W 4644   9.718  14.847  14.104
32319W        W 4645  31.990  25.307   0.381
32320W        W 4646  10.163   8.093  11.652
32321W        W 4647  11.992  26.957  12.781
32322W        W 4648  20.730  26.531  12.413
32323W        W 4649  18.743  41.922   1.634
32324W        W 4650  24.045   2.578   2.867
32325W        W 4651  12.832   1.533  12.473
32326W        W 4652  35.473  14.762  11.933
32327W        W 4653  17.344  23.110   0.740
32328W        W 4654  10.490  37.820   4.605
32329W        W 4655  13.130  29.006   4.087
32330W        W 4656  22.924  21.319   2.778
32331W        W 4657   7.088  18.183  14.384
32332W        W 4658  41.164  29.483   0.086
32333W        W 4659  39.106  25.238  13.480
32334W        W 4660   0.135   1.105   1.833
32335W        W 4661  37.348  27.610  11.941
32336W        W 4662  15.328  36.676   3.361
32337W        W 4663   2.377  29.524   4.037
32338W        W 4664  11.963  37.430  14.365
32339W        W 4665  24.175   1.519  10.675
32340W        W 4666  23.897  34.479  12.557
32341W        W 4667  18.242  37.923   4.519
32342W        W 4668  27.138  27.874   1.427
32343W        W 4669   8.410  22.332   0.895
32344W        W 4670  34.387   8.582  13.498
32345W        W 4671  31.834   9.368  11.019
32346W        W 4672  12.123  21.737  13.304
32347W        W 4673  26.088  24.101  10.939
32348W        W 4674  22.715  36.967  14.482
32349W        W 4675  20.683  28.461  12.970
32350W        W 4676  40.613  41.217   2.019
32351W        W 4677  28.113  41.362   4.756
32352W        W 4678  36.070  34.033   2.207
32353W        W 4679  33.543  18.831  11.550
32354W        W 4680  15.352  36.949   3.786
32355W        W 4681  25.668  23.764  13.566
32356W        W 4682  30.992  12.676   2.219
32357W        W 4683  40.914   4.076  11.061
32358W        W 4684   9.356  30.964   1.454
32359W        W 4685   5.347  34.031   2.113
32360W        W 4686  23.480  36.866   1.194
32361W        W 4687   8.759  24.188  11.596
32362W        W 4688  43.566  40.798   4.104
32363W        W 4689  35.911   7.092   0.425
32364W        W 4690  42.074  27.143   0.078
32365W        W 4691  33.692  27.322   3.117
32366W        W 4692  25.616  13.485  12.692
32367W        W 4693  35.385   2.901  12.333
32368W        W 4694  11.724  16.349  11.566
32369W        W 4695  22.794   4.817  12.352
32370W        W 4696  41.952  41.053   0.878
32371W        W 4697  17.706  26.906   4.675
32372W        W 4698  10.520  24.218   3.619
32373W        W 4699  30.171   0.887  12.851
32374W        W 4700  42.970  27.228  14.546
32375W        W 4701  11.654   4.286   4.954
32376W        W 4702  38.000  42.788  13.360
32377W        W 4703  39.368   4.334   4.659
32378W        W 4704  19.729  19.499  11.990
32379W        W 4705  14.714  43.257  11.122
32380W        W 4706  23.144  11.582  12.003
32381W        W 4707  10.813  27.454   0.528
32382W        W 4708  20.153   7.282  12.518
32383W        W 4709  27.049  13.753  10.699
32384W        W 4710   7.016  11.527  13.858
32385W        W 4711  43.945  35.656  13.741
32386W        W 4712  17.257  43.516   4.192
32387W        W 4713   6.844   8.089  12.482
32388W        W 4714  33.476  44.507   0.968
32389W        W 4715  18.575  12.149   3.189
32390W        W 4716   7.344  42.770  10.369
32391W        W 4717  20.702  13.305  14.851
32392W        W 4718   5.104  22.590  13.530
32393W        W 4719   2.996  13.616  14.981
32394W        W 4720  28.160   4.110   0.393
32395W        W 4721  14.638  40.331  10.890
32396W        W 4722  13.800  38.602   3.138
32397W        W 4723  42.067  17.646  11.907
32398W        W 4724  18.293  12.754   1.813
32399W        W 4725  24.190  10.360   2.692
32400W        W 4726  41.883  26.188   0.819
32401W        W 4727  16.744  39.063   0.287
32402W        W 4728  30.743  22.555   4.090
32403W        W 4729  16.837  11.213   1.841
32404W        W 4730  35.448   9.517  11.067
32405W        W 4731  39.925   5.619   1.746
32406W        W 4732  23.214  23.259   3.604
32407W        W 4733  41.872  28.547   4.334
32408W        W 4734   7.639   2.910  13.953
32409W        W 4735  39.326  33.292   4.359
32410W        W 4736   0.929  35.948  14.710
32411W        W 4737   9.402   6.332   0.792
32412W        W 4738  41.265   1.773  14.385
32413W        W 4739   1.485  43.422  13.861
32414W        W 4740   2.300  28.131   0.364
32415W        W 4741  29.864   1.213  10.742
32416W        W 4742  14.394  32.867   1.199
32417W        W 4743  33.820  39.883  10.697
32418W        W 4744  23.208  12.650   3.799
32419W        W 4745   2.966  17.270   5.137
32420W        W 4746  42.588  41.345   2.430
32421W        W 4747   5.313   1.901   4.947
32422W        W 4748  43.240  28.785   3.360
32423W        W 4749  26.141  36.896   3.780
32424W        W 4750  34.427  30.423   0.372
32425W        W 4751  39.489  41.752  13.573
32426W        W 4752  30.557  28.009   2.154
32427W        W 4753  35.361  39.611   0.055
32428W        W 4754   2.842  33.623  11.965
32429W        W 4755  33.887  16.905   3.147
32430W        W 4756   0.106  11.146  14.495
32431W        W 4757  20.047  12.058   0.058
32432W        W 4758  20.933   2.300  13.559
32433W        W 4759  32.496  37.452   0.745
32434W        W 4760  32.739  42.242  12.492
32435W        W 4761   4.266  12.644  14.937
32436W        W 4762  40.272  10.877  14.280
32437W        W 4763  12.613   6.375   3.233
32438W        W 4764  40.452  15.636  10.357
32439W        W 4765   4.733  33.484  11.016
32440W        W 4766  16.608  33.521  10.725
32441W        W 4767   4.606  35.819   2.151
32442W        W 4768  20.571   7.415  10.729
32443W        W 4769  30.085  11.348  10.646
32444W        W 4770  23.123  29.916  12.575
32445W        W 4771  21.434  16.125   4.549
32446W        W 4772  41.493   3.239   4.309
32447W        W 4773  17.243  37.817   4.482
32448W        W 4774  19.754  28.601   4.880
32449W        W 4775  15.110  35.863  10.742
32450W        W 4776  21.117  34.483   0.386
32451W        W 4777  44.562  25.674   2.220
32452W        W 4778  11.691   7.933   1.682
32453W        W 4779   9.864  32.043   2.934
32454W        W 4780   2.555   1.315  10.728
32455W        W 4781  39.116  31.480   2.167
32456W        W 4782  11.586  40.002   1.527
32457W        W 4783  20.319  10.662   3.164
32458W        W 4784  30.278  16.981  13.893
32459W        W 4785   8.200  12.566   1.990
32460W        W 4786   2.279   3.605  13.710
32461W        W 4787  29.063  33.434   3.026
32462W        W 4788  23.767  33.101   4.095
32463W        W 4789  44.483  26.132   0.255
32464W        W 4790  21.449  31.497  12.470
32465W        W 4791  30.219   1.406  12.898
32466W        W 4792   5.715   6.935   2.241
32467W        W 4793  39.484   5.793   4.307
32468W        W 4794  35.985  41.055   1.338
32469W        W 4795  22.194  40.482  14.036
32470W        W 4796  22.552  19.101  12.578
32471W        W 4797   5.238   3.453   4.084
32472W        W 4798  30.105  26.762   4.506
32473W        W 4799  41.809  12.195  12.019
32474W        W 4800  10.330   4.859   2.342
32475W        W 4801  32.380  26.939  12.648
32476W        W 4802  32.531  40.402   0.831
32477W        W 4803  30.673  30.019   1.729
32478W        W 4804  30.346  25.990  10.830
32479W        W 4805  27.684  16.332  14.914
32480W        W 4806  40.759   4.695  13.542
32481W        W 4807  18.319  33.470  12.507
32482W        W 4808  38.011  32.465   2.902
32483W        W 4809  40.421   8.524   4.142
32484W        W 4810  15.926  20.287  14.477
32485W        W 4811  41.766  30.191  12.626
32486W        W 4812  43.253  26.813  13.404
32487W        W 4813   4.960  39.720   4.486
32488W        W 4814  32.956  33.013  10.314
32489W        W 4815   4.522  13.550  14.809
32490W        W 4816   7.606  33.610  13.510
32491W        W 4817  39.022  19.344   0.037
32492W        W 4818  23.643  22.981  11.106
32493W        W 4819  37.098  13.110   1.317
32494W        W 4820  19.173  18.636   4.583
32495W        W 4821  24.120  32.574   1.874
32496W        W 4822  26.483  35.383  13.065
32497W        W 4823  44.846  12.589   0.490
32498W        W 4824  36.331  38.467  12.152
32499W        W 4825  22.030  12.316   0.530
32500W        W 4826  43.912  11.180   3.127
32501W        W 4827  30.396  26.528  10.998
32502W        W 4828   9.347  28.849   3.735
32503W        W 4829   3.711  30.783  10.183
32504W        W 4830   5.830  10.873   1.608
32505W        W 4831  12.341  17.313  12.025
32506W        W 4832  32.875  31.112   0.454
32507W        W 4833  11.662  26.183   4.641
32508W        W 4834  36.950  25.081   4.675
32509W        W 4835   0.017  34.419   1.370
32510W        W 4836  28.595  12.373   0.640
32511W        W 4837   2.870  28.653  14.756
32512W        W 4838   9.173  44.846   3.180
32513W        W 4839   0.447  10.345  14.843
32514W        W 4840  37.699  39.884   2.406
32515W        W 4841  29.070  15.238   4.622
32516W        W 4842   4.312  26.052   4.166
32517W        W 4843  44.849   5.579  12.219
32518W        W 4844   2.037  12.799   0.782
32519W        W 4845  29.125  27.694   5.066
32520W        W 4846   4.894  34.428  14.808
32521W        W 4847  43.964  19.413  13.787
32522W        W 4848  23.973   0.756  13.019
32523W        W 4849  21.932  23.260  11.595
32524W        W 4850  25.693  19.709  14.513
32525W        W 4851   8.239   0.356   3.876
32526W        W 4852  18.046  13.313   0.729
32527W        W 4853  12.863   1.847  12.049
32528W        W 4854  40.367  43.971  14.804
32529W        W 4855   8.240  11.762  12.184
32530W        W 4856   2.028  16.870   3.776
32531W        W 4857  19.070   2.342  12.923
32532W        W 4858  41.022  33.414   2.912
32533W        W 4859   0.910  14.331   0.402
32534W        W 4860   7.293  44.807  13.071
32535W        W 4861  10.044  33.732   0.108
32536W        W 4862  38.989  36.151   0.851
32537W        W 4863  34.872  12.569   4.524
32538W        W 4864  42.792   1.365  12.133
32539W        W 4865   1.871  37.622  11.968
32540W        W 4866  42.809  22.926  11.197
32541W        W 4867  36.576   3.683  11.400
32542W        W 4868  26.677  37.061  11.565
32543W        W 4869  36.618   7.416   4.262
32544W        W 4870   9.136  23.302  13.992
32545W        W 4871  35.559   5.984   1.830
32546W        W 4872  13.708  12.063  12.435
32547W        W 4873  15.330  34.194  11.887
32548W        W 4874  33.048  42.294   0.745
32549W        W 4875  31.247  19.795  11.554
32550W        W 4876  39.957  39.743  13.375
32551W        W 4877   0.832  30.027  10.666
32552W        W 4878   3.413  37.371  14.459
32553W        W 4879  11.208   8.656  14.521
32554W        W 4880  21.120  34.490   3.620
32555W        W 4881  23.971  42.839  12.798
32556W        W 4882   3.811  21.247   5.063
32557W        W 4883   0.766  14.265   4.492
32558W        W 4884  30.312  43.923  11.332
32559W        W 4885  38.328  12.124  12.638
32560W        W 4886  44.052  17.305   4.297
32561W        W 4887  30.959   6.026   0.667
32562W        W 4888   3.953  28.895   0.788
32563W        W 4889  24.252  38.427  14.858
32564W        W 4890   6.895  43.985   1.467
32565W        W 4891   0.777  38.990  11.154
32566W        W 4892  12.086  22.381  11.506
32567W        W 4893  41.018   6.750  13.828
32568W        W 4894   9.943  24.292   2.286
32569W        W 4895  44.273  31.902  10.728
32570W        W 4896   2.485   3.889   2.119
32571W        W 4897  16.857  30.398  14.045
32572W        W 4898  28.892   8.758   3.272
32573W        W 4899  36.013  39.171  13.129
32574W        W 4900  23.482   1.688   0.225
32575W        W 4901  34.644  11.002  11.994
32576W        W 4902   3.718  22.439   4.216
32577W        W 4903  32.336  25.703   0.330
32578W        W 4904  33.655  14.750  14.258
32579W        W 4905  10.897  26.929   0.611
32580W        W 4906  25.068  12.760   3.621
32581W        W 4907  27.751  32.021   1.868
32582W        W 4908  18.278  43.349  13.483
32583W        W 4909  28.097  42.555   2.979
32584W        W 4910  37.089   3.182   4.122
32585W        W 4911  18.148  25.935   3.475
32586W        W 4912  40.781  26.876   1.691
32587W        W 4913  44.785  17.403  11.401
32588W        W 4914  11.321   3.987   1.826
32589W        W 4915  33.894  25.619  14.445
32590W        W 4916  11.310  24.623   0.465
32591W        W 4917   7.630  13.334   0.424
32592W        W 4918   9.801  37.978   1.280
32593W        W 4919   7.864   6.539  11.110
32594W        W 4920  42.412  30.458   3.690
32595W        W 4921  18.333   9.918  11.997
32596W        W 4922  32.497  38.692   4.551
32597W        W 4923  39.247  29.360  13.913
32598W        W 4924  18.327  28.962   4.243
32599W        W 4925  43.367  25.848  11.015
32600W        W 4926   1.975   7.040  13.106
32601W        W 4927  35.530  17.991  14.344
32602W        W 4928   0.338   7.588  13.766
32603W        W 4929   0.433  13.282   3.315
32604W        W 4930  39.651  36.450   2.180
32605W        W 4931  19.735   8.773  14.553
32606W        W 4932  10.790  35.852  11.997
32607W        W 4933  23.024   3.231   3.113
32608W        W 4934  41.795  33.762  11.141
32609W        W 4935   4.441  44.917   2.848
32610W        W 4936  19.130  22.818  11.464
32611W        W 4937  41.925  28.894   3.048
32612W        W 4938   0.984  17.053   2.791
32613W        W 4939  33.533  20.745  11.366
32614W        W 4940  28.138  28.978  13.447
32615W        W 4941  25.525  17.548   1.723
32616W        W 4942  12.285  42.808  11.734
32617W        W 4943  42.784  42.441  13.024
32618W        W 4944   6.813  20.133   4.336
32619W        W 4945  33.105  11.177  11.056
32620W        W 4946  37.698  21.787   1.735
32621W        W 4947  41.277  36.608   2.636
32622W        W 4948  15.811  27.952  13.502
32623W        W 4949  20.621  41.824   3.654
32624W        W 4950  24.452  24.698  10.804
32625W        W 4951  20.527  19.337   2.228
32626W        W 4952   6.663  26.027   0.696
32627W        W 4953  18.182  15.300   1.073
32628W        W 4954  34.876  37.351  12.499
32629W        W 4955  26.222  16.248   2.408
32630W        W 4956   3.193  44.919  14.289
32631W        W 4957  39.281  38.239   0.467
32632W        W 4958  15.820  11.723  14.945
32633W        W 4959  43.426   2.911   3.437
32634W        W 4960  35.124  20.601   1.754
32635W        W 4961  41.730   2.037  12.600
32636W        W 4962  26.967   5.822   3.791
32637W        W 4963   7.423  39.946   4.219
32638W        W 4964  34.497  35.582  11.566
32639W        W 4965   7.412  24.763   2.661
32640W        W 4966  34.852  18.719  10.686
32641W        W 4967  20.543  10.002  14.046
32642W        W 4968  17.297   7.263   2.492
32643W        W 4969  19.589  39.446  11.142
32644W        W 4970   7.939  39.696  14.837
32645W        W 4971  34.082  13.387   1.876
32646W        W 4972  20.703  18.671  10.687
32647W        W 4973  27.624  43.431  12.083
32648W        W 4974  25.021   2.933  12.050
32649W        W 4975  28.289  32.116   4.174
32650W        W 4976   3.664  25.039  12.978
32651W        W 4977   5.365  10.644  12.982
32652W        W 4978   0.357  11.180   2.829
32653W        W 4979   3.607   2.016  14.145
32654W        W 4980  25.691  38.349   2.118
32655W        W 4981   3.015  18.294   0.215
32656W        W 4982  35.911  16.040   2.818
32657W        W 4983   9.524  19.367  11.655
32658W        W 4984  39.364  39.167   4.256
32659W        W 4985  27.211  16.432   3.411
32660W        W 4986  26.750  30.012  12.572
32661W        W 4987  10.208   6.702  14.394
32662W        W 4988  25.060  33.205  14.319
32663W        W 4989  22.221  19.760  10.896
32664W        W 4990  27.968  15.529  11.867
32665W        W 4991  28.980  28.970  13.547
32666W        W 4992  22.981   0.328   0.842
32667W        W 4993  20.522  21.150   2.353
32668W        W 4994   2.945  12.163   1.418
32669W        W 4995  26.860  26.026   5.002
32670W        W 4996  43.815   7.405   4.491
32671W        W 4997   2.498   6.855  10.553
32672W        W 4998  30.247  39.829   1.490
32673W        W 4999  16.078   7.691   4.306
32674W        W 5000  12.770  19.135   3.859
32675W        W 5001   1.301  30.675   2.349
32676W        W 5002  36.347  44.936  11.428
32677W        W 5003  40.491  32.992  14.854
32678W        W 5004  28.103  34.252   0.245
32679W        W 5005  43.726  35.227   3.101
32680W        W 5006  37.004  25.989   3.664
32681W        W 5007  37.144   5.309   0.741
32682W        W 5008  16.705  44.723  12.515
32683W        W 5009  28.635  16.555  10.616
32684W        W 5010   3.432  17.329   2.097
32685W        W 5011  32.851  32.587  12.311
32686W        W 5012  25.974  35.895   2.798
32687W        W 5013  11.094  36.384   3.820
32688W        W 5014  43.199   8.865   0.783
32689W        W 5015  38.542  11.855   3.262
32690W        W 5016  23.274   0.156  14.882
32691W        W 5017  12.694  34.584   2.167
32692W        W 5018  26.621   2.893  11.656
32693W        W 5019   6.022  26.304   5.060
32694W        W 5020  42.297  16.157  12.058
32695W        W 5021   9.769  16.185  14.002
32696W        W 5022  44.718  20.532   2.842
32697W        W 5023  42.693  19.244   0.370
32698W        W 5024   6.677  34.143   2.359
32699W        W 5025  25.685   3.314  11.675
32700W        W 5026  15.375  33.940  10.616
32701W        W 5027   8.466  21.265   0.947
32702W        W 5028   0.698  21.677  10.825
32703W        W 5029  23.280  39.987   9.945
32704W        W 5030  19.656   4.118  13.608
32705W        W 5031  22.174  15.333   2.721
32706W        W 5032  44.787   6.710   0.376
32707W        W 5033  22.082  13.398   4.804
32708W        W 5034  23.612  23.390   2.923
32709W        W 5035  33.357  18.046  13.141
32710W        W 5036  44.744  23.717   4.332
32711W        W 5037  24.686  39.903   1.883
32712W        W 5038   3.011  34.155  12.906
32713W        W 5039  12.135  14.045   1.743
32714W        W 5040  26.869   9.661  12.482
32715W        W 5041   5.405  40.514   1.352
32716W        W 5042  32.527   0.264   0.386
32717W        W 5043  36.602  16.165   4.078
32718W        W 5044  44.990  28.424   2.155
32719W        W 5045  12.852   7.885  13.131
32720W        W 5046   6.158  15.762   4.624
32721W        W 5047   9.588  33.826  11.523
32722W        W 5048  40.777  14.375   4.433
32723W        W 5049   3.142  17.538  14.790
32724W        W 5050  36.985  19.952   3.354
32725W        W 5051  32.820   8.751  11.553
32726W        W 5052   2.665  24.577   5.602
32727W        W 5053   6.451  10.682   4.574
32728W        W 5054   5.347   2.332   4.114
32729W        W 5055  13.603   0.775  13.093
32730W        W 5056   3.358   5.773   3.305
32731W        W 5057  34.381  37.810  13.904
32732W        W 5058  21.251  39.917   1.920
32733W        W 5059  29.041   4.950  14.817
32734W        W 5060  26.892  38.596  12.694
32735W        W 5061  14.819   3.938   1.152
32736W        W 5062  24.972  35.601   0.590
32737W        W 5063  31.413  27.237  13.160
32738W        W 5064  18.274  18.838  11.964
32739W        W 5065   1.787  16.273  11.391
32740W        W 5066  22.970  28.015   1.888
32741W        W 5067   4.904  31.142  14.103
32742W        W 5068   8.662  23.835  14.702
32743W        W 5069  41.374  24.729   4.692
32744W        W 5070  22.019  33.478   2.688
32745W        W 5071  19.174  16.892  14.667
32746W        W 5072  29.211  17.686   1.402
32747W        W 5073  12.952  11.151  14.319
32748W        W 5074  16.267  31.492  14.315
32749W        W 5075  44.267   6.943  13.797
32750W        W 5076   2.183   5.772   4.572
32751W        W 5077  42.483  29.703  11.441
32752W        W 5078  13.496  24.138   4.831
32753W        W 5079  40.874  23.048  12.146
32754W        W 5080   1.003  33.357   0.476
32755W        W 5081  28.758   5.942   1.010
32756W        W 5082  21.693  39.381  13.541
32757W        W 5083  33.002  36.615  11.665
32758W        W 5084  44.331  31.190  12.486
32759W        W 5085  29.291   1.461  12.009
32760W        W 5086  38.015   9.719   5.543
32761W        W 5087   3.706  11.381   4.622
32762W        W 5088  40.443  34.723   3.783
32763W        W 5089  16.633  34.366  10.474
32764W        W 5090  10.269  24.911  12.352
32765W        W 5091  35.480   0.276  11.669
32766W        W 5092  39.919  25.212  10.682
32767W        W 5093  29.008  24.620   1.757
32768W        W 5094  27.623  24.156   4.407
32769W        W 5095   8.683  31.196  14.489
32770W        W 5096  33.876  38.114   0.257
32771W        W 5097   2.269   8.118  14.573
32772W        W 5098  44.372   3.470  13.858
32773W        W 5099   2.499  18.672  11.127
32774W        W 5100  31.908  22.273  11.921
32775W        W 5101   8.255  38.973   3.091
32776W        W 5102  29.934  13.861   4.515
32777W        W 5103  12.828  27.716   0.236
32778W        W 5104  10.315   4.872  13.588
32779W        W 5105   4.030  44.367  12.851
32780W        W 5106   3.207  14.184  12.081
32781W        W 5107  14.283  19.690  14.143
32782W        W 5108  30.055  42.398   0.070
32783W        W 5109  14.371  23.942   0.383
32784W        W 5110  24.252  34.249   2.677
32785W        W 5111  43.391  39.854  10.304
32786W        W 5112   4.512  24.009   0.180
32787W        W 5113  43.172  44.142   1.123
32788W        W 5114  31.964  36.328  13.371
32789W        W 5115  14.909  11.782  11.027
32790W        W 5116   5.108  26.086   0.765
32791W        W 5117  21.386  38.828  12.008
32792W        W 5118  33.439   7.141  12.354
32793W        W 5119  14.269  42.804   0.872
32794W        W 5120   6.704  30.422   2.814
32795W        W 5121  42.414  35.444   0.902
32796W        W 5122   6.174  38.903   0.829
32797W        W 5123  39.988  21.020  11.446
32798W        W 5124   3.720  19.600   2.826
32799W        W 5125   7.767  17.420   3.601
32800W        W 5126   3.399  35.014   4.119
32801W        W 5127  41.703  32.447  13.085
32802W        W 5128  11.693  32.617  10.924
32803W        W 5129  41.040  28.486   1.839
32804W        W 5130  33.547  19.568  13.105
32805W        W 5131  19.558  42.071  10.662
32806W        W 5132  15.408  39.439  14.848
32807W        W 5133  26.094   7.467  13.481
32808W        W 5134  42.245  11.696  10.700
32809W        W 5135  26.615  34.043   1.647
32810W        W 5136  17.770  44.638  14.771
32811W        W 5137  37.394  30.739   2.151
32812W        W 5138  44.176  38.346   2.278
32813W        W 5139  32.882  25.648   4.218
32814W        W 5140  31.160  23.752   4.804
32815W        W 5141  29.127   8.294  13.413
32816W        W 5142  18.211  37.065   4.616
32817W        W 5143  13.713   2.395   3.655
32818W        W 5144  16.805   7.532  14.519
32819W        W 5145  31.993  21.131   1.401
32820W        W 5146  31.885  24.503   4.190
32821W        W 5147  44.256  19.570   9.920
32822W        W 5148  33.523  34.625  11.962
32823W        W 5149  14.663  44.384  13.355
32824W        W 5150  23.019  41.933  13.861
32825W        W 5151  38.545  35.990  14.502
32826W        W 5152  25.710  38.559   0.331
32827W        W 5153  41.183  23.867  12.867
32828W        W 5154  31.352  16.822  14.460
32829W        W 5155  43.102  38.478  10.443
32830W        W 5156   7.218  26.664   2.748
32831W        W 5157  37.175  24.467   1.388
32832W        W 5158  33.116  34.868  14.059
32833W        W 5159  29.459  38.055   4.161
32834W        W 5160  37.111   0.254  10.800
32835W        W 5161  19.564  31.959   4.125
32836W        W 5162  14.523  37.572   4.052
32837W        W 5163   0.679  44.176   4.188
32838W        W 5164  43.959  11.292   4.097
32839W        W 5165  41.443   1.036  12.834
32840W        W 5166  12.891  30.170   4.674
32841W        W 5167  15.388  37.869   4.066
32842W        W 5168  22.769  23.722   1.901
32843W        W 5169  41.306  21.293  11.155
32844W        W 5170  11.290   5.866  13.874
32845W        W 5171  42.986  19.605  10.631
32846W        W 5172  18.125  11.639  14.498
32847W        W 5173  28.557  12.758  12.490
32848W        W 5174  12.639  35.794   1.440
32849W        W 5175  20.582  40.577  14.758
32850W        W 5176  42.561  34.350  13.810
32851W        W 5177  32.051   1.329  12.949
32852W        W 5178  26.129  16.644   0.070
32853W        W 5179   4.513   4.571  13.636
32854W        W 5180   6.235  25.531  14.043
32855W        W 5181   5.936  24.433   1.424
32856W        W 5182  10.917   3.269  12.104
32857W        W 5183  28.220  25.578  12.561
32858W        W 5184   2.310   2.970   2.812
32859W        W 5185  15.051  12.733  12.865
32860W        W 5186  14.295  41.075   1.884
32861W        W 5187  32.482  31.765   0.938
32862W        W 5188  17.117   8.678  13.521
32863W        W 5189   9.874  22.518   4.020
32864W        W 5190  33.220  21.507  14.628
32865W        W 5191  19.272  28.959   2.152
32866W        W 5192  24.887   3.234   3.296
32867W        W 5193   4.844  33.873   2.173
32868W        W 5194   6.759  10.102   3.669
32869W        W 5195   8.460  36.449   4.677
32870W        W 5196  39.908  41.046  11.138
32871W        W 5197  16.512  44.491   2.792
32872W        W 5198  21.420  23.363  11.512
32873W        W 5199  16.119   5.737   0.658
32874W        W 5200  40.933  35.548   2.934
32875W        W 5201   9.526  26.368  11.918
32876W        W 5202  39.327  43.456  11.073
32877W        W 5203  14.257  20.199  12.324
32878W        W 5204   1.669  16.467   3.257
32879W        W 5205  38.859  20.731   4.320
32880W        W 5206  39.338  28.467   1.852
32881W        W 5207  23.701  15.191   2.752
32882W        W 5208  43.566  17.687  11.099
32883W        W 5209   1.135  30.929   0.817
32884W        W 5210  26.539  19.136  14.181
32885W        W 5211  42.201  44.741   3.327
32886W        W 5212  35.557   0.523  12.993
32887W        W 5213  32.529   3.663   3.291
32888W        W 5214   1.042  40.320   2.569
32889W        W 5215   5.764  24.194   4.432
32890W        W 5216  25.291  21.136   4.581
32891W        W 5217  15.095  31.911   1.841
32892W        W 5218  30.425  38.540   0.466
32893W        W 5219   1.166  29.978   2.041
32894W        W 5220  34.477  13.628  11.141
32895W        W 5221  25.571  20.602  11.107
32896W        W 5222   1.364  41.028  11.498
32897W        W 5223  36.938  35.034  13.504
32898W        W 5224  33.112  13.781  12.931
32899W        W 5225   3.926  37.149  10.918
32900W        W 5226  12.821  26.580   4.241
32901W        W 5227  15.524   4.792  14.503
32902W        W 5228   2.066  13.026  11.072
32903W        W 5229  32.860  23.650   2.331
32904W        W 5230   0.339  38.568   3.339
32905W        W 5231  32.619  22.527   2.256
32906W        W 5232  39.940  44.330   1.311
32907W        W 5233   1.216  23.908  14.383
32908W        W 5234  18.306  24.060   1.467
32909W        W 5235  34.561  35.029   5.008
32910W        W 5236  25.078  38.526   2.788
32911W        W 5237  12.898  13.077  13.037
32912W        W 5238  16.636  32.007  10.527
32913W        W 5239  42.827  21.042   1.876
32914W        W 5240   1.262  10.822  11.650
32915W        W 5241   2.565  17.657   0.849
32916W        W 5242   0.828  27.448   1.821
32917W        W 5243  33.566  35.395   3.491
32918W        W 5244  12.410  34.173   4.177
32919W        W 5245  23.100  39.831   1.905
32920W        W 5246  29.686  11.117  13.295
32921W        W 5247  16.684   6.019   2.542
32922W        W 5248   3.229  32.921  12.133
32923W        W 5249  33.988  27.749   3.275
32924W        W 5250  36.319   6.094  12.819
32925W        W 5251  35.821   0.796  14.357
32926W        W 5252   2.007  16.677   1.467
32927W        W 5253  35.544  37.814   1.360
32928W        W 5254  37.401  15.732   4.270
32929W        W 5255  11.312  40.168   3.095
32930W        W 5256   0.289   9.380   3.711
32931W        W 5257  25.113  29.029   0.540
32932W        W 5258   5.829  30.575   3.131
32933W        W 5259   8.775  13.917  11.984
32934W        W 5260   0.463  33.686   1.711
32935W        W 5261  14.497   6.414   4.068
32936W        W 5262  11.610   1.586  12.875
32937W        W 5263   3.883  33.210   1.802
32938W        W 5264  21.126  12.861   0.396
32939W        W 5265  23.216  38.319   1.910
32940W        W 5266   6.174   7.783   1.783
32941W        W 5267   6.186   2.510   2.712
32942W        W 5268  43.854  31.444   4.244
32943W        W 5269   1.486  10.175  12.336
32944W        W 5270   7.341   6.882  12.657
32945W        W 5271   7.572  14.685  12.653
32946W        W 5272  31.502  43.700   4.593
32947W        W 5273  44.200   6.623  12.050
32948W        W 5274   0.022  38.264   4.203
32949W        W 5275   1.910  41.459   2.604
32950W        W 5276  19.042  11.604   0.943
32951W        W 5277  40.247  42.419  12.889
32952W        W 5278  17.187  40.038   2.588
32953W        W 5279  33.988  26.181   3.653
32954W        W 5280  34.404  41.991  11.558
32955W        W 5281  19.299  11.592  12.460
32956W        W 5282   7.970  21.095  12.555
32957W        W 5283  44.049   2.830  12.323
32958W        W 5284   8.959   2.536  12.634
32959W        W 5285  10.252   8.689  14.591
32960W        W 5286  18.091  10.315  10.800
32961W        W 5287   5.647  38.368   2.236
32962W        W 5288  35.623  17.173   0.722
32963W        W 5289  12.712  30.142  14.692
32964W        W 5290   7.129   4.170   3.660
32965W        W 5291  24.291  14.080   5.202
32966W        W 5292  31.057  17.123  11.211
32967W        W 5293  42.421  24.701   2.881
32968W        W 5294  33.087  28.035   0.734
32969W        W 5295  28.587  35.419   3.214
32970W        W 5296  41.980  20.986  13.463
32971W        W 5297  22.122  38.655  13.354
32972W        W 5298   2.149   3.922  12.091
32973W        W 5299  33.079   0.325  13.878
32974W        W 5300  32.948  29.927  12.595
32975W        W 5301  42.786  11.185  12.107
32976W        W 5302  38.351  13.344   4.018
32977W        W 5303  25.803  23.952   4.583
32978W        W 5304  41.946  35.419  13.566
32979W        W 5305  44.739   1.281   3.168
32980W        W 5306  37.604  40.391   2.552
32981W        W 5307  17.734  11.257   4.698
32982W        W 5308  31.043  11.975   2.814
32983W        W 5309   8.356  19.407  11.637
32984W        W 5310   8.364  21.613   3.637
32985W        W 5311  32.143  37.761   1.833
32986W        W 5312  25.900  30.214   1.856
32987W        W 5313  38.969   2.347   1.412
32988W        W 5314  16.808  44.952   2.747
32989W        W 5315  23.315  30.705  13.174
32990W        W 5316  11.779   9.122  13.065
32991W        W 5317  12.166   2.404  13.887
32992W        W 5318  31.188  13.676   2.254
32993W        W 5319  33.293  34.712  11.056
32994W        W 5320   0.336  20.230   2.288
32995W        W 5321  23.302  10.272  14.285
32996W        W 5322  17.736  28.485   2.465
32997W        W 5323  19.787  13.418  12.490
32998W        W 5324  32.674   8.604  12.562
32999W        W 5325  15.733  30.386   3.696
33000W        W 5326  32.044   2.786   0.831
33001W        W 5327  41.290  13.733   2.989
33002W        W 5328  32.363  38.035  14.697
33003W        W 5329   2.432   8.543  14.312
33004W        W 5330  21.710  28.348  12.504
33005W        W 5331   9.919  13.550  11.508
33006W        W 5332  27.825  22.724   3.603
33007W        W 5333  34.882  27.500   2.757
33008W        W 5334   1.295  39.651  12.755
33009W        W 5335  38.046  23.479  13.819
33010W        W 5336   4.340  19.707  12.191
33011W        W 5337  31.575  13.060   3.352
33012W        W 5338  38.374   2.768  11.829
33013W        W 5339  13.871  30.970  14.769
33014W        W 5340  43.061  30.413  12.502
33015W        W 5341   3.885   2.754   0.790
33016W        W 5342   7.413  29.000   0.590
33017W        W 5343  27.385   4.427  10.509
33018W        W 5344  22.714   7.042   2.208
33019W        W 5345  31.554   9.702  13.692
33020W        W 5346  26.190  43.840   3.349
33021W        W 5347   8.610  38.341   3.828
33022W        W 5348  22.492   5.096  10.820
33023W        W 5349  18.714   0.520  12.693
33024W        W 5350  16.812  14.962   2.287
33025W        W 5351  26.291  19.781  10.500
33026W        W 5352  39.815  37.914  13.432
33027W        W 5353  33.045  19.327  12.958
33028W        W 5354   5.209  32.192   2.922
33029W        W 5355   2.949  43.451   3.099
33030W        W 5356  25.187  13.096  14.872
33031W        W 5357  14.575  42.273  11.119
33032W        W 5358  43.404  27.093  10.785
33033W        W 5359  28.453   7.758  13.376
33034W        W 5360  31.298  22.959   3.162
33035W        W 5361  27.933  39.050  11.817
33036W        W 5362  33.356  22.678  12.119
33037W        W 5363  12.686  17.354   0.003
33038W        W 5364  16.433  14.106   3.734
33039W        W 5365  28.149  13.865   3.659
33040W        W 5366  26.177  27.634  12.822
33041W        W 5367  29.369  38.522   4.388
33042W        W 5368  41.286  42.889   4.716
33043W        W 5369  21.262  24.250   3.103
33044W        W 5370  23.864  18.182  12.000
33045W        W 5371  43.006  43.356  12.165
33046W        W 5372  40.704  26.174   4.785
33047W        W 5373  36.574  29.225   9.977
33048W        W 5374  44.870  44.719  13.829
33049W        W 5375  39.557  13.396   1.153
33050W        W 5376   6.463  44.826  11.043
33051W        W 5377  29.401  20.641  14.083
33052W        W 5378  26.714  43.038  14.807
33053W        W 5379  12.873  37.503   0.321
33054W        W 5380  42.985  43.760  14.748
33055W        W 5381   4.616  18.910   4.171
33056W        W 5382  30.578  24.676   1.272
33057W        W 5383  41.365  39.952  13.124
33058W        W 5384  15.129  29.624   3.667
33059W        W 5385  31.461  19.004   4.192
33060W        W 5386   4.043  43.079  10.151
33061W        W 5387   4.191   5.822  14.186
33062W        W 5388  37.559  35.071   2.173
33063W        W 5389   0.226  40.907  14.505
33064W        W 5390  35.670  31.503  10.734
33065W        W 5391  13.642  13.658   4.083
33066W        W 5392  30.620  37.341   0.750
33067W        W 5393   3.312   7.370   1.652
33068W        W 5394   0.914  18.464  11.497
33069W        W 5395  41.059  34.073  10.718
33070W        W 5396   0.323  16.524   4.163
33071W        W 5397  20.831   7.400  14.768
33072W        W 5398  37.226  13.170   5.004
33073W        W 5399  28.112  43.777   4.418
33074W        W 5400  29.973  32.176  10.880
33075W        W 5401   5.168  43.755  14.365
33076W        W 5402  20.459  16.246   0.737
33077W        W 5403  39.982   2.884   3.379
33078W        W 5404  37.001  40.541   1.953
33079W        W 5405   9.329  13.157   4.057
33080W        W 5406   5.844  26.360  13.774
33081W        W 5407   5.010  36.798   1.866
33082W        W 5408  33.211  25.407  11.874
33083W        W 5409  37.011  30.661  14.547
33084W        W 5410  22.147  30.600   4.982
33085W        W 5411   7.785  11.948  12.420
33086W        W 5412  22.310   2.007  12.954
33087W        W 5413  25.552  31.573   2.280
33088W        W 5414  41.343  22.194   3.090
33089W        W 5415  30.982   7.922   0.842
33090W        W 5416  15.592  20.755   0.865
33091W        W 5417  38.538  40.744   2.651
33092W        W 5418  17.249   0.377  14.984
33093W        W 5419   7.910  22.824  14.391
33094W        W 5420  10.274  37.330   1.387
33095W        W 5421   9.351  43.575  13.878
33096W        W 5422  18.776   1.930  13.333
33097W        W 5423   1.489  14.908  11.030
33098W        W 5424   1.980   4.397   3.107
33099W        W 5425   5.909   5.945   3.626
33100W        W 5426  32.942  12.113  12.179
33101W        W 5427  24.028  19.825   0.377
33102W        W 5428   4.217  32.459  14.422
33103W        W 5429  29.089  26.523   5.287
33104W        W 5430  44.964  23.497  13.269
33105W        W 5431   0.440  38.065   3.330
33106W        W 5432  30.361  19.639  12.099
33107W        W 5433   0.737  31.604  12.070
33108W        W 5434  11.889  32.636   0.423
33109W        W 5435   8.732   7.146  10.602
33110W        W 5436   5.298  35.110   3.765
33111W        W 5437  21.269  12.723   0.896
33112W        W 5438   5.788  34.583   1.587
33113W        W 5439   9.864  28.131  14.784
33114W        W 5440   9.748  22.982  13.250
33115W        W 5441  33.546  41.233   3.583
33116W        W 5442   9.592  37.469   1.998
33117W        W 5443  22.516  27.407   4.819
33118W        W 5444  23.573  19.631  11.974
33119W        W 5445  18.195  40.500   3.977
33120W        W 5446  38.575  37.158  13.443
33121W        W 5447  26.762   6.623  12.069
33122W        W 5448  29.960   7.255  12.238
33123W        W 5449   4.373  39.731  12.829
33124W        W 5450  27.120  35.852  12.972
33125W        W 5451  14.744  32.988   2.150
33126W        W 5452   5.336  27.906  13.351
33127W        W 5453  44.996  14.125  12.824
33128W        W 5454  12.628  37.047  14.052
33129W        W 5455  28.734  14.158   0.363
33130W        W 5456  44.547  11.884   2.216
33131W        W 5457   1.985  37.441  14.265
33132W        W 5458  36.043  19.135  13.955
33133W        W 5459  44.849   8.787   4.211
33134W        W 5460  34.398  16.519  11.646
33135W        W 5461  40.897   3.245   3.700
33136W        W 5462   1.839  37.128  14.828
33137W        W 5463  33.013  18.621   3.153
33138W        W 5464  24.728  15.337  10.614
33139W        W 5465  38.515  12.307  12.188
33140W        W 5466   2.238  43.249   0.484
33141W        W 5467  26.374  25.645  14.208
33142W        W 5468  40.490  23.252  12.941
33143W        W 5469  28.692  26.077  11.964
33144W        W 5470   4.046  31.091   4.193
33145W        W 5471  18.642   7.039  10.077
33146W        W 5472  38.043  29.204   1.320
33147W        W 5473   9.858  12.812   4.092
33148W        W 5474   5.892  14.161  11.035
33149W        W 5475  43.321  24.705   4.530
33150W        W 5476  29.633  18.643  12.073
33151W        W 5477  44.073   1.999   0.486
33152W        W 5478  14.582  38.045   4.832
33153W        W 5479  32.452  22.144   4.370
33154W        W 5480  18.266   9.706  14.522
33155W        W 5481  13.996  15.650   3.311
33156W        W 5482  18.049   2.402   2.637
33157W        W 5483  28.951   5.857   0.031
33158W        W 5484  42.439   1.728   2.093
33159W        W 5485  26.177  40.861  14.959
33160W        W 5486  15.165  35.656   4.316
33161W        W 5487  25.916  42.955   4.980
33162W        W 5488  26.204  38.323  12.031
33163W        W 5489  19.627  42.942   3.158
33164W        W 5490  32.845  42.031   4.202
33165W        W 5491   9.612   4.440   2.156
33166W        W 5492  38.074   3.153  14.808
33167W        W 5493  16.272  36.798  12.900
33168W        W 5494  34.039  35.434   1.872
33169W        W 5495  16.404  17.190   4.711
33170W        W 5496  14.620  24.737  11.652
33171W        W 5497  10.737  29.089   3.948
33172W        W 5498  32.249  36.598   3.126
33173W        W 5499  17.942  26.690   0.417
33174W        W 5500  18.867   4.835   3.268
33175W        W 5501  19.320  32.526  12.534
33176W        W 5502  21.152  32.643   3.346
33177W        W 5503  33.773   7.281  11.558
33178W        W 5504  37.075  17.550   3.622
33179W        W 5505   1.754  23.586   1.794
33180W        W 5506   4.925   6.754  11.631
33181W        W 5507  29.188   0.378   4.259
33182W        W 5508  23.981  21.151   1.898
33183W        W 5509  28.221  44.045  11.145
33184W        W 5510  40.475   3.647   2.805
33185W        W 5511  11.749  18.239   1.170
33186W        W 5512  39.074  31.107   2.832
33187W        W 5513  40.549  14.347  14.842
33188W        W 5514  18.510  31.088  12.845
33189W        W 5515  43.313  28.570   1.157
33190W        W 5516  15.177   8.370  13.890
33191W        W 5517  19.671   8.137  12.545
33192W        W 5518  36.597  31.552   3.723
33193W        W 5519  27.403  19.676  13.705
33194W        W 5520   5.880  38.641   4.476
33195W        W 5521  42.592   9.177   2.770
33196W        W 5522  20.141  18.021   1.415
33197W        W 5523  33.963  17.495   0.345
33198W        W 5524  33.657   9.807   2.941
33199W        W 5525  42.718  22.122   1.373
33200W        W 5526   1.025  36.497   1.771
33201W        W 5527  27.405  18.817  11.627
33202W        W 5528  36.340   0.812   2.340
33203W        W 5529   3.121  40.605   3.234
33204W        W 5530   4.480  43.569   5.089
33205W        W 5531  31.974   2.255   3.773
33206W        W 5532   4.348   4.731   5.073
33207W        W 5533   4.234  40.977   4.810
33208W        W 5534  37.852  22.956   2.937
33209W        W 5535  18.497  30.901  11.975
33210W        W 5536  17.170   7.919  14.539
33211W        W 5537  22.853  28.234  12.117
33212W        W 5538  16.866  16.681   4.158
33213W        W 5539  42.867   9.163   4.372
33214W        W 5540  25.703  32.902   1.929
33215W        W 5541   8.385  17.360  11.055
33216W        W 5542  16.387   6.338  14.807
33217W        W 5543   4.849  43.098  11.968
33218W        W 5544  35.527  35.804  13.014
33219W        W 5545   4.344  19.228  14.735
33220W        W 5546  42.943  22.911  12.617
33221W        W 5547   3.855  10.208   4.123
33222W        W 5548  28.685  32.104   0.379
33223W        W 5549  29.631  15.799   0.309
33224W        W 5550  39.820   4.650  10.670
33225W        W 5551  13.797  15.440  11.080
33226W        W 5552  41.305   4.803   3.749
33227W        W 5553  37.394  39.967  10.977
33228W        W 5554  41.920   7.433   3.825
33229W        W 5555   2.029  12.346  13.912
33230W        W 5556  22.516  14.637  10.526
33231W        W 5557  43.980   8.259   2.754
33232W        W 5558  25.609  16.976  14.340
33233W        W 5559  32.051  17.516  14.928
33234W        W 5560   2.787  30.600  13.121
33235W        W 5561  11.620  17.136  12.459
33236W        W 5562  36.921  18.678  13.662
33237W        W 5563  37.998  23.628  14.904
33238W        W 5564  16.786   1.973   2.591
33239W        W 5565  31.979  39.831   3.534
33240W        W 5566  12.274  14.790  14.561
33241W        W 5567  11.498  30.456  12.102
33242W        W 5568  44.288  39.471  14.800
33243W        W 5569  10.514  25.683   2.027
33244W        W 5570  39.390   8.575  11.205
33245W        W 5571  32.366   3.871   1.959
33246W        W 5572   7.229   9.194   3.626
33247W        W 5573  13.746  30.440   1.766
33248W        W 5574  43.368   8.591   1.267
33249W        W 5575   3.159  11.376  13.439
33250W        W 5576  38.963  38.387   2.992
33251W        W 5577  11.582  15.645  12.907
33252W        W 5578   9.136  40.823  12.389
33253W        W 5579   1.814  40.953  11.266
33254W        W 5580  27.134  27.539  11.563
33255W        W 5581  25.586  44.434  13.103
33256W        W 5582   5.872  38.013   0.472
33257W        W 5583  23.631  41.265  11.169
33258W        W 5584  39.498  34.046  13.884
33259W        W 5585  14.607   9.906  13.830
33260W        W 5586  43.427  34.138  14.839
33261W        W 5587  43.705  21.274  11.447
33262W        W 5588  13.567   8.655  14.776
33263W        W 5589  18.947   1.766  12.382
33264W        W 5590   8.697  37.823  12.038
33265W        W 5591  34.720  42.892  14.760
33266W        W 5592  34.773  12.749   3.754
33267W        W 5593   6.692  21.147  12.810
33268W        W 5594  20.320  23.059   3.336
33269W        W 5595  40.984  19.947   4.146
33270W        W 5596  39.528  43.939  11.168
33271W        W 5597  40.464  19.218   0.971
33272W        W 5598   0.471  24.543   4.692
33273W        W 5599   6.561  13.001  13.827
33274W        W 5600  21.203  26.714  13.580
33275W        W 5601  12.058  44.693  10.152
33276W        W 5602   9.152  25.683   3.323
33277W        W 5603  23.513   0.559  11.221
33278W        W 5604  15.096  27.521  14.457
33279W        W 5605  33.553  37.378  11.406
33280W        W 5606   1.263   6.650   1.683
33281W        W 5607  36.436  26.512  12.587
33282W        W 5608  24.570  44.825   0.428
33283W        W 5609  25.766  24.509   3.720
33284W        W 5610  26.615   9.830   3.913
33285W        W 5611  36.912  12.792   2.639
33286W        W 5612  21.324  33.522   0.449
33287W        W 5613  24.367  18.856   4.087
33288W        W 5614  13.615  28.515  10.491
33289W        W 5615  33.063   2.621  14.693
33290W        W 5616  30.904  43.967   2.784
33291W        W 5617   0.400   6.806  12.463
33292W        W 5618  27.559  24.440  11.025
33293W        W 5619  40.469  11.489   1.291
33294W        W 5620  42.469  29.397   3.616
33295W        W 5621  29.482   4.560  10.283
33296W        W 5622  40.014   3.863   0.811
33297W        W 5623  36.770   9.664   4.178
33298W        W 5624  31.949  14.386  13.789
33299W        W 5625  43.692   1.849  12.625
33300W        W 5626   0.866  32.661   1.482
33301W        W 5627  44.333  43.482  10.423
33302W        W 5628  44.971  14.307   4.092
33303W        W 5629  15.093  30.206  12.008
33304W        W 5630  36.618   3.303  11.073
33305W        W 5631   6.243  22.552  11.186
33306W        W 5632  21.483   1.483   2.386
33307W        W 5633  32.644  16.347  12.078
33308W        W 5634  36.171  28.438   4.106
33309W        W 5635  23.418  18.313  14.864
33310W        W 5636  33.692  35.106  11.163
33311W        W 5637  34.633  33.865  10.602
33312W        W 5638  43.180  21.457   0.238
33313W        W 5639   2.499  32.640  12.508
33314W        W 5640  22.276   1.557  10.687
33315W        W 5641  25.078  40.561   1.755
33316W        W 5642  10.778  15.535  11.894
33317W        W 5643  28.219  34.961   4.813
33318W        W 5644  40.452  23.316   0.877
33319W        W 5645   0.951  20.351  12.465
33320W        W 5646  29.580  29.198   2.329
33321W        W 5647  17.817  30.352   2.220
33322W        W 5648   6.997  24.032   5.195
33323W        W 5649  36.147  43.910  12.458
33324W        W 5650  28.598  11.632  13.585
33325W        W 5651  17.334  12.518   3.059
33326W        W 5652  17.038  32.052   0.393
33327W        W 5653  29.898  36.447  10.474
33328W        W 5654  20.518  19.593  13.542
33329W        W 5655   7.656  17.071  12.376
33330W        W 5656  15.818  17.904   2.974
33331W        W 5657  31.071  25.612   0.736
33332W        W 5658  39.299  17.220   4.563
33333W        W 5659  36.344  24.529  10.514
33334W        W 5660  31.953  12.375   2.766
33335W        W 5661   0.073  42.715   4.787
33336W        W 5662   8.136  44.248  10.709
33337W        W 5663  42.834  37.304   2.612
33338W        W 5664   8.495  26.531   0.867
33339W        W 5665  31.169  31.124   3.437
33340W        W 5666  44.724  19.262  11.963
33341W        W 5667  25.208   9.296   1.471
33342W        W 5668  42.274   6.867  12.608
33343W        W 5669  17.799  40.967   2.777
33344W        W 5670  27.791  42.475  10.079
33345W        W 5671   9.681  43.568  14.313
33346W        W 5672  23.155  31.561   4.220
33347W        W 5673   2.795   3.315  11.895
33348W        W 5674  33.092  36.517  12.149
33349W        W 5675   8.854   5.206  12.454
33350W        W 5676  10.807  43.028   4.558
33351W        W 5677  11.111  20.578   0.859
33352W        W 5678  14.159  35.085   3.221
33353W        W 5679  30.384  30.540   3.474
33354W        W 5680  30.572  33.387   3.174
33355W        W 5681   4.968   5.659   3.691
33356W        W 5682  39.385  24.586  11.541
33357W        W 5683  35.369   0.492   2.170
33358W        W 5684  44.238  37.488  12.592
33359W        W 5685  11.527  19.803  13.434
33360W        W 5686  19.157   8.139  10.769
33361W        W 5687  38.597  22.560   2.249
33362W        W 5688  11.564  41.499  11.861
33363W        W 5689   3.809  27.524  12.661
33364W        W 5690   9.258  43.698  11.130
33365W        W 5691  36.952  15.119   2.701
33366W        W 5692   0.939  42.280  14.667
33367W        W 5693  17.191  22.645   0.327
33368W        W 5694  27.093  33.443  11.599
33369W        W 5695  25.028  16.529  12.418
33370W        W 5696  13.422  40.136   3.402
33371W        W 5697  29.108  38.511  14.343
33372W        W 5698  39.320  21.866  12.699
33373W        W 5699  26.733  28.569   1.592
33374W        W 5700   0.817  10.180   0.791
33375W        W 5701  25.299  43.071  13.740
33376W        W 5702  37.848   5.089   2.316
33377W        W 5703  19.128  18.089   3.222
33378W        W 5704  30.889  30.426  11.540
33379W        W 5705   5.356  13.160   2.377
33380W        W 5706  42.046  42.252   0.430
33381W        W 5707   0.104  26.613   5.040
33382W        W 5708  20.690  20.285  13.944
33383W        W 5709   9.108  14.137   2.323
33384W        W 5710   1.682  23.717   2.658
33385W        W 5711  40.993  10.208   1.819
33386W        W 5712  22.483   7.070  13.014
33387W        W 5713   9.006  18.408  13.419
33388W        W 5714  42.601   1.322   0.411
33389W        W 5715  29.803  33.446  14.606
33390W        W 5716  30.655  22.894  13.015
33391W        W 5717  13.339  19.700  14.294
33392W        W 5718  23.556   9.371   1.898
33393W        W 5719  34.562   5.191   4.212
33394W        W 5720  31.638  24.631   2.873
33395W        W 5721  41.020   5.857   1.652
33396W        W 5722  10.942  25.204  10.848
33397W        W 5723   3.226  13.776   4.861
33398W        W 5724  38.818  34.877   4.500
33399W        W 5725  39.444   1.613   3.917
33400W        W 5726   9.465   3.992   4.138
33401W        W 5727  28.395  20.171   3.231
33402W        W 5728  31.389  25.011  11.902
33403W        W 5729  36.575   2.446  12.887
33404W        W 5730  12.100  44.488   1.809
33405W        W 5731  39.592  24.022  10.682
33406W        W 5732   5.799   4.574  12.176
33407W        W 5733  24.626  29.434   2.457
33408W        W 5734  41.248  26.739   1.913
33409W        W 5735  10.112  12.246   1.225
33410W        W 5736  19.797  18.748   1.162
33411W        W 5737   1.284   5.908  12.158
33412W        W 5738  37.360  27.069  14.176
33413W        W 5739  15.632  15.354   4.891
33414W        W 5740  38.478  15.067  14.969
33415W        W 5741  40.999  22.032  11.565
33416W        W 5742  27.475  23.263  13.893
33417W        W 5743  23.982  38.422  11.863
33418W        W 5744   2.821  18.140   2.086
33419W        W 5745  27.160   7.333   2.812
33420W        W 5746   4.440  33.064  11.196
33421W        W 5747  10.590  11.930   1.777
33422W        W 5748  44.333  40.846  13.969
33423W        W 5749  17.979  38.267  12.023
33424W        W 5750  16.201  30.115   4.151
33425W        W 5751  29.402  21.717   1.918
33426W        W 5752  21.642  16.573   1.254
33427W        W 5753  30.584  11.649   4.146
33428W        W 5754  22.610   8.403   1.966
33429W        W 5755  40.520  41.583   5.085
33430W        W 5756   1.366  26.888  10.820
33431W        W 5757  20.876  30.760   4.101
33432W        W 5758  31.490  42.530   0.372
33433W        W 5759  35.276  31.561   1.377
33434W        W 5760  38.470  42.754  13.160
33435W        W 5761  36.477  42.257   2.348
33436W        W 5762  30.997  30.345   4.599
33437W        W 5763  22.040  27.724  14.798
33438W        W 5764  36.844  20.298   2.695
33439W        W 5765  24.073  20.679   4.361
33440W        W 5766  32.948  39.511  12.368
33441W        W 5767  39.318   7.758  13.834
33442W        W 5768  31.916  43.630   0.843
33443W        W 5769   1.436   2.432   2.409
33444W        W 5770  43.451   1.812   4.197
33445W        W 5771  38.456  12.261   5.420
33446W        W 5772  32.388  29.438  11.573
33447W        W 5773  19.549  13.567  13.559
33448W        W 5774  10.494  30.489  10.150
33449W        W 5775   1.650  26.378   0.522
33450W        W 5776  37.494  28.893  13.955
33451W        W 5777  15.455  23.075   4.245
33452W        W 5778  17.004  13.389  12.118
33453W        W 5779  35.472  38.126   4.944
33454W        W 5780  25.653   7.660  11.212
33455W        W 5781   8.846  14.515   3.258
33456W        W 5782  42.122  12.252  13.482
33457W        W 5783  20.289  42.411  13.364
33458W        W 5784  31.710   8.412   4.145
33459W        W 5785  43.949  20.055   1.024
33460W        W 5786  21.547  14.071   4.209
33461W        W 5787  22.395   3.256  10.824
33462W        W 5788  30.703  21.004   1.922
33463W        W 5789  34.071   1.373   1.244
33464W        W 5790  25.251  14.276   3.074
33465W        W 5791   0.062  11.825  14.932
33466W        W 5792  25.628   2.320  13.318
33467W        W 5793   9.792  28.959  13.074
33468W        W 5794  42.904  13.809   2.516
33469W        W 5795  25.522  41.465  11.951
33470W        W 5796  43.669   3.181  12.000
33471W        W 5797  28.148  26.520  10.301
33472W        W 5798   1.250  42.040  13.167
33473W        W 5799  12.248  22.835  12.451
33474W        W 5800  19.976  14.357  14.411
33475W        W 5801   8.110  16.936   4.117
33476W        W 5802  17.601  33.576   3.596
33477W        W 5803  42.031  22.526  13.564
33478W        W 5804   0.523  27.474   2.459
33479W        W 5805  20.143  33.175  11.180
33480W        W 5806  21.542  25.245   3.265
33481W        W 5807  21.873  34.122   1.219
33482W        W 5808  20.861  17.716  14.639
33483W        W 5809  16.142  12.384   4.120
33484W        W 5810   6.230   3.439   1.759
33485W        W 5811   0.514  27.494   4.760
33486W        W 5812  44.056  13.845   3.209
33487W        W 5813  26.534  33.550  13.419
33488W        W 5814  41.752  43.426  11.556
33489W        W 5815  10.248  19.421  14.987
33490W        W 5816  31.027  41.551   3.259
33491W        W 5817  25.416   6.179  11.121
33492W        W 5818  14.153  17.200  13.058
33493W        W 5819  26.212  26.721   3.414
33494W        W 5820  35.533  23.168  10.780
33495W        W 5821  39.093  35.609   3.379
33496W        W 5822   6.433  43.069   1.399
33497W        W 5823  35.902  36.019  14.418
33498W        W 5824  22.953   9.841  14.388
33499W        W 5825  35.248  32.642  12.163
33500W        W 5826   5.351  41.342   0.907
33501W        W 5827  35.609  24.202   0.502
33502W        W 5828  23.103  10.229  10.713
33503W        W 5829   0.393  10.146   3.185
33504W        W 5830  21.232   2.862   2.303
33505W        W 5831  13.698  41.470   2.249
33506W        W 5832   6.745  29.048  11.593
33507W        W 5833   9.738  41.279  11.517
33508W        W 5834  33.036  36.414  14.411
33509W        W 5835  19.227  11.390   0.321
33510W        W 5836   3.076  40.861  13.967
33511W        W 5837   0.978  42.529   0.533
33512W        W 5838  19.412  39.654   3.510
33513W        W 5839  31.561  18.567  11.800
33514W        W 5840  27.580  13.712  10.631
33515W        W 5841   9.252  38.168   3.349
33516W        W 5842  42.509  32.826  14.378
33517W        W 5843   6.227  32.653  12.592
33518W        W 5844  37.614   0.625  13.487
33519W        W 5845  14.119  24.889  12.400
33520W        W 5846  44.776  44.069  14.402
33521W        W 5847  39.389  16.879   4.942
33522W        W 5848  41.282  44.556   3.778
33523W        W 5849  38.967  15.249  13.910
33524W        W 5850  43.980  39.800   4.204
33525W        W 5851  32.151  19.975  14.205
33526W        W 5852  33.700   9.850   0.426
33527W        W 5853  44.482  11.120  12.789
33528W        W 5854  41.195  19.820  14.291
33529W        W 5855  36.454  43.841   2.368
33530W        W 5856  44.685  19.528  14.799
33531W        W 5857  37.435   3.833  13.923
33532W        W 5858  34.957  40.426   4.108
33533W        W 5859  36.289  27.534   2.692
33534W        W 5860  33.856  21.714  12.890
33535W        W 5861  22.441  11.947  10.194
33536W        W 5862  43.980   3.213  11.561
33537W        W 5863  14.305   1.902   0.021
33538W        W 5864  14.153  10.857  11.084
33539W        W 5865  12.284  26.479   4.140
33540W        W 5866   4.823  44.133  14.411
33541W        W 5867  31.341   8.228  12.148
33542W        W 5868  31.103  21.785  12.382
33543W        W 5869  37.640   4.355   0.056
33544W        W 5870  34.310   4.683   3.638
33545W        W 5871  39.570   8.793   3.541
33546W        W 5872  27.501   5.471  14.037
33547W        W 5873   9.367  16.074  10.643
33548W        W 5874   1.909   0.406  12.839
33549W        W 5875   2.544  20.076  12.083
33550W        W 5876  37.566  29.723   4.956
33551W        W 5877   7.038  37.822  11.318
33552W        W 5878  10.204  39.561  14.315
33553W        W 5879   3.970   4.800   3.714
33554W        W 5880  38.169  37.565   4.303
33555W        W 5881  24.133  16.876  11.580
33556W        W 5882  16.018  17.840   0.530
33557W        W 5883   2.273  34.175  14.417
33558W        W 5884  32.041  44.992   3.621
33559W        W 5885  25.755  30.845  14.237
33560W        W 5886  20.233  44.656   1.819
33561W        W 5887  34.757  41.520  10.071
33562W        W 5888  12.103  33.033  11.416
33563W        W 5889  13.587  39.182  10.586
33564W        W 5890   2.359  38.488  13.078
33565W        W 5891  35.267  12.402   4.141
33566W        W 5892  15.224  12.695  10.430
33567W        W 5893   8.824  23.477   2.553
33568W        W 5894  28.639  34.446  14.471
33569W        W 5895   8.957  12.123   0.419
33570W        W 5896   1.530  18.757   0.508
33571W        W 5897  30.017  18.228   0.700
33572W        W 5898  43.385  35.340   3.462
33573W        W 5899  24.637  15.763   0.850
33574W        W 5900  25.133  30.545  13.748
33575W        W 5901  24.172  34.903   3.706
33576W        W 5902   3.996  24.776  13.317
33577W        W 5903   7.116  42.487   1.637
33578W        W 5904  29.942  30.177  12.612
33579W        W 5905  35.146  20.633  10.680
33580W        W 5906   2.213  43.405   4.533
33581W        W 5907  36.674  31.617   2.755
33582W        W 5908  26.255  40.599  14.517
33583W        W 5909  42.835  41.288  14.074
33584W        W 5910  34.895  25.213  10.445
33585W        W 5911  44.162  25.713   0.361
33586W        W 5912  34.322   4.277  10.490
33587W        W 5913  43.806  34.467  14.550
33588W        W 5914   7.286  29.312  13.792
33589W        W 5915  11.638  31.015  14.780
33590W        W 5916   3.398   5.392  12.554
33591W        W 5917  24.028  17.229  10.917
33592W        W 5918  40.581  17.665   3.706
33593W        W 5919   7.949   6.907  13.478
33594W        W 5920  20.719  26.985  14.963
33595W        W 5921  14.695  36.665   4.497
33596W        W 5922  41.470  14.820   0.789
33597W        W 5923   7.945  10.641  13.570
33598W        W 5924  23.974  19.183  14.780
33599W        W 5925   9.663   9.388   0.268
33600W        W 5926  38.907  12.050   4.603
33601W        W 5927  16.636  23.217  14.915
33602W        W 5928  40.550   1.453  11.407
33603W        W 5929  15.267  10.330  12.506
33604W        W 5930  25.716  30.547  12.004
33605W        W 5931  14.833  37.347  11.524
33606W        W 5932   4.616  20.112   4.697
33607W        W 5933  28.972   0.863  13.891
33608W        W 5934   2.750  42.961   0.403
33609W        W 5935  20.322  23.290  13.863
33610W        W 5936  31.129  44.321   0.429
33611W        W 5937   2.185   9.677   3.250
33612W        W 5938  12.236  18.812   4.338
33613W        W 5939   4.066  40.777   1.818
33614W        W 5940  27.059  10.840   3.847
33615W        W 5941  19.234   9.259   1.153
33616W        W 5942   4.407  13.100   3.654
33617W        W 5943  21.316   1.480  11.164
33618W        W 5944  41.778  41.835  12.607
33619W        W 5945  44.312  38.517  14.298
33620W        W 5946  18.976  38.761  13.025
33621W        W 5947  26.414  24.130   2.848
33622W        W 5948  19.222  30.229  13.884
33623W        W 5949   6.237  44.324  11.965
33624W        W 5950  28.411   6.275   2.781
33625W        W 5951   9.616  24.670  11.964
33626W        W 5952  16.448  16.471  11.398
33627W        W 5953  22.437   9.365  13.500
33628W        W 5954  10.463   5.509  10.722
33629W        W 5955  24.635  37.799   0.738
33630W        W 5956  40.403  42.320   1.448
33631W        W 5957   6.855   3.193   4.693
33632W        W 5958  38.972  10.889   5.179
33633W        W 5959  31.099  38.198   2.049
33634W        W 5960  19.016  40.921  11.957
33635W        W 5961  25.315  27.473  13.944
33636W        W 5962  43.746   2.515   2.813
33637W        W 5963  10.084  30.949  11.541
33638W        W 5964  40.170  11.278  13.972
33639W        W 5965  21.563   6.695   2.673
33640W        W 5966  25.887  38.897  12.844
33641W        W 5967  27.889  17.213   1.386
33642W        W 5968  12.765  14.336   3.217
33643W        W 5969   9.417   0.445  13.416
33644W        W 5970  28.147  23.642  12.762
33645W        W 5971  21.685  25.734  11.604
33646W        W 5972  36.412   2.322   0.666
33647W        W 5973  11.268  33.326  14.546
33648W        W 5974   1.457  44.258  11.708
33649W        W 5975   4.410  39.967   2.146
33650W        W 5976   8.752  32.985   4.836
33651W        W 5977   5.022  20.979   0.879
33652W        W 5978  17.644   3.514   0.141
33653W        W 5979  38.679  39.963  12.123
33654W        W 5980  22.747  18.751   3.683
33655W        W 5981  24.220   1.847  11.078
33656W        W 5982  12.194  19.681  10.703
33657W        W 5983  19.348  41.605  10.629
33658W        W 5984  34.391  36.571   4.642
33659W        W 5985  36.537  36.977   0.932
33660W        W 5986  13.222  11.828   4.078
33661W        W 5987  41.768  30.994   3.879
33662W        W 5988  34.944  13.125  11.602
33663W        W 5989  43.440   8.310  13.981
33664W        W 5990  41.267   7.345  12.084
33665W        W 5991  24.306   6.270  13.049
33666W        W 5992  24.181   8.303   1.833
33667W        W 5993   2.896  11.622   0.657
33668W        W 5994  23.471  34.903   2.705
33669W        W 5995  24.637   7.353   2.970
33670W        W 5996  38.626  10.452   4.176
33671W        W 5997  41.502   3.487  13.038
33672W        W 5998  29.910  17.248   0.313
33673W        W 5999  36.896  14.337   0.450
33674W        W 6000  29.455  13.768   3.218
33675W        W 6001  16.602  14.159  12.626
33676W        W 6002  33.351  32.677   1.840
33677W        W 6003   0.181   3.087  11.476
33678W        W 6004  24.288   7.104  12.003
33679W        W 6005  30.401  31.372  10.970
33680W        W 6006  19.282  22.445  12.860
33681W        W 6007  29.870   2.335   2.825
33682W        W 6008  33.427  16.059   2.182
33683W        W 6009  12.220  18.444  11.170
33684W        W 6010  29.520  34.657  14.970
33685W        W 6011  11.706  29.438  13.962
33686W        W 6012  42.134   5.612  11.212
33687W        W 6013  30.541  32.390   4.144
33688W        W 6014  12.609  31.491   2.623
33689W        W 6015   7.334  13.068  11.546
33690W        W 6016  23.706  12.885   1.740
33691W        W 6017  20.099   8.790  13.774
33692W        W 6018  15.152   9.094  14.449
33693W        W 6019  22.558  24.435  14.865
33694W        W 6020  26.740  21.681  13.443
33695W        W 6021  34.098  43.163   0.392
33696W        W 6022  28.851  12.109  11.477
33697W        W 6023   8.372  31.639  14.787
33698W        W 6024   9.261  11.747  11.420
33699W        W 6025  40.113  10.309  14.991
33700W        W 6026  19.688  24.925  13.476
33701W        W 6027  10.151   2.885   1.908
33702W        W 6028  13.282  32.988  10.736
33703W        W 6029  10.202  26.130  12.929
33704W        W 6030  44.706  28.984  10.866
33705W        W 6031  16.212  23.721  11.554
33706W        W 6032   0.290  13.390   2.346
33707W        W 6033  23.234  38.860  12.039
33708W        W 6034  16.598  33.145   2.875
33709W        W 6035   3.215  25.081   3.100
33710W        W 6036  37.413  31.873  12.055
33711W        W 6037   2.324   3.012  13.284
33712W        W 6038  29.217  26.397   3.734
33713W        W 6039  14.216  21.047   0.484
33714W        W 6040  10.221  31.102  14.361
33715W        W 6041  15.064  15.052  14.256
33716W        W 6042   3.579  15.662  10.277
33717W        W 6043  26.000  36.420  11.598
33718W        W 6044  11.901  44.218  14.467
33719W        W 6045  29.838  23.045   0.873
33720W        W 6046  20.811  37.817   1.391
33721W        W 6047  29.984   7.327  14.000
33722W        W 6048  12.816  16.663  12.062
33723W        W 6049  33.409  41.997  13.868
33724W        W 6050   9.622  16.243   1.297
33725W        W 6051  12.358   5.930  13.954
33726W        W 6052  30.555  21.521  10.670
33727W        W 6053   2.943  17.970   3.104
33728W        W 6054  31.117  20.172  12.052
33729W        W 6055   2.647   9.404   2.477
33730W        W 6056   0.908  44.771  12.498
33731W        W 6057  37.809   9.889   3.169
33732W        W 6058  10.704   6.241  10.841
33733W        W 6059  19.118   8.635   1.883
33734W        W 6060  24.758  38.555   3.578
33735W        W 6061  25.967  38.967  13.752
33736W        W 6062  17.236  10.803  14.811
33737W        W 6063   0.981  20.032  13.342
33738W        W 6064   6.573  11.165   0.505
33739W        W 6065   1.303  39.895   4.751
33740W        W 6066  28.262   7.516   0.767
33741W        W 6067  36.006  34.339  12.318
33742W        W 6068  11.486  31.035  10.512
33743W        W 6069  40.968  38.492  11.826
33744W        W 6070  26.363  29.443   0.038
33745W        W 6071  34.033  14.212  12.097
33746W        W 6072  22.446  39.356   5.047
33747W        W 6073   4.636   4.783  12.408
33748W        W 6074  15.117   3.201   3.173
33749W        W 6075  44.952  31.762  13.296
33750W        W 6076   5.669   9.153   2.760
33751W        W 6077  19.174  12.869  13.100
33752W        W 6078  44.523   5.141  14.794
33753W        W 6079  31.538  40.064   2.399
33754W        W 6080  33.998   8.759   1.133
33755W        W 6081  26.093  16.090  14.444
33756W        W 6082  29.226  41.139  11.054
33757W        W 6083  18.047  15.392  11.434
33758W        W 6084  28.238   6.453  14.308
33759W        W 6085   4.070  18.745   3.151
33760W        W 6086  21.504  39.626   1.445
33761W        W 6087   7.160  35.867   1.956
33762W        W 6088  15.808   4.197   4.315
33763W        W 6089  21.063   4.149  10.675
33764W        W 6090  33.103   6.251  13.528
33765W        W 6091   3.248  39.025  11.897
33766W        W 6092  22.121  37.888   1.910
33767W        W 6093  40.909  30.982   2.005
33768W        W 6094  42.512  37.598   1.390
33769W        W 6095  26.404  25.840  14.684
33770W        W 6096  27.125  11.772   4.880
33771W        W 6097  16.833  43.455   4.487
33772W        W 6098   4.366  17.414  14.544
33773W        W 6099  43.670  41.492   4.891
33774W        W 6100  28.476  15.272  14.518
33775W        W 6101  27.924  35.605   3.893
33776W        W 6102  40.466  37.486   4.217
33777W        W 6103  34.713  38.915  12.637
33778W        W 6104  29.530   2.243  12.886
33779W        W 6105  27.968   1.812   0.699
33780W        W 6106  36.453  19.478   3.554
33781W        W 6107  32.348  11.571   2.846
33782W        W 6108  43.027  29.160  12.901
33783W        W 6109  31.938  39.762  11.146
33784W        W 6110   1.039   0.780   4.130
33785W        W 6111  32.574  32.824   2.696
33786W        W 6112  35.730  25.123   3.799
33787W        W 6113  18.301  38.776  14.881
33788W        W 6114   0.022  20.775  11.598
33789W        W 6115  32.004  22.935   2.789
33790W        W 6116  44.975  10.173   1.878
33791W        W 6117   7.368   2.786  14.383
33792W        W 6118  36.067  37.806   1.196
33793W        W 6119  39.389   3.879   1.445
33794W        W 6120  17.541  41.528  13.027
33795W        W 6121  41.796  44.902  12.670
33796W        W 6122  17.463  37.130  11.266
33797W        W 6123  12.070   6.886  10.418
33798W        W 6124  22.031  25.998   4.923
33799W        W 6125  13.183  34.494  10.646
33800W        W 6126  27.394  34.936   3.611
33801W        W 6127  37.531  42.588  14.620
33802W        W 6128  34.841  38.827   0.301
33803W        W 6129  43.736  37.076   0.450
33804W        W 6130  23.693  33.049  14.379
33805W        W 6131  19.625  40.044   3.793
33806W        W 6132  41.501  21.127   0.268
33807W        W 6133  25.239  35.669  13.330
33808W        W 6134  11.274  30.534  10.599
33809W        W 6135  31.574  23.216   2.811
33810W        W 6136  10.879   4.507   1.048
33811W        W 6137   2.418  22.677   1.372
33812W        W 6138  43.818  33.899  11.511
33813W        W 6139  35.826  44.511  13.870
33814W        W 6140   5.049   1.295   0.819
33815W        W 6141  11.067  11.582  13.919
33816W        W 6142  26.526  16.221  13.566
33817W        W 6143   4.938  43.848   4.541
33818W        W 6144   4.032  32.020  14.692
33819W        W 6145  10.362  35.006  13.782
33820W        W 6146  23.577   6.874  11.246
33821W        W 6147  29.206   0.139   4.729
33822W        W 6148  24.007   6.783   1.907
33823W        W 6149  22.656  36.517   3.273
33824W        W 6150  31.915  23.400   4.110
33825W        W 6151  10.726  31.670  12.894
33826W        W 6152   4.907  20.014  14.415
33827W        W 6153  24.073  11.066  14.884
33828W        W 6154   2.414  43.524   2.318
33829W        W 6155   7.350   1.206   0.195
33830W        W 6156  33.292  34.583   3.282
33831W        W 6157  33.498  19.160   2.200
33832W        W 6158   0.846   2.987  13.520
33833W        W 6159   0.946  30.525   4.505
33834W        W 6160  36.437  44.966  10.583
33835W        W 6161  33.344  15.291   1.940
33836W        W 6162   3.670  36.876   2.599
33837W        W 6163  25.401  24.112   3.666
33838W        W 6164  40.304  35.244   3.735
33839W        W 6165   4.388  20.863   1.201
33840W        W 6166  40.824  24.592   4.256
33841W        W 6167  33.342   7.956  10.569
33842W        W 6168  24.043  37.967   0.006
33843W        W 6169  41.521  30.538   0.912
33844W        W 6170  26.996  19.094   3.423
33845W        W 6171  41.250  30.452  13.493
33846W        W 6172  27.553  30.392  10.654
33847W        W 6173  38.187  15.866   1.572
33848W        W 6174  13.333   3.650  13.497
33849W        W 6175  43.762  40.578  11.122
33850W        W 6176   1.913  30.670  13.323
33851W        W 6177  30.171  33.049   1.348
33852W        W 6178  44.502  27.245   1.919
33853W        W 6179   6.815  20.190   0.699
33854W        W 6180  21.083  43.452   2.372
33855W        W 6181  31.756  40.532   0.520
33856W        W 6182  43.927  43.530   2.188
33857W        W 6183  11.619   4.435   3.919
33858W        W 6184   1.483   1.362   4.452
33859W        W 6185  42.568  30.030  12.132
33860W        W 6186  39.792   0.431   1.761
33861W        W 6187   7.209  16.174  14.747
33862W        W 6188  34.862  36.720   1.697
33863W        W 6189  22.573   0.514  12.602
33864W        W 6190  39.442   6.841  10.643
33865W        W 6191  33.845   6.131  12.863
33866W        W 6192   4.019  39.933   3.137
33867W        W 6193  22.784  30.029  10.487
33868W        W 6194   0.845  42.025   3.679
33869W        W 6195  35.501  24.251  11.915
33870W        W 6196  20.150   0.797  12.493
33871W        W 6197  12.887   0.882  11.773
33872W        W 6198  17.140  28.041   0.900
33873W        W 6199  27.690  25.649   4.894
33874W        W 6200  38.414  32.583   3.731
33875W        W 6201  13.536  28.736   2.827
33876W        W 6202  35.081   8.267   4.642
33877W        W 6203  29.991  10.887  13.838
33878W        W 6204  22.100  36.664   1.268
33879W        W 6205  19.995   5.621   1.935
33880W        W 6206   5.197   0.284   0.871
33881W        W 6207  34.379  41.479  12.511
33882W        W 6208  44.071  37.907  12.289
33883W        W 6209  28.386  25.280  13.878
33884W        W 6210  19.787  41.463   1.294
33885W        W 6211  26.666  12.223  10.588
33886W        W 6212  40.838  27.743  10.527
33887W        W 6213  17.246  38.048  10.955
33888W        W 6214  26.990  28.289   4.555
33889W        W 6215  41.764  41.053   4.441
33890W        W 6216  34.854  16.779  11.562
33891W        W 6217  26.571  16.214   4.755
33892W        W 6218  15.336  20.674   4.282
33893W        W 6219   9.830  11.062  12.887
33894W        W 6220   3.354   9.283   4.729
33895W        W 6221  20.616   7.061   4.579
33896W        W 6222  11.060   6.888  13.968
33897W        W 6223   5.422  17.807  11.651
33898W        W 6224   0.231  32.924   0.728
33899W        W 6225  37.817   7.165   5.060
33900W        W 6226  34.369  25.024   2.098
33901W        W 6227  14.546   9.009  10.439
33902W        W 6228  12.189  25.986  14.940
33903W        W 6229  20.738  23.082  13.024
33904W        W 6230  29.964  27.022   0.932
33905W        W 6231   8.828  34.593  14.328
33906W        W 6232  39.756  16.970  12.108
33907W        W 6233  31.401  27.685   1.218
33908W        W 6234   1.625  43.200   4.015
33909W        W 6235  10.917   1.582   3.207
33910W        W 6236  36.393  35.867   9.841
33911W        W 6237  17.867  11.807  12.527
33912W        W 6238  26.142   0.234  12.533
33913W        W 6239  36.968  12.219  13.872
33914W        W 6240   4.309  35.682  11.110
33915W        W 6241  25.681  24.027  13.113
33916W        W 6242  15.743  16.861   0.753
33917W        W 6243   4.786  22.666   3.253
33918W        W 6244  13.769  42.882   0.936
33919W        W 6245   3.232  11.602  11.050
33920W        W 6246   6.536  25.160   2.113
33921W        W 6247   1.879  41.542  13.525
33922W        W 6248  15.202  16.846  11.946
33923W        W 6249  33.068  38.819  14.009
33924W        W 6250  31.959  23.787  11.992
33925W        W 6251  28.706  41.293   2.444
33926W        W 6252  11.734  36.627   2.895
33927W        W 6253  39.350  39.562   1.137
33928W        W 6254  37.885  17.611  10.625
33929W        W 6255   7.575  15.139  14.950
33930W        W 6256   8.187   2.311  12.628
33931W        W 6257  30.802  40.352   4.450
33932W        W 6258  17.618   5.003   2.638
33933W        W 6259  41.422  26.153  12.141
33934W        W 6260  42.646   0.004   3.032
33935W        W 6261  29.020  33.974   1.849
33936W        W 6262  22.448   4.506  10.349
33937W        W 6263  32.103  10.573  10.268
33938W        W 6264  11.927  14.387   1.373
33939W        W 6265  38.873  12.257  10.760
33940W        W 6266  44.038  23.206  11.034
33941W        W 6267  16.151  22.014   2.707
33942W        W 6268   3.858  13.797  12.474
33943W        W 6269  31.402  22.269   1.399
33944W        W 6270  11.366  18.077  11.537
33945W        W 6271  43.197  12.168  12.979
33946W        W 6272   7.399   8.711   3.542
33947W        W 6273   1.784  43.311   0.747
33948W        W 6274   4.752  15.231   3.084
33949W        W 6275   8.551  13.781   2.105
33950W        W 6276  13.164   5.544   2.919
33951W        W 6277  30.569  20.488  14.485
33952W        W 6278   5.492  44.376  12.986
33953W        W 6279  31.520  40.022   3.721
33954W        W 6280  32.935   0.298  11.036
33955W        W 6281  13.648  39.337  14.065
33956W        W 6282  17.229  38.758  11.790
33957W        W 6283  19.012   4.115   1.942
33958W        W 6284  31.028  16.134   0.962
33959W        W 6285  15.781  35.356  12.293
33960W        W 6286   8.159  24.541  12.561
33961W        W 6287  11.216   2.913   3.245
33962W        W 6288  22.932   2.799  11.095
33963W        W 6289  27.075  26.627  10.684
33964W        W 6290  16.284  31.020  14.950
33965W        W 6291  13.418  35.915   4.552
33966W        W 6292  26.500  26.926   4.574
33967W        W 6293  35.029  36.393  10.234
33968W        W 6294  25.745   0.910  11.468
33969W        W 6295   2.794  41.609  13.500
33970W        W 6296  26.703  14.281   0.394
33971W        W 6297  33.555  26.652   1.485
33972W        W 6298   9.221  11.252   3.693
33973W        W 6299  38.044   1.468   3.740
33974W        W 6300   6.090  18.381   9.920
33975W        W 6301  43.983  34.195  14.117
33976W        W 6302  42.722  42.517   4.086
33977W        W 6303  40.881  28.423   4.718
33978W        W 6304  16.374  27.444   4.309
33979W        W 6305  31.937  32.423  12.832
33980W        W 6306  23.180  44.052  10.991
33981W        W 6307  41.794  24.154   3.122
33982W        W 6308  29.261  17.514   2.198
33983W        W 6309  18.028  18.659   1.482
33984W        W 6310   8.805  39.090   2.400
33985W        W 6311  28.945  33.983   0.847
33986W        W 6312   7.397  17.168   2.687
33987W        W 6313  34.062  40.004  11.120
33988W        W 6314  24.451  16.955  10.236
33989W        W 6315   3.951  10.363   1.902
33990W        W 6316  27.014  25.403  13.466
33991W        W 6317  33.949  42.672   2.794
33992W        W 6318  36.536  41.760   2.598
33993W        W 6319  10.223  44.772   4.163
33994W        W 6320  41.533  42.337   4.619
33995W        W 6321  25.655  33.160   0.399
33996W        W 6322  13.281   3.749   2.680
33997W        W 6323  41.905  15.239  11.460
33998W        W 6324  28.252  28.435   1.972
33999W        W 6325   6.898  11.286   3.276
34000W        W 6326  16.290  27.634   4.780
34001W        W 6327  29.218  25.613  12.414
34002W        W 6328  28.501   2.706   4.555
34003W        W 6329  37.520  44.891  13.332
34004W        W 6330  10.121  11.334   0.345
34005W        W 6331  37.541   4.150   1.125
34006W        W 6332   4.450  42.375  13.573
34007W        W 6333  40.759  34.014   2.236
34008W        W 6334   0.076   1.837  12.880
34009W        W 6335  42.711  40.013  12.326
34010W        W 6336  44.036  44.348   1.319
34011W        W 6337  36.891  19.674   0.004
34012W        W 6338   5.434  43.760   4.447
34013W        W 6339   5.801   3.905   0.351
34014W        W 6340  10.202  34.544   3.187
34015W        W 6341  27.434   5.077  12.704
34016W        W 6342  42.463  14.601   1.816
34017W        W 6343  20.530  38.449  12.483
34018W        W 6344  41.553  27.498   3.633
34019W        W 6345  13.230  16.877   3.992
34020W        W 6346  40.977  20.233   0.071
34021W        W 6347   6.868   0.420   4.619
34022W        W 6348   9.965  43.950   0.933
34023W        W 6349  28.993  21.651   0.766
34024W        W 6350   3.200  13.028  11.650
34025W        W 6351   2.334  27.048   0.481
34026W        W 6352  10.594  20.176   3.711
34027W        W 6353  12.655  12.173  11.059
34028W        W 6354  27.487  28.928   3.723
34029W        W 6355  29.658  28.108   9.773
34030W        W 6356  15.667  41.327   1.681
34031W        W 6357  40.964  31.127  12.023
34032W        W 6358  43.529  27.603  10.567
34033W        W 6359   5.087  12.560  11.173
34034W        W 6360   0.902   0.452  10.629
34035W        W 6361  31.819  28.218   3.667
34036W        W 6362  12.037  19.819  12.391
34037W        W 6363  40.779  18.737  11.213
34038W        W 6364  29.424   2.981  14.919
34039W        W 6365  12.297  44.542   0.409
34040W        W 6366  30.563  40.725   1.875
34041W        W 6367  44.277  28.509   1.382
34042W        W 6368  20.111   1.361   3.845
34043W        W 6369  20.313  19.551  14.427
34044W        W 6370  26.078  43.661   2.887
34045W        W 6371  38.419  29.298   0.951
34046W        W 6372  13.003  35.645  11.116
34047W        W 6373  18.651   5.748   0.924
34048W        W 6374  13.059  33.488   4.608
34049W        W 6375  40.296  19.157   0.453
34050W        W 6376  16.849  36.302   4.852
34051W        W 6377  14.964  16.690   3.334
34052W        W 6378  32.946  41.422  12.679
34053W        W 6379  20.544  13.291  12.075
34054W        W 6380  32.142  37.374  13.989
34055W        W 6381  17.425   0.935  13.740
34056W        W 6382  36.376  13.747   3.905
34057W        W 6383   3.488  36.995   3.089
34058W        W 6384  40.759  36.057   0.264
34059W        W 6385  30.458  10.264   0.034
34060W        W 6386  30.935  30.983  11.309
34061W        W 6387  16.537  29.280   2.431
34062W        W 6388  18.896  39.641   1.263
34063W        W 6389  33.781   7.980   5.149
34064W        W 6390   4.449  26.646   0.411
34065W        W 6391  41.440  24.017  13.285
34066W        W 6392  16.092  31.466   4.390
34067W        W 6393  20.110  19.666   2.308
34068W        W 6394  25.508   2.167  13.815
34069W        W 6395   7.847   2.782   0.722
34070W        W 6396  32.080  43.265   1.193
34071W        W 6397  10.729  44.771  14.924
34072W        W 6398  21.841  20.534   0.483
34073W        W 6399  14.572   3.232   3.097
34074W        W 6400  14.294  20.275   4.662
34075W        W 6401  18.748  11.685   2.405
34076W        W 6402  28.457  14.690  12.058
34077W        W 6403  19.626  31.565  14.982
34078W        W 6404  20.508  31.151  11.888
34079W        W 6405  43.683   4.410  12.405
34080W        W 6406   4.261  35.590   0.763
34081W        W 6407   1.642   7.568  11.692
34082W        W 6408   2.626   5.481  10.919
34083W        W 6409  30.710  20.959  14.328
34084W        W 6410  35.566  21.340   3.386
34085W        W 6411  21.043  10.113  10.651
34086W        W 6412  20.475   4.752   4.992
34087W        W 6413  20.850   0.454   3.148
34088W        W 6414  31.858  26.001   0.924
34089W        W 6415  44.191  40.311  12.802
34090W        W 6416  44.989   2.169  13.870
34091W        W 6417  12.088  40.918   0.268
34092W        W 6418   1.137   6.703   3.619
34093W        W 6419  21.285   5.260   3.970
34094W        W 6420  14.306  33.328   1.442
34095W        W 6421  39.004  25.406   1.799
34096W        W 6422  26.242  10.842  11.726
34097W        W 6423  30.560  15.258   2.710
34098W        W 6424   2.482  34.940   2.247
34099W        W 6425  16.588  27.304   3.862
34100W        W 6426  19.549  12.828  14.785
34101W        W 6427  12.125  24.364  12.531
34102W        W 6428  42.466  40.942   3.249
34103W        W 6429  11.074   0.494  11.562
34104W        W 6430  31.552  17.748   3.688
34105W        W 6431  38.021  26.124   1.214
34106W        W 6432  33.382  35.623   2.476
34107W        W 6433  31.691  43.834   0.420
34108W        W 6434  16.828  20.447   0.958
34109W        W 6435  37.215  32.543   1.294
34110W        W 6436  17.593   3.218   1.159
34111W        W 6437   4.125  22.923  10.935
34112W        W 6438  12.342  29.278  14.882
34113W        W 6439  34.682  24.975   1.213
34114W        W 6440  43.845  29.193   2.546
34115W        W 6441   8.264  31.984  12.185
34116W        W 6442  15.266  23.096   2.346
34117W        W 6443  22.562   7.852   4.617
34118W        W 6444   4.736  35.519  12.389
34119W        W 6445  33.607   6.635   3.272
34120W        W 6446  12.337  26.958   2.341
34121W        W 6447  15.192  12.364   3.567
34122W        W 6448  44.979  15.225   2.636
34123W        W 6449  18.155  44.741   3.309
34124W        W 6450  31.598  41.849  14.144
34125W        W 6451  28.456  43.395   3.366
34126W        W 6452  28.261  38.022  13.134
34127W        W 6453  12.415   0.932  11.966
34128W        W 6454   4.271  18.732   2.664
34129W        W 6455  27.731  11.282  11.699
34130W        W 6456  29.494  14.984   0.958
34131W        W 6457  24.689  23.437   3.845
34132W        W 6458  44.866  22.844   3.727
34133W        W 6459  29.026  17.131  13.415
34134W        W 6460  42.037  25.168   0.801
34135W        W 6461   3.678   5.283   0.728
34136W        W 6462  16.173  23.754   0.275
34137W        W 6463  16.192   8.593   0.478
34138W        W 6464  11.351  37.122  13.762
34139W        W 6465  24.096  39.103   4.986
34140W        W 6466  38.066  36.846   0.568
34141W        W 6467  33.329  24.816  14.687
34142W        W 6468   2.820  13.682  10.592
34143W        W 6469  13.850  43.016  10.407
34144W        W 6470  20.859  18.600  14.311
34145W        W 6471  23.784  20.025   2.210
34146W        W 6472  34.926  16.749   2.197
34147W        W 6473  21.647  12.421  10.866
34148W        W 6474  12.184  21.310  14.220
34149W        W 6475  13.244  33.494   2.742
34150W        W 6476  23.672  24.418   1.231
34151W        W 6477  18.581   8.978  10.353
34152W        W 6478  25.761  10.412   4.624
34153W        W 6479  16.370  25.898   4.296
34154W        W 6480  21.499  31.203   1.387
34155W        W 6481  18.985  37.813   5.009
34156W        W 6482  34.768   0.782  11.444
34157W        W 6483  38.999  31.007   5.008
34158W        W 6484   3.321  33.434  12.085
34159W        W 6485  29.361  22.487   3.760
34160W        W 6486  23.690  13.070  11.459
34161W        W 6487   2.278  25.127   0.942
34162W        W 6488  37.149  10.850  11.341
34163W        W 6489  27.469  37.439  11.952
34164W        W 6490  13.532  15.223   4.633
34165W        W 6491  39.563  25.188  14.210
34166W        W 6492  42.806  44.925   4.370
34167W        W 6493  28.386   1.124  13.914
34168W        W 6494  23.107   5.278   4.969
34169W        W 6495  20.167  15.608   2.326
34170W        W 6496  37.401  18.813   1.480
34171W        W 6497   2.391  17.765  14.358
34172W        W 6498  32.829  33.497  14.319
34173W        W 6499  24.327  10.129  10.708
34174W        W 6500  43.927  13.572   0.795
34175W        W 6501   9.686   2.192   2.317
34176W        W 6502  13.573   2.977  11.570
34177W        W 6503  23.276  15.685   9.890
34178W        W 6504   3.360   6.667  11.429
34179W        W 6505  30.453  34.632   0.692
34180W        W 6506   9.686  19.633   2.143
34181W        W 6507  41.462  25.545  10.598
34182W        W 6508  32.987  29.859   2.306
34183W        W 6509   2.181  38.116  10.421
34184W        W 6510  12.802  28.142   4.643
34185W        W 6511  23.535  30.513  14.034
34186W        W 6512  43.210  15.527   0.096
34187W        W 6513   1.137  27.878  14.717
34188W        W 6514  10.848  12.095   2.207
34189W        W 6515  24.051   1.247   5.006
34190W        W 6516  44.677  43.821   2.268
34191W        W 6517   6.946  25.576  12.733
34192W        W 6518  15.273  30.604   3.830
34193W        W 6519  28.715  36.507  12.016
34194W        W 6520   3.150  30.541  14.986
34195W        W 6521  41.952  28.018   4.095
34196W        W 6522  40.460  36.095  13.560
34197W        W 6523  16.339   8.238  11.133
34198W        W 6524  44.458  16.338   4.658
34199W        W 6525   3.158   9.395  11.527
34200W        W 6526  32.042  37.762   5.017
34201W        W 6527  26.113  41.835  12.532
34202W        W 6528   3.203  28.651   2.885
34203W        W 6529  14.452  21.320  10.945
34204W        W 6530  24.474   9.756  14.075
34205W        W 6531   6.864  38.135   0.995
34206W        W 6532   7.154   0.222  10.725
34207W        W 6533  10.370  24.045  13.578
34208W        W 6534  24.235  27.739  11.208
34209W        W 6535  40.969  11.912   1.915
34210W        W 6536  35.315   2.093  12.893
34211W        W 6537   9.332  35.361  11.577
34212W        W 6538  36.311  41.052  14.253
34213W        W 6539  25.407  17.164   4.145
34214W        W 6540   2.089  20.222   2.662
34215W        W 6541  13.303  21.586  10.820
34216W        W 6542   3.357  23.670   0.950
34217W        W 6543  11.911  12.156   0.857
34218W        W 6544  28.007  16.074  14.556
34219W        W 6545  32.228  14.869   3.089
34220W        W 6546   3.959  30.998  14.921
34221W        W 6547  35.065  23.416  13.384
34222W        W 6548   2.854   7.212   0.932
34223W        W 6549   6.155   9.301   0.119
34224W        W 6550  32.227  26.376   1.793
34225W        W 6551  17.090  30.337   1.851
34226W        W 6552  15.330   5.310   2.676
34227W        W 6553  18.121  30.739   1.140
34228W        W 6554  31.935   4.463   3.850
34229W        W 6555   5.192  24.207   0.782
34230W        W 6556   1.393  38.248  12.943
34231W        W 6557  26.991  26.737  11.196
34232W        W 6558  39.080   3.092  11.138
34233W        W 6559  26.230   2.413  12.258
34234W        W 6560  44.264  22.537   4.507
34235W        W 6561   6.334   1.843   0.571
34236W        W 6562   2.550  40.020  12.866
34237W        W 6563  38.297  19.614   1.386
34238W        W 6564  18.614  29.613   0.233
34239W        W 6565  44.833  10.150   0.483
34240W        W 6566  21.087  29.481  11.183
34241W        W 6567  20.776  10.255  14.712
34242W        W 6568  27.074  20.541  12.872
34243W        W 6569  36.227  20.269  14.986
34244W        W 6570  44.770   0.537   4.478
34245W        W 6571   4.863  22.311  11.854
34246W        W 6572  11.988  31.986   2.307
34247W        W 6573   6.889  38.916   4.565
34248W        W 6574  15.159  28.221   2.441
34249W        W 6575   8.011   3.319   2.487
34250W        W 6576   9.786  20.089   4.792
34251W        W 6577  39.946  40.032  11.079
34252W        W 6578  27.243  36.526  12.441
34253W        W 6579  30.746  34.762  11.381
34254W        W 6580  31.377  18.525  13.855
34255W        W 6581  17.661  10.593  13.011
34256W        W 6582   4.991  17.539  11.967
34257W        W 6583  20.600  36.847  12.518
34258W        W 6584  37.459  42.269   2.261
34259W        W 6585  15.501  44.807   2.379
34260W        W 6586  38.244  31.455  10.523
34261W        W 6587   3.398  24.734   3.457
34262W        W 6588  29.052   4.687   0.268
34263W        W 6589  37.896  33.852   4.572
34264W        W 6590   2.229  26.839  13.074
34265W        W 6591   3.727  32.311  14.354
34266W        W 6592   3.797  13.853   0.351
34267W        W 6593   5.297  16.692   0.480
34268W        W 6594  24.714   4.647  11.343
34269W        W 6595  14.789  35.232  10.633
34270W        W 6596  19.143  36.488  12.821
34271W        W 6597  31.752  29.766   2.421
34272W        W 6598  10.119  10.307   0.456
34273W        W 6599  20.366   7.752  13.290
34274W        W 6600  18.511   3.247  12.918
34275W        W 6601   7.719  18.479   0.621
34276W        W 6602  24.554  33.390   0.411
34277W        W 6603  19.657   1.740  10.780
34278W        W 6604   9.196  34.170  13.098
34279W        W 6605  41.648   1.441  11.990
34280W        W 6606  44.911  12.560   3.251
34281W        W 6607  25.054  37.392   3.415
34282W        W 6608   5.651  27.920  12.579
34283W        W 6609   6.841  16.635   3.581
34284W        W 6610  29.151   2.216  12.437
34285W        W 6611  16.454   4.847   3.461
34286W        W 6612  11.686   5.334  11.408
34287W        W 6613   5.368  30.398   3.271
34288W        W 6614  23.010  39.079  12.996
34289W        W 6615   7.846  35.314  13.340
34290W        W 6616  28.416  29.172  12.940
34291W        W 6617  29.949   9.757  14.446
34292W        W 6618   8.824  20.023   2.367
34293W        W 6619  28.007  21.698  10.980
34294W        W 6620  36.585  13.554  10.851
34295W        W 6621  32.890  42.566   4.230
34296W        W 6622   2.713  31.663   4.086
34297W        W 6623  22.212  27.714   2.950
34298W        W 6624  20.686  30.940  13.259
34299W        W 6625  26.609  15.333   1.207
34300W        W 6626  17.184  10.272  12.945
34301W        W 6627  22.263  37.778  12.556
34302W        W 6628  31.135  38.541  14.884
34303W        W 6629  37.039  31.246   1.475
34304W        W 6630  32.194  28.053   0.388
34305W        W 6631  14.257  23.903   4.559
34306W        W 6632  23.019  41.045   3.843
34307W        W 6633  26.951   5.309  14.027
34308W        W 6634  25.737  15.598  13.108
34309W        W 6635  19.547  44.365  13.921
34310W        W 6636   8.100  15.825   0.716
34311W        W 6637  32.039   5.285   1.733
34312W        W 6638  39.500  33.585  11.581
34313W        W 6639  10.449   1.820   0.730
34314W        W 6640  18.224  20.737   3.295
34315W        W 6641  40.590  12.498  10.214
34316W        W 6642   4.567  41.304   4.220
34317W        W 6643  28.114  25.835   4.542
34318W        W 6644  26.694  17.798  14.356
34319W        W 6645  18.114  13.497  13.569
34320W        W 6646  29.409  28.478  14.889
34321W        W 6647  37.967  29.754  10.819
34322W        W 6648  23.667  13.767  10.688
34323W        W 6649  43.314  22.018   0.845
34324W        W 6650   6.632  40.060  11.594
34325W        W 6651  21.270  34.882  13.238
34326W        W 6652  39.220  42.609  14.899
34327W        W 6653  42.989  34.642   3.332
34328W        W 6654   5.351  27.986   0.781
34329W        W 6655  14.820  18.842  12.539
34330W        W 6656  29.906  31.443   4.630
34331W        W 6657   1.550  40.905   0.536
34332W        W 6658  33.433  25.333  14.550
34333W        W 6659  41.827  17.067   4.523
34334W        W 6660  40.915  24.595  13.870
34335W        W 6661  14.320  34.105   0.832
34336W        W 6662   9.306  31.453   2.325
34337W        W 6663  39.409  29.664   2.449
34338W        W 6664  42.539  17.977   1.677
34339W        W 6665  17.202   0.005  10.867
34340W        W 6666  37.878  23.460  12.004
34341W        W 6667  12.230   5.233   0.289
34342W        W 6668  28.994  42.857   1.458
34343W        W 6669  31.643  44.920   0.756
34344W        W 6670  35.153  42.004   2.143
34345W        W 6671  13.781  33.959  14.623
34346W        W 6672  29.475  31.586   0.824
34347W        W 6673  26.680  14.350  14.386
34348W        W 6674   4.396  43.029  11.074
34349W        W 6675  43.830  30.990  10.397
34350W        W 6676  41.109  33.851   3.183
34351W        W 6677  39.958  23.017   3.161
34352W        W 6678  38.111  20.621   0.712
34353W        W 6679  18.146  44.048   1.202
34354W        W 6680   7.866  42.533  14.170
34355W        W 6681  22.357  29.007   4.215
34356W        W 6682  30.458  43.065  11.137
34357W        W 6683  18.565  43.804   3.294
34358W        W 6684  38.937  28.951   0.375
34359W        W 6685  44.726   5.721  11.745
34360W        W 6686  32.975   0.867   4.322
34361W        W 6687   0.919   4.714  14.237
34362W        W 6688  26.681  16.643  12.856
34363W        W 6689  36.986  23.484   4.613
34364W        W 6690  16.216  17.071   0.912
34365W        W 6691  20.628  42.476   2.851
34366W        W 6692   6.968  23.564  10.690
34367W        W 6693   9.241  35.295   3.322
34368W        W 6694   1.731  40.973   1.878
34369W        W 6695  22.899  29.669  13.048
34370W        W 6696  35.532   6.996  13.792
34371W        W 6697  35.674  36.018   3.820
34372W        W 6698   1.532  41.160  12.163
34373W        W 6699   7.507  40.553   3.465
34374W        W 6700   7.172  30.625  10.607
34375W        W 6701  39.349  26.136  12.486
34376W        W 6702  36.763  25.032   3.850
34377W        W 6703  21.494  17.321   0.345
34378W        W 6704   9.917  14.564   3.207
34379W        W 6705   2.852  27.568  13.465
34380W        W 6706  28.033  13.255  11.629
34381W        W 6707   8.957  35.846   2.536
34382W        W 6708   0.184  32.304  12.854
34383W        W 6709   1.958  17.245  14.007
34384W        W 6710  34.518  28.330   2.748
34385W        W 6711  11.893  29.464   0.728
34386W        W 6712  14.855  13.088   1.766
34387W        W 6713  19.112  32.162  11.613
34388W        W 6714  28.964  25.043  13.084
34389W        W 6715  32.475  32.230  10.633
34390W        W 6716  13.524  32.265  12.421
34391W        W 6717  38.998   7.342   3.552
34392W        W 6718  30.626  13.598   3.945
34393W        W 6719  34.262  34.389  14.921
34394W        W 6720  22.960  29.405  13.941
34395W        W 6721  43.085  10.248   0.635
34396W        W 6722  37.458  20.260   1.303
34397W        W 6723  19.551  15.762  11.178
34398W        W 6724  28.070   9.298   0.613
34399W        W 6725  39.371  35.142  12.961
34400W        W 6726  31.594   1.213  12.005
34401W        W 6727  11.806  18.065   2.181
34402W        W 6728   4.225  24.548  12.934
34403W        W 6729  41.559  30.481   3.715
34404W        W 6730  31.587  35.570   2.852
34405W        W 6731  43.852  16.840  12.881
34406W        W 6732  35.419  25.986  13.940
34407W        W 6733  15.205  21.543  13.277
34408W        W 6734  24.249   8.208  13.884
34409W        W 6735  10.352   9.308  11.135
34410W        W 6736  22.164   7.023  12.557
34411W        W 6737  40.326  32.825   1.232
34412W        W 6738  10.889  33.462   2.930
34413W        W 6739  13.254  19.004  11.120
34414W        W 6740  39.646  35.873   4.985
34415W        W 6741  30.222  13.638  12.918
34416W        W 6742  37.620  18.217  12.527
34417W        W 6743  17.690  25.728   2.090
34418W        W 6744  17.517  41.079   4.208
34419W        W 6745  20.220  36.474  13.885
34420W        W 6746  26.829   4.777   9.857
34421W        W 6747  11.271   1.485   2.135
34422W        W 6748  10.203  27.052   4.055
34423W        W 6749  39.312  36.041  13.909
34424W        W 6750  32.943  31.849   0.111
34425W        W 6751   5.942  41.955  11.511
34426W        W 6752   8.362  44.193   3.353
34427W        W 6753  36.599   9.645   4.692
34428W        W 6754  28.477  35.570  13.413
34429W        W 6755  15.011  24.222   1.216
34430W        W 6756  31.348   6.294   2.872
34431W        W 6757  36.398  20.166   0.787
34432W        W 6758  30.086   6.921   4.871
34433W        W 6759  14.663  33.092  12.014
34434W        W 6760  26.814  17.740  13.855
34435W        W 6761  18.668  44.538  10.834
34436W        W 6762  17.249  30.862   1.910
34437W        W 6763   4.868  12.799   4.332
34438W        W 6764  15.640   6.484   2.216
34439W        W 6765  14.954  18.577   4.041
34440W        W 6766  24.019  24.275   2.573
34441W        W 6767  19.614  44.256   0.280
34442W        W 6768  39.317  32.038  13.017
34443W        W 6769  40.078  24.626   2.737
34444W        W 6770   0.430   8.260   1.760
34445W        W 6771   7.598  17.084  11.418
34446W        W 6772  33.660  16.120  14.382
34447W        W 6773   1.452  10.374   2.991
34448W        W 6774  42.838  21.103   0.974
34449W        W 6775  18.026  35.800   2.261
34450W        W 6776  40.603  38.451   4.603
34451W        W 6777  23.631   4.192  11.085
34452W        W 6778  35.647  13.523  13.186
34453W        W 6779  17.569  15.351   0.475
34454W        W 6780   5.376  31.552  13.965
34455W        W 6781  27.808  23.325   0.802
34456W        W 6782  41.158   8.920   4.496
34457W        W 6783  15.685  29.865  14.770
34458W        W 6784  23.677  41.478  14.441
34459W        W 6785  44.206  11.413  10.704
34460W        W 6786  15.199  10.081  10.495
34461W        W 6787  13.838  26.593   4.274
34462W        W 6788   4.258   8.940   3.231
34463W        W 6789  18.633  31.923   3.310
34464W        W 6790   0.996  29.419  14.797
34465W        W 6791  19.686  11.345   3.290
34466W        W 6792  11.504  32.321  14.264
34467W        W 6793  34.444  28.926  11.847
34468W        W 6794  43.915  35.280  12.847
34469W        W 6795  28.687  23.187  13.396
34470W        W 6796  31.116  17.127   0.917
34471W        W 6797   6.294  37.466  12.883
34472W        W 6798  10.167  14.127   4.081
34473W        W 6799  35.755  34.708   0.814
34474W        W 6800  12.847  10.722   3.566
34475W        W 6801  14.748  13.168  12.892
34476W        W 6802   4.933  32.399  14.810
34477W        W 6803  23.685  15.320   4.178
34478W        W 6804  13.988  22.745  11.793
34479W        W 6805  18.689  16.554  13.337
34480W        W 6806   2.678   8.318   3.321
34481W        W 6807  32.827  11.038  12.084
34482W        W 6808  34.481   3.263  13.311
34483W        W 6809  17.831  21.939  10.742
34484W        W 6810  16.812  17.761   0.913
34485W        W 6811   4.803   4.630  11.058
34486W        W 6812   8.875   6.311  14.990
34487W        W 6813  34.109  22.494  13.466
34488W        W 6814  18.702   8.467  10.464
34489W        W 6815   4.912   2.720   4.497
34490W        W 6816  13.405   7.914   0.890
34491W        W 6817  28.506  23.396  10.989
34492W        W 6818  36.007  44.835   1.638
34493W        W 6819  20.489  33.469  11.443
34494W        W 6820  13.695  41.085  10.964
34495W        W 6821  38.236  19.796   2.801
34496W        W 6822  19.507  27.031   0.145
34497W        W 6823  40.022   4.271   3.572
34498W        W 6824  36.858  20.205  14.241
34499W        W 6825  10.134  37.025   2.241
34500W        W 6826  34.335  23.594  11.012
34501W        W 6827  15.168   9.636   0.321
34502W        W 6828  41.316  22.588   2.766
34503W        W 6829  37.825   3.230   0.677
34504W        W 6830  12.723  19.580  10.752
34505W        W 6831  35.584  19.078  13.489
34506W        W 6832  44.523  30.437   1.319
34507W        W 6833  18.439  23.942   0.889
34508W        W 6834  20.757  30.498   3.622
34509W        W 6835  28.539   3.788  10.974
34510W        W 6836  11.599  33.408   0.793
34511W        W 6837  12.971   6.688  10.770
34512W        W 6838  28.565  42.555   2.755
34513W        W 6839   4.419  19.972  11.133
34514W        W 6840   5.156  33.757   1.416
34515W        W 6841  20.539  34.597   1.767
34516W        W 6842  15.731   5.441  10.701
34517W        W 6843  39.922  38.384  13.799
34518W        W 6844  39.957  24.717   1.787
34519W        W 6845  33.885  21.255  10.678
34520W        W 6846  27.491  29.011  10.046
34521W        W 6847   2.188  34.922   3.957
34522W        W 6848   6.392  17.481   4.934
34523W        W 6849  12.085   5.788   2.855
34524W        W 6850  22.828  41.889   1.200
34525W        W 6851  23.931  14.243   3.414
34526W        W 6852  18.627  29.449  11.887
34527W        W 6853  34.108   5.718   0.553
34528W        W 6854  26.097   7.207   3.958
34529W        W 6855  19.630   9.579  11.117
34530W        W 6856  15.088   8.819   1.815
34531W        W 6857  36.381   8.810   1.652
34532W        W 6858  13.782  15.707   3.794
34533W        W 6859  37.780  41.134   3.842
34534W        W 6860  13.590  22.948   4.758
34535W        W 6861  21.511  44.404  10.038
34536W        W 6862  19.099   6.676  13.965
34537W        W 6863  39.869  18.523   2.472
34538W        W 6864   1.643  24.050   3.107
34539W        W 6865  28.068  21.726   1.613
34540W        W 6866   0.183  44.886   3.685
34541W        W 6867  36.858  34.850  11.574
34542W        W 6868   8.175  36.534   0.008
34543W        W 6869  18.576  10.220   4.804
34544W        W 6870  31.441  33.925   1.666
34545W        W 6871  43.355  31.146   4.647
34546W        W 6872  18.782  31.406   4.192
34547W        W 6873  13.808  24.266  11.962
34548W        W 6874  21.505  37.329  10.685
34549W        W 6875   2.472  12.140   5.282
34550W        W 6876  29.283  35.838   1.306
34551W        W 6877  16.403  33.065   3.907
34552W        W 6878  39.945  41.555  13.315
34553W        W 6879  14.585  31.488  11.190
34554W        W 6880  13.253   0.652  10.696
34555W        W 6881  25.188   8.791  14.272
34556W        W 6882  42.814  34.560   0.466
34557W        W 6883   7.993  37.674  13.175
34558W        W 6884  12.108  37.029  10.496
34559W        W 6885  44.556  29.942   0.436
34560W        W 6886  26.929  36.447   0.190
34561W        W 6887   3.225   4.834  13.578
34562W        W 6888  39.449  24.002  12.658
34563W        W 6889  26.169  37.365   4.629
34564W        W 6890   4.638  39.384  11.593
34565W        W 6891   2.190  36.104  12.006
34566W        W 6892   6.962   6.570   0.964
34567W        W 6893  16.038   0.738   2.199
34568W        W 6894   8.134  25.572  13.757
34569W        W 6895  27.043  42.459   4.552
34570W        W 6896   0.273   1.188   2.671
34571W        W 6897  42.509  20.091  14.601
34572W        W 6898  12.894   1.816   4.727
34573W        W 6899  17.327  24.062   4.356
34574W        W 6900  40.398   1.685   3.789
34575W        W 6901   6.923  32.928   2.207
34576W        W 6902  36.977  36.329   3.300
34577W        W 6903   6.831  40.903  12.124
34578W        W 6904  38.783  31.570   1.740
34579W        W 6905  15.071  19.821  12.883
34580W        W 6906  38.868  27.890  11.482
34581W        W 6907  44.861  34.685  11.277
34582W        W 6908  42.561  12.919  11.116
34583W        W 6909  12.284  41.974  12.945
34584W        W 6910  18.768  38.768   2.386
34585W        W 6911  18.217  11.674  13.323
34586W        W 6912   9.660   8.117  14.902
34587W        W 6913  26.525  18.152  14.014
34588W        W 6914   6.461  15.117   3.421
34589W        W 6915  29.202  30.142  11.965
34590W        W 6916   0.445  37.854  12.580
34591W        W 6917  14.622  23.458   3.679
34592W        W 6918  17.133  35.387   1.307
34593W        W 6919  42.399   5.524  13.403
34594W        W 6920  39.353  11.080   3.872
34595W        W 6921  42.388  29.902  10.984
34596W        W 6922  22.010  28.222  14.772
34597W        W 6923  24.759  39.434   1.656
34598W        W 6924  33.963   9.410  13.334
34599W        W 6925   3.272   1.413   0.173
34600W        W 6926  31.255  12.828  14.948
34601W        W 6927  14.245   0.281   4.303
34602W        W 6928  28.051  34.451  10.300
34603W        W 6929  41.906  32.397  11.756
34604W        W 6930  29.118   5.783   3.636
34605W        W 6931  32.160  34.097   0.995
34606W        W 6932   1.357  41.402  13.358
34607W        W 6933  28.433  28.755   1.048
34608W        W 6934  21.688  21.034   0.433
34609W        W 6935  11.807   5.296   2.113
34610W        W 6936  21.251  27.484  12.907
34611W        W 6937  37.108   2.355  12.032
34612W        W 6938   7.921  41.841  10.690
34613W        W 6939  14.087  39.973   0.802
34614W        W 6940  40.118   9.786   4.329
34615W        W 6941   2.789  43.988  11.388
34616W        W 6942   8.192  10.958   3.274
34617W        W 6943  13.281  38.407  13.264
34618W        W 6944  26.062  42.155   4.292
34619W        W 6945   4.835  15.457   3.900
34620W        W 6946  26.121  12.886  11.028
34621W        W 6947   7.974   5.903  13.018
34622W        W 6948  28.188   5.723   3.409
34623W        W 6949  34.965   6.995   2.269
34624W        W 6950  41.960  33.145   0.336
34625W        W 6951  12.874   5.892  13.869
34626W        W 6952  30.683   9.434  13.501
34627W        W 6953   6.215  22.627   3.116
34628W        W 6954  34.638  42.627  14.308
34629W        W 6955  43.059   0.196  14.761
34630W        W 6956  19.277  36.092  14.201
34631W        W 6957  26.270  13.826   2.790
34632W        W 6958  21.955  16.701   4.307
34633W        W 6959  34.646  19.462   2.878
34634W        W 6960  11.654  14.608  13.745
34635W        W 6961  21.496  35.002  13.723
34636W        W 6962  43.936  13.261  12.322
34637W        W 6963  15.143  25.615   0.928
34638W        W 6964  21.202  33.068   1.982
34639W        W 6965  32.562  37.051  12.436
34640W        W 6966  24.252  14.983  11.239
34641W        W 6967   5.198  16.697  10.866
34642W        W 6968  22.233  26.014  10.324
34643W        W 6969  21.704   1.982  12.173
34644W        W 6970  42.541   9.167   1.242
34645W        W 6971   8.228   2.030  14.953
34646W        W 6972   4.649  34.131   0.241
34647W        W 6973  41.900  33.988  12.063
34648W        W 6974   5.723  16.144   3.575
34649W        W 6975   2.214  10.537  12.886
34650W        W 6976  19.047  27.389  14.920
34651W        W 6977  14.859  36.133   3.616
34652W        W 6978   7.943  40.761   3.703
34653W        W 6979  42.501  21.069  13.432
34654W        W 6980   6.325  36.692  13.879
34655W        W 6981   2.454  33.945  13.941
34656W        W 6982  29.100  23.957   2.039
34657W        W 6983  43.037  42.067   1.253
34658W        W 6984  20.156   3.933  14.917
34659W        W 6985  34.650  11.560   4.696
34660W        W 6986  40.342   6.892  12.670
34661W        W 6987  30.316   7.563   4.305
34662W        W 6988   0.719  19.330   0.651
34663W        W 6989  36.760  31.478  11.557
34664W        W 6990  35.355  27.988   1.965
34665W        W 6991  30.578  22.166  11.035
34666W        W 6992  10.270  15.985   3.886
34667W        W 6993  25.202  23.193   1.441
34668W        W 6994  31.631  11.838  14.432
34669W        W 6995  31.934  24.037  14.880
34670W        W 6996  19.109  15.181  14.514
34671W        W 6997  34.775  28.085   3.320
34672W        W 6998  11.243  13.956  12.450
34673W        W 6999  22.507  20.989  13.360
34674W        W 7000  29.291   9.512   1.683
34675W        W 7001  14.127  31.145  14.368
34676W        W 7002  34.090  24.460   1.456
34677W        W 7003  10.879  35.487   2.356
34678W        W 7004  37.312  42.990   3.682
34679W        W 7005  14.333  40.804  12.591
34680W        W 7006  29.148  35.253   0.468
34681W        W 7007  34.051  22.832   0.401
34682W        W 7008  19.155  18.043   0.202
34683W        W 7009   2.840  32.678   1.646
34684W        W 7010  28.695  34.351   0.583
34685W        W 7011  16.540  13.321   4.038
34686W        W 7012  21.994  42.060  13.907
34687W        W 7013  17.158  27.455  12.667
34688W        W 7014   8.536   1.832  12.408
34689W        W 7015  17.789   9.537   3.866
34690W        W 7016  31.508  36.030   3.088
34691W        W 7017   7.195  10.612  12.316
34692W        W 7018  43.378  28.713  12.891
34693W        W 7019  23.639  19.997   4.160
34694W        W 7020  22.794  44.734  12.255
34695W        W 7021  38.140  25.786   3.100
34696W        W 7022   6.416   8.715   3.616
34697W        W 7023  15.325  35.332  11.563
34698W        W 7024  21.584  23.987  14.015
34699W        W 7025  36.329  20.954  10.208
34700W        W 7026  20.703  28.463  14.951
34701W        W 7027  31.862  28.002  13.360
34702W        W 7028   3.136  12.232   2.858
34703W        W 7029  26.424  17.852  13.549
34704W        W 7030  31.112  19.020   1.511
34705W        W 7031  20.828   1.467  11.043
34706W        W 7032  19.315   2.415   0.421
34707W        W 7033   0.376   7.708   1.854
34708W        W 7034  39.554   8.188  12.165
34709W        W 7035  37.629   9.768   5.119
34710W        W 7036  10.254  28.192  11.095
34711W        W 7037  14.644   2.520  14.521
34712W        W 7038  40.129   6.158  11.493
34713W        W 7039  12.225  18.224   0.878
34714W        W 7040  31.898  27.066   2.852
34715W        W 7041  39.277  28.006   1.129
34716W        W 7042  10.784   4.406   3.642
34717W        W 7043   8.165  10.518   2.397
34718W        W 7044  12.592  36.256  14.365
34719W        W 7045  19.223   2.506   3.373
34720W        W 7046  12.215   7.305  11.220
34721W        W 7047   7.322   2.907   0.794
34722W        W 7048  30.564  23.955  12.930
34723W        W 7049   0.439  39.238  13.442
34724W        W 7050  39.094  24.005   4.160
34725W        W 7051  24.074  21.796  10.710
34726W        W 7052  11.469  33.266   4.567
34727W        W 7053  40.972  37.568   4.235
34728W        W 7054  31.962  35.043   4.568
34729W        W 7055  19.109  24.105   2.654
34730W        W 7056  13.659  19.037   2.386
34731W        W 7057  36.302   9.116  14.784
34732W        W 7058   8.906  11.660   2.918
34733W        W 7059  43.919  42.867  12.995
34734W        W 7060   2.414  31.009   2.342
34735W        W 7061  39.196  19.208  11.861
34736W        W 7062  13.054  42.770   4.086
34737W        W 7063  19.108  39.681   0.789
34738W        W 7064  17.742   4.196   1.469
34739W        W 7065  10.619  27.275   3.830
34740W        W 7066  42.871  35.435  13.984
34741W        W 7067  13.685   1.387  10.737
34742W        W 7068   4.813  25.200  13.466
34743W        W 7069   7.122  36.344   4.193
34744W        W 7070  37.792   0.401   3.590
34745W        W 7071  16.147   2.968  14.829
34746W        W 7072  20.244  44.387  12.149
34747W        W 7073  31.231  12.641   3.568
34748W        W 7074  27.044   6.231   0.238
34749W        W 7075   2.788  22.785  10.550
34750W        W 7076  21.670  18.560   1.273
34751W        W 7077  10.343   9.115   3.588
34752W        W 7078   0.036  41.912   1.460
34753W        W 7079  35.484   1.836   3.229
34754W        W 7080  13.904  39.889   1.265
34755W        W 7081  39.945  13.571  13.839
34756W        W 7082  44.987  15.654  14.598
34757W        W 7083  34.878  33.795  11.538
34758W        W 7084  21.574   8.334   2.800
34759W        W 7085  32.251   3.310   2.841
34760W        W 7086  22.546  14.181  12.856
34761W        W 7087  22.136  24.426   0.739
34762W        W 7088  27.975   9.525  11.018
34763W        W 7089  38.835  34.862   3.627
34764W        W 7090  12.095   6.118  13.514
34765W        W 7091   1.872  11.874  14.175
34766W        W 7092  39.178   1.345  14.250
34767W        W 7093  39.423  29.905  12.523
34768W        W 7094  25.159  38.775   3.350
34769W        W 7095  20.880   8.224   2.108
34770W        W 7096   1.740  34.859   3.263
34771W        W 7097  41.503  10.751   4.859
34772W        W 7098   8.420   6.724  11.714
34773W        W 7099  43.588   5.965  13.546
34774W        W 7100  34.324  31.507  14.628
34775W        W 7101  16.127  37.404  14.777
34776W        W 7102  19.309  28.940   1.234
34777W        W 7103  38.733  44.808   2.451
34778W        W 7104  14.209  29.788   1.274
34779W        W 7105   3.525  11.334   1.051
34780W        W 7106  22.519  39.296  11.089
34781W        W 7107   0.097  27.509  14.425
34782W        W 7108  30.688   6.474  11.132
34783W        W 7109  33.539  28.451   0.455
34784W        W 7110  21.105  44.478   0.443
34785W        W 7111   7.152   1.386  12.524
34786W        W 7112  39.823  31.444   4.130
34787W        W 7113  19.049  26.823   3.208
34788W        W 7114  18.090  32.108   1.313
34789W        W 7115   2.933  19.951   3.253
34790W        W 7116  44.629  26.978   5.097
34791W        W 7117  43.949  30.998  13.934
34792W        W 7118  25.932  42.918   3.744
34793W        W 7119  16.728  26.071   3.384
34794W        W 7120  44.216  26.097   4.832
34795W        W 7121  42.291   5.524   4.786
34796W        W 7122  13.797  24.779  12.033
34797W        W 7123  34.813   3.695  13.333
34798W        W 7124  12.724  25.669   0.216
34799W        W 7125  19.212  23.458  12.578
34800W        W 7126   7.232   8.248   0.824
34801W        W 7127  40.385   0.770  12.887
34802W        W 7128   2.176   4.350   3.594
34803W        W 7129  30.980  36.622   0.906
34804W        W 7130   1.727  41.011   2.794
34805W        W 7131  18.340  28.442   0.743
34806W        W 7132   9.857  32.055  12.970
34807W        W 7133   6.756  39.932  12.573
34808W        W 7134  27.196  30.041   1.925
34809W        W 7135  23.679  14.852   0.784
34810W        W 7136  22.038   8.653   2.300
34811W        W 7137  23.848   2.535   5.090
34812W        W 7138  25.118  41.963   0.065
34813W        W 7139  38.856  20.306  11.856
34814W        W 7140  12.273  18.221  12.338
34815W        W 7141  25.989  44.089   0.774
34816W        W 7142  38.094  16.632   2.372
34817W        W 7143  14.037  25.200  10.917
34818W        W 7144  33.979   4.119   4.580
34819W        W 7145   3.212  37.767  12.917
34820W        W 7146   9.049  19.028   3.344
34821W        W 7147   0.058  32.140  14.517
34822W        W 7148  41.493  10.396   1.807
34823W        W 7149  21.249  39.521  11.506
34824W        W 7150  37.308  41.088   3.636
34825W        W 7151  40.460  14.822  13.939
34826W        W 7152  25.121  12.216  10.617
34827W        W 7153   9.365   9.716   3.370
34828W        W 7154  26.743  36.726  12.582
34829W        W 7155  12.281  14.942   3.310
34830W        W 7156  38.908   6.080   4.058
34831W        W 7157  22.608  41.787  12.109
34832W        W 7158  38.648  30.421   4.427
34833W        W 7159  30.710   6.780   3.331
34834W        W 7160   5.533  24.964  12.209
34835W        W 7161  12.812  14.163  13.018
34836W        W 7162  35.426   7.760  13.414
34837W        W 7163  38.055  26.314  14.808
34838W        W 7164  21.271  41.878  11.554
34839W        W 7165  43.695  19.660  11.447
34840W        W 7166  21.614  32.454  13.448
34841W        W 7167  41.358  15.597   4.216
34842W        W 7168   3.343   0.543   2.931
34843W        W 7169  20.013  11.392  14.749
34844W        W 7170  28.646  41.948  12.969
34845W        W 7171  20.260  12.387   2.592
34846W        W 7172  17.593  40.013   2.914
34847W        W 7173  37.548   9.966  11.476
34848W        W 7174  23.953  24.584   4.860
34849W        W 7175   7.243  19.107   0.317
34850W        W 7176  42.948   4.280   3.141
34851W        W 7177   3.343  19.642   3.350
34852W        W 7178  31.412  31.019  10.569
34853W        W 7179  34.431  35.797   2.676
34854W        W 7180  40.239  39.966   2.235
34855W        W 7181   2.942  40.367   0.538
34856W        W 7182   7.260  34.355   3.297
34857W        W 7183  20.193  24.750  10.765
34858W        W 7184   8.299  20.626   4.622
34859W        W 7185   0.996  15.600   2.765
34860W        W 7186  18.167  11.035   0.202
34861W        W 7187   6.252  29.536   4.325
34862W        W 7188  16.203  24.646  14.834
34863W        W 7189  37.359  17.393  13.420
34864W        W 7190   6.414   7.963  11.615
34865W        W 7191   5.939  42.108   0.795
34866W        W 7192  13.849  13.059   0.209
34867W        W 7193   6.510   8.428   1.207
34868W        W 7194  14.120  26.874   0.874
34869W        W 7195  30.425   9.829  10.541
34870W        W 7196  29.662  44.277  12.524
34871W        W 7197  15.547   8.875   3.502
34872W        W 7198  41.942  22.924  12.371
34873W        W 7199  34.500  44.218   2.859
34874W        W 7200   7.248  21.637  12.501
34875W        W 7201  33.750   4.485  13.163
34876W        W 7202  35.577  17.504  14.527
34877W        W 7203   5.753  10.937   3.321
34878W        W 7204  41.648  15.356   1.703
34879W        W 7205  29.516  42.277   0.304
34880W        W 7206   4.367  37.787  14.546
34881W        W 7207   7.202  35.816   2.464
34882W        W 7208  12.688  18.687   4.124
34883W        W 7209   8.006   0.539  10.695
34884W        W 7210  38.410   0.604   1.348
34885W        W 7211  12.424  25.094  11.954
34886W        W 7212   9.862  31.339  11.786
34887W        W 7213  30.485   1.899  14.440
34888W        W 7214  41.423  15.597   0.435
34889W        W 7215  28.480   1.541  14.224
34890W        W 7216  25.399  23.020  12.186
34891W        W 7217   0.415  17.029   4.219
34892W        W 7218  24.141  19.243   1.401
34893W        W 7219  15.722  27.946   0.091
34894W        W 7220   9.484  38.811  10.313
34895W        W 7221  39.293  22.304   1.278
34896W        W 7222  32.929  30.584   1.211
34897W        W 7223   6.892  19.220  11.535
34898W        W 7224  14.377   5.536  11.146
34899W        W 7225  37.851   5.709  10.720
34900W        W 7226  12.435  39.917  10.649
34901W        W 7227  30.420  39.471  11.127
34902W        W 7228  17.540  38.089   2.871
34903W        W 7229  18.959   3.767   2.673
34904W        W 7230  27.165  11.673  11.026
34905W        W 7231  21.716  43.273  12.099
34906W        W 7232  32.861   9.444   0.759
34907W        W 7233  16.199  13.304  11.239
34908W        W 7234   0.221  22.260   2.747
34909W        W 7235  26.689  42.014   2.258
34910W        W 7236  16.205  19.264   4.545
34911W        W 7237  19.541  25.910   2.774
34912W        W 7238  38.713  10.186   4.606
34913W        W 7239   9.792  17.062   4.535
34914W        W 7240  41.188  34.746   3.594
34915W        W 7241  38.964  25.419   4.082
34916W        W 7242  11.314  28.743  14.743
34917W        W 7243  12.457  39.361   2.908
34918W        W 7244  18.286   4.851   1.956
34919W        W 7245  21.798  18.320   0.823
34920W        W 7246  28.118  38.616   0.651
34921W        W 7247  32.924  39.563  11.521
34922W        W 7248  30.549   3.138  12.542
34923W        W 7249  24.285   3.856   4.871
34924W        W 7250   0.236  43.810  11.978
34925W        W 7251   0.744  13.332   0.257
34926W        W 7252   4.925  41.790  12.082
34927W        W 7253   6.109  16.899   3.341
34928W        W 7254   0.913   8.465   2.542
34929W        W 7255  28.426  13.590  14.502
34930W        W 7256  39.870  37.934  14.949
34931W        W 7257  12.903  44.408  12.011
34932W        W 7258  37.322  10.023  11.002
34933W        W 7259  14.095   5.426   0.485
34934W        W 7260  25.760   6.761   0.435
34935W        W 7261  19.101  15.492   9.825
34936W        W 7262  12.519  44.140  14.280
34937W        W 7263   8.753   1.691   3.734
34938W        W 7264  20.529  10.216   4.428
34939W        W 7265  43.233  35.720   0.356
34940W        W 7266  29.915   4.653   0.479
34941W        W 7267  13.169   4.171  11.490
34942W        W 7268   1.723  20.176  14.766
34943W        W 7269  44.943  31.912  14.050
34944W        W 7270  44.049   0.710  13.995
34945W        W 7271  15.599  38.064  12.837
34946W        W 7272  22.528   6.287   2.745
34947W        W 7273  32.023   6.472  12.702
34948W        W 7274  15.790   0.442  12.523
34949W        W 7275  32.772  36.539   2.951
34950W        W 7276  23.882   6.620  11.993
34951W        W 7277   6.052  25.159   4.607
34952W        W 7278  31.706  26.496   1.787
34953W        W 7279  10.020   9.859   4.162
34954W        W 7280   0.339  22.831   1.856
34955W        W 7281  35.405   8.571  11.151
34956W        W 7282  17.767  18.674  12.753
34957W        W 7283  31.908  36.570  12.372
34958W        W 7284  44.490   8.779   0.247
34959W        W 7285  26.168  32.928  12.438
34960W        W 7286  18.826  31.578   2.380
34961W        W 7287   0.841  35.441  13.336
34962W        W 7288   6.750  19.744   1.940
34963W        W 7289  21.461  43.922   4.642
34964W        W 7290  36.291  29.976   3.494
34965W        W 7291  36.812  26.520   3.725
34966W        W 7292  11.641  34.405  13.386
34967W        W 7293  34.013  16.579  12.381
34968W        W 7294  14.857  27.650  13.781
34969W        W 7295  34.041  21.088  14.814
34970W        W 7296  25.148  26.988   0.491
34971W        W 7297  29.840  33.369   2.148
34972W        W 7298  41.444   2.042  11.346
34973W        W 7299  26.439  38.334   3.169
34974W        W 7300  27.080   5.944   1.767
34975W        W 7301  13.803   4.852   0.417
34976W        W 7302  43.754  31.549  11.056
34977W        W 7303  14.199   2.045   0.501
34978W        W 7304  30.759  12.257   4.106
34979W        W 7305   9.626  14.769   0.681
34980W        W 7306   3.185  15.319   3.130
34981W        W 7307  17.641  30.469  11.935
34982W        W 7308  36.620  11.630   2.373
34983W        W 7309  14.193  39.829   0.316
34984W        W 7310  29.979  35.609  10.601
34985W        W 7311  22.017   1.975  14.990
34986W        W 7312  11.762  18.648   1.516
34987W        W 7313   0.847  35.672   3.019
34988W        W 7314   2.428  29.013   0.725
34989W        W 7315  26.354   5.317  11.721
34990W        W 7316  42.237  27.089   0.604
34991W        W 7317  26.573  23.450   4.148
34992W        W 7318  22.404   8.188  14.409
34993W        W 7319  16.343  13.997  13.762
34994W        W 7320   1.440  12.592  10.508
34995W        W 7321  41.402  16.390  10.690
34996W        W 7322  11.285  41.695   1.119
34997W        W 7323   5.762   3.972  12.961
34998W        W 7324  32.327  16.061   2.578
34999W        W 7325  24.088  37.521  11.997
35000W        W 7326   4.470  23.990  12.913
35001W        W 7327  33.389  36.582   3.640
35002W        W 7328  15.979  34.032  12.517
35003W        W 7329  30.559  22.757   2.253
35004W        W 7330  22.880  38.020  13.958
35005W        W 7331  19.571  25.731   2.276
35006W        W 7332  14.749  28.987   2.137
35007W        W 7333  31.189  32.984  12.340
35008W        W 7334  44.237   7.437   3.263
35009W        W 7335  12.096   5.994   1.045
35010W        W 7336   8.305  28.889   3.682
35011W        W 7337  23.913  36.929   5.071
35012W        W 7338  21.952   2.996  13.011
35013W        W 7339   6.826  36.993   3.465
35014W        W 7340  37.780  26.260   3.206
35015W        W 7341   8.307  42.445   4.196
35016W        W 7342  39.979  18.142   3.132
35017W        W 7343  23.517  36.426   3.075
35018W        W 7344   0.252  29.329   4.333
35019W        W 7345   7.290   1.610  12.075
35020W        W 7346  20.510   8.850  13.324
35021W        W 7347  35.951  36.592  10.242
35022W        W 7348  27.551  36.477   1.207
35023W        W 7349  29.577  16.927   2.867
35024W        W 7350  26.633  14.114  12.028
35025W        W 7351   7.423  29.092  10.473
35026W        W 7352   4.154  36.225  11.008
35027W        W 7353   0.763  26.514   2.789
35028W        W 7354  10.342  13.553   0.777
35029W        W 7355   2.879   0.895  10.929
35030W        W 7356  17.574  30.117   4.427
35031W        W 7357  10.038  33.659  10.893
35032W        W 7358  44.431   1.477  13.837
35033W        W 7359  22.960  11.340   3.709
35034W        W 7360  33.992  16.092  13.997
35035W        W 7361  43.243  21.062  10.999
35036W        W 7362  29.141  16.098  13.518
35037W        W 7363   4.632  36.284  11.156
35038W        W 7364  18.890  22.581  11.085
35039W        W 7365  17.246  32.674   0.270
35040W        W 7366  42.076  33.338   2.700
35041W        W 7367  28.943  39.832   3.958
35042W        W 7368  37.561  40.562  13.514
35043W        W 7369   5.041   6.150   3.740
35044W        W 7370  44.778  31.387  11.141
35045W        W 7371   4.440  26.827  12.931
35046W        W 7372  16.167  36.283   3.702
35047W        W 7373   3.909  39.866   3.632
35048W        W 7374  38.137  20.667   3.153
35049W        W 7375   0.868  12.170  12.103
35050W        W 7376  43.354  22.716   2.395
35051W        W 7377   5.073   2.367   2.192
35052W        W 7378  29.137  26.674   4.228
35053W        W 7379  18.313  19.205   0.225
35054W        W 7380  32.052  26.063  11.218
35055W        W 7381  14.343   7.261   2.338
35056W        W 7382  27.750  16.103  14.103
35057W        W 7383   3.451  24.551   0.844
35058W        W 7384  40.166  32.049   4.555
35059W        W 7385  35.042  44.987  10.951
35060W        W 7386   6.611  32.491  10.455
35061W        W 7387  16.009  43.837   1.945
35062W        W 7388  36.351   1.048  12.145
35063W        W 7389  12.814  25.181   2.584
35064W        W 7390   3.310   0.757  12.855
35065W        W 7391  41.433  38.066  14.399
35066W        W 7392  10.079  37.336   4.693
35067W        W 7393  21.179  10.656  14.027
35068W        W 7394  10.567  15.667   4.675
35069W        W 7395  18.118   2.321   3.132
35070W        W 7396   3.337  42.213  11.591
35071W        W 7397  14.132   7.282   3.313
35072W        W 7398   7.343   5.258  11.179
35073W        W 7399   9.766   2.699   2.227
35074W        W 7400   1.337  11.584   2.039
35075W        W 7401  39.423  12.656  14.970
35076W        W 7402  39.499  40.497  10.601
35077W        W 7403  20.116  44.300  11.539
35078W        W 7404  37.069   1.781   2.698
35079W        W 7405  42.352  38.264   0.784
35080W        W 7406  15.254   1.508  14.979
35081W        W 7407  20.993  44.942  11.075
35082W        W 7408  35.295  28.746  12.074
35083W        W 7409   8.595   6.247   2.257
35084W        W 7410   3.875  19.276  12.486
35085W        W 7411   5.297   0.315  12.646
35086W        W 7412   3.743  22.036   3.854
35087W        W 7413  21.321  11.158  11.156
35088W        W 7414  21.340  31.134  13.932
35089W        W 7415  22.001  25.367  12.184
35090W        W 7416  30.705  18.262   0.910
35091W        W 7417  18.295   4.915  13.531
35092W        W 7418  14.718  10.120   4.270
35093W        W 7419  44.354  30.159  14.988
35094W        W 7420  43.809  14.686  11.648
35095W        W 7421   8.718  42.757  14.006
35096W        W 7422  22.933  16.744   3.267
35097W        W 7423   4.792  29.591  13.466
35098W        W 7424   2.332   0.846   3.518
35099W        W 7425  20.770  36.091   0.251
35100W        W 7426  12.955  42.916  10.402
35101W        W 7427  14.370  26.081   0.325
35102W        W 7428  43.478  39.826   1.432
35103W        W 7429  33.634  19.858   1.365
35104W        W 7430  21.802  44.928  12.996
35105W        W 7431  28.020   5.617  13.975
35106W        W 7432  43.331  20.944   0.210
35107W        W 7433  42.420   9.593  14.300
35108W        W 7434  41.760  35.534   4.997
35109W        W 7435  27.732  37.861   2.647
35110W        W 7436   4.292   7.923   1.928
35111W        W 7437  10.237  41.969   0.237
35112W        W 7438   8.262  28.316  11.879
35113W        W 7439  15.253  38.784  11.594
35114W        W 7440  10.944   5.337   0.894
35115W        W 7441   8.878  25.271   3.467
35116W        W 7442  14.346   6.366  12.939
35117W        W 7443  20.545  15.051  12.627
35118W        W 7444   0.406   2.247   1.471
35119W        W 7445  36.907  40.233  12.518
35120W        W 7446  21.234  42.395   3.798
35121W        W 7447  20.685  18.851  13.906
35122W        W 7448  44.920   4.133  11.025
35123W        W 7449  41.561  32.520   2.343
35124W        W 7450  13.375  41.831  13.944
35125W        W 7451  27.621  15.133   3.864
35126W        W 7452  36.842  29.250  12.405
35127W        W 7453  13.690  21.533   4.827
35128W        W 7454   9.985  13.479   2.095
35129W        W 7455   1.996  22.301  10.495
35130W        W 7456  21.524  28.025   2.277
35131W        W 7457  38.416  35.630   1.357
35132W        W 7458  25.788   1.354   4.129
35133W        W 7459  31.429   9.750   4.147
35134W        W 7460  22.321  13.199  11.968
35135W        W 7461  32.829  21.685  12.891
35136W        W 7462  30.971   0.861   2.650
35137W        W 7463  12.319  29.138   0.855
35138W        W 7464   6.309  32.692   2.930
35139W        W 7465  12.106  24.728  13.541
35140W        W 7466  23.764  28.126   4.319
35141W        W 7467   1.779   6.216   2.618
35142W        W 7468  42.182  26.054   2.323
35143W        W 7469  42.027  37.273   3.568
35144W        W 7470   9.511  11.381  10.702
35145W        W 7471  30.976   2.221  12.518
35146W        W 7472  12.399  26.088  10.612
35147W        W 7473   5.685  22.106  14.892
35148W        W 7474  11.365  42.329  13.402
35149W        W 7475  14.667  39.007  12.872
35150W        W 7476  20.680  39.454  12.087
35151W        W 7477  22.077  25.513  12.980
35152W        W 7478  26.163  36.921  10.966
35153W        W 7479  28.923   5.446   2.768
35154W        W 7480  36.629  42.018  14.414
35155W        W 7481  27.913  32.383   2.717
35156W        W 7482  26.635  19.836  12.473
35157W        W 7483   3.631  12.428   2.789
35158W        W 7484  40.959  15.910   0.410
35159W        W 7485  29.658  29.466  14.790
35160W        W 7486  38.378  20.067   4.266
35161W        W 7487  18.806  33.120  10.456
35162W        W 7488  20.021  19.604   2.839
35163W        W 7489  31.030  35.082   3.287
35164W        W 7490   5.241  10.730   1.971
35165W        W 7491  25.825  22.728  12.181
35166W        W 7492  21.116   4.508  13.705
35167W        W 7493  10.730  23.254  12.461
35168W        W 7494  35.019  14.370  11.469
35169W        W 7495  23.913   6.935   2.748
35170W        W 7496  14.018  11.690   3.646
35171W        W 7497  32.018   1.396   4.386
35172W        W 7498  18.532   2.348   2.795
35173W        W 7499   7.431   9.294  13.114
35174W        W 7500  39.464  42.069   4.504
35175W        W 7501  15.633  34.677   2.296
35176W        W 7502  15.961  34.890   1.451
35177W        W 7503  13.304   8.694   0.214
35178W        W 7504   7.203  10.113   2.269
35179W        W 7505  10.404   2.595  12.438
35180W        W 7506  36.186  23.044   1.764
35181W        W 7507   9.433  32.667   2.879
35182W        W 7508  14.644  17.148  13.786
35183W        W 7509  17.897  19.880   3.660
35184W        W 7510  33.356  21.022   2.908
35185W        W 7511  19.551  21.549   0.523
35186W        W 7512  26.068  22.290   3.807
35187W        W 7513  16.030   0.760  12.166
35188W        W 7514  36.073  44.155   0.725
35189W        W 7515  44.080  42.452  11.056
35190W        W 7516  15.860  24.549  11.127
35191W        W 7517  39.972  19.079   4.828
35192W        W 7518  17.456  29.483   2.252
35193W        W 7519   2.762   6.469  11.603
35194W        W 7520  32.798   3.442   0.966
35195W        W 7521  24.685  11.738   4.462
35196W        W 7522  29.162  29.518  13.948
35197W        W 7523  11.620  26.203   0.788
35198W        W 7524  35.954  29.873   4.374
35199W        W 7525  34.513  27.393   1.101
35200W        W 7526  21.589  43.443  12.588
35201W        W 7527   7.024  12.398  12.039
35202W        W 7528   6.897   1.772   4.470
35203W        W 7529  40.858   2.975   2.943
35204W        W 7530  44.011  18.880   3.128
35205W        W 7531  29.771  11.796  12.935
35206W        W 7532  15.251  16.636  13.620
35207W        W 7533  17.337  14.813   4.724
35208W        W 7534  17.663  22.829  13.617
35209W        W 7535  20.172   9.546  12.481
35210W        W 7536  26.691   9.419   4.246
35211W        W 7537  29.558  20.843  11.637
35212W        W 7538  23.509  13.806   0.781
35213W        W 7539   0.387  15.948   0.944
35214W        W 7540   2.309   5.487   3.224
35215W        W 7541  31.015  35.614   4.584
35216W        W 7542  13.143  23.720  12.087
35217W        W 7543  20.603  24.646   3.706
35218W        W 7544  32.906  43.235   4.777
35219W        W 7545  25.166  13.813   3.339
35220W        W 7546  30.677   5.403   3.362
35221W        W 7547  16.869  43.975  11.118
35222W        W 7548  44.319  29.860   3.524
35223W        W 7549   5.347  44.205   1.983
35224W        W 7550   0.037   5.369  13.267
35225W        W 7551  19.571  27.895   2.819
35226W        W 7552  34.115  44.825   2.187
35227W        W 7553  39.968  21.491  14.803
35228W        W 7554  34.554  27.869   1.382
35229W        W 7555  39.035  34.166  10.932
35230W        W 7556  37.969  38.970   4.887
35231W        W 7557  21.099  30.861   2.291
35232W        W 7558  33.532  22.777  14.071
35233W        W 7559   6.113   0.249   2.939
35234W        W 7560  38.377  43.655  14.903
35235W        W 7561  20.764  18.860   4.181
35236W        W 7562  32.880  36.156   0.711
35237W        W 7563  41.054   7.168  11.147
35238W        W 7564   1.446  28.836   1.223
35239W        W 7565  16.628   4.968   2.993
35240W        W 7566  21.185  44.784  11.591
35241W        W 7567  19.846  35.852   5.100
35242W        W 7568  28.108  12.055  14.930
35243W        W 7569  13.396  33.119   9.738
35244W        W 7570  35.801  26.627  13.487
35245W        W 7571   8.221   6.271   4.780
35246W        W 7572  44.874  44.531   2.779
35247W        W 7573   0.488  10.127   1.730
35248W        W 7574   2.214  23.955  11.581
35249W        W 7575   9.000   8.364  11.175
35250W        W 7576  37.833  35.887  11.618
35251W        W 7577  31.010   5.000   0.277
35252W        W 7578  36.282  40.442  14.081
35253W        W 7579  36.958  11.762   4.375
35254W        W 7580  22.970  44.842   0.734
35255W        W 7581  14.152  40.347   4.871
35256W        W 7582  39.965  44.131   2.271
35257W        W 7583  15.776  21.852   2.361
35258W        W 7584   9.367  28.985  13.469
35259W        W 7585  33.070  21.733   4.939
35260W        W 7586  27.796  21.123  12.520
35261W        W 7587  21.255  23.665   0.908
35262W        W 7588  16.151  30.084   3.624
35263W        W 7589  21.681  29.827   3.359
35264W        W 7590  40.862  21.604   0.247
35265W        W 7591  33.505  22.075   3.711
35266W        W 7592  22.924  33.331  11.132
35267W        W 7593  31.127  10.277   1.686
35268W        W 7594  43.059  38.847   1.791
35269W        W 7595  35.884  24.958   4.663
35270W        W 7596  27.727   5.583   3.230
35271W        W 7597  44.872   2.404   5.395
35272W        W 7598  11.281  23.498  14.712
35273W        W 7599  13.595  20.646  11.119
35274W        W 7600   8.002   3.525   0.365
35275W        W 7601  13.586  41.290   1.454
35276W        W 7602  26.946   0.704   0.292
35277W        W 7603   6.249   5.829  10.951
35278W        W 7604  29.421  11.883   3.759
35279W        W 7605  22.542  23.033  10.317
35280W        W 7606   7.449  27.442  11.507
35281W        W 7607  30.009   9.522  10.704
35282W        W 7608  19.087  44.395  10.557
35283W        W 7609  42.533  33.500   2.881
35284W        W 7610  32.569  31.565  14.824
35285W        W 7611  39.411  29.378  13.410
35286W        W 7612  16.175   9.644   2.216
35287W        W 7613   0.740   9.427  14.366
35288W        W 7614  14.439  27.980   2.180
35289W        W 7615  36.064  26.432  14.847
35290W        W 7616  44.565  35.299   1.867
35291W        W 7617  26.140  37.905   4.646
35292W        W 7618  34.621  39.110   3.263
35293W        W 7619  11.450  17.984  14.312
35294W        W 7620  20.310  43.871   0.726
35295W        W 7621   2.344  44.073  11.103
35296W        W 7622  14.170  34.307   3.745
35297W        W 7623  14.461  17.691   0.418
35298W        W 7624  44.246  22.514   2.688
35299W        W 7625  22.029   3.438  13.471
35300W        W 7626  44.937  11.754   2.810
35301W        W 7627  29.769  27.153  13.803
35302W        W 7628  31.377   1.709  10.476
35303W        W 7629  25.721  26.144  13.995
35304W        W 7630  11.864  38.959  13.062
35305W        W 7631   9.770  29.541  14.775
35306W        W 7632   7.260   2.519  14.829
35307W        W 7633  16.144  34.188  14.751
35308W        W 7634  37.371  12.168  11.834
35309W        W 7635   3.325  27.335  11.848
35310W        W 7636  25.721   8.424   2.748
35311W        W 7637  19.060   4.410  12.281
35312W        W 7638  38.358  19.099   1.352
35313W        W 7639  16.778  27.404  14.135
35314W        W 7640  16.678   3.961  13.025
35315W        W 7641   6.037   1.570   2.786
35316W        W 7642  22.384  41.777   0.440
35317W        W 7643  30.056  20.336   4.592
35318W        W 7644  32.333   0.036   1.311
35319W        W 7645   0.509   1.448   3.572
35320W        W 7646   4.880   8.305  14.412
35321W        W 7647  27.052   3.820   1.413
35322W        W 7648  23.624  29.475  10.464
35323W        W 7649  11.073  42.487  12.980
35324W        W 7650  15.768  28.508   3.323
35325W        W 7651  38.394   0.512   4.618
35326W        W 7652  14.492  26.009   9.841
35327W        W 7653   8.939  13.570   1.208
35328W        W 7654  21.054  34.890  14.840
35329W        W 7655   9.823   5.403   4.001
35330W        W 7656  43.278  43.411  13.860
35331W        W 7657  14.616  10.152   3.351
35332W        W 7658  15.553  33.077   2.777
35333W        W 7659   0.330  37.071   3.188
35334W        W 7660  10.847   7.435   3.642
35335W        W 7661  37.673  12.611  11.970
35336W        W 7662  27.969   5.505   1.261
35337W        W 7663   9.684  11.427   2.312
35338W        W 7664  33.138  28.136   3.076
35339W        W 7665  19.158   9.309   3.933
35340W        W 7666  42.392   0.012  12.077
35341W        W 7667  38.360   0.763   4.169
35342W        W 7668  34.877   2.358   1.160
35343W        W 7669   7.880  27.519  11.212
35344W        W 7670  10.188  37.060  12.993
35345W        W 7671  20.768   3.633  13.220
35346W        W 7672  38.572  27.933   1.897
35347W        W 7673  18.734   0.215   2.996
35348W        W 7674   8.333   0.644   0.214
35349W        W 7675  35.008  27.947  14.684
35350W        W 7676  33.320  10.647  11.450
35351W        W 7677  22.668  21.169  13.842
35352W        W 7678  28.788  15.490  11.483
35353W        W 7679  23.640  13.386  13.298
35354W        W 7680  33.060  27.013   2.805
35355W        W 7681   4.121   0.270   2.675
35356W        W 7682  34.069  12.432   0.253
35357W        W 7683  22.247   4.083  13.942
35358W        W 7684  41.258   4.731  13.430
35359W        W 7685  31.660  16.758  13.989
35360W        W 7686  20.989  43.729  11.398
35361W        W 7687  40.712  35.087  13.448
35362W        W 7688  44.005   0.592  11.841
35363W        W 7689  14.100   1.458   3.411
35364W        W 7690  25.964  18.133  12.559
35365W        W 7691   6.344  21.698   0.221
35366W        W 7692   8.675   2.143  12.768
35367W        W 7693   0.069  13.632   3.210
35368W        W 7694   6.158  19.017   4.503
35369W        W 7695  32.041  13.659   4.424
35370W        W 7696  13.643  33.015   3.630
35371W        W 7697  19.779  38.711  10.452
35372W        W 7698  44.483  22.505   3.656
35373W        W 7699  37.098  13.085  13.491
35374W        W 7700   5.578  35.977   4.661
35375W        W 7701  39.511  21.611   0.549
35376W        W 7702  40.403  35.213  11.883
35377W        W 7703  18.646   9.207   0.392
35378W        W 7704  30.571   5.144  13.798
35379W        W 7705  38.311  27.996  10.434
35380W        W 7706  15.132  43.551   1.410
35381W        W 7707  12.479  16.662   0.187
35382W        W 7708   2.882   6.628  12.846
35383W        W 7709  42.591  33.059   3.764
35384W        W 7710   9.619  26.702  14.293
35385W        W 7711   5.665  32.014   4.657
35386W        W 7712   3.258  23.261  14.247
35387W        W 7713  13.887  20.742  10.705
35388W        W 7714  18.551  33.012  12.522
35389W        W 7715   1.755  24.238  13.175
35390W        W 7716  40.396  42.772   2.824
35391W        W 7717  39.231  42.315  11.071
35392W        W 7718  41.525  42.697   0.775
35393W        W 7719  37.061  42.797  12.859
35394W        W 7720  11.650  33.624   1.329
35395W        W 7721  15.499   9.177  11.419
35396W        W 7722  26.605   2.412  11.444
35397W        W 7723  27.012   5.330   3.914
35398W        W 7724  18.152  23.029   1.393
35399W        W 7725  31.025  35.107  14.831
35400W        W 7726  27.478  16.257   1.363
35401W        W 7727  21.165  40.006  14.099
35402W        W 7728  28.042  13.782  14.082
35403W        W 7729  11.051  42.864  14.005
35404W        W 7730  35.788  35.921  11.838
35405W        W 7731  26.423  37.351  11.904
35406W        W 7732  36.418  42.976  10.607
35407W        W 7733  41.266  41.562  13.657
35408W        W 7734   9.766  11.953  12.104
35409W        W 7735   3.329  24.662  10.895
35410W        W 7736   2.730  40.935   4.510
35411W        W 7737  24.093  34.511  14.094
35412W        W 7738   2.800  41.811   4.299
35413W        W 7739  40.930   9.480  13.381
35414W        W 7740   7.835  43.473  13.779
35415W        W 7741  30.011   0.353  10.637
35416W        W 7742  21.542  44.732   0.255
35417W        W 7743   0.207  36.469   0.884
35418W        W 7744   8.724  11.536   1.274
35419W        W 7745  36.888  10.350  14.400
35420W        W 7746  21.259   3.035   1.817
35421W        W 7747  32.676   0.751   0.297
35422W        W 7748  10.620  16.424  12.081
35423W        W 7749  25.492  24.498   4.462
35424W        W 7750   3.116  19.781   1.911
35425W        W 7751  11.775  18.809  11.943
35426W        W 7752  35.700  17.187   1.694
35427W        W 7753  28.824  35.682  13.056
35428W        W 7754  11.183  10.803  12.431
35429W        W 7755   6.359   6.232  10.151
35430W        W 7756   6.190  32.215   2.190
35431W        W 7757  15.780  13.535  12.540
35432W        W 7758  40.892  40.441   3.032
35433W        W 7759  27.727  24.269  11.510
35434W        W 7760  16.408   7.295  13.010
35435W        W 7761  26.593  29.473   1.968
35436W        W 7762  33.378  20.504   2.955
35437W        W 7763  29.738  32.921  14.502
35438W        W 7764  14.666  38.882  14.433
35439W        W 7765  39.524  19.021  13.312
35440W        W 7766  44.970  29.374  14.871
35441W        W 7767  43.237   4.775  13.316
35442W        W 7768  34.926  28.906   3.945
35443W        W 7769  40.267   4.788  10.428
35444W        W 7770  18.271  14.708   2.124
35445W        W 7771   4.441  41.444   4.696
35446W        W 7772  34.948  22.167   0.873
35447W        W 7773  27.049  30.891  12.143
35448W        W 7774  20.262   4.177  14.415
35449W        W 7775  26.047  19.050  13.988
35450W        W 7776   6.622  15.731   3.109
35451W        W 7777  24.051  39.801  13.002
35452W        W 7778  39.233  24.255   2.810
35453W        W 7779  39.072  41.309  14.958
35454W        W 7780  12.134  19.825   1.296
35455W        W 7781  38.996   4.196  13.450
35456W        W 7782  11.767   7.917  13.751
35457W        W 7783  27.133   4.740  11.808
35458W        W 7784  39.572  14.415   3.696
35459W        W 7785  19.691  35.372   0.839
35460W        W 7786  39.445  23.727   1.331
35461W        W 7787  39.390  44.378   0.950
35462W        W 7788  18.039   5.248   4.181
35463W        W 7789   3.780  42.556   1.159
35464W        W 7790  18.598  33.400   3.601
35465W        W 7791   8.309  23.041   0.119
35466W        W 7792  17.099  23.378   9.977
35467W        W 7793  44.788  27.619   4.189
35468W        W 7794  36.861  32.029  14.250
35469W        W 7795  21.339  34.467  14.936
35470W        W 7796  28.506   0.364  10.921
35471W        W 7797  35.672  41.979   1.263
35472W        W 7798   7.385  30.106   2.318
35473W        W 7799  21.912   3.312  11.008
35474W        W 7800  12.637  14.365   2.361
35475W        W 7801  25.600  13.331  11.514
35476W        W 7802  32.144  12.685  14.992
35477W        W 7803  26.464  21.127  12.357
35478W        W 7804   9.556  15.000   4.578
35479W        W 7805  37.210  39.918  11.502
35480W        W 7806  16.621  29.976   3.842
35481W        W 7807   7.812  42.751   0.828
35482W        W 7808  21.656  22.975   2.265
35483W        W 7809  21.956  38.799  13.823
35484W        W 7810   8.775  39.804   1.893
35485W        W 7811  35.973  16.150  10.691
35486W        W 7812  41.369  26.526  10.747
35487W        W 7813  42.855  38.145   2.204
35488W        W 7814  34.962  25.594   3.670
35489W        W 7815  33.749  15.774   4.567
35490W        W 7816  42.676  19.252   2.720
35491W        W 7817   7.739   4.210  14.633
35492W        W 7818   8.691  32.018  12.507
35493W        W 7819  30.223   3.446   3.599
35494W        W 7820  28.563  17.545   0.545
35495W        W 7821  11.133  43.218   3.347
35496W        W 7822  19.541  12.666  10.701
35497W        W 7823   1.839  33.637   3.209
35498W        W 7824  27.901   3.128   4.060
35499W        W 7825  30.880   4.192   3.092
35500W        W 7826  18.775  15.980  11.408
35501W        W 7827  44.031  30.928   4.978
35502W        W 7828  38.443  10.354   2.299
35503W        W 7829  40.301  44.263   5.022
35504W        W 7830  13.575  28.607  13.755
35505W        W 7831  11.270  44.201   3.099
35506W        W 7832  43.011   0.215   3.398
35507W        W 7833  38.031  13.902  11.733
35508W        W 7834  24.706  27.925  11.192
35509W        W 7835   8.359  35.920   3.320
35510W        W 7836  32.884  43.378  10.752
35511W        W 7837  14.658  19.319   1.391
35512W        W 7838  34.884  41.480  13.404
35513W        W 7839  30.970   2.354   4.508
35514W        W 7840   2.818  19.280   3.903
35515W        W 7841  10.603  27.587  12.006
35516W        W 7842  42.263  35.731  14.342
35517W        W 7843  26.201  10.222  14.030
35518W        W 7844  10.289  33.085  12.861
35519W        W 7845  25.541   5.925  13.350
35520W        W 7846   9.925  19.834  14.808
35521W        W 7847  31.330  39.730  14.435
35522W        W 7848  17.266  26.653  12.103
35523W        W 7849  37.243  17.855  12.430
35524W        W 7850   7.123  12.595  11.544
35525W        W 7851  21.003   4.913  11.105
35526W        W 7852  10.170  14.056   0.716
35527W        W 7853  38.760   1.472   4.171
35528W        W 7854  27.469  12.654   0.944
35529W        W 7855  41.034   0.913  10.663
35530W        W 7856  10.750  27.990   0.231
35531W        W 7857  18.043  16.837  12.009
35532W        W 7858  41.898  44.078   3.243
35533W        W 7859   2.831  27.944  11.611
35534W        W 7860  31.787  40.366  13.721
35535W        W 7861  26.847   3.900   4.515
35536W        W 7862  34.647  44.372  13.023
35537W        W 7863  10.165   8.910   0.579
35538W        W 7864  37.478  42.541   1.605
35539W        W 7865  26.990  39.284   0.818
35540W        W 7866  24.052  29.654   2.337
35541W        W 7867   9.221  15.371   3.208
35542W        W 7868  12.144  32.519   3.605
35543W        W 7869  37.592  13.904  11.481
35544W        W 7870  38.568  29.088   4.827
35545W        W 7871  20.022  26.031   2.591
35546W        W 7872  24.612  11.827  11.092
35547W        W 7873   5.973  40.910   3.263
35548W        W 7874  29.849  19.113   1.914
35549W        W 7875  14.565   1.700   1.347
35550W        W 7876   4.151  26.259  14.358
35551W        W 7877  22.964  18.911   4.127
35552W        W 7878  25.560  39.557  12.076
35553W        W 7879   6.404  42.014  13.944
35554W        W 7880  39.606  14.323   2.927
35555W        W 7881  22.013  19.951   4.492
35556W        W 7882  11.280  41.236   4.840
35557W        W 7883  36.808  32.236  13.275
35558W        W 7884  32.247  34.315   4.694
35559W        W 7885   5.700  30.878  12.610
35560W        W 7886   6.779  16.593  13.384
35561W        W 7887  37.122  39.042  12.619
35562W        W 7888  20.776   9.380  14.941
35563W        W 7889  25.259  30.971  11.572
35564W        W 7890  29.030  16.640   1.859
35565W        W 7891  38.579   5.411  14.985
35566W        W 7892   9.316   8.364   2.361
35567W        W 7893   2.888  20.779   0.457
35568W        W 7894  27.990   9.620   1.003
35569W        W 7895  42.320   6.941   1.219
35570W        W 7896   3.301  18.509  10.495
35571W        W 7897  39.357  32.529   3.074
35572W        W 7898  16.674   7.694  12.804
35573W        W 7899  34.324  31.362  13.331
35574W        W 7900   5.120  15.756   1.868
35575W        W 7901  18.104  21.701   4.648
35576W        W 7902   6.223  14.158  11.556
35577W        W 7903  29.910  37.667   4.369
35578W        W 7904  19.937   5.344  11.625
35579W        W 7905  25.909  35.877   1.474
35580W        W 7906  33.889   3.000  12.022
35581W        W 7907  24.902  44.334  11.685
35582W        W 7908  10.230   4.301   4.589
35583W        W 7909  40.923  39.039   2.791
35584W        W 7910  35.189   3.954  12.054
35585W        W 7911  12.832   2.956  13.789
35586W        W 7912  18.308  42.549   0.825
35587W        W 7913  42.752  43.327  14.910
35588W        W 7914  33.659  22.148   2.784
35589W        W 7915   8.729  36.332  10.634
35590W        W 7916  18.526   8.529  11.780
35591W        W 7917  17.861  32.511  14.003
35592W        W 7918  18.217  25.287   3.714
35593W        W 7919  20.259  37.816   1.485
35594W        W 7920   4.354  42.999   4.695
35595W        W 7921  42.003  11.684  11.220
35596W        W 7922  26.627  17.693   4.462
35597W        W 7923  13.086  34.835  12.941
35598W        W 7924  26.938  10.673  11.063
35599W        W 7925  42.498  34.212  12.487
35600W        W 7926  16.334  12.204  14.396
35601W        W 7927  41.398  37.856   4.210
35602W        W 7928  34.971  36.097  10.650
35603W        W 7929  40.271  41.973  11.161
35604W        W 7930  41.734  42.368  12.836
35605W        W 7931  41.410  30.473   2.056
35606W        W 7932  31.398  17.370  13.313
35607W        W 7933  26.690  24.018   0.491
35608W        W 7934   0.530   4.252  14.942
35609W        W 7935   3.069  37.497  14.917
35610W        W 7936   6.795  35.578  14.743
35611W        W 7937  20.949  15.433   4.968
35612W        W 7938  25.876  29.116  13.063
35613W        W 7939  11.598  16.080  11.097
35614W        W 7940  12.100  25.232   0.904
35615W        W 7941  23.086  17.490  11.090
35616W        W 7942  29.578  37.953  14.298
35617W        W 7943  19.624   0.438  12.941
35618W        W 7944  38.777  44.492   9.972
35619W        W 7945  20.262  35.125  14.329
35620W        W 7946   6.719   7.284   4.345
35621W        W 7947  21.120  21.758  12.099
35622W        W 7948  39.226  18.308   1.870
35623W        W 7949  27.478   2.061  14.340
35624W        W 7950  22.023  32.134   3.238
35625W        W 7951   9.771  40.765  11.577
35626W        W 7952  21.958  12.127   3.976
35627W        W 7953  26.198  14.892   2.906
35628W        W 7954  34.627  20.666  14.533
35629W        W 7955   7.782  36.659  12.821
35630W        W 7956  12.858  29.481  11.562
35631W        W 7957  18.149  27.642   0.530
35632W        W 7958  18.635  34.815  11.800
35633W        W 7959  33.587  44.837  12.509
35634W        W 7960  27.218  10.188   4.980
35635W        W 7961  37.361   5.953   2.173
35636W        W 7962  44.635  41.829   4.571
35637W        W 7963   2.015   0.951   4.367
35638W        W 7964  36.998  25.340   2.892
35639W        W 7965  24.768  32.010   1.445
35640W        W 7966   9.562  20.509  11.188
35641W        W 7967  30.658  39.311  10.720
35642W        W 7968  24.857   4.662   9.938
35643W        W 7969   5.429  36.046  12.011
35644W        W 7970  10.952  28.448  11.569
35645W        W 7971  13.829  36.051   0.901
35646W        W 7972  33.959  32.657   3.253
35647W        W 7973  25.444  37.076  12.982
35648W        W 7974  27.637  18.302   3.293
35649W        W 7975  31.882  22.718   4.908
35650W        W 7976  37.734  22.522   0.288
35651W        W 7977   3.425  42.728  13.635
35652W        W 7978  16.532  44.860   1.327
35653W        W 7979  23.102  16.816  14.985
35654W        W 7980   0.538  21.067   2.778
35655W        W 7981  24.310  13.893  11.371
35656W        W 7982  27.268  22.570  11.518
35657W        W 7983  38.888  25.798  10.673
35658W        W 7984  21.948  29.356   4.250
35659W        W 7985   9.630  12.592   0.009
35660W        W 7986  27.158   8.007  13.812
35661W        W 7987  13.804   7.767  12.246
35662W        W 7988  32.234   1.298  10.996
35663W        W 7989  22.629   4.850   0.729
35664W        W 7990  14.904   1.776  11.192
35665W        W 7991  17.223  25.416   0.480
35666W        W 7992  31.654  37.856  11.892
35667W        W 7993  12.561  43.917   0.079
35668W        W 7994   1.048   8.073   3.689
35669W        W 7995  33.658  22.645  11.706
35670W        W 7996  23.517  10.241  12.400
35671W        W 7997  24.992  25.229   2.190
35672W        W 7998  28.445  29.867  14.319
35673W        W 7999  25.995   0.525  12.975
35674W        W 8000   3.870  15.338   4.285
35675W        W 8001  11.875  28.414  10.544
35676W        W 8002  25.861  15.615   1.936
35677W        W 8003  28.040  20.057   3.707
35678W        W 8004  25.827  37.249  12.513
35679W        W 8005  15.249  22.513  10.949
35680W        W 8006  23.005  34.863   0.212
35681W        W 8007   7.649  43.382   0.425
35682W        W 8008  36.494  10.677   0.291
35683W        W 8009  15.013  33.842  11.423
35684W        W 8010   5.429  18.536   1.769
35685W        W 8011  17.544  36.569   2.275
35686W        W 8012  18.640  26.121  11.141
35687W        W 8013  37.301   1.444  11.127
35688W        W 8014  44.281   3.007  10.956
35689W        W 8015  21.775  29.462  14.354
35690W        W 8016  41.570  33.674  13.029
35691W        W 8017  30.590  39.059   3.257
35692W        W 8018  21.614   9.333   3.331
35693W        W 8019  31.555  23.969  12.999
35694W        W 8020  37.512  44.755   1.889
35695W        W 8021  20.839   6.141   0.994
35696W        W 8022  44.021  16.414   4.935
35697W        W 8023  30.514  31.458  11.976
35698W        W 8024  11.608  14.914  13.271
35699W        W 8025  12.125  26.389  11.495
35700W        W 8026  36.375  16.865   2.858
35701W        W 8027  31.150  17.728   0.931
35702W        W 8028  28.456  29.157   1.902
35703W        W 8029  38.893  38.510  10.489
35704W        W 8030  43.410   7.682   3.629
35705W        W 8031  15.806   1.794   1.830
35706W        W 8032  39.305   5.849  10.698
35707W        W 8033  43.402   6.234  11.673
35708W        W 8034  41.775  40.388   1.188
35709W        W 8035  31.566  21.056   2.640
35710W        W 8036  37.578  27.988   2.760
35711W        W 8037  37.007   0.882  13.775
35712W        W 8038  25.472  27.128   3.757
35713W        W 8039  25.009  33.513  12.474
35714W        W 8040  10.715  40.804  11.221
35715W        W 8041  20.183  39.639  13.410
35716W        W 8042  28.007  12.273  11.744
35717W        W 8043  23.503  40.825   2.922
35718W        W 8044  27.582   9.835  14.770
35719W        W 8045  24.345  31.591  13.289
35720W        W 8046  43.730   7.553  14.510
35721W        W 8047  14.872  25.252  13.606
35722W        W 8048  14.609   1.890   2.827
35723W        W 8049   8.325  13.322   1.916
35724W        W 8050  41.387  44.014   4.613
35725W        W 8051  38.986  22.302   1.934
35726W        W 8052   2.180  21.611   9.943
35727W        W 8053  30.981   1.342  14.882
35728W        W 8054  11.591  11.791  11.095
35729W        W 8055  38.657   4.700  14.345
35730W        W 8056  29.989  24.345  13.772
35731W        W 8057   5.846  16.220   4.062
35732W        W 8058  34.529  25.804   4.766
35733W        W 8059  13.732  26.217  14.003
35734W        W 8060  21.818   8.008   0.778
35735W        W 8061  18.417  26.976   3.940
35736W        W 8062  38.885  37.034   4.389
35737W        W 8063   6.545  28.117  12.908
35738W        W 8064   6.273  13.779   1.546
35739W        W 8065  32.754   2.683   1.895
35740W        W 8066  29.859  18.988  10.653
35741W        W 8067  30.461   1.689   1.865
35742W        W 8068  41.329  12.281  12.185
35743W        W 8069  22.631  15.259   2.467
35744W        W 8070  40.431  28.922   4.567
35745W        W 8071  41.570  42.766   4.320
35746W        W 8072  34.720  43.665   1.465
35747W        W 8073  21.525  12.256   2.254
35748W        W 8074  33.690   9.573   3.403
35749W        W 8075  40.924  29.953   0.217
35750W        W 8076  41.042  23.033  11.654
35751W        W 8077  41.876  11.194  12.439
35752W        W 8078  33.971  13.962   0.391
35753W        W 8079  41.671  40.322  13.428
35754W        W 8080  15.776   6.698   3.599
35755W        W 8081  28.941  32.668  14.492
35756W        W 8082   2.434   0.495   2.203
35757W        W 8083  39.132   2.899  12.976
35758W        W 8084  12.120  36.468  11.584
35759W        W 8085  21.382  36.783   5.724
35760W        W 8086  28.531  32.541   0.745
35761W        W 8087  26.256  15.684   0.199
35762W        W 8088  29.728  33.101   4.381
35763W        W 8089  10.617   5.615  11.644
35764W        W 8090  37.387   2.952   4.665
35765W        W 8091  43.080  10.357   4.074
35766W        W 8092  17.836  18.191   0.967
35767W        W 8093  20.194  31.431   0.215
35768W        W 8094  11.279  12.325   3.743
35769W        W 8095  33.622  23.804  10.045
35770W        W 8096  30.198  28.147  14.521
35771W        W 8097  15.064  22.694  14.374
35772W        W 8098  18.256  22.014   1.186
35773W        W 8099   4.366  15.280  10.436
35774W        W 8100  22.622  25.237   2.833
35775W        W 8101  37.159  44.511  13.236
35776W        W 8102   1.514   7.509  12.566
35777W        W 8103  44.587  33.134   3.276
35778W        W 8104   2.217   6.693   0.377
35779W        W 8105  11.553   8.097  13.117
35780W        W 8106  12.756  33.986  14.906
35781W        W 8107  30.514   8.816  13.345
35782W        W 8108   7.640  11.108  12.223
35783W        W 8109  29.871  37.350   0.520
35784W        W 8110  27.021   8.737   2.810
35785W        W 8111  24.947  39.027  13.976
35786W        W 8112  24.169  29.801   3.644
35787W        W 8113  10.413  11.338  10.019
35788W        W 8114   0.918  29.681  12.866
35789W        W 8115  33.786  37.372  11.873
35790W        W 8116  21.981  41.066   3.778
35791W        W 8117  16.195   5.873   2.813
35792W        W 8118   9.920  22.166   2.493
35793W        W 8119  39.320  20.576  12.369
35794W        W 8120  39.567  24.707   2.787
35795W        W 8121  28.081  20.045  11.591
35796W        W 8122  18.800  31.806   1.911
35797W        W 8123  26.184  19.597   2.366
35798W        W 8124  42.815  33.136   0.589
35799W        W 8125  20.975  17.314   0.291
35800W        W 8126   7.867  13.329   4.700
35801W        W 8127  37.053  39.066  11.261
35802W        W 8128   2.212  31.834   2.465
35803W        W 8129   3.495   0.375   1.330
35804W        W 8130  12.698  12.566   4.976
35805W        W 8131  30.491   6.819   0.734
35806W        W 8132  16.070  44.229  12.027
35807W        W 8133  40.594  33.882   3.114
35808W        W 8134   1.987  23.586   2.255
35809W        W 8135  38.264  13.100  11.950
35810W        W 8136  41.394  41.477   1.843
35811W        W 8137  39.894  43.360  14.130
35812W        W 8138  42.876   0.197   4.815
35813W        W 8139   0.844  13.450  11.627
35814W        W 8140  21.136  17.369   2.503
35815W        W 8141  29.247  36.290  14.050
35816W        W 8142   2.653  44.874  10.674
35817W        W 8143  12.438  24.009  13.090
35818W        W 8144  36.661  10.627  13.078
35819W        W 8145  34.488  20.768   2.349
35820W        W 8146  32.890  42.315  13.089
35821W        W 8147  18.435  43.569  11.585
35822W        W 8148  14.051  24.036   4.112
35823W        W 8149  41.826   3.921   4.124
35824W        W 8150  11.401  11.834   3.637
35825W        W 8151  13.127  40.858  13.332
35826W        W 8152   2.979  42.983  13.571
35827W        W 8153  10.751   9.321  14.057
35828W        W 8154   5.469  44.241  11.650
35829W        W 8155  14.438  26.578   5.084
35830W        W 8156  11.779  10.827   1.823
35831W        W 8157  16.637   5.393  10.929
35832W        W 8158  14.058  20.641  12.576
35833W        W 8159  38.727  12.187  11.245
35834W        W 8160  19.958   6.708   2.572
35835W        W 8161  13.299  19.477   0.293
35836W        W 8162   7.150  23.990   3.187
35837W        W 8163   1.469  38.409  11.514
35838W        W 8164   8.154  31.522   0.599
35839W        W 8165   7.699   6.160   2.088
35840W        W 8166  27.014  28.581  11.955
35841W        W 8167  17.151  18.199  14.799
35842W        W 8168  15.207   5.192  14.361
35843W        W 8169  30.397  21.180   2.327
35844W        W 8170  18.284  37.054  12.954
35845W        W 8171  11.830   3.913  11.504
35846W        W 8172  39.963  33.901  14.081
35847W        W 8173   2.491   7.648  14.495
35848W        W 8174   8.549   1.072   0.734
35849W        W 8175   3.607   0.043  12.456
35850W        W 8176  35.514   0.706  14.822
35851W        W 8177  17.513   2.220   1.425
35852W        W 8178  35.644   3.975   3.069
35853W        W 8179  12.436  30.787   3.221
35854W        W 8180  19.561  16.591   4.608
35855W        W 8181  31.563  30.065   3.169
35856W        W 8182   5.644  16.343   2.281
35857W        W 8183  35.865  13.216  12.829
35858W        W 8184  23.739  34.936   0.784
35859W        W 8185  26.139  24.729   4.738
35860W        W 8186  36.490   6.302  10.331
35861W        W 8187  44.358  42.510  10.052
35862W        W 8188  40.464  37.508  14.467
35863W        W 8189  23.033  23.139  10.548
35864W        W 8190  19.608  10.689   4.546
35865W        W 8191  17.731  29.082   3.130
35866W        W 8192  32.548  12.685  14.340
35867W        W 8193   0.065  35.993   4.578
35868W        W 8194  15.207  44.644   0.276
35869W        W 8195   9.155  32.506  12.981
35870W        W 8196  29.091   1.326   1.448
35871W        W 8197  30.913  12.329   1.284
35872W        W 8198  34.338  14.714   4.583
35873W        W 8199  37.765  31.572  11.821
35874W        W 8200  28.995  28.197  10.732
35875W        W 8201  19.882  14.129   0.261
35876W        W 8202  22.549  13.232   2.449
35877W        W 8203  39.486  36.505   3.208
35878W        W 8204  19.150  24.926  13.357
35879W        W 8205  44.717  44.815  14.847
35880W        W 8206  14.390   7.759  10.934
35881W        W 8207  20.490   7.234   2.367
35882W        W 8208  16.013  14.199   4.050
35883W        W 8209  16.206  29.520  10.652
35884W        W 8210  26.957  33.942   2.000
35885W        W 8211  10.224  22.535  12.258
35886W        W 8212  13.352  44.685  11.454
35887W        W 8213  43.479  38.878   0.693
35888W        W 8214  39.438  42.040  12.533
35889W        W 8215  27.575  12.092   1.483
35890W        W 8216  33.390  10.419   3.807
35891W        W 8217   6.705  20.507  11.146
35892W        W 8218   6.661   2.570  11.390
35893W        W 8219  28.883  12.023  10.972
35894W        W 8220  36.064  28.997   3.864
35895W        W 8221  23.132  30.447  11.715
35896W        W 8222  20.862   5.680   2.335
35897W        W 8223  29.507   1.525   1.659
35898W        W 8224  11.664  25.699   3.112
35899W        W 8225  33.476  36.111  10.157
35900W        W 8226  42.189   1.923  14.265
35901W        W 8227   2.861  34.385   2.857
35902W        W 8228  34.750  34.188  11.841
35903W        W 8229  42.085  32.019   2.657
35904W        W 8230   3.096   3.903  14.057
35905W        W 8231  30.824  34.377   3.724
35906W        W 8232  12.290  21.727  14.508
35907W        W 8233  42.656  24.721   1.419
35908W        W 8234  32.473   4.982   3.691
35909W        W 8235   6.902   9.609   3.649
35910W        W 8236  29.379  40.594  13.744
35911W        W 8237  39.844  18.629   3.057
35912W        W 8238  30.898  27.028   2.935
35913W        W 8239  15.211  12.208  10.700
35914W        W 8240   2.831  22.510  10.984
35915W        W 8241   1.036  39.813   3.842
35916W        W 8242  17.297  14.387   3.341
35917W        W 8243   0.771  33.963  11.561
35918W        W 8244  32.117  29.904  12.855
35919W        W 8245  41.432  38.586   0.473
35920W        W 8246  30.123  24.125  10.567
35921W        W 8247  20.955   8.396  11.363
35922W        W 8248   9.042  21.047  11.216
35923W        W 8249  16.589   3.232   4.534
35924W        W 8250   1.725   3.879  14.955
35925W        W 8251  16.006  32.803  12.975
35926W        W 8252  23.527  18.777   0.786
35927W        W 8253  34.593  23.051   3.333
35928W        W 8254  23.493  38.986  13.908
35929W        W 8255  31.459  25.079  12.900
35930W        W 8256  35.457  28.401   2.235
35931W        W 8257  35.514  10.745  11.956
35932W        W 8258  38.448   1.799  14.411
35933W        W 8259   2.413  23.050   9.944
35934W        W 8260  43.637  30.403  12.059
35935W        W 8261  28.496  20.118  13.374
35936W        W 8262  17.162   0.751  14.554
35937W        W 8263  32.441  10.844   2.211
35938W        W 8264  36.374   6.932  11.949
35939W        W 8265  23.201  16.096   1.836
35940W        W 8266   9.907  19.780  12.579
35941W        W 8267  12.662  24.463  14.851
35942W        W 8268  18.570   2.304   0.121
35943W        W 8269  43.935   4.895   1.404
35944W        W 8270  44.682  18.969  11.089
35945W        W 8271  31.517  30.160   4.718
35946W        W 8272   0.324  42.953  14.981
35947W        W 8273  29.148  36.447   4.848
35948W        W 8274  38.045  11.646   2.235
35949W        W 8275  28.983  23.111   2.965
35950W        W 8276  35.553   1.022  13.837
35951W        W 8277  31.538  37.649  12.642
35952W        W 8278   6.436  44.376   2.337
35953W        W 8279  15.479  12.359   0.018
35954W        W 8280  10.243  12.652  12.630
35955W        W 8281  38.157  10.711  12.910
35956W        W 8282  12.313  25.126  14.471
35957W        W 8283  42.349  25.526   1.730
35958W        W 8284  43.536  20.723   3.112
35959W        W 8285  31.640  39.221   4.155
35960W        W 8286   3.004  37.351  11.115
35961W        W 8287  36.895   7.773  11.057
35962W        W 8288   2.985  31.872  12.879
35963W        W 8289   0.946   7.134  12.944
35964W        W 8290   5.866   7.687   3.950
35965W        W 8291  22.556  23.714   3.700
35966W        W 8292  10.871  31.103   4.201
35967W        W 8293  13.714   4.696  13.563
35968W        W 8294  34.938  39.078  11.580
35969W        W 8295  43.931  13.602   2.235
35970W        W 8296  19.774   6.388  14.578
35971W        W 8297  42.976  12.290   0.008
35972W        W 8298  41.483  27.000   4.162
35973W        W 8299  16.761  33.069  12.047
35974W        W 8300  41.251  42.373  11.964
35975W        W 8301  11.253  29.212  13.875
35976W        W 8302   4.931  34.418   1.469
35977W        W 8303  25.635  18.332   2.143
35978W        W 8304  33.791  37.813   4.630
35979W        W 8305  17.301  38.497  14.968
35980W        W 8306  24.374  15.226  13.460
35981W        W 8307  18.724   6.691   3.759
35982W        W 8308  34.903  17.043   3.247
35983W        W 8309   8.761  13.096   1.282
35984W        W 8310  20.281   6.814   1.459
35985W        W 8311   2.008  41.627  14.808
35986W        W 8312  13.110  22.028   3.651
35987W        W 8313  25.102  25.571   0.221
35988W        W 8314  41.726  27.495  11.562
35989W        W 8315  11.197  11.333  14.343
35990W        W 8316   5.919  38.399  11.074
35991W        W 8317  36.116  16.828   0.315
35992W        W 8318  40.767  39.875  14.375
35993W        W 8319  15.897  35.895  13.912
35994W        W 8320  16.669  24.371  11.492
35995W        W 8321  31.496  13.179  14.558
35996W        W 8322  16.083   5.928  14.685
35997W        W 8323  42.063  13.298   2.760
35998W        W 8324  25.386  35.637   0.288
35999W        W 8325  12.433  19.979  11.178
36000W        W 8326  30.921   7.919   3.115
36001W        W 8327  32.308  19.763  11.155
36002W        W 8328  36.158  23.170   4.848
36003W        W 8329  19.039   9.620   2.688
36004W        W 8330  25.167   0.679  10.780
36005W        W 8331  35.545  29.534   4.347
36006W        W 8332  10.410  17.740  11.221
36007W        W 8333  20.724   5.586   4.556
36008W        W 8334  33.707  19.432  12.623
36009W        W 8335   5.768  17.179   2.840
36010W        W 8336  21.565   4.265   3.839
36011W        W 8337  42.620  11.347   4.464
36012W        W 8338  12.877  10.385  12.235
36013W        W 8339   9.578  40.938  14.885
36014W        W 8340  42.830  40.607  13.465
36015W        W 8341  32.916  38.388   2.117
36016W        W 8342   5.771   2.195  12.434
36017W        W 8343   6.154  25.515   2.001
36018W        W 8344  40.724  27.343   4.054
36019W        W 8345  42.444  11.089   4.045
36020W        W 8346  30.084  34.923   1.597
36021W        W 8347  16.535  17.876  12.617
36022W        W 8348  16.714   2.369   0.385
36023W        W 8349  29.920   6.818   1.901
36024W        W 8350   5.455  40.504   4.838
36025W        W 8351   0.785   7.952  13.844
36026W        W 8352  32.545  25.224  11.175
36027W        W 8353  14.740  18.293   3.661
36028W        W 8354  12.366  44.886  10.700
36029W        W 8355   9.901  35.425   1.523
36030W        W 8356  21.278  14.439   1.890
36031W        W 8357  14.717  15.584  13.424
36032W        W 8358  22.777  43.415  11.359
36033W        W 8359   7.361  27.447   4.692
36034W        W 8360   0.903  23.666   4.164
36035W        W 8361   2.422  26.373   4.128
36036W        W 8362   6.647  39.129   4.157
36037W        W 8363   5.186   7.248  12.772
36038W        W 8364  30.971  31.554   2.651
36039W        W 8365   5.695  23.691  10.820
36040W        W 8366  17.072  36.934  13.875
36041W        W 8367  42.143  20.192   2.735
36042W        W 8368  43.307  24.945   0.428
36043W        W 8369  18.286  35.925  14.053
36044W        W 8370   5.782   7.894  12.454
36045W        W 8371  35.525  36.487  10.549
36046W        W 8372  30.229  32.409  13.949
36047W        W 8373  34.461  40.847  11.656
36048W        W 8374  44.560  14.658  13.515
36049W        W 8375  38.945   8.491  10.894
36050W        W 8376   1.681  28.218  13.401
36051W        W 8377  24.068  22.164   2.425
36052W        W 8378  36.026  30.391   3.656
36053W        W 8379  11.378  35.541   1.352
36054W        W 8380  13.883  41.933   2.447
36055W        W 8381  31.089  19.133  14.593
36056W        W 8382  25.240  44.582   4.177
36057W        W 8383  38.369  32.337  12.126
36058W        W 8384  33.152  22.599   1.381
36059W        W 8385   6.774  24.946  13.583
36060W        W 8386  35.592   8.760   3.703
36061W        W 8387  10.876  44.857  13.985
36062W        W 8388   5.411  36.872   0.460
36063W        W 8389  31.111   7.219   1.412
36064W        W 8390  18.181  19.231   0.730
36065W        W 8391  44.571   3.447   1.277
36066W        W 8392  21.795  28.465   0.170
36067W        W 8393  17.472   0.372   3.980
36068W        W 8394  22.420   7.355   4.485
36069W        W 8395  15.109  36.735  12.859
36070W        W 8396   6.129  36.269   3.300
36071W        W 8397  36.451  13.605   2.148
36072W        W 8398   0.934  29.861   0.712
36073W        W 8399  23.116  24.224  11.642
36074W        W 8400  44.351  25.309  12.078
36075W        W 8401  18.124   8.133  12.973
36076W        W 8402  32.047  31.358   3.622
36077W        W 8403  21.771  23.147   4.872
36078W        W 8404  15.487  31.335  13.987
36079W        W 8405   6.822  37.678   0.770
36080W        W 8406  36.524  18.014  13.570
36081W        W 8407  33.465  18.804   0.379
36082W        W 8408  38.061   3.751  13.122
36083W        W 8409  33.042  35.306  12.771
36084W        W 8410  32.593  25.514   0.751
36085W        W 8411   1.207  42.402   4.863
36086W        W 8412  14.772  37.597  14.838
36087W        W 8413   0.785   5.962   1.975
36088W        W 8414  24.102   8.951  13.358
36089W        W 8415  39.090  20.798   2.738
36090W        W 8416   0.842   3.358  14.423
36091W        W 8417  32.148   0.808  13.084
36092W        W 8418  31.415   1.382  12.619
36093W        W 8419  24.012   4.349   2.583
36094W        W 8420   6.812  24.054  10.676
36095W        W 8421  28.434  22.033   3.875
36096W        W 8422  24.014  19.544  11.089
36097W        W 8423   8.964  17.704  12.915
36098W        W 8424  39.315   1.354   4.872
36099W        W 8425  40.026  39.610  13.883
36100W        W 8426  38.530  32.466  14.069
36101W        W 8427  38.789  22.612   2.731
36102W        W 8428  27.502   6.908  10.679
36103W        W 8429  43.551  12.915   3.243
36104W        W 8430  23.206   9.752   4.316
36105W        W 8431   6.894  16.834   1.776
36106W        W 8432  10.667  35.884   1.279
36107W        W 8433   0.479  16.775  13.475
36108W        W 8434  37.144  10.811  10.811
36109W        W 8435  44.843  23.211   2.357
36110W        W 8436  26.169  38.139   4.161
36111W        W 8437   0.505   3.769   1.597
36112W        W 8438  32.628  41.249  13.601
36113W        W 8439  27.498  27.261  14.692
36114W        W 8440  17.173  25.966  13.093
36115W        W 8441  22.700   2.156   1.259
36116W        W 8442  18.022   4.401  11.173
36117W        W 8443  23.957  38.911   3.775
36118W        W 8444  42.736   6.175  12.321
36119W        W 8445  41.510  43.996  11.604
36120W        W 8446  21.352   4.078  13.929
36121W        W 8447   1.205  13.051   2.133
36122W        W 8448  17.537  43.527  12.505
36123W        W 8449  12.399  38.377   3.385
36124W        W 8450  25.921  31.082  13.267
36125W        W 8451  18.086   8.149  13.894
36126W        W 8452  33.736   8.776   0.041
36127W        W 8453  23.936  36.710   3.196
36128W        W 8454   8.049   0.746   3.548
36129W        W 8455   2.917  38.410  10.358
36130W        W 8456  33.698  42.410   3.176
36131W        W 8457  12.684  37.347   5.024
36132W        W 8458   4.700  13.727  12.917
36133W        W 8459   2.509  24.485   9.833
36134W        W 8460   3.551   0.304  12.900
36135W        W 8461  12.877  43.803  13.541
36136W        W 8462  40.887  28.060  10.931
36137W        W 8463  28.017  40.469  12.784
36138W        W 8464  27.581  23.523  12.027
36139W        W 8465  34.070  20.752   4.666
36140W        W 8466  36.499  28.021  12.897
36141W        W 8467  19.352  36.366   2.927
36142W        W 8468  21.439  18.611   2.217
36143W        W 8469  37.632  10.850  11.540
36144W        W 8470  39.815  37.627   3.665
36145W        W 8471  39.508  34.561  13.820
36146W        W 8472  10.629  18.199   1.780
36147W        W 8473  44.318   2.935   0.308
36148W        W 8474  41.102   8.720  11.125
36149W        W 8475  31.556  39.054  12.349
36150W        W 8476  36.136  13.646  10.608
36151W        W 8477  15.084  40.040   4.570
36152W        W 8478  34.483  25.893  11.883
36153W        W 8479  15.110  26.546   2.872
36154W        W 8480  34.304  44.328   1.395
36155W        W 8481  28.965  12.451   1.419
36156W        W 8482  34.756  17.309  11.636
36157W        W 8483  16.581  34.076   2.699
36158W        W 8484  44.846  44.016   2.741
36159W        W 8485  15.691  15.194   3.872
36160W        W 8486  26.664  19.700   4.362
36161W        W 8487   7.743  23.200  13.898
36162W        W 8488   2.160  12.151  12.099
36163W        W 8489   1.576  13.909   3.064
36164W        W 8490  15.159   8.830   3.161
36165W        W 8491  10.183  11.564   2.273
36166W        W 8492  20.983  31.628  14.763
36167W        W 8493   2.041  13.759   2.807
36168W        W 8494  16.320  30.920   0.446
36169W        W 8495  42.065  34.087   4.953
36170W        W 8496   6.770  38.808  13.116
36171W        W 8497  28.075  27.959   3.236
36172W        W 8498  36.029  20.973  13.332
36173W        W 8499  44.390  40.865   0.099
36174W        W 8500  35.315  10.762  10.829
36175W        W 8501   3.530   6.703  14.921
36176W        W 8502  17.954   5.333  13.571
36177W        W 8503  10.714  33.451   4.694
36178W        W 8504  30.518  37.543  12.115
36179W        W 8505   3.347  22.819   3.119
36180W        W 8506  14.114  29.886   2.805
36181W        W 8507  37.527  28.508   2.376
36182W        W 8508   3.873  24.828   2.238
36183W        W 8509  21.138  43.019  10.647
36184W        W 8510   7.786  10.556   1.128
36185W        W 8511  18.251  44.728   2.380
36186W        W 8512  29.380   0.720   3.316
36187W        W 8513  22.945  41.439   3.244
36188W        W 8514  32.507  15.795   1.706
36189W        W 8515   2.208  38.448   3.195
36190W        W 8516   2.493  23.985   9.687
36191W        W 8517  14.873  14.860   3.060
36192W        W 8518  21.151  22.986   2.095
36193W        W 8519  39.146  30.080  10.997
36194W        W 8520  34.355  43.924   1.722
36195W        W 8521  41.553  31.605  11.625
36196W        W 8522  14.816   6.922  11.150
36197W        W 8523   6.160  15.293  12.883
36198W        W 8524   4.003  29.847  14.256
36199W        W 8525  27.921  24.447   1.435
36200W        W 8526  11.617  25.083  13.904
36201W        W 8527  24.185  39.573   5.169
36202W        W 8528   9.741  34.612  12.347
36203W        W 8529  29.428  21.331   1.562
36204W        W 8530  21.430   3.432  11.149
36205W        W 8531   7.872  43.870   0.413
36206W        W 8532  26.345  23.159  14.500
36207W        W 8533  27.536  41.776  12.429
36208W        W 8534  35.005  15.615   0.989
36209W        W 8535  29.483  35.661  12.244
36210W        W 8536  21.477  35.354   2.664
36211W        W 8537  26.179  13.173  12.647
36212W        W 8538  27.932  18.164   3.688
36213W        W 8539   9.478  43.641   2.789
36214W        W 8540   8.168  21.444  11.614
36215W        W 8541  14.572  24.072   4.924
36216W        W 8542  41.840   2.467  11.520
36217W        W 8543   2.003  28.744   0.968
36218W        W 8544   8.312   7.756  11.887
36219W        W 8545  14.337  28.041   0.993
36220W        W 8546  21.125  35.343  13.569
36221W        W 8547  10.439   2.781  10.705
36222W        W 8548  27.204  39.012  12.560
36223W        W 8549  23.784   9.077  14.041
36224W        W 8550  27.602  16.855   2.232
36225W        W 8551  32.074   9.308   1.515
36226W        W 8552  27.395  42.337  10.714
36227W        W 8553  30.438  37.081   3.555
36228W        W 8554  10.867  14.768  11.560
36229W        W 8555  29.612  41.465  10.883
36230W        W 8556  31.347  37.320  13.581
36231W        W 8557   6.824  36.992  10.759
36232W        W 8558  37.236  16.389  13.366
36233W        W 8559   8.419  28.094   4.593
36234W        W 8560  39.253  13.917   2.858
36235W        W 8561  43.477  30.719  12.427
36236W        W 8562   8.699   0.226   0.292
36237W        W 8563  40.628  43.878  13.868
36238W        W 8564  37.369   4.997  12.877
36239W        W 8565  27.602  17.787  12.514
36240W        W 8566  35.195  12.465   1.047
36241W        W 8567  38.446  42.074   1.905
36242W        W 8568  24.797  16.539   0.272
36243W        W 8569  26.927   4.784  13.847
36244W        W 8570   3.214  13.672   1.308
36245W        W 8571  36.863   4.922  14.837
36246W        W 8572  30.404  15.714  10.506
36247W        W 8573  27.806  18.153   2.406
36248W        W 8574  29.006  11.780  14.710
36249W        W 8575  23.329  39.892   4.257
36250W        W 8576  12.476  13.226  11.822
36251W        W 8577   7.821  43.752  11.873
36252W        W 8578  26.383  30.395   1.838
36253W        W 8579   4.962  41.118  13.434
36254W        W 8580  30.191  35.887   1.251
36255W        W 8581  34.527   6.187  14.915
36256W        W 8582   6.873  38.374   1.826
36257W        W 8583  33.033   6.184   3.861
36258W        W 8584  17.690   5.200  10.587
36259W        W 8585  31.430  25.446   3.818
36260W        W 8586  17.993  19.002  11.542
36261W        W 8587  19.136  22.000   1.315
36262W        W 8588  39.825  39.563  12.805
36263W        W 8589  13.081  34.458   1.796
36264W        W 8590  31.411  27.912   3.631
36265W        W 8591  28.250  35.507  14.865
36266W        W 8592  20.956  30.427   2.780
36267W        W 8593  18.841   5.863   4.593
36268W        W 8594  14.839  35.932   1.278
36269W        W 8595   7.986  20.596  13.831
36270W        W 8596   8.281  30.615   0.930
36271W        W 8597  24.722   8.030  14.755
36272W        W 8598  11.552  28.583   3.684
36273W        W 8599  43.484  31.898   2.720
36274W        W 8600  40.556   3.859   3.282
36275W        W 8601  39.388   5.066   0.525
36276W        W 8602  33.580   5.561  14.838
36277W        W 8603  24.122  23.460  13.885
36278W        W 8604  21.031  18.557  12.144
36279W        W 8605  34.562   8.751   3.647
36280W        W 8606  29.245  18.134  14.918
36281W        W 8607  34.460  20.529  11.415
36282W        W 8608   0.904  11.393  13.329
36283W        W 8609  42.322   3.528  14.304
36284W        W 8610  33.502  26.652   2.519
36285W        W 8611  12.928   9.132  12.489
36286W        W 8612  44.056  32.212   4.213
36287W        W 8613  15.926  23.667   2.208
36288W        W 8614  14.199   9.875   3.216
36289W        W 8615  30.725   7.259   3.134
36290W        W 8616  38.438   0.500   2.859
36291W        W 8617  19.208  25.517   2.649
36292W        W 8618  34.176  28.439  11.527
36293W        W 8619  24.619  15.995   1.337
36294W        W 8620   6.924  35.039   2.862
36295W        W 8621  17.220  13.687  12.510
36296W        W 8622  35.468   5.067  13.876
36297W        W 8623  12.636  20.552   4.657
36298W        W 8624  42.024  16.842   1.690
36299W        W 8625  30.918  34.603  13.119
36300W        W 8626  11.404   4.921  12.473
36301W        W 8627  40.017  12.342  11.975
36302W        W 8628   4.977  28.502  11.944
36303W        W 8629  44.007  23.974  12.712
36304W        W 8630   4.255   6.010  12.514
36305W        W 8631  37.325  13.163  13.027
36306W        W 8632   2.477  43.821   4.721
36307W        W 8633   8.669  21.473   4.475
36308W        W 8634   5.591  44.618   3.219
36309W        W 8635   1.951  33.914  10.573
36310W        W 8636  22.212   2.800  12.499
36311W        W 8637  43.752  31.547   1.824
36312W        W 8638  18.073  10.807  12.087
36313W        W 8639  31.895   5.788   1.698
36314W        W 8640  15.099  26.923   0.691
36315W        W 8641  42.001  39.535  13.948
36316W        W 8642  10.074   1.380  14.908
36317W        W 8643  40.353  39.519   1.410
36318W        W 8644  32.014   8.262   4.582
36319W        W 8645  36.042  26.055   1.412
36320W        W 8646   4.811  29.351   3.753
36321W        W 8647  22.459  25.970   4.613
36322W        W 8648  18.163  22.520   1.194
36323W        W 8649  44.139   3.891   2.742
36324W        W 8650  40.049  42.884  13.074
36325W        W 8651   9.261   6.711   1.829
36326W        W 8652  39.970  25.938   0.586
36327W        W 8653  29.114   3.114   3.792
36328W        W 8654  33.714  30.999  12.723
36329W        W 8655  43.222   6.235   0.853
36330W        W 8656  17.550  12.015  14.032
36331W        W 8657   8.015  15.653   1.203
36332W        W 8658  28.995  44.608   3.749
36333W        W 8659  29.161   5.791  11.597
36334W        W 8660  42.301  42.668  10.535
36335W        W 8661  14.677  41.508   2.426
36336W        W 8662  36.554   1.503   4.261
36337W        W 8663   7.488  29.724   3.757
36338W        W 8664  40.358   5.497  13.420
36339W        W 8665   7.396  24.473   3.994
36340W        W 8666   0.541   1.778   0.315
36341W        W 8667  28.154  37.452   3.209
36342W        W 8668   9.627   8.002   3.649
36343W        W 8669  33.232  29.412   2.369
36344W        W 8670  30.961   6.765  13.387
36345W        W 8671  13.162  31.837  12.500
36346W        W 8672  19.307  31.377   4.189
36347W        W 8673  41.227  40.800  12.760
36348W        W 8674  21.821   5.436  12.186
36349W        W 8675  15.069  29.050  10.982
36350W        W 8676  30.086  24.155   0.776
36351W        W 8677  20.735   2.314  10.933
36352W        W 8678  29.628  19.068  12.413
36353W        W 8679  34.674   3.328  14.718
36354W        W 8680  41.855  14.077  12.212
36355W        W 8681  30.017  44.417  11.092
36356W        W 8682  10.681  32.649   3.288
36357W        W 8683  16.259   2.394  14.216
36358W        W 8684  21.686   4.156   2.115
36359W        W 8685  17.527  29.945  10.705
36360W        W 8686  43.988  25.274  11.194
36361W        W 8687  40.884   2.024  12.330
36362W        W 8688  29.658   4.851  13.879
36363W        W 8689   2.886  43.910   4.410
36364W        W 8690  15.819  16.387  13.024
36365W        W 8691  14.752   6.135   3.168
36366W        W 8692  32.593  16.842  14.793
36367W        W 8693  37.890  15.694  14.785
36368W        W 8694  18.586  16.938  11.164
36369W        W 8695  18.092  30.424  14.929
36370W        W 8696   2.298   7.827   3.691
36371W        W 8697  22.654  16.958   2.168
36372W        W 8698  39.924  28.904  12.474
36373W        W 8699  13.030  39.239  14.473
36374W        W 8700  42.106  38.448  14.723
36375W        W 8701  32.895  44.622  14.215
36376W        W 8702   7.936  13.270   2.701
36377W        W 8703  10.240  26.899   1.145
36378W        W 8704  34.884  11.593  11.527
36379W        W 8705  21.488  28.470   4.429
36380W        W 8706   8.136  22.628  14.870
36381W        W 8707  40.338  21.121   0.654
36382W        W 8708  31.044  19.649   0.283
36383W        W 8709  39.998  42.331  12.382
36384W        W 8710  37.763   9.187   2.431
36385W        W 8711  27.086  12.334  11.850
36386W        W 8712  35.187  16.245  13.341
36387W        W 8713  24.095  24.978   1.729
36388W        W 8714  15.863  28.503   0.864
36389W        W 8715  27.604  29.289  11.950
36390W        W 8716  15.386  44.103   0.784
36391W        W 8717  14.907  34.500   4.288
36392W        W 8718  39.977  39.304   2.778
36393W        W 8719  16.628  22.439   2.059
36394W        W 8720  28.137   7.989   0.893
36395W        W 8721   8.887  19.075  12.993
36396W        W 8722  27.458  19.739   4.854
36397W        W 8723  34.947  42.740   4.288
36398W        W 8724  13.167  44.869  11.983
36399W        W 8725   8.457  25.392   0.218
36400W        W 8726   6.694  39.710  13.048
36401W        W 8727   8.404  35.840  14.263
36402W        W 8728   2.468  33.732   0.809
36403W        W 8729  39.815  24.482   4.191
36404W        W 8730   5.098  18.202   3.918
36405W        W 8731  39.771  28.144  12.184
36406W        W 8732  24.345  23.947  13.917
36407W        W 8733  43.307  21.976   3.123
36408W        W 8734  31.055  33.202   4.569
36409W        W 8735  20.809  39.460   3.628
36410W        W 8736  15.097  15.891  11.489
36411W        W 8737  24.601  16.498   4.217
36412W        W 8738  29.220  12.323  10.673
36413W        W 8739  12.673  11.321   2.732
36414W        W 8740  17.552   3.976  12.903
36415W        W 8741  34.642  30.928  11.928
36416W        W 8742  34.450  19.265   0.328
36417W        W 8743  18.259  21.777  14.356
36418W        W 8744  33.565  17.627   3.697
36419W        W 8745   5.807  40.359  11.333
36420W        W 8746   4.125  18.320   2.374
36421W        W 8747   3.902   7.291  14.340
36422W        W 8748   1.954  27.441   3.664
36423W        W 8749   7.838  33.183  14.890
36424W        W 8750  16.955  21.464   5.205
36425W        W 8751  41.402  14.674   2.103
36426W        W 8752   1.479  13.290   1.761
36427W        W 8753  28.187   2.360  14.010
36428W        W 8754   4.036  35.590  11.623
36429W        W 8755  44.752   7.335   2.384
36430W        W 8756   5.045  42.599   4.131
36431W        W 8757  43.934  32.565   1.723
36432W        W 8758  21.771  10.379   1.968
36433W        W 8759  11.632  36.011   1.401
36434W        W 8760  16.099  34.575   0.100
36435W        W 8761  16.536  34.509  14.813
36436W        W 8762   5.286  39.872  11.347
36437W        W 8763  12.374  32.333  14.211
36438W        W 8764  31.992  21.824   0.401
36439W        W 8765  18.811  37.625   3.207
36440W        W 8766  42.060  41.787   1.212
36441W        W 8767  30.629   8.727   4.683
36442W        W 8768  15.196  15.091  12.972
36443W        W 8769  33.680  40.681  12.032
36444W        W 8770  41.496  34.486   2.238
36445W        W 8771  36.910  42.295  12.672
36446W        W 8772  43.319  14.217   1.860
36447W        W 8773  34.874  26.553   9.785
36448W        W 8774  15.532  10.382   3.215
36449W        W 8775  33.174  14.337   1.838
36450W        W 8776  24.517  16.517   2.741
36451W        W 8777  16.726  32.065  12.920
36452W        W 8778  15.718  41.497   4.051
36453W        W 8779  29.426  28.391  10.923
36454W        W 8780   8.398  20.309  12.980
36455W        W 8781  22.402  24.621  12.825
36456W        W 8782  10.578  26.967   3.187
36457W        W 8783  14.567   0.253  11.038
36458W        W 8784  14.102  15.117  12.816
36459W        W 8785  12.200  33.453  10.102
36460W        W 8786  27.490   1.345   3.204
36461W        W 8787  34.936  36.343   2.035
36462W        W 8788  30.377  29.179   0.817
36463W        W 8789  36.540  42.267  11.945
36464W        W 8790  35.498  42.457   1.095
36465W        W 8791  42.134   0.523   4.872
36466W        W 8792  30.508  35.808   4.548
36467W        W 8793  34.952   3.912  12.885
36468W        W 8794  39.418  41.122   4.192
36469W        W 8795   1.859   2.691   2.839
36470W        W 8796  38.297  26.123  12.384
36471W        W 8797  32.871  30.106   1.842
36472W        W 8798  21.638  15.377   2.172
36473W        W 8799   2.036  27.250  11.188
36474W        W 8800  25.198  36.825  14.898
36475W        W 8801   0.441  14.757   3.202
36476W        W 8802  24.554  10.795   4.105
36477W        W 8803  28.174  18.975   0.149
36478W        W 8804  39.465  34.350   0.980
36479W        W 8805  10.381  34.132  14.339
36480W        W 8806  38.541  44.832  11.625
36481W        W 8807  12.660  15.633   3.682
36482W        W 8808   6.734  31.614  11.965
36483W        W 8809  21.275  27.206  13.442
36484W        W 8810  27.243  25.254   0.326
36485W        W 8811  15.780   2.318  12.287
36486W        W 8812  13.824  18.307  11.395
36487W        W 8813  35.539  22.709   3.843
36488W        W 8814  24.952  10.811  12.952
36489W        W 8815   2.394   4.396   5.130
36490W        W 8816  29.573  15.159  12.060
36491W        W 8817  26.256  25.137  14.308
36492W        W 8818  19.586   6.677   2.922
36493W        W 8819  25.724  32.792   3.419
36494W        W 8820  37.600  41.587   1.653
36495W        W 8821  20.557  22.221   3.202
36496W        W 8822  14.891  11.658   2.015
36497W        W 8823  44.801  26.000  14.326
36498W        W 8824  25.652  18.638   1.738
36499W        W 8825  44.995  34.431  12.254
36500W        W 8826   3.715  24.878   0.035
36501W        W 8827   6.274  38.491   4.818
36502W        W 8828   8.675  36.349   2.073
36503W        W 8829  15.255  34.136   0.231
36504W        W 8830  14.352   0.539   1.772
36505W        W 8831  40.897   1.993   4.967
36506W        W 8832  38.079  30.174  11.092
36507W        W 8833   9.261  15.688  13.600
36508W        W 8834  39.950  23.011  10.945
36509W        W 8835  29.465  25.957  14.508
36510W        W 8836  44.917  31.997   3.701
36511W        W 8837  30.196  27.493   1.636
36512W        W 8838  12.704  23.642   9.522
36513W        W 8839  29.666   6.501  11.160
36514W        W 8840  14.268   1.971   1.684
36515W        W 8841  13.313  15.824  13.366
36516W        W 8842   7.479  17.060  14.072
36517W        W 8843   6.733   5.953   4.101
36518W        W 8844  11.740  33.008  11.777
36519W        W 8845  19.573  19.013  12.824
36520W        W 8846  11.116  21.102  13.549
36521W        W 8847  16.118  26.953   4.224
36522W        W 8848   4.392  10.250   1.586
36523W        W 8849  16.324   7.601   2.314
36524W        W 8850  24.740  43.759   1.248
36525W        W 8851  43.517  11.227  12.634
36526W        W 8852  10.835  21.839   4.557
36527W        W 8853  26.418  12.566   3.638
36528W        W 8854  42.937  21.598   5.097
36529W        W 8855   8.923  11.582   4.112
36530W        W 8856  20.911  33.129  12.042
36531W        W 8857  28.487  21.616  11.655
36532W        W 8858  16.231  40.810   0.798
36533W        W 8859   5.354  34.512  13.869
36534W        W 8860  18.521  19.259   4.708
36535W        W 8861  19.177   5.717   0.746
36536W        W 8862   0.705   9.962  12.550
36537W        W 8863  34.964  13.008  12.112
36538W        W 8864   1.921  25.677  10.632
36539W        W 8865  37.194  12.335  12.801
36540W        W 8866  27.684  16.722  11.939
36541W        W 8867  24.063   1.289  14.553
36542W        W 8868  25.724  31.722  13.420
36543W        W 8869  15.319  21.118   3.935
36544W        W 8870  20.576  28.695   2.732
36545W        W 8871  40.967   4.938   0.013
36546W        W 8872   4.781  43.949  13.391
36547W        W 8873  20.503   9.419  12.085
36548W        W 8874  12.930  26.149   3.171
36549W        W 8875  15.268   6.488   4.458
36550W        W 8876  37.940  10.834  10.240
36551W        W 8877  34.190  31.221  14.131
36552W        W 8878  16.330  25.932   0.915
36553W        W 8879  41.258  28.362  10.756
36554W        W 8880  42.760  11.370   2.134
36555W        W 8881  35.906  38.799   4.582
36556W        W 8882  19.472   0.431  10.503
36557W        W 8883  32.405  34.450  11.119
36558W        W 8884   3.143   8.342   4.614
36559W        W 8885  18.546  10.172  14.425
36560W        W 8886  14.074  28.371  11.502
36561W        W 8887  32.349   0.414  11.508
36562W        W 8888   5.911  34.595  10.667
36563W        W 8889  18.714  20.475   3.314
36564W        W 8890  40.377  19.950   1.739
36565W        W 8891  17.383   9.993  14.078
36566W        W 8892  17.304  11.883   4.677
36567W        W 8893  32.073  42.737  12.527
36568W        W 8894  40.501  22.413  14.460
36569W        W 8895  29.698  12.276   3.526
36570W        W 8896  19.093   1.479   2.615
36571W        W 8897  27.062  32.838   2.725
36572W        W 8898  43.341   9.929   2.425
36573W        W 8899  11.907  33.842   5.006
36574W        W 8900  37.295  19.330  12.043
36575W        W 8901  27.344   1.620   2.512
36576W        W 8902  18.057  32.366   0.049
36577W        W 8903  23.622  31.739   4.383
36578W        W 8904  25.548  23.533  13.125
36579W        W 8905  44.097  21.017   1.297
36580W        W 8906  42.978  17.670   4.923
36581W        W 8907   3.092  29.483  12.265
36582W        W 8908  24.152  10.805  13.891
36583W        W 8909  36.778  38.026   3.873
36584W        W 8910  38.378   6.350   4.758
36585W        W 8911  13.259  35.352  14.740
36586W        W 8912   7.954  22.464  11.101
36587W        W 8913  17.120  16.583   2.807
36588W        W 8914  15.833  37.971  13.712
36589W        W 8915  42.266  37.504   1.827
36590W        W 8916  29.675  26.568   3.169
36591W        W 8917   3.480   5.191   1.722
36592W        W 8918  20.822   3.336  14.938
36593W        W 8919  41.327   1.777  14.910
36594W        W 8920  20.762  39.615   1.797
36595W        W 8921  38.909  27.468   1.812
36596W        W 8922  43.520  32.009  13.502
36597W        W 8923  37.526  14.145   0.840
36598W        W 8924  12.148  18.191  12.841
36599W        W 8925  30.945  34.582  13.924
36600W        W 8926  37.485  22.021   0.356
36601W        W 8927  36.775  39.660   4.863
36602W        W 8928  30.538  32.334   0.379
36603W        W 8929  37.849  27.090   0.345
36604W        W 8930  17.266  38.095  12.584
36605W        W 8931   2.299  10.681   1.905
36606W        W 8932  30.216   1.912  12.060
36607W        W 8933  34.950  29.257  10.706
36608W        W 8934  31.874  36.819  13.147
36609W        W 8935  27.502   6.422  12.467
36610W        W 8936   8.723  31.376  11.010
36611W        W 8937   3.847   0.975   1.849
36612W        W 8938  18.511  15.616   3.383
36613W        W 8939  32.395  19.149  12.483
36614W        W 8940  28.562  27.168   2.709
36615W        W 8941  10.148  19.533  14.410
36616W        W 8942   0.288  40.973   3.783
36617W        W 8943  43.269   0.217  11.668
36618W        W 8944  19.551   7.432   0.978
36619W        W 8945   0.455  11.664   1.338
36620W        W 8946   8.577  26.551  12.991
36621W        W 8947  18.561  28.869   3.777
36622W        W 8948   3.490  42.785   5.057
36623W        W 8949  10.280  21.691   4.295
36624W        W 8950  44.489  12.300   0.733
36625W        W 8951  27.288   1.490  14.918
36626W        W 8952   5.170   4.351   4.128
36627W        W 8953  26.158  16.228  13.940
36628W        W 8954  19.552  39.426  12.170
36629W        W 8955   5.218  10.921   3.329
36630W        W 8956  33.680   4.104   5.029
36631W        W 8957  18.051  25.217  14.472
36632W        W 8958   2.854  20.622  14.490
36633W        W 8959  15.120   3.184   4.887
36634W        W 8960   8.978   7.368  13.989
36635W        W 8961   7.228  10.457  13.250
36636W        W 8962  42.768   3.767   1.448
36637W        W 8963   8.804  11.999  13.534
36638W        W 8964  37.182  17.986   3.844
36639W        W 8965  24.112  36.879  12.534
36640W        W 8966   2.985  10.679   0.692
36641W        W 8967  21.799  28.438  13.356
36642W        W 8968  32.630  43.230   3.052
36643W        W 8969  32.561   5.665   3.234
36644W        W 8970  23.555  20.255  14.128
36645W        W 8971  44.122  42.556  13.371
36646W        W 8972  23.403   0.849   1.284
36647W        W 8973  31.453  33.399  14.927
36648W        W 8974  35.040   5.636  14.727
36649W        W 8975   8.354  13.959  10.709
36650W        W 8976  13.153  29.605   5.275
36651W        W 8977  36.885   5.421  11.697
36652W        W 8978  41.928   4.097   2.424
36653W        W 8979  38.207  24.616   2.200
36654W        W 8980  25.529  20.227  10.772
36655W        W 8981  25.440  20.197  14.541
36656W        W 8982  34.432  32.240  13.515
36657W        W 8983   0.431  31.830  14.740
36658W        W 8984  29.508  31.326   2.327
36659W        W 8985  38.624  42.274  13.919
36660W        W 8986  32.986  33.914  13.500
36661W        W 8987   3.781   1.423   0.917
36662W        W 8988  11.866  22.033  13.741
36663W        W 8989  42.405  41.536   3.799
36664W        W 8990  29.727  12.151  14.429
36665W        W 8991  19.039  11.693  14.306
36666W        W 8992   1.388  12.054   2.247
36667W        W 8993  44.636   4.810   5.028
36668W        W 8994   9.365   8.818  14.500
36669W        W 8995  38.367  21.741  14.972
36670W        W 8996  34.846  23.575  11.850
36671W        W 8997  34.382  18.950  11.406
36672W        W 8998  19.056  39.466   0.304
36673W        W 8999  39.353   4.392  12.214
36674W        W 9000  27.160  19.077   3.896
36675W        W 9001   4.333  24.685   1.932
36676W        W 9002   9.065  15.787   2.489
36677W        W 9003   4.682  15.984   2.124
36678W        W 9004  38.017   7.670  12.549
36679W        W 9005  18.638  11.082   4.093
36680W        W 9006  19.679  30.009  14.025
36681W        W 9007  28.077  13.248   0.422
36682W        W 9008  25.754   6.525  14.751
36683W        W 9009   2.098  35.062  11.172
36684W        W 9010  36.232  31.165  11.063
36685W        W 9011  17.147   8.161   0.910
36686W        W 9012  36.048   5.085  10.748
36687W        W 9013  23.537  15.102   1.219
36688W        W 9014  11.750  37.110   0.523
36689W        W 9015  29.946  23.127  14.121
36690W        W 9016  38.631  10.644   5.501
36691W        W 9017  15.741  38.235   0.468
36692W        W 9018  43.850  33.870  13.656
36693W        W 9019  12.156  31.950  12.537
36694W        W 9020   4.334   5.263   4.114
36695W        W 9021   4.936  21.334   1.739
36696W        W 9022  31.404  10.484  11.135
36697W        W 9023  24.049  11.361   2.817
36698W        W 9024   5.466   7.650  10.654
36699W        W 9025  22.833  40.796   4.269
36700W        W 9026   6.439  23.584   0.921
36701W        W 9027  41.671  19.710  11.487
36702W        W 9028  26.082  36.348   4.601
36703W        W 9029  41.415  15.639  13.505
36704W        W 9030  13.463  13.780  10.964
36705W        W 9031  38.468  18.274   1.881
36706W        W 9032  27.165   4.793   4.096
36707W        W 9033  10.278  25.135   1.905
36708W        W 9034  18.101   9.806  10.660
36709W        W 9035  28.962   3.770  13.985
36710W        W 9036   2.829  22.973   1.476
36711W        W 9037  41.267  17.532  14.567
36712W        W 9038   2.319   6.502   3.243
36713W        W 9039  28.780   8.787   4.774
36714W        W 9040  14.825   1.191  13.424
36715W        W 9041  20.855   0.439   2.610
36716W        W 9042  18.660  32.581  11.111
36717W        W 9043  19.178  13.252   1.878
36718W        W 9044  18.669  42.089   4.763
36719W        W 9045  32.320  34.641   0.855
36720W        W 9046  14.393  30.936  14.832
36721W        W 9047   6.645   1.536  12.573
36722W        W 9048  15.653  27.666  14.220
36723W        W 9049   9.406  10.310  10.669
36724W        W 9050  22.923  28.545   3.788
36725W        W 9051  16.742  43.391   2.326
36726W        W 9052  20.646  40.035  10.513
36727W        W 9053  29.496  10.247   3.623
36728W        W 9054  30.417  20.042   4.322
36729W        W 9055  41.381  34.003  12.052
36730W        W 9056   8.735   2.284   0.176
36731W        W 9057  26.145  30.433   2.709
36732W        W 9058  32.093  15.223  14.822
36733W        W 9059  20.050  13.723   3.859
36734W        W 9060   1.255  42.999  12.149
36735W        W 9061  44.581  16.577   1.215
36736W        W 9062  40.002  42.448  13.358
36737W        W 9063  39.056  31.614  13.311
36738W        W 9064  15.293   7.730   3.681
36739W        W 9065   9.127  39.420   4.187
36740W        W 9066   6.916  31.955   3.284
36741W        W 9067   2.673  13.130  11.654
36742W        W 9068   1.005  25.138  13.233
36743W        W 9069  34.029  18.176   1.417
36744W        W 9070  16.889  25.995   4.370
36745W        W 9071  41.561   1.232   0.355
36746W        W 9072  13.399  28.542   4.107
36747W        W 9073  15.825  25.480  13.450
36748W        W 9074  36.448  33.917   1.865
36749W        W 9075  16.803  26.455   4.606
36750W        W 9076  41.952  35.395  14.572
36751W        W 9077  27.579  29.005   5.465
36752W        W 9078  32.234  37.069  11.132
36753W        W 9079  44.274  15.658   0.738
36754W        W 9080  16.483  24.164   4.724
36755W        W 9081  25.598  11.781   2.220
36756W        W 9082  39.767  43.650   2.246
36757W        W 9083  19.738  35.671  12.402
36758W        W 9084  17.662  26.994  14.560
36759W        W 9085  14.379  37.025   3.263
36760W        W 9086   3.902  43.051  14.511
36761W        W 9087  12.822  20.186  12.499
36762W        W 9088  38.604  29.441   2.777
36763W        W 9089   1.705   8.515  10.575
36764W        W 9090  23.444  43.084   3.261
36765W        W 9091  18.807  34.680   2.321
36766W        W 9092  35.021   4.723   0.153
36767W        W 9093  12.805  15.401   2.806
36768W        W 9094  18.166  30.762   2.313
36769W        W 9095   1.083  14.596  11.811
36770W        W 9096  18.359  10.822   3.169
36771W        W 9097   2.268  14.901  14.311
36772W        W 9098  29.416   7.569   1.976
36773W        W 9099  31.011  37.310   2.895
36774W        W 9100  28.236  11.714  13.203
36775W        W 9101   7.917   4.943  12.960
36776W        W 9102  19.270  39.361  11.709
36777W        W 9103   7.921  40.342   0.705
36778W        W 9104  13.321   0.442  11.153
36779W        W 9105  20.696  40.665  12.802
36780W        W 9106  20.354  21.168  12.096
36781W        W 9107   0.228  13.141  11.411
36782W        W 9108  22.657  41.035  14.862
36783W        W 9109  42.080  13.650   1.892
36784W        W 9110   2.232  31.822  14.042
36785W        W 9111  37.693  39.582  11.109
36786W        W 9112  31.070  10.565   3.393
36787W        W 9113   3.947  21.495  14.846
36788W        W 9114  32.982  30.212   0.444
36789W        W 9115  19.413   6.134   0.893
36790W        W 9116  12.759  32.995  11.885
36791W        W 9117  41.922  32.902  13.036
36792W        W 9118  29.352  39.403  14.879
36793W        W 9119  29.452  14.745   3.544
36794W        W 9120  28.276  34.003   3.233
36795W        W 9121  31.696  14.204   0.073
36796W        W 9122  11.988  13.843   4.517
36797W        W 9123   4.936  42.252  10.912
36798W        W 9124  32.539   3.694  14.772
36799W        W 9125  30.077   7.874   3.396
36800W        W 9126  37.595  33.441  11.537
36801W        W 9127  19.422   9.456   3.479
36802W        W 9128   8.857  37.912   1.440
36803W        W 9129  26.203  24.988   4.293
36804W        W 9130   6.337   5.357   4.516
36805W        W 9131  36.993  27.062   0.540
36806W        W 9132  39.057   1.695   2.623
36807W        W 9133  34.362   6.000  11.060
36808W        W 9134  16.746   8.219  14.990
36809W        W 9135   6.290  44.499  14.782
36810W        W 9136   9.419  28.592  13.093
36811W        W 9137  22.754  44.700   3.698
36812W        W 9138   9.042   6.089  12.056
36813W        W 9139  37.953  33.983  12.532
36814W        W 9140  34.037  35.988  12.918
36815W        W 9141  22.007   8.607   4.188
36816W        W 9142  44.640   4.598   4.422
36817W        W 9143  11.142  15.342   2.088
36818W        W 9144  17.281  44.915   3.811
36819W        W 9145  18.330  21.096  12.426
36820W        W 9146  14.257   8.695   1.766
36821W        W 9147  31.535  35.510  10.559
36822W        W 9148  30.117  38.368   1.336
36823W        W 9149   4.209  25.797  13.334
36824W        W 9150  10.109  33.728  11.493
36825W        W 9151  34.489  33.629  12.959
36826W        W 9152  23.215   2.438  13.718
36827W        W 9153  44.448   0.063  12.385
36828W        W 9154   6.563   1.499  12.064
36829W        W 9155   9.896  42.665   1.240
36830W        W 9156  21.694   8.306  12.561
36831W        W 9157  11.644  21.462  10.766
36832W        W 9158   3.837  40.323   1.905
36833W        W 9159  12.083  25.282  12.325
36834W        W 9160   7.120  34.983  12.201
36835W        W 9161  33.812  36.460  12.953
36836W        W 9162  32.062  17.361   0.566
36837W        W 9163  33.189  29.506   4.105
36838W        W 9164  21.209  15.209   3.669
36839W        W 9165  26.245  35.619   3.249
36840W        W 9166  21.776  23.261  12.090
36841W        W 9167   0.238  39.041  10.388
36842W        W 9168   4.753   2.986  12.076
36843W        W 9169  31.129   0.254  13.928
36844W        W 9170  42.786  36.329  11.360
36845W        W 9171  10.323  26.980  14.322
36846W        W 9172  13.183  19.020   2.197
36847W        W 9173  16.571  41.622   0.832
36848W        W 9174  32.059  25.011  10.732
36849W        W 9175   3.340   4.398   4.214
36850W        W 9176  14.132  35.646   4.042
36851W        W 9177  20.491  43.430  11.019
36852W        W 9178  38.844  10.774   9.779
36853W        W 9179  26.226  33.922  14.005
36854W        W 9180   2.945  13.647   1.788
36855W        W 9181  20.016  40.093  12.462
36856W        W 9182  32.429  18.997   0.403
36857W        W 9183  40.896  23.007   2.142
36858W        W 9184  10.212  27.379  11.545
36859W        W 9185  34.967  16.749  14.651
36860W        W 9186  39.917  26.452   3.076
36861W        W 9187  17.588  27.954   4.496
36862W        W 9188   6.611  14.604  14.928
36863W        W 9189  14.009  22.455  13.486
36864W        W 9190   3.247   3.219   1.606
36865W        W 9191  22.564   8.371   0.860
36866W        W 9192  20.027  27.287  12.508
36867W        W 9193  23.924  21.597  12.451
36868W        W 9194  41.480  36.018   4.797
36869W        W 9195  14.628  33.528  14.426
36870W        W 9196  30.174  41.687   3.993
36871W        W 9197  32.654   8.568  13.102
36872W        W 9198  31.861  11.397  14.267
36873W        W 9199  25.265  29.661  13.794
36874W        W 9200  42.912   5.687   1.409
36875W        W 9201  37.062  35.321   3.286
36876W        W 9202   7.719  31.467  10.608
36877W        W 9203  41.549   1.308  13.287
36878W        W 9204   9.206  17.655  14.810
36879W        W 9205  42.094  27.600   3.817
36880W        W 9206   9.403   4.837   3.687
36881W        W 9207  32.329  21.510   3.334
36882W        W 9208  28.671  41.696  11.219
36883W        W 9209  14.105  21.704   2.194
36884W        W 9210   1.516  12.344  13.997
36885W        W 9211  18.314  30.393   3.278
36886W        W 9212  30.946   6.330  14.830
36887W        W 9213  25.021   4.946  14.787
36888W        W 9214  19.717  28.226  11.414
36889W        W 9215  42.969   9.278  14.842
36890W        W 9216  26.015  17.065   4.165
36891W        W 9217  32.186  23.299   0.561
36892W        W 9218  23.438  30.118  14.368
36893W        W 9219  31.986   9.245   3.675
36894W        W 9220   4.816  44.632   3.081
36895W        W 9221   3.823  39.487   0.890
36896W        W 9222  12.837  30.716   2.347
36897W        W 9223   8.757  26.261   1.952
36898W        W 9224   7.892   0.829  13.647
36899W        W 9225  40.335  42.563  11.995
36900W        W 9226  19.537  26.518   4.572
36901W        W 9227  39.835   6.083   1.531
36902W        W 9228  17.983  41.901  12.639
36903W        W 9229  43.504  30.338  13.422
36904W        W 9230   0.953  22.191  14.904
36905W        W 9231  26.920  12.551  14.407
36906W        W 9232  22.591   8.234  10.362
36907W        W 9233  43.872  44.756   3.583
36908W        W 9234  26.606  37.916  13.302
36909W        W 9235  38.769  27.671   0.501
36910W        W 9236  43.774  40.328  11.996
36911W        W 9237  27.488  15.087  13.785
36912W        W 9238  37.123  16.047  11.973
36913W        W 9239  29.589   9.390   3.350
36914W        W 9240   5.468  37.564  10.126
36915W        W 9241  33.521  20.480   2.282
36916W        W 9242  31.871  26.136  12.550
36917W        W 9243  32.173  19.219   2.325
36918W        W 9244  20.705  42.479  14.867
36919W        W 9245  37.768  43.149   0.846
36920W        W 9246  43.700  26.323  10.130
36921W        W 9247  12.869   6.806   3.283
36922W        W 9248  16.657   1.371  13.945
36923W        W 9249  35.917  14.798   1.869
36924W        W 9250  38.035  27.514  11.122
36925W        W 9251  37.780  35.894  10.579
36926W        W 9252  34.101  29.877   0.841
36927W        W 9253   3.529  44.137   9.889
36928W        W 9254   8.815  11.931   4.527
36929W        W 9255  33.994  33.016   0.947
36930W        W 9256   7.900  31.173   4.853
36931W        W 9257  31.675  21.726   0.005
36932W        W 9258  38.566  37.153  12.590
36933W        W 9259  35.107  33.932   1.008
36934W        W 9260  27.136  21.131   3.149
36935W        W 9261  10.467   9.707  13.828
36936W        W 9262  40.480  43.064  11.994
36937W        W 9263  36.375  40.301  12.420
36938W        W 9264  32.201   2.273   4.246
36939W        W 9265  26.474  17.605   4.971
36940W        W 9266  40.869  22.548   3.553
36941W        W 9267  20.111  15.833  14.054
36942W        W 9268   3.812   4.504   2.760
36943W        W 9269  41.073  23.041   2.797
36944W        W 9270  29.196   0.347   2.402
36945W        W 9271  33.497  44.570  12.986
36946W        W 9272  24.039  10.094   0.756
36947W        W 9273   0.950  37.897   3.327
36948W        W 9274  30.480  25.667  13.096
36949W        W 9275  44.752   1.056   4.528
36950W        W 9276  27.621  38.498   0.463
36951W        W 9277  43.258  37.384  14.007
36952W        W 9278  22.133  17.762   1.124
36953W        W 9279  40.065   8.148  10.443
36954W        W 9280   8.220  16.675  14.000
36955W        W 9281   2.498  33.404   2.053
36956W        W 9282  40.806   7.146   4.601
36957W        W 9283  40.006  33.025  11.013
36958W        W 9284  41.872  24.588   4.853
36959W        W 9285  39.218  29.952   5.109
36960W        W 9286  15.566  15.856   2.715
36961W        W 9287  39.269   1.753  11.109
36962W        W 9288   8.402  19.240  13.902
36963W        W 9289  14.993  33.024  12.426
36964W        W 9290  13.584  11.817  14.523
36965W        W 9291  40.845   0.605   0.778
36966W        W 9292  29.209  17.200   2.613
36967W        W 9293  19.550  19.882  13.503
36968W        W 9294   2.460  29.162   3.672
36969W        W 9295  42.796  12.795  14.883
36970W        W 9296  31.876  25.728  13.478
36971W        W 9297  27.669  29.612  13.880
36972W        W 9298   3.688  22.811  10.665
36973W        W 9299  43.405  13.142  11.198
36974W        W 9300  33.434   2.988   4.862
36975W        W 9301  34.878  31.655  14.957
36976W        W 9302   4.633   7.633   3.796
36977W        W 9303  28.163  22.152  12.318
36978W        W 9304  23.986  26.900  11.590
36979W        W 9305  44.736  40.863  14.348
36980W        W 9306  19.271  20.273   0.271
36981W        W 9307  18.302   2.293   4.045
36982W        W 9308   0.518  33.470   3.398
36983W        W 9309  31.207  37.938  12.134
36984W        W 9310  32.584  20.086  10.781
36985W        W 9311  27.983  28.245   0.269
36986W        W 9312  16.276  17.828  13.488
36987W        W 9313   5.882  43.302   0.178
36988W        W 9314   0.344   8.259  13.927
36989W        W 9315  19.845  21.231   0.233
36990W        W 9316  34.489  14.470   2.197
36991W        W 9317  16.525   7.326   2.826
36992W        W 9318  20.390  42.842   2.481
36993W        W 9319  34.620  10.711  12.844
36994W        W 9320  37.976  18.652   4.484
36995W        W 9321  39.109  11.861  11.539
36996W        W 9322  37.905   1.851   4.869
36997W        W 9323  41.993  14.656  13.515
36998W        W 9324   5.848  22.333  14.294
36999W        W 9325  43.312  15.199  12.358
37000W        W 9326  17.309  37.443   4.103
37001W        W 9327  21.970  38.380  14.493
37002W        W 9328  31.154  24.917  10.176
37003W        W 9329   1.973  26.326   4.528
37004W        W 9330  43.615  10.896  12.173
37005W        W 9331  44.337  43.400  14.923
37006W        W 9332  33.073  38.640   0.871
37007W        W 9333  24.010  10.475  12.505
37008W        W 9334   7.972  13.575   3.854
37009W        W 9335   6.204  35.417   3.939
37010W        W 9336  32.698  33.834   1.835
37011W        W 9337  42.829  36.850  11.966
37012W        W 9338  16.176  23.207   4.449
37013W        W 9339  25.696  40.943  13.740
37014W        W 9340   4.829   1.281  12.194
37015W        W 9341  35.377  33.863  14.780
37016W        W 9342  18.340  44.011   0.725
37017W        W 9343  30.777  17.860   4.088
37018W        W 9344  31.440   5.705  14.934
37019W        W 9345  11.583  37.747   0.640
37020W        W 9346  34.056   3.834   2.133
37021W        W 9347   3.176   9.683  11.950
37022W        W 9348  22.643   7.226  11.665
37023W        W 9349  34.750  34.408   0.764
37024W        W 9350  37.975  23.721  12.459
37025W        W 9351  29.161  13.709  14.653
37026W        W 9352  36.826  33.608  11.993
37027W        W 9353  13.830  14.302  12.355
37028W        W 9354  31.180   8.944   3.795
37029W        W 9355   7.273  27.304   3.374
37030W        W 9356   3.257  40.071  11.531
37031W        W 9357  11.799  19.160   0.796
37032W        W 9358   9.219   1.206   0.792
37033W        W 9359  31.431  40.986   2.248
37034W        W 9360  43.549  32.887   2.391
37035W        W 9361  15.774  18.085   4.288
37036W        W 9362  11.284   8.096  11.345
37037W        W 9363  26.137   3.114  14.329
37038W        W 9364  13.903   2.596  11.601
37039W        W 9365   7.310  14.621  13.121
37040W        W 9366  31.004  26.895  13.125
37041W        W 9367  28.983   4.183  12.532
37042W        W 9368   8.841  24.741   4.175
37043W        W 9369  44.306  35.413   0.545
37044W        W 9370  14.116  23.802  13.449
37045W        W 9371  22.709  11.655   0.779
37046W        W 9372  13.171   9.694  12.933
37047W        W 9373  40.236  31.057   0.210
37048W        W 9374   3.624   4.862  11.553
37049W        W 9375  12.269  15.973  11.881
37050W        W 9376  36.082  16.809   4.702
37051W        W 9377  33.172   5.253  10.684
37052W        W 9378   8.373  12.658   0.732
37053W        W 9379   5.259   9.142   0.862
37054W        W 9380  36.966  26.311  11.181
37055W        W 9381  15.760  35.956   0.319
37056W        W 9382  21.712  21.626  12.081
37057W        W 9383  15.623   5.207  12.440
37058W        W 9384  17.697   0.330   1.944
37059W        W 9385  26.656   7.496   5.086
37060W        W 9386   4.954  38.017  12.346
37061W        W 9387  15.073  36.310  11.631
37062W        W 9388  14.792  30.108   0.565
37063W        W 9389  32.654  41.396   3.053
37064W        W 9390  23.513  20.807  12.644
37065W        W 9391  35.921   2.962   2.269
37066W        W 9392  26.127  39.808   3.122
37067W        W 9393  43.199  42.390   0.365
37068W        W 9394  32.467  39.194   4.634
37069W        W 9395  17.607  34.623  11.325
37070W        W 9396  30.294  10.722  14.818
37071W        W 9397  20.163   7.580   2.123
37072W        W 9398  32.854  13.269  13.904
37073W        W 9399  40.391  24.949   1.239
37074W        W 9400  40.778  23.002   3.794
37075W        W 9401   2.264  29.144   1.734
37076W        W 9402   7.348   4.173  12.110
37077W        W 9403  29.357  12.763  12.973
37078W        W 9404   3.180  16.248  11.833
37079W        W 9405   6.736   2.326  13.074
37080W        W 9406   5.442  11.637  13.370
37081W        W 9407  36.748  10.602  14.853
37082W        W 9408  18.019   7.984   0.643
37083W        W 9409  41.742  38.489   0.083
37084W        W 9410   3.330   6.436  13.005
37085W        W 9411   0.576  40.599   4.541
37086W        W 9412  40.101  39.214   0.547
37087W        W 9413  22.623  14.894  14.625
37088W        W 9414  34.748   6.385   4.766
37089W        W 9415  18.153  33.905   0.672
37090W        W 9416  16.907   7.690   3.726
37091W        W 9417  13.639  30.036   2.666
37092W        W 9418  36.150  15.307   1.182
37093W        W 9419  42.268  23.713   1.282
37094W        W 9420  27.043  33.139   3.442
37095W        W 9421  14.770  41.180  14.844
37096W        W 9422  14.248   8.156  13.298
37097W        W 9423   0.013  24.575  14.361
37098W        W 9424  18.440  36.624  14.403
37099W        W 9425  18.588  19.575   1.262
37100W        W 9426  12.315   0.765   0.933
37101W        W 9427  30.885  44.482   3.353
37102W        W 9428   5.274  36.138   1.719
37103W        W 9429  19.468   9.132  12.164
37104W        W 9430  23.523   9.773  13.534
37105W        W 9431  36.506   6.704  11.528
37106W        W 9432  31.173  15.115  14.334
37107W        W 9433   6.424  13.078  11.679
37108W        W 9434  25.893  29.418   4.277
37109W        W 9435  22.220  35.337  11.513
37110W        W 9436  43.801   5.735   3.294
37111W        W 9437  16.236  22.689  12.441
37112W        W 9438   4.697  19.595   1.378
37113W        W 9439  27.628  28.107   1.417
37114W        W 9440  18.821  41.091  14.040
37115W        W 9441  19.536  32.436  11.531
37116W        W 9442   1.753  34.077  11.850
37117W        W 9443  26.963   9.253   1.313
37118W        W 9444  11.726  28.367   0.529
37119W        W 9445  25.495   6.909  13.538
37120W        W 9446   8.049  23.490   2.163
37121W        W 9447   8.245  44.290  14.415
37122W        W 9448   6.438   3.773   2.117
37123W        W 9449  13.751  19.118   2.882
37124W        W 9450  13.397  30.660  14.481
37125W        W 9451  25.825   7.384   1.950
37126W        W 9452   2.579  25.709  14.286
37127W        W 9453  28.988  38.384  13.848
37128W        W 9454  26.129  40.894   3.585
37129W        W 9455  41.099  37.020   3.054
37130W        W 9456   3.165   7.991   4.193
37131W        W 9457  16.347   7.817   2.798
37132W        W 9458  26.436  25.765  12.890
37133W        W 9459  43.714   1.737   2.289
37134W        W 9460  18.379   3.758  11.784
37135W        W 9461  31.965   7.871  13.204
37136W        W 9462  12.538  24.708   4.233
37137W        W 9463  23.064  17.872  12.058
37138W        W 9464  20.904  26.164   3.755
37139W        W 9465   2.519  30.149  14.362
37140W        W 9466  16.781  27.956  11.409
37141W        W 9467  10.208  13.230   4.646
37142W        W 9468  24.122  41.546   3.757
37143W        W 9469  37.384  15.801   2.799
37144W        W 9470  26.422  36.269   0.865
37145W        W 9471  33.585  29.097   3.403
37146W        W 9472  41.777  10.826  11.700
37147W        W 9473  25.989  14.923   1.238
37148W        W 9474  37.009  11.255   0.708
37149W        W 9475  22.263  15.689  11.926
37150W        W 9476  25.154  16.830  13.083
37151W        W 9477   8.766   0.083  11.905
37152W        W 9478   7.955  43.082  12.578
37153W        W 9479  17.553  12.426  13.081
37154W        W 9480   3.667  43.719   1.383
37155W        W 9481  14.890  14.318  11.151
37156W        W 9482  39.993  31.260  10.782
37157W        W 9483   7.972  10.673  10.700
37158W        W 9484   9.574  20.657  14.936
37159W        W 9485  11.948  26.409   3.715
37160W        W 9486   9.344  18.160  13.699
37161W        W 9487   0.865  13.303   1.169
37162W        W 9488  29.531  44.312   0.294
37163W        W 9489  32.525  33.400  10.073
37164W        W 9490  28.646  23.048   0.699
37165W        W 9491  20.113  12.294   3.083
37166W        W 9492  27.883  30.936   1.822
37167W        W 9493  27.534  29.359   2.637
37168W        W 9494  28.437  24.553   1.469
37169W        W 9495  10.670  38.084   0.316
37170W        W 9496   5.188  27.539  11.558
37171W        W 9497  25.104   6.928   0.920
37172W        W 9498   2.204   8.409  10.780
37173W        W 9499   8.860  22.833  14.392
37174W        W 9500  12.920  41.950   4.247
37175W        W 9501   0.291  15.442   2.263
37176W        W 9502  16.143  42.606  13.755
37177W        W 9503  22.551   8.773  12.438
37178W        W 9504  35.794  39.330   4.567
37179W        W 9505  12.311  22.579  14.990
37180W        W 9506  24.544  23.321   3.351
37181W        W 9507  16.311  15.341  14.541
37182W        W 9508  13.197  37.336  10.683
37183W        W 9509   7.048  36.504  11.478
37184W        W 9510  42.965  14.811   1.278
37185W        W 9511   5.761  24.136  13.528
37186W        W 9512  22.175  40.591   3.709
37187W        W 9513  28.551  15.247   0.404
37188W        W 9514  21.523   8.735   1.826
37189W        W 9515  17.043  29.272   2.658
37190W        W 9516  15.648  41.936   4.341
37191W        W 9517  15.060  20.012   3.995
37192W        W 9518  33.592  21.464  12.502
37193W        W 9519   5.368  12.358   3.268
37194W        W 9520  26.361  18.067  12.231
37195W        W 9521  13.827  33.712   5.035
37196W        W 9522  43.602  39.775   2.833
37197W        W 9523   4.760   9.314  10.605
37198W        W 9524   5.903  33.853  12.516
37199W        W 9525  16.687  26.630  13.557
37200W        W 9526  17.086  25.588  13.982
37201W        W 9527  34.060  39.411   1.921
37202W        W 9528  25.055   6.889  13.832
37203W        W 9529   4.869  18.596   4.547
37204W        W 9530  37.877  13.187  11.136
37205W        W 9531  11.436  11.479  11.476
37206W        W 9532  10.244  39.370   3.649
37207W        W 9533  12.132  40.475   3.195
37208W        W 9534  17.658  19.895  10.668
37209W        W 9535   4.424  22.609  12.429
37210W        W 9536   1.836  25.289  12.829
37211W        W 9537  14.337  15.198   2.829
37212W        W 9538   3.184  43.009   3.255
37213W        W 9539  19.045  30.679  10.688
37214W        W 9540  20.727  42.283   3.901
37215W        W 9541   0.046  36.499   0.386
37216W        W 9542   9.128  37.504   2.204
37217W        W 9543   0.661  26.423   3.301
37218W        W 9544  37.948   8.390   4.416
37219W        W 9545   3.619  34.337  12.030
37220W        W 9546  26.149  37.181  13.394
37221W        W 9547  43.628  27.206  13.424
37222W        W 9548  10.085  22.037   0.515
37223W        W 9549  44.008  27.057   0.362
37224W        W 9550   7.501  21.745  13.513
37225W        W 9551   8.669  23.615   1.255
37226W        W 9552  39.124  43.187  11.465
37227W        W 9553  32.148  37.834  12.320
37228W        W 9554  32.701   9.191  14.427
37229W        W 9555  14.115  42.325  14.497
37230W        W 9556   3.735  20.392   0.726
37231W        W 9557  30.630  19.173   2.382
37232W        W 9558  23.432  40.999  13.787
37233W        W 9559   6.231  36.851   4.182
37234W        W 9560  35.068  13.645   2.358
37235W        W 9561  32.237  10.832   4.310
37236W        W 9562  22.944  39.847  12.494
37237W        W 9563   7.440   9.244  14.924
37238W        W 9564  32.022  15.617   4.125
37239W        W 9565   3.717  10.204  10.051
37240W        W 9566  35.813  22.632   0.709
37241W        W 9567  28.407   2.212  12.083
37242W        W 9568  38.550   5.503  13.445
37243W        W 9569  22.296   6.708   2.208
37244W        W 9570  41.777  14.519   2.924
37245W        W 9571  40.311  18.124  11.115
37246W        W 9572  26.058  38.308   2.772
37247W        W 9573   6.315   6.921   4.191
37248W        W 9574  35.332  17.708   2.333
37249W        W 9575  44.372  26.947  10.702
37250W        W 9576  20.176  36.532   0.994
37251W        W 9577   0.342  26.536  13.868
37252W        W 9578  15.305   8.852   5.083
37253W        W 9579  27.227   0.048   4.905
37254W        W 9580  19.642  28.636  11.831
37255W        W 9581  19.703   7.771  11.990
37256W        W 9582  24.471  24.756   0.444
37257W        W 9583  27.111  41.984  10.435
37258W        W 9584  30.993   4.674  11.205
37259W        W 9585   3.931  43.471  13.607
37260W        W 9586  31.404  43.348   2.284
37261W        W 9587   5.681  15.567   4.693
37262W        W 9588  28.464  17.484  11.595
37263W        W 9589  39.788  12.300   3.620
37264W        W 9590  26.987  43.987   0.720
37265W        W 9591  17.249  36.689   4.618
37266W        W 9592  32.449  14.759   3.838
37267W        W 9593  37.827  19.219  14.353
37268W        W 9594  14.635  38.803   2.774
37269W        W 9595  39.214   6.501  12.096
37270W        W 9596   6.554   0.897   5.110
37271W        W 9597  42.854   1.046   1.544
37272W        W 9598  39.237  30.501   1.410
37273W        W 9599  43.327  21.588   1.612
37274W        W 9600  17.988  41.057   1.322
37275W        W 9601  20.720  15.732  10.614
37276W        W 9602  33.501  35.420  11.549
37277W        W 9603  18.785   8.310   0.282
37278W        W 9604  30.909  25.599   4.530
37279W        W 9605  11.220  28.587  13.250
37280W        W 9606  14.384  22.730  11.090
37281W        W 9607  27.200   6.985   1.760
37282W        W 9608  23.406  37.392  14.246
37283W        W 9609  29.454  21.595  13.563
37284W        W 9610   2.986  40.833   0.293
37285W        W 9611  35.864  22.693   1.559
37286W        W 9612  42.846  41.775   3.668
37287W        W 9613  24.660   1.269  10.833
37288W        W 9614  40.495   3.680   0.724
37289W        W 9615  36.096  25.516  12.982
37290W        W 9616  43.067  24.223  12.442
37291W        W 9617  32.354  17.356   4.117
37292W        W 9618  13.608  21.750  14.964
37293W        W 9619   5.155   0.814  13.085
37294W        W 9620  26.666   3.968  12.967
37295W        W 9621  42.821  19.908   5.259
37296W        W 9622  23.101  25.028   0.474
37297W        W 9623   6.525  21.131   0.123
37298W        W 9624   7.859  17.293  11.002
37299W        W 9625  37.465  39.315   1.999
37300W        W 9626  44.819  14.128   2.305
37301W        W 9627  35.093  17.071  12.888
37302W        W 9628  11.075  11.188   3.808
37303W        W 9629   5.870  29.056  14.773
37304W        W 9630  41.787  25.919   0.346
37305W        W 9631   4.460  25.048  13.055
37306W        W 9632  12.222  36.811   1.302
37307W        W 9633  37.037  39.375   1.315
37308W        W 9634   4.884  33.389   0.701
37309W        W 9635  31.748  31.154  12.496
37310W        W 9636  26.506  21.147  10.890
37311W        W 9637  27.217  13.284   1.987
37312W        W 9638  25.546  20.532  13.763
37313W        W 9639   3.967  23.320  10.632
37314W        W 9640  11.152  28.557  14.276
37315W        W 9641  30.647  23.476   2.762
37316W        W 9642  40.600   4.446   1.292
37317W        W 9643   0.373   6.433   4.158
37318W        W 9644  29.606  15.950   3.286
37319W        W 9645  34.272   9.112   4.673
37320W        W 9646  19.581  32.968  12.555
37321W        W 9647  27.124  31.532   4.516
37322W        W 9648  19.476   2.490  11.795
37323W        W 9649  31.623  42.557  13.774
37324W        W 9650  24.544   9.175  13.190
37325W        W 9651  35.624  14.129   4.567
37326W        W 9652  29.247  29.149   3.415
37327W        W 9653  32.574  33.103   2.231
37328W        W 9654  39.787  22.979   1.750
37329W        W 9655  13.171  44.356   0.804
37330W        W 9656   7.408  43.356  13.476
37331W        W 9657   0.008   9.744  12.140
37332W        W 9658  41.950  38.465   4.094
37333W        W 9659  24.728   0.957   0.818
37334W        W 9660  23.621  42.767   0.818
37335W        W 9661  23.448  21.925  11.007
37336W        W 9662   8.408  22.265  10.941
37337W        W 9663  31.936  12.361  12.084
37338W        W 9664   5.784  12.362   0.026
37339W        W 9665  39.967   7.417   0.404
37340W        W 9666  44.995   8.461   1.993
37341W        W 9667  35.361  27.507  12.213
37342W        W 9668  32.291   2.456  14.935
37343W        W 9669  27.534   7.719  13.038
37344W        W 9670  39.116  22.053   4.915
37345W        W 9671  18.647  15.077   1.202
37346W        W 9672   6.347   9.397  10.960
37347W        W 9673  11.803  31.920  12.168
37348W        W 9674  38.402  33.628  13.535
37349W        W 9675  22.079  37.436   0.500
37350W        W 9676  35.493  39.325  14.292
37351W        W 9677   9.889  31.949  13.870
37352W        W 9678  11.266  31.029  11.875
37353W        W 9679  37.504  13.329   1.661
37354W        W 9680  42.928  22.234  11.972
37355W        W 9681  19.125  13.576  11.855
37356W        W 9682  27.309  10.637   1.461
37357W        W 9683  33.421   0.084   4.296
37358W        W 9684  40.831  42.746   3.113
37359W        W 9685  19.628   0.718   4.250
37360W        W 9686   5.098  21.749  13.457
37361W        W 9687  33.737   4.977   2.669
37362W        W 9688  22.240  12.669   4.566
37363W        W 9689  37.142   3.708  10.200
37364W        W 9690  37.891  11.273   3.603
37365W        W 9691   4.441   7.465  13.764
37366W        W 9692  11.689  29.505  13.061
37367W        W 9693   5.929  37.770  13.078
37368W        W 9694  33.086  19.609   4.688
37369W        W 9695  27.337  17.266   1.408
37370W        W 9696  14.643  35.349  13.341
37371W        W 9697  31.194  17.842  14.451
37372W        W 9698  18.803  18.261  11.580
37373W        W 9699  32.594   9.767   4.740
37374W        W 9700  33.341  42.354  11.545
37375W        W 9701  22.921   3.232  12.482
37376W        W 9702  28.161  27.547   2.899
37377W        W 9703   6.213  30.947  12.794
37378W        W 9704  24.126  26.906  13.345
37379W        W 9705   4.403   7.150   0.225
37380W        W 9706  20.070  30.051   4.202
37381W        W 9707  43.989  28.439   2.307
37382W        W 9708   9.550   6.220  12.109
37383W        W 9709  36.283  40.568   1.275
37384W        W 9710  39.311   9.245   3.338
37385W        W 9711  37.896  27.780  10.657
37386W        W 9712  15.807  29.098  11.498
37387W        W 9713   2.702  40.248   2.368
37388W        W 9714  24.348  33.337  13.173
37389W        W 9715  37.695  31.110  11.587
37390W        W 9716  33.508  35.534  14.021
37391W        W 9717  15.369   2.394   2.664
37392W        W 9718   1.321  21.269   4.976
37393W        W 9719  36.192  30.222   0.023
37394W        W 9720  32.117  26.202  13.646
37395W        W 9721  25.097  19.858   4.862
37396W        W 9722  42.728  23.936   0.046
37397W        W 9723  38.357  44.997  13.852
37398W        W 9724  18.562  18.738   2.386
37399W        W 9725  36.933  38.322   1.283
37400W        W 9726   1.146   2.991  14.847
37401W        W 9727  10.694  31.094  11.094
37402W        W 9728   3.431   7.538   0.287
37403W        W 9729  18.759  19.750  10.778
37404W        W 9730  22.519   0.518   0.715
37405W        W 9731  13.275  10.366   3.387
37406W        W 9732  29.473   7.841  12.962
37407W        W 9733   0.708  41.637  11.976
37408W        W 9734  26.139   9.053  10.937
37409W        W 9735  19.916   1.575  12.285
37410W        W 9736  23.142  19.214  12.852
37411W        W 9737  31.212  30.765  13.062
37412W        W 9738  11.875   6.169   0.164
37413W        W 9739  35.075  42.633  12.006
37414W        W 9740  22.535  26.503   1.326
37415W        W 9741  27.522   6.981   0.260
37416W        W 9742  34.139  30.818   2.374
37417W        W 9743  33.386  39.857  10.435
37418W        W 9744   4.910  43.451   0.178
37419W        W 9745  11.198   3.776  14.725
37420W        W 9746  25.681  43.382   2.693
37421W        W 9747   9.828   7.648   2.818
37422W        W 9748  25.539   5.312   3.748
37423W        W 9749  33.129  38.513   5.000
37424W        W 9750   2.596  15.483   0.153
37425W        W 9751  33.772  39.776  11.948
37426W        W 9752   4.434  24.015   4.413
37427W        W 9753  30.533   0.657  10.728
37428W        W 9754  23.745  17.160  13.583
37429W        W 9755  39.039  22.751  14.831
37430W        W 9756  39.974  13.609  14.343
37431W        W 9757  32.950  24.159   1.385
37432W        W 9758  42.534  44.390   1.832
37433W        W 9759  44.456  14.045  12.115
37434W        W 9760  44.827  36.450  14.396
37435W        W 9761  38.999  35.798  12.564
37436W        W 9762  29.048  38.774   2.847
37437W        W 9763  27.542  23.772  13.969
37438W        W 9764  36.161  20.518  11.951
37439W        W 9765  28.130  13.142  14.691
37440W        W 9766  14.172  34.931  12.092
37441W        W 9767  26.649   7.191   2.287
37442W        W 9768  16.727   9.656  10.368
37443W        W 9769  19.325  15.434   3.263
37444W        W 9770  38.672  16.920  10.425
37445W        W 9771   0.722   9.172   0.300
37446W        W 9772   6.360  31.832   4.161
37447W        W 9773  31.964  23.744   2.411
37448W        W 9774  27.926  21.204  14.436
37449W        W 9775  12.083  11.737  10.954
37450W        W 9776  20.591  40.320   1.208
37451W        W 9777  16.795  37.346  10.507
37452W        W 9778  25.458  29.603   4.059
37453W        W 9779  23.357  18.138   1.226
37454W        W 9780  43.864  13.410   0.286
37455W        W 9781  25.024   3.389  13.650
37456W        W 9782  17.110  23.179   0.225
37457W        W 9783  28.915  15.811   2.788
37458W        W 9784  19.731  24.709  13.939
37459W        W 9785  26.256  21.302   1.514
37460W        W 9786   5.773   4.220   2.388
37461W        W 9787  43.353   0.853   3.219
37462W        W 9788  11.296  29.642   1.568
37463W        W 9789  41.343  14.372  14.066
37464W        W 9790   2.760   7.620   3.669
37465W        W 9791  19.576  23.187   0.541
37466W        W 9792   8.799  24.521   2.717
37467W        W 9793   0.962  41.227  11.747
37468W        W 9794  40.968   3.738   2.948
37469W        W 9795   6.683  30.377   3.369
37470W        W 9796  17.682  40.568   1.182
37471W        W 9797   6.206  41.515  11.604
37472W        W 9798  30.166  33.621   3.772
37473W        W 9799  26.972  35.346   2.313
37474W        W 9800  30.516  22.623  11.634
37475W        W 9801  41.560  34.360  11.517
37476W        W 9802  16.712  22.469   0.188
37477W        W 9803  43.125  30.300  11.990
37478W        W 9804   3.734  11.784  14.811
37479W        W 9805  31.350  27.041   4.722
37480W        W 9806  16.186   6.159   3.255
37481W        W 9807  29.061  19.198  11.590
37482W        W 9808  41.709   0.527  13.925
37483W        W 9809  11.460  35.785   1.828
37484W        W 9810   6.710   6.796   4.516
37485W        W 9811  34.882   1.861  13.066
37486W        W 9812  30.592  32.827   0.502
37487W        W 9813   6.633  30.010  11.988
37488W        W 9814  40.880  13.599   0.834
37489W        W 9815   7.671  23.790  10.351
37490W        W 9816  29.208  16.199  14.050
37491W        W 9817  23.433  28.002  13.827
37492W        W 9818  21.625  26.438  14.860
37493W        W 9819  13.306  11.622  13.670
37494W        W 9820  10.513   8.220  12.012
37495W        W 9821  27.247   2.242   4.198
37496W        W 9822  36.439  14.246  13.011
37497W        W 9823  42.905  40.779   0.790
37498W        W 9824  26.239  42.728   0.296
37499W        W 9825  30.619  27.092  13.600
37500W        W 9826  15.517   0.728   2.285
37501W        W 9827  19.968  30.938   9.736
37502W        W 9828  36.827  17.529   1.341
37503W        W 9829  40.145  42.525   0.169
37504W        W 9830   3.882  37.410   4.593
37505W        W 9831  23.650  39.047   2.836
37506W        W 9832  10.322  41.286  13.969
37507W        W 9833   7.265  41.851   3.287
37508W        W 9834  39.366  14.674  13.140
37509W        W 9835  36.026  27.699  12.511
37510W        W 9836   9.514  14.110  14.427
37511W        W 9837  36.867  15.465   3.456
37512W        W 9838  40.350  22.065  12.963
37513W        W 9839  12.075  28.699   0.774
37514W        W 9840  27.525   2.674   4.606
37515W        W 9841  42.419  24.329  13.307
37516W        W 9842   1.985  11.659  12.012
37517W        W 9843  38.596  19.626  14.598
37518W        W 9844   8.169  42.881  11.679
37519W        W 9845   4.253  42.187  11.489
37520W        W 9846  28.183  42.523   3.468
37521W        W 9847  39.405   6.360   0.686
37522W        W 9848  18.967  15.810   3.220
37523W        W 9849  28.185   5.253  11.954
37524W        W 9850  28.808  14.844  10.609
37525W        W 9851  17.196  31.621  14.378
37526W        W 9852  13.318  12.665  11.314
37527W        W 9853  28.638  22.792   1.304
37528W        W 9854  23.688  18.728  13.399
37529W        W 9855  22.478  40.037  12.321
37530W        W 9856  17.970   5.247   1.771
37531W        W 9857  23.028  25.218  13.096
37532W        W 9858  15.782  18.323   2.313
37533W        W 9859  31.053   0.691  14.229
37534W        W 9860  35.207   4.837   1.602
37535W        W 9861  42.831   9.785   3.198
37536W        W 9862  16.399  24.774  13.440
37537W        W 9863  12.359  11.405  13.828
37538W        W 9864   3.261  17.540   3.162
37539W        W 9865  29.845   3.889   2.720
37540W        W 9866  17.351   8.714  13.989
37541W        W 9867   9.232   5.392  11.459
37542W        W 9868  27.085  31.051  14.906
37543W        W 9869  41.604  40.188  10.959
37544W        W 9870  38.026   1.879  14.748
37545W        W 9871  12.973  24.678   0.203
37546W        W 9872   5.475  31.577  12.508
37547W        W 9873  26.480  28.122  12.083
37548W        W 9874  29.438  28.942  13.826
37549W        W 9875   0.897  41.091   4.635
37550W        W 9876  28.122   8.236  12.527
37551W        W 9877  28.672  28.457  11.420
37552W        W 9878   8.887  32.416  14.932
37553W        W 9879   2.898  12.049   5.593
37554W        W 9880   9.359  23.488   3.650
37555W        W 9881  13.642  12.629   1.843
37556W        W 9882  27.607  36.100  10.630
37557W        W 9883  25.732   3.617   2.024
37558W        W 9884  15.706  42.127  14.918
37559W        W 9885  13.714  17.402  12.854
37560W        W 9886   0.390   9.437   0.643
37561W        W 9887  11.100  29.587  13.132
37562W        W 9888  29.398  19.585   3.744
37563W        W 9889  12.732  23.742  13.882
37564W        W 9890  37.441  16.683   4.461
37565W        W 9891  23.285  19.670  13.615
37566W        W 9892   9.271   7.778   0.687
37567W        W 9893   2.778   1.389   4.134
37568W        W 9894  22.703  43.586   2.317
37569W        W 9895  15.559  18.967   0.535
37570W        W 9896  15.051  36.364  14.259
37571W        W 9897   2.810  43.508  12.849
37572W        W 9898  15.464  23.428   1.477
37573W        W 9899  32.150  37.897   4.523
37574W        W 9900  14.206  26.611   2.152
37575W        W 9901  19.467  22.757  14.655
37576W        W 9902  16.307  11.831  11.511
37577W        W 9903  41.767   8.684   5.050
37578W        W 9904   3.684  44.772   3.791
37579W        W 9905   9.939  31.651   3.692
37580W        W 9906  40.301  40.583  11.982
37581W        W 9907  25.511  19.053   4.427
37582W        W 9908  33.915  22.697   2.712
37583W        W 9909   9.780   2.825   0.442
37584W        W 9910   5.176  40.954  11.081
37585W        W 9911  15.115  35.789  11.665
37586W        W 9912  42.010   0.863  10.343
37587W        W 9913  15.836  32.390   0.830
37588W        W 9914   6.829  39.487  13.516
37589W        W 9915  28.478   8.701  14.522
37590W        W 9916  35.518  19.808  12.094
37591W        W 9917   6.492   7.680  13.744
37592W        W 9918  35.997   3.701  12.473
37593W        W 9919  27.139   3.732  12.077
37594W        W 9920  33.399  35.088   1.716
37595W        W 9921   0.842  11.101   5.493
37596W        W 9922  11.086   8.014   4.132
37597W        W 9923  19.669   3.288   2.922
37598W        W 9924  20.749  21.684   3.253
37599W        W 9925   6.648  31.629   1.431
37600W        W 9926   8.185  35.138   3.690
37601W        W 9927  27.934  20.173   2.677
37602W        W 9928  13.236  43.013  13.072
37603W        W 9929  29.589   1.955  12.466
37604W        W 9930  17.525   7.855  10.677
37605W        W 9931  32.415   9.359   2.881
37606W        W 9932   1.289  18.988  13.889
37607W        W 9933  38.068  15.798  13.473
37608W        W 9934  42.497   3.729  14.973
37609W        W 9935   1.471  18.646   2.601
37610W        W 9936   2.396  41.573  14.448
37611W        W 9937   4.849  34.600  12.991
37612W        W 9938  42.907   2.874   3.266
37613W        W 9939  13.328  41.977  11.203
37614W        W 9940  32.636   3.823  12.019
37615W        W 9941  39.946   6.265  12.520
37616W        W 9942   2.917  20.312  12.699
37617W        W 9943   1.889   1.278  12.969
37618W        W 9944  42.896   0.973   2.952
37619W        W 9945  20.333   8.922  12.005
37620W        W 9946  15.734  41.301  12.357
37621W        W 9947  20.071  28.012   2.680
37622W        W 9948  36.513  44.441   0.629
37623W        W 9949  19.834  28.720  13.261
37624W        W 9950  16.118   9.109   0.490
37625W        W 9951  30.013  37.896   3.094
37626W        W 9952  17.313   1.650  14.386
37627W        W 9953   5.934  41.873  14.851
37628W        W 9954   0.647   3.772  12.090
37629W        W 9955  26.910  35.435   0.349
37630W        W 9956  29.980  26.690  13.749
37631W        W 9957   2.457  13.028  13.964
37632W        W 9958  19.266  10.638   2.863
37633W        W 9959   0.784  30.562   2.183
37634W        W 9960   6.376   0.589  12.976
37635W        W 9961  19.046   5.272   0.010
37636W        W 9962  44.008   4.795  12.554
37637W        W 9963  24.187  42.424  12.410
37638W        W 9964  26.993  36.141  13.863
37639W        W 9965  16.792  14.548  14.495
37640W        W 9966  11.693   6.476  12.797
37641W        W 9967   7.977   4.882   0.300
37642W        W 9968  39.787  25.898  11.201
37643W        W 9969  16.729   0.005  13.508
37644W        W 9970  21.477  17.217   2.153
37645W        W 9971  10.223  10.085  14.123
37646W        W 9972   6.886  38.163   2.765
37647W        W 9973  26.146   5.636  14.916
37648W        W 9974   5.531  35.108   2.051
37649W        W 9975   9.344   8.080  13.380
37650W        W 9976  21.562  25.758   4.811
37651W        W 9977  11.710  16.150   3.705
37652W        W 9978  18.059  36.398  14.101
37653W        W 9979  39.619  19.748  13.971
37654W        W 9980  21.584  29.372  13.513
37655W        W 9981  14.308  11.923   3.266
37656W        W 9982  34.433  16.561  14.916
37657W        W 9983   7.449  10.828   2.570
37658W        W 9984  23.202   4.015  11.930
37659W        W 9985  12.676  29.636   2.774
37660W        W 9986  23.037  30.159   2.523
37661W        W 9987  29.678  40.823   3.831
37662W        W 9988  32.904   9.060  12.430
37663W        W 9989   0.878   2.452   1.601
37664W        W 9990  31.124  19.668   2.846
37665W        W 9991  42.984  17.237  13.760
37666W        W 9992  42.542   0.027  12.847
37667W        W 9993  31.523  12.121   2.948
37668W        W 9994  25.733  25.011   4.594
37669W        W 9995  19.931   4.781   2.129
37670W        W 9996  30.084   2.924   4.603
37671W        W 9997  44.524  40.370   2.805
37672W        W 9998   7.675  30.903   0.899
37673W        W 9999  15.777  22.126  14.862
37674W        W10000  44.488  19.974  12.147
37675W        W10001  41.447  19.503  13.891
37676W        W10002  35.014  28.969  11.690
37677W        W10003   8.872  34.313   2.703
37678W        W10004   9.330  33.109   3.212
37679W        W10005  20.672  20.298  11.896
37680W        W10006  33.466  39.260  14.712
37681W        W10007  22.008  24.468   3.759
37682W        W10008  21.363  22.914   1.394
37683W        W10009   3.406  15.236  11.208
37684W        W10010   4.772  31.408   3.772
37685W        W10011  43.476   0.158  10.757
37686W        W10012   8.879   8.910  12.070
37687W        W10013  31.984  23.611  13.942
37688W        W10014  16.597  16.293   0.832
37689W        W10015  18.654   0.719   4.719
37690W        W10016  16.100  27.645   1.374
37691W        W10017  20.956  28.928  12.976
37692W        W10018   2.322  23.525  10.244
37693W        W10019  25.567  22.662   3.215
37694W        W10020  10.208  41.059   9.882
37695W        W10021  17.791   3.451  11.017
37696W        W10022   3.084  25.912  14.306
37697W        W10023  10.659  21.233  14.425
37698W        W10024   5.277  23.362  12.484
37699W        W10025   3.674   1.678   1.433
37700W        W10026   5.123   0.245   4.036
37701W        W10027   5.150  11.679  11.191
37702W        W10028  41.296  13.370  13.977
37703W        W10029   4.275  42.303  10.488
37704W        W10030  10.273  41.519   1.852
37705W        W10031  25.890  36.997   3.076
37706W        W10032  10.337  14.572   4.286
37707W        W10033  12.018  16.690   3.218
37708W        W10034  35.064   0.436   3.448
37709W        W10035   3.389  37.622   4.586
37710W        W10036  24.933  30.333   4.765
37711W        W10037  34.375  25.347   2.484
37712W        W10038  31.773  10.651   4.181
37713W        W10039  30.491   1.363   3.648
37714W        W10040  14.337  41.323   4.750
37715W        W10041   7.251  17.647   2.729
37716W        W10042  30.916  15.624   0.877
37717W        W10043  14.719  40.553   4.593
37718W        W10044  19.339  21.152  12.470
37719W        W10045  22.457  13.023   0.702
37720W        W10046  33.773  29.209   2.496
37721W        W10047  27.138  31.410   2.336
37722W        W10048  38.653  33.040  14.568
37723W        W10049  18.100  15.656  13.125
37724W        W10050  18.210   8.918  12.466
37725W        W10051  31.926  35.057  14.923
37726W        W10052   6.773   1.070  12.337
37727W        W10053  30.624  17.235  10.446
37728W        W10054   2.322  38.117   2.717
37729W        W10055  10.411  29.242  14.354
37730W        W10056   3.387   3.311  10.614
37731W        W10057  25.380   6.696   1.952
37732W        W10058   7.455  44.392   2.198
37733W        W10059   7.345  19.290   2.414
37734W        W10060  14.699   1.821  13.993
37735W        W10061  28.269  37.598  10.789
37736W        W10062   3.292  42.823   2.309
37737W        W10063  13.728  43.704   2.894
37738W        W10064   5.304   8.977  14.958
37739W        W10065  12.676  43.113   2.718
37740W        W10066  42.044  17.378  14.852
37741W        W10067  31.106  30.110   1.424
37742W        W10068   9.363  16.121  14.431
37743W        W10069  24.580   0.343  12.824
37744W        W10070  23.599  44.084  12.755
37745W        W10071  31.464  40.326   1.111
37746W        W10072  24.588  42.546   3.882
37747W        W10073  24.827   1.773  11.656
37748W        W10074  17.845  39.566   1.360
37749W        W10075  37.960  27.243  13.391
37750W        W10076  11.824  28.074   2.906
37751W        W10077   2.817  36.609   1.740
37752W        W10078  16.841  39.542   2.741
37753W        W10079  26.924  40.985   1.532
37754W        W10080  22.775  38.015  11.680
37755W        W10081  31.727  15.535   2.158
37756W        W10082  26.587  21.198  13.934
37757W        W10083  44.463  15.199  11.077
37758W        W10084  28.016  31.024  14.019
37759W        W10085  35.294  35.652   0.909
37760W        W10086  23.924  44.372  13.463
37761W        W10087  15.480  10.698  14.926
37762W        W10088  29.366  17.296   0.431
37763W        W10089  39.206  12.817   3.749
37764W        W10090  33.526   3.695   1.365
37765W        W10091   9.594  11.740   4.883
37766W        W10092  42.732  27.534   4.072
37767W        W10093  38.442  39.656   0.262
37768W        W10094  44.310  38.301  13.791
37769W        W10095  13.645  23.252   1.663
37770W        W10096  10.093  28.015  10.635
37771W        W10097  18.677  43.124  12.516
37772W        W10098   4.080  24.449   3.790
37773W        W10099   3.736   6.343   3.903
37774W        W10100   8.687  32.843  14.668
37775W        W10101  29.673  21.008   1.900
37776W        W10102  34.964  35.659   1.913
37777W        W10103  34.128  31.127  11.171
37778W        W10104  36.773  39.993   2.305
37779W        W10105  41.977  12.938  10.904
37780W        W10106  29.988  24.955  11.526
37781W        W10107  14.624  41.878  13.304
37782W        W10108   5.379   6.289   2.928
37783W        W10109   3.344  43.524   4.404
37784W        W10110   3.475   9.798   1.421
37785W        W10111  18.560   1.034   4.291
37786W        W10112  37.368  22.771   1.791
37787W        W10113  32.013   5.347  12.857
37788W        W10114  26.579  39.219   3.211
37789W        W10115   2.297   4.268   9.755
37790W        W10116  37.321  38.089  13.628
37791W        W10117   4.458   3.882   0.342
37792W        W10118  40.982  40.826  13.995
37793W        W10119  26.246  27.238   3.316
37794W        W10120  42.885  28.234  14.424
37795W        W10121   1.395  27.538  13.592
37796W        W10122   4.692  26.907   0.012
37797W        W10123  23.649  27.543   2.166
37798W        W10124  24.127  28.472  12.492
37799W        W10125  20.438   1.627  11.992
37800W        W10126  31.422  12.242   0.985
37801W        W10127  36.822   9.881  11.048
37802W        W10128  11.871  38.189   4.107
37803W        W10129  35.093   7.477   0.976
37804W        W10130   8.324   9.078   4.927
37805W        W10131  33.617  25.097   0.004
37806W        W10132  23.716   1.816   4.295
37807W        W10133  42.484  21.584   4.467
37808W        W10134  36.404  25.689  13.497
37809W        W10135   3.150   1.436  11.585
37810W        W10136   0.515  21.874  13.882
37811W        W10137  43.866  12.363   2.704
37812W        W10138  41.743  38.065  14.797
37813W        W10139  43.755   0.685   3.879
37814W        W10140  11.980  33.592  13.929
37815W        W10141  27.194  33.514   2.168
37816W        W10142   0.824   9.117  13.057
37817W        W10143  20.599  37.416   4.668
37818W        W10144   2.462  28.916  12.484
37819W        W10145  13.078  42.343   2.206
37820W        W10146  41.332  11.630  14.565
37821W        W10147  40.421   8.912  14.968
37822W        W10148  19.828  24.449   2.646
37823W        W10149   0.400  22.694   3.732
37824W        W10150  18.098  28.655  10.716
37825W        W10151  19.189  37.247   4.138
37826W        W10152  34.070   1.961  12.503
37827W        W10153  28.495  44.437   4.383
37828W        W10154  20.450   8.687   0.257
37829W        W10155  40.394  34.194  13.341
37830W        W10156  23.977   0.405   3.820
37831W        W10157  44.713  14.340   2.814
37832W        W10158  29.170  20.964   1.807
37833W        W10159  18.207  13.291  10.725
37834W        W10160  23.670  41.100  12.864
37835W        W10161   3.808  17.320  10.613
37836W        W10162  15.429  36.489  13.247
37837W        W10163   4.390  10.222   4.169
37838W        W10164   5.325  26.714  14.946
37839W        W10165  43.906  14.064  13.894
37840W        W10166   0.530  23.306   5.584
37841W        W10167   3.458  26.585   0.086
37842W        W10168   4.821  20.030  10.609
37843W        W10169  34.354   0.738  11.121
37844W        W10170  11.066  22.680  10.425
37845W        W10171  18.309  15.721   4.341
37846W        W10172   3.036  40.202  13.814
37847W        W10173  16.843  10.558   3.316
37848W        W10174  32.125  38.966   3.253
37849W        W10175   6.840   9.187  11.071
37850W        W10176  33.724  10.106   4.191
37851W        W10177  10.273  42.386  11.881
37852W        W10178   8.825  42.009  11.092
37853W        W10179  17.072  40.927  12.444
37854W        W10180  12.865  15.787  11.066
37855W        W10181  28.162   9.897  11.917
37856W        W10182  26.510   5.515   3.758
37857W        W10183  11.771  19.543   1.668
37858W        W10184  13.317  43.386   3.959
37859W        W10185  38.069  10.886  14.928
37860W        W10186  35.430   3.417  11.105
37861W        W10187   4.937   0.170  11.507
37862W        W10188  42.771  23.084  14.780
37863W        W10189  18.349  30.609  14.301
37864W        W10190  33.460   0.953   0.928
37865W        W10191  14.638  25.773  11.559
37866W        W10192   0.334   4.646  12.933
37867W        W10193  44.933  36.530   1.343
37868W        W10194  40.503  20.124  14.925
37869W        W10195  29.031  22.992   2.011
37870W        W10196  41.926  20.080  13.345
37871W        W10197  39.620  40.447  13.285
37872W        W10198   6.222  20.055  12.504
37873W        W10199  29.404  26.660   2.277
37874W        W10200  23.518   6.587   4.278
37875W        W10201  12.737   1.486   3.308
37876W        W10202  41.447  11.122  14.533
37877W        W10203  16.781   1.168   1.406
37878W        W10204  12.132  42.511   4.100
37879W        W10205  43.443   6.692  14.361
37880W        W10206  11.733   1.344   1.400
37881W        W10207  20.483  35.576  12.995
37882W        W10208  20.846  10.383   0.736
37883W        W10209  20.444   3.287  11.157
37884W        W10210  37.255  40.209  14.715
37885W        W10211  38.818  18.953   2.455
37886W        W10212  16.671  22.448   1.531
37887W        W10213   9.384  18.501   2.891
37888W        W10214  32.492  44.714   2.826
37889W        W10215  42.132  41.725   0.327
37890W        W10216  27.693  43.298   5.011
37891W        W10217  28.458  17.713   1.914
37892W        W10218  19.240  27.924   4.316
37893W        W10219   7.359  16.595   1.846
37894W        W10220  14.320  25.986   3.247
37895W        W10221  21.777  21.329  14.941
37896W        W10222  43.407  15.091   1.394
37897W        W10223  20.619  19.672   1.257
37898W        W10224   9.656  40.561  12.074
37899W        W10225  33.982  23.160  14.005
37900W        W10226  17.564  16.969  11.145
37901W        W10227  39.552  39.673  13.722
37902W        W10228  43.000  40.412  12.497
37903W        W10229   1.738  33.441  10.605
37904W        W10230  42.547   8.757   4.368
37905W        W10231  32.095  16.429  13.991
37906W        W10232   8.364  33.992   2.267
37907W        W10233  44.838  17.022   1.143
37908W        W10234  34.934   3.491  10.892
37909W        W10235  11.589   3.293   4.186
37910W        W10236  28.888  41.980   1.712
37911W        W10237  28.887   3.539  11.601
37912W        W10238   4.232  21.178  11.559
37913W        W10239  23.402  34.665   3.152
37914W        W10240  29.231  25.030  14.423
37915W        W10241  34.892  36.057   1.594
37916W        W10242  43.802   7.041  14.442
37917W        W10243  38.611  14.007   0.766
37918W        W10244  28.058   3.459   3.702
37919W        W10245  13.295  21.547  10.312
37920W        W10246  43.993  26.617  10.854
37921W        W10247   6.257  39.729  13.351
37922W        W10248  42.396   6.992   4.590
37923W        W10249  26.450   9.611  14.800
37924W        W10250  15.733  37.349   0.165
37925W        W10251  29.552   2.903   4.562
37926W        W10252  23.756  20.698  14.320
37927W        W10253  44.147  15.383  14.071
37928W        W10254  43.879   9.171  12.890
37929W        W10255  31.331   3.820  14.441
37930W        W10256  22.445  16.676   2.683
37931W        W10257  21.678  41.332  12.450
37932W        W10258   8.169  39.240  14.688
37933W        W10259  23.182  35.764  14.312
37934W        W10260   5.323  23.842   1.138
37935W        W10261  29.092  25.628   2.043
37936W        W10262  21.195  28.468  12.819
37937W        W10263  34.874  21.302  14.785
37938W        W10264  31.749  40.881  12.077
37939W        W10265  11.083   8.228  14.239
37940W        W10266  26.688   2.072  12.390
37941W        W10267  20.821  19.579  14.472
37942W        W10268  31.661  25.971   4.675
37943W        W10269  28.970  38.812   4.234
37944W        W10270  19.417  19.357  14.845
37945W        W10271  14.959  27.285  10.639
37946W        W10272  42.259  39.477   4.325
37947W        W10273  26.944   9.264  12.159
37948W        W10274  15.507   5.710   1.278
37949W        W10275   2.468   4.332   1.178
37950W        W10276   2.376  44.732   1.458
37951W        W10277  10.412   3.666  10.772
37952W        W10278  27.194  44.421   1.671
37953W        W10279  25.236  34.005  12.405
37954W        W10280  37.903  35.082  14.888
37955W        W10281  39.481  26.180   2.828
37956W        W10282   9.572  30.018  14.849
37957W        W10283  32.255  40.827   0.701
37958W        W10284  13.265  27.252  13.514
37959W        W10285  12.138   6.849   4.626
37960W        W10286   9.271  15.213   1.784
37961W        W10287  33.795  44.884   2.591
37962W        W10288   9.237  24.939   0.435
37963W        W10289   4.150  22.650   2.592
37964W        W10290  23.545  24.183   1.905
37965W        W10291   2.828  19.043  13.845
37966W        W10292   6.828  14.604   2.281
37967W        W10293   5.350   4.516   1.314
37968W        W10294  23.471  16.549   1.841
37969W        W10295   5.776  30.399  12.374
37970W        W10296  28.890  29.053  10.427
37971W        W10297  21.032  25.635  10.366
37972W        W10298  44.800   4.456   1.793
37973W        W10299   6.744  30.759   0.960
37974W        W10300  26.994  39.415   2.372
37975W        W10301  31.933  14.579   4.573
37976W        W10302  33.054  38.454   4.469
37977W        W10303  42.875  25.271   2.248
37978W        W10304   5.325  13.091   0.325
37979W        W10305  21.330  30.586   1.912
37980W        W10306  28.655  16.628  12.879
37981W        W10307  29.994  41.834  10.751
37982W        W10308   1.696  21.033   0.740
37983W        W10309   3.713   6.218   2.180
37984W        W10310  34.137  37.293   9.995
37985W        W10311  11.211  43.719   3.268
37986W        W10312   6.767  33.437  12.547
37987W        W10313  16.536   7.569  10.784
37988W        W10314  43.885  22.847   2.387
37989W        W10315  42.859  24.172   0.497
37990W        W10316  25.265   1.397   0.367
37991W        W10317  35.983  16.622  14.495
37992W        W10318  40.818  30.510  11.228
37993W        W10319  20.736  26.600   2.801
37994W        W10320  25.907  44.380   0.353
37995W        W10321  12.127  38.886   1.680
37996W        W10322  24.755  19.654  11.505
37997W        W10323   6.519  18.717   3.367
37998W        W10324   1.433  36.480   0.931
37999W        W10325  28.472  25.060   2.104
38000W        W10326   0.491  10.148   1.208
38001W        W10327  42.047  22.544  10.539
38002W        W10328  15.131  25.982  10.383
38003W        W10329  40.850  24.833   0.933
38004W        W10330  39.031  34.084  12.538
38005W        W10331  33.938  32.543   1.173
38006W        W10332  43.779  24.117   1.839
38007W        W10333   7.240  35.366   2.011
38008W        W10334  13.784  12.823  13.442
38009W        W10335  11.197   4.504   4.870
38010W        W10336   8.234  42.733  10.701
38011W        W10337  43.908  41.951  10.419
38012W        W10338  44.577  40.873   2.802
38013W        W10339  24.948  44.448   0.453
38014W        W10340  43.127  20.990  10.104
38015W        W10341  12.600  15.024  13.025
38016W        W10342  33.784  33.057  12.908
38017W        W10343  41.511  41.942   2.880
38018W        W10344  21.713  36.403  10.752
38019W        W10345  43.588  32.953   0.240
38020W        W10346  28.940  17.264   1.290
38021W        W10347  15.143  23.198  11.046
38022W        W10348  35.853  20.769  12.281
38023W        W10349   0.167   3.289   4.696
38024W        W10350  15.325  19.411  14.359
38025W        W10351  39.842  30.228   3.061
38026W        W10352  18.654  41.384   0.396
38027W        W10353  14.476  30.243   2.594
38028W        W10354   6.361   9.693   2.203
38029W        W10355  40.503  15.634  13.440
38030W        W10356  26.625  32.917  12.941
38031W        W10357  43.012   8.734   4.100
38032W        W10358   1.649   1.829   1.394
38033W        W10359   0.241   6.238  13.365
38034W        W10360   9.869  12.647  14.422
38035W        W10361  42.811  19.573  11.619
38036W        W10362   3.671  35.194  13.943
38037W        W10363  44.830  12.692  11.229
38038W        W10364  10.393  34.092   4.310
38039W        W10365   7.183   8.329   2.179
38040W        W10366   2.707  19.019  14.767
38041W        W10367  24.024  39.559  14.331
38042W        W10368  27.980  27.034   1.425
38043W        W10369  29.021  11.657   2.799
38044W        W10370  32.371  11.257   3.577
38045W        W10371   8.991   7.840  11.943
38046W        W10372  20.313   6.777   3.671
38047W        W10373   2.918  37.375   4.590
38048W        W10374  38.594  34.354  13.072
38049W        W10375   4.439  31.049   2.469
38050W        W10376  43.918   5.301  13.755
38051W        W10377  25.398  12.631  10.777
38052W        W10378  30.556  30.963  11.911
38053W        W10379  15.539   7.219   2.659
38054W        W10380  39.279  36.493  12.320
38055W        W10381   0.024  29.956   4.936
38056W        W10382   6.268   4.705  11.973
38057W        W10383  37.901  10.178   5.257
38058W        W10384  20.210  42.456   3.725
38059W        W10385   8.983  14.222  14.427
38060W        W10386   3.055  29.989  11.213
38061W        W10387  44.035  28.651  12.463
38062W        W10388  29.368  24.268  12.123
38063W        W10389  28.122  27.662  13.987
38064W        W10390  16.397  22.752   4.309
38065W        W10391  13.576  27.403  10.491
38066W        W10392  30.708  23.889   0.678
38067W        W10393  15.091   3.451   4.400
38068W        W10394   4.866  20.716   3.527
38069W        W10395  24.711  25.409   1.434
38070W        W10396  22.972   7.705   1.837
38071W        W10397  25.684  22.212   2.364
38072W        W10398  17.697  27.461  11.642
38073W        W10399  25.934  33.887   4.896
38074W        W10400  27.075  29.713   3.285
38075W        W10401   8.896   8.177  10.705
38076W        W10402  41.064   1.516   2.826
38077W        W10403  20.161  39.113  13.449
38078W        W10404  30.547  24.730  12.654
38079W        W10405  30.601   0.515   2.395
38080W        W10406   4.828   5.794   0.489
38081W        W10407  28.121  40.365  11.870
38082W        W10408  42.953  10.035   2.745
38083W        W10409  27.183  27.987  13.437
38084W        W10410  28.723  29.884   2.312
38085W        W10411  23.623   2.861  11.539
38086W        W10412  33.103  17.514  11.077
38087W        W10413  43.849  17.389  14.807
38088W        W10414  11.639  43.385  10.842
38089W        W10415  35.063   0.776  13.068
38090W        W10416  38.899  12.448   5.244
38091W        W10417   2.832  15.474  12.080
38092W        W10418  11.822  41.939   1.957
38093W        W10419  16.032   4.219   2.083
38094W        W10420  30.569  29.591  11.666
38095W        W10421   5.319  23.121   2.307
38096W        W10422  32.529   7.776  14.095
38097W        W10423   1.266  36.469  10.765
38098W        W10424   2.775   5.044  10.591
38099W        W10425  13.195  34.430   2.315
38100W        W10426  32.442  21.143   0.582
38101W        W10427   4.817  10.096   3.664
38102W        W10428  16.280  44.420   3.292
38103W        W10429  20.436   7.822   0.072
38104W        W10430  11.719   6.340  14.689
38105W        W10431  34.965   1.048   1.634
38106W        W10432  40.812  41.542  12.538
38107W        W10433  42.890   6.930  11.606
38108W        W10434  17.291  16.621   3.317
38109W        W10435   0.410  36.889   0.472
38110W        W10436  39.235  17.297  13.889
38111W        W10437  20.242  23.445   1.781
38112W        W10438  18.730  37.545   1.061
38113W        W10439  39.918  32.708   3.823
38114W        W10440   4.932  36.191  11.985
38115W        W10441  42.001  23.779  11.047
38116W        W10442   7.292  13.194  14.431
38117W        W10443   9.780   3.277   1.273
38118W        W10444   2.184  24.380  12.895
38119W        W10445  41.057  18.535   2.330
38120W        W10446  14.846  40.465  11.355
38121W        W10447  13.576   8.636   2.533
38122W        W10448  26.218   2.866   3.267
38123W        W10449  26.173  34.049  10.705
38124W        W10450  44.657  13.309   4.608
38125W        W10451   2.489   2.436  11.007
38126W        W10452  39.581  18.558   1.207
38127W        W10453   4.708   7.546   0.504
38128W        W10454   8.737  37.512  10.673
38129W        W10455  14.128  15.729   1.540
38130W        W10456  19.738  36.690  12.138
38131W        W10457   0.325  36.360  12.179
38132W        W10458  23.180   1.369   1.185
38133W        W10459   0.021   8.692   3.741
38134W        W10460  33.513   2.408  12.447
38135W        W10461  21.989  20.476   4.504
38136W        W10462   2.805  42.515   0.690
38137W        W10463  34.291  32.176  13.995
38138W        W10464   5.757  23.225   4.279
38139W        W10465  16.083  24.629  12.059
38140W        W10466  29.832   6.420  13.444
38141W        W10467  44.288  13.713  13.962
38142W        W10468  11.313  40.231  12.548
38143W        W10469  34.029  35.252  12.407
38144W        W10470  34.392  19.578   3.308
38145W        W10471  44.036  35.543   0.109
38146W        W10472  32.315  25.091   1.897
38147W        W10473  17.605  20.215  14.937
38148W        W10474   9.931  32.349  14.838
38149W        W10475  34.362   4.414  14.482
38150W        W10476  16.843  39.124  13.888
38151W        W10477  32.747   1.741   1.478
38152W        W10478  37.850   3.063  11.515
38153W        W10479  13.929  29.012   2.586
38154W        W10480   1.429   3.722   5.142
38155W        W10481  23.217   9.416  11.561
38156W        W10482  44.020  23.068   0.282
38157W        W10483   1.975   3.387  13.359
38158W        W10484  34.589  20.053   3.229
38159W        W10485  30.598   2.856  14.696
38160W        W10486  39.948  41.822   4.535
38161W        W10487  35.635  34.302  13.578
38162W        W10488  16.703  31.415   1.439
38163W        W10489  28.003  30.083   4.241
38164W        W10490  31.603  39.512   3.725
38165W        W10491   0.876  43.628  14.797
38166W        W10492  24.518  24.655   3.212
38167W        W10493  32.147   6.456  11.538
38168W        W10494  27.749  15.108   1.582
38169W        W10495  41.027  20.590   1.425
38170W        W10496  31.411  22.485   0.536
38171W        W10497  30.047   8.645  12.053
38172W        W10498  32.857   4.985  10.987
38173W        W10499  42.290  11.365   0.013
38174W        W10500  12.251  20.084   2.664
38175W        W10501   9.403  24.513  11.474
38176W        W10502  28.983  26.967   0.900
38177W        W10503  24.490  28.113   1.580
38178W        W10504   2.192   0.899  13.204
38179W        W10505  26.009  29.355  14.637
38180W        W10506  27.223  32.585   4.789
38181W        W10507  28.083   9.744  10.393
38182W        W10508  34.068  24.889  11.204
38183W        W10509   8.905  41.336  12.555
38184W        W10510  13.348  11.663   1.851
38185W        W10511  10.925   0.491  13.392
38186W        W10512  37.419  33.426   4.164
38187W        W10513  40.888  25.956   0.376
38188W        W10514   1.825  24.528   0.911
38189W        W10515  19.964   4.541  11.914
38190W        W10516  40.678   1.197   3.113
38191W        W10517  36.017  43.914  11.528
38192W        W10518   7.485  13.396   4.231
38193W        W10519   9.931  17.654   3.405
38194W        W10520  44.784   6.206   0.326
38195W        W10521  32.557  13.514  12.430
38196W        W10522  24.500  23.530  14.233
38197W        W10523  40.046  10.181   4.659
38198W        W10524  42.511  16.716  12.101
38199W        W10525  33.492  27.462   0.350
38200W        W10526  24.018  14.645   2.309
38201W        W10527   6.218  11.921  12.917
38202W        W10528  38.273  43.293   0.863
38203W        W10529  13.577  41.967  10.749
38204W        W10530  25.440  17.907  10.096
38205W        W10531  26.537  44.867  14.467
38206W        W10532  26.835   0.671  11.226
38207W        W10533  40.162  31.734   0.755
38208W        W10534  44.836  22.217   3.333
38209W        W10535  23.618  23.559  13.985
38210W        W10536  23.874  20.469  12.473
38211W        W10537  11.725  10.657   2.762
38212W        W10538  44.223   3.497  11.091
38213W        W10539  34.545  38.922  13.123
38214W        W10540   7.165  31.182  10.655
38215W        W10541  36.542  43.273   3.603
38216W        W10542  25.805  38.964  10.721
38217W        W10543   1.781  27.465  14.534
38218W        W10544   6.248  14.434   0.870
38219W        W10545  18.530  23.770  12.821
38220W        W10546  19.406   5.194  10.719
38221W        W10547  39.754  17.271  13.867
38222W        W10548  21.674   1.634  10.778
38223W        W10549  37.275   8.985  13.024
38224W        W10550  40.582  32.421  12.368
38225W        W10551  38.864   6.720  10.116
38226W        W10552  23.967  16.844   4.895
38227W        W10553  10.448  33.347   5.128
38228W        W10554  29.393  33.370  12.246
38229W        W10555   1.090  30.096   3.588
38230W        W10556  43.495  40.806  11.747
38231W        W10557  16.994  27.201  11.638
38232W        W10558   3.857  10.873   1.593
38233W        W10559  18.061  30.003  13.181
38234W        W10560  13.101  21.933   1.210
38235W        W10561  30.651  12.383   1.935
38236W        W10562  30.954   7.920   1.790
38237W        W10563  18.066  26.471  11.304
38238W        W10564  22.917   9.805   0.317
38239W        W10565   2.925  38.612  11.865
38240W        W10566   3.271  42.316  12.462
38241W        W10567  20.187  41.493   4.117
38242W        W10568  37.197  14.690   2.443
38243W        W10569  29.910  12.535  12.363
38244W        W10570  35.869  34.463   2.432
38245W        W10571  15.992  27.614   2.303
38246W        W10572  11.359   9.918   2.137
38247W        W10573   5.760  34.598   2.163
38248W        W10574  36.992  20.179   1.607
38249W        W10575  11.279  31.008  12.378
38250W        W10576   8.064  41.555  11.948
38251W        W10577  34.830  30.055  11.993
38252W        W10578   2.691  24.014  12.462
38253W        W10579  22.599  18.758  11.269
38254W        W10580  37.294  29.304  12.121
38255W        W10581  38.121   6.820  14.470
38256W        W10582   9.133  33.896  12.652
38257W        W10583  44.825  29.743  13.351
38258W        W10584  30.108  25.430  14.906
38259W        W10585   1.952  13.099   1.458
38260W        W10586  12.187  18.398   4.085
38261W        W10587   1.268  27.676  11.394
38262W        W10588  15.258  41.764   4.041
38263W        W10589  44.607  21.033   0.187
38264W        W10590  12.585  16.711   2.678
38265W        W10591   3.437   9.757  10.692
38266W        W10592  28.901  41.487  14.423
38267W        W10593  43.210  27.993  10.691
38268W        W10594  36.766  38.650  13.322
38269W        W10595  36.982   4.181  13.013
38270W        W10596  21.813  43.792  11.205
38271W        W10597   6.619  23.556   3.708
38272W        W10598   5.960  42.546  12.539
38273W        W10599  42.502  39.387   3.276
38274W        W10600  35.387   0.957  12.729
38275W        W10601  20.600   8.921  13.920
38276W        W10602  24.884  21.379  14.464
38277W        W10603  18.550   8.425  13.035
38278W        W10604  11.624  12.783   5.034
38279W        W10605  36.956  11.286   1.612
38280W        W10606  15.155  29.104  13.293
38281W        W10607  17.190  24.211  13.697
38282W        W10608  31.668  39.343  10.657
38283W        W10609  11.838  10.708  13.293
38284W        W10610   0.164   2.794   0.755
38285W        W10611  42.871  38.870   4.150
38286W        W10612   9.960   4.199  13.468
38287W        W10613   6.795  25.113  12.549
38288W        W10614  19.832  30.089  13.537
38289W        W10615  23.520  34.854  12.535
38290W        W10616  29.527  28.246   5.559
38291W        W10617   9.747  10.203   2.922
38292W        W10618   7.604  33.671  11.996
38293W        W10619  22.449  18.682   2.213
38294W        W10620   7.276   0.347   0.210
38295W        W10621  25.150  23.690   1.299
38296W        W10622  33.511  14.485  12.471
38297W        W10623  22.543  44.913   4.447
38298W        W10624  19.132  32.260  12.947
38299W        W10625  12.659   2.395   4.669
38300W        W10626  23.775   2.848  12.511
38301W        W10627  33.148  37.421   1.846
38302W        W10628  33.904  29.196  11.152
38303W        W10629  38.648  24.073   3.897
38304W        W10630   0.205  26.735  10.561
38305W        W10631   8.229  30.878  12.107
38306W        W10632   8.224   6.865  11.277
38307W        W10633  21.324   7.761   3.850
38308W        W10634   6.134  14.761  13.149
38309W        W10635   3.389   8.406  12.591
38310W        W10636  42.217  14.505   0.358
38311W        W10637  11.220  38.695   0.009
38312W        W10638   5.615  19.541   4.513
38313W        W10639  27.612  40.447  13.114
38314W        W10640  22.331  38.103   0.981
38315W        W10641  17.186   0.081   0.456
38316W        W10642  14.328  13.652   4.698
38317W        W10643  11.690  19.631   3.522
38318W        W10644   7.568  15.193  11.610
38319W        W10645  39.032   6.232  13.265
38320W        W10646  26.161  11.597   4.545
38321W        W10647  11.300  23.230  13.139
38322W        W10648  43.059   7.326   0.001
38323W        W10649   3.222  43.371   0.791
38324W        W10650  37.813  30.126  14.881
38325W        W10651  36.980  40.339   4.248
38326W        W10652  25.994  34.490   3.122
38327W        W10653  35.557  28.324  12.087
38328W        W10654  28.908  20.452  12.906
38329W        W10655   2.673   1.000  14.071
38330W        W10656  11.370  11.679   1.461
38331W        W10657  29.443  26.965  10.582
38332W        W10658  28.685   6.826  11.260
38333W        W10659  37.129  14.788  12.436
38334W        W10660  36.449  15.181   3.620
38335W        W10661  35.568   5.562  13.835
38336W        W10662  32.763  37.738  14.852
38337W        W10663   8.820  38.035  12.942
38338W        W10664  24.663  26.621  10.530
38339W        W10665  13.894  23.936  10.566
38340W        W10666  16.729  24.520   0.361
38341W        W10667   0.179  34.376  14.855
38342W        W10668  21.567  42.750  10.558
38343W        W10669  42.960   1.384   3.730
38344W        W10670  41.717  29.601   4.817
38345W        W10671  39.657  26.698   0.315
38346W        W10672  12.326   2.412   0.910
38347W        W10673  39.623  15.216   4.107
38348W        W10674  17.353  16.666   0.455
38349W        W10675  40.539  33.040  11.960
38350W        W10676  14.429  12.876   2.392
38351W        W10677  20.705  28.919   0.687
38352W        W10678   2.708   2.901  14.110
38353W        W10679  32.229  20.285  11.104
38354W        W10680  27.717  23.428  12.554
38355W        W10681  31.650  20.034  14.877
38356W        W10682  26.200  18.081   2.047
38357W        W10683  12.427  21.714  14.010
38358W        W10684  20.643   9.441   0.872
38359W        W10685  22.966  17.551   4.144
38360W        W10686  33.904   1.553  14.807
38361W        W10687  13.705  24.983  11.550
38362W        W10688   5.821  36.586  13.841
38363W        W10689   0.219   9.194  10.661
38364W        W10690   9.449   7.618  11.976
38365W        W10691  33.728  21.153   3.271
38366W        W10692  24.575   9.459   3.790
38367W        W10693  21.644  28.168   3.629
38368W        W10694  19.624  40.706  12.996
38369W        W10695   9.900  40.147   0.447
38370W        W10696   3.903  15.008   4.711
38371W        W10697  41.297  29.207   1.157
38372W        W10698   4.667  23.062   4.792
38373W        W10699   6.879  35.598  11.427
38374W        W10700   0.049  14.841   4.772
38375W        W10701  39.990  29.962  14.333
38376W        W10702  11.955   1.649   4.235
38377W        W10703  42.264  23.212  14.935
38378W        W10704  11.314  32.952   1.636
38379W        W10705   1.618  18.424   1.331
38380W        W10706   2.817  10.216  10.250
38381W        W10707  40.033  13.363   4.513
38382W        W10708  14.100  36.828   2.871
38383W        W10709  14.782   4.381   4.121
38384W        W10710   0.885  41.245   3.269
38385W        W10711   5.289  41.364  11.420
38386W        W10712  24.109  36.496  11.683
38387W        W10713  22.180   8.927  14.218
38388W        W10714   2.955   3.345   9.655
38389W        W10715  36.773   9.647  11.596
38390W        W10716  38.646  30.577  14.277
38391W        W10717   6.425  42.442   2.296
38392W        W10718  21.243  22.132  12.895
38393W        W10719   7.813  12.262   0.311
38394W        W10720   4.898  11.623   3.732
38395W        W10721  35.352  25.467  12.490
38396W        W10722  31.486  16.519   1.251
38397W        W10723  11.073  16.627  14.822
38398W        W10724  18.268  11.489  11.015
38399W        W10725  42.198  35.064  13.269
38400W        W10726  13.787  20.091   4.672
38401W        W10727  19.641   4.876  14.026
38402W        W10728  40.409  27.915   3.170
38403W        W10729   3.877  42.430   2.195
38404W        W10730  29.500  31.544   1.838
38405W        W10731  25.000  27.956  13.373
38406W        W10732   3.426   4.320   5.454
38407W        W10733   1.530  10.463  11.384
38408W        W10734  23.910  43.303  13.030
38409W        W10735  27.057  35.614  13.951
38410W        W10736  27.436   1.857   2.047
38411W        W10737  15.568  16.916   4.925
38412W        W10738  17.400  15.405   1.411
38413W        W10739  18.945  12.595   2.656
38414W        W10740  34.315   8.298   3.645
38415W        W10741   2.237  25.638   3.679
38416W        W10742   7.957  34.904   4.476
38417W        W10743  44.384  40.940  11.200
38418W        W10744   5.899  42.507   3.192
38419W        W10745   8.308  19.146   4.029
38420W        W10746  17.763  40.156   0.244
38421W        W10747   2.081  30.047  11.066
38422W        W10748  17.364   6.472  13.369
38423W        W10749  35.901  13.776   4.847
38424W        W10750   9.824   6.822  13.517
38425W        W10751  16.746  20.964  14.946
38426W        W10752  35.480  35.250   4.100
38427W        W10753  34.114  31.466   1.958
38428W        W10754   9.058  35.821   1.416
38429W        W10755  14.620  23.214  11.152
38430W        W10756  14.392  16.859  14.404
38431W        W10757  41.022  16.572  12.697
38432W        W10758  13.572   3.513  12.727
38433W        W10759   1.453   9.259   1.953
38434W        W10760  16.695  10.525  10.579
38435W        W10761  13.360  25.757  12.612
38436W        W10762   0.099   9.703   3.244
38437W        W10763  29.188  35.952   2.158
38438W        W10764  42.253   2.756   4.807
38439W        W10765  36.066  30.951   1.223
38440W        W10766   2.340  28.786  10.602
38441W        W10767  27.196  21.649   3.370
38442W        W10768  24.719  25.574   3.773
38443W        W10769  14.061   4.800  12.568
38444W        W10770  25.669  35.482   1.235
38445W        W10771  16.980   0.877   0.016
38446W        W10772   8.673  34.057  10.954
38447W        W10773  14.664   5.764  13.384
38448W        W10774  43.306  40.322  11.066
38449W        W10775  44.845   4.130  11.536
38450W        W10776  19.775  29.196  11.155
38451W        W10777  42.506  36.805  10.761
38452W        W10778   1.056  36.388   0.006
38453W        W10779  27.432  12.851   4.220
38454W        W10780  39.482  16.076  12.112
38455W        W10781  31.198  35.760   3.726
38456W        W10782  17.391  41.589  14.391
38457W        W10783  24.882  13.130   4.269
38458W        W10784   5.125   8.736   1.325
38459W        W10785   0.539  33.998   3.026
38460W        W10786  40.900   4.426  12.042
38461W        W10787  15.435  35.601   2.476
38462W        W10788  42.443  42.365   1.797
38463W        W10789  42.095  28.797  11.436
38464W        W10790  38.638   5.607  10.281
38465W        W10791  22.820  43.315   3.433
38466W        W10792  30.090  33.447  10.062
38467W        W10793   4.141  15.779   0.890
38468W        W10794  24.248  12.171  14.854
38469W        W10795  35.927  11.551   0.224
38470W        W10796  19.723   8.109   0.247
38471W        W10797  12.402  36.067   0.558
38472W        W10798   5.822  29.620   1.680
38473W        W10799   9.677  21.207   0.004
38474W        W10800   4.622  11.942   0.714
38475W        W10801  12.742  22.811  11.119
38476W        W10802  38.584  39.449  12.137
38477W        W10803  16.591  16.287   2.367
38478W        W10804  37.850  11.586   1.702
38479W        W10805   2.250   0.660  14.766
38480W        W10806  33.157  24.345   4.622
38481W        W10807  23.478  25.670   3.158
38482W        W10808  10.906  32.188   0.297
38483W        W10809   2.675  18.705  13.074
38484W        W10810  20.743  10.966  13.543
38485W        W10811  18.985  14.947   3.294
38486W        W10812  44.999   0.186   0.509
38487W        W10813  19.878  17.568   3.215
38488W        W10814  22.012  31.423   1.292
38489W        W10815  33.237  28.513  10.749
38490W        W10816   9.811  31.390  14.974
38491W        W10817  42.250  25.556  13.039
38492W        W10818  37.752   3.482   1.133
38493W        W10819  36.060  30.208  12.438
38494W        W10820  26.575   3.755   2.287
38495W        W10821  10.349  19.689   2.782
38496W        W10822  20.348  43.305   2.836
38497W        W10823  18.656  25.459   1.805
38498W        W10824  12.773  25.236   3.087
38499W        W10825  21.525  14.847  10.601
38500W        W10826  18.262  32.032   4.563
38501W        W10827  41.529  21.452   4.241
38502W        W10828   3.427  36.035  11.454
38503W        W10829   9.627  30.498   4.713
38504W        W10830  14.459   1.563   0.375
38505W        W10831  15.828  32.358  13.993
38506W        W10832   9.919  32.385  12.222
38507W        W10833  18.766  38.930   3.187
38508W        W10834  37.364  25.020   1.999
38509W        W10835   3.365  32.592  12.522
38510W        W10836  35.015  25.226  13.969
38511W        W10837  34.446   8.366  13.996
38512W        W10838  11.230  14.733   3.928
38513W        W10839   0.848  38.435  10.837
38514W        W10840  11.439  35.819   3.239
38515W        W10841  39.895  23.774  12.463
38516W        W10842  35.498  41.225  11.899
38517W        W10843  14.245  28.161  13.077
38518W        W10844  13.850  43.258  11.160
38519W        W10845  34.056  35.541   0.290
38520W        W10846  13.396   8.907  10.988
38521W        W10847   9.351  36.975  13.417
38522W        W10848  27.788  43.298  14.005
38523W        W10849   6.277  30.864   1.870
38524W        W10850  39.331   8.213  10.737
38525W        W10851  32.618  36.920   3.331
38526W        W10852   8.823   7.129   3.687
38527W        W10853   1.002  39.473   0.388
38528W        W10854  17.326  21.720  13.217
38529W        W10855  42.726  33.457   1.403
38530W        W10856  13.161   5.722  10.712
38531W        W10857  11.235   2.172  13.496
38532W        W10858  18.522  23.038   4.012
38533W        W10859  16.561   5.669  11.697
38534W        W10860  10.146  44.243  11.039
38535W        W10861   7.721  24.267   0.849
38536W        W10862   6.879  13.389   4.830
38537W        W10863  12.817   4.772   1.354
38538W        W10864  35.568  23.994  12.428
38539W        W10865   9.474  17.214  14.800
38540W        W10866  22.530  25.127  11.284
38541W        W10867  39.834  25.911  13.482
38542W        W10868  30.342  31.384   4.324
38543W        W10869  21.036  21.688   3.728
38544W        W10870  38.968   7.513   4.565
38545W        W10871   3.763   6.381  11.678
38546W        W10872  34.411  11.328  14.389
38547W        W10873   5.363  14.212   0.906
38548W        W10874  23.548  41.893  13.516
38549W        W10875  27.497  43.232  10.704
38550W        W10876  32.995  32.538   0.678
38551W        W10877  28.704  29.471  12.621
38552W        W10878  35.813  37.437  14.268
38553W        W10879  15.219  21.817  12.370
38554W        W10880  27.898  15.498   4.755
38555W        W10881  15.205   0.469   4.605
38556W        W10882  15.083   0.790  14.251
38557W        W10883  12.331   9.160   2.364
38558W        W10884  27.460   4.456   0.716
38559W        W10885  13.179  34.175  11.627
38560W        W10886  19.721  21.933   1.013
38561W        W10887  31.936   5.626  11.097
38562W        W10888   3.953  24.302   5.091
38563W        W10889  11.576  28.379   0.009
38564W        W10890  40.009  24.929   0.393
38565W        W10891  34.634  21.608  13.551
38566W        W10892  28.003  22.597  14.487
38567W        W10893  29.437  41.634  11.760
38568W        W10894   9.664   1.379  13.833
38569W        W10895  44.600  38.224  12.924
38570W        W10896   9.410   1.364  13.393
38571W        W10897  34.859  42.345  12.852
38572W        W10898  34.660   2.919   4.145
38573W        W10899  40.529  43.180   1.871
38574W        W10900  43.612  33.634  10.703
38575W        W10901  27.624   0.244  14.754
38576W        W10902  27.142  19.583   3.272
38577W        W10903  17.329  27.551   1.808
38578W        W10904  24.463  31.878  11.169
38579W        W10905  24.142  20.217   5.239
38580W        W10906  25.618  31.147   4.386
38581W        W10907  14.722  44.735   0.432
38582W        W10908   9.121  11.170   4.834
38583W        W10909  32.427  27.383   0.909
38584W        W10910   2.061  36.079   4.571
38585W        W10911  35.593  12.280  14.920
38586W        W10912   9.575  25.779   4.146
38587W        W10913  43.289  23.663   3.269
38588W        W10914  38.841   1.884   1.201
38589W        W10915  30.437   8.907   2.746
38590W        W10916  19.164  43.976   0.364
38591W        W10917  31.949  13.354  14.366
38592W        W10918  34.449  19.069   2.605
38593W        W10919   5.128  44.014  12.984
38594W        W10920  36.607  12.949  12.635
38595W        W10921   3.337  41.031  11.684
38596W        W10922  31.620   1.665   4.193
38597W        W10923   0.927  35.554   1.636
38598W        W10924  34.306  13.493   1.039
38599W        W10925   7.619  24.441   2.220
38600W        W10926  41.861  14.282   0.751
38601W        W10927  42.797  11.451  13.378
38602W        W10928   9.124  20.607   0.861
38603W        W10929  32.653  39.677   1.836
38604W        W10930   4.727  42.529   1.957
38605W        W10931  23.028   8.674  13.774
38606W        W10932  26.433   9.120  12.184
38607W        W10933  19.235  18.818   4.091
38608W        W10934  42.504   5.929  11.037
38609W        W10935  30.217  32.043   3.822
38610W        W10936  42.282  15.437   0.631
38611W        W10937  11.192   4.168   3.868
38612W        W10938  18.492  29.194  11.112
38613W        W10939  16.673   2.350  13.050
38614W        W10940   4.676  35.879   0.846
38615W        W10941  32.738   9.964  12.662
38616W        W10942  28.750  37.658   2.728
38617W        W10943  42.160   5.934  11.626
38618W        W10944  24.120   2.918   4.852
38619W        W10945   4.691   0.755   2.227
38620W        W10946  36.915  34.041   0.376
38621W        W10947  33.450  20.677   3.959
38622W        W10948  30.732  10.310   2.436
38623W        W10949  31.411  11.075  11.944
38624W        W10950   1.953  14.630  14.667
38625W        W10951   7.793  30.037  12.141
38626W        W10952  43.477  41.096   3.215
38627W        W10953  21.482  22.714   2.673
38628W        W10954  34.161  39.023  11.124
38629W        W10955  30.024  20.057   3.556
38630W        W10956  16.063  41.144  11.911
38631W        W10957  43.720  12.837   4.586
38632W        W10958  37.659   9.839  10.633
38633W        W10959  40.831  25.105  12.484
38634W        W10960   7.360  26.471  14.356
38635W        W10961   4.590  27.419   4.251
38636W        W10962  42.616  24.964   4.645
38637W        W10963  24.473   5.907  14.739
38638W        W10964  13.872  12.337   1.441
38639W        W10965  16.625  38.273  13.513
38640W        W10966   0.336  24.484  14.763
38641W        W10967  17.012   5.515  13.366
38642W        W10968  24.593   9.682  13.060
38643W        W10969   6.873   1.284  11.030
38644W        W10970  15.733  15.869  13.031
38645W        W10971  14.094  36.143   2.385
38646W        W10972  28.000   3.463   2.329
38647W        W10973  16.115   5.518  12.623
38648W        W10974  39.273   2.007   4.223
38649W        W10975  11.629  24.641   2.233
38650W        W10976  20.226  28.424  11.484
38651W        W10977  35.043  33.493   2.801
38652W        W10978  13.871  12.302   4.637
38653W        W10979  14.145   0.343   2.211
38654W        W10980  28.893   7.371  10.658
38655W        W10981  28.133  13.975   0.854
38656W        W10982  12.177  31.715   4.854
38657W        W10983  35.171  16.444  10.310
38658W        W10984  41.368  37.049  14.426
38659W        W10985  41.473  35.908  13.379
38660W        W10986  24.799  22.657  13.293
38661W        W10987   4.930   7.718   1.443
38662W        W10988  26.484  26.102   2.019
38663W        W10989  17.405  24.636  13.481
38664W        W10990   6.962  29.927   4.496
38665W        W10991  13.217  42.974  12.129
38666W        W10992  21.968  39.753   2.333
38667W        W10993  42.023  43.439  12.038
38668W        W10994  29.096  17.514   4.624
38669W        W10995  32.676  29.492  12.494
38670W        W10996  36.076  39.744  12.397
38671W        W10997  23.604  37.435   4.074
38672W        W10998  16.140  21.826   3.702
38673W        W10999  35.527  17.047  10.687
38674W        W11000  20.784  43.729  11.868
38675W        W11001   1.403  32.778  13.967
38676W        W11002  18.963  30.171   1.123
38677W        W11003   4.324  16.108  12.587
38678W        W11004  12.740  33.070   2.593
38679W        W11005  38.079  27.991   2.800
38680W        W11006  36.287   4.356   0.960
38681W        W11007  16.094  10.748   1.012
38682W        W11008  33.305  31.144   2.629
38683W        W11009  17.862  30.685  14.562
38684W        W11010  22.255  28.013  14.380
38685W        W11011  29.574  16.504   3.999
38686W        W11012   1.777  12.732   4.651
38687W        W11013  24.107  14.195  13.705
38688W        W11014  24.280  41.860   4.188
38689W        W11015  28.729  43.251   2.167
38690W        W11016  36.043  19.114   3.264
38691W        W11017  22.834  22.087  14.799
38692W        W11018  11.561  39.765  13.313
38693W        W11019  12.742  19.060   1.935
38694W        W11020  35.114  38.446   1.921
38695W        W11021  39.127  19.132  10.491
38696W        W11022   5.754   1.670  12.466
38697W        W11023  37.990  41.376  13.736
38698W        W11024  34.370  43.849  12.089
38699W        W11025  16.059   7.640   0.221
38700W        W11026  14.204  24.543   1.471
38701W        W11027  32.093  28.416  12.998
38702W        W11028  28.620  27.418   3.198
38703W        W11029   2.736   9.894  13.507
38704W        W11030  34.054   8.772   3.733
38705W        W11031  10.776  24.080  12.015
38706W        W11032  33.566  41.813   0.297
38707W        W11033  12.316  24.845  12.486
38708W        W11034   6.933  40.986  11.623
38709W        W11035  38.875  24.163   4.601
38710W        W11036   5.629   6.214   1.408
38711W        W11037  22.083  40.817  11.428
38712W        W11038   2.595   6.381  12.490
38713W        W11039   5.312  41.602   0.454
38714W        W11040  43.466  28.982   2.925
38715W        W11041  30.937  19.652  14.309
38716W        W11042  25.081  22.454   0.774
38717W        W11043  30.704  31.843   0.396
38718W        W11044  16.228  25.628   4.792
38719W        W11045  43.226  20.270   4.464
38720W        W11046  25.516  35.811   5.079
38721W        W11047  20.008  21.286   3.105
38722W        W11048   0.437  23.943  14.741
38723W        W11049  26.543  16.505   0.461
38724W        W11050   6.272  11.852   4.038
38725W        W11051   4.227  10.694   3.277
38726W        W11052   7.389   6.368   3.652
38727W        W11053  32.916  44.931  11.883
38728W        W11054   0.629  13.367  13.566
38729W        W11055  38.649  17.909  14.710
38730W        W11056   0.278  28.251  11.996
38731W        W11057   4.917  37.455   1.288
38732W        W11058  17.084  21.141  12.073
38733W        W11059  19.609  39.391   5.161
38734W        W11060  19.699  30.208  11.167
38735W        W11061  24.295  42.973  10.129
38736W        W11062  40.453  42.370   3.765
38737W        W11063  33.731   7.261  13.577
38738W        W11064  10.640  23.755   3.394
38739W        W11065   5.903  38.484   2.761
38740W        W11066  35.989  29.503   3.576
38741W        W11067  20.639  31.668  12.908
38742W        W11068  32.009  42.340  10.728
38743W        W11069  34.480   2.148   1.506
38744W        W11070  41.883  28.984  12.680
38745W        W11071  40.233  33.970   1.714
38746W        W11072   1.755  40.182   3.297
38747W        W11073  25.746   6.762   2.321
38748W        W11074  25.128  38.326   3.895
38749W        W11075  21.224   0.708  11.733
38750W        W11076  29.880   6.196  10.767
38751W        W11077  14.022  22.620   4.830
38752W        W11078  26.844  24.251   4.619
38753W        W11079  10.099   0.856  14.931
38754W        W11080   6.816  20.019  14.407
38755W        W11081  44.820   0.163  13.548
38756W        W11082   0.918  33.372  10.102
38757W        W11083   7.438   3.593   1.510
38758W        W11084  33.938  15.563  11.239
38759W        W11085  42.654  43.609   0.371
38760W        W11086  21.804  28.940  13.391
38761W        W11087  28.333  31.301   0.918
38762W        W11088  15.563   0.938  10.516
38763W        W11089   9.248  27.293  12.959
38764W        W11090  27.518   4.261   2.060
38765W        W11091  29.400  21.173  14.360
38766W        W11092  15.070  21.841   0.431
38767W        W11093   7.233  33.834   3.351
38768W        W11094   6.737   2.501   4.077
38769W        W11095  14.038  41.679  10.768
38770W        W11096  12.581  24.752  11.545
38771W        W11097  30.029   1.289  14.782
38772W        W11098  26.239  14.200   4.632
38773W        W11099  18.469   4.233  12.952
38774W        W11100  36.029  21.728  12.917
38775W        W11101  27.077  26.714   1.713
38776W        W11102  44.762   7.733   0.498
38777W        W11103  27.443  31.520  14.299
38778W        W11104  28.396  19.520  10.518
38779W        W11105  27.339  23.516  13.414
38780W        W11106  20.588  33.980  11.269
38781W        W11107  11.155  16.846   1.761
38782W        W11108  15.130  40.148  12.294
38783W        W11109  32.640  43.007  13.007
38784W        W11110  33.563  21.226  14.890
38785W        W11111   6.840   8.967  14.399
38786W        W11112  25.496  14.561   0.457
38787W        W11113  28.514  43.034  14.448
38788W        W11114  38.465  28.462  11.980
38789W        W11115  18.750  18.246   2.471
38790W        W11116  18.798   1.071  13.449
38791W        W11117  22.698  21.252  12.060
38792W        W11118   1.037  10.058  12.025
38793W        W11119  38.164  33.518  13.975
38794W        W11120   3.459  33.261   3.240
38795W        W11121  42.248  24.966  14.431
38796W        W11122  14.288  21.778   3.624
38797W        W11123  39.558   8.243   0.418
38798W        W11124  22.509  38.439   4.281
38799W        W11125   2.187  37.471   3.337
38800W        W11126  11.361  32.156   3.701
38801W        W11127   0.451  43.633   4.476
38802W        W11128   9.781  25.852  13.030
38803W        W11129   7.885  14.809   0.413
38804W        W11130  39.434   9.613  11.054
38805W        W11131  39.836  14.295   2.113
38806W        W11132  35.370  24.431  10.966
38807W        W11133  24.138  34.024   0.235
38808W        W11134  12.801   3.411   1.650
38809W        W11135  20.428   5.458   3.861
38810W        W11136   7.514   0.370  11.500
38811W        W11137  26.604  42.679  11.419
38812W        W11138  11.150  38.529  11.968
38813W        W11139  25.766  40.876  12.888
38814W        W11140  21.370   3.328  14.860
38815W        W11141  35.392  22.291  13.865
38816W        W11142   7.605  28.371   4.278
38817W        W11143  41.983   1.046   2.931
38818W        W11144  12.927   5.731  13.122
38819W        W11145  25.602   4.569   1.919
38820W        W11146  10.079  41.398   2.723
38821W        W11147  43.448  23.789   4.264
38822W        W11148  11.841   6.341   3.644
38823W        W11149  36.288  28.126  12.376
38824W        W11150   1.618   4.772   1.883
38825W        W11151  15.769  24.663   0.678
38826W        W11152  16.915   0.505   0.355
38827W        W11153  30.417  40.426  11.438
38828W        W11154  13.992  16.006   5.077
38829W        W11155  34.767  43.561  11.903
38830W        W11156  29.535  12.240   0.266
38831W        W11157  23.020  40.017   0.578
38832W        W11158  41.547  14.096   0.369
38833W        W11159  24.943   3.135  14.571
38834W        W11160  14.699   8.505  11.136
38835W        W11161   8.300   8.752   0.978
38836W        W11162   5.456  28.701   4.023
38837W        W11163  28.216  33.045  13.885
38838W        W11164   6.445   6.609  13.487
38839W        W11165  15.988  26.682   0.516
38840W        W11166   2.225   9.063   2.428
38841W        W11167  33.390   5.938   0.723
38842W        W11168  40.007  39.854   2.696
38843W        W11169  20.253  27.569   2.352
38844W        W11170  21.660   0.281   3.071
38845W        W11171   6.697  21.221   3.199
38846W        W11172   7.129  34.181  10.657
38847W        W11173  32.089  42.819   3.663
38848W        W11174  13.728  36.264   5.330
38849W        W11175  43.982  44.827  11.199
38850W        W11176  32.442  29.977  12.453
38851W        W11177  44.969  13.756  10.611
38852W        W11178  14.079   9.633   4.584
38853W        W11179   1.566  16.610   1.199
38854W        W11180  39.473   0.031  12.669
38855W        W11181  16.150  25.101   1.282
38856W        W11182  12.565  34.461  14.680
38857W        W11183  10.378  24.524  11.360
38858W        W11184  32.286  19.743   1.406
38859W        W11185   4.404   4.751  11.882
38860W        W11186  19.448  12.596   2.586
38861W        W11187   1.407  16.892   0.786
38862W        W11188  23.038   0.803   4.550
38863W        W11189  27.720  37.447  12.424
38864W        W11190  20.794  27.519  11.511
38865W        W11191   2.026  35.913  13.983
38866W        W11192   5.864  28.373  14.523
38867W        W11193   7.711  28.239   1.199
38868W        W11194  39.588  40.243  11.405
38869W        W11195  16.918  29.682   5.206
38870W        W11196  18.215  26.181  13.016
38871W        W11197   1.260  31.053   3.271
38872W        W11198  17.317  29.950  14.810
38873W        W11199   9.212  28.936  12.484
38874W        W11200  23.890  18.509  14.825
38875W        W11201  40.009  31.521   0.275
38876W        W11202  21.547  39.250   2.856
38877W        W11203  33.052   3.799   1.241
38878W        W11204  18.342  25.505   3.245
38879W        W11205   2.509  26.652   4.549
38880W        W11206  19.144  28.947  14.881
38881W        W11207   8.392   5.228  12.217
38882W        W11208   5.644  23.320  13.607
38883W        W11209  42.089  28.088  12.977
38884W        W11210  38.428   0.786  12.387
38885W        W11211  41.449   8.709   3.071
38886W        W11212  43.391  32.699   2.865
38887W        W11213  28.657   5.390   1.650
38888W        W11214  25.460  25.102   1.960
38889W        W11215  14.409  35.630   2.373
38890W        W11216  35.873   7.163   3.226
38891W        W11217   4.649  32.093  13.922
38892W        W11218   8.200  38.394  14.408
38893W        W11219  29.547  28.103   1.496
38894W        W11220  27.738   7.906   2.275
38895W        W11221  19.337   7.753   1.858
38896W        W11222  27.654  27.910  10.703
38897W        W11223  26.995   6.307   3.634
38898W        W11224  39.611   1.688  11.515
38899W        W11225   0.322  27.613  11.255
38900W        W11226   6.838  37.650   4.082
38901W        W11227   3.492  34.926  10.693
38902W        W11228  11.409   8.721  10.547
38903W        W11229   1.289  32.176  13.277
38904W        W11230  25.386  41.607  12.433
38905W        W11231   9.625   0.283  14.269
38906W        W11232  34.894   7.571   1.428
38907W        W11233  17.109  36.420   0.500
38908W        W11234  13.571  11.391   2.770
38909W        W11235  10.385  37.028   2.695
38910W        W11236  30.852  38.030   4.244
38911W        W11237  44.992  14.125   1.402
38912W        W11238   8.092  42.941   1.813
38913W        W11239  19.554  37.472   4.629
38914W        W11240  32.885  22.626   3.732
38915W        W11241  15.591  14.024  13.425
38916W        W11242  18.580  30.670  13.363
38917W        W11243  13.524  34.391   1.372
38918W        W11244  18.729   8.885   3.103
38919W        W11245  37.873  29.183  13.739
38920W        W11246  23.602  28.228  12.490
38921W        W11247   2.984  42.940   1.444
38922W        W11248   2.976  21.083   5.025
38923W        W11249  43.881   0.934   2.930
38924W        W11250  31.468   5.889  11.100
38925W        W11251  20.033  41.248   4.555
38926W        W11252  35.127  42.363   0.492
38927W        W11253   9.182  35.121  12.839
38928W        W11254  42.064  18.595   3.327
38929W        W11255  33.336  44.774   1.383
38930W        W11256  44.784   3.946  14.633
38931W        W11257   0.953  33.306   2.853
38932W        W11258  35.892  36.511   3.980
38933W        W11259  11.102  25.529  12.442
38934W        W11260   3.639  31.179   2.823
38935W        W11261  30.099  34.650  13.540
38936W        W11262  11.651  15.579   4.700
38937W        W11263  24.313  27.235   2.418
38938W        W11264   5.616  14.867   1.332
38939W        W11265  27.115  42.013   1.467
38940W        W11266  18.104  30.875   3.374
38941W        W11267   4.284   9.780   5.664
38942W        W11268  30.579  21.066  12.171
38943W        W11269  14.827  43.389  12.606
38944W        W11270  39.565   2.253  10.267
38945W        W11271  19.803  41.871   0.177
38946W        W11272  42.515   5.208  11.182
38947W        W11273  29.080   3.770  10.820
38948W        W11274  43.059  29.156   3.703
38949W        W11275  44.861  29.097  12.065
38950W        W11276  37.917  33.074  13.818
38951W        W11277  39.589  30.451  10.960
38952W        W11278  14.287  44.681  14.255
38953W        W11279  36.731  36.590   2.905
38954W        W11280  12.895  32.087   3.675
38955W        W11281  40.400  10.234   2.361
38956W        W11282  38.025  12.108   0.373
38957W        W11283   2.431  37.539   4.706
38958W        W11284  34.921   0.524  12.291
38959W        W11285  28.727   5.900   2.887
38960W        W11286  39.563   3.861   4.656
38961W        W11287  15.161  35.083  10.256
38962W        W11288  31.153  24.287  13.048
38963W        W11289  17.214  32.437   0.722
38964W        W11290   2.903  20.468   3.261
38965W        W11291   3.978  12.784  10.324
38966W        W11292  31.610  34.811   0.686
38967W        W11293  17.545   6.699   2.411
38968W        W11294   0.770  16.293   1.057
38969W        W11295   1.742   8.768   4.192
38970W        W11296  38.002  27.957  12.478
38971W        W11297   0.946   0.672   0.562
38972W        W11298  41.825  37.042  12.928
38973W        W11299  40.870   4.713   0.954
38974W        W11300   9.129  15.839   4.444
38975W        W11301   3.817  12.770   3.142
38976W        W11302  23.751  13.845   1.686
38977W        W11303   4.333   4.275   2.185
38978W        W11304   8.172  18.245  11.133
38979W        W11305  23.634  25.209   1.782
38980W        W11306  21.545  23.573   3.098
38981W        W11307  11.943  43.021  12.094
38982W        W11308  30.466  26.662  13.386
38983W        W11309  27.153   4.966   3.578
38984W        W11310  13.545   9.931  11.177
38985W        W11311  42.520  42.086  11.940
38986W        W11312  20.641  35.123   1.122
38987W        W11313  16.137   8.941  10.656
38988W        W11314  27.701  15.802  10.733
38989W        W11315  34.611   9.663   3.335
38990W        W11316  18.021  29.373  11.226
38991W        W11317  23.151  38.970   4.559
38992W        W11318  41.964  43.034  14.015
38993W        W11319  21.591  18.269   9.768
38994W        W11320  44.321  35.525  14.095
38995W        W11321   1.374   1.562  14.949
38996W        W11322  29.842  30.981   4.838
38997W        W11323  22.541  38.438   4.822
38998W        W11324  25.001   1.395   0.824
38999W        W11325  26.494  39.539  12.359
39000W        W11326  32.661  14.289   3.905
39001W        W11327  13.213  17.942  11.196
39002W        W11328  21.106  38.534   1.924
39003W        W11329  11.018  23.339  14.102
39004W        W11330  35.810   2.002  13.054
39005W        W11331   3.352  39.403   0.707
39006W        W11332   6.695  33.173   2.738
39007W        W11333  44.458  33.132   2.241
39008W        W11334  39.492  42.284  14.082
39009W        W11335  18.374  10.641   4.086
39010W        W11336   4.591  29.718  14.339
39011W        W11337  29.204  35.850   2.708
39012W        W11338   7.720  20.629   1.951
39013W        W11339   1.334  44.820  11.128
39014W        W11340  21.500  19.305   0.633
39015W        W11341  33.821  34.616  14.848
39016W        W11342  30.390  42.901   3.562
39017W        W11343  13.174  43.947  11.992
39018W        W11344  29.864  28.923   4.653
39019W        W11345  22.177  35.127   4.803
39020W        W11346  35.161  11.271   0.172
39021W        W11347  34.947  33.787  12.070
39022W        W11348  41.382  17.344   4.474
39023W        W11349  33.178  26.294   0.457
39024W        W11350  32.547  30.754  12.809
39025W        W11351   4.334  19.344   1.701
39026W        W11352   2.212  29.410   4.509
39027W        W11353  10.216  36.447  13.553
39028W        W11354  39.387   0.473  12.421
39029W        W11355  40.447  31.582  13.310
39030W        W11356   9.860  31.148  12.309
39031W        W11357  24.557  23.910  12.344
39032W        W11358   2.232  19.508  10.684
39033W        W11359  28.505  29.698   0.105
39034W        W11360  40.196  36.973   1.134
39035W        W11361  21.079  25.475  14.088
39036W        W11362  37.867  18.141  10.640
39037W        W11363   7.626  10.638  13.975
39038W        W11364  18.212  25.111   0.477
39039W        W11365  13.738   3.283   4.728
39040W        W11366   5.339  25.191   5.160
39041W        W11367   8.216  41.970  14.865
39042W        W11368  22.051   6.811   4.686
39043W        W11369   0.434   9.287   3.056
39044W        W11370  32.007  28.767   2.261
39045W        W11371  18.240   8.333   0.283
39046W        W11372  44.443  16.540   4.142
39047W        W11373  27.178  13.888   0.868
39048W        W11374  27.202  19.758   2.278
39049W        W11375  13.287  42.065   3.630
39050W        W11376  41.653  32.576  12.582
39051W        W11377   3.997  26.185  12.591
39052W        W11378  43.745  43.124   1.868
39053W        W11379  15.190   5.390   4.505
39054W        W11380  35.841  18.973   2.233
39055W        W11381  32.991  15.947  10.996
39056W        W11382  25.287  32.091  12.307
39057W        W11383  31.156  34.845  14.376
39058W        W11384   0.250   2.512   2.809
39059W        W11385  40.338  24.718   0.769
39060W        W11386   1.056  38.994  11.628
39061W        W11387   7.364   2.774   2.377
39062W        W11388   3.122  28.871   1.970
39063W        W11389  19.319   9.688  14.299
39064W        W11390   0.733  14.657  13.954
39065W        W11391  21.277  26.956   0.936
39066W        W11392  32.921   1.418  13.878
39067W        W11393  23.188  18.343   3.387
39068W        W11394   1.236   4.483   0.975
39069W        W11395  36.783   5.821   1.329
39070W        W11396  38.462  38.293   3.236
39071W        W11397  29.928   0.156  12.602
39072W        W11398  40.963  34.335   4.407
39073W        W11399  29.058  30.817   4.621
39074W        W11400   8.664  28.184   0.360
39075W        W11401   3.382  28.985  11.015
39076W        W11402   3.510   4.200  11.975
39077W        W11403  22.148  20.339   2.214
39078W        W11404  11.132  24.796  14.616
39079W        W11405  43.200  14.623   4.024
39080W        W11406   9.017   8.814   1.982
39081W        W11407   3.161   4.645  11.429
39082W        W11408  28.825  29.539   1.163
39083W        W11409  33.462   5.708   2.227
39084W        W11410  39.050  29.172  10.574
39085W        W11411  31.220  35.951   1.282
39086W        W11412  32.060   4.952   4.731
39087W        W11413  35.323  37.037   1.856
39088W        W11414  26.806  41.074  10.793
39089W        W11415   9.165  13.856   0.339
39090W        W11416  33.785  18.603  14.809
39091W        W11417  32.388  42.388   2.714
39092W        W11418  22.027  11.542   1.416
39093W        W11419  36.551  13.543  10.338
39094W        W11420  36.639   0.559   1.996
39095W        W11421  38.468  21.778   2.718
39096W        W11422  29.077  30.909   3.317
39097W        W11423  38.894  37.116   4.894
39098W        W11424  23.487  35.469   0.803
39099W        W11425  23.227  29.461  13.483
39100W        W11426   2.491  13.283  12.922
39101W        W11427  39.381  29.613  10.944
39102W        W11428   7.970  25.456   1.128
39103W        W11429  30.134  12.347   2.864
39104W        W11430  32.982  27.155  10.606
39105W        W11431  18.569  39.478  14.861
39106W        W11432  41.258  42.257  13.047
39107W        W11433  14.045  25.964  14.912
39108W        W11434  27.199  42.453  10.253
39109W        W11435  40.443  40.772  10.701
39110W        W11436  19.895  40.057  13.510
39111W        W11437  23.520  39.731   3.756
39112W        W11438  30.888   0.835  11.195
39113W        W11439   3.252   3.366  12.990
39114W        W11440  24.929  22.601  12.324
39115W        W11441  12.433  39.877  14.314
39116W        W11442  24.643  33.899   0.328
39117W        W11443  18.647  25.187  12.593
39118W        W11444  25.049  41.716  13.558
39119W        W11445  40.008  26.476  14.328
39120W        W11446  34.842  14.063  13.781
39121W        W11447  21.366  20.773   3.853
39122W        W11448  21.789  26.166  10.664
39123W        W11449   4.620  40.310  14.422
39124W        W11450  44.436   7.974  12.336
39125W        W11451  17.057  28.005   4.488
39126W        W11452  35.582   3.949  13.848
39127W        W11453  23.239  13.831   1.804
39128W        W11454  21.742  31.120   1.864
39129W        W11455   4.928  39.935   3.307
39130W        W11456  14.496  14.649  14.528
39131W        W11457  11.635  15.647  14.313
39132W        W11458   6.675  36.049  14.499
39133W        W11459  12.824   3.140   4.362
39134W        W11460  10.198  18.250  13.852
39135W        W11461  10.149  32.393  13.907
39136W        W11462  39.161  44.734  14.303
39137W        W11463   8.775  29.155   1.789
39138W        W11464  28.208  33.996   2.299
39139W        W11465  26.166  15.600  14.307
39140W        W11466   3.447  38.722   2.414
39141W        W11467   0.283  29.108   3.244
39142W        W11468  19.331  36.551  11.815
39143W        W11469  24.685  33.102   4.210
39144W        W11470   5.956   3.485   2.853
39145W        W11471  22.988  36.000   4.132
39146W        W11472  11.127  40.711  11.867
39147W        W11473   2.336  17.005   4.395
39148W        W11474  29.696  29.350   0.693
39149W        W11475  27.937  26.431   1.941
39150W        W11476  16.192  32.623  13.423
39151W        W11477  25.926  41.022  14.513
39152W        W11478  36.502  23.934   1.603
39153W        W11479  16.604  38.153   2.696
39154W        W11480   3.961  38.442   0.982
39155W        W11481  10.597  34.549   4.123
39156W        W11482  39.906  18.335   0.412
39157W        W11483  16.236  43.797   3.753
39158W        W11484  40.032   3.305  13.099
39159W        W11485  21.409   0.328  13.442
39160W        W11486  42.335  20.984   1.177
39161W        W11487  14.449  38.509  11.212
39162W        W11488  39.046  24.524   0.436
39163W        W11489  28.618  12.120   1.100
39164W        W11490   0.631   4.470  12.504
39165W        W11491  30.540  23.255   4.057
39166W        W11492  26.245  20.948   2.687
39167W        W11493  14.600  36.401   0.976
39168W        W11494  25.733  38.646   4.981
39169W        W11495  41.487  12.808   1.716
39170W        W11496  43.898  24.474  13.981
39171W        W11497  29.993   8.783   4.293
39172W        W11498  44.870  18.144  10.740
39173W        W11499  13.816  36.162  13.880
39174W        W11500  33.352   5.674  12.066
39175W        W11501  25.691  26.514  12.856
39176W        W11502   7.268  29.637  11.219
39177W        W11503   4.747  32.512  10.676
39178W        W11504  35.549  15.261   3.301
39179W        W11505  32.868  26.815  14.792
39180W        W11506  11.696   3.335  10.107
39181W        W11507   1.355   2.943  11.143
39182W        W11508  11.537   8.630  14.951
39183W        W11509  10.385  38.066  14.857
39184W        W11510  23.391  29.780  13.060
39185W        W11511   4.341  14.374  13.529
39186W        W11512  18.951  13.133   3.294
39187W        W11513  34.408  23.053   0.805
39188W        W11514  39.056  15.760  12.211
39189W        W11515  32.653   8.815  12.045
39190W        W11516  34.211   0.246  11.069
39191W        W11517   8.283   7.913  11.391
39192W        W11518  26.283  14.121  10.692
39193W        W11519  32.892  37.457  13.584
39194W        W11520  38.448  36.056  12.494
39195W        W11521  20.034   4.234   1.304
39196W        W11522  29.022  37.330  14.970
39197W        W11523  18.606   9.451   1.811
39198W        W11524   3.513   3.717   0.771
39199W        W11525  19.770  21.214  14.321
39200W        W11526  19.327  44.816  13.775
39201W        W11527  14.724  14.800  11.208
39202W        W11528   8.285  11.704  14.230
39203W        W11529  25.279  44.585  13.952
39204W        W11530  39.321  28.550   4.600
39205W        W11531  29.529  22.283  13.072
39206W        W11532  25.617  41.077   3.623
39207W        W11533  34.485  35.387  10.687
39208W        W11534   3.721  23.320   0.363
39209W        W11535   0.226  18.269  13.375
39210W        W11536  36.654  19.738   5.036
39211W        W11537  31.673  26.443  12.934
39212W        W11538  40.360  23.968  12.543
39213W        W11539   6.802   1.972   2.214
39214W        W11540  23.620  12.919   3.118
39215W        W11541  22.517  28.051   3.195
39216W        W11542  29.104  41.443  13.923
39217W        W11543  40.035   5.123   3.663
39218W        W11544  13.616  14.517  14.343
39219W        W11545  44.026  43.799   3.774
39220W        W11546   7.270  34.233   1.234
39221W        W11547  42.467   2.569   4.324
39222W        W11548  18.209  39.450   2.390
39223W        W11549  40.200   0.830   2.535
39224W        W11550  34.579   9.266  12.992
39225W        W11551  37.566   0.783   0.970
39226W        W11552  26.058  20.359   1.302
39227W        W11553  17.294  36.049  12.115
39228W        W11554  21.263  18.135   4.256
39229W        W11555  24.405  25.132  11.078
39230W        W11556  29.433   8.126  14.959
39231W        W11557  13.454  24.572  11.744
39232W        W11558   2.444  26.072   4.563
39233W        W11559  35.622   7.533  11.343
39234W        W11560   7.774  20.301   0.107
39235W        W11561  43.483  37.091  13.189
39236W        W11562  28.003  23.391   1.458
39237W        W11563  13.307  25.180  14.433
39238W        W11564  30.807  36.721   3.682
39239W        W11565  19.609  35.735  11.877
39240W        W11566   4.628  43.431   4.605
39241W        W11567  13.902  37.501  14.292
39242W        W11568   5.670   5.774   0.023
39243W        W11569  30.185  10.655  12.267
39244W        W11570   2.533   0.084  11.999
39245W        W11571   6.902   1.290   1.715
39246W        W11572  44.574  36.528  13.501
39247W        W11573  42.046  36.761  11.610
39248W        W11574  42.518  13.043  13.001
39249W        W11575   1.992  21.918  12.287
39250W        W11576   9.190  13.760  14.211
39251W        W11577  35.968   8.255  13.893
39252W        W11578  36.018  10.351   0.771
39253W        W11579  22.219  24.712   1.186
39254W        W11580  39.771  12.807   3.710
39255W        W11581  39.598  28.888   2.044
39256W        W11582  19.984  40.918  11.273
39257W        W11583   1.177   2.959   0.746
39258W        W11584  40.576  29.710  12.607
39259W        W11585   3.269  20.963   2.065
39260W        W11586  37.520  15.661   2.307
39261W        W11587  28.601  35.878  11.179
39262W        W11588  25.429   4.589   3.270
39263W        W11589  15.647  16.585   1.644
39264W        W11590  20.132  25.711   2.150
39265W        W11591  39.753   7.686  11.082
39266W        W11592  29.301  18.654   1.517
39267W        W11593  38.433   1.021   2.868
39268W        W11594  24.001  32.183   3.239
39269W        W11595  33.995  22.264   3.694
39270W        W11596   7.140  31.949  13.814
39271W        W11597  32.053  11.734   0.467
39272W        W11598   7.702  28.724  14.288
39273W        W11599  31.955  23.328  13.461
39274W        W11600  44.008  12.564   3.287
39275W        W11601  28.188  16.559  14.455
39276W        W11602  22.876  28.697  14.477
39277W        W11603  11.414  17.297   4.207
39278W        W11604  21.476  16.774  12.168
39279W        W11605  20.559  21.969   3.647
39280W        W11606  22.796  19.481  13.516
39281W        W11607  28.192  21.328  12.200
39282W        W11608  44.051  31.956  11.218
39283W        W11609  30.594   4.429  11.953
39284W        W11610   8.507  32.746   1.282
39285W        W11611  36.564  33.734  11.280
39286W        W11612  16.819  36.346   0.926
39287W        W11613  29.643  10.000   4.596
39288W        W11614  23.141  43.835   4.273
39289W        W11615  30.116  19.349   4.675
39290W        W11616  17.733   8.219  10.994
39291W        W11617  32.700  23.222   0.642
39292W        W11618  42.568   0.441   2.195
39293W        W11619  30.929   9.194   2.274
39294W        W11620  27.512  25.182  12.815
39295W        W11621  43.383  30.699   1.847
39296W        W11622   7.454  13.569  11.595
39297W        W11623  14.923  34.866   3.652
39298W        W11624  19.710   1.981  13.050
39299W        W11625  42.948   1.470  14.315
39300W        W11626  35.707   3.519  10.307
39301W        W11627   1.484  20.476  13.963
39302W        W11628  42.479  28.925  11.097
39303W        W11629  20.106  34.554   0.954
39304W        W11630  32.837  38.677   0.412
39305W        W11631  23.549  15.022   3.778
39306W        W11632  28.757  36.591   1.304
39307W        W11633  10.904   7.914  12.167
39308W        W11634  41.989  37.781   1.478
39309W        W11635  37.056  41.066  14.839
39310W        W11636  34.803   3.647  14.197
39311W        W11637  20.539  17.261  14.512
39312W        W11638  36.507  25.715  14.411
39313W        W11639  19.518  33.332   1.866
39314W        W11640   5.678   4.342   0.585
39315W        W11641  33.952   6.669  11.998
39316W        W11642  18.262  43.495  12.086
39317W        W11643  16.003  44.286   2.859
39318W        W11644  10.002  33.660  12.050
39319W        W11645   6.797  16.192   3.292
39320W        W11646  38.292  40.451   1.726
39321W        W11647  28.718   3.340  11.135
39322W        W11648  38.017  26.719   3.191
39323W        W11649  26.555   7.429   4.168
39324W        W11650  13.864   2.330   1.884
39325W        W11651  15.745  20.106  11.696
39326W        W11652  33.347   2.964  11.526
39327W        W11653  36.309  20.564   4.116
39328W        W11654  36.553  28.451  11.186
39329W        W11655   1.815  16.729   1.972
39330W        W11656  19.343  14.463  13.326
39331W        W11657  28.365  35.386   3.713
39332W        W11658  14.697  17.116  11.396
39333W        W11659  36.935  33.642   2.201
39334W        W11660  12.715   5.467   1.616
39335W        W11661  32.392   4.745  12.363
39336W        W11662   4.625   0.990   0.823
39337W        W11663  15.799  42.631   0.074
39338W        W11664  24.279  37.068  14.196
39339W        W11665  25.241  32.702   1.060
39340W        W11666  23.481  41.946  10.707
39341W        W11667  22.268  43.836  13.389
39342W        W11668  25.728  25.924  12.231
39343W        W11669  42.511  16.820   0.426
39344W        W11670  28.318   3.880  14.563
39345W        W11671   9.320  31.127  12.395
39346W        W11672  11.265  39.882  11.330
39347W        W11673  18.581  13.690  11.214
39348W        W11674   0.328  24.705   1.417
39349W        W11675   1.704  38.888  10.618
39350W        W11676  13.149  30.430   4.196
39351W        W11677  37.091  11.517   1.160
39352W        W11678  15.559  43.573   2.350
39353W        W11679   3.540  30.133  11.226
39354W        W11680   6.836  35.647  14.224
39355W        W11681   1.466  37.043  13.420
39356W        W11682  31.132   8.541  13.869
39357W        W11683  35.523  24.153  14.982
39358W        W11684  19.735  29.104  11.652
39359W        W11685  26.469  10.185  11.454
39360W        W11686  27.047  11.314   3.643
39361W        W11687   7.961  38.550  11.859
39362W        W11688  13.199   8.727  11.417
39363W        W11689  29.023  35.889  12.411
39364W        W11690  13.767  42.434  10.590
39365W        W11691  40.887  13.870  11.114
39366W        W11692  13.037  33.603   3.655
39367W        W11693  11.374  34.454   1.502
39368W        W11694  41.349  19.236   3.830
39369W        W11695  19.097  10.759   1.929
39370W        W11696  29.462  16.622  13.757
39371W        W11697   9.845  36.376  12.314
39372W        W11698   5.398   4.886  12.052
39373W        W11699  15.487  32.622   2.502
39374W        W11700   3.461  20.018  13.431
39375W        W11701  44.847   4.003  10.531
39376W        W11702  16.213  33.115   4.625
39377W        W11703  38.281  17.591  12.426
39378W        W11704   8.715  25.265   2.214
39379W        W11705  27.865  15.258  12.429
39380W        W11706  13.359  31.703   4.209
39381W        W11707  44.234  11.067   4.492
39382W        W11708  32.833  41.110  10.691
39383W        W11709  15.637   3.236   1.954
39384W        W11710  39.697  10.016   3.178
39385W        W11711  21.653  26.655  13.974
39386W        W11712  11.244  39.363   1.744
39387W        W11713  12.787  14.842   4.092
39388W        W11714  38.206  35.170   2.724
39389W        W11715  12.813   0.595  11.203
39390W        W11716  12.932   0.464   1.932
39391W        W11717  43.555  11.193  11.754
39392W        W11718  14.116   0.255  12.011
39393W        W11719  12.851  30.972   0.621
39394W        W11720  19.235  26.693   3.676
39395W        W11721  31.618  35.024   1.161
39396W        W11722   5.169  29.093   2.934
39397W        W11723   3.846  20.537  12.974
39398W        W11724   4.079  41.266   1.644
39399W        W11725  11.514  21.508  11.643
39400W        W11726  20.238  33.607  14.566
39401W        W11727   6.089   2.283   1.334
39402W        W11728  40.309  13.128  12.384
39403W        W11729   3.446  24.974   4.393
39404W        W11730  44.116  43.683   5.015
39405W        W11731   0.312  25.538  11.527
39406W        W11732  32.404  20.467  14.894
39407W        W11733  20.052   7.812  12.353
39408W        W11734  38.085  20.609  10.892
39409W        W11735  38.576  18.640   3.730
39410W        W11736  24.238  39.812   2.380
39411W        W11737   5.921  44.373   2.165
39412W        W11738  30.585  21.011   2.792
39413W        W11739  33.707  15.621  14.009
39414W        W11740  10.234  42.923  11.977
39415W        W11741  10.136   6.364  13.991
39416W        W11742  21.045  30.933   1.374
39417W        W11743   2.080  19.688   1.785
39418W        W11744  12.851  28.288   0.840
39419W        W11745  37.072  12.694   5.316
39420W        W11746  39.479  23.714   0.397
39421W        W11747  40.987  36.027  13.543
39422W        W11748   3.228   5.067   0.869
39423W        W11749  13.685   3.919   0.238
39424W        W11750   3.485  35.026   2.337
39425W        W11751  39.208  15.308   2.825
39426W        W11752  40.535   2.870   1.611
39427W        W11753  17.108  14.871  10.435
39428W        W11754  23.529  16.164  12.541
39429W        W11755   7.699  37.422  13.949
39430W        W11756  22.190   6.472   1.353
39431W        W11757  24.938  40.821  13.298
39432W        W11758  35.984  10.107  11.609
39433W        W11759   3.322   1.909  11.469
39434W        W11760  21.402   7.907   0.470
39435W        W11761   7.664  15.784  13.961
39436W        W11762  32.568  22.238   3.852
39437W        W11763  26.331   7.212   0.824
39438W        W11764  21.993  19.575  13.334
39439W        W11765   3.697  33.808   0.358
39440W        W11766  17.030  31.382   3.223
39441W        W11767   1.894  10.428  10.142
39442W        W11768  36.511  13.104   0.630
39443W        W11769  32.665  15.369  13.255
39444W        W11770  13.148  14.301   0.628
39445W        W11771  29.402  30.073   3.719
39446W        W11772  17.953  41.827  13.501
39447W        W11773  32.649  15.224   3.701
39448W        W11774  14.729  26.182   2.480
39449W        W11775  19.246  24.948   3.895
39450W        W11776  34.854  17.704   0.021
39451W        W11777   3.524   3.782  11.678
39452W        W11778  38.277  43.669  13.606
39453W        W11779   8.901  37.483  14.274
39454W        W11780   8.589   0.687   3.203
39455W        W11781  38.886  20.442  10.794
39456W        W11782  44.950  27.711  13.004
39457W        W11783   5.288  35.767  14.811
39458W        W11784  12.782  27.938   3.451
39459W        W11785  11.011  24.103   3.670
39460W        W11786  13.399   3.377  10.768
39461W        W11787   3.834  42.432   0.168
39462W        W11788  29.069  10.623  12.927
39463W        W11789  12.324  22.143   0.284
39464W        W11790  17.867   5.347  11.903
39465W        W11791  16.509  35.915   4.726
39466W        W11792   1.903  38.833   4.323
39467W        W11793  40.630  13.289  10.483
39468W        W11794  31.615  41.964  13.652
39469W        W11795   6.344  38.823  11.569
39470W        W11796  10.965  31.842   2.330
39471W        W11797  29.569  10.678   1.137
39472W        W11798  23.335  23.266   0.298
39473W        W11799  11.893  26.896   3.561
39474W        W11800  22.274  11.895  12.176
39475W        W11801  34.857  17.429   0.482
39476W        W11802  44.528  43.334   0.432
39477W        W11803  19.202  17.650  12.912
39478W        W11804  14.381  39.044   0.406
39479W        W11805   0.503  30.925  14.992
39480W        W11806  43.718  16.255   2.958
39481W        W11807  15.671  21.017  12.140
39482W        W11808  42.895  34.479  14.423
39483W        W11809  44.395   3.502  11.578
39484W        W11810  27.914   5.203  12.400
39485W        W11811   1.003  33.123   2.384
39486W        W11812   0.427  29.656   3.395
39487W        W11813  42.431  30.938  12.888
39488W        W11814  13.888  18.283  14.405
39489W        W11815  24.330  11.757  12.510
39490W        W11816   3.222  19.175  14.795
39491W        W11817  25.092  37.743  12.356
39492W        W11818   7.754   3.466   3.654
39493W        W11819  18.704  32.188   2.836
39494W        W11820  41.920  44.507  10.451
39495W        W11821  27.366  37.852   1.374
39496W        W11822  18.160  12.417   3.029
39497W        W11823   3.717  38.973  11.036
39498W        W11824  11.847  14.601  12.893
39499W        W11825   1.841  11.569  10.600
39500W        W11826  31.817  42.266   0.690
39501W        W11827   4.859  29.529   3.142
39502W        W11828   9.300  10.549   0.652
39503W        W11829  28.000  35.929  14.555
39504W        W11830  39.251  17.605   2.403
39505W        W11831   2.965  44.119  14.318
39506W        W11832  41.365   8.189  10.618
39507W        W11833  13.369  11.376   1.429
39508W        W11834  20.662  14.074   0.956
39509W        W11835  12.298  21.874  11.468
39510W        W11836  28.244  42.990  11.041
39511W        W11837  28.164  40.819   1.315
39512W        W11838  26.226  10.230   3.724
39513W        W11839   8.139   2.990  12.369
39514W        W11840  34.133  26.210   0.370
39515W        W11841  35.919  34.873   3.736
39516W        W11842  32.019  44.547   0.707
39517W        W11843  23.207  36.859   4.601
39518W        W11844   8.601  28.388  10.928
39519W        W11845  36.172   0.576  12.055
39520W        W11846  23.130  11.699   1.866
39521W        W11847  28.832  21.139   0.426
39522W        W11848  31.733   1.005  13.892
39523W        W11849  20.594  40.990   2.282
39524W        W11850  33.183  21.246   4.684
39525W        W11851  41.265   8.314  12.344
39526W        W11852  36.892  42.995  10.886
39527W        W11853  16.160   0.449   1.718
39528W        W11854  21.090  40.511   4.602
39529W        W11855   6.942  14.865   4.081
39530W        W11856   0.610  38.059   0.886
39531W        W11857   7.431   2.262  14.397
39532W        W11858   6.009   3.200   3.312
39533W        W11859  38.372  19.190  12.971
39534W        W11860  13.789  39.377   1.350
39535W        W11861  35.817  28.045   4.262
39536W        W11862  38.487  23.315   0.912
39537W        W11863  23.064   4.957   3.157
39538W        W11864   4.738  27.558   1.772
39539W        W11865  21.753  34.684  11.996
39540W        W11866  38.516  36.622  12.521
39541W        W11867  39.896  29.540   4.124
39542W        W11868  43.473  42.277   1.840
39543W        W11869  33.489  11.145  14.299
39544W        W11870  28.580  27.452  14.789
39545W        W11871  29.067  28.386  14.480
39546W        W11872  30.129  43.242  14.019
39547W        W11873  10.147  13.373  14.408
39548W        W11874   3.977   1.945   4.290
39549W        W11875  39.878   8.113   0.008
39550W        W11876  17.847  11.978  13.042
39551W        W11877  44.381   6.641   2.648
39552W        W11878  26.467  27.132  14.453
39553W        W11879  26.188  17.878   2.911
39554W        W11880  25.500  28.483  12.024
39555W        W11881  11.336  37.866  12.532
39556W        W11882  44.687  27.224  13.393
39557W        W11883  14.214   7.758   1.776
39558W        W11884  13.119   7.959   3.768
39559W        W11885  15.639  43.512  10.514
39560W        W11886  14.160  44.419   2.899
39561W        W11887  42.091  17.372   2.261
39562W        W11888  44.947   5.757   1.926
39563W        W11889   6.376  37.571  12.386
39564W        W11890   2.759  23.024  11.131
39565W        W11891  43.155  31.397   3.313
39566W        W11892   8.727  43.675   1.744
39567W        W11893  28.673  23.219   0.204
39568W        W11894  26.642  12.494   4.588
39569W        W11895   2.040  36.552   2.747
39570W        W11896  28.989  14.314  12.923
39571W        W11897  14.340  37.566  13.175
39572W        W11898   5.229   7.928  13.975
39573W        W11899   3.774  44.050   0.575
39574W        W11900  14.331  24.278  13.386
39575W        W11901  41.996  23.311   4.490
39576W        W11902  11.361  40.843  13.902
39577W        W11903   2.944   2.871  12.124
39578W        W11904  21.534  30.873  13.530
39579W        W11905  41.907   7.096   2.293
39580W        W11906   9.737  35.793   4.368
39581W        W11907  27.812  18.786   3.299
39582W        W11908  14.406   7.774   4.835
39583W        W11909  15.141  41.589   1.658
39584W        W11910  22.675  22.585   1.017
39585W        W11911  18.133   6.823   2.839
39586W        W11912  15.687  39.486   0.930
39587W        W11913  30.599  19.682   3.058
39588W        W11914  10.415  11.796  12.673
39589W        W11915  39.501  23.801   2.933
39590W        W11916  37.358   2.956   2.876
39591W        W11917  43.461   1.570   3.696
39592W        W11918  41.540  19.576  10.676
39593W        W11919  36.559  39.482   1.714
39594W        W11920  41.412  21.707   2.931
39595W        W11921   2.357  14.593   0.636
39596W        W11922  12.262  17.830   2.165
39597W        W11923  38.270  27.974  11.970
39598W        W11924   6.889  13.339  11.585
39599W        W11925  21.379  19.366  13.413
39600W        W11926  33.835  33.768  12.075
39601W        W11927  25.068  29.955   4.038
39602W        W11928   9.140  32.001  10.346
39603W        W11929   9.228   4.118   1.913
39604W        W11930  24.037  20.619  11.983
39605W        W11931  29.419  14.515   1.199
39606W        W11932  12.938  37.351  14.332
39607W        W11933   8.812  38.436   3.347
39608W        W11934  43.828  37.161  12.461
39609W        W11935  22.002  28.102   3.230
39610W        W11936   7.331  41.924   0.069
39611W        W11937  26.967   0.029   1.639
39612W        W11938  11.716  27.691  11.567
39613W        W11939  42.124   1.381  13.597
39614W        W11940  10.853  44.070  11.676
39615W        W11941  11.153   1.401  12.054
39616W        W11942  20.014  30.911  13.081
39617W        W11943  41.925  14.586   2.004
39618W        W11944   3.213  21.440   2.253
39619W        W11945   8.049  13.883  14.393
39620W        W11946  41.115  24.899  12.913
39621W        W11947  36.602  20.260  11.236
39622W        W11948  40.763  34.507  10.376
39623W        W11949   2.473  28.023   2.687
39624W        W11950  20.365  13.671   3.449
39625W        W11951   3.805  13.881  11.064
39626W        W11952  12.131  23.084   4.141
39627W        W11953  26.825   0.970   0.731
39628W        W11954  25.444  35.294   4.190
39629W        W11955  28.841  18.191   0.830
39630W        W11956  30.103  12.360  11.921
39631W        W11957  17.089  36.655   3.605
39632W        W11958  18.423  20.505   1.935
39633W        W11959  27.685  11.460  13.008
39634W        W11960   9.890  21.429   2.013
39635W        W11961   6.128  28.517   2.293
39636W        W11962  17.735   6.653  14.223
39637W        W11963  29.912   8.789  13.484
39638W        W11964   3.128  22.757   2.668
39639W        W11965   5.290  16.388   1.383
39640W        W11966   0.849  38.469   0.008
39641W        W11967  30.968  27.229  12.754
39642W        W11968  41.378  15.111  11.180
39643W        W11969  33.155   9.951   2.944
39644W        W11970   1.005   6.301  11.993
39645W        W11971  18.536  31.138   3.787
39646W        W11972  37.804  21.331  12.909
39647W        W11973  13.113  20.017   2.157
39648W        W11974  20.217  35.429  12.535
39649W        W11975  38.290  31.815   1.716
39650W        W11976  11.385  30.086  11.482
39651W        W11977  29.205  43.092   2.397
39652W        W11978   1.996  21.309   0.307
39653W        W11979  44.371  39.942  12.472
39654W        W11980  19.194   6.878  11.628
39655W        W11981  25.203  40.772   3.072
39656W        W11982  38.440  34.971  13.294
39657W        W11983  14.655  43.387  13.113
39658W        W11984  20.587  39.195   3.233
39659W        W11985   7.210  42.514   2.644
39660W        W11986  11.222  25.247   4.745
39661W        W11987  19.511  14.928   3.250
39662W        W11988  33.292  31.378   0.344
39663W        W11989  34.345   6.251   3.880
39664W        W11990  32.881  16.128  13.005
39665W        W11991  38.931  31.167  11.055
39666W        W11992  40.893  23.385   0.387
39667W        W11993  27.719   9.139   1.776
39668W        W11994   9.152  39.619   0.218
39669W        W11995  41.336  13.289  14.878
39670W        W11996  12.355  24.208   2.385
39671W        W11997  15.973   5.421  12.121
39672W        W11998  33.551  23.604  11.698
39673W        W11999   1.168  12.755   3.851
39674W        W12000  30.118  37.852   1.225
39675W        W12001  20.074  23.224  11.565
39676W        W12002  12.367  15.107  11.448
39677W        W12003  34.178  14.282  11.122
39678W        W12004  37.708  18.889   1.904
39679W        W12005  42.547  24.265  12.513
39680W        W12006  24.722  41.081   4.138
39681W        W12007   2.571   5.834   2.906
39682W        W12008  22.197  31.388   3.659
39683W        W12009  40.913  30.947   4.052
39684W        W12010  30.043  14.675  11.574
39685W        W12011  34.013  13.339   3.713
39686W        W12012   1.633  33.364  11.227
39687W        W12013  17.670  43.922   0.281
39688W        W12014  29.461  24.153   2.410
39689W        W12015  18.456  29.181  13.070
39690W        W12016  37.129  17.549  11.098
39691W        W12017  32.537  17.808   3.719
39692W        W12018   3.412  43.687   0.414
39693W        W12019  25.572  24.577  14.523
39694W        W12020  36.553   1.852   4.633
39695W        W12021  39.739   0.702   1.320
39696W        W12022  11.042  32.527  14.436
39697W        W12023  34.786  33.197   4.738
39698W        W12024  21.222  27.507   0.477
39699W        W12025   4.066  29.766  12.022
39700W        W12026   6.772  18.160  14.817
39701W        W12027  35.310  14.895   2.343
39702W        W12028  16.753  19.755  12.089
39703W        W12029  22.032  23.240   1.989
39704W        W12030  27.507  23.567   1.429
39705W        W12031  30.113  15.827  13.152
39706W        W12032  17.261  20.387   3.618
39707W        W12033  31.819  33.617   4.023
39708W        W12034   3.233  40.856  11.190
39709W        W12035   3.726  11.840  10.261
39710W        W12036  38.899  12.023   0.254
39711W        W12037  11.741  39.894  12.658
39712W        W12038  30.034  31.394  14.125
39713W        W12039  26.227  34.540   1.130
39714W        W12040  36.686  12.449  12.742
39715W        W12041  33.738  14.458   4.768
39716W        W12042  42.486  40.967   1.170
39717W        W12043  40.860  37.544   1.923
39718W        W12044  11.908  35.277  14.878
39719W        W12045  31.578  20.589  13.403
39720W        W12046  32.362  12.216   1.928
39721W        W12047   7.667   0.168  14.933
39722W        W12048  35.505  28.638  13.126
39723W        W12049  39.866  13.052  11.493
39724W        W12050   0.748  10.877  13.285
39725W        W12051  14.892  37.337   1.323
39726W        W12052  32.529  10.776  10.565
39727W        W12053  30.028   5.159   1.412
39728W        W12054  35.049  34.315  11.450
39729W        W12055   4.899   8.708  11.082
39730W        W12056  19.016   7.771  11.461
39731W        W12057  40.784  32.946   4.523
39732W        W12058   4.677  43.081  10.632
39733W        W12059  43.094  36.152   1.200
39734W        W12060  12.350  16.126   1.770
39735W        W12061  35.908  30.827   1.712
39736W        W12062   6.927   9.362  13.959
39737W        W12063   1.922   4.705   0.026
39738W        W12064  20.064  42.313   4.244
39739W        W12065  17.609  37.355  12.384
39740W        W12066   3.331  13.681   3.801
39741W        W12067  38.283  11.637   2.857
39742W        W12068  20.578  33.504  14.961
39743W        W12069  36.540  14.013  10.525
39744W        W12070  32.093  21.211  11.973
39745W        W12071   9.879   8.955   3.743
39746W        W12072  20.650   3.301  10.676
39747W        W12073  17.709  18.094   3.837
39748W        W12074  11.465  24.135   2.265
39749W        W12075  27.201  12.223  10.586
39750W        W12076  40.499   9.153  11.666
39751W        W12077  27.478  41.274   3.170
39752W        W12078  10.885  13.672  14.757
39753W        W12079  41.008  16.117   3.196
39754W        W12080  18.028  11.271  10.611
39755W        W12081   2.590  22.954  13.033
39756W        W12082  38.626  25.087  13.501
39757W        W12083   3.267  40.030   4.374
39758W        W12084  37.607   5.548   2.372
39759W        W12085   7.733  18.062  13.549
39760W        W12086  44.250   8.654   2.604
39761W        W12087  39.599  40.969   1.935
39762W        W12088  17.789   6.215   3.599
39763W        W12089  19.139  17.835  13.458
39764W        W12090   9.073  26.710   1.727
39765W        W12091  33.081  16.661   0.649
39766W        W12092  16.956  14.726  11.953
39767W        W12093  28.654  22.696   2.321
39768W        W12094  19.962  21.736   2.875
39769W        W12095  34.273  12.165   4.193
39770W        W12096  40.218   3.427   3.213
39771W        W12097  44.424  13.131   1.424
39772W        W12098   3.967  36.078   0.029
39773W        W12099   5.445  20.490  11.699
39774W        W12100  42.035  35.626  13.108
39775W        W12101  42.809   0.212   1.363
39776W        W12102  26.954  35.949   4.774
39777W        W12103  38.448  36.326  12.955
39778W        W12104  42.928  10.148  12.619
39779W        W12105  36.525  40.602  11.514
39780W        W12106  21.655   0.926   2.407
39781W        W12107  41.438  28.458  14.864
39782W        W12108   4.193  18.169   4.313
39783W        W12109  35.054  43.686  11.472
39784W        W12110  22.751  19.798   3.200
39785W        W12111   5.215  23.452   1.461
39786W        W12112  19.444  20.672   1.915
39787W        W12113  17.196  10.242   3.596
39788W        W12114  40.893  40.850  11.206
39789W        W12115   4.858   1.673   4.863
39790W        W12116   6.766   3.255   0.014
39791W        W12117  10.125  31.400   1.323
39792W        W12118   8.808   4.648   1.276
39793W        W12119  34.431   7.813  13.100
39794W        W12120  22.790  16.195  13.950
39795W        W12121  16.834  33.528   1.312
39796W        W12122  35.490  39.391   3.251
39797W        W12123   6.798   4.412  13.785
39798W        W12124  27.084  18.548   4.644
39799W        W12125  22.469  40.943  14.363
39800W        W12126  21.610   4.697  14.471
39801W        W12127  21.241   4.685  10.696
39802W        W12128  40.496  44.251  11.547
39803W        W12129  11.878   4.793  14.858
39804W        W12130   1.593  11.635   5.111
39805W        W12131  38.043  12.299   4.986
39806W        W12132   4.003   6.764   0.910
39807W        W12133  32.035   1.954  14.269
39808W        W12134   9.382   4.041   3.330
39809W        W12135  14.944  35.558   0.465
39810W        W12136   5.756  29.446  11.658
39811W        W12137  32.021   8.803   0.816
39812W        W12138   1.434  24.106   5.115
39813W        W12139  15.173  31.589   4.041
39814W        W12140   3.282  22.567   3.940
39815W        W12141  15.566   0.838   0.175
39816W        W12142  42.302  14.288   3.843
39817W        W12143  37.975  40.778  14.975
39818W        W12144  38.095  16.483  11.306
39819W        W12145   1.426  17.538  11.952
39820W        W12146  16.605  39.520  14.523
39821W        W12147  26.231  21.528  12.131
39822W        W12148  27.822  26.687  10.686
39823W        W12149  34.051  34.312  11.951
39824W        W12150  44.461  16.512   9.867
39825W        W12151  23.905  35.671   3.195
39826W        W12152  41.807   2.313   1.138
39827W        W12153  26.428  29.990  10.772
39828W        W12154  42.388  16.970   2.091
39829W        W12155  41.445  34.646  14.717
39830W        W12156   2.772  44.446  12.405
39831W        W12157  30.655   0.988  14.097
39832W        W12158  21.633   7.784   4.727
39833W        W12159  31.985   1.003   1.334
39834W        W12160   0.354  17.032  14.460
39835W        W12161  19.792  44.014   0.688
39836W        W12162  27.999   4.751  12.151
39837W        W12163  21.610  27.815  10.207
39838W        W12164   6.050  12.702  11.583
39839W        W12165   2.028  24.640  10.019
39840W        W12166  40.911  39.365   1.792
39841W        W12167  27.664  26.129  12.847
39842W        W12168  22.851  44.001   0.825
39843W        W12169   6.013  18.209   4.150
39844W        W12170  44.852  40.072   1.299
39845W        W12171  41.088  38.414   4.798
39846W        W12172  39.386  19.959  13.536
39847W        W12173   9.219  24.666   4.801
39848W        W12174  38.066  34.591  13.917
39849W        W12175   7.402   8.334  13.285
39850W        W12176  40.122  13.474  10.566
39851W        W12177  43.419  13.719   4.533
39852W        W12178  33.899  31.859  12.493
39853W        W12179  18.508  19.841  13.435
39854W        W12180  31.666  25.001  12.427
39855W        W12181  18.245   9.294   3.814
39856W        W12182  11.720  18.161  10.258
39857W        W12183   4.797  13.305  14.319
39858W        W12184   5.483  12.648  13.435
39859W        W12185   6.886  43.300  10.272
39860W        W12186  43.971  38.744  14.947
39861W        W12187   4.940   5.343  10.523
39862W        W12188  29.872  13.800  14.540
39863W        W12189  34.918  25.817   1.974
39864W        W12190  26.159  36.044  12.837
39865W        W12191  27.569   4.729  13.115
39866W        W12192  37.773  27.890  12.024
39867W        W12193  16.546  39.392   2.307
39868W        W12194   4.372   4.645   0.414
39869W        W12195  27.104  18.825  12.485
39870W        W12196   5.665  37.485   2.768
39871W        W12197  22.006  33.863  14.444
39872W        W12198  18.815  10.336   1.935
39873W        W12199  44.031  10.617  14.016
39874W        W12200  38.279  39.297   2.316
39875W        W12201   1.277  38.772  14.941
39876W        W12202  43.812  22.567   4.295
39877W        W12203  10.703  38.852   2.124
39878W        W12204  14.333  26.504   1.214
39879W        W12205  33.389  22.628  13.596
39880W        W12206  14.838  15.875  11.943
39881W        W12207  16.814  39.319  13.398
39882W        W12208   5.266  42.871  13.298
39883W        W12209  12.671  37.961   0.668
39884W        W12210   4.009  33.722   1.707
39885W        W12211  39.752   8.090  13.705
39886W        W12212  18.083  39.189   1.682
39887W        W12213   8.365  40.337   0.977
39888W        W12214  44.536  20.119   2.424
39889W        W12215   4.011  21.623   3.094
39890W        W12216  32.559   2.858  10.716
39891W        W12217  20.374  23.365   3.757
39892W        W12218  11.429  34.047  11.093
39893W        W12219  44.136  20.301  13.875
39894W        W12220  19.597  33.693  12.079
39895W        W12221   4.922  19.501  14.450
39896W        W12222  24.736  36.038  11.077
39897W        W12223  18.860  41.497  13.350
39898W        W12224  16.569   1.165   3.600
39899W        W12225   3.920   8.761  14.757
39900W        W12226  33.308  21.949   3.192
39901W        W12227  13.323  42.841   3.244
39902W        W12228  16.044  44.289  13.818
39903W        W12229  20.687   5.327  11.153
39904W        W12230  23.507  11.085   4.514
39905W        W12231  12.225  14.016  11.186
39906W        W12232  30.082  32.054  10.393
39907W        W12233  24.060   6.347  12.601
39908W        W12234  33.391  24.914  14.184
39909W        W12235  23.505  37.100   0.267
39910W        W12236  39.764   1.424   0.994
39911W        W12237  20.022   1.961   0.347
39912W        W12238  39.729  25.733  14.729
39913W        W12239  15.648   4.251  10.260
39914W        W12240  16.295  17.612   2.587
39915W        W12241  19.386  27.267   2.362
39916W        W12242  24.125  17.810  13.019
39917W        W12243   0.956  34.055  13.041
39918W        W12244   6.901   7.770  14.995
39919W        W12245  27.572  41.847   0.632
39920W        W12246  41.860  40.257  12.134
39921W        W12247  43.486  39.845  13.223
39922W        W12248   0.341  40.097   3.268
39923W        W12249  35.883  30.948   0.292
39924W        W12250  34.033   6.805   1.798
39925W        W12251   4.678  28.057  14.385
39926W        W12252  35.603  43.534   2.319
39927W        W12253  24.703  11.891   1.823
39928W        W12254  23.034   6.449   2.665
39929W        W12255  19.263  22.944  11.960
39930W        W12256  38.363   1.784   4.105
39931W        W12257  33.557  20.396  10.459
39932W        W12258  37.589  16.616  11.971
39933W        W12259   8.909  18.523  10.817
39934W        W12260   8.310   0.830  11.960
39935W        W12261  15.665  19.843  14.394
39936W        W12262   7.749  38.296   2.325
39937W        W12263  39.052  28.122   4.998
39938W        W12264  29.056  36.468   3.837
39939W        W12265  12.682  41.550  11.149
39940W        W12266  14.233   0.918   2.693
39941W        W12267  15.111  38.531   2.701
39942W        W12268  33.137  11.342   4.296
39943W        W12269  35.322  16.204   1.673
39944W        W12270  33.906  26.092  11.033
39945W        W12271   2.788   1.460   5.021
39946W        W12272  22.631   6.675  10.834
39947W        W12273  42.085  40.505  14.889
39948W        W12274   1.816  33.018  11.551
39949W        W12275  24.272  20.607  14.292
39950W        W12276  23.454  44.222   4.131
39951W        W12277   6.518  30.973   2.727
39952W        W12278   7.508  19.769  12.846
39953W        W12279  28.291  38.583  12.204
39954W        W12280   6.913   6.351   1.815
39955W        W12281   6.435  33.446   1.342
39956W        W12282  27.072   4.091  11.203
39957W        W12283   9.347  43.795   0.779
39958W        W12284  17.095   6.028  13.390
39959W        W12285   7.883  15.071   1.739
39960W        W12286  29.373  36.787   1.741
39961W        W12287   7.009  40.637  10.880
39962W        W12288  16.145  22.142  13.924
39963W        W12289  27.067  19.654   2.770
39964W        W12290  18.847  30.442   0.288
39965W        W12291  25.676  16.132  11.154
39966W        W12292  23.592   1.487  12.891
39967W        W12293  41.894  16.153  11.726
39968W        W12294  30.322  12.377  11.457
39969W        W12295  10.384  36.147  12.077
39970W        W12296  39.815  27.633   1.388
39971W        W12297  16.008  38.228   4.061
39972W        W12298  35.893  26.185  10.711
39973W        W12299  28.414  34.675   0.305
39974W        W12300  21.415  38.526   0.786
39975W        W12301   5.374  21.602   4.115
39976W        W12302  31.892  17.976   1.985
39977W        W12303  27.592  24.127   0.545
39978W        W12304  13.701  26.679  11.089
39979W        W12305  32.070  26.914  14.398
39980W        W12306  28.677  29.213   0.314
39981W        W12307  34.067  36.988   3.891
39982W        W12308   3.997   5.433  11.251
39983W        W12309  12.120   1.150  11.117
39984W        W12310  28.675   6.846  14.971
39985W        W12311  34.481  12.196   0.787
39986W        W12312   1.635   9.110  14.202
39987W        W12313  26.025  43.511  14.417
39988W        W12314  12.358  23.026   0.258
39989W        W12315   2.031  29.261   0.994
39990W        W12316   1.552  24.468   2.781
39991W        W12317  27.011   0.434  12.970
39992W        W12318  44.849   2.709   2.401
39993W        W12319   7.689   5.665  11.596
39994W        W12320  24.613  33.614   4.382
39995W        W12321   8.245  36.346  14.071
39996W        W12322  24.682  24.387  11.515
39997W        W12323  28.290   9.225  12.389
39998W        W12324  40.547  36.960  13.496
39999W        W12325  22.174  11.740   2.727
40000W        W12326  29.057   7.833  11.497
40001W        W12327   5.840   1.824   1.176
40002W        W12328  19.184  30.480   2.572
40003W        W12329  10.780   2.619   3.125
40004W        W12330  31.894  42.019   1.964
40005W        W12331  36.621  29.032  12.838
40006W        W12332  24.256  11.245   2.286
40007W        W12333  18.715  39.103   5.102
40008W        W12334  32.643   7.287  11.620
40009W        W12335  26.106  17.640  12.022
40010W        W12336  19.012  24.227   2.147
40011W        W12337  14.336  15.146   0.808
40012W        W12338  42.370  43.292  13.858
40013W        W12339  43.192  22.949   9.874
40014W        W12340  35.532  25.746  12.101
40015W        W12341   4.620  32.132  11.492
40016W        W12342  13.061  15.260  12.054
40017W        W12343  40.117  41.057  12.044
40018W        W12344  44.867   6.944  10.757
40019W        W12345  29.538  36.702   3.650
40020W        W12346  35.819  32.020   4.079
40021W        W12347  33.911  30.211   1.224
40022W        W12348  27.876  29.270   9.804
40023W        W12349  37.747   9.465   2.864
40024W        W12350   1.737  11.995   0.770
40025W        W12351  16.692   7.898  12.336
40026W        W12352  29.067  31.654  11.049
40027W        W12353  19.982  37.871  10.860
40028W        W12354  34.543  34.505  10.545
40029W        W12355  21.639  35.877  10.698
40030W        W12356  43.466  16.586  11.210
40031W        W12357  32.234  28.332   0.851
40032W        W12358  35.986  33.054  14.991
40033W        W12359  39.986  16.248   2.408
40034W        W12360  16.061  20.273  13.547
40035W        W12361  42.700  22.805  14.293
40036W        W12362  11.178  38.704   3.277
40037W        W12363  28.985  30.168   4.014
40038W        W12364  38.034  40.292   3.212
40039W        W12365  24.962   8.905   2.787
40040W        W12366   9.488  22.815   3.180
40041W        W12367  44.653  34.942  10.777
40042W        W12368  23.751   8.917  12.036
40043W        W12369  41.496  27.577  13.291
40044W        W12370  36.622  17.839   0.958
40045W        W12371  34.628  34.007   1.176
40046W        W12372  28.392  19.671   3.798
40047W        W12373  28.104   0.817   3.679
40048W        W12374  20.420  44.764  14.866
40049W        W12375   2.197  26.470  11.619
40050W        W12376  29.960  15.141  11.365
40051W        W12377  42.102  38.090   1.928
40052W        W12378  44.487   6.353   2.203
40053W        W12379  27.053  16.071   4.611
40054W        W12380  17.236  18.714  10.272
40055W        W12381  14.145   7.386   1.372
40056W        W12382   1.414  17.133   1.255
40057W        W12383  40.923  21.095  13.318
40058W        W12384  21.542  39.835  11.921
40059W        W12385   6.645  37.507   2.739
40060W        W12386   3.420  27.609  10.962
40061W        W12387  24.373  44.292   1.312
40062W        W12388  14.225  43.399   4.603
40063W        W12389  25.902  14.739   0.200
40064W        W12390  32.978  30.519   4.237
40065W        W12391  12.174  25.510   1.352
40066W        W12392   7.827   8.608   3.277
40067W        W12393   9.460  37.985   0.825
40068W        W12394  19.014  25.066   2.942
40069W        W12395  42.971  36.064   0.025
40070W        W12396  10.818   9.860   3.599
40071W        W12397  28.662  32.082  10.575
40072W        W12398  36.541  20.647  14.265
40073W        W12399  20.728  31.674   2.596
40074W        W12400  15.832  29.037  14.289
40075W        W12401  13.284   1.240  12.483
40076W        W12402  40.040  14.262   3.785
40077W        W12403  39.271  10.763   1.243
40078W        W12404  11.356  23.580  13.799
40079W        W12405  19.419  36.531   4.455
40080W        W12406   0.650  28.785   3.662
40081W        W12407  16.378  16.710   3.835
40082W        W12408  32.640   5.699   4.151
40083W        W12409  23.629  38.425  13.081
40084W        W12410   1.038  40.895   0.454
40085W        W12411  20.233  33.382   3.769
40086W        W12412   3.971  31.510  12.661
40087W        W12413  23.862  25.952   0.062
40088W        W12414   0.887  25.714  13.970
40089W        W12415  35.024  19.066  12.932
40090W        W12416  30.983  40.383  13.095
40091W        W12417  37.241  39.084   2.404
40092W        W12418   1.465  15.822   1.544
40093W        W12419  18.446   5.362   4.550
40094W        W12420  11.363  36.089  12.866
40095W        W12421  25.973  40.884   4.075
40096W        W12422  40.892  26.484   2.550
40097W        W12423  13.786  20.501  13.960
40098W        W12424  41.043  19.293  14.862
40099W        W12425   9.335  39.412   4.724
40100W        W12426  33.197  20.669  14.363
40101W        W12427   7.895  30.174  14.574
40102W        W12428  14.340  31.414  13.418
40103W        W12429  17.703  24.957  10.761
40104W        W12430  20.528  28.671  11.042
40105W        W12431  31.668  31.545  13.332
40106W        W12432  28.172   4.727   4.186
40107W        W12433  44.536  34.832  12.037
40108W        W12434  11.286  34.273  10.591
40109W        W12435  41.722   8.744   0.846
40110W        W12436  34.118  29.657   1.879
40111W        W12437  20.110  30.713  14.713
40112W        W12438  21.314  38.951  10.206
40113W        W12439   1.419  41.229   3.856
40114W        W12440   7.450   0.940  13.423
40115W        W12441  29.181  11.670  11.223
40116W        W12442  37.921  40.760  12.454
40117W        W12443   4.996   8.364  13.538
40118W        W12444   9.879   0.770   4.215
40119W        W12445   7.402  44.981   3.673
40120W        W12446  36.689  17.093  14.517
40121W        W12447  22.970   0.304   4.672
40122W        W12448  29.041   7.221  12.029
40123W        W12449  31.927  27.176  12.395
40124W        W12450  17.481  27.559   0.886
40125W        W12451  44.275   1.973  11.903
40126W        W12452  12.643   7.185   3.887
40127W        W12453   7.503  33.646   2.934
40128W        W12454  23.168  25.565  11.664
40129W        W12455  35.142  16.214   2.410
40130W        W12456  29.487  25.395  11.120
40131W        W12457   5.474   3.077  10.704
40132W        W12458   9.783  39.218  14.354
40133W        W12459  26.717  37.801   2.640
40134W        W12460  42.251   1.430  11.142
40135W        W12461  43.285  25.451   1.823
40136W        W12462  31.812  16.962  12.308
40137W        W12463   4.319  25.332   3.636
40138W        W12464  33.498  44.827   0.552
40139W        W12465  32.536   7.259   2.184
40140W        W12466  29.762  24.190   1.515
40141W        W12467  30.333  28.666   3.433
40142W        W12468   3.506  27.666   2.252
40143W        W12469   2.059  21.296  10.533
40144W        W12470  15.310  42.486   0.813
40145W        W12471   9.394  28.193   4.533
40146W        W12472  40.845   5.712   1.186
40147W        W12473   7.387  22.288   4.634
40148W        W12474   3.939  10.920   4.597
40149W        W12475  33.537   3.320   1.739
40150W        W12476  35.029  29.051   1.829
40151W        W12477  19.551  36.472   1.784
40152W        W12478  12.219  34.904  13.601
40153W        W12479   5.146  12.229   2.806
40154W        W12480  26.714   7.720   2.319
40155W        W12481  32.987   9.596  12.383
40156W        W12482  12.303   5.691   2.387
40157W        W12483   0.745  15.243   2.403
40158W        W12484   7.593   8.849  13.385
40159W        W12485  39.396  42.917   0.281
40160W        W12486  39.895  41.837  12.659
40161W        W12487   9.660  30.381   3.753
40162W        W12488   6.261  27.920   4.082
40163W        W12489  33.899   5.885  13.627
40164W        W12490  42.376  36.084  11.877
40165W        W12491   4.312   8.775  13.295
40166W        W12492  42.400   2.378  14.360
40167W        W12493  29.152  10.362   3.254
40168W        W12494  26.864   6.609   4.402
40169W        W12495  17.724  30.680  13.583
40170W        W12496  29.526  44.216  11.633
40171W        W12497  23.571  28.823   0.410
40172W        W12498  15.642  12.999   3.703
40173W        W12499  26.300  16.505   5.619
40174W        W12500  14.070   2.293  14.810
40175W        W12501  43.934   7.354  11.637
40176W        W12502  32.669  14.507  14.390
40177W        W12503  30.509  43.114  12.503
40178W        W12504  32.901  43.972   2.607
40179W        W12505  39.292  29.533  12.911
40180W        W12506  34.136   7.878  13.510
40181W        W12507  36.812   7.323   3.751
40182W        W12508   5.830  30.471  10.334
40183W        W12509  30.600   0.762   0.051
40184W        W12510  22.566  24.552  11.994
40185W        W12511  44.755  34.924   0.673
40186W        W12512   4.556   3.236   3.375
40187W        W12513  12.678   2.984  10.482
40188W        W12514   4.277  18.326   1.799
40189W        W12515   2.433  10.194  11.943
40190W        W12516   5.687  34.722   3.843
40191W        W12517  17.090  37.378  13.619
40192W        W12518  42.204  22.579   3.139
40193W        W12519   4.314   8.769   1.065
40194W        W12520   3.378   5.191  12.062
40195W        W12521   6.872  41.775  13.961
40196W        W12522  14.374  35.319   3.661
40197W        W12523  22.155   3.699   3.196
40198W        W12524   6.161  23.976  14.229
40199W        W12525   2.801  25.548  14.995
40200W        W12526  35.101   0.026   0.816
40201W        W12527  20.020  23.603  11.176
40202W        W12528  41.421  33.726  14.559
40203W        W12529  30.348   3.931  11.633
40204W        W12530   5.881  33.024   4.413
40205W        W12531  24.498  27.941  13.839
40206W        W12532  23.048  22.921   0.818
40207W        W12533  24.189  10.352   2.153
40208W        W12534  43.251  28.477   3.863
40209W        W12535  18.520  20.968   2.162
40210W        W12536   6.596  23.045  13.390
40211W        W12537  33.847  10.323  14.494
40212W        W12538  44.570   6.532  13.976
40213W        W12539   7.743  29.543   2.642
40214W        W12540  26.604  21.280   2.546
40215W        W12541  17.736  22.450  10.746
40216W        W12542  13.865  34.423   4.140
40217W        W12543  30.034  39.546   4.911
40218W        W12544  25.468  33.982   3.660
40219W        W12545   0.064  19.599  14.423
40220W        W12546   3.485  10.130  11.931
40221W        W12547  34.454  41.324   2.712
40222W        W12548  19.147  34.662   4.462
40223W        W12549   6.104  24.964   3.332
40224W        W12550   7.833   7.710   4.247
40225W        W12551   0.735   9.320  11.355
40226W        W12552   5.988  29.186  10.846
40227W        W12553   4.456   1.952   4.110
40228W        W12554   7.445  42.877   0.462
40229W        W12555   0.992   2.801   2.378
40230W        W12556  28.393  24.110   4.977
40231W        W12557   7.120  39.541  13.959
40232W        W12558  42.059  26.791  12.009
40233W        W12559  21.060  15.028   4.134
40234W        W12560  20.104  19.787   1.418
40235W        W12561  20.585  19.871  12.191
40236W        W12562  26.273  35.441  13.546
40237W        W12563  25.949   4.012  11.679
40238W        W12564  30.003  23.972  12.909
40239W        W12565  30.284  30.995   5.072
40240W        W12566  44.041  10.741   4.127
40241W        W12567  14.293   6.923  11.162
40242W        W12568  22.175  17.501   3.191
40243W        W12569  39.137  37.434   0.325
40244W        W12570  41.930  43.327  13.001
40245W        W12571  40.802  13.313   0.375
40246W        W12572  26.246  38.807   3.353
40247W        W12573  14.677  12.900   5.160
40248W        W12574  44.912  31.083   2.574
40249W        W12575   5.923   2.232   3.663
40250W        W12576   6.181   6.022   0.781
40251W        W12577  29.128  15.763   0.461
40252W        W12578  37.118  41.880  14.423
40253W        W12579  16.583  21.011   3.792
40254W        W12580  40.287  38.572  12.979
40255W        W12581  18.179  43.392  10.846
40256W        W12582  10.923  29.933   2.229
40257W        W12583  43.541  18.806  10.652
40258W        W12584  27.185  12.260   1.186
40259W        W12585  42.683  36.354  14.401
40260W        W12586  17.727  32.656  11.185
40261W        W12587  25.163  34.038   4.065
40262W        W12588  19.727  23.018  12.857
40263W        W12589  28.977   1.037   3.158
40264W        W12590  16.254  35.336   3.629
40265W        W12591   8.322  19.529   3.679
40266W        W12592   3.400  36.339  11.866
40267W        W12593  20.804  28.117  12.013
40268W        W12594  21.558   6.488   1.764
40269W        W12595  19.364  10.378  13.515
40270W        W12596  38.581  31.946   5.089
40271W        W12597  19.071  23.747  14.737
40272W        W12598   1.930   6.653  11.188
40273W        W12599  10.656  22.632   0.639
40274W        W12600  25.050  34.721  11.188
40275W        W12601  19.049  23.200  10.601
40276W        W12602  10.391  21.748   4.805
40277W        W12603   5.291  32.486   3.374
40278W        W12604  31.562  38.156   1.123
40279W        W12605  19.619  37.587  14.386
40280W        W12606  23.668  17.530  10.440
40281W        W12607  44.506  26.714  12.660
40282W        W12608  11.788  17.844  11.813
40283W        W12609   2.861   2.763   1.634
40284W        W12610  43.067  13.201   0.066
40285W        W12611   8.618  40.916  12.490
40286W        W12612  39.525   2.862  11.207
40287W        W12613  40.450  29.454   4.669
40288W        W12614  21.685   3.754   0.835
40289W        W12615  24.724   2.715  13.382
40290W        W12616  11.280  38.856  14.516
40291W        W12617  26.689   4.446  14.291
40292W        W12618  37.463  21.212   2.691
40293W        W12619  27.921  10.039   2.783
40294W        W12620  35.014  26.014   3.372
40295W        W12621  28.986  28.477  13.380
40296W        W12622  25.519  14.302  10.366
40297W        W12623  40.838  24.916  14.490
40298W        W12624  35.154  32.062  12.375
40299W        W12625  44.768  12.721  10.698
40300W        W12626  40.312   9.761  12.483
40301W        W12627  41.813   7.786  12.152
40302W        W12628  13.504  23.214   3.857
40303W        W12629  38.494  33.144   4.613
40304W        W12630  16.024  25.490  12.109
40305W        W12631  25.102  28.266  11.129
40306W        W12632   1.833  33.065  13.857
40307W        W12633  21.561  28.053  11.636
40308W        W12634   6.508  27.073   1.241
40309W        W12635  17.298  20.066  12.871
40310W        W12636   0.305  22.725  12.879
40311W        W12637  12.702  32.841   4.142
40312W        W12638  43.958  37.012  14.970
40313W        W12639  25.711  33.545   2.768
40314W        W12640  24.409   8.106   2.264
40315W        W12641  36.600   3.439  11.846
40316W        W12642  16.772  26.248   2.909
40317W        W12643  24.695  22.748   2.646
40318W        W12644  38.964  33.462  10.344
40319W        W12645   5.443  32.931  12.909
40320W        W12646  14.897  23.714   1.430
40321W        W12647   2.488  20.984  11.741
40322W        W12648  22.007  38.418   2.898
40323W        W12649   7.469  24.643  10.717
40324W        W12650  31.393  19.688   1.192
40325W        W12651   3.781   0.472  11.072
40326W        W12652  15.852  29.655   0.338
40327W        W12653  24.548   2.264  12.468
40328W        W12654  39.356  21.819   1.440
40329W        W12655   1.376  23.234   1.709
40330W        W12656  41.950  31.586  14.776
40331W        W12657  17.029   5.996  12.509
40332W        W12658  11.495   7.758   4.351
40333W        W12659  16.188  37.097   3.245
40334W        W12660  22.687  36.541  14.196
40335W        W12661  12.163  32.452   2.144
40336W        W12662  32.186  20.910  12.410
40337W        W12663  13.078  15.924   3.685
40338W        W12664  18.187   3.857   3.852
40339W        W12665  39.575  16.808  14.009
40340W        W12666  38.416   3.235  10.013
40341W        W12667  40.932   8.876   2.225
40342W        W12668   2.019  22.994  14.010
40343W        W12669  10.649  42.015   2.385
40344W        W12670   2.389   2.678   1.826
40345W        W12671  19.537  41.233   3.042
40346W        W12672  12.172  32.550   4.615
40347W        W12673  44.805  16.490  11.813
40348W        W12674   7.799  10.196  14.905
40349W        W12675  17.278   9.806  13.148
40350W        W12676  23.167  19.150   2.216
40351W        W12677  16.327  31.530  14.819
40352W        W12678   7.756  29.563  10.996
40353W        W12679  34.021  27.908  14.809
40354W        W12680   1.106  32.476   4.823
40355W        W12681  30.105  37.339   1.471
40356W        W12682  31.090   0.472   0.330
40357W        W12683  18.794  37.975  14.785
40358W        W12684   1.941   1.728   2.783
40359W        W12685  16.747  13.596   0.366
40360W        W12686  13.176  38.444  12.756
40361W        W12687   5.787  28.682   4.460
40362W        W12688  13.074  34.953  11.126
40363W        W12689  38.829  18.022   0.188
40364W        W12690   7.210   1.141  13.839
40365W        W12691  10.372  27.711   3.699
40366W        W12692  32.880  29.066   2.602
40367W        W12693  31.297  40.229   0.626
40368W        W12694  24.132  32.605  10.706
40369W        W12695   5.964   9.384  11.321
40370W        W12696  44.748  28.723   0.153
40371W        W12697  39.656  32.591  14.933
40372W        W12698   7.585  19.001  12.049
40373W        W12699  11.660  18.131   0.145
40374W        W12700  38.886   9.898  12.114
40375W        W12701  35.202  40.057  13.390
40376W        W12702  40.415  10.578  14.669
40377W        W12703  34.928  33.049   4.257
40378W        W12704  40.731   5.753  13.168
40379W        W12705  29.192  17.080   0.867
40380W        W12706   5.899  15.088  11.070
40381W        W12707  26.547  23.435  14.931
40382W        W12708  37.441  11.895   1.796
40383W        W12709  24.662   5.850  11.163
40384W        W12710  34.862  23.651  10.708
40385W        W12711  40.300  22.020  11.180
40386W        W12712  40.307   4.596  13.299
40387W        W12713  10.541  17.688   1.724
40388W        W12714  40.298   5.997  13.313
40389W        W12715  28.683  21.909  14.926
40390W        W12716  20.227  10.131  10.162
40391W        W12717  38.406  13.739   4.940
40392W        W12718  42.329  38.605  11.534
40393W        W12719  21.741  44.049   0.748
40394W        W12720  16.530  43.849  13.312
40395W        W12721   0.885  26.720   2.309
40396W        W12722  15.779  19.009  10.714
40397W        W12723  38.014  13.595  14.407
40398W        W12724  28.497  16.708   0.011
40399W        W12725  10.301   6.969   4.872
40400W        W12726  39.864  42.776  12.094
40401W        W12727  22.645  21.186   5.085
40402W        W12728  18.120  32.824  14.803
40403W        W12729  33.872   9.759  14.673
40404W        W12730  18.313  27.664   2.724
40405W        W12731  34.197  26.638   3.657
40406W        W12732  24.427  30.064   3.185
40407W        W12733  42.055  20.417   4.103
40408W        W12734   1.709  37.611  14.662
40409W        W12735   2.227  37.571   0.413
40410W        W12736  40.261  43.971  13.418
40411W        W12737  23.656  25.789   4.686
40412W        W12738  28.634  15.560  11.998
40413W        W12739  19.814  44.830  13.965
40414W        W12740  37.786  38.511  12.679
40415W        W12741   4.070  44.418  14.419
40416W        W12742  33.397  11.272   4.767
40417W        W12743  13.423  24.735  14.903
40418W        W12744   8.608  38.727  12.547
40419W        W12745  32.557  44.907   4.386
40420W        W12746  15.734  10.907  11.329
40421W        W12747  12.629  24.724   2.348
40422W        W12748  30.498  32.864  10.593
40423W        W12749  10.639  27.994   1.626
40424W        W12750  27.642  24.582  11.939
40425W        W12751  35.805  10.594  11.572
40426W        W12752  17.734  13.293  10.420
40427W        W12753  12.699  22.084   1.877
40428W        W12754   2.993  23.585   4.140
40429W        W12755  41.295  20.940   4.016
40430W        W12756  37.399  27.673   4.463
40431W        W12757  34.765  28.289  12.452
40432W        W12758  38.153  11.370   4.976
40433W        W12759  34.477  15.233   4.565
40434W        W12760  13.009  11.173  13.387
40435W        W12761  33.680  38.809  14.775
40436W        W12762  42.262  27.007  10.690
40437W        W12763   7.273  27.959  11.480
40438W        W12764  24.104  40.051  10.946
40439W        W12765  23.140  11.679  13.375
40440W        W12766  18.517  38.961  13.009
40441W        W12767  19.757  19.173   2.859
40442W        W12768  14.813  11.872   3.176
40443W        W12769  32.748  41.037   3.474
40444W        W12770  30.061   3.300   2.159
40445W        W12771  22.649   1.701  13.259
40446W        W12772  10.887  14.904   2.128
40447W        W12773  33.589   3.367  10.704
40448W        W12774  42.498  37.896  12.041
40449W        W12775  35.602   1.704   2.755
40450W        W12776  16.182  43.453  11.117
40451W        W12777  24.585  28.204  12.515
40452W        W12778  22.908  24.585   0.243
40453W        W12779  13.336  23.977   0.445
40454W        W12780  27.537  43.031   1.788
40455W        W12781   4.095   1.440   2.358
40456W        W12782  12.152  36.130  12.375
40457W        W12783  44.463  11.295   4.079
40458W        W12784  12.352  26.897   2.868
40459W        W12785  42.443  39.701  13.351
40460W        W12786  35.580  44.354   0.693
40461W        W12787  34.491  11.071   4.827
40462W        W12788   8.671  18.302  11.196
40463W        W12789  22.444   2.129  10.641
40464W        W12790  22.517  40.183  10.704
40465W        W12791   1.306   6.250   3.817
40466W        W12792  33.591   1.423   1.445
40467W        W12793   8.351  10.775   0.037
40468W        W12794  23.672  18.559   1.237
40469W        W12795  28.507  13.877   2.413
40470W        W12796  15.633  20.589   2.787
40471W        W12797  35.945   4.572  10.646
40472W        W12798  20.611  44.256  10.626
40473W        W12799  11.886  30.574  13.030
40474W        W12800  14.563  25.856  13.973
40475W        W12801  24.984  28.871  13.623
40476W        W12802  43.987   1.598  12.143
40477W        W12803  35.487   5.195  11.434
40478W        W12804  33.823  34.668   2.370
40479W        W12805   4.519  11.356   1.883
40480W        W12806  40.217   8.417  12.341
40481W        W12807  36.859  16.725   1.936
40482W        W12808  10.730  36.461   2.870
40483W        W12809   5.912  35.524  14.248
40484W        W12810  39.014  26.605  11.028
40485W        W12811  34.779  41.414   4.097
40486W        W12812   7.130  16.610   4.414
40487W        W12813  34.252  41.555   3.192
40488W        W12814  23.945   5.353  13.102
40489W        W12815  30.115  31.528  11.596
40490W        W12816  25.465  42.437   1.361
40491W        W12817  37.853  35.015  12.512
40492W        W12818  22.891   8.235  14.493
40493W        W12819  28.433   3.921  11.450
40494W        W12820  27.523   3.280  12.846
40495W        W12821  21.694  30.002   2.843
40496W        W12822  19.085  13.086   4.616
40497W        W12823   6.170  23.474  11.021
40498W        W12824  14.020  27.029   1.871
40499W        W12825  19.358   8.614  11.985
40500W        W12826  10.752   2.870   0.320
40501W        W12827  10.562  23.536   0.325
40502W        W12828  10.317  32.072  12.020
40503W        W12829   7.402  31.539  14.014
40504W        W12830  18.629  16.782   1.291
40505W        W12831  13.218  35.193   3.244
40506W        W12832  31.496  16.263   3.796
40507W        W12833   4.761  40.901   2.693
40508W        W12834  31.418  23.305  11.076
40509W        W12835  29.013  14.686   0.371
40510W        W12836  44.795  16.640   1.943
40511W        W12837   5.855  34.537   4.343
40512W        W12838   7.064  26.415   1.883
40513W        W12839  17.041  34.874  14.474
40514W        W12840  18.847   5.059  12.859
40515W        W12841   9.213  24.773   2.876
40516W        W12842  20.710  31.927  13.353
40517W        W12843  21.579  43.760  10.754
40518W        W12844  20.820  12.792  13.777
40519W        W12845   3.843   2.379   5.011
40520W        W12846  20.105  25.586  11.805
40521W        W12847  34.148   4.197   1.783
40522W        W12848  30.354   8.272   4.644
40523W        W12849  11.855  20.389   4.914
40524W        W12850   9.212  25.127  13.266
40525W        W12851  23.430  24.640   0.358
40526W        W12852  43.440  42.110  12.679
40527W        W12853  17.187  40.573   0.887
40528W        W12854  16.362  43.807   0.950
40529W        W12855  33.909  36.301  13.935
40530W        W12856  30.179  41.377  12.451
40531W        W12857  40.173  18.038   1.629
40532W        W12858  13.649   0.848  10.965
40533W        W12859  28.564  27.263   0.860
40534W        W12860  25.522  26.589  13.830
40535W        W12861   3.308  30.278  11.667
40536W        W12862  27.364  15.529  11.149
40537W        W12863  31.005  20.781  13.400
40538W        W12864  11.296  27.286  13.414
40539W        W12865  31.084  11.843   4.182
40540W        W12866  29.877   7.477   1.312
40541W        W12867  42.974  21.481   4.142
40542W        W12868   2.201  28.874   2.826
40543W        W12869  32.555  12.123   3.394
40544W        W12870  30.905  11.188   2.252
40545W        W12871  10.151  25.012   2.767
40546W        W12872   7.793  23.653  14.978
40547W        W12873  39.065  27.577  14.466
40548W        W12874   5.896  15.423   2.192
40549W        W12875   9.295  41.840  11.154
40550W        W12876  38.975   4.416  12.563
40551W        W12877  14.019   3.003   5.097
40552W        W12878  11.099  38.059  11.284
40553W        W12879  15.782  21.246  11.232
40554W        W12880  40.673  36.964   2.645
40555W        W12881  24.095  12.626   5.323
40556W        W12882  16.763  18.265   3.213
40557W        W12883  43.532  30.406   2.630
40558W        W12884   7.881   2.799   3.221
40559W        W12885   3.680  44.776  14.339
40560W        W12886   6.343  41.030  13.816
40561W        W12887  42.724  39.613   4.558
40562W        W12888  30.977  27.909   3.905
40563W        W12889  38.098   6.622   4.402
40564W        W12890  38.908  20.240  14.815
40565W        W12891  33.251  22.705  10.739
40566W        W12892   4.983   3.503  14.842
40567W        W12893  19.976   3.757  14.328
40568W        W12894  12.649  13.105   0.113
40569W        W12895  31.432   0.521  14.895
40570W        W12896  12.594  44.193  13.754
40571W        W12897  44.301   4.681  10.582
40572W        W12898  44.021  37.855  13.806
40573W        W12899  19.478  20.162  14.254
40574W        W12900  18.271   4.456  10.705
40575W        W12901   8.428   9.384  13.330
40576W        W12902   0.607   1.913  12.854
40577W        W12903  32.551  31.730   1.806
40578W        W12904  29.592  20.535  12.709
40579W        W12905   6.222  38.578   3.331
40580W        W12906  23.152  31.060   4.573
40581W        W12907  17.619  14.158   4.116
40582W        W12908   8.583  11.194   0.290
40583W        W12909  28.153  32.571   3.124
40584W        W12910  29.415   5.166  11.548
40585W        W12911  30.928   8.857   4.258
40586W        W12912  33.686  41.587   2.278
40587W        W12913  34.392  14.501   4.121
40588W        W12914  36.288  13.202  13.099
40589W        W12915  12.117  33.442  11.054
40590W        W12916  28.969  14.079  12.473
40591W        W12917  20.833  40.778   3.236
40592W        W12918  37.036   8.099   2.261
40593W        W12919  35.271  37.869  10.376
40594W        W12920  43.890   5.605   4.180
40595W        W12921  31.122  13.870  13.965
40596W        W12922  29.534   7.144   1.143
40597W        W12923  15.016   6.528   1.011
40598W        W12924  33.885  40.213   3.386
40599W        W12925   6.180  11.744  14.293
40600W        W12926  24.849  23.047   4.162
40601W        W12927   2.405   8.178   2.256
40602W        W12928  14.313   0.736  11.193
40603W        W12929  40.233  29.748  14.940
40604W        W12930  23.085  13.765   1.299
40605W        W12931  19.386  30.091  14.783
40606W        W12932  24.590   7.279   2.458
40607W        W12933   3.034  15.860  13.464
40608W        W12934  15.150  44.757  10.289
40609W        W12935   3.700  36.915   0.102
40610W        W12936  21.137  19.278   1.521
40611W        W12937  23.440  14.019   3.242
40612W        W12938   6.694  34.997   3.343
40613W        W12939  10.336  11.790  13.188
40614W        W12940  27.715  41.536   2.798
40615W        W12941  10.427   2.448   1.709
40616W        W12942  21.037  36.857   1.359
40617W        W12943  40.528   0.482  10.708
40618W        W12944  20.035   0.349   3.805
40619W        W12945  27.008  39.412   0.294
40620W        W12946   5.822  24.923   1.447
40621W        W12947  13.741  21.657   0.463
40622W        W12948   6.437  41.976  11.506
40623W        W12949  19.669  41.343   4.167
40624W        W12950  44.009  29.195   1.901
40625W        W12951  17.059  15.203  14.081
40626W        W12952  42.288   9.634   3.738
40627W        W12953   9.256  20.762   3.278
40628W        W12954  34.916  18.238  11.644
40629W        W12955  12.321  17.589   2.617
40630W        W12956   3.173   1.778  13.978
40631W        W12957  14.777  21.047  12.170
40632W        W12958  40.536   8.711  10.469
40633W        W12959   2.932  35.658   3.202
40634W        W12960  11.610   1.762   2.434
40635W        W12961  16.484  13.054   4.743
40636W        W12962  38.908   8.398   2.637
40637W        W12963  28.049  24.696  10.861
40638W        W12964  37.403  14.006  12.820
40639W        W12965  44.959  31.804   4.188
40640W        W12966  10.199   3.799  11.245
40641W        W12967  40.006  18.314  10.625
40642W        W12968  34.907  38.375   0.535
40643W        W12969  20.698   7.316   0.264
40644W        W12970  14.714  27.605   1.933
40645W        W12971  27.713  24.841   3.198
40646W        W12972  26.082   1.909   4.768
40647W        W12973  30.894  42.787   3.567
40648W        W12974  16.720   2.884   2.847
40649W        W12975   0.569   0.988  14.828
40650W        W12976   5.142  25.659  13.406
40651W        W12977  32.086  41.804   3.823
40652W        W12978  28.213  17.999  12.005
40653W        W12979   7.353  12.672  14.538
40654W        W12980  31.123  29.416   3.690
40655W        W12981  41.363  11.646   2.225
40656W        W12982  36.433  41.069   3.766
40657W        W12983   3.148  13.660  12.165
40658W        W12984  40.875  25.446   4.353
40659W        W12985   1.953  15.692   1.378
40660W        W12986   3.887  18.098  14.088
40661W        W12987  25.251  11.096   2.386
40662W        W12988  24.393  16.514  11.838
40663W        W12989  17.208  15.622  14.905
40664W        W12990  28.486  18.206  13.816
40665W        W12991   5.674   2.229  10.609
40666W        W12992   0.459  25.073  10.730
40667W        W12993  29.668  17.194   2.415
40668W        W12994  41.210  42.322  11.117
40669W        W12995   9.582  17.374   2.406
40670W        W12996  11.819  23.438   2.344
40671W        W12997   7.747   6.817   0.301
40672W        W12998  36.949  36.857  12.159
40673W        W12999  21.975  43.555  12.920
40674W        W13000  33.957  39.898   0.715
40675W        W13001   7.393  11.327  12.961
40676W        W13002  33.511  31.465  12.704
40677W        W13003  36.219  39.551   1.311
40678W        W13004   4.906  41.038  11.704
40679W        W13005  19.222  10.918   2.416
40680W        W13006  43.244  31.352  11.087
40681W        W13007  25.501   0.348   4.152
40682W        W13008  39.044  40.086  11.235
40683W        W13009  43.824  36.524   2.836
40684W        W13010   5.664  15.288   3.970
40685W        W13011  44.487  17.756  11.621
40686W        W13012  41.509   4.407  10.660
40687W        W13013  29.636  25.096   1.269
40688W        W13014  31.757  14.407   2.346
40689W        W13015   1.070  16.589  10.211
40690W        W13016  15.328  32.124  12.981
40691W        W13017  42.528  18.096  14.029
40692W        W13018   6.826  31.981  11.520
40693W        W13019  10.807  37.063   3.579
40694W        W13020   2.283  33.381  14.840
40695W        W13021  20.764   4.777  14.753
40696W        W13022  17.084  38.306   4.391
40697W        W13023  12.577  23.538   1.768
40698W        W13024  11.008  43.894   2.599
40699W        W13025  33.029   9.188   0.326
40700W        W13026  43.253  33.436   1.479
40701W        W13027  15.654  27.971   3.291
40702W        W13028  28.326  32.388  13.899
40703W        W13029  21.141  34.216  10.306
40704W        W13030  28.330  42.389  11.512
40705W        W13031  30.608  31.406  12.493
40706W        W13032  18.687  10.889  13.022
40707W        W13033  29.248  34.044   2.388
40708W        W13034  20.614   2.695   4.391
40709W        W13035  36.760  23.992  13.717
40710W        W13036  33.508  34.289   2.179
40711W        W13037   9.256   3.573   0.459
40712W        W13038  40.130  26.679  13.855
40713W        W13039  27.141  37.064   3.750
40714W        W13040  13.750  33.496   0.971
40715W        W13041  33.133  41.815   1.028
40716W        W13042  39.255  26.559  11.598
40717W        W13043  22.039  39.664   3.401
40718W        W13044  28.546  24.375  10.675
40719W        W13045   0.386  25.206   2.210
40720W        W13046   1.772  13.082  10.656
40721W        W13047  25.661   3.216   0.666
40722W        W13048  22.593  44.197  13.600
40723W        W13049   5.396  15.842  13.847
40724W        W13050  11.169  26.505  11.460
40725W        W13051  23.702  44.322  14.384
40726W        W13052  12.639  36.390  11.545
40727W        W13053  43.980  41.377   2.783
40728W        W13054  34.817  10.319   0.473
40729W        W13055  43.477  11.716  12.919
40730W        W13056  23.589  28.284  13.366
40731W        W13057  13.619  17.230   0.190
40732W        W13058   1.342  19.519  13.913
40733W        W13059   6.333   3.190   4.525
40734W        W13060  14.184  34.015   4.187
40735W        W13061  23.677  36.789  11.011
40736W        W13062   8.940   0.961   2.248
40737W        W13063  22.174  16.697   1.284
40738W        W13064   0.969  23.479  10.697
40739W        W13065  12.323  34.726   3.165
40740W        W13066   6.945   1.414  12.997
40741W        W13067  11.595  22.225   3.958
40742W        W13068  27.888  29.740  10.043
40743W        W13069  13.861   8.705  13.935
40744W        W13070  16.090  22.993   3.532
40745W        W13071  24.034  26.231  14.611
40746W        W13072  26.470  13.376  11.674
40747W        W13073  38.938  13.382  10.266
40748W        W13074   4.963  17.582  12.885
40749W        W13075   8.661   7.123  11.508
40750W        W13076  28.076  39.650  10.121
40751W        W13077   5.013   5.356  13.200
40752W        W13078  42.875  35.542   0.016
40753W        W13079  26.054  18.336   0.418
40754W        W13080  15.694  20.413   3.293
40755W        W13081  39.283  25.798   3.879
40756W        W13082  10.306  29.614   0.697
40757W        W13083  44.994  30.599   4.194
40758W        W13084  19.767  12.658   2.997
40759W        W13085  25.473   6.267   1.224
40760W        W13086  22.672  31.087   4.817
40761W        W13087  14.639  29.826   4.158
40762W        W13088   6.620   2.743  14.482
40763W        W13089  44.770  21.047   0.700
40764W        W13090  44.760  37.917  11.109
40765W        W13091  11.756  23.285  12.042
40766W        W13092  10.165  17.272  14.243
40767W        W13093  14.780  34.120   4.653
40768W        W13094   9.429  19.252   0.261
40769W        W13095  44.984  13.609  12.062
40770W        W13096  12.128  33.825   1.257
40771W        W13097  16.676  13.019  14.272
40772W        W13098  12.895  39.128   4.093
40773W        W13099   8.935  33.679  14.436
40774W        W13100  10.401  31.501  12.541
40775W        W13101  13.750   0.365   0.436
40776W        W13102  11.112  34.624   4.199
40777W        W13103  20.224  21.350  14.106
40778W        W13104  42.014  38.471  12.854
40779W        W13105  10.885  36.366  12.013
40780W        W13106  41.122  19.850   2.768
40781W        W13107  11.316  41.985  11.115
40782W        W13108  22.061  10.358  14.279
40783W        W13109  20.203  23.743   0.670
40784W        W13110  16.782  43.809   4.894
40785W        W13111  20.787   2.030   3.622
40786W        W13112  28.384  25.436   1.336
40787W        W13113   9.201   0.069  14.072
40788W        W13114  14.775  31.076   3.616
40789W        W13115  24.949  39.997  14.443
40790W        W13116   6.420   1.370  14.394
40791W        W13117   8.624  24.549  13.269
40792W        W13118   2.169  14.118  13.810
40793W        W13119   1.003  13.960  10.128
40794W        W13120  10.050  40.069  10.171
40795W        W13121   4.360  28.777   3.219
40796W        W13122   2.342  43.209   3.576
40797W        W13123  21.777  21.583  12.977
40798W        W13124  15.295  26.447  12.028
40799W        W13125   3.402  41.126   4.064
40800W        W13126  20.144  29.724   0.712
40801W        W13127  13.647  15.781  10.112
40802W        W13128   7.338   6.655  11.706
40803W        W13129  41.088   2.021   2.682
40804W        W13130  10.631  44.804  11.116
40805W        W13131  28.113  28.731  10.660
40806W        W13132  29.908  36.979  14.586
40807W        W13133  28.500   4.448   1.709
40808W        W13134   2.138   9.493   5.462
40809W        W13135  24.215   7.258  11.272
40810W        W13136  10.169   0.916  14.061
40811W        W13137   0.416  11.332   2.311
40812W        W13138  16.525  30.863  13.496
40813W        W13139   8.314  19.440   3.002
40814W        W13140  21.661  42.509   3.259
40815W        W13141  40.490  20.144   3.266
40816W        W13142  36.801   1.253  11.165
40817W        W13143   9.616  14.383  10.933
40818W        W13144   1.488   1.234   1.766
40819W        W13145  14.518   4.545  13.998
40820W        W13146   1.361   5.379   2.564
40821W        W13147  30.355  39.538  14.944
40822W        W13148  35.394  33.560   3.622
40823W        W13149  22.530   2.662   1.270
40824W        W13150  14.417   0.391  14.825
40825W        W13151  22.111   5.673   0.792
40826W        W13152   3.039  23.615   3.198
40827W        W13153   6.328  31.198  10.632
40828W        W13154  12.596  40.029  11.496
40829W        W13155  43.426  38.169  14.330
40830W        W13156  35.334  25.054   0.520
40831W        W13157  30.592  41.744   3.640
40832W        W13158  13.729   4.652   4.604
40833W        W13159   9.731  27.450  13.013
40834W        W13160  34.184  40.705  12.060
40835W        W13161  36.981  29.983  13.825
40836W        W13162  43.937   0.401  10.534
40837W        W13163  23.687  34.247   1.423
40838W        W13164  38.816  24.480  10.662
40839W        W13165   6.909  20.630   0.381
40840W        W13166  17.146  13.272   2.698
40841W        W13167  18.267  41.219   4.188
40842W        W13168  26.670  30.768   0.110
40843W        W13169  39.605  32.071  12.196
40844W        W13170  40.239  41.024  12.865
40845W        W13171  35.252  42.471   3.000
40846W        W13172  12.229  17.563  14.896
40847W        W13173  27.160   7.366  12.984
40848W        W13174  14.132  32.476   4.107
40849W        W13175  28.561  32.413  11.862
40850W        W13176  10.266  18.509   1.323
40851W        W13177  32.041  38.231  13.000
40852W        W13178  11.559  14.772   4.823
40853W        W13179  11.377  22.296  10.577
40854W        W13180  33.668  13.909   2.417
40855W        W13181  17.378  31.464   3.721
40856W        W13182  10.159  15.247  14.350
40857W        W13183  15.202   0.946   3.682
40858W        W13184  33.542  16.812   1.436
40859W        W13185  36.390  36.421   2.213
40860W        W13186  22.658  23.440   4.182
40861W        W13187  33.836  41.267  14.601
40862W        W13188  37.034  15.353   4.113
40863W        W13189  40.252   0.078   3.340
40864W        W13190  19.539  16.605  11.019
40865W        W13191  44.394  20.406  12.404
40866W        W13192   9.782  38.976  12.962
40867W        W13193  10.719  33.995   4.724
40868W        W13194  40.619  21.119  14.722
40869W        W13195  11.322  36.144  13.911
40870W        W13196  34.355   8.171   1.901
40871W        W13197  17.170   5.141  10.739
40872W        W13198  14.062  20.695   3.596
40873W        W13199  11.799  26.583  13.446
40874W        W13200  34.200   9.524  12.733
40875W        W13201  16.233  26.665  10.628
40876W        W13202   7.710  29.512  14.801
40877W        W13203   0.513  19.264   4.173
40878W        W13204   7.405  39.464   3.990
40879W        W13205   8.355  20.483   3.645
40880W        W13206  13.655  12.343  11.113
40881W        W13207  43.856   3.772  10.871
40882W        W13208  33.845   0.550  13.320
40883W        W13209  20.710   2.225  13.094
40884W        W13210  31.082  43.232  11.262
40885W        W13211  15.290  26.912  10.806
40886W        W13212  39.895  27.602   2.815
40887W        W13213  43.065  14.336  12.576
40888W        W13214  31.731   6.886   0.169
40889W        W13215  28.126  23.694   0.998
40890W        W13216  12.573  23.182   3.842
40891W        W13217  20.038  22.777  10.850
40892W        W13218   9.702  17.806  10.597
40893W        W13219  36.894  44.915   2.706
40894W        W13220  14.071   3.279   3.227
40895W        W13221  27.398  40.917   1.752
40896W        W13222  27.187  42.859   2.778
40897W        W13223  34.395  12.307  11.969
40898W        W13224  39.320  24.895   0.679
40899W        W13225  36.914  29.495   3.650
40900W        W13226  43.981  11.764   1.404
40901W        W13227  33.014  43.049  13.525
40902W        W13228  15.880  36.289  13.478
40903W        W13229  31.208  43.890  14.473
40904W        W13230  32.337  11.121   1.788
40905W        W13231  37.036  18.972   3.598
40906W        W13232   6.290   2.791   3.132
40907W        W13233  36.338   8.231   1.792
40908W        W13234  19.755  26.767  14.754
40909W        W13235  35.462  22.982   4.309
40910W        W13236  36.086  41.303  11.047
40911W        W13237  31.149  39.380   4.343
40912W        W13238   1.053   0.576  12.893
40913W        W13239  35.972   4.295   3.954
40914W        W13240  12.766   5.265   1.134
40915W        W13241   8.804  13.690  11.469
40916W        W13242   9.293   0.513   0.454
40917W        W13243  34.843  13.971  14.927
40918W        W13244  14.244   3.161  11.992
40919W        W13245   1.500  39.361  14.322
40920W        W13246   1.929  14.800  11.251
40921W        W13247   0.511  32.988   3.602
40922W        W13248  22.046  27.032   2.918
40923W        W13249   3.237  14.255   2.255
40924W        W13250  30.033  32.670   4.090
40925W        W13251  37.820   0.717  14.392
40926W        W13252   9.373   9.624  13.885
40927W        W13253  40.331   6.071   3.113
40928W        W13254  10.207  35.035  14.805
40929W        W13255   7.254  34.857  12.670
40930W        W13256  44.906   3.679   4.914
40931W        W13257  18.666  27.901   4.617
40932W        W13258  33.602  34.171   3.156
40933W        W13259  41.622  42.464  13.344
40934W        W13260  10.976   7.620   2.352
40935W        W13261   6.887  11.933  14.850
40936W        W13262  32.556  26.182  10.726
40937W        W13263   7.406   8.799   2.125
40938W        W13264  16.209   7.644  12.518
40939W        W13265  38.941  15.311   2.375
40940W        W13266  30.140   8.208   2.696
40941W        W13267  42.488  10.790   0.856
40942W        W13268  20.304  38.767  10.288
40943W        W13269  35.623  44.998  13.911
40944W        W13270   0.493  36.844   3.652
40945W        W13271   5.374  35.752   1.380
40946W        W13272  26.434  20.265   0.415
40947W        W13273  31.595  16.503   3.050
40948W        W13274  42.612  18.521   0.942
40949W        W13275  19.387   6.315  14.948
40950W        W13276   0.889  12.205   2.419
40951W        W13277   0.208   4.774   1.750
40952W        W13278  25.186  43.635   4.402
40953W        W13279  16.493  10.380  13.471
40954W        W13280  19.329  29.068  14.410
40955W        W13281   4.399   9.511  14.438
40956W        W13282   6.336  16.803  12.612
40957W        W13283  10.387  24.962  14.613
40958W        W13284   8.696  21.025  14.785
40959W        W13285   5.874  24.557   3.601
40960W        W13286   4.831  37.396  13.980
40961W        W13287  40.774   5.354  14.424
40962W        W13288  25.193  25.451   3.565
40963W        W13289  22.546  23.440   3.260
40964W        W13290  21.507  33.968  12.487
40965W        W13291  21.988   9.143   3.038
40966W        W13292  21.217  44.368   1.457
40967W        W13293   2.666   8.448  10.580
40968W        W13294  29.706  17.411   1.961
40969W        W13295   5.144   8.021  12.195
40970W        W13296  34.025  42.585  12.143
40971W        W13297  16.480   0.510  11.997
40972W        W13298  19.245  32.066   1.956
40973W        W13299  18.074  44.354   3.653
40974W        W13300   2.714   9.517   9.747
40975W        W13301   9.175  12.394  12.659
40976W        W13302  21.143  29.482   4.781
40977W        W13303  22.600  20.207   4.554
40978W        W13304   9.802   5.216  11.613
40979W        W13305  43.111  28.732  12.172
40980W        W13306  28.176  24.213   1.835
40981W        W13307  30.627  27.109   3.643
40982W        W13308  13.915  32.656  13.874
40983W        W13309   0.809   6.882   1.806
40984W        W13310  18.312   2.688  13.869
40985W        W13311  26.297   3.965   4.762
40986W        W13312  24.148  20.133  13.993
40987W        W13313   0.082  21.016   4.119
40988W        W13314   6.724  31.818  13.541
40989W        W13315   2.249  37.514  11.579
40990W        W13316  34.029  23.085   4.573
40991W        W13317   0.385  11.648  13.957
40992W        W13318  36.007  26.496   3.194
40993W        W13319  18.736   4.733   3.790
40994W        W13320   0.297  31.335  11.188
40995W        W13321  43.022  42.903  10.364
40996W        W13322  26.696  19.150  13.197
40997W        W13323  22.807  41.756   4.245
40998W        W13324  39.532  23.202   1.341
40999W        W13325  43.441  31.148  13.793
41000W        W13326  12.730  36.919   4.698
41001W        W13327  43.450   6.168   1.338
41002W        W13328  27.710  36.919   2.434
41003W        W13329  38.647  23.137   0.256
41004W        W13330  29.384  29.713  14.394
41005W        W13331  29.865  18.067   3.658
41006W        W13332  44.135  42.055   5.010
41007W        W13333  41.957  23.593   3.375
41008W        W13334  41.552  32.091  12.354
41009W        W13335   6.509  17.995   0.263
41010W        W13336  24.540   7.101  12.486
41011W        W13337   1.049   0.904  12.497
41012W        W13338  35.926  36.407  11.665
41013W        W13339   5.442   5.844   3.867
41014W        W13340  31.671   2.820  12.192
41015W        W13341  14.402  14.331   5.224
41016W        W13342  36.390  24.963  13.786
41017W        W13343  40.759   9.271  13.863
41018W        W13344  31.515  12.168  12.864
41019W        W13345  27.157  16.772  11.566
41020W        W13346  15.157  38.370  10.773
41021W        W13347  42.405   9.832  11.223
41022W        W13348  10.175  11.229   3.279
41023W        W13349  37.329  34.343  13.903
41024W        W13350  18.057  11.198   3.399
41025W        W13351  29.946   4.935   0.049
41026W        W13352  18.513  42.865   2.080
41027W        W13353   5.314   5.839  12.456
41028W        W13354   7.840  37.888  14.223
41029W        W13355   8.151  42.996  14.024
41030W        W13356  27.434  26.005  14.714
41031W        W13357  12.665   1.918  14.956
41032W        W13358  41.817  11.871   2.673
41033W        W13359   3.390  42.512   1.911
41034W        W13360  29.368  40.824   1.814
41035W        W13361  29.703  24.073   3.245
41036W        W13362  11.923  34.565   3.956
41037W        W13363  29.157   7.358  11.102
41038W        W13364  26.522  40.036   0.066
41039W        W13365  44.436  13.588  14.556
41040W        W13366  41.857  16.423   2.025
41041W        W13367  19.711  35.981   0.003
41042W        W13368  40.535  29.003   2.130
41043W        W13369   2.803  13.147   1.715
41044W        W13370  10.873  40.491  12.512
41045W        W13371  41.901   2.379  14.322
41046W        W13372  14.571  27.656   3.466
41047W        W13373  26.490  13.884  11.550
41048W        W13374  25.527  24.524  13.515
41049W        W13375   8.710   2.966  14.900
41050W        W13376  20.219  10.722   3.715
41051W        W13377   7.798  41.724   0.523
41052W        W13378   9.736   4.706  13.459
41053W        W13379  29.051  34.175  12.039
41054W        W13380  13.870   3.454   1.775
41055W        W13381  27.169  39.956  12.490
41056W        W13382  35.404  13.184  11.909
41057W        W13383  18.676  13.580   3.268
41058W        W13384  12.748  24.159   9.831
41059W        W13385   7.904  44.828   1.319
41060W        W13386  40.131   0.429   0.370
41061W        W13387  31.316  22.228  11.667
41062W        W13388   7.228  31.089  12.556
41063W        W13389  29.025   6.199   3.357
41064W        W13390  23.759   4.774   2.411
41065W        W13391   7.825  43.408   4.499
41066W        W13392  26.118  28.539   0.480
41067W        W13393  31.083  27.057   3.393
41068W        W13394  30.569  10.805  12.585
41069W        W13395  14.173  33.196  12.134
41070W        W13396  37.396  23.602  13.363
41071W        W13397  24.422  33.238   4.660
41072W        W13398   0.805  21.594   0.789
41073W        W13399  13.198  20.540   1.228
41074W        W13400  44.319  36.424  14.487
41075W        W13401  30.424   2.627  11.864
41076W        W13402  15.588  28.167  13.966
41077W        W13403   7.814  36.899   4.563
41078W        W13404   7.406   7.285   2.655
41079W        W13405  21.100  17.453   3.681
41080W        W13406  39.117  26.135  12.005
41081W        W13407  22.755  43.767  12.147
41082W        W13408   0.815  22.164   4.104
41083W        W13409  21.734  42.344   0.827
41084W        W13410  30.862  40.441   5.073
41085W        W13411  12.328  27.910   2.684
41086W        W13412  39.966  26.693   2.127
41087W        W13413   3.586  24.528   1.348
41088W        W13414  30.191  27.072   4.925
41089W        W13415   8.321  20.981   2.256
41090W        W13416  11.171  13.214  11.268
41091W        W13417  41.273  32.105   2.381
41092W        W13418  16.300  15.563   0.891
41093W        W13419  26.233  20.778  11.539
41094W        W13420  29.257  40.831  10.630
41095W        W13421  41.771  28.480   1.312
41096W        W13422  14.087  11.168  13.036
41097W        W13423  41.950  30.879   0.382
41098W        W13424  39.378  27.612   2.844
41099W        W13425  34.098  18.218  14.627
41100W        W13426  10.759  25.742  14.894
41101W        W13427   8.679   5.973   2.720
41102W        W13428  43.435  36.611  12.058
41103W        W13429   2.425  11.946   9.811
41104W        W13430  20.513   4.484   1.290
41105W        W13431  36.413   9.309  10.683
41106W        W13432  36.751  44.844  14.777
41107W        W13433   1.974  22.668  13.595
41108W        W13434  39.917   4.782  13.600
41109W        W13435  32.024  15.125   1.886
41110W        W13436  34.032  10.064   0.762
41111W        W13437   8.104  38.297   3.827
41112W        W13438   9.861  21.022   3.143
41113W        W13439   5.517  26.063  13.485
41114W        W13440  36.516  28.160   3.762
41115W        W13441  16.595  27.076   4.626
41116W        W13442  38.375   2.780  11.335
41117W        W13443  10.034  25.124   3.678
41118W        W13444   8.685  34.057  11.455
41119W        W13445  21.012  14.829  11.984
41120W        W13446   3.418   8.087   2.233
41121W        W13447  18.165  23.775   3.682
41122W        W13448  30.880  42.458   4.082
41123W        W13449  39.988  28.249  10.818
41124W        W13450  32.448  43.528   4.053
41125W        W13451  11.006  30.253   0.741
41126W        W13452   1.388  14.345  14.820
41127W        W13453  38.466  42.868   3.072
41128W        W13454   9.851   9.354   2.025
41129W        W13455   2.297  19.768  14.750
41130W        W13456  33.401   2.336  14.382
41131W        W13457  24.741  13.374   0.943
41132W        W13458  34.585  31.389  12.884
41133W        W13459  16.858  34.865   4.574
41134W        W13460  12.401  39.033   4.290
41135W        W13461  23.437  33.504   1.904
41136W        W13462  18.483   9.606  11.549
41137W        W13463  24.196  35.881   4.866
41138W        W13464  10.384  34.065   2.317
41139W        W13465  12.711  39.313  12.937
41140W        W13466  16.719  19.260  11.998
41141W        W13467  26.449  42.583  10.926
41142W        W13468  43.397  29.043  13.280
41143W        W13469   9.768  15.029   1.790
41144W        W13470  17.792   4.787   4.165
41145W        W13471  25.526  22.768  14.379
41146W        W13472  22.821  35.164   3.644
41147W        W13473   3.383   3.133   4.039
41148W        W13474  22.490  23.907  14.946
41149W        W13475  20.106  15.051   3.215
41150W        W13476  31.537  23.124  12.433
41151W        W13477  19.735  32.177  11.146
41152W        W13478  33.858  21.188   2.786
41153W        W13479   4.000   6.265  12.141
41154W        W13480  21.099  25.687  12.375
41155W        W13481  42.674  41.886   1.632
41156W        W13482  10.302  16.398  14.180
41157W        W13483   9.087   6.038   2.317
41158W        W13484   4.416  37.860   0.514
41159W        W13485  17.080  14.823   3.632
41160W        W13486  22.509  31.393  12.453
41161W        W13487  39.867   8.574   2.402
41162W        W13488  25.271  25.045   0.248
41163W        W13489   1.813  35.131   4.283
41164W        W13490  27.587   6.097   1.713
41165W        W13491  14.723  12.609  11.006
41166W        W13492  43.572  44.830  12.130
41167W        W13493  16.025  32.954  11.245
41168W        W13494  33.407   0.580  10.283
41169W        W13495  37.617   7.659   3.414
41170W        W13496  36.979  27.181  14.532
41171W        W13497  39.600  35.791  14.277
41172W        W13498  32.993  43.290  14.020
41173W        W13499  23.836   8.785  12.518
41174W        W13500  40.529  22.672  11.283
41175W        W13501   0.018   9.237  12.413
41176W        W13502   9.375   5.700  12.018
41177W        W13503  44.882  20.195  14.423
41178W        W13504   4.933  12.300   0.982
41179W        W13505  41.524  30.189   4.158
41180W        W13506  19.121  18.653  11.478
41181W        W13507  43.384  14.880   0.876
41182W        W13508  38.567  44.365  11.404
41183W        W13509  14.936  14.537  11.641
41184W        W13510  19.350  24.518  13.606
41185W        W13511  31.719  18.584  10.431
41186W        W13512   6.467   0.248   4.910
41187W        W13513  29.483  21.539   0.585
41188W        W13514  16.200  36.444  14.821
41189W        W13515  29.880  23.593   0.871
41190W        W13516  35.393   3.227  10.001
41191W        W13517  31.444  31.646  14.794
41192W        W13518  39.425  23.285  14.037
41193W        W13519  25.710  19.626  11.754
41194W        W13520  34.053   2.720  13.802
41195W        W13521  11.553   7.048  14.098
41196W        W13522   0.641  28.025  10.957
41197W        W13523  29.497  14.198  12.878
41198W        W13524  21.047  36.589   0.821
41199W        W13525  17.118  37.146   3.712
41200W        W13526  34.407   1.393  14.573
41201W        W13527  24.600  29.507   1.479
41202W        W13528   7.923   8.313  12.419
41203W        W13529  13.356  11.827   0.488
41204W        W13530  23.146  42.812  14.817
41205W        W13531  30.770  30.504   1.472
41206W        W13532  13.138  24.173  14.480
41207W        W13533   0.800  22.717  14.841
41208W        W13534  41.037   4.471   0.512
41209W        W13535  43.569  44.375   3.293
41210W        W13536  41.322  28.069  14.522
41211W        W13537   2.815  42.321  14.158
41212W        W13538  30.327  27.312   3.257
41213W        W13539  27.482  33.642  11.883
41214W        W13540  35.009  24.211  13.830
41215W        W13541  13.174  43.858  11.193
41216W        W13542  39.410  31.674  13.844
41217W        W13543   2.723  23.954  13.371
41218W        W13544   8.646  25.165   1.028
41219W        W13545  37.725  40.304  14.931
41220W        W13546   7.949  27.028   1.254
41221W        W13547  38.993  42.371   1.463
41222W        W13548  21.587  29.224   3.641
41223W        W13549  30.070  14.393  12.058
41224W        W13550  28.429  13.111   2.779
41225W        W13551   0.600  40.304  14.939
41226W        W13552  27.572  13.914  14.893
41227W        W13553  31.908  37.818  14.767
41228W        W13554  23.198  29.557   0.286
41229W        W13555  44.765  43.500   2.772
41230W        W13556  26.569   3.145  14.645
41231W        W13557  32.632  36.524   4.833
41232W        W13558  26.096  16.208  11.980
41233W        W13559  15.425   3.233  12.688
41234W        W13560   9.158  31.179   2.760
41235W        W13561  30.531  23.076   4.540
41236W        W13562  22.630  25.030   1.450
41237W        W13563  33.468   5.435   1.780
41238W        W13564  17.817   1.097  13.466
41239W        W13565  28.615  36.649   2.837
41240W        W13566  12.271  21.554  11.887
41241W        W13567   6.799  28.068   0.662
41242W        W13568   5.853  10.166   1.861
41243W        W13569  35.417   3.375   4.967
41244W        W13570  31.611  42.807   3.152
41245W        W13571  13.348  22.995  12.613
41246W        W13572  10.614   0.882  10.686
41247W        W13573  42.302  37.868   4.684
41248W        W13574   3.276  22.815  11.080
41249W        W13575   4.255  20.573  14.957
41250W        W13576  36.014   8.177  11.317
41251W        W13577  30.340  28.786   9.742
41252W        W13578  39.171   0.024  13.076
41253W        W13579  25.223  39.317   0.321
41254W        W13580  32.401  17.067  12.472
41255W        W13581  22.203  38.334  10.976
41256W        W13582  13.129  10.157  11.390
41257W        W13583  27.111   7.601  10.385
41258W        W13584  13.070  30.974  11.391
41259W        W13585  14.890  13.815   3.062
41260W        W13586  10.807  19.551  10.711
41261W        W13587   0.593  25.477  12.329
41262W        W13588   1.094  42.177  13.861
41263W        W13589  29.107  17.511  11.127
41264W        W13590  34.108  35.962   3.776
41265W        W13591   2.010  40.918   0.312
41266W        W13592  15.063  35.519  14.948
41267W        W13593  31.127  20.699   0.323
41268W        W13594  27.057  24.137  12.561
41269W        W13595   0.927  27.242   0.474
41270W        W13596  40.583  11.262  11.448
41271W        W13597  17.004  32.104  14.531
41272W        W13598  44.824  32.534   2.311
41273W        W13599  38.921  21.148  13.341
41274W        W13600  35.193  25.146   3.793
41275W        W13601  42.882  23.490   3.567
41276W        W13602  10.239   6.218  11.143
41277W        W13603   3.683  26.018   1.936
41278W        W13604   0.985   2.435  10.686
41279W        W13605  24.590  37.539  10.543
41280W        W13606  34.901  10.371   1.424
41281W        W13607   5.787   1.960   1.684
41282W        W13608  38.642  23.545   3.183
41283W        W13609  11.124  12.316   2.839
41284W        W13610   4.254  43.726   4.124
41285W        W13611   0.704  22.768   0.726
41286W        W13612   4.380  27.637  11.100
41287W        W13613   1.962   9.208   3.314
41288W        W13614  44.779  30.460  12.943
41289W        W13615  26.636  29.421  13.841
41290W        W13616  11.148   8.023   0.971
41291W        W13617  20.650  28.145  14.054
41292W        W13618   1.320  13.397  12.618
41293W        W13619  40.249  25.493   2.763
41294W        W13620  27.161  14.855   3.738
41295W        W13621  26.715  12.198   1.419
41296W        W13622  22.673   7.844   1.187
41297W        W13623  11.191  36.337   0.351
41298W        W13624   0.984  31.681   3.726
41299W        W13625  34.201  15.602  14.074
41300W        W13626   7.923  14.257  10.675
41301W        W13627  18.481  24.383  11.972
41302W        W13628  26.458  34.968   3.671
41303W        W13629  10.074   1.688  10.914
41304W        W13630  29.899   2.923  13.817
41305W        W13631  25.185  14.750  14.012
41306W        W13632  18.780  33.959  14.412
41307W        W13633  34.344  36.890  13.537
41308W        W13634  36.486  34.986  13.236
41309W        W13635  42.227  40.981  14.750
41310W        W13636  39.079  13.931   3.719
41311W        W13637  19.788  42.906  14.865
41312W        W13638  31.882   5.809   3.705
41313W        W13639  22.443   8.402   2.468
41314W        W13640  20.210  41.694  11.464
41315W        W13641  11.810   2.160   4.260
41316W        W13642  22.195  33.169   3.286
41317W        W13643  37.553  17.975   1.912
41318W        W13644  37.554  34.621   0.898
41319W        W13645  36.857  28.127   0.660
41320W        W13646   5.185  18.998   1.764
41321W        W13647  34.235   1.506   1.765
41322W        W13648  27.715  30.668  13.735
41323W        W13649  25.625  10.947   0.147
41324W        W13650  37.770  13.237   2.259
41325W        W13651  43.292  15.065  11.059
41326W        W13652  42.253  26.076   1.387
41327W        W13653  10.158  26.641  12.964
41328W        W13654   6.860  32.928  13.863
41329W        W13655   8.650  29.712   0.439
41330W        W13656  44.362   8.663  12.103
41331W        W13657  32.951  20.133   4.670
41332W        W13658  40.509  20.590   4.446
41333W        W13659  10.631  23.049  14.370
41334W        W13660   0.741  20.345   3.598
41335W        W13661  13.547  33.494  14.780
41336W        W13662  18.634  15.562  10.258
41337W        W13663  39.578   7.460  13.318
41338W        W13664   9.474  11.002   2.617
41339W        W13665  28.043  42.919   3.766
41340W        W13666  43.413   5.356  13.513
41341W        W13667   3.639   4.365  11.492
41342W        W13668  17.267   9.971  10.948
41343W        W13669  33.488  17.499   2.663
41344W        W13670   8.093  27.413  13.834
41345W        W13671  44.977  16.042  12.495
41346W        W13672  25.225   8.425   4.130
41347W        W13673  27.881  19.510  12.906
41348W        W13674  11.438   0.192  12.575
41349W        W13675   0.682  44.683  13.843
41350W        W13676  37.157  17.670   1.739
41351W        W13677  22.652  43.089   2.424
41352W        W13678  17.217   6.849  10.656
41353W        W13679  44.532  13.603  11.824
41354W        W13680  27.452  16.302  12.154
41355W        W13681  28.159   2.221  11.242
41356W        W13682  31.838  39.533   2.258
41357W        W13683  38.241   2.245  11.666
41358W        W13684  14.870  22.587  13.361
41359W        W13685  31.072   6.495  13.868
41360W        W13686  37.727  11.310  14.990
41361W        W13687  32.873   3.839   2.084
41362W        W13688  36.866  33.063  14.014
41363W        W13689  10.452  12.369  14.438
41364W        W13690  32.035   6.380  14.501
41365W        W13691  13.716  44.834   0.339
41366W        W13692  21.820  10.240   0.942
41367W        W13693  22.717  33.973   1.034
41368W        W13694  15.118  38.740   1.373
41369W        W13695  23.087  30.467   3.350
41370W        W13696  18.262  35.191   4.192
41371W        W13697   3.475  24.766  13.380
41372W        W13698  24.956  17.292   2.402
41373W        W13699  17.533  34.736   0.800
41374W        W13700  20.975   6.902  12.959
41375W        W13701   6.294  23.293   2.218
41376W        W13702  37.254   9.684  11.793
41377W        W13703   1.108  16.154   2.327
41378W        W13704  29.734  29.369  12.013
41379W        W13705  20.750  13.356   1.464
41380W        W13706  13.704   7.656   1.244
41381W        W13707  28.328   3.729   4.630
41382W        W13708  28.915  37.938   3.139
41383W        W13709   6.169  18.202  12.081
41384W        W13710   1.953   0.879   2.865
41385W        W13711  34.780  20.510  14.057
41386W        W13712   6.897  22.573   3.782
41387W        W13713  26.235  18.654   0.982
41388W        W13714  12.642  27.045   4.022
41389W        W13715  39.341  17.070  11.806
41390W        W13716   6.861  28.582   2.958
41391W        W13717   6.183  12.819   1.702
41392W        W13718   2.378  13.396   1.469
41393W        W13719  38.485  41.453   0.732
41394W        W13720  41.456  21.470  14.887
41395W        W13721  39.405  18.835  14.709
41396W        W13722  34.268  20.676   2.825
41397W        W13723   7.133  30.585  12.436
41398W        W13724  44.312  37.036  12.319
41399W        W13725   6.995  21.205  12.415
41400W        W13726  12.694   5.445  11.624
41401W        W13727  19.820   6.257   3.832
41402W        W13728  16.899  24.755  13.487
41403W        W13729  30.609  19.080   4.800
41404W        W13730  44.658  41.914  13.844
41405W        W13731  27.691  22.963  14.270
41406W        W13732  37.777  42.697  10.038
41407W        W13733  33.641  38.455   2.570
41408W        W13734  22.186  30.999   4.613
41409W        W13735  22.985  10.163  10.188
41410W        W13736  38.820  38.606   0.750
41411W        W13737  14.144  28.369   2.405
41412W        W13738   8.774  16.038  13.040
41413W        W13739  11.692  20.745   4.239
41414W        W13740  31.664   1.202   3.422
41415W        W13741  35.003   1.463  13.445
41416W        W13742  44.529  21.245   1.127
41417W        W13743   1.079  38.266   4.149
41418W        W13744  10.866  23.583  13.620
41419W        W13745  12.795  10.897   3.061
41420W        W13746  15.325  22.770  10.510
41421W        W13747  19.632  40.747  14.024
41422W        W13748  27.651  17.324   1.844
41423W        W13749  31.020   4.779   4.340
41424W        W13750  30.994  38.847   0.291
41425W        W13751   1.393  28.196   2.903
41426W        W13752  35.968  24.092   3.177
41427W        W13753  36.641  38.910  12.520
41428W        W13754  23.679  31.125   0.797
41429W        W13755   7.449  43.727  14.469
41430W        W13756   2.267   5.791  13.863
41431W        W13757  13.371  43.224  12.552
41432W        W13758  38.953  29.384  11.599
41433W        W13759  12.690   8.903   2.670
41434W        W13760  21.284   6.658  11.644
41435W        W13761  23.634  24.676   1.735
41436W        W13762  29.083  19.587   2.176
41437W        W13763  19.213  21.943  14.361
41438W        W13764  38.991   7.126  12.631
41439W        W13765  27.703  44.360   0.821
41440W        W13766  16.126  31.935  14.057
41441W        W13767  33.061  33.034   0.521
41442W        W13768  17.997  32.540   3.707
41443W        W13769   9.244  30.629   2.765
41444W        W13770  11.758  37.079   1.454
41445W        W13771  23.709  39.444   4.978
41446W        W13772  21.110  36.107  12.602
41447W        W13773   2.293  38.323  12.576
41448W        W13774  17.536  12.638   2.301
41449W        W13775  26.832  18.763  10.630
41450W        W13776   3.770   0.794  11.939
41451W        W13777  32.399  34.834   4.701
41452W        W13778  40.871   2.213   0.457
41453W        W13779  44.908  12.345  14.990
41454W        W13780  15.109   7.707  10.653
41455W        W13781   4.768  30.928  13.125
41456W        W13782  32.139  33.501  13.555
41457W        W13783   6.052  25.002   1.940
41458W        W13784  21.084  16.663   3.214
41459W        W13785  43.387  11.570   4.057
41460W        W13786  15.133   9.551  10.498
41461W        W13787  30.465   9.096  14.784
41462W        W13788  35.498   3.259   2.781
41463W        W13789  10.693  25.589  14.077
41464W        W13790  28.054   2.880  10.743
41465W        W13791  10.119  24.066  14.947
41466W        W13792   7.601  32.977  10.376
41467W        W13793  28.974  40.480  13.400
41468W        W13794   4.596  16.108   0.807
41469W        W13795   5.770  30.558  11.869
41470W        W13796  27.888  17.570   2.719
41471W        W13797  33.920   4.764  12.330
41472W        W13798  27.266  24.018  11.524
41473W        W13799  30.800  31.797   1.209
41474W        W13800  25.963  17.126   3.232
41475W        W13801  14.630  15.725   4.914
41476W        W13802  10.469   3.981   4.241
41477W        W13803   9.562  16.623   4.370
41478W        W13804  29.129  12.177   1.012
41479W        W13805   1.062  38.297   0.844
41480W        W13806  25.085  41.868  14.061
41481W        W13807  38.825   4.654  11.215
41482W        W13808  34.588  35.390   3.686
41483W        W13809  36.601  14.791  10.632
41484W        W13810  21.320   3.746   2.162
41485W        W13811  28.475  23.238   1.621
41486W        W13812  36.880  37.132   3.865
41487W        W13813   5.838  28.976  11.839
41488W        W13814   2.974   4.183  10.247
41489W        W13815  16.177   9.730  11.656
41490W        W13816  23.031  39.718  13.645
41491W        W13817  42.804  14.067   1.735
41492W        W13818  31.569   0.916  13.402
41493W        W13819   8.341   1.015  13.428
41494W        W13820   9.354  13.621  14.868
41495W        W13821  17.746   5.201   3.727
41496W        W13822  37.243   5.918  13.928
41497W        W13823   1.549  25.974   2.339
41498W        W13824  15.373  17.838   4.601
41499W        W13825   2.412   2.758  11.412
41500W        W13826  16.307  10.867  14.792
41501W        W13827  22.547  15.666  11.468
41502W        W13828   5.103   1.831   2.296
41503W        W13829  33.452  11.654   0.322
41504W        W13830  37.871  20.680  13.478
41505W        W13831  15.335   6.956  13.582
41506W        W13832   6.775  10.619  13.002
41507W        W13833  25.497  14.177  13.361
41508W        W13834  42.743  23.103  13.080
41509W        W13835   2.441  17.381   1.291
41510W        W13836   7.856  44.009  13.790
41511W        W13837  32.560  12.768   2.132
41512W        W13838  13.347  12.519  13.511
41513W        W13839  32.979   5.474  12.892
41514W        W13840  43.206  11.317   2.397
41515W        W13841  23.668  28.765   1.454
41516W        W13842  24.050  30.001   1.747
41517W        W13843  22.733   9.234   1.364
41518W        W13844  21.156  25.139  11.124
41519W        W13845   7.007  44.831   1.882
41520W        W13846   9.182  32.647   3.346
41521W        W13847  23.937  17.802  11.230
41522W        W13848  33.825   4.926   3.723
41523W        W13849  29.683  20.795  13.158
41524W        W13850  38.279   4.461  12.944
41525W        W13851  29.409  15.499   3.502
41526W        W13852  30.763  40.990  13.584
41527W        W13853  42.784  13.235  12.374
41528W        W13854  23.027  33.913  10.596
41529W        W13855   0.152  35.644  13.162
41530W        W13856  20.733  22.619   0.530
41531W        W13857  39.351  34.520   4.058
41532W        W13858  11.116  40.777   4.091
41533W        W13859  44.426  16.040   4.213
41534W        W13860   7.189  29.078   2.645
41535W        W13861  33.274  32.544  12.586
41536W        W13862  15.150  39.061   4.534
41537W        W13863  12.183  30.999   2.316
41538W        W13864   5.373   1.972   1.379
41539W        W13865  23.887  31.047   2.617
41540W        W13866  36.301  11.406  10.660
41541W        W13867  27.688   5.503  13.563
41542W        W13868  11.260   2.900   4.154
41543W        W13869  13.721  19.130   3.389
41544W        W13870  32.395   0.418  12.775
41545W        W13871  18.189  20.551   1.246
41546W        W13872  35.447  35.501   1.775
41547W        W13873  19.981  44.754   5.215
41548W        W13874   0.414  30.490   0.326
41549W        W13875  21.793  24.098  11.157
41550W        W13876   3.430  37.210  13.905
41551W        W13877  20.838  25.697   0.392
41552W        W13878  31.623  20.271   2.355
41553W        W13879  16.724  38.972  11.174
41554W        W13880  14.621  26.315   1.979
41555W        W13881  31.176   4.426  10.798
41556W        W13882   4.001   3.172   1.098
41557W        W13883  10.919  43.868   1.860
41558W        W13884  10.392  12.208  13.512
41559W        W13885  18.613  22.267  12.025
41560W        W13886  20.570   5.377  12.557
41561W        W13887   5.965  44.603  13.131
41562W        W13888  18.028   1.678  14.546
41563W        W13889  28.119  30.169  12.867
41564W        W13890  41.369  44.030   0.289
41565W        W13891  23.279  34.029   2.361
41566W        W13892  29.471  14.819  11.613
41567W        W13893  19.114  34.816  14.396
41568W        W13894  33.816  10.547   2.148
41569W        W13895   2.037  29.099   4.885
41570W        W13896  13.270  20.653   3.955
41571W        W13897  44.958  44.286   2.307
41572W        W13898  24.678  41.928   0.349
41573W        W13899   4.880  14.836   1.769
41574W        W13900  32.557   9.848   0.299
41575W        W13901  40.023  37.853   2.739
41576W        W13902  26.933  32.560  13.519
41577W        W13903  13.708  34.363   2.247
41578W        W13904   5.447  38.648  12.996
41579W        W13905  43.767   9.855  13.576
41580W        W13906  19.515  26.628   5.067
41581W        W13907  10.639   9.132   0.065
41582W        W13908  28.122  36.040   3.608
41583W        W13909  38.413  17.910  12.845
41584W        W13910  29.104  14.768   4.359
41585W        W13911   9.715   3.301  13.311
41586W        W13912   2.289  21.737   3.317
41587W        W13913   7.911  27.023  12.860
41588W        W13914  23.080  23.444   2.195
41589W        W13915   2.866  43.958  12.599
41590W        W13916  24.901   2.299   4.185
41591W        W13917  32.516  23.470  13.207
41592W        W13918  31.903  27.658   4.303
41593W        W13919   4.213   8.673   4.118
41594W        W13920  11.937  37.355   2.300
41595W        W13921  26.289  41.748  13.012
41596W        W13922  24.260   2.397   1.031
41597W        W13923  11.844  16.274  13.546
41598W        W13924  40.562  40.260  11.645
41599W        W13925   6.829   2.330  12.074
41600W        W13926   0.900  30.690   0.315
41601W        W13927  32.479   1.200  12.217
41602W        W13928  34.712  10.265   5.100
41603W        W13929  12.554   3.888   3.263
41604W        W13930  38.030  42.464   4.672
41605W        W13931   7.795  15.596  10.287
41606W        W13932  10.731  43.555   4.532
41607W        W13933   2.318   4.734  10.594
41608W        W13934  36.596  26.657   2.897
41609W        W13935  10.900   4.965  10.299
41610W        W13936  18.708  18.158   0.919
41611W        W13937   3.800  37.543  12.151
41612W        W13938   0.146  28.403   0.028
41613W        W13939  15.579  31.535  12.020
41614W        W13940   3.460  14.291  14.477
41615W        W13941  33.248   9.438   2.879
41616W        W13942  10.760   7.275   3.156
41617W        W13943  16.101   8.573   4.865
41618W        W13944  15.086  39.193   0.196
41619W        W13945   0.932   3.360   0.930
41620W        W13946  21.186   7.336  12.437
41621W        W13947  23.623  11.735  14.493
41622W        W13948  21.616  18.273  10.912
41623W        W13949  27.202  18.682   1.192
41624W        W13950  26.653   3.653  11.912
41625W        W13951   2.275  35.270   1.864
41626W        W13952  26.018  41.302   4.854
41627W        W13953  40.804   6.403  10.477
41628W        W13954  15.695  28.482  10.770
41629W        W13955  12.848  36.525   0.300
41630W        W13956   9.149  13.032   3.558
41631W        W13957  43.722   4.822  14.989
41632W        W13958  23.601  19.668   2.645
41633W        W13959  21.094  14.847   2.834
41634W        W13960  22.534  22.986  13.418
41635W        W13961   8.551   5.239  14.325
41636W        W13962  37.484  31.597   3.815
41637W        W13963  26.504  15.618  12.462
41638W        W13964   3.336  29.182   2.320
41639W        W13965   9.333   7.797   4.021
41640W        W13966  28.968  11.799  12.224
41641W        W13967   8.834  40.825  13.543
41642W        W13968  29.201  24.138   1.544
41643W        W13969  24.411  29.997   1.376
41644W        W13970  16.091  32.586  12.495
41645W        W13971  39.796  38.789   2.526
41646W        W13972  11.185  39.870   1.832
41647W        W13973  41.847   0.096  14.876
41648W        W13974  12.721  39.953   4.554
41649W        W13975  10.967   6.796   2.925
41650W        W13976  33.083  28.600   2.845
41651W        W13977  29.068  36.904  11.966
41652W        W13978  38.479   1.554   4.588
41653W        W13979  20.167   7.597   2.645
41654W        W13980   7.921  13.105  14.047
41655W        W13981  19.574  26.702  11.562
41656W        W13982   0.059   3.560   1.438
41657W        W13983  14.561  39.023  11.040
41658W        W13984  33.334  43.427  12.442
41659W        W13985  15.123  10.555  11.789
41660W        W13986   5.449  38.518   4.164
41661W        W13987   3.691   2.328   4.510
41662W        W13988   3.536  40.778   1.801
41663W        W13989   7.092  11.261   4.660
41664W        W13990  44.237   8.172  13.033
41665W        W13991  38.331  10.084  12.440
41666W        W13992  43.332  32.829  12.218
41667W        W13993  15.851   1.366  10.402
41668W        W13994   4.565   0.296   4.614
41669W        W13995  41.550  32.384  10.628
41670W        W13996   7.526  41.388   3.258
41671W        W13997  38.888   2.127  11.117
41672W        W13998  28.214  43.810   3.616
41673W        W13999   8.210  29.348   3.491
41674W        W14000  20.737  18.330  13.892
41675W        W14001   5.123  42.858   2.183
41676W        W14002  40.895  16.149   1.762
41677W        W14003  22.138  17.209  10.177
41678W        W14004   2.015   2.972   4.706
41679W        W14005  25.003  41.484   3.385
41680W        W14006  13.230  11.000  11.877
41681W        W14007  25.152  18.733  14.295
41682W        W14008  14.573  27.531   2.458
41683W        W14009   6.502  42.921  10.283
41684W        W14010  19.613   1.739   1.406
41685W        W14011  19.953  26.675   2.403
41686W        W14012  15.114  20.751  14.418
41687W        W14013  20.523  36.492   4.888
41688W        W14014  16.525  12.613   0.560
41689W        W14015  36.869  37.321   0.343
41690W        W14016   1.022  30.132  13.081
41691W        W14017  15.554  18.284   3.866
41692W        W14018   1.872  40.830   2.344
41693W        W14019  31.167  32.599   4.210
41694W        W14020  17.127  32.116  12.609
41695W        W14021   4.422  43.913   4.585
41696W        W14022   1.484  35.983  10.740
41697W        W14023  37.027  43.448   3.745
41698W        W14024   9.363  27.407  13.449
41699W        W14025  31.659  25.155   2.162
41700W        W14026  29.017  27.895   2.270
41701W        W14027  20.543  42.838  11.277
41702W        W14028  32.413   0.378  13.303
41703W        W14029  38.642   9.910  11.186
41704W        W14030  13.031   9.706  11.138
41705W        W14031   2.951  21.618   0.014
41706W        W14032  35.013  40.939  11.157
41707W        W14033  38.082  41.790   1.255
41708W        W14034  40.949  18.043   2.376
41709W        W14035  33.883  22.800   0.892
41710W        W14036   6.400  30.128  13.730
41711W        W14037   1.495  11.115  12.168
41712W        W14038  22.484  39.354   4.286
41713W        W14039  33.566  36.069   1.353
41714W        W14040   2.746  12.764  10.736
41715W        W14041  13.666  30.907  11.313
41716W        W14042  10.959  19.808  12.595
41717W        W14043  44.732  13.692   1.264
41718W        W14044  13.698  40.561  11.016
41719W        W14045  36.909  40.037  11.102
41720W        W14046  29.058   1.512  14.911
41721W        W14047  33.851  10.870  13.352
41722W        W14048  32.197   7.718   0.050
41723W        W14049  15.859   9.327  12.355
41724W        W14050  42.327  15.303   3.410
41725W        W14051  11.799   3.509  13.281
41726W        W14052  44.346  17.656   2.792
41727W        W14053   6.172  13.852   4.012
41728W        W14054   9.155  41.859  14.411
41729W        W14055  18.790   9.024  14.879
41730W        W14056   2.190  31.075   2.821
41731W        W14057  21.770  24.121   0.482
41732W        W14058  26.644   1.827   0.962
41733W        W14059  43.507  29.904   2.560
41734W        W14060   1.820   5.251  11.836
41735W        W14061  21.577  14.331   1.475
41736W        W14062  36.488  31.872  12.029
41737W        W14063   0.779  23.315  11.627
41738W        W14064   7.189  41.715   1.451
41739W        W14065  41.328  15.963   2.688
41740W        W14066  13.028  16.160   0.860
41741W        W14067  29.018  23.597   3.279
41742W        W14068  10.938   5.733  10.858
41743W        W14069   4.796  40.558   4.145
41744W        W14070   1.399  44.676  12.822
41745W        W14071   0.348  15.522   5.091
41746W        W14072  31.303  11.434  11.073
41747W        W14073  13.766  28.001  14.397
41748W        W14074  31.684   6.683  14.704
41749W        W14075  34.507  15.068  13.401
41750W        W14076   8.908   6.816  12.430
41751W        W14077  40.910  31.000  11.124
41752W        W14078  40.407  44.930  13.419
41753W        W14079   3.211  42.463   4.749
41754W        W14080  15.064  11.311   0.213
41755W        W14081  41.998  10.259  14.609
41756W        W14082  28.557  28.166  14.462
41757W        W14083   6.681   6.378  13.997
41758W        W14084  39.480  10.118  10.819
41759W        W14085   8.694   5.820  14.980
41760W        W14086  17.069  29.051  13.061
41761W        W14087   9.493  39.210   0.327
41762W        W14088  16.053  16.201  11.151
41763W        W14089  19.698  18.184   4.670
41764W        W14090  10.814  40.297  13.368
41765W        W14091  24.728  10.181  12.929
41766W        W14092  32.058  36.094  11.671
41767W        W14093   8.930  28.168  12.088
41768W        W14094  18.691  18.016   4.304
41769W        W14095  25.282  12.390  14.072
41770W        W14096   6.777  18.553   2.680
41771W        W14097  32.405   8.151  13.321
41772W        W14098  36.820  26.043  13.750
41773W        W14099  16.877   0.834  12.080
41774W        W14100  36.440   2.938  12.926
41775W        W14101  42.445  41.802  14.905
41776W        W14102   6.649  26.468  13.128
41777W        W14103  37.161   6.007   0.282
41778W        W14104  10.955  32.449  13.426
41779W        W14105  17.854  18.551   4.039
41780W        W14106   4.933  21.813  12.022
41781W        W14107  11.110  27.235   1.845
41782W        W14108  33.445  39.756  13.597
41783W        W14109  33.959  44.261   1.831
41784W        W14110  21.404  24.538   4.609
41785W        W14111  10.655  38.358  11.201
41786W        W14112  31.892  28.719   0.990
41787W        W14113  44.375  19.517  12.390
41788W        W14114  43.395   7.103  11.594
41789W        W14115  32.248  15.976  11.601
41790W        W14116  37.817  15.969   0.675
41791W        W14117  21.620   1.154  10.920
41792W        W14118  27.764  32.372  11.430
41793W        W14119  27.605  24.277  14.003
41794W        W14120  39.353  29.768   1.961
41795W        W14121   0.646  15.268  11.189
41796W        W14122   2.769  40.173  11.616
41797W        W14123  20.792  32.154   0.668
41798W        W14124  32.861  17.480   0.594
41799W        W14125  14.714  13.531  14.527
41800W        W14126  16.351  42.445   1.904
41801W        W14127  37.366  24.776  11.403
41802W        W14128  22.027  33.040   2.354
41803W        W14129  10.820  29.056   0.413
41804W        W14130   2.324  24.170  10.714
41805W        W14131   9.034  17.712  11.387
41806W        W14132  10.813  13.557   1.027
41807W        W14133  16.243   1.362   1.296
41808W        W14134  13.553   5.829   2.728
41809W        W14135   4.834   6.865   4.181
41810W        W14136  36.427  28.622   4.578
41811W        W14137  31.159  25.994   4.787
41812W        W14138  14.299  13.786   2.288
41813W        W14139  41.990  41.338   2.820
41814W        W14140  33.656  11.708   2.620
41815W        W14141  37.113   0.470   2.206
41816W        W14142  44.771  30.059   3.830
41817W        W14143  39.462  27.222  13.188
41818W        W14144  20.243  37.944   2.401
41819W        W14145  26.999   7.463  13.484
41820W        W14146  25.772   0.340   1.378
41821W        W14147  21.002  19.684  12.476
41822W        W14148   4.395  34.733  12.801
41823W        W14149  39.957   5.716   3.216
41824W        W14150  19.437   8.346   4.552
41825W        W14151   1.369   8.697   2.455
41826W        W14152  19.004  27.698   0.752
41827W        W14153  26.238  16.177   3.257
41828W        W14154  38.548  34.791  12.832
41829W        W14155  15.402  42.986  11.073
41830W        W14156  20.102  35.015   2.857
41831W        W14157  23.285  22.625  12.345
41832W        W14158  21.515  38.791  10.673
41833W        W14159  35.098  18.133  14.897
41834W        W14160  42.969  14.669  14.885
41835W        W14161  23.946  44.969  14.417
41836W        W14162   5.276  11.410   5.487
41837W        W14163   6.962  12.364  14.429
41838W        W14164   1.352  20.885   1.703
41839W        W14165   9.190  18.616  13.893
41840W        W14166   5.798   3.697  13.969
41841W        W14167  28.214  18.514  11.964
41842W        W14168   9.159   7.526   1.440
41843W        W14169  35.959  17.054   3.116
41844W        W14170  10.263  38.591   1.061
41845W        W14171  35.462  16.614  14.545
41846W        W14172  11.914  43.896   0.784
41847W        W14173  17.682  23.231   4.266
41848W        W14174  35.914  33.602  10.174
41849W        W14175  43.899  12.837   2.879
41850W        W14176   5.703  14.355   1.351
41851W        W14177  14.405  15.072  12.411
41852W        W14178  40.520  34.159   0.596
41853W        W14179  14.317  43.184   4.146
41854W        W14180  33.999  13.161  13.349
41855W        W14181  25.650  11.737   4.417
41856W        W14182  34.878  43.854   0.949
41857W        W14183  32.559  27.920   0.801
41858W        W14184  26.837  19.328  12.457
41859W        W14185  27.199  11.741   0.025
41860W        W14186  34.141  26.964  11.307
41861W        W14187  42.114  41.222   4.768
41862W        W14188  33.344  32.535   2.370
41863W        W14189   7.504  43.555   3.516
41864W        W14190  36.480  21.500  12.062
41865W        W14191  27.428   8.456  10.686
41866W        W14192  19.454  30.118   1.384
41867W        W14193  22.193   8.327   1.667
41868W        W14194  12.240  14.001   0.762
41869W        W14195  34.622  27.145  14.811
41870W        W14196  26.680  24.059   3.289
41871W        W14197   8.804  22.784  11.594
41872W        W14198  39.674  20.807   0.340
41873W        W14199  23.369  17.678   4.597
41874W        W14200  43.210  23.034  10.896
41875W        W14201   7.411  10.171  11.425
41876W        W14202   0.811  12.808   1.281
41877W        W14203   1.333  15.870  14.843
41878W        W14204  16.199  22.288   1.334
41879W        W14205  24.451  10.095  13.372
41880W        W14206  23.158  40.123   4.709
41881W        W14207  18.080  27.985   0.904
41882W        W14208  40.401  44.332   0.739
41883W        W14209  27.824  15.072   2.098
41884W        W14210  21.295  27.494  10.503
41885W        W14211  19.210  30.406  11.173
41886W        W14212   9.106  37.047   2.441
41887W        W14213  32.623  37.903  11.398
41888W        W14214  44.065  37.438  12.096
41889W        W14215  43.553  32.888   3.311
41890W        W14216  19.585  12.253   3.299
41891W        W14217   5.309   6.409  11.610
41892W        W14218   3.747  40.877   3.722
41893W        W14219   9.393   2.225   0.805
41894W        W14220  15.050  13.201  13.599
41895W        W14221   2.318  24.898   1.411
41896W        W14222  31.589  39.512   4.605
41897W        W14223  33.649  28.083   1.445
41898W        W14224  30.471  20.123   3.281
41899W        W14225  42.376  28.037  14.452
41900W        W14226   5.874  18.882  10.806
41901W        W14227  40.426  34.532   0.945
41902W        W14228   3.295  35.979  12.730
41903W        W14229  40.981   5.341  13.915
41904W        W14230  23.314  37.541  10.217
41905W        W14231  24.020  44.629   4.191
41906W        W14232   9.174  15.584  14.468
41907W        W14233   0.091  36.883   2.681
41908W        W14234  32.019  15.231  12.465
41909W        W14235  19.490  38.484   0.249
41910W        W14236  22.759  14.716   4.080
41911W        W14237  17.325   9.324   3.166
41912W        W14238  40.480  17.677   0.027
41913W        W14239   2.309  35.573  11.170
41914W        W14240  22.398  32.978  10.624
41915W        W14241  22.883  15.944  12.939
41916W        W14242   1.946  31.121  11.859
41917W        W14243  44.368  32.200   0.772
41918W        W14244  41.922  44.738   9.888
41919W        W14245  28.963  30.970   0.413
41920W        W14246   1.690  20.902   2.114
41921W        W14247  35.890  15.624  11.571
41922W        W14248   0.926  38.167   1.694
41923W        W14249  33.916   9.720   1.129
41924W        W14250   2.945  44.444  10.617
41925W        W14251  44.011  34.133   3.782
41926W        W14252  28.355  27.100   4.488
41927W        W14253  21.318  19.613  13.893
41928W        W14254  35.140   2.747   4.136
41929W        W14255   4.481   0.530  13.540
41930W        W14256  14.894  31.661  12.509
41931W        W14257   3.032  23.202   2.903
41932W        W14258   3.238   4.667   2.852
41933W        W14259   2.340   1.515   3.874
41934W        W14260  36.810  17.646  13.903
41935W        W14261   2.966   4.804   2.197
41936W        W14262   9.963  22.544  14.004
41937W        W14263  43.033  10.861  14.990
41938W        W14264  27.129  32.058  12.852
41939W        W14265  38.007  39.815  13.009
41940W        W14266  40.953  16.568   3.801
41941W        W14267  32.481  28.016   2.327
41942W        W14268  27.540  25.266  13.318
41943W        W14269  26.751  33.357  14.406
41944W        W14270  38.381  32.326   4.587
41945W        W14271  36.633  30.798   3.213
41946W        W14272  23.400  17.770   1.834
41947W        W14273  27.378   9.298   0.005
41948W        W14274   5.370  34.143  11.908
41949W        W14275  12.275  26.129   4.537
41950W        W14276  20.297  16.850  11.554
41951W        W14277  26.073  32.512  14.219
41952W        W14278   1.554  16.703   2.453
41953W        W14279  21.209  37.006  10.960
41954W        W14280  43.446  21.200  13.533
41955W        W14281  14.584  27.983   3.088
41956W        W14282  41.915  31.648   0.818
41957W        W14283   0.110   7.752   2.298
41958W        W14284   3.734  26.662   1.527
41959W        W14285  18.703  37.985  10.732
41960W        W14286  34.467  15.690   0.977
41961W        W14287  10.245  30.545  14.097
41962W        W14288  29.501  41.100  13.815
41963W        W14289  23.500  22.922  13.461
41964W        W14290  36.352  16.852  14.823
41965W        W14291  44.248  39.340   4.857
41966W        W14292  34.643  29.221   3.026
41967W        W14293  43.798  19.866  12.947
41968W        W14294  33.605  16.098  13.354
41969W        W14295  32.854  22.110  14.252
41970W        W14296   0.019  37.417   3.394
41971W        W14297  15.927   8.862   3.839
41972W        W14298  12.364  37.374  11.901
41973W        W14299  16.659  41.903   4.516
41974W        W14300   4.966  12.638  13.427
41975W        W14301  41.028  20.327  14.031
41976W        W14302  17.392   6.878  14.525
41977W        W14303   9.334  14.982  12.526
41978W        W14304   8.578   4.412  11.034
41979W        W14305  43.572  12.205  10.635
41980W        W14306  38.356  13.829   1.183
41981W        W14307  39.168  38.277   0.967
41982W        W14308  32.888   9.203   4.064
41983W        W14309  43.400  23.271   4.212
41984W        W14310  10.400  22.600  14.295
41985W        W14311   6.292  41.881   2.213
41986W        W14312  43.458  37.414  11.198
41987W        W14313  24.734   6.484  11.554
41988W        W14314   5.859  20.710   3.348
41989W        W14315  38.575  28.950  12.951
41990W        W14316  40.917  43.456  11.257
41991W        W14317  36.465  15.975   1.739
41992W        W14318  38.564  20.185  12.738
41993W        W14319  33.928  21.697   2.743
41994W        W14320  10.083  28.692   2.874
41995W        W14321  37.515   6.882  12.932
41996W        W14322  17.094  27.975  13.021
41997W        W14323  40.875  22.677   1.721
41998W        W14324   3.095  41.706  11.092
41999W        W14325  29.451  43.109  13.384
42000W        W14326  17.638  15.067  14.415
42001W        W14327  12.790  27.092   5.478
42002W        W14328  14.486  16.534  12.556
42003W        W14329  16.036   2.197  11.538
42004W        W14330   9.675  28.516  12.204
42005W        W14331  33.690  11.325  12.110
42006W        W14332  13.136   4.377  14.333
42007W        W14333  26.097  33.713  12.006
42008W        W14334  40.447   6.156   5.010
42009W        W14335  23.187  38.542  11.291
42010W        W14336   5.431  31.169  14.828
42011W        W14337  38.062  11.619  11.993
42012W        W14338  40.046  28.376   0.768
42013W        W14339  31.923  25.850  12.081
42014W        W14340  14.142  17.225   0.356
42015W        W14341  40.268  21.756   2.368
42016W        W14342   5.962  39.396  11.862
42017W        W14343  44.555  16.671   3.637
42018W        W14344   2.282  31.880   4.387
42019W        W14345  20.586  11.808  11.259
42020W        W14346  11.344   9.178  12.386
42021W        W14347  17.546  24.153  11.933
42022W        W14348   0.441  42.285  14.848
42023W        W14349  31.443  27.544   4.571
42024W        W14350  15.200  25.129   1.137
42025W        W14351   9.145  42.534   2.758
42026W        W14352  31.944  27.438  14.459
42027W        W14353  23.402  35.338   0.215
42028W        W14354  44.350  22.448  13.242
42029W        W14355  41.335  40.293  11.983
42030W        W14356  41.007  16.381   1.303
42031W        W14357  25.928  39.531   4.119
42032W        W14358  38.624  18.440   2.821
42033W        W14359   3.934  21.408  11.926
42034W        W14360  39.291  28.705  10.928
42035W        W14361  30.993  16.982  11.701
42036W        W14362   4.875   9.242   2.314
42037W        W14363  21.395  21.250   9.965
42038W        W14364  43.321   1.094  14.793
42039W        W14365  13.105  41.437   4.150
42040W        W14366  17.376   3.993  11.530
42041W        W14367  26.219  11.770  13.426
42042W        W14368   4.702   4.893  11.483
42043W        W14369  22.998  10.211  12.164
42044W        W14370   0.502  17.593   4.218
42045W        W14371   9.702  36.207   3.635
42046W        W14372  41.507  15.378   3.789
42047W        W14373  31.659  13.246   2.878
42048W        W14374  11.622   3.413   0.424
42049W        W14375  18.168  25.203   2.859
42050W        W14376  34.437   5.689   4.247
42051W        W14377  24.181  17.650   0.977
42052W        W14378   4.585   4.208  10.884
42053W        W14379  25.677  11.212  11.133
42054W        W14380  29.012   7.940  12.078
42055W        W14381  25.117  26.368  13.000
42056W        W14382  24.575  10.219   4.705
42057W        W14383   4.744   2.541  10.583
42058W        W14384   6.715   1.387  13.487
42059W        W14385  41.538   9.685   1.948
42060W        W14386  37.904  26.732  13.498
42061W        W14387  20.679   1.205  13.975
42062W        W14388  18.828  23.405   0.071
42063W        W14389  39.788   0.950   0.118
42064W        W14390  44.617   4.563   3.141
42065W        W14391  42.262   4.453   2.287
42066W        W14392   9.571  35.382   2.909
42067W        W14393   0.487  23.504  13.317
42068W        W14394  38.373  43.787   0.765
42069W        W14395   6.909  30.863  13.451
42070W        W14396  24.502  14.782  14.307
42071W        W14397  16.270  21.222  10.480
42072W        W14398  31.341  18.587  10.835
42073W        W14399  11.821  12.777  12.499
42074W        W14400  16.304  23.658  12.539
42075W        W14401  16.325   5.165   2.316
42076W        W14402  19.316  41.956   0.010
42077W        W14403  21.633  25.667  10.687
42078W        W14404  44.330  44.773   1.367
42079W        W14405  31.460   2.366  12.375
42080W        W14406  41.395   7.668  10.531
42081W        W14407  21.385  10.335   5.026
42082W        W14408  36.646  30.557  14.979
42083W        W14409  36.526  22.773   3.575
42084W        W14410  19.261  15.710  14.368
42085W        W14411  40.449   9.729  13.403
42086W        W14412  12.810  33.912   0.840
42087W        W14413  39.857  24.794  12.683
42088W        W14414  30.244  39.003  14.821
42089W        W14415  41.950  19.890  10.191
42090W        W14416  35.373   1.859  12.416
42091W        W14417  44.319  26.456   3.508
42092W        W14418  19.033  41.193  12.932
42093W        W14419  25.516  14.723   2.411
42094W        W14420  20.250   3.958  11.034
42095W        W14421  26.892  29.452  14.955
42096W        W14422  30.915  39.297  11.215
42097W        W14423  22.088   9.281   2.544
42098W        W14424  24.386   2.553  10.416
42099W        W14425  15.782  27.771  12.976
42100W        W14426  23.657  23.015   4.756
42101W        W14427  22.269  17.751   3.624
42102W        W14428  43.913  17.708  13.081
42103W        W14429  42.540   5.352   1.311
42104W        W14430   5.755  44.932  12.795
42105W        W14431  40.374   1.629  12.678
42106W        W14432  27.467  25.198   4.731
42107W        W14433  41.943  21.570   1.671
42108W        W14434  31.539  26.998  10.612
42109W        W14435   8.828  20.824  12.619
42110W        W14436  29.998   7.364   2.619
42111W        W14437   7.921   8.399  13.359
42112W        W14438  15.160  40.268  12.933
42113W        W14439   7.929  31.458  14.252
42114W        W14440  40.814   4.953   1.453
42115W        W14441  42.381  18.514  12.534
42116W        W14442  22.261  37.584   2.790
42117W        W14443   0.194  16.094  14.335
42118W        W14444  25.996  43.318  11.436
42119W        W14445  43.260  40.867   3.682
42120W        W14446  24.041  12.111   0.979
42121W        W14447  42.937  35.160   3.312
42122W        W14448  21.067  12.468  12.039
42123W        W14449  18.757  37.307  12.877
42124W        W14450  32.151  32.045   1.951
42125W        W14451   3.895  10.853  10.708
42126W        W14452   2.352  16.276  12.970
42127W        W14453  24.133  40.084  10.443
42128W        W14454   2.186  29.456  11.816
42129W        W14455  37.850  10.203   2.322
42130W        W14456   7.097  29.417  11.642
42131W        W14457  32.452  17.540   0.285
42132W        W14458   6.875  22.482   2.354
42133W        W14459  35.497   6.805   3.168
42134W        W14460  22.142  43.850   3.640
42135W        W14461   4.311  25.770  14.419
42136W        W14462  32.550   5.838   2.754
42137W        W14463  28.979   0.474   1.165
42138W        W14464  29.959  34.201  13.042
42139W        W14465  19.463  41.996  14.244
42140W        W14466  37.433  13.065  11.683
42141W        W14467   8.704  10.151   0.971
42142W        W14468  29.613  39.650   1.187
42143W        W14469  37.931  26.461   2.013
42144W        W14470   5.312  10.811  10.858
42145W        W14471  27.458  23.601  10.703
42146W        W14472  16.796  37.355   1.955
42147W        W14473   9.496  37.872  12.521
42148W        W14474   1.134  25.604  13.473
42149W        W14475  24.998   9.680   3.617
42150W        W14476  32.546   2.029   0.850
42151W        W14477   2.962   2.265  14.866
42152W        W14478  37.550   2.316   2.339
42153W        W14479  37.337  22.701   2.639
42154W        W14480   5.382   7.626   0.920
42155W        W14481  15.228   6.361  13.807
42156W        W14482   5.935   3.521   4.309
42157W        W14483  36.967   7.148  14.909
42158W        W14484  15.253  37.278   3.381
42159W        W14485  20.020  40.595  12.395
42160W        W14486   8.362  10.998   2.363
42161W        W14487   7.457  29.928   4.621
42162W        W14488  20.957  31.487  12.526
42163W        W14489  17.352  24.511  11.051
42164W        W14490  11.567  18.255  12.021
42165W        W14491   6.151  11.746   0.747
42166W        W14492  26.931  44.385  11.014
42167W        W14493  24.636  31.690   0.750
42168W        W14494  29.606  13.582  12.063
42169W        W14495  32.952   1.929  13.984
42170W        W14496  11.086  15.389   0.386
42171W        W14497  30.176  19.758   2.663
42172W        W14498   6.128  19.140   0.668
42173W        W14499  26.793  33.132   4.216
42174W        W14500  24.680  14.843  11.464
42175W        W14501  13.063   7.492   0.021
42176W        W14502  44.032  18.005   1.648
42177W        W14503  18.631  35.860   1.677
42178W        W14504  20.786  17.700  11.119
42179W        W14505   0.145   7.425  14.222
42180W        W14506  40.034  15.423   0.220
42181W        W14507   4.031  38.945   3.835
42182W        W14508  31.400  25.527   4.695
42183W        W14509  28.139  25.271   1.781
42184W        W14510  26.657   1.864  10.717
42185W        W14511  28.775  44.334  10.606
42186W        W14512  32.873  33.648   4.249
42187W        W14513   1.002  41.283   4.163
42188W        W14514  17.570  37.409  11.876
42189W        W14515  33.079  41.503  13.506
42190W        W14516  12.466  26.128  11.115
42191W        W14517   2.273  24.632   0.686
42192W        W14518   9.304  13.146  14.036
42193W        W14519  14.182  26.634  10.890
42194W        W14520  35.445   3.765  12.464
42195W        W14521  22.597  18.024  14.358
42196W        W14522  20.982  10.553   2.387
42197W        W14523  23.187  19.980  12.786
42198W        W14524   5.661  10.336   2.339
42199W        W14525  14.831  14.070  14.569
42200W        W14526   0.271  14.179  10.633
42201W        W14527   4.254  28.182  10.438
42202W        W14528   2.855  17.238  10.327
42203W        W14529  44.934  44.529   4.491
42204W        W14530  40.448  42.974   1.371
42205W        W14531  28.527  17.648  14.599
42206W        W14532  37.258  35.125   1.764
42207W        W14533  36.575  26.102   3.934
42208W        W14534  29.600  30.900  10.956
42209W        W14535  30.177  18.116   0.184
42210W        W14536  34.654   0.469  12.997
42211W        W14537  35.607   6.355   3.423
42212W        W14538   1.424  15.702   3.114
42213W        W14539  43.839   1.989   2.838
42214W        W14540   6.722  33.870  10.716
42215W        W14541   2.052   2.329  12.296
42216W        W14542   7.626  17.521  14.868
42217W        W14543  39.405   7.062  11.441
42218W        W14544  12.233  22.210   1.335
42219W        W14545  32.385  24.232   0.311
42220W        W14546  13.561   8.761   0.646
42221W        W14547  12.169   3.150  13.247
42222W        W14548  40.458   3.199  14.829
42223W        W14549  40.533  19.255   2.851
42224W        W14550  16.272  44.854  11.241
42225W        W14551  22.029  18.188   3.572
42226W        W14552  37.633  44.026  14.526
42227W        W14553  24.371  32.417   2.304
42228W        W14554  42.111  29.078  11.953
42229W        W14555  37.337   6.744   2.192
42230W        W14556  33.086  31.971   4.676
42231W        W14557  22.216  36.361   4.031
42232W        W14558  41.903   0.338  14.363
42233W        W14559  38.138  21.753  11.563
42234W        W14560  44.850  31.788   4.686
42235W        W14561  43.231  18.619  14.351
42236W        W14562   5.646  27.028   2.254
42237W        W14563  38.186  24.894  12.094
42238W        W14564  12.131   3.080   2.318
42239W        W14565   6.329   5.713   3.828
42240W        W14566   7.881  29.173  14.436
42241W        W14567  25.040  31.404  10.676
42242W        W14568   2.847  25.718   4.520
42243W        W14569  10.809  27.115  10.394
42244W        W14570  35.411   5.481   4.087
42245W        W14571  43.506  37.076  10.802
42246W        W14572  17.523  31.044   0.396
42247W        W14573  42.152  42.165  11.122
42248W        W14574  27.661   2.459   3.620
42249W        W14575  28.093  42.476  11.054
42250W        W14576  20.052  12.898   1.867
42251W        W14577  38.472  35.140  10.651
42252W        W14578  10.701  24.970  12.061
42253W        W14579  14.156   3.888  10.765
42254W        W14580  16.419  29.593   3.226
42255W        W14581  30.594  22.710   1.255
42256W        W14582  24.898  32.529   1.425
42257W        W14583  14.865   0.160  14.983
42258W        W14584  12.596  40.885   0.151
42259W        W14585   1.985  26.685   2.847
42260W        W14586  42.985  20.506  12.042
42261W        W14587  32.111  40.161   0.621
42262W        W14588  43.219   0.825  13.048
42263W        W14589  11.120  24.664   3.156
42264W        W14590  44.833   3.267  14.492
42265W        W14591  19.768  19.957   2.544
42266W        W14592  19.017  15.333  12.382
42267W        W14593  26.482  26.041  10.706
42268W        W14594  26.300   0.813   3.642
42269W        W14595  42.483  39.336   0.138
42270W        W14596  35.808  12.594   0.302
42271W        W14597  37.870  37.671   2.021
42272W        W14598  39.794  38.456   3.329
42273W        W14599  14.196  11.706  12.994
42274W        W14600  15.607   2.335  13.828
42275W        W14601  22.766  34.009  13.072
42276W        W14602  36.388  18.465   0.265
42277W        W14603  10.023  25.218  10.683
42278W        W14604  30.445  32.586   0.939
42279W        W14605  40.345  42.897  11.198
42280W        W14606  25.931  16.332   2.831
42281W        W14607  12.040  41.891  11.687
42282W        W14608  23.552  28.183   3.327
42283W        W14609  29.602   1.980   1.882
42284W        W14610  11.364  30.805   2.231
42285W        W14611  13.687  43.703   1.030
42286W        W14612  23.677  12.669   3.552
42287W        W14613  24.298  40.330   5.139
42288W        W14614  23.211  10.672  13.593
42289W        W14615  29.567  26.741  14.049
42290W        W14616   3.005  11.938   9.845
42291W        W14617  12.195   9.693  14.531
42292W        W14618  31.319  21.285   0.024
42293W        W14619   7.737  10.686   3.222
42294W        W14620  37.979   2.592  11.071
42295W        W14621  32.496  33.729  10.475
42296W        W14622   2.700  33.061  14.253
42297W        W14623   6.838  27.582   3.308
42298W        W14624  19.524  10.158  13.079
42299W        W14625   4.812  29.869  13.916
42300W        W14626  17.774  42.880  11.412
42301W        W14627  43.387  28.165  13.120
42302W        W14628  41.925   2.331   2.107
42303W        W14629  37.943  37.248   3.968
42304W        W14630   1.225  17.372   0.806
42305W        W14631  31.614  13.261  12.549
42306W        W14632   3.952  19.753  13.445
42307W        W14633  10.036  29.862   2.961
42308W        W14634  21.638   6.686  11.212
42309W        W14635  18.301  18.771   3.919
42310W        W14636  28.761  27.735   1.243
42311W        W14637   6.929  17.073  11.208
42312W        W14638  13.744   1.055   0.675
42313W        W14639   0.621  42.703  14.577
42314W        W14640  42.058  20.241  12.356
42315W        W14641  18.504  10.176  13.245
42316W        W14642   6.433  32.094  11.219
42317W        W14643  34.433  30.104   3.619
42318W        W14644  30.026  10.842  11.445
42319W        W14645   6.712  41.358   0.624
42320W        W14646  29.980   3.674   9.924
42321W        W14647  28.556  27.225  13.283
42322W        W14648  17.066  44.800   1.414
42323W        W14649   5.857   1.412  13.840
42324W        W14650  38.621   5.317   2.366
42325W        W14651  36.144   7.701  12.518
42326W        W14652   4.359  35.174   2.692
42327W        W14653  10.329  24.485   2.711
42328W        W14654   4.372  37.036  13.879
42329W        W14655  26.643  22.205   2.855
42330W        W14656   1.883  27.312   4.598
42331W        W14657  26.520   2.851  12.988
42332W        W14658  39.508   4.342  11.727
42333W        W14659  31.831  33.677  14.606
42334W        W14660  18.161   9.934   4.643
42335W        W14661  20.330  32.415   0.489
42336W        W14662  42.678  22.597  12.934
42337W        W14663  20.891  21.347  11.931
42338W        W14664  42.687  28.458  11.998
42339W        W14665  19.690  43.624  12.153
42340W        W14666  39.218  35.319  13.429
42341W        W14667  19.269  16.193  11.221
42342W        W14668  18.023  14.225  10.752
42343W        W14669  28.435  38.518   4.875
42344W        W14670  19.728   7.641   2.365
42345W        W14671  44.490  20.614   0.459
42346W        W14672  11.314  26.978  14.980
42347W        W14673  24.823  40.172   5.637
42348W        W14674   9.900  13.885   1.160
42349W        W14675  33.311   6.784  12.741
42350W        W14676  41.291  17.706   0.446
42351W        W14677  30.484  41.372  12.017
42352W        W14678   0.155  11.423  10.347
42353W        W14679  14.976  37.128   2.505
42354W        W14680  19.491  37.186   2.622
42355W        W14681  24.621   3.046  13.829
42356W        W14682  31.940  22.608  14.852
42357W        W14683   9.780  25.620   3.713
42358W        W14684  25.176  19.089   0.530
42359W        W14685  33.046   1.207  11.578
42360W        W14686   8.781  17.539  12.411
42361W        W14687  19.621   1.000   3.165
42362W        W14688  37.004  31.228   0.028
42363W        W14689   4.852  15.415  10.536
42364W        W14690  38.018  31.184   1.184
42365W        W14691  26.018  44.977  12.967
42366W        W14692   6.685  40.630  10.486
42367W        W14693   4.492   4.436   5.464
42368W        W14694  37.237   4.132   3.267
42369W        W14695  36.866  27.793   4.246
42370W        W14696  20.413   0.262   1.759
42371W        W14697  43.363   3.148   9.795
42372W        W14698  16.498  21.065   0.382
42373W        W14699   4.013  34.601   4.627
42374W        W14700  32.363   4.751   4.142
42375W        W14701  25.121  43.950   4.838
42376W        W14702  15.586  30.486   1.695
42377W        W14703  22.456  21.755  10.140
42378W        W14704  24.719  20.509  13.326
42379W        W14705  25.266   6.356  11.585
42380W        W14706  16.274   2.190   0.639
42381W        W14707  10.763   6.850   1.905
42382W        W14708  11.146  35.551   4.097
42383W        W14709  35.882  26.452   1.714
42384W        W14710  31.950  15.053  11.255
42385W        W14711  16.727  31.103  13.065
42386W        W14712  17.668  36.682  11.164
42387W        W14713  35.553  23.875   0.917
42388W        W14714   2.550   3.506  13.289
42389W        W14715   1.927   1.841  13.359
42390W        W14716   1.074  23.123   1.266
42391W        W14717  40.385  13.259  13.245
42392W        W14718   1.282   0.746  14.422
42393W        W14719  33.410   2.327   0.895
42394W        W14720  40.203  42.363   4.890
42395W        W14721  34.904  20.463  11.102
42396W        W14722  37.586  44.774  13.823
42397W        W14723  13.066  12.250   4.338
42398W        W14724  22.151  44.585   1.919
42399W        W14725  40.566  16.317   4.065
42400W        W14726   1.260   0.153  11.506
42401W        W14727  29.525  34.581   0.838
42402W        W14728  24.523  39.399   3.996
42403W        W14729  39.761  23.713  14.751
42404W        W14730  16.444   8.835   3.686
42405W        W14731  36.422   6.286   2.745
42406W        W14732  32.138  30.434  12.833
42407W        W14733  38.744  19.862   2.826
42408W        W14734  33.555   5.310   3.511
42409W        W14735  34.695  16.224  11.083
42410W        W14736  32.441  43.623   0.919
42411W        W14737   8.237   1.522   3.215
42412W        W14738  21.785  11.363  10.272
42413W        W14739  32.015   2.410  10.619
42414W        W14740  20.259  20.659  11.937
42415W        W14741  43.068   1.325   0.201
42416W        W14742  11.340  34.581   1.008
42417W        W14743   2.026  40.618  13.117
42418W        W14744   4.292  21.722   4.473
42419W        W14745  17.578  11.741  14.477
42420W        W14746  14.666  21.700   0.926
42421W        W14747  42.085  16.535  14.384
42422W        W14748  32.332  20.802  14.028
42423W        W14749  33.012  40.489  14.446
42424W        W14750  10.681  14.802  10.650
42425W        W14751   7.002  43.891  12.959
42426W        W14752  21.785   6.400   4.890
42427W        W14753  14.385  17.720  12.019
42428W        W14754   0.662  20.745  12.046
42429W        W14755  38.376  15.959  10.849
42430W        W14756   4.244  21.235   2.296
42431W        W14757  10.344  20.559  13.323
42432W        W14758  21.123  21.023  13.745
42433W        W14759   4.209  17.591  11.210
42434W        W14760  33.891  25.878  12.674
42435W        W14761  13.928   9.201   3.798
42436W        W14762  16.414  15.482   4.405
42437W        W14763  36.599   3.914   3.256
42438W        W14764  21.197  41.846  14.318
42439W        W14765   4.898  38.446  14.382
42440W        W14766   1.745  39.244  13.138
42441W        W14767  17.387  32.446  14.463
42442W        W14768  42.885  32.655  13.836
42443W        W14769   5.244  36.386   4.552
42444W        W14770  37.070  14.403   0.973
42445W        W14771  40.851   9.154  12.042
42446W        W14772  17.713  12.735   3.792
42447W        W14773   1.092  27.340  12.292
42448W        W14774   0.798   5.959  11.665
42449W        W14775  41.388  13.654   4.339
42450W        W14776  42.866  39.989  10.345
42451W        W14777   0.130  13.944  11.067
42452W        W14778  39.678  24.458  11.116
42453W        W14779   3.846  21.959   1.695
42454W        W14780  27.144   1.255  11.218
42455W        W14781  17.547  41.895  14.944
42456W        W14782  39.784  23.201  14.631
42457W        W14783  33.084  20.560  11.574
42458W        W14784  25.489  43.337   4.707
42459W        W14785  23.778  29.092   0.790
42460W        W14786  27.708  21.610   3.360
42461W        W14787  33.813   9.213   0.990
42462W        W14788  19.021  25.546   0.195
42463W        W14789  41.422   7.723   3.369
42464W        W14790  26.914   1.453  11.629
42465W        W14791   7.424  33.614   4.324
42466W        W14792  41.123   6.404   2.816
42467W        W14793  39.098   7.588   3.072
42468W        W14794  32.926   2.894   2.355
42469W        W14795   9.755  18.260   0.193
42470W        W14796  18.178  36.120   0.888
42471W        W14797  43.015  25.418  11.186
42472W        W14798  11.369  30.457  13.033
42473W        W14799  13.579  34.448  14.985
42474W        W14800  19.972  18.765   2.582
42475W        W14801   5.462  13.267   3.398
42476W        W14802  30.490   7.484   5.154
42477W        W14803  25.501  41.194  14.764
42478W        W14804  35.963  14.718   0.560
42479W        W14805  44.253  16.992  12.465
42480W        W14806  29.144  26.029   5.455
42481W        W14807  38.007  33.861  14.354
42482W        W14808  26.160  18.088  14.968
42483W        W14809  27.968   3.825  12.375
42484W        W14810   1.851   9.433   2.298
42485W        W14811   4.008  15.619  13.913
42486W        W14812  35.579  31.618   4.249
42487W        W14813  24.083  42.431   1.968
42488W        W14814  24.436  25.526  13.082
42489W        W14815  25.236   9.778   1.679
42490W        W14816  19.550  19.000   2.128
42491W        W14817  13.671   2.285   1.294
42492W        W14818  30.960  23.083   1.283
42493W        W14819  12.386  39.035   1.237
42494W        W14820  15.562   8.735  13.362
42495W        W14821   5.110  19.533   4.576
42496W        W14822   3.345  37.213   0.341
42497W        W14823   6.396  16.926  13.520
42498W        W14824   3.919  23.642   1.776
42499W        W14825  42.869   2.385  10.600
42500W        W14826  15.770  10.243  11.334
42501W        W14827  13.600   4.446  11.446
42502W        W14828   8.806  16.642   2.178
42503W        W14829  17.781  43.046  10.506
42504W        W14830   2.733   4.079  14.882
42505W        W14831  22.281   8.727   1.342
42506W        W14832  18.112   7.771  14.267
42507W        W14833  37.569  32.548   3.129
42508W        W14834  27.699  15.789   1.388
42509W        W14835  13.345  18.770  12.501
42510W        W14836   9.671  41.781   2.201
42511W        W14837  12.084  21.483   1.679
42512W        W14838  36.345   2.629  13.343
42513W        W14839  36.072   3.514  14.889
42514W        W14840   4.973  14.194  12.942
42515W        W14841  10.245  41.657   0.974
42516W        W14842  28.081   5.473   4.693
42517W        W14843  34.337   6.512  11.099
42518W        W14844  18.844  41.832   4.356
42519W        W14845  20.540  38.056   4.163
42520W        W14846  24.752   9.878  10.627
42521W        W14847  31.397  44.459  12.546
42522W        W14848  38.315  21.143   2.444
42523W        W14849  10.094  30.687   3.755
42524W        W14850   0.288  43.072  14.433
42525W        W14851   3.258  43.090   4.693
42526W        W14852  19.769  35.689   2.338
42527W        W14853  30.337  14.795   2.760
42528W        W14854  42.013  29.796   2.187
42529W        W14855   4.470  36.590  12.451
42530W        W14856   8.220  19.664  10.666
42531W        W14857  15.825   7.209   4.952
42532W        W14858  21.570  41.464  14.126
42533W        W14859  33.749   9.251   2.917
42534W        W14860  18.142   5.942   2.802
42535W        W14861  13.882   7.761   0.772
42536W        W14862  30.219  37.884   2.554
42537W        W14863  39.363  30.688   0.384
42538W        W14864   4.431  20.578   3.153
42539W        W14865   0.077  30.409  14.345
42540W        W14866  30.132  42.619  11.150
42541W        W14867   8.367  15.128  12.496
42542W        W14868  18.117  23.898   2.198
42543W        W14869  14.286  23.319  12.586
42544W        W14870  18.363  22.081  14.790
42545W        W14871  22.303   9.732  11.129
42546W        W14872  32.878  18.597   1.940
42547W        W14873   4.652  11.286  13.486
42548W        W14874  26.954  34.147  11.102
42549W        W14875  44.039  30.619   2.643
42550W        W14876   9.484   7.382  10.280
42551W        W14877  10.203  16.828   1.864
42552W        W14878   0.843  26.568  13.640
42553W        W14879   4.891  42.856   4.581
42554W        W14880  32.248   5.153  14.450
42555W        W14881  43.848  15.116   0.677
42556W        W14882  39.407   2.061  12.391
42557W        W14883  20.493  36.625   1.928
42558W        W14884  20.955  35.321  13.073
42559W        W14885  28.977   6.040  14.032
42560W        W14886  41.652  41.917   0.409
42561W        W14887  44.009  20.475  14.543
42562W        W14888  27.696  22.812  12.960
42563W        W14889  36.626  14.622  12.362
42564W        W14890  14.894  29.215   3.853
42565W        W14891   5.163  38.888   2.859
42566W        W14892  43.042   2.431  11.085
42567W        W14893  15.954  28.482   4.187
42568W        W14894  35.119  40.970  14.876
42569W        W14895   1.912   3.884   5.219
42570W        W14896  30.650  38.912  11.876
42571W        W14897  16.115   0.102  10.816
42572W        W14898  22.097  33.962   2.471
42573W        W14899  22.476  44.546  14.848
42574W        W14900  16.392   5.381   2.790
42575W        W14901  20.956  44.691   4.947
42576W        W14902  35.243  35.184   9.783
42577W        W14903   6.113  25.249   1.179
42578W        W14904   1.122   9.580  11.186
42579W        W14905  19.432  30.358   3.371
42580W        W14906  37.163   1.821   0.325
42581W        W14907  27.146   7.449   4.600
42582W        W14908  12.025  28.032  12.321
42583W        W14909  33.775  21.503   1.150
42584W        W14910  30.063  29.969  13.914
42585W        W14911  26.443  12.753   0.880
42586W        W14912  29.489   4.916  10.657
42587W        W14913  24.221  31.430   2.780
42588W        W14914   6.106  21.003  12.002
42589W        W14915  36.025  23.508  11.155
42590W        W14916  37.646  29.083   0.869
42591W        W14917  31.456  12.132  14.000
42592W        W14918   6.314   9.865  11.208
42593W        W14919  40.442  26.695   0.291
42594W        W14920  23.821  33.977   2.828
42595W        W14921  15.501  27.270   1.666
42596W        W14922  34.313  24.230   4.109
42597W        W14923  40.026   5.528  12.802
42598W        W14924  19.693  35.796   3.766
42599W        W14925   3.968  11.401   3.795
42600W        W14926  43.279  29.990   0.888
42601W        W14927  21.430  39.579  11.042
42602W        W14928  10.068  23.698   1.618
42603W        W14929  37.411  32.270   2.295
42604W        W14930  39.559  25.350  11.931
42605W        W14931  21.114  21.488   4.637
42606W        W14932  39.925   6.602  12.936
42607W        W14933   0.984  36.036  14.203
42608W        W14934  25.054   7.185   3.227
42609W        W14935  42.411  43.812  13.354
42610W        W14936  18.320  14.344  13.927
42611W        W14937  44.794  42.350   4.066
42612W        W14938  32.456  42.996   4.907
42613W        W14939  21.262   0.045   4.728
42614W        W14940  15.309  15.890  12.421
42615W        W14941  23.018   2.869   1.291
42616W        W14942  16.653  41.272  12.076
42617W        W14943   8.461   2.575  13.564
42618W        W14944  30.457  15.215  12.606
42619W        W14945  26.618  44.093  14.900
42620W        W14946  33.966   8.872  13.398
42621W        W14947   5.237   5.834  10.700
42622W        W14948  43.672   3.774   3.610
42623W        W14949  42.432   9.136   4.029
42624W        W14950  39.988  29.234   4.539
42625W        W14951  25.752  40.146   3.338
42626W        W14952  22.417  21.559   1.285
42627W        W14953  31.402  19.918  14.414
42628W        W14954  10.696   5.419  11.180
42629W        W14955   4.297  27.216  10.591
42630W        W14956   8.102  24.047  12.495
42631W        W14957  22.549  29.488   4.157
42632W        W14958  28.990  33.651  12.061
42633W        W14959  22.626  31.650   2.822
42634W        W14960  25.623   0.054  13.813
42635W        W14961  13.250  13.505  11.968
42636W        W14962  19.734  24.948  10.645
42637W        W14963   1.087  15.466   1.329
42638W        W14964   8.242  37.885   0.217
42639W        W14965   5.279  26.783  11.940
42640W        W14966   1.302  18.724   3.713
42641W        W14967  17.807   7.301  13.630
42642W        W14968  30.948  25.578  14.713
42643W        W14969  40.987   0.121  11.126
42644W        W14970  30.280   8.273  11.127
42645W        W14971   5.146  11.341   1.253
42646W        W14972   3.416  13.847   1.769
42647W        W14973  12.820  40.495  12.351
42648W        W14974   1.588  42.026   4.098
42649W        W14975  35.620  42.354  14.564
42650W        W14976  10.703  23.141  13.347
42651W        W14977  22.350  26.583  13.486
42652W        W14978   3.382  33.409   2.261
42653W        W14979  13.778  16.119   3.158
42654W        W14980   4.482   3.494   5.449
42655W        W14981  41.881  27.160  12.992
42656W        W14982  14.768  26.450   4.709
42657W        W14983  39.475  25.934   0.813
42658W        W14984  30.022  30.934  12.989
42659W        W14985  20.721  20.872  11.884
42660W        W14986  32.620   7.409   4.611
42661W        W14987  44.498  37.224  10.581
42662W        W14988  28.059  42.111  14.961
42663W        W14989   8.269  12.760   0.241
42664W        W14990  41.028  41.812  12.930
42665W        W14991  31.161  10.121  12.982
42666W        W14992   1.966   6.904   4.004
42667W        W14993  21.929  28.471  14.304
42668W        W14994   2.648   4.687   9.670
42669W        W14995  18.186  24.749  14.637
42670W        W14996  25.217  13.992  11.553
42671W        W14997  15.227  12.677  10.939
42672W        W14998  14.850  38.952   1.787
42673W        W14999  43.182   0.564   1.534
42674W        W15000  16.131   2.927  13.389
42675W        W15001  32.533  39.516   4.241
42676W        W15002  40.955  33.620  13.791
42677W        W15003   4.980  19.494   1.836
42678W        W15004  18.480   8.447   3.182
42679W        W15005  10.641   3.215   2.194
42680W        W15006   8.888  29.782   0.928
42681W        W15007  18.152  25.909   0.785
42682W        W15008  36.150  41.499   1.796
42683W        W15009  22.435  34.391  12.913
42684W        W15010  42.426  43.864   4.392
42685W        W15011  17.166  25.099  13.789
42686W        W15012  21.024  19.066  10.787
42687W        W15013   0.183  36.083   1.279
42688W        W15014  28.808  19.259   1.871
42689W        W15015  22.833  25.536  11.182
42690W        W15016   0.375  15.708  12.419
42691W        W15017  24.704  19.233   2.162
42692W        W15018  25.546  43.688  14.350
42693W        W15019   6.945  36.489   1.261
42694W        W15020  10.341  41.308   3.652
42695W        W15021   2.715   4.160   0.757
42696W        W15022  32.551  42.414  14.507
42697W        W15023  25.030  27.053  13.873
42698W        W15024  36.243   0.494   2.763
42699W        W15025  40.558  19.575  13.853
42700W        W15026  14.171  12.273  10.919
42701W        W15027  39.467  16.443  13.449
42702W        W15028  11.526   0.710  11.720
42703W        W15029  28.720  16.852   1.520
42704W        W15030  31.335  21.692  12.827
42705W        W15031  21.786  44.210   4.911
42706W        W15032  25.304  23.760  13.940
42707W        W15033  31.961   3.344   2.415
42708W        W15034  38.003  15.805   4.488
42709W        W15035  40.213  19.470   1.901
42710W        W15036  34.369  15.101   1.757
42711W        W15037  25.904  11.720  10.682
42712W        W15038  34.056  44.507  10.209
42713W        W15039  24.276  17.028   3.643
42714W        W15040  20.497  15.743  14.987
42715W        W15041  42.938  27.907  14.039
42716W        W15042   4.381  37.167   3.184
42717W        W15043  25.123  26.778  10.269
42718W        W15044  10.274  22.560   2.797
42719W        W15045   8.814  25.036  12.066
42720W        W15046  26.020  34.028   0.969
42721W        W15047  30.619  21.581  12.511
42722W        W15048  43.323  36.257   0.347
42723W        W15049  39.833  27.616   0.475
42724W        W15050  12.073  37.852   2.329
42725W        W15051  20.316  14.386   0.471
42726W        W15052   3.419   3.024   0.309
42727W        W15053  35.511  32.937   9.810
42728W        W15054   0.192  32.530  13.593
42729W        W15055  29.487  32.467  14.659
42730W        W15056   1.539  36.809  13.871
42731W        W15057  20.739  23.708  12.471
42732W        W15058  29.522   4.426  14.504
42733W        W15059  35.025   2.883   1.278
42734W        W15060   6.617  13.252   2.724
42735W        W15061  24.183   3.633   0.243
42736W        W15062   9.800  20.192  10.434
42737W        W15063  10.472   4.162  11.527
42738W        W15064   2.266   8.677   2.070
42739W        W15065  31.158  10.676  10.686
42740W        W15066  18.176   6.547  12.124
42741W        W15067   2.003  28.132  12.069
42742W        W15068  35.150   3.291  13.962
42743W        W15069   4.285  37.979   4.668
42744W        W15070  21.048   1.457   2.860
42745W        W15071  16.747  31.336  12.382
42746W        W15072   4.755  21.221   1.273
42747W        W15073   3.461  27.582  10.442
42748W        W15074  17.073   6.389  13.793
42749W        W15075  12.205  23.114  11.164
42750W        W15076  28.544  44.089  10.176
42751W        W15077  22.329  22.015  14.735
42752W        W15078   2.687  33.086   3.372
42753W        W15079   0.325   3.837   2.933
42754W        W15080   3.099  13.334   0.409
42755W        W15081  21.905  17.543  14.064
42756W        W15082  31.880  24.621   3.318
42757W        W15083  33.894  33.568  13.041
42758W        W15084  24.716  15.647   4.865
42759W        W15085  24.528  20.036   3.194
42760W        W15086   3.462  42.929   0.959
42761W        W15087  18.008  17.788   4.914
42762W        W15088   6.457  23.116   0.690
42763W        W15089  40.913  36.546   1.445
42764W        W15090  17.282  25.518  11.071
42765W        W15091  41.357   8.244   3.285
42766W        W15092  41.919  43.987   4.589
42767W        W15093   1.191  35.525   2.636
42768W        W15094  37.082  43.729   1.373
42769W        W15095  16.818  44.277   0.951
42770W        W15096  17.052  33.438  14.458
42771W        W15097  30.615  28.465  11.576
42772W        W15098  14.761  11.327   1.625
42773W        W15099  33.451  16.824  10.632
42774W        W15100   2.326  28.616  11.081
42775W        W15101   4.542  20.051  13.490
42776W        W15102  35.618  10.765  13.097
42777W        W15103  17.715  39.257  11.932
42778W        W15104   1.575  23.031  13.731
42779W        W15105  20.383  18.267  10.653
42780W        W15106  33.085  41.328  12.042
42781W        W15107  27.192  30.637   3.050
42782W        W15108  43.667   8.814   1.683
42783W        W15109  22.092  21.303  13.295
42784W        W15110  19.783   4.647   0.884
42785W        W15111  39.447  26.683   1.956
42786W        W15112  22.569  44.817   2.320
42787W        W15113   6.433   5.415  10.669
42788W        W15114  24.493   9.912   0.529
42789W        W15115  14.047  27.998  12.095
42790W        W15116  15.193   7.370   4.060
42791W        W15117  36.903   2.878  11.223
42792W        W15118  10.283  26.105  14.395
42793W        W15119  11.322   2.753  14.302
42794W        W15120  26.129  29.937  12.547
42795W        W15121  21.195  12.499  12.512
42796W        W15122   5.855  13.364   4.230
42797W        W15123  24.734   5.888   3.219
42798W        W15124  25.689  10.208  14.921
42799W        W15125  39.539   9.217  11.892
42800W        W15126  36.090  27.973   1.645
42801W        W15127  31.547  18.606  14.863
42802W        W15128  38.002   4.269  11.164
42803W        W15129  44.971  12.400   4.209
42804W        W15130  26.240  15.663  12.942
42805W        W15131  29.523  24.149  13.663
42806W        W15132  15.736  37.497   3.227
42807W        W15133  24.602  10.629   3.246
42808W        W15134  33.993  37.425  14.666
42809W        W15135  38.826  35.615   2.670
42810W        W15136  23.445  11.645   1.433
42811W        W15137   4.233  34.633   0.930
42812W        W15138  40.408  13.862   1.548
42813W        W15139   8.724  39.490   1.428
42814W        W15140  42.878  16.442   3.137
42815W        W15141  44.344  32.828  10.748
42816W        W15142  28.223  44.461   1.748
42817W        W15143  35.405  12.840  14.000
42818W        W15144  20.604  12.634  11.470
42819W        W15145  24.721   1.936   4.519
42820W        W15146  22.190  18.217  13.568
42821W        W15147  29.944   1.173  12.482
42822W        W15148  15.035  44.058   3.727
42823W        W15149  19.252   6.611  13.063
42824W        W15150  35.803   2.817   2.777
42825W        W15151  39.897  14.069  14.094
42826W        W15152  38.783  38.601  14.736
42827W        W15153  13.326   9.639  11.556
42828W        W15154   9.278  41.332   1.869
42829W        W15155  33.652  41.950   1.321
42830W        W15156  11.796   8.632   2.646
42831W        W15157  17.338  42.390   3.786
42832W        W15158   7.712  10.691   1.639
42833W        W15159  34.521  10.629   3.135
42834W        W15160   3.974   3.360   2.382
42835W        W15161  16.293  44.975   2.773
42836W        W15162  36.848  19.470  12.244
42837W        W15163  23.565  44.202   1.841
42838W        W15164  33.549   4.002   0.897
42839W        W15165  21.273  26.155   3.336
42840W        W15166   8.376   1.805  11.529
42841W        W15167   1.332  29.131  12.500
42842W        W15168   4.610   0.818  13.969
42843W        W15169   7.867   1.048  12.710
42844W        W15170  37.914  14.713  13.775
42845W        W15171  39.973  32.929   0.791
42846W        W15172  10.336   1.219  12.412
42847W        W15173   5.765  32.341  12.571
42848W        W15174  21.005  22.961   0.258
42849W        W15175  34.930   0.854   4.179
42850W        W15176   1.967  32.486   1.859
42851W        W15177  20.236  32.821   2.387
42852W        W15178  39.370  44.797  11.051
42853W        W15179   9.972  13.839   2.680
42854W        W15180  13.916  20.083  11.726
42855W        W15181  16.998  13.548   4.118
42856W        W15182   6.831  14.393   4.245
42857W        W15183   5.107  29.811  14.328
42858W        W15184  28.254  43.458  12.769
42859W        W15185  21.608  13.325  14.919
42860W        W15186  35.752  30.498   3.219
42861W        W15187  40.566   4.418   0.287
42862W        W15188  22.622  40.781  12.328
42863W        W15189  20.058   4.764   1.314
42864W        W15190  33.573  21.245  12.965
42865W        W15191   1.699  38.061   4.707
42866W        W15192  22.910  40.143   5.156
42867W        W15193  29.175  28.631  10.524
42868W        W15194  17.831  17.719   0.707
42869W        W15195  43.451   3.899  12.703
42870W        W15196   8.358  43.944   4.619
42871W        W15197  22.364  23.531   9.858
42872W        W15198  13.331   2.715   1.304
42873W        W15199  29.939   2.411   4.537
42874W        W15200  35.982  39.839  11.334
42875W        W15201   0.458  37.937  13.100
42876W        W15202  12.768  31.441  13.492
42877W        W15203   6.695  37.299   4.476
42878W        W15204  33.377  36.458   0.771
42879W        W15205  37.750  30.373   2.278
42880W        W15206  23.771   0.676  11.664
42881W        W15207  36.371  24.760   0.740
42882W        W15208  26.661  27.664   2.791
42883W        W15209  14.680  12.587   1.818
42884W        W15210  35.306  34.634  11.132
42885W        W15211   0.231  23.739  12.896
42886W        W15212  10.328  30.813   4.853
42887W        W15213  25.917  14.401   1.328
42888W        W15214  26.068  10.072  11.120
42889W        W15215  12.747  31.566   3.107
42890W        W15216  38.447  42.598  14.975
42891W        W15217  38.542   3.964   4.329
42892W        W15218   7.787  18.037   1.924
42893W        W15219  31.597  29.569   1.968
42894W        W15220   6.267  30.416  11.909
42895W        W15221  28.997  15.203   4.103
42896W        W15222  10.946  24.097  11.495
42897W        W15223  23.509  44.278  13.801
42898W        W15224  16.312  43.924   2.688
42899W        W15225  18.920  21.909  13.911
42900W        W15226  41.359   9.335   4.808
42901W        W15227   6.257  42.923  14.435
42902W        W15228  39.490  30.300  13.868
42903W        W15229  43.717  29.558  14.668
42904W        W15230  34.684  40.020  13.391
42905W        W15231  26.191   7.721   0.784
42906W        W15232  14.235  14.252  10.561
42907W        W15233  18.252  37.427  11.116
42908W        W15234  36.847  22.792   2.794
42909W        W15235  11.982  35.433   2.430
42910W        W15236   9.922  36.823  10.808
42911W        W15237  13.291  36.075   5.008
42912W        W15238  30.171   5.674  11.554
42913W        W15239  24.596   4.220  10.729
42914W        W15240  21.104  44.915  14.338
42915W        W15241  21.258   6.411   1.248
42916W        W15242  25.392   8.349  11.660
42917W        W15243  11.845  25.906  11.844
42918W        W15244  34.716  32.511  10.448
42919W        W15245  19.315  13.278   0.952
42920W        W15246  34.106   5.475  13.934
42921W        W15247  40.907  15.852   2.188
42922W        W15248  30.918  14.623   3.589
42923W        W15249  26.130  22.281   4.303
42924W        W15250  29.080  17.579  13.898
42925W        W15251  30.002  31.699  11.063
42926W        W15252  11.774  43.350  12.857
42927W        W15253  11.880  42.009   3.303
42928W        W15254  29.490   5.546   3.881
42929W        W15255  33.881  42.928   3.229
42930W        W15256   3.895  10.034   0.591
42931W        W15257  37.065   6.306  14.269
42932W        W15258  32.496  26.544  13.599
42933W        W15259  39.319  41.981  11.925
42934W        W15260   8.763   8.819   1.224
42935W        W15261   5.822  38.360  12.004
42936W        W15262  37.968  22.069   1.026
42937W        W15263  33.457  36.498   2.236
42938W        W15264  25.126  15.365  12.080
42939W        W15265   8.280  24.665  14.635
42940W        W15266  20.199  18.951   0.366
42941W        W15267  37.621  35.466   0.503
42942W        W15268  23.692  12.564   0.480
42943W        W15269  43.922  32.995  14.840
42944W        W15270  31.658  41.409  13.886
42945W        W15271   9.187   1.524  11.043
42946W        W15272  22.121  13.006   1.082
42947W        W15273  41.465  31.941   0.824
42948W        W15274  42.815  35.347   1.512
42949W        W15275  33.085   5.560   4.492
42950W        W15276  17.377   8.629   1.271
42951W        W15277   7.393   4.841  14.081
42952W        W15278  23.223   4.729   4.149
42953W        W15279  11.069  41.501  11.714
42954W        W15280  41.394  21.189  11.636
42955W        W15281  28.925  34.318   1.457
42956W        W15282  39.254  23.513   4.215
42957W        W15283  27.247  42.564   3.627
42958W        W15284  39.540  41.885   1.053
42959W        W15285  20.218  24.389   3.913
42960W        W15286   9.265   3.286   4.463
42961W        W15287  18.653   6.291  11.117
42962W        W15288  24.795   5.959  14.341
42963W        W15289  25.968  10.569  14.426
42964W        W15290  16.699  20.477   3.820
42965W        W15291  37.980  33.950  11.612
42966W        W15292   7.286  10.365  11.883
42967W        W15293  38.433  18.079   1.360
42968W        W15294  39.881  10.532  14.350
42969W        W15295  44.446   3.690   3.120
42970W        W15296  29.129   0.329   0.272
42971W        W15297   1.619   6.255  12.878
42972W        W15298  12.871  31.168  14.871
42973W        W15299   5.246  28.068   3.223
42974W        W15300  37.650  30.169  13.025
42975W        W15301   4.531  33.050   2.855
42976W        W15302  22.028   3.849   1.306
42977W        W15303  34.591  18.328   1.326
42978W        W15304  21.599  38.155   4.986
42979W        W15305  25.524  18.805   0.045
42980W        W15306  34.557   2.729   1.493
42981W        W15307  29.349  43.527   4.378
42982W        W15308  19.460  44.410   2.160
42983W        W15309   9.158  25.661   1.811
42984W        W15310  27.713  41.766  14.730
42985W        W15311  14.704  43.518  10.673
42986W        W15312  32.011  33.049   0.806
42987W        W15313   1.412  18.256   1.808
42988W        W15314  42.508   5.443   3.971
42989W        W15315  19.318  11.173   0.802
42990W        W15316  36.923  41.373   0.317
42991W        W15317  22.190   9.144  10.681
42992W        W15318   0.540  11.763  10.262
42993W        W15319   9.331  10.314   1.575
42994W        W15320   8.764   8.767   0.723
42995W        W15321  11.752  18.515   2.987
42996W        W15322  21.110  38.010  13.147
42997W        W15323   2.836   1.729  13.340
42998W        W15324   1.704  31.576   0.935
42999W        W15325   0.397  16.225  10.708
43000W        W15326  29.979   9.869  12.420
43001W        W15327  34.007  31.962   1.835
43002W        W15328  41.379  19.635  12.420
43003W        W15329  25.936   2.780  12.939
43004W        W15330  37.874   9.668  13.974
43005W        W15331  36.024  29.011  14.424
43006W        W15332  17.808  13.463  14.822
43007W        W15333  27.469  39.908   4.500
43008W        W15334   1.556  27.524   1.342
43009W        W15335  27.932  25.018   2.223
43010W        W15336  34.264  21.770  11.393
43011W        W15337  37.023  43.424   0.393
43012W        W15338  16.855   3.996   3.816
43013W        W15339   7.262  15.654   0.460
43014W        W15340   3.369  15.172  14.223
43015W        W15341  44.487  15.218   3.891
43016W        W15342  32.672  20.571   4.490
43017W        W15343   5.251   4.619   0.487
43018W        W15344   4.747  18.201   0.931
43019W        W15345   0.073  40.347  14.867
43020W        W15346  35.679  13.354   0.876
43021W        W15347  37.672   4.775  14.296
43022W        W15348  42.484   9.384   2.265
43023W        W15349  41.331  28.952  14.838
43024W        W15350  22.707   0.761  10.780
43025W        W15351  21.276  37.298   1.473
43026W        W15352  17.637  10.239  11.602
43027W        W15353  10.313   2.446   4.411
43028W        W15354  34.793   5.978   2.311
43029W        W15355   1.284  36.554   4.168
43030W        W15356  42.321  26.156   3.462
43031W        W15357   3.848  31.870   4.809
43032W        W15358  34.499  24.546  11.510
43033W        W15359  37.042  25.820  14.520
43034W        W15360  20.884   0.627  12.139
43035W        W15361  33.093  18.608   1.477
43036W        W15362  32.685  28.691   1.724
43037W        W15363  14.364   0.019   1.874
43038W        W15364  41.498   8.306  11.096
43039W        W15365   8.286  13.727   1.130
43040W        W15366  14.794  39.591   4.690
43041W        W15367  38.174   0.570  11.973
43042W        W15368   2.843  14.711   2.575
43043W        W15369  36.481   3.311   5.003
43044W        W15370   7.660  36.414   1.753
43045W        W15371  37.071  27.039   1.404
43046W        W15372  44.709  40.340  11.269
43047W        W15373  30.257  43.769   0.276
43048W        W15374  25.037  28.195   3.228
43049W        W15375  22.059  12.562   1.346
43050W        W15376  44.383   6.185   4.544
43051W        W15377  14.443  33.378  14.906
43052W        W15378  22.445  22.754  12.953
43053W        W15379   1.860  26.384  13.984
43054W        W15380  19.363  44.029   3.433
43055W        W15381  35.495  40.314   0.380
43056W        W15382  23.236  20.810  10.748
43057W        W15383  27.930  27.025  14.552
43058W        W15384  23.817   4.702  12.324
43059W        W15385  20.947   8.837  11.618
43060W        W15386  30.069  34.109   3.595
43061W        W15387  41.360  35.544   4.676
43062W        W15388   3.773   7.715  12.102
43063W        W15389  20.843  38.072   0.016
43064W        W15390  30.930  25.174   0.487
43065W        W15391  41.446   7.643  14.444
43066W        W15392  20.164  31.434   4.372
43067W        W15393  29.618  37.801   0.442
43068W        W15394  29.428  22.384  14.960
43069W        W15395  25.914  18.139  11.977
43070W        W15396  41.717  20.216   1.810
43071W        W15397  27.739   8.208   2.722
43072W        W15398  18.158  26.957   0.878
43073W        W15399  41.278   4.934   1.180
43074W        W15400  13.814  26.718   3.771
43075W        W15401   5.361  39.011  10.716
43076W        W15402  20.780   3.181   4.215
43077W        W15403  16.599   6.489   3.267
43078W        W15404   7.403   4.551   3.042
43079W        W15405   6.272  10.601  13.130
43080W        W15406   0.294  26.058   3.159
43081W        W15407  11.461  25.221  14.801
43082W        W15408   9.245  34.410  14.001
43083W        W15409   8.060  40.777   1.594
43084W        W15410  38.028  28.675   0.044
43085W        W15411  13.103  35.738   5.363
43086W        W15412  12.307  32.429   1.277
43087W        W15413  21.739  20.836   4.773
43088W        W15414  14.601   8.997  10.962
43089W        W15415  17.294   2.359   4.083
43090W        W15416  27.578  40.726   3.136
43091W        W15417   1.630  15.214  12.607
43092W        W15418   5.365   0.151  11.234
43093W        W15419  33.653  12.130   0.381
43094W        W15420  25.177  29.663   1.781
43095W        W15421  31.696  34.263  14.841
43096W        W15422  42.265   8.689  14.083
43097W        W15423  21.014  40.408  13.149
43098W        W15424   8.311  16.237  12.942
43099W        W15425  42.519  27.417   3.595
43100W        W15426   8.117  24.629   2.131
43101W        W15427  29.660  11.243  12.456
43102W        W15428  32.051  38.701   2.283
43103W        W15429  23.579   0.294  10.725
43104W        W15430   7.404  22.162  11.645
43105W        W15431   0.750   2.817  12.383
43106W        W15432  40.645  18.987  10.786
43107W        W15433  31.131  36.844   2.199
43108W        W15434   9.738   7.380   3.253
43109W        W15435  41.321  43.026  12.409
43110W        W15436  16.106  39.574  13.806
43111W        W15437  38.995  44.891  14.759
43112W        W15438  13.770  28.950  10.702
43113W        W15439  20.443  39.815  12.565
43114W        W15440  34.859  24.342   1.920
43115W        W15441  15.024   0.509   2.642
43116W        W15442   4.958  41.876   1.265
43117W        W15443  38.317  22.933   0.603
43118W        W15444  28.734  21.580  14.520
43119W        W15445  44.191  24.751  10.120
43120W        W15446  33.863  41.280   4.452
43121W        W15447  20.634  20.121  13.456
43122W        W15448  22.792  17.927  11.167
43123W        W15449  40.957  28.516  12.623
43124W        W15450  27.454   5.914  13.322
43125W        W15451  18.724  43.068   4.593
43126W        W15452  33.020  15.990  10.441
43127W        W15453  12.866   2.830  11.101
43128W        W15454  29.330  12.123   2.260
43129W        W15455  15.577  29.568  12.912
43130W        W15456  17.717  24.322   2.725
43131W        W15457  11.536  19.033  14.329
43132W        W15458  39.544  27.172   1.282
43133W        W15459  29.105   5.735  10.733
43134W        W15460  36.357  42.954  12.409
43135W        W15461  42.108  40.080  11.540
43136W        W15462   9.304   0.088   2.371
43137W        W15463  42.397   6.928  13.546
43138W        W15464  44.046  16.591   1.234
43139W        W15465  37.988  43.428   4.726
43140W        W15466  26.255  26.698   1.448
43141W        W15467   7.863  43.892   4.751
43142W        W15468   6.778  12.159   0.331
43143W        W15469  32.525  23.736  11.621
43144W        W15470  43.514  23.648   1.929
43145W        W15471  37.072  32.628  11.894
43146W        W15472  10.629  20.035   4.298
43147W        W15473  34.621  21.689  14.474
43148W        W15474   6.487  33.865  12.748
43149W        W15475  35.342  13.647   3.732
43150W        W15476  38.955  19.249  14.525
43151W        W15477  21.574  23.470   2.291
43152W        W15478   0.351  41.601  12.509
43153W        W15479   4.917   2.677  13.391
43154W        W15480  28.707  39.270   2.200
43155W        W15481  42.112  18.541   0.791
43156W        W15482  10.745  12.516   3.606
43157W        W15483   3.424  15.081   1.163
43158W        W15484  32.354  27.428  11.095
43159W        W15485  37.583  30.653  12.863
43160W        W15486  10.391   3.316  11.177
43161W        W15487  20.569  15.002   2.921
43162W        W15488  28.385   3.430  11.520
43163W        W15489  15.603  10.729   0.843
43164W        W15490  24.320  18.775  14.976
43165W        W15491  38.629  19.399   2.650
43166W        W15492  39.344  35.061  13.863
43167W        W15493  34.062  22.989  11.677
43168W        W15494  15.252  35.009   2.330
43169W        W15495  44.667  14.460   0.732
43170W        W15496  11.642  26.543   3.280
43171W        W15497  32.457  10.699  11.913
43172W        W15498  26.491  44.092  12.881
43173W        W15499   4.577  30.699   2.861
43174W        W15500   1.024  12.638  11.799
43175W        W15501  16.845  42.472   2.856
43176W        W15502  24.105  40.299   4.282
43177W        W15503  10.746  12.191  14.869
43178W        W15504  31.943  34.958  13.973
43179W        W15505  19.503  23.152   1.416
43180W        W15506  28.553  40.307  14.179
43181W        W15507   0.172  41.263  11.155
43182W        W15508  18.921  43.752  11.590
43183W        W15509  14.861  34.849  12.383
43184W        W15510  31.947  12.641   2.319
43185W        W15511  21.046  28.181   2.079
43186W        W15512   1.592  43.270  10.930
43187W        W15513   0.741   8.835   3.190
43188W        W15514  20.771  16.719  11.445
43189W        W15515  41.447  11.936   3.182
43190W        W15516   8.263  33.844  11.210
43191W        W15517   3.185  11.788   3.687
43192W        W15518  37.949  17.340  13.824
43193W        W15519  10.210  38.136  12.939
43194W        W15520  43.388  12.286  11.114
43195W        W15521  40.406  15.969   2.295
43196W        W15522  10.338  27.343   1.392
43197W        W15523   5.750   1.258   0.988
43198W        W15524  18.809   5.843   0.421
43199W        W15525  40.560   5.682   4.434
43200W        W15526   0.153  27.061   1.129
43201W        W15527  24.022  18.787  14.410
43202W        W15528  37.473  21.303  10.780
43203W        W15529  40.228  23.618   2.234
43204W        W15530  23.056  44.869   1.242
43205W        W15531   6.363  26.046  10.773
43206W        W15532  12.621  22.002  13.306
43207W        W15533  27.180  21.756   2.422
43208W        W15534  42.990   1.216  13.841
43209W        W15535   6.598  13.595   3.778
43210W        W15536  19.796  43.389  11.720
43211W        W15537  40.785  13.702   2.881
43212W        W15538   2.777  31.955  14.381
43213W        W15539  27.502  21.796  13.082
43214W        W15540  28.620  36.671  11.552
43215W        W15541  25.117  15.180   5.085
43216W        W15542  10.824  40.922  12.208
43217W        W15543  32.448   4.166   2.363
43218W        W15544   7.220   1.697   4.065
43219W        W15545  38.644  26.121   2.446
43220W        W15546   3.951  11.218   5.053
43221W        W15547  22.003  30.531  10.426
43222W        W15548  14.277  25.025  14.570
43223W        W15549  25.603   7.109   4.063
43224W        W15550  12.380  29.676   1.894
43225W        W15551  33.062  40.495  12.430
43226W        W15552  17.108  40.472   2.912
43227W        W15553  30.023  25.467   4.302
43228W        W15554   9.491  31.427   3.690
43229W        W15555   3.652  34.564   2.159
43230W        W15556  41.287  29.603  12.098
43231W        W15557   1.818   5.882   4.189
43232W        W15558  41.273  32.964   3.092
43233W        W15559  20.230  37.307  12.859
43234W        W15560   1.545  25.516  11.967
43235W        W15561  44.436   2.984  14.247
43236W        W15562  23.360  44.932   3.337
43237W        W15563   8.862   0.398  11.056
43238W        W15564  21.116  30.606   3.215
43239W        W15565  21.042  24.834   3.873
43240W        W15566  13.188  14.566   4.268
43241W        W15567  39.887   7.406  14.283
43242W        W15568   9.977  30.128   3.420
43243W        W15569   5.912   2.006   0.268
43244W        W15570  30.412   5.296   2.795
43245W        W15571  24.803  21.269  12.806
43246W        W15572   0.972  40.678  14.984
43247W        W15573  25.093  23.510  12.906
43248W        W15574  22.076  18.215  10.682
43249W        W15575  21.169  19.133   3.161
43250W        W15576  38.978  44.357   3.002
43251W        W15577  10.407  34.008   3.175
43252W        W15578   3.683  24.695   4.901
43253W        W15579  19.870  18.116  13.017
43254W        W15580  13.223  22.953  11.225
43255W        W15581  32.089  41.426  10.138
43256W        W15582  27.111   5.851  10.680
43257W        W15583   0.940  34.433   2.036
43258W        W15584  23.162  29.007   3.728
43259W        W15585  30.634  34.792  13.512
43260W        W15586  29.532   3.410  14.276
43261W        W15587   3.105  21.252  12.432
43262W        W15588  23.055  42.906  13.773
43263W        W15589  17.567   5.823   4.538
43264W        W15590  43.525  43.294   0.339
43265W        W15591  42.583   3.655   0.952
43266W        W15592  14.225  43.754   2.184
43267W        W15593  33.793  15.651   1.365
43268W        W15594  25.176  41.995   0.559
43269W        W15595  20.088  18.783  14.862
43270W        W15596  31.208  20.227  13.979
43271W        W15597  41.982  36.167   2.488
43272W        W15598  22.507  11.310  13.887
43273W        W15599  28.972  18.284  11.494
43274W        W15600   0.785  22.475  10.462
43275W        W15601  10.978  44.078   4.061
43276W        W15602  14.227  12.344   0.552
43277W        W15603  42.975  18.612  11.205
43278W        W15604  36.826  29.026  11.946
43279W        W15605   2.697   4.661  14.442
43280W        W15606   4.748  23.981   3.588
43281W        W15607  22.239  44.895  11.619
43282W        W15608  23.188  31.114   0.155
43283W        W15609  11.681  36.294   4.533
43284W        W15610  22.596  24.827  10.681
43285W        W15611  25.503  44.932  14.315
43286W        W15612  33.356  39.737  14.945
43287W        W15613  32.043  42.041  14.322
43288W        W15614  21.956  15.370  14.064
43289W        W15615   4.983  40.500  11.902
43290W        W15616   5.618  42.381   1.870
43291W        W15617  31.382  18.199  12.100
43292W        W15618  16.827  14.514   4.575
43293W        W15619  24.516  42.289   1.702
43294W        W15620  12.317  42.653   1.708
43295W        W15621  31.956  21.748  13.317
43296W        W15622   0.937   0.475   4.614
43297W        W15623  23.089  24.026   2.218
43298W        W15624  10.337  19.716  11.919
43299W        W15625   5.263  37.076  10.949
43300W        W15626  29.706   5.315  12.740
43301W        W15627  43.532  34.066   3.953
43302W        W15628  43.972  31.091  10.901
43303W        W15629  19.085  39.020  12.094
43304W        W15630  19.577  37.075  12.495
43305W        W15631  37.127   0.747   2.731
43306W        W15632  30.496  43.710  11.816
43307W        W15633   8.680  18.668   3.531
43308W        W15634  32.425  34.261   0.546
43309W        W15635  20.193   5.822  11.646
43310W        W15636  13.840  44.867  13.060
43311W        W15637  25.167  18.822   0.973
43312W        W15638  30.094  12.431  10.481
43313W        W15639  22.508  41.421  13.480
43314W        W15640   0.701  43.338   2.843
43315W        W15641  26.686  31.445  11.898
43316W        W15642   8.274  31.600   3.229
43317W        W15643  32.566   4.176   3.287
43318W        W15644  15.577  38.882   3.674
43319W        W15645   1.967   8.593   2.554
43320W        W15646  40.895  42.749  11.999
43321W        W15647  24.058   7.155   2.283
43322W        W15648   5.118  17.852   2.813
43323W        W15649   5.775  13.422   4.730
43324W        W15650  20.848   3.176  12.439
43325W        W15651   5.725  33.474   2.623
43326W        W15652  13.106  16.619   1.411
43327W        W15653  38.060  35.551  12.464
43328W        W15654  44.495  21.098  10.025
43329W        W15655   3.935  22.060   3.372
43330W        W15656   3.464   6.138  13.411
43331W        W15657   4.898  22.986   0.003
43332W        W15658  11.340  28.153  14.000
43333W        W15659  21.553   4.254  10.859
43334W        W15660  27.169   5.729   0.238
43335W        W15661  18.062  27.819   1.399
43336W        W15662  14.298   6.310  10.723
43337W        W15663  21.135  24.668  14.471
43338W        W15664  24.547  21.096   0.371
43339W        W15665   2.240  42.555   1.421
43340W        W15666  28.514  15.364  13.546
43341W        W15667   4.268  24.020  11.141
43342W        W15668   0.317  13.669   3.692
43343W        W15669  35.181  30.933  10.956
43344W        W15670  21.964  31.232   0.033
43345W        W15671  34.109  36.897   2.377
43346W        W15672   3.691  42.411  12.882
43347W        W15673   5.441   0.800  12.622
43348W        W15674  25.450  27.883   0.495
43349W        W15675  42.375  21.735   2.438
43350W        W15676  15.032   1.244  11.887
43351W        W15677  29.371  35.260  11.321
43352W        W15678  13.597  37.907  14.419
43353W        W15679  30.367  33.906   1.466
43354W        W15680   7.765  18.635   1.127
43355W        W15681   2.233  21.294  13.421
43356W        W15682  16.151  27.251   3.613
43357W        W15683  24.925  14.182   2.132
43358W        W15684   3.688  32.053   0.670
43359W        W15685  29.097  28.690   3.079
43360W        W15686  43.346  37.367  12.483
43361W        W15687   9.927  15.219  11.891
43362W        W15688  15.036  26.514  14.371
43363W        W15689  28.505  19.079   4.259
43364W        W15690  22.957  21.820  10.747
43365W        W15691   3.868   5.077   4.174
43366W        W15692   9.754  27.919   3.823
43367W        W15693  17.047  20.754  12.919
43368W        W15694   9.417  39.951   3.144
43369W        W15695  17.482   4.175   0.065
43370W        W15696   9.224   4.084   0.323
43371W        W15697  23.960  40.521  11.440
43372W        W15698  36.379  38.346  13.164
43373W        W15699  25.660  18.680  14.021
43374W        W15700  29.994  20.289   2.559
43375W        W15701  16.131  30.478   0.233
43376W        W15702  21.543  16.366   1.858
43377W        W15703  30.463  31.872   3.408
43378W        W15704  39.053  37.887   4.061
43379W        W15705  13.277  24.108   2.481
43380W        W15706  15.179  29.153   2.452
43381W        W15707   9.181  34.000   3.698
43382W        W15708  16.396  15.802  11.081
43383W        W15709   4.662  10.321   0.561
43384W        W15710   9.617  13.221  13.074
43385W        W15711  25.169  26.896   2.428
43386W        W15712  13.850  11.294   2.315
43387W        W15713   2.405  10.257   0.000
43388W        W15714  38.480   8.264  11.068
43389W        W15715  31.077   6.868  12.870
43390W        W15716  26.264   7.377  13.980
43391W        W15717  11.132  27.011  12.489
43392W        W15718   9.419   7.317   4.685
43393W        W15719   9.726   6.303   4.366
43394W        W15720  32.799  44.814  10.830
43395W        W15721  35.028   9.695   2.563
43396W        W15722   2.026  19.157   3.498
43397W        W15723  41.081  37.690   1.113
43398W        W15724  19.567  16.525  12.406
43399W        W15725  15.718   6.825   4.473
43400W        W15726  44.841  11.886  14.044
43401W        W15727  16.828  11.378   0.835
43402W        W15728  17.065  27.609  14.526
43403W        W15729   3.739  33.835  11.189
43404W        W15730   2.321  15.365  13.446
43405W        W15731  19.533  16.158   2.112
43406W        W15732   0.739  44.587  12.050
43407W        W15733  17.239   8.076  11.046
43408W        W15734  12.263  41.047  12.057
43409W        W15735  25.134   2.065   2.897
43410W        W15736  38.362  27.536  10.703
43411W        W15737  34.863  38.892   4.538
43412W        W15738  19.243   6.614   0.811
43413W        W15739  10.435  14.279  14.270
43414W        W15740   2.299  12.793   4.546
43415W        W15741  16.593  41.874  10.792
43416W        W15742  19.062  23.811   1.854
43417W        W15743  40.082   8.844   4.370
43418W        W15744   9.160   7.219  11.234
43419W        W15745  13.229  23.993  10.038
43420W        W15746  17.521  35.963  12.573
43421W        W15747  18.095  25.683  10.641
43422W        W15748  16.676  29.385  13.828
43423W        W15749  10.961  14.293  13.454
43424W        W15750  18.021  43.606  13.851
43425W        W15751  39.419  27.553  10.688
43426W        W15752  39.129  14.925  11.365
43427W        W15753  30.450  27.168   2.719
43428W        W15754  16.233  21.265   1.195
43429W        W15755  16.157  12.824  10.495
43430W        W15756  40.659  28.662   2.856
43431W        W15757  22.026  14.639  13.410
43432W        W15758   2.285  30.406  10.150
43433W        W15759  12.830  35.477  14.997
43434W        W15760  10.585  41.262  13.396
43435W        W15761   3.264  13.109   1.384
43436W        W15762   7.148   8.236  14.998
43437W        W15763   8.463   5.048   1.068
43438W        W15764  29.956  25.198  11.085
43439W        W15765  34.658   3.255   1.402
43440W        W15766  36.791   7.224  11.996
43441W        W15767  41.498  16.769   3.209
43442W        W15768  41.810  29.883   1.483
43443W        W15769  10.126  14.976   0.058
43444W        W15770  35.975   9.467  10.939
43445W        W15771   4.297  40.019   3.922
43446W        W15772  30.113  41.319  11.638
43447W        W15773  19.299  14.853  11.675
43448W        W15774  41.735   7.603  12.672
43449W        W15775  28.255   2.585   0.472
43450W        W15776  34.372  39.371   1.475
43451W        W15777  16.675  35.296  14.280
43452W        W15778  43.372  12.654   2.237
43453W        W15779  41.412  44.841  12.359
43454W        W15780   7.796  18.104  13.016
43455W        W15781  24.734  32.046   2.226
43456W        W15782   7.802  11.050  11.738
43457W        W15783  25.554  39.759  11.410
43458W        W15784   0.786  40.722   0.884
43459W        W15785   4.501  14.318  12.069
43460W        W15786  31.761   6.648   1.093
43461W        W15787  21.695  20.143  12.855
43462W        W15788  28.861  32.583   0.352
43463W        W15789  33.015  25.398   3.680
43464W        W15790  38.184   4.905  14.359
43465W        W15791  30.201  28.907  12.633
43466W        W15792  25.007  27.881  12.482
43467W        W15793  17.133  10.406  14.295
43468W        W15794  35.896   6.707  13.578
43469W        W15795  34.433  32.419   5.057
43470W        W15796  40.941  22.479  14.745
43471W        W15797   1.239  28.243  12.616
43472W        W15798  36.180   1.263  10.524
43473W        W15799   2.657   7.750   5.060
43474W        W15800  26.321  19.918  10.995
43475W        W15801   0.665   4.208  12.958
43476W        W15802  29.558  24.782  11.775
43477W        W15803   0.811  36.438  14.537
43478W        W15804  17.650  26.161  12.939
43479W        W15805  14.581  12.176  11.239
43480W        W15806  37.135  31.621  14.131
43481W        W15807   8.886   5.508  12.013
43482W        W15808  15.769  34.429   1.333
43483W        W15809  42.939   7.404   4.241
43484W        W15810   3.562  22.284  11.938
43485W        W15811  41.100   9.915  14.311
43486W        W15812   5.301   1.414  12.400
43487W        W15813  23.229  24.176   0.316
43488W        W15814  11.165  40.377   4.963
43489W        W15815   1.799  32.497  14.594
43490W        W15816  43.201  35.704   4.917
43491W        W15817   8.204  18.512   3.394
43492W        W15818  17.286  18.290  11.137
43493W        W15819  32.966  31.846   2.573
43494W        W15820   9.293  18.202  10.648
43495W        W15821  29.611  23.335  11.088
43496W        W15822  15.273   8.829  14.901
43497W        W15823  43.041  10.053   3.608
43498W        W15824  18.225   4.814   2.457
43499W        W15825   3.146  29.174   2.825
43500W        W15826  32.922  24.700   1.321
43501W        W15827  37.319  27.559   2.664
43502W        W15828  21.077  21.682  10.725
43503W        W15829   9.850   7.328   0.393
43504W        W15830  42.577  32.321  10.736
43505W        W15831  36.825  24.127  14.200
43506W        W15832   7.829  32.957   3.294
43507W        W15833  20.441  40.465   3.369
43508W        W15834  24.222  35.401   3.501
43509W        W15835  22.304  18.014   3.163
43510W        W15836  35.552   4.736   1.232
43511W        W15837  36.344  14.231  14.016
43512W        W15838  15.688  11.630  10.672
43513W        W15839  43.818  26.939  11.613
43514W        W15840  17.579  39.257  12.843
43515W        W15841  21.075   5.911  12.927
43516W        W15842  11.548  39.932  12.193
43517W        W15843  30.231  28.955   4.293
43518W        W15844  19.627  25.362  11.980
43519W        W15845  18.538  37.350  13.342
43520W        W15846  17.136  15.627   4.917
43521W        W15847  15.828  31.423  12.466
43522W        W15848  39.523  20.044  13.039
43523W        W15849  12.828  44.791   1.242
43524W        W15850  10.189  12.841   2.863
43525W        W15851  22.078  42.471   1.227
43526W        W15852  10.780  36.054  10.161
43527W        W15853  27.451  37.373  11.363
43528W        W15854  40.041  28.287   2.302
43529W        W15855  20.548   4.121  13.259
43530W        W15856   2.499  30.440   1.292
43531W        W15857  43.326  31.027   3.652
43532W        W15858  16.509  17.092  13.911
43533W        W15859  25.589  14.935   5.024
43534W        W15860  35.458  40.295  14.439
43535W        W15861  27.873  21.294  10.683
43536W        W15862  13.064   0.898   2.922
43537W        W15863  28.872  15.661   4.350
43538W        W15864   1.734   2.236   1.714
43539W        W15865  35.922   5.850  13.560
43540W        W15866  21.085  31.414  13.021
43541W        W15867  23.398   2.027  14.826
43542W        W15868  13.386  20.167  13.870
43543W        W15869  36.756  42.556  10.642
43544W        W15870  43.898  12.879   0.207
43545W        W15871  31.158  43.314   1.718
43546W        W15872  27.678  16.072   1.820
43547W        W15873  34.066  37.358   0.914
43548W        W15874  27.134   7.522  13.981
43549W        W15875  30.674  35.407   4.224
43550W        W15876  19.119  43.401  12.364
43551W        W15877  14.260  44.520  14.746
43552W        W15878  15.530  21.269  14.475
43553W        W15879  29.237   7.875   0.821
43554W        W15880  31.473  20.695  13.917
43555W        W15881  18.288  19.204   2.738
43556W        W15882  27.550  27.631   1.677
43557W        W15883  43.765   3.798  10.376
43558W        W15884   5.695  35.807   3.114
43559W        W15885  37.466  25.984   0.032
43560W        W15886  35.595   6.422   4.001
43561W        W15887  25.310  15.036   4.614
43562W        W15888  23.085  24.562  12.090
43563W        W15889  15.143  13.111   4.770
43564W        W15890  23.927  22.016  11.182
43565W        W15891  22.085  25.216   0.320
43566W        W15892  32.776   8.607   3.280
43567W        W15893  16.323  11.766  14.969
43568W        W15894  14.557   3.143   5.044
43569W        W15895  21.121  41.977   3.518
43570W        W15896  42.320   6.838  11.169
43571W        W15897   8.217  28.741  11.445
43572W        W15898   9.683  35.122   1.159
43573W        W15899   1.600  38.460  14.337
43574W        W15900  32.520   1.756   4.302
43575W        W15901  15.136   2.686  11.210
43576W        W15902  15.640  28.053  11.038
43577W        W15903  39.607  14.197   0.873
43578W        W15904   0.802  31.993  11.731
43579W        W15905   9.291  40.948   3.663
43580W        W15906  23.944  31.413  14.935
43581W        W15907  31.380  34.357   0.784
43582W        W15908   0.276  30.610   3.247
43583W        W15909  23.467  32.655  11.965
43584W        W15910  43.125  15.650  12.618
43585W        W15911  43.126   5.741   0.594
43586W        W15912   9.160  30.538   3.275
43587W        W15913  30.115   5.802  13.587
43588W        W15914   0.423  40.545   3.541
43589W        W15915  20.588  25.617   1.791
43590W        W15916  40.515  43.813   0.810
43591W        W15917  20.739  39.513  11.525
43592W        W15918  32.455   9.444   3.900
43593W        W15919  29.606  44.099  13.720
43594W        W15920   4.272  44.004  13.505
43595W        W15921  22.009   3.786  14.350
43596W        W15922  10.804  16.127   4.594
43597W        W15923  13.796  25.654  12.352
43598W        W15924   8.633  44.828   3.058
43599W        W15925   7.158   6.200  13.852
43600W        W15926  28.151  16.955  12.003
43601W        W15927  33.561  37.021  13.105
43602W        W15928   3.292  21.715   4.212
43603W        W15929   2.702  18.174  14.254
43604W        W15930  38.492  38.552  12.453
43605W        W15931   1.475  21.103  12.993
43606W        W15932  29.457   1.426   3.900
43607W        W15933  10.868  26.634   2.894
43608W        W15934  31.670  18.163  12.974
43609W        W15935  22.296  43.350   4.600
43610W        W15936  27.851  20.804  10.807
43611W        W15937  22.934  29.137   4.181
43612W        W15938  22.636   3.060  11.627
43613W        W15939  35.435  34.902  14.847
43614W        W15940  42.250  11.282  13.854
43615W        W15941  32.403   8.121  10.483
43616W        W15942  15.120   1.974  14.773
43617W        W15943   8.243  31.422   4.151
43618W        W15944  28.725  20.782  12.508
43619W        W15945  10.520  37.484  10.147
43620W        W15946  41.964  37.663   2.197
43621W        W15947  22.986  38.604   2.674
43622W        W15948  12.815  12.303  12.517
43623W        W15949   6.840  22.567  13.469
43624W        W15950  15.609  23.233  12.079
43625W        W15951   9.833  14.837  11.185
43626W        W15952  23.601  24.499  10.944
43627W        W15953  10.417  21.727   0.777
43628W        W15954  24.140  20.578   4.859
43629W        W15955  28.452  21.757   2.263
43630W        W15956  14.184  20.111   0.820
43631W        W15957  12.388   3.864  13.937
43632W        W15958  27.686  41.989   3.651
43633W        W15959   0.724   8.932  14.555
43634W        W15960  18.858  41.860  14.233
43635W        W15961  37.437   3.368  11.585
43636W        W15962  16.077   3.361   4.522
43637W        W15963  16.111   3.707   2.195
43638W        W15964  12.677  30.508   0.425
43639W        W15965  11.830  12.159  12.118
43640W        W15966  24.688  20.060  13.626
43641W        W15967  38.963  27.034  13.300
43642W        W15968  35.591  42.276   2.006
43643W        W15969  17.639  24.270   3.943
43644W        W15970  11.159  14.444   1.994
43645W        W15971  13.080  27.675  14.447
43646W        W15972  11.689  27.929   0.245
43647W        W15973  13.115  27.069   4.225
43648W        W15974  31.544   1.235   1.341
43649W        W15975  30.078  38.848   3.178
43650W        W15976   4.446  23.113   3.868
43651W        W15977  21.842  23.658   2.698
43652W        W15978   5.429  43.388   4.088
43653W        W15979  34.592  37.035   2.382
43654W        W15980  44.430  16.616   0.253
43655W        W15981  30.123  27.246  11.178
43656W        W15982  35.144   8.272  13.067
43657W        W15983  20.431  22.098  14.973
43658W        W15984   3.311   4.887   3.310
43659W        W15985  13.767  10.562   4.114
43660W        W15986  29.064  37.980  10.544
43661W        W15987  11.601  43.781  14.421
43662W        W15988  32.013  18.275  14.306
43663W        W15989   1.827  42.441   1.118
43664W        W15990  31.047  40.982  11.913
43665W        W15991  27.092  20.041   3.628
43666W        W15992  22.239  15.063   3.419
43667W        W15993  13.657  14.695   4.643
43668W        W15994  35.164  32.859   5.122
43669W        W15995  35.905  40.837  13.990
43670W        W15996  33.443  30.384  13.077
43671W        W15997   8.962   6.903   4.138
43672W        W15998   4.158  11.325  13.401
43673W        W15999  36.108   3.052   3.176
43674W        W16000  13.272  43.715   2.107
43675W        W16001  13.758  29.960  12.100
43676W        W16002  26.982  15.300  14.560
43677W        W16003  19.703  38.166   1.207
43678W        W16004  35.766  22.500  13.569
43679W        W16005  23.508  38.234  14.469
43680W        W16006  19.787  43.098   5.099
43681W        W16007   2.918  38.494  14.852
43682W        W16008   5.995  29.981   4.232
43683W        W16009   8.345   2.904  12.874
43684W        W16010  32.421  15.485  11.564
43685W        W16011  33.312   1.634   3.149
43686W        W16012  21.642  15.853   1.735
43687W        W16013   9.681  38.673   2.783
43688W        W16014  22.251  15.758  14.589
43689W        W16015  25.067  25.942   3.612
43690W        W16016  16.357   9.170  12.359
43691W        W16017  33.902  35.829   4.628
43692W        W16018  24.264  38.163  10.985
43693W        W16019  11.140  44.410  14.012
43694W        W16020  10.178  18.279  12.958
43695W        W16021  27.875  17.159  12.878
43696W        W16022  22.221   7.221   2.261
43697W        W16023  22.747  15.174   4.923
43698W        W16024  16.912  15.715  11.388
43699W        W16025  31.347  43.687  12.060
43700W        W16026  31.999   3.342   4.677
43701W        W16027  42.447   7.556   3.716
43702W        W16028  25.493   8.731  14.710
43703W        W16029   8.089  23.301  14.310
43704W        W16030  22.120   5.950   3.512
43705W        W16031  25.456  32.287   0.316
43706W        W16032   3.401  16.080  14.331
43707W        W16033  42.478  44.743  11.613
43708W        W16034   6.577  19.306   4.569
43709W        W16035  34.450  29.455   3.678
43710W        W16036  24.121  18.820   1.837
43711W        W16037  28.863   6.281  13.470
43712W        W16038   7.900  33.930   2.599
43713W        W16039  44.689  22.697   2.409
43714W        W16040  16.211   0.979   4.507
43715W        W16041   4.781  39.064   0.751
43716W        W16042   5.865   8.102  11.643
43717W        W16043  25.758  26.568   2.218
43718W        W16044  40.939   2.264  14.009
43719W        W16045  44.997  25.087  12.924
43720W        W16046  25.074  41.267  12.679
43721W        W16047  11.729  43.927  13.901
43722W        W16048  41.366  36.443  12.592
43723W        W16049   9.071   8.061   3.067
43724W        W16050  11.104  14.707   4.432
43725W        W16051   6.038  14.778   4.008
43726W        W16052  12.545  44.029   2.684
43727W        W16053   9.781  33.419  12.816
43728W        W16054  39.604   1.278  12.050
43729W        W16055   6.864  36.987   1.849
43730W        W16056   3.170  15.404   0.846
43731W        W16057  43.234  42.680  12.055
43732W        W16058  12.265  31.555   3.833
43733W        W16059   8.397  31.067   1.798
43734W        W16060   9.042   2.111  12.351
43735W        W16061  20.689  10.660   3.950
43736W        W16062   4.264  35.399   2.235
43737W        W16063  39.538  33.182   0.907
43738W        W16064  14.728  32.907   3.178
43739W        W16065  25.447   8.704  13.813
43740W        W16066  21.808  10.446  12.090
43741W        W16067  43.390  25.158  13.022
43742W        W16068   8.810  36.596   5.085
43743W        W16069  18.198  39.533  11.999
43744W        W16070  42.236  27.337   4.230
43745W        W16071  34.567  33.462   3.031
43746W        W16072  27.668  39.411   4.467
43747W        W16073  27.650  34.700   1.425
43748W        W16074  20.040  23.051   2.886
43749W        W16075  25.585  12.288   0.580
43750W        W16076  17.265  28.568   2.203
43751W        W16077   0.236  39.163  11.932
43752W        W16078  40.477  33.491  13.940
43753W        W16079  12.324  28.154   1.732
43754W        W16080  35.838  20.339  10.800
43755W        W16081  14.176  25.586   0.278
43756W        W16082   1.877   5.339   2.948
43757W        W16083  36.764   4.472   2.560
43758W        W16084  34.388   3.011   4.572
43759W        W16085   6.362   4.285   2.298
43760W        W16086  12.018  27.716  10.023
43761W        W16087  12.125  38.035   1.332
43762W        W16088  38.865   5.354   1.917
43763W        W16089   2.014   3.819  12.742
43764W        W16090   3.779   2.925  13.551
43765W        W16091  42.598   6.662  13.926
43766W        W16092  27.554  41.246  12.412
43767W        W16093  38.922  32.489   3.629
43768W        W16094  29.221  13.364  10.907
43769W        W16095  36.821  29.933  12.895
43770W        W16096  14.755  20.958   4.985
43771W        W16097  11.174   2.799  14.797
43772W        W16098  10.792  19.574   4.496
43773W        W16099  32.508  14.581  12.145
43774W        W16100  37.475   3.805  11.841
43775W        W16101  29.079  35.030   0.929
43776W        W16102  30.130  43.879  12.132
43777W        W16103  16.633  28.055   1.032
43778W        W16104  39.075  29.158   4.905
43779W        W16105  31.568  12.347   1.951
43780W        W16106  42.359  37.472  13.462
43781W        W16107  24.679  16.277   0.904
43782W        W16108  28.577  20.766   0.156
43783W        W16109  40.694   3.715  13.455
43784W        W16110  30.423  40.283   4.861
43785W        W16111  30.488   5.860   0.470
43786W        W16112   1.220   0.414   1.345
43787W        W16113  35.547  21.425   2.690
43788W        W16114   3.021  34.687  12.779
43789W        W16115  33.666  23.452   4.439
43790W        W16116   1.717  24.117  11.664
43791W        W16117  19.036   1.279   3.699
43792W        W16118  18.577  44.488   3.614
43793W        W16119  11.283  25.551   5.168
43794W        W16120   2.021  25.241  10.910
43795W        W16121  14.261  37.944  13.517
43796W        W16122  31.826  29.451   1.266
43797W        W16123  19.050  44.306  13.011
43798W        W16124   1.939   5.177   1.878
43799W        W16125  13.171  29.632  10.619
43800W        W16126  22.846  35.335  12.930
43801W        W16127  19.438  37.675   2.808
43802W        W16128  42.331  31.932  13.892
43803W        W16129  23.698  26.529  13.853
43804W        W16130  17.569  36.210  10.915
43805W        W16131  23.443  44.675  13.449
43806W        W16132  25.121  27.693  11.989
43807W        W16133   1.924  10.422   2.118
43808W        W16134  12.234  15.541   2.645
43809W        W16135  26.628  35.209  12.592
43810W        W16136  34.850  19.696   0.880
43811W        W16137  44.631   6.912   4.038
43812W        W16138  35.931  16.215   0.892
43813W        W16139  40.382  18.293   1.243
43814W        W16140  37.648  40.030   1.335
43815W        W16141  28.750  19.518   2.831
43816W        W16142  34.564  19.130   1.696
43817W        W16143  23.142  37.083  14.893
43818W        W16144  10.457  13.697   2.862
43819W        W16145   2.072  31.557  10.618
43820W        W16146  21.946  19.159  11.650
43821W        W16147  30.513  15.755  11.023
43822W        W16148  27.947  26.369  11.641
43823W        W16149  43.985  24.926   3.495
43824W        W16150  40.390  16.793   3.348
43825W        W16151  44.520  42.373  12.439
43826W        W16152   3.602  42.682   3.818
43827W        W16153  11.440  31.335   0.133
43828W        W16154  11.572  24.577  14.066
43829W        W16155   4.734  28.594   0.386
43830W        W16156  30.445  44.273   3.170
43831W        W16157  15.578   1.251  12.947
43832W        W16158   7.884  41.002  14.500
43833W        W16159  11.650  29.167  12.554
43834W        W16160  20.157   0.700   0.005
43835W        W16161  23.145  42.354  14.505
43836W        W16162  40.086  12.844  11.088
43837W        W16163  43.815   7.307   1.388
43838W        W16164   7.679  34.527  10.227
43839W        W16165   8.082   0.754   0.664
43840W        W16166  32.295  18.196  12.534
43841W        W16167  32.836  40.309  11.085
43842W        W16168   4.598  27.205   0.451
43843W        W16169  10.149  22.121  11.077
43844W        W16170  31.623  18.777  12.244
43845W        W16171   5.179  38.445   1.933
43846W        W16172  13.356  30.948   4.697
43847W        W16173  11.802  11.570   1.731
43848W        W16174  15.688   9.924   1.406
43849W        W16175  32.915   0.607  14.292
43850W        W16176  14.086  21.586  11.846
43851W        W16177  35.691  44.623  13.017
43852W        W16178   3.899   0.324   1.010
43853W        W16179  41.831  34.083   2.305
43854W        W16180  14.694  29.864   1.040
43855W        W16181  36.640  41.365  14.863
43856W        W16182  31.449  11.695   1.198
43857W        W16183  18.193  29.204   3.831
43858W        W16184  37.827  31.124  12.111
43859W        W16185  42.306  29.631  14.323
43860W        W16186   6.910  14.845   1.820
43861W        W16187  15.173   8.263   1.742
43862W        W16188  34.421  14.819   3.635
43863W        W16189  41.508   1.242   2.715
43864W        W16190  16.817  34.407  13.370
43865W        W16191   6.253  22.431  13.917
43866W        W16192  14.081  36.401   1.203
43867W        W16193  19.269  10.258  10.007
43868W        W16194  16.236   4.037   3.150
43869W        W16195  22.244  43.523   1.218
43870W        W16196  39.375  31.005   1.299
43871W        W16197  18.009  43.986   1.870
43872W        W16198  13.779  40.451   4.525
43873W        W16199  19.138  34.599  11.927
43874W        W16200  34.300  26.735   4.150
43875W        W16201   8.274   1.277  12.953
43876W        W16202  42.095  20.175  10.621
43877W        W16203  26.594  40.383  11.920
43878W        W16204   2.950  40.448  11.214
43879W        W16205  30.022   3.200  14.321
43880W        W16206   0.618  15.960  13.080
43881W        W16207   1.845  42.161  12.905
43882W        W16208   4.082  19.634   4.621
43883W        W16209  25.609   8.957   3.446
43884W        W16210  28.677  31.194   3.803
43885W        W16211  33.002  29.118  13.748
43886W        W16212  37.750  22.808   4.194
43887W        W16213  30.403  10.151   0.999
43888W        W16214  23.569  27.759  13.384
43889W        W16215   4.339  36.541   3.359
43890W        W16216  43.673  36.016   2.281
43891W        W16217  15.828  16.212   1.317
43892W        W16218  26.020  19.796   2.833
43893W        W16219   2.658  13.076  14.745
43894W        W16220  30.826  40.038   3.204
43895W        W16221  23.668   1.004   0.849
43896W        W16222  14.558  17.475   4.670
43897W        W16223   8.865   2.973  12.934
43898W        W16224  20.441  36.064  11.384
43899W        W16225  38.122  30.565   4.493
43900W        W16226  18.265  40.503  14.593
43901W        W16227  14.583  27.946   4.090
43902W        W16228  30.361  14.549  10.567
43903W        W16229  27.215  12.261   0.666
43904W        W16230  41.673   7.439  13.568
43905W        W16231  29.379  43.935  13.313
43906W        W16232   3.459  30.955  14.972
43907W        W16233   3.674  25.608   0.164
43908W        W16234  18.200  19.287  11.177
43909W        W16235  41.740  41.018  14.895
43910W        W16236  33.397   2.255   2.659
43911W        W16237  24.407  44.978   0.928
43912W        W16238  29.912  34.719  13.063
43913W        W16239  38.018  12.014  14.180
43914W        W16240   2.412  39.449   2.819
43915W        W16241  24.676   8.684  13.357
43916W        W16242   5.125  37.965  11.018
43917W        W16243  21.675  16.356  11.891
43918W        W16244   3.184   9.574   3.991
43919W        W16245   5.263  27.567   1.565
43920W        W16246  14.915  18.145  14.610
43921W        W16247  25.105  14.398  11.858
43922W        W16248  21.755   9.852  11.098
43923W        W16249  25.436  38.627  12.919
43924W        W16250  25.624  16.080  11.666
43925W        W16251  11.424  34.804  12.506
43926W        W16252  22.258  18.309  12.559
43927W        W16253  36.523  41.635   4.673
43928W        W16254   1.864   4.248  12.395
43929W        W16255   1.381  38.112  10.659
43930W        W16256  41.766  12.315   3.401
43931W        W16257  42.350  40.904  12.022
43932W        W16258  22.522  42.229  13.900
43933W        W16259  32.981  33.435   0.827
43934W        W16260  24.763  22.666  14.829
43935W        W16261   6.217   0.700   2.625
43936W        W16262  42.549   2.746   0.887
43937W        W16263  14.072  33.169  13.155
43938W        W16264   4.726  38.303  10.961
43939W        W16265  12.115  39.973  11.618
43940W        W16266   4.248  29.169  10.643
43941W        W16267  32.434  35.687   2.123
43942W        W16268  13.671  26.511   2.332
43943W        W16269  40.933  33.001   4.045
43944W        W16270  26.593  16.000  14.544
43945W        W16271   2.851  27.446  12.904
43946W        W16272   6.408   8.746  12.023
43947W        W16273  37.467   5.311   4.356
43948W        W16274   6.179  44.744  11.448
43949W        W16275  44.501  27.855  14.927
43950W        W16276  21.985  29.383   1.791
43951W        W16277   5.648  35.884  13.447
43952W        W16278  38.970  28.069  14.325
43953W        W16279  27.957  37.509   1.802
43954W        W16280  16.566   4.750  12.573
43955W        W16281   4.144  41.455  10.465
43956W        W16282   6.363  16.859  14.582
43957W        W16283  18.528  41.312  13.000
43958W        W16284  38.592   7.158  14.517
43959W        W16285  24.820  10.735   0.805
43960W        W16286   7.153  38.574   4.863
43961W        W16287  40.518  42.421  12.456
43962W        W16288  26.094  44.440  11.926
43963W        W16289  20.176  31.584   2.381
43964W        W16290   8.325   3.036  13.387
43965W        W16291  11.377  42.526   0.800
43966W        W16292  42.361  30.968   0.736
43967W        W16293   0.503  25.822   4.145
43968W        W16294  18.204   1.403  13.335
43969W        W16295  15.524  14.116   3.724
43970W        W16296  19.468  24.729  11.069
43971W        W16297  21.190  22.968  14.393
43972W        W16298  30.419  27.940  14.937
43973W        W16299  22.752  28.517  14.984
43974W        W16300  37.940  10.463   9.865
43975W        W16301  30.457  23.831   1.514
43976W        W16302   2.741   6.696   0.235
43977W        W16303   2.041  34.503   1.360
43978W        W16304  26.714   0.342  13.424
43979W        W16305   0.842  20.927   1.848
43980W        W16306  44.412  31.893   2.734
43981W        W16307   3.298  17.848   4.709
43982W        W16308  25.632  15.912  14.364
43983W        W16309   2.345  11.243  11.195
43984W        W16310  39.060  40.557  11.536
43985W        W16311   7.782  19.063  12.533
43986W        W16312   0.411  43.427   1.140
43987W        W16313   1.333  27.442   4.991
43988W        W16314  20.273   4.009   4.163
43989W        W16315  19.746  10.324  10.238
43990W        W16316  25.974  42.896  11.714
43991W        W16317  38.855  28.881  11.710
43992W        W16318  43.899  41.503  10.738
43993W        W16319  19.292  35.995  10.674
43994W        W16320   3.803  34.011   2.859
43995W        W16321   2.305  20.496  10.622
43996W        W16322   1.254   5.385   4.396
43997W        W16323  12.769  24.071   3.620
43998W        W16324  35.862  29.895  11.457
43999W        W16325  15.928  39.862  12.390
44000W        W16326  37.328  21.038   2.194
44001W        W16327   4.508   9.878   5.205
44002W        W16328  14.857   3.917  11.541
44003W        W16329  40.849  39.865   0.385
44004W        W16330  24.180   1.237  12.993
44005W        W16331  24.211   1.299   1.266
44006W        W16332  12.636   6.884   4.318
44007W        W16333  19.889  28.617   1.980
44008W        W16334  32.635  12.943   0.149
44009W        W16335  34.542  37.131  11.651
44010W        W16336  15.228  33.187  13.896
44011W        W16337  39.478  10.874   5.062
44012W        W16338   6.010  23.342  10.377
44013W        W16339  13.196  26.965  12.315
44014W        W16340   8.951  32.437   1.271
44015W        W16341   8.709   2.897  13.924
44016W        W16342  16.713  40.763   3.885
44017W        W16343   8.883   5.422  14.676
44018W        W16344  41.857   0.107   0.801
44019W        W16345  10.241  40.852  10.545
44020W        W16346   6.697  21.318   4.060
44021W        W16347  18.103  20.043  14.958
44022W        W16348  11.323  44.896  14.283
44023W        W16349  41.005   7.985  13.554
44024W        W16350   0.235  12.244   2.799
44025W        W16351  21.403  34.467   4.615
44026W        W16352  17.265   7.340  14.315
44027W        W16353   1.732  33.431   4.832
44028W        W16354  14.260  26.698  13.698
44029W        W16355   6.776  34.594   2.604
44030W        W16356   6.431   8.556  13.939
44031W        W16357  34.425  22.596   2.684
44032W        W16358  27.890  38.400  12.524
44033W        W16359   8.496  23.579  11.408
44034W        W16360  13.834  26.224   3.889
44035W        W16361  25.954  42.405   3.257
44036W        W16362  38.856  22.204   3.435
44037W        W16363   4.080   9.691   4.966
44038W        W16364  43.191   7.096   1.426
44039W        W16365  44.006  17.466   0.763
44040W        W16366   3.163  37.467   4.117
44041W        W16367   8.886  26.095  12.907
44042W        W16368   6.154  26.096  11.643
44043W        W16369  16.059  28.647   0.382
44044W        W16370  13.866  31.631   4.400
44045W        W16371  31.148  40.768   2.729
44046W        W16372  31.668  43.322   1.841
44047W        W16373  18.334  21.302   1.600
44048W        W16374  23.068  26.692  14.953
44049W        W16375  35.903   7.218  10.372
44050W        W16376  12.151  41.781   3.689
44051W        W16377  12.280  39.373   4.707
44052W        W16378  30.623  36.307   1.689
44053W        W16379  15.568   1.818   2.791
44054W        W16380  26.943  28.583   2.943
44055W        W16381   8.485  10.292   1.872
44056W        W16382   7.615  16.368   2.237
44057W        W16383  19.640  28.476   1.517
44058W        W16384  17.132   3.306  10.269
44059W        W16385  11.361  22.717   4.842
44060W        W16386  21.988  23.796  13.739
44061W        W16387  30.634  20.051  11.902
44062W        W16388  16.786   7.858   4.184
44063W        W16389   4.490  10.251   3.300
44064W        W16390  37.485  32.158   2.783
44065W        W16391  23.195  33.873   3.303
44066W        W16392   3.533  21.587   5.500
44067W        W16393  10.995  28.806   1.809
44068W        W16394  10.146  32.602  14.390
44069W        W16395  26.018  19.156  13.108
44070W        W16396  10.182  30.863   0.410
44071W        W16397  22.130  35.363   0.463
44072W        W16398  13.088  31.193   2.412
44073W        W16399   4.821  36.777  13.852
44074W        W16400  43.807   0.923  13.572
44075W        W16401  32.633  43.765  11.667
44076W        W16402   8.264  37.614   0.877
44077W        W16403  29.979  27.095   2.933
44078W        W16404  29.670  19.423  13.496
44079W        W16405  15.601  43.268  14.351
44080W        W16406  31.857  37.529   2.230
44081W        W16407  26.957  26.159  10.570
44082W        W16408  38.370  11.154   3.760
44083W        W16409   2.845  43.892   3.868
44084W        W16410  10.644  33.946   3.841
44085W        W16411   8.832  17.141  12.010
44086W        W16412  11.451  36.351  13.398
44087W        W16413  41.750  33.483   2.331
44088W        W16414  39.528  36.861  13.576
44089W        W16415  42.729  18.992  10.925
44090W        W16416  26.208  18.982   4.747
44091W        W16417  32.184   9.837  10.721
44092W        W16418  42.832   2.893  11.158
44093W        W16419   2.139  36.406  14.224
44094W        W16420  13.127  34.605   0.311
44095W        W16421   4.834  42.891  12.948
44096W        W16422  28.176  17.405   0.861
44097W        W16423  24.791  35.966  13.454
44098W        W16424  32.458  31.442   0.307
44099W        W16425  26.692   4.183  14.756
44100W        W16426   5.855   3.473  13.149
44101W        W16427  18.388   7.308   1.353
44102W        W16428  17.390  13.600   5.064
44103W        W16429  25.895  41.893  12.050
44104W        W16430  36.185   6.656  14.492
44105W        W16431   8.355  38.566   4.237
44106W        W16432  37.956   8.748   0.904
44107W        W16433   7.108  34.419   1.696
44108W        W16434  35.054  38.918  13.872
44109W        W16435  36.756  20.328  12.899
44110W        W16436  21.240  23.045  12.892
44111W        W16437  15.149  18.003   3.610
44112W        W16438  22.638  11.809  10.701
44113W        W16439  13.125  26.760   0.851
44114W        W16440  42.023  28.134   5.132
44115W        W16441   0.732  38.920  10.628
44116W        W16442  41.622  17.279   3.213
44117W        W16443  37.449  40.961  12.571
44118W        W16444  15.363  30.634  11.932
44119W        W16445  32.390   7.687  12.961
44120W        W16446  35.964  24.445   0.852
44121W        W16447  23.089  14.253  11.165
44122W        W16448  19.452  40.264  13.968
44123W        W16449  19.981   1.714   4.384
44124W        W16450  11.661  24.986   1.350
44125W        W16451  38.884  29.295  13.507
44126W        W16452  16.525  13.077  13.435
44127W        W16453   2.703   8.327  11.988
44128W        W16454  19.642  24.835  12.032
44129W        W16455   0.953  11.621  12.029
44130W        W16456  15.222   8.213  11.735
44131W        W16457  28.943  40.246  13.849
44132W        W16458  40.490  29.442  10.467
44133W        W16459   1.918   2.311  14.265
44134W        W16460   9.837  13.642   0.725
44135W        W16461  41.487   6.060   1.812
44136W        W16462   8.422  13.179  13.924
44137W        W16463  24.796   9.915   1.976
44138W        W16464   6.164   9.347  13.400
44139W        W16465  22.252  11.149  13.243
44140W        W16466   5.254   8.286   4.825
44141W        W16467  35.002  12.340  13.349
44142W        W16468  40.029  17.606   2.876
44143W        W16469   5.176  21.258  10.686
44144W        W16470  26.065   7.490  12.487
44145W        W16471   6.167   5.033  10.939
44146W        W16472  15.785  16.584  13.515
44147W        W16473  15.187  23.033  11.816
44148W        W16474  28.673  34.676  13.825
44149W        W16475  20.762  26.579   0.512
44150W        W16476  14.758  31.661  14.263
44151W        W16477  33.236  42.893   5.206
44152W        W16478  25.128  10.527  14.055
44153W        W16479  28.191  11.505  12.621
44154W        W16480  10.144   1.524  11.573
44155W        W16481  14.857  36.819   3.974
44156W        W16482  39.672   7.782   2.212
44157W        W16483  17.812  38.362   1.388
44158W        W16484  14.119  40.916  13.611
44159W        W16485  23.830  11.582  12.488
44160W        W16486  42.523  21.460  13.097
44161W        W16487  12.544  10.323   3.694
44162W        W16488  20.403  24.202   0.776
44163W        W16489  36.650  17.762  11.067
44164W        W16490  24.935  13.334   1.947
44165W        W16491  40.284   6.267   2.448
44166W        W16492  27.993  16.063   2.324
44167W        W16493  39.742   3.716   3.240
44168W        W16494  27.619   1.952   3.474
44169W        W16495  28.208  26.494  12.806
44170W        W16496  37.506  43.487   3.518
44171W        W16497  15.657   0.270   3.829
44172W        W16498  14.136   8.319   4.091
44173W        W16499  20.827  11.656   0.078
44174W        W16500   8.196  21.107  11.184
44175W        W16501   8.757  35.408  11.467
44176W        W16502  42.262   9.293   0.788
44177W        W16503  23.543  12.345  12.293
44178W        W16504  31.034  44.548   4.574
44179W        W16505   4.956  10.861   4.538
44180W        W16506  39.545  38.548  11.971
44181W        W16507   0.873  29.556   2.109
44182W        W16508  29.117  34.549   3.145
44183W        W16509   6.994  25.275  11.113
44184W        W16510  19.316  30.445   1.806
44185W        W16511  29.648   7.498   0.771
44186W        W16512  38.395  31.875  12.944
44187W        W16513  37.947  24.737   0.766
44188W        W16514   8.470  38.952   4.553
44189W        W16515  19.697   2.151   4.212
44190W        W16516  23.745  43.966   2.274
44191W        W16517  28.854   9.459   4.383
44192W        W16518  43.312   0.956  12.203
44193W        W16519  13.626   3.438   2.260
44194W        W16520  12.136  27.421  14.342
44195W        W16521  13.058  34.395  14.847
44196W        W16522  33.590  27.580   4.045
44197W        W16523  14.247  33.680   0.301
44198W        W16524  38.353  35.286  12.842
44199W        W16525  27.178  43.456  11.856
44200W        W16526  24.242   1.341   2.052
44201W        W16527   8.087   9.300   0.549
44202W        W16528  26.687   9.591   2.299
44203W        W16529  21.251  15.827  12.544
44204W        W16530  15.839  24.922   2.941
44205W        W16531   7.268  15.578  12.486
44206W        W16532  43.588  32.736  14.537
44207W        W16533  16.178  27.929  10.912
44208W        W16534  31.856   6.972  14.304
44209W        W16535   7.152  32.160   0.258
44210W        W16536  23.613   7.982   3.177
44211W        W16537   9.500   2.821   3.202
44212W        W16538  40.429  41.383  13.815
44213W        W16539  20.902  11.810  14.067
44214W        W16540  17.214   0.947  10.063
44215W        W16541  18.370  14.188   0.265
44216W        W16542  22.249   0.917  12.569
44217W        W16543  14.740   1.879   3.344
44218W        W16544   5.797  39.689  13.105
44219W        W16545   0.077  25.269   5.037
44220W        W16546  34.014   1.088  11.203
44221W        W16547  30.938  25.491  13.839
44222W        W16548  41.818  13.094  12.664
44223W        W16549  37.188  22.177   3.588
44224W        W16550  43.595  19.223   1.490
44225W        W16551   4.912  28.179   4.501
44226W        W16552  10.873   7.584  11.090
44227W        W16553  32.775  26.766  12.328
44228W        W16554   9.756  16.657  11.724
44229W        W16555  36.502   2.978  14.332
44230W        W16556  40.424  14.661   2.692
44231W        W16557  10.002  34.814  11.464
44232W        W16558   3.375  23.819   5.540
44233W        W16559   1.786  17.338  14.903
44234W        W16560   1.329  35.551  13.444
44235W        W16561  39.499   5.316  13.975
44236W        W16562  34.602   9.398   1.407
44237W        W16563  14.567   8.279   1.446
44238W        W16564  41.023  32.554   3.263
44239W        W16565  43.076  33.081   2.739
44240W        W16566   6.554   9.873   0.774
44241W        W16567  24.531  15.368   2.150
44242W        W16568  27.502  25.437   9.705
44243W        W16569  40.983  13.669  12.022
44244W        W16570  24.237  11.826   4.746
44245W        W16571  30.787  36.822   0.442
44246W        W16572  16.332  22.503   0.573
44247W        W16573  21.686   5.945   0.928
44248W        W16574  13.890  26.769   1.354
44249W        W16575  21.732   4.880  14.972
44250W        W16576   0.441  32.145   4.043
44251W        W16577  19.080  25.399   3.723
44252W        W16578  25.610  32.056   1.329
44253W        W16579   7.433  43.648  11.449
44254W        W16580  36.988   6.869  12.547
44255W        W16581  10.845  23.953   4.563
44256W        W16582  27.734  25.605  11.607
44257W        W16583   5.220   6.381  10.208
44258W        W16584  21.678   8.340  13.996
44259W        W16585  44.434  38.492  14.890
44260W        W16586  21.405  33.159  12.236
44261W        W16587  13.906  26.700  14.062
44262W        W16588  15.571  23.986   3.883
44263W        W16589  33.007   2.545   0.616
44264W        W16590  35.022  24.283  10.604
44265W        W16591  14.299  42.538  12.908
44266W        W16592  29.481  42.268  12.459
44267W        W16593  22.591  20.245   9.930
44268W        W16594  36.512  17.320   0.985
44269W        W16595  35.388   9.879  13.898
44270W        W16596   5.322   7.259   4.519
44271W        W16597  20.279  23.686  13.414
44272W        W16598  16.668  36.395   3.790
44273W        W16599   1.437  11.124  14.481
44274W        W16600  18.481  41.394   0.928
44275W        W16601  30.956   8.601  11.582
44276W        W16602   2.891  29.992   3.096
44277W        W16603  38.927   9.792  14.975
44278W        W16604  12.503  30.613   1.341
44279W        W16605  26.534  39.032   3.710
44280W        W16606   4.948  36.407  12.463
44281W        W16607  18.142  13.061   4.511
44282W        W16608   6.257  15.682  10.795
44283W        W16609  16.071   3.120   2.835
44284W        W16610  44.886  36.888  10.639
44285W        W16611  14.576   5.833   2.757
44286W        W16612  33.200  25.607   2.576
44287W        W16613  27.185  32.524  13.067
44288W        W16614   8.879   4.845  13.935
44289W        W16615  28.066  24.734   2.763
44290W        W16616  40.105  33.819   0.303
44291W        W16617  20.198  19.190  12.139
44292W        W16618  21.539  36.936   0.421
44293W        W16619  35.116  21.745  14.931
44294W        W16620  33.527  14.861  11.543
44295W        W16621  17.144   5.705   3.181
44296W        W16622   7.928  33.467   3.170
44297W        W16623  39.098  10.344  12.018
44298W        W16624  12.432  35.666   0.961
44299W        W16625  38.440  40.681   2.153
44300W        W16626  42.428  28.431  13.323
44301W        W16627  20.588  43.985  14.362
44302W        W16628  32.552  37.043   1.544
44303W        W16629  37.313   9.838   1.869
44304W        W16630  13.526   1.791   1.183
44305W        W16631  29.320  19.103   1.835
44306W        W16632  23.965  40.776  13.982
44307W        W16633  20.050  12.321  12.127
44308W        W16634  33.092  27.187   4.206
44309W        W16635   4.697  21.063   0.474
44310W        W16636  35.954   1.745  12.595
44311W        W16637  16.431  40.655   1.719
44312W        W16638  32.946  27.223   0.947
44313W        W16639  36.618  20.690  14.830
44314W        W16640  11.703  10.554  12.306
44315W        W16641  17.095  33.085  13.887
44316W        W16642  32.893  42.720   4.746
44317W        W16643  40.260  15.176   1.815
44318W        W16644  13.733   4.703   3.278
44319W        W16645  10.104   9.799  10.678
44320W        W16646   2.466  25.824   4.116
44321W        W16647   6.779   3.693   4.814
44322W        W16648  16.412  19.348   2.782
44323W        W16649  34.532   1.228   1.431
44324W        W16650  16.783  23.348   1.984
44325W        W16651   4.885   1.772   4.340
44326W        W16652  28.169  18.132   2.021
44327W        W16653  34.921  22.284  14.094
44328W        W16654  28.439  34.134  12.573
44329W        W16655  25.413  36.963  10.801
44330W        W16656   8.933  21.349  12.654
44331W        W16657  40.546  20.028  10.748
44332W        W16658  23.736  38.793  11.183
44333W        W16659  43.848  41.330  12.841
44334W        W16660  39.644   6.206   4.644
44335W        W16661   3.974  37.902  12.471
44336W        W16662  29.347   1.252  10.796
44337W        W16663  42.806   6.655  11.147
44338W        W16664  16.116   8.696  13.419
44339W        W16665   0.039   3.397  13.052
44340W        W16666  42.644   8.981  11.054
44341W        W16667  17.535  27.034  12.465
44342W        W16668   7.295   3.853   2.414
44343W        W16669  10.627  31.953   1.914
44344W        W16670  25.946   7.861   1.228
44345W        W16671  42.011  30.669   2.916
44346W        W16672  24.519  37.078  12.810
44347W        W16673  42.311  27.968   2.694
44348W        W16674   2.248   1.880  14.053
44349W        W16675  44.364  18.579  13.960
44350W        W16676  41.241   3.031   2.162
44351W        W16677  41.838  23.810   2.130
44352W        W16678  14.659  37.865  12.407
44353W        W16679  39.010  23.079   4.340
44354W        W16680   0.369  29.891  11.852
44355W        W16681  29.094  27.623  13.984
44356W        W16682  17.621  36.307  14.844
44357W        W16683  20.683  41.887  14.268
44358W        W16684   1.579   0.351  13.359
44359W        W16685  39.770  23.951  11.157
44360W        W16686   1.935  30.654   3.068
44361W        W16687   8.831   8.862  12.926
44362W        W16688  23.612  14.019  12.430
44363W        W16689  27.666  11.090   1.454
44364W        W16690  26.602   5.286   1.308
44365W        W16691  42.277   3.141  12.010
44366W        W16692   0.306  42.308   4.076
44367W        W16693  31.878  16.176  14.926
44368W        W16694  16.313  25.504  12.528
44369W        W16695  39.484  11.156  12.137
44370W        W16696  33.462  36.045  13.925
44371W        W16697  17.214  30.947  12.933
44372W        W16698   3.648  30.441  14.898
44373W        W16699   9.634  44.158   2.701
44374W        W16700  14.386  26.544   9.897
44375W        W16701  37.419  40.070   4.363
44376W        W16702  25.418  39.988  11.843
44377W        W16703  26.274  26.385   5.493
44378W        W16704  22.248  20.514   3.625
44379W        W16705  39.885  17.637  12.787
44380W        W16706  16.844  29.327   1.468
44381W        W16707  38.531  33.587   3.340
44382W        W16708  29.405  29.482  12.422
44383W        W16709  15.990  35.452   0.356
44384W        W16710   7.662  32.434   4.085
44385W        W16711  16.757   7.752   1.131
44386W        W16712  13.376  22.728  13.589
44387W        W16713   7.340  12.460   0.382
44388W        W16714  42.546   1.414  12.954
44389W        W16715  27.962   0.255  12.677
44390W        W16716  12.169  16.703   0.635
44391W        W16717  33.782   2.768   3.439
44392W        W16718  29.910  17.168   3.160
44393W        W16719  21.631  13.866   2.316
44394W        W16720  20.484  15.137   2.403
44395W        W16721  21.786  11.852  11.950
44396W        W16722  10.153  31.732  11.679
44397W        W16723  25.138  25.660   4.048
44398W        W16724  39.062  29.455   0.380
44399W        W16725  26.716   8.108  12.470
44400W        W16726  10.325  43.950  14.972
44401W        W16727  10.371   2.120  12.212
44402W        W16728  10.316   1.416   2.132
44403W        W16729  20.732  19.296   3.370
44404W        W16730  40.519  37.110  14.002
44405W        W16731  35.583   3.836   1.188
44406W        W16732  41.373   5.831  10.743
44407W        W16733  15.750  11.647  12.650
44408W        W16734  30.577  26.573   3.696
44409W        W16735  36.313   2.119  13.201
44410W        W16736  13.717  44.194   2.731
44411W        W16737  31.065  33.840  13.471
44412W        W16738  41.659   3.155  10.112
44413W        W16739  28.586  19.988  14.733
44414W        W16740   2.854  36.185   3.150
44415W        W16741  32.926  40.383   3.662
44416W        W16742  27.070  10.841  14.997
44417W        W16743  15.150  13.140   4.242
44418W        W16744  29.894  10.344  12.589
44419W        W16745  43.662  26.886  12.102
44420W        W16746  21.738  37.006   9.416
44421W        W16747  41.655  25.359  13.668
44422W        W16748  12.186  35.906   2.357
44423W        W16749   4.809  32.501   0.642
44424W        W16750  38.872  30.103  14.207
44425W        W16751  25.801  38.887   4.121
44426W        W16752   3.255  11.176   0.063
44427W        W16753  19.602   9.891  10.704
44428W        W16754  20.577  20.499  10.630
44429W        W16755   0.085  38.656  13.950
44430W        W16756  22.911  32.595   3.328
44431W        W16757   8.570  14.973   0.919
44432W        W16758  12.280  20.199  10.737
44433W        W16759   4.442  39.824  11.443
44434W        W16760  28.178  39.951  12.524
44435W        W16761   5.155  22.271   2.735
44436W        W16762   5.675  23.204   4.798
44437W        W16763  34.387  10.418   1.328
44438W        W16764   6.800   4.400  13.271
44439W        W16765  24.001  15.571  10.149
44440W        W16766  10.948  22.665   1.499
44441W        W16767   7.354   5.712  13.870
44442W        W16768   6.376  38.026  12.637
44443W        W16769   5.269  30.476  12.039
44444W        W16770  24.968  33.371   1.771
44445W        W16771   5.972  15.286   1.346
44446W        W16772   3.287  22.597  13.500
44447W        W16773  33.864  16.212   1.909
44448W        W16774  29.797  11.534   4.605
44449W        W16775   5.707  21.264  10.746
44450W        W16776   6.291  38.404   0.974
44451W        W16777  19.784  33.286  13.905
44452W        W16778  29.531  12.824   3.319
44453W        W16779   0.044  43.936   3.600
44454W        W16780   3.173  21.832   2.863
44455W        W16781   0.505   7.155  10.872
44456W        W16782  25.990   4.279  13.539
44457W        W16783  27.201  14.334   3.677
44458W        W16784   2.672  31.463  12.884
44459W        W16785  25.701   1.813  13.402
44460W        W16786   0.854  21.446  14.518
44461W        W16787  36.622  21.733  12.483
44462W        W16788  21.244  42.047  14.790
44463W        W16789  33.697  27.049   0.029
44464W        W16790  12.811   7.268  12.017
44465W        W16791   4.350   8.606   0.560
44466W        W16792  14.219  41.484   2.205
44467W        W16793   5.829  37.196   1.224
44468W        W16794  32.686   3.465  12.470
44469W        W16795   3.641  39.062  13.045
44470W        W16796  28.508   4.860  12.148
44471W        W16797  37.645   1.843  12.401
44472W        W16798  22.963  32.644   1.522
44473W        W16799  22.250   2.424   2.839
44474W        W16800   0.919  20.121  10.465
44475W        W16801  44.178  22.038   2.322
44476W        W16802   0.082  18.259  11.534
44477W        W16803  34.328  28.967  11.336
44478W        W16804  40.854  37.490  14.835
44479W        W16805  22.633  27.777  11.075
44480W        W16806  13.741  35.680   1.803
44481W        W16807  20.662  35.838  14.804
44482W        W16808  22.765  43.257  14.039
44483W        W16809  33.921  36.317  11.570
44484W        W16810  41.761   3.058   1.466
44485W        W16811  12.746   0.435   3.347
44486W        W16812  34.965  30.420   0.725
44487W        W16813  27.687  23.051   1.208
44488W        W16814  35.923   0.268   0.012
44489W        W16815  15.038  43.400   2.355
44490W        W16816  17.506  39.326   3.502
44491W        W16817  10.084  43.927   2.219
44492W        W16818   4.716  27.641  13.532
44493W        W16819  34.900  14.070   0.887
44494W        W16820  15.671   2.702   4.667
44495W        W16821  12.156  39.875   4.558
44496W        W16822   1.789  27.433  11.607
44497W        W16823  11.195  18.123  13.883
44498W        W16824  13.069  26.787   4.657
44499W        W16825  31.273  33.581  12.982
44500W        W16826  12.283   4.728   1.291
44501W        W16827   9.978  24.785   0.906
44502W        W16828  20.811   1.935   2.729
44503W        W16829  36.489  29.460  13.602
44504W        W16830  11.351  42.088   3.259
44505W        W16831   4.627  18.418   4.102
44506W        W16832   4.661  16.224  13.813
44507W        W16833   2.916  33.997   0.842
44508W        W16834   0.307  13.671   0.567
44509W        W16835  41.439  43.228   0.747
44510W        W16836  14.129  21.490   2.672
44511W        W16837  10.448  18.193  14.536
44512W        W16838  41.938   2.469   2.604
44513W        W16839  19.944   6.258  12.520
44514W        W16840  30.865  29.135  12.875
44515W        W16841  25.665  23.952  14.824
44516W        W16842   0.287  32.063   4.540
44517W        W16843  35.147  19.754   3.801
44518W        W16844   1.127  25.603   1.607
44519W        W16845  36.572  33.654  10.770
44520W        W16846   1.523  20.838  11.494
44521W        W16847  31.690   4.539   0.982
44522W        W16848   4.327  23.475  10.287
44523W        W16849  15.016  21.991   4.325
44524W        W16850   4.763   7.957   2.810
44525W        W16851  14.879   1.868   4.675
44526W        W16852  34.924  33.659  13.382
44527W        W16853  27.630   0.014  13.427
44528W        W16854  24.618  37.423   0.355
44529W        W16855  23.053   0.314  12.752
44530W        W16856  16.285  30.405  13.337
44531W        W16857  15.313  18.061   2.273
44532W        W16858  40.245  29.637  12.124
44533W        W16859  11.713  34.932  13.370
44534W        W16860  16.061  26.154   4.852
44535W        W16861  27.141  13.580  14.473
44536W        W16862  42.398  24.732  12.374
44537W        W16863  24.564  17.281  14.902
44538W        W16864  20.346   7.709  11.135
44539W        W16865  19.969  40.391  13.890
44540W        W16866  16.788  39.106   1.963
44541W        W16867  10.083  20.900   0.823
44542W        W16868  27.588  17.383  11.361
44543W        W16869   3.102   3.792   2.763
44544W        W16870  32.015  16.220   3.254
44545W        W16871  33.764  33.999   3.671
44546W        W16872  17.676  30.927   2.210
44547W        W16873   4.349  24.260   3.382
44548W        W16874  41.469  34.997   4.191
44549W        W16875  33.569  40.533   3.157
44550W        W16876  36.753   2.973  10.710
44551W        W16877   5.258  32.633  10.764
44552W        W16878  26.959   0.971  12.994
44553W        W16879  15.643  12.858   3.144
44554W        W16880  21.077  11.809   2.713
44555W        W16881  34.820  41.487  14.977
44556W        W16882   1.659  10.170   3.862
44557W        W16883   1.841   2.244  12.756
44558W        W16884  24.036   0.012  10.711
44559W        W16885  26.107  34.784  10.982
44560W        W16886  39.876  10.529  10.704
44561W        W16887  32.750  28.421  11.647
44562W        W16888  33.921  30.581   4.591
44563W        W16889   7.425  14.148   1.992
44564W        W16890  19.521   5.951  14.612
44565W        W16891  33.944  43.779  14.472
44566W        W16892  25.970  31.524   0.943
44567W        W16893  12.794  13.216   3.780
44568W        W16894  37.570  23.161   3.840
44569W        W16895  20.406  14.052   5.101
44570W        W16896  34.667  23.687   2.706
44571W        W16897  38.117  11.741  11.452
44572W        W16898   8.647  19.625  14.607
44573W        W16899  35.771  12.415   4.229
44574W        W16900   5.159  14.364  14.763
44575W        W16901   9.685  11.785  14.571
44576W        W16902  44.305  32.721   5.143
44577W        W16903  27.067  41.233   2.827
44578W        W16904  29.499   3.531   5.183
44579W        W16905  42.283   8.184  14.269
44580W        W16906  18.575  35.225   0.334
44581W        W16907   1.137  29.000   3.019
44582W        W16908  27.186  17.840  12.874
44583W        W16909  26.271   0.340   1.313
44584W        W16910   6.547  43.579   1.310
44585W        W16911  22.591  25.508  13.052
44586W        W16912  44.197  12.691   4.769
44587W        W16913  34.598   7.902   0.230
44588W        W16914  30.052  33.162   3.984
44589W        W16915   0.829  20.723   2.340
44590W        W16916   3.463  12.308  14.082
44591W        W16917  35.832   5.316  12.836
44592W        W16918   0.808   4.941   3.704
44593W        W16919   6.369   7.715   0.904
44594W        W16920  20.298  30.070  14.827
44595W        W16921  21.829  21.291   3.562
44596W        W16922  39.058  33.157  10.790
44597W        W16923  32.846  43.523  12.102
44598W        W16924  36.755  20.185  14.817
44599W        W16925   8.250  11.349   1.381
44600W        W16926   8.609  18.340   0.254
44601W        W16927  40.813  19.042  14.464
44602W        W16928  24.884  44.303   1.342
44603W        W16929  29.677  28.551  11.894
44604W        W16930  24.268   2.964  13.461
44605W        W16931  17.369  29.368  13.372
44606W        W16932   1.267  19.622   1.532
44607W        W16933  12.069  30.400   4.253
44608W        W16934  11.927  39.106  11.679
44609W        W16935   5.734  22.583  12.331
44610W        W16936  33.477  28.425   2.217
44611W        W16937  37.131   8.594   2.140
44612W        W16938  16.081   1.322   0.790
44613W        W16939  17.290  41.865  12.002
44614W        W16940   4.626  33.616   0.296
44615W        W16941   5.439  31.162  11.540
44616W        W16942   4.765  42.445  12.654
44617W        W16943   9.549   1.282   4.033
44618W        W16944   0.487   6.131  12.881
44619W        W16945  14.947  40.956  14.038
44620W        W16946  35.519  25.247  13.313
44621W        W16947   2.770  32.594   2.637
44622W        W16948  39.557  22.033   3.619
44623W        W16949   6.523   0.939  14.745
44624W        W16950  38.830  29.473  12.105
44625W        W16951  16.374  16.938  11.635
44626W        W16952  40.087   0.458   4.593
44627W        W16953   8.822  14.731   2.770
44628W        W16954   1.227   9.460  10.698
44629W        W16955  12.137  19.622   0.760
44630W        W16956   5.829   0.756  10.834
44631W        W16957  25.508  20.721   1.902
44632W        W16958  19.215   9.203  14.021
44633W        W16959  43.789  20.809  13.632
44634W        W16960  20.109  28.954   2.737
44635W        W16961  37.847  38.191  13.725
44636W        W16962   4.373  21.093  13.588
44637W        W16963  29.060  15.955  14.520
44638W        W16964  21.457  37.962  13.831
44639W        W16965   1.023  12.182  13.940
44640W        W16966  44.998  36.390  12.580
44641W        W16967  22.010  29.950  11.148
44642W        W16968  29.636  35.662   5.058
44643W        W16969   9.294  40.465   4.754
44644W        W16970  36.340  22.674   0.676
44645W        W16971  41.529  27.199   0.059
44646W        W16972  21.064  40.635   5.092
44647W        W16973  37.480   8.772  12.055
44648W        W16974   8.634  28.526   3.138
44649W        W16975  39.848  29.750   2.160
44650W        W16976  29.922  13.598  12.476
44651W        W16977  37.589  30.533  13.395
44652W        W16978  15.194  29.229  12.378
44653W        W16979  38.447  31.070  10.885
44654W        W16980  43.729  35.544  12.448
44655W        W16981  44.782  33.539   2.301
44656W        W16982  30.105  21.993   1.992
44657W        W16983  12.832  24.751  11.088
44658W        W16984   1.766  38.674  11.182
44659W        W16985  15.051  42.116   1.634
44660W        W16986  28.472   5.271   4.140
44661W        W16987   5.800  29.872  12.565
44662W        W16988  39.611  39.696   3.616
44663W        W16989   8.888  34.059   2.152
44664W        W16990   1.885  24.359  13.709
44665W        W16991  34.814  39.938   3.108
44666W        W16992  43.744   4.587  11.153
44667W        W16993   2.014  28.575  13.624
44668W        W16994  16.277  42.434   1.019
44669W        W16995  15.248  14.627   0.144
44670W        W16996  21.016  10.301   1.297
44671W        W16997   2.672   8.171  14.996
44672W        W16998  40.303  28.954  11.633
44673W        W16999  27.150  36.122  11.477
44674W        W17000  42.441  26.013   1.885
44675W        W17001  42.846  34.701   4.221
44676W        W17002  19.009  15.846  10.549
44677W        W17003  35.958  29.367   4.591
44678W        W17004  38.433   3.609  10.771
44679W        W17005   9.890   4.342  14.785
44680W        W17006  33.108  36.225  12.576
44681W        W17007  36.012  27.751  13.920
44682W        W17008  11.590  30.221   4.183
44683W        W17009  33.579   0.482   1.409
44684W        W17010  12.431   2.940   0.329
44685W        W17011  27.232   0.333   1.983
44686W        W17012  15.559   4.321   3.338
44687W        W17013  27.209  24.859   1.903
44688W        W17014  37.840  23.314   4.325
44689W        W17015   2.306   0.279  11.526
44690W        W17016  13.776  31.356   0.538
44691W        W17017  33.820  39.021   0.299
44692W        W17018  21.098  44.505   2.836
44693W        W17019  32.859   1.507   3.643
44694W        W17020  32.430  16.309   1.296
44695W        W17021  10.296  33.673  14.639
44696W        W17022  27.013  37.829  10.580
44697W        W17023  38.511  36.935   0.815
44698W        W17024  39.965  15.880  12.033
44699W        W17025  24.105  34.527   0.969
44700W        W17026  33.887   2.590  11.127
44701W        W17027  26.501  23.318   4.768
44702W        W17028  17.510   6.725   0.989
44703W        W17029  18.676  19.031  13.014
44704W        W17030   1.586   0.501   2.257
44705W        W17031   4.395  37.060   1.879
44706W        W17032  32.870  21.107  10.761
44707W        W17033   9.649  20.513  12.050
44708W        W17034  10.611  28.889  11.696
44709W        W17035  14.830  26.076  10.805
44710W        W17036  23.949  43.863   4.796
44711W        W17037  13.915   2.822   4.600
44712W        W17038  28.505   5.816  13.878
44713W        W17039  14.872  31.901   4.774
44714W        W17040   4.869   4.376  14.481
44715W        W17041  17.884  24.678   4.697
44716W        W17042  28.045  25.524   2.299
44717W        W17043   2.859  21.737   1.982
44718W        W17044  38.526  30.509  14.760
44719W        W17045  30.532  37.563   1.201
44720W        W17046  39.236  42.540  10.604
44721W        W17047  25.522  38.435   3.593
44722W        W17048  34.809  22.505  11.723
44723W        W17049   2.532  35.793  11.590
44724W        W17050  22.402  44.039   2.764
44725W        W17051  18.215   0.474  12.888
44726W        W17052  39.833  41.363  14.321
44727W        W17053  44.454  40.128  11.647
44728W        W17054  19.553   4.047  14.339
44729W        W17055  19.625   6.480   3.398
44730W        W17056   0.270   7.313  12.037
44731W        W17057  12.235  29.031  11.235
44732W        W17058  17.682   1.352   4.439
44733W        W17059  22.119  28.612   1.149
44734W        W17060   1.437  22.571  14.476
44735W        W17061  36.233   1.471  13.801
44736W        W17062   3.535  10.542  14.275
44737W        W17063  16.154  32.970   1.950
44738W        W17064  29.089  22.318  14.576
44739W        W17065  15.627  23.169  14.799
44740W        W17066   1.749  37.601   0.680
44741W        W17067  12.772  13.427  12.203
44742W        W17068  13.038   6.876   2.150
44743W        W17069  11.687   3.940   4.565
44744W        W17070  30.495  25.109   2.386
44745W        W17071  39.788  10.226   1.422
44746W        W17072   1.611  44.737  11.549
44747W        W17073  31.916  30.225   0.796
44748W        W17074  24.593   9.250   4.895
44749W        W17075  39.832   7.887   4.532
44750W        W17076  24.234   9.168   3.563
44751W        W17077  37.882  36.848   1.483
44752W        W17078  40.125   2.797  11.484
44753W        W17079  10.122  18.684   2.366
44754W        W17080   6.441  33.236  12.003
44755W        W17081  24.221   1.289   0.379
44756W        W17082  33.609  27.765  10.333
44757W        W17083  25.645  24.585   1.962
44758W        W17084  17.707   1.297  13.980
44759W        W17085  39.799  38.848  14.045
44760W        W17086  14.168  36.358   4.605
44761W        W17087   3.355  33.933   2.570
44762W        W17088  20.684  44.804   0.799
44763W        W17089  38.592  22.603   3.213
44764W        W17090  23.944  39.704   3.473
44765W        W17091  28.243   5.978   3.876
44766W        W17092  42.217  11.538   2.866
44767W        W17093  28.172  19.698   3.336
44768W        W17094  27.427  27.571   4.068
44769W        W17095  35.346  31.538  13.399
44770W        W17096  18.307  16.951   0.613
44771W        W17097   0.062   7.664   3.253
44772W        W17098  41.801   3.983  10.544
44773W        W17099  27.499  32.564  10.616
44774W        W17100  29.872   2.776   4.136
44775W        W17101  28.233  21.425   4.987
44776W        W17102   1.253   9.971   3.233
44777W        W17103  10.945  41.963  10.753
44778W        W17104   0.819   5.884  13.568
44779W        W17105  16.655  30.822  14.334
44780W        W17106  27.662  24.683  12.496
44781W        W17107  43.016  43.289  14.457
44782W        W17108  41.255  10.161  11.082
44783W        W17109  43.968  31.364   0.336
44784W        W17110  37.834   0.358  11.618
44785W        W17111  31.581   6.673  13.975
44786W        W17112  15.778  36.061  11.144
44787W        W17113  34.494   6.664   1.640
44788W        W17114   5.430  28.223  14.847
44789W        W17115  23.474  10.129  14.854
44790W        W17116  44.218  13.309  13.660
44791W        W17117   7.963  41.185  10.740
44792W        W17118  37.334  23.405   4.226
44793W        W17119   4.451   1.998   0.756
44794W        W17120   6.248  36.098  11.649
44795W        W17121  15.405  37.561   1.844
44796W        W17122   4.684   7.242  12.526
44797W        W17123  44.869  26.441  14.948
44798W        W17124  16.621   1.959   3.888
44799W        W17125  13.908  12.662  14.368
44800W        W17126  13.075  12.145   2.858
44801W        W17127  17.673  32.014  13.895
44802W        W17128  41.003   1.850  10.583
44803W        W17129  15.832  17.315   1.164
44804W        W17130  41.053   5.710  13.545
44805W        W17131  30.429  30.653  11.537
44806W        W17132  42.512   7.819  13.555
44807W        W17133   4.640  16.202  10.907
44808W        W17134  14.081   4.433  14.493
44809W        W17135  15.336  21.013   2.874
44810W        W17136  31.541  16.602  12.664
44811W        W17137  19.306  19.806   2.362
44812W        W17138  29.469  19.320   1.375
44813W        W17139  33.979  13.884   0.929
44814W        W17140  20.967  41.579   3.212
44815W        W17141   9.130  42.366  11.378
44816W        W17142  17.147   0.281  13.621
44817W        W17143  29.447  32.063  13.367
44818W        W17144   0.803   9.917  14.222
44819W        W17145  37.862  28.418  12.667
44820W        W17146   1.323   9.578  12.053
44821W        W17147  37.096   9.502   4.552
44822W        W17148  15.221  21.338  13.798
44823W        W17149  32.695   1.913  11.680
44824W        W17150  18.491  15.599   1.423
44825W        W17151   4.159  14.101   2.377
44826W        W17152  36.904  11.282   4.202
44827W        W17153   6.010  17.747   1.511
44828W        W17154  20.567   1.694  14.118
44829W        W17155  26.380  40.919  12.056
44830W        W17156  15.930   1.695  14.920
44831W        W17157  27.888  25.636   3.265
44832W        W17158  35.423  26.089   2.661
44833W        W17159  19.580   3.472   0.533
44834W        W17160  27.544  15.881  13.442
44835W        W17161  34.073  11.519   2.300
44836W        W17162  27.979  35.636   4.396
44837W        W17163   9.739  33.530  14.763
44838W        W17164  20.735   0.591  11.626
44839W        W17165  34.809  44.229  13.976
44840W        W17166  18.517  38.940   1.737
44841W        W17167  37.483  20.101  12.420
44842W        W17168  17.619  44.808   3.160
44843W        W17169  34.657  10.825   2.673
44844W        W17170  21.944  15.275   0.425
44845W        W17171  41.522   4.993   0.706
44846W        W17172   1.653   7.378  14.599
44847W        W17173  28.794  35.872   3.038
44848W        W17174  42.683  27.040   1.389
44849W        W17175  42.079   6.432   3.817
44850W        W17176  33.553  15.985  10.181
44851W        W17177  35.531   2.717   4.569
44852W        W17178   7.431  31.548  14.527
44853W        W17179  19.079   5.651   1.934
44854W        W17180  17.292  39.878   0.242
44855W        W17181  35.144  23.123  12.601
44856W        W17182   0.405  32.088  13.863
44857W        W17183  10.378  31.969  14.087
44858W        W17184  28.433   2.015   1.438
44859W        W17185  17.914  22.636  11.208
44860W        W17186  39.034   6.736   2.376
44861W        W17187  11.824  11.303  11.082
44862W        W17188   6.709  22.374   4.226
44863W        W17189   3.487  16.609  11.604
44864W        W17190  33.820   5.452   2.861
44865W        W17191  22.173   4.180  12.568
44866W        W17192  44.985   1.119  11.787
44867W        W17193  30.740  39.111   4.126
44868W        W17194  36.520  19.107  13.318
44869W        W17195  15.708   3.392  11.289
44870W        W17196  25.977  14.544   4.233
44871W        W17197  18.428  42.023  13.328
44872W        W17198   6.261  40.432  11.565
44873W        W17199   4.240  40.763  14.821
44874W        W17200  34.409   9.113  13.463
44875W        W17201   7.323  31.288  11.937
44876W        W17202  14.773  44.819  14.081
44877W        W17203  18.016  26.222   1.296
44878W        W17204  38.874   8.614   4.915
44879W        W17205  43.454  39.853   4.183
44880W        W17206  24.400  13.298   2.864
44881W        W17207  20.933   0.750   1.310
44882W        W17208  11.714  10.228   2.458
44883W        W17209  40.064  13.573  12.424
44884W        W17210   5.484  16.824   0.977
44885W        W17211  10.795  19.500   2.535
44886W        W17212  20.006  21.521   1.855
44887W        W17213  24.242  41.443   1.799
44888W        W17214   0.504  32.328  12.021
44889W        W17215  20.080  28.441   4.462
44890W        W17216  34.380  23.290  12.471
44891W        W17217  25.360  19.800   1.170
44892W        W17218   5.227  35.102  10.202
44893W        W17219  38.670  42.371   9.655
44894W        W17220   7.828  20.215  13.530
44895W        W17221  39.371  38.281  10.134
44896W        W17222  28.378  12.726  10.438
44897W        W17223  35.389  32.057   2.675
44898W        W17224  39.582  16.598   2.392
44899W        W17225   3.227   4.459   0.322
44900W        W17226  12.103  16.370   2.184
44901W        W17227  37.981  15.201  11.186
44902W        W17228  31.173  38.828  13.093
44903W        W17229  39.494  15.928  13.448
44904W        W17230   2.421  27.189   3.676
44905W        W17231  17.288   8.788  12.148
44906W        W17232  30.767  26.954  14.115
44907W        W17233  29.017  37.258   2.426
44908W        W17234   6.883   1.798  13.767
44909W        W17235  19.030  36.964  12.524
44910W        W17236  28.425  10.801  11.779
44911W        W17237   5.940  27.470   4.506
44912W        W17238  16.834  24.092  14.037
44913W        W17239  10.798  24.537   4.348
44914W        W17240   3.879  14.254  13.333
44915W        W17241  12.933   0.903   4.898
44916W        W17242  41.985  22.257   2.317
44917W        W17243  19.677  34.884  11.249
44918W        W17244  34.480   7.244  10.642
44919W        W17245  26.852   4.707   3.232
44920W        W17246   9.371  36.501  13.610
44921W        W17247   2.900  22.235  12.761
44922W        W17248  22.512  37.403  11.199
44923W        W17249  20.083   3.930  13.379
44924W        W17250  22.778  25.127   5.013
44925W        W17251  43.568  42.401  11.128
44926W        W17252   6.774   5.317  13.856
44927W        W17253  25.113  15.716   5.193
44928W        W17254  26.543   6.677   2.429
44929W        W17255   0.504  37.435   0.819
44930W        W17256   0.486  15.139   1.910
44931W        W17257   7.820  13.927  11.077
44932W        W17258  37.193   2.715  10.831
44933W        W17259  39.453  32.212  14.603
44934W        W17260  32.014  42.990   4.589
44935W        W17261  16.829  28.088  13.486
44936W        W17262  40.906  40.397   1.999
44937W        W17263  19.498  43.424   3.337
44938W        W17264  31.923   4.780   1.765
44939W        W17265   5.148  16.182  14.565
44940W        W17266  43.271   4.617  10.942
44941W        W17267  34.169   0.713  12.958
44942W        W17268  35.614  23.028   1.892
44943W        W17269  30.103  35.594  11.619
44944W        W17270  16.875  31.454  11.641
44945W        W17271   3.217  12.114  14.527
44946W        W17272  41.211  18.705   4.559
44947W        W17273  32.853   9.304  11.039
44948W        W17274  26.923  27.306   2.343
44949W        W17275  15.794   5.986  12.843
44950W        W17276  40.272  17.706   2.414
44951W        W17277  31.473  19.310   3.746
44952W        W17278  17.257   2.729  14.049
44953W        W17279  43.181  23.089   3.776
44954W        W17280  35.335   1.260   2.871
44955W        W17281  38.532  36.613  13.472
44956W        W17282   1.809  20.536   0.814
44957W        W17283  32.516  18.790  12.838
44958W        W17284  37.841   6.687   0.768
44959W        W17285  23.354  38.646  10.303
44960W        W17286  27.837  42.939  11.949
44961W        W17287  35.135  39.195  10.347
44962W        W17288  31.579  11.726  11.571
44963W        W17289  18.489  14.744   2.726
44964W        W17290  15.802  19.105  14.418
44965W        W17291  44.621   0.486   1.265
44966W        W17292  33.717   6.445   4.583
44967W        W17293  16.274  34.993  11.604
44968W        W17294   9.676  20.576   0.869
44969W        W17295  38.961  41.260   0.906
44970W        W17296  33.482  25.629   3.782
44971W        W17297  22.141  21.930   3.780
44972W        W17298  13.794  44.147   1.982
44973W        W17299  19.866  34.938  12.116
44974W        W17300  30.376  41.975  12.515
44975W        W17301   0.491  21.186  10.742
44976W        W17302  37.372   0.250   1.803
44977W        W17303   5.010  43.893   1.077
44978W        W17304  27.613  14.390  13.547
44979W        W17305  37.685  31.740   5.153
44980W        W17306  28.867  18.638   0.564
44981W        W17307  35.508   4.555  13.811
44982W        W17308  22.774  41.899  14.320
44983W        W17309  23.939  10.785   0.297
44984W        W17310  15.808  34.638  11.051
44985W        W17311  41.876  20.148   1.326
44986W        W17312  29.562  11.338   4.167
44987W        W17313  43.335  28.222  10.245
44988W        W17314  22.163  44.259  13.913
44989W        W17315   2.957  41.086   2.326
44990W        W17316  21.082   2.802   3.189
44991W        W17317  14.668   3.076   9.870
44992W        W17318  13.400   0.907   4.661
44993W        W17319  38.613  19.555  14.067
44994W        W17320  19.323  33.626   3.120
44995W        W17321   3.330  14.461  11.602
44996W        W17322  39.769  15.083  14.415
44997W        W17323  43.628  42.876   2.789
44998W        W17324  12.422   7.446   1.636
44999W        W17325  35.099  29.689   1.307
45000W        W17326  42.385  14.256  14.927
45001W        W17327  15.208  25.707  10.824
45002W        W17328  35.846  37.552   4.538
45003W        W17329   2.223   6.402  14.952
45004W        W17330  15.229  36.822   2.187
45005W        W17331  21.763  36.009   0.543
45006W        W17332   8.412   1.370  14.233
45007W        W17333  31.779  43.693  14.870
45008W        W17334  39.449  39.089  14.378
45009W        W17335  15.982  11.272  13.546
45010W        W17336  37.961   2.093  10.891
45011W        W17337  12.829  35.997   3.368
45012W        W17338  26.950   2.786  14.370
45013W        W17339  19.548  25.194   2.267
45014W        W17340   4.209  11.605   3.320
45015W        W17341  21.519  31.172  12.881
45016W        W17342  35.102  11.866   4.162
45017W        W17343  31.032  31.669  12.038
45018W        W17344  23.044   7.482  10.756
45019W        W17345  24.072  43.984  10.729
45020W        W17346  22.755  14.754   1.807
45021W        W17347  24.425  26.175  10.418
45022W        W17348   2.054  12.040   4.160
45023W        W17349  21.775   6.164   2.243
45024W        W17350  14.321  12.771  14.046
45025W        W17351  33.783  13.337   0.959
45026W        W17352  31.390  29.072  13.876
45027W        W17353   9.670  38.946   3.232
45028W        W17354  23.912  38.320  10.551
45029W        W17355   2.780  36.180  13.596
45030W        W17356  33.503  34.269   0.117
45031W        W17357  10.753  40.046   0.930
45032W        W17358   3.916  28.504  14.014
45033W        W17359  13.307  39.682   0.759
45034W        W17360  22.697  28.452   1.989
45035W        W17361  10.185  28.022   4.056
45036W        W17362  44.001  24.518   1.447
45037W        W17363  39.903   4.826   4.847
45038W        W17364  33.993  24.464  11.537
45039W        W17365  10.124  15.822  11.229
45040W        W17366   6.928  30.976   0.341
45041W        W17367   4.445  16.286   1.799
45042W        W17368   7.815  39.622   1.932
45043W        W17369  37.470  19.370   4.413
45044W        W17370  19.552  19.030  14.353
45045W        W17371  38.918   8.900   2.674
45046W        W17372  10.437   7.016   2.818
45047W        W17373   8.813  39.075  12.892
45048W        W17374  41.901  32.706  14.051
45049W        W17375   5.774   8.162  13.035
45050W        W17376  44.182  10.702  13.506
45051W        W17377  38.533   0.505  13.787
45052W        W17378  14.090  33.776   3.764
45053W        W17379  19.431   5.330  14.057
45054W        W17380  12.883  31.057   3.097
45055W        W17381  44.194  33.336   3.547
45056W        W17382  30.560  25.995   2.309
45057W        W17383   8.493  29.098  14.781
45058W        W17384  42.868  24.488   2.723
45059W        W17385   7.893  26.591  13.494
45060W        W17386  15.724  11.140  10.874
45061W        W17387  15.686  30.421  11.567
45062W        W17388   6.801   9.849  14.143
45063W        W17389  27.579  40.339  11.875
45064W        W17390  38.619  18.517  11.429
45065W        W17391  32.302  11.116   2.623
45066W        W17392  10.847  18.993  13.902
45067W        W17393  21.483   1.736   1.372
45068W        W17394   8.708  12.058   1.334
45069W        W17395   9.177  27.113   4.340
45070W        W17396  12.726  26.423  13.481
45071W        W17397  15.159  20.209  10.521
45072W        W17398  22.050  22.034   1.403
45073W        W17399  35.625  31.617   2.845
45074W        W17400  27.028  31.375  14.020
45075W        W17401  42.488  42.329  11.465
45076W        W17402   0.373   0.866  11.997
45077W        W17403  26.622   0.045   3.214
45078W        W17404  12.230   4.131  14.374
45079W        W17405  19.018  21.731   4.756
45080W        W17406  43.231  35.947  14.026
45081W        W17407  19.362  32.577   5.012
45082W        W17408  12.329  31.509   1.298
45083W        W17409   2.225  33.693   3.538
45084W        W17410  15.622  37.299  12.351
45085W        W17411  10.008  30.769  12.008
45086W        W17412   7.711  42.824  12.198
45087W        W17413   5.222  23.472  14.009
45088W        W17414  21.543  34.947  10.711
45089W        W17415  14.528  44.075  14.754
45090W        W17416  10.959  34.596   5.610
45091W        W17417  16.794  39.622  10.909
45092W        W17418  37.521  21.626   4.541
45093W        W17419  32.915  36.517   1.759
45094W        W17420   5.033  34.941   2.157
45095W        W17421  20.045   5.922   0.924
45096W        W17422  33.320  27.638   1.413
45097W        W17423   4.900  36.024  12.853
45098W        W17424  42.716  23.277  10.807
45099W        W17425  41.397  42.411  13.856
45100W        W17426  14.770   5.455   2.440
45101W        W17427  36.869  17.021   1.339
45102W        W17428  10.299  23.108   2.276
45103W        W17429  15.299  22.533   1.219
45104W        W17430  44.241   5.247   2.633
45105W        W17431  16.057  40.252  10.602
45106W        W17432  23.648  13.953  14.365
45107W        W17433  28.568   2.909   2.752
45108W        W17434  44.813  35.550   0.538
45109W        W17435  10.342  12.876  14.413
45110W        W17436  12.563  35.550   0.437
45111W        W17437  43.800   8.183   2.275
45112W        W17438  22.298  10.743  13.572
45113W        W17439   4.249   5.794  14.700
45114W        W17440  17.655   2.149   2.894
45115W        W17441  34.370  14.561  13.402
45116W        W17442  29.526  44.958  14.870
45117W        W17443  23.801   9.713   4.636
45118W        W17444  32.272  26.478  11.492
45119W        W17445  31.437  41.298  12.917
45120W        W17446   2.351  17.526  10.377
45121W        W17447   1.118  19.974   1.880
45122W        W17448  17.639  10.294   4.219
45123W        W17449  34.137  23.661  13.994
45124W        W17450   3.335  13.177   0.847
45125W        W17451  30.983  44.051  13.555
45126W        W17452   7.868  14.713  12.220
45127W        W17453  25.763  14.082  13.799
45128W        W17454  22.664  36.878   4.581
45129W        W17455  25.773  13.118  12.350
45130W        W17456  41.976   9.476   2.154
45131W        W17457  31.341  40.729   0.760
45132W        W17458  25.186  26.111   0.392
45133W        W17459  29.918   2.174   1.508
45134W        W17460  40.985  35.504   3.448
45135W        W17461  28.354  21.018  10.928
45136W        W17462  32.182  16.090   0.351
45137W        W17463   8.456  16.494  11.608
45138W        W17464  20.495  24.184   1.847
45139W        W17465  21.303  16.864   0.056
45140W        W17466   5.832  15.337  10.620
45141W        W17467   2.309  10.716  13.761
45142W        W17468  28.490  18.528  14.678
45143W        W17469  36.878  22.538  12.907
45144W        W17470  44.152  11.637  11.162
45145W        W17471  37.867  35.955   0.467
45146W        W17472  18.611   5.175   3.571
45147W        W17473   0.052  22.704   3.254
45148W        W17474  37.357  39.308  13.507
45149W        W17475   4.424  30.657   2.111
45150W        W17476  13.436  14.400   3.845
45151W        W17477  29.669  43.456   3.321
45152W        W17478   3.913   9.937   3.695
45153W        W17479  17.564  31.526  14.031
45154W        W17480  41.046  14.694   1.710
45155W        W17481  13.379  24.288   2.953
45156W        W17482   8.682  41.231   0.836
45157W        W17483  22.436  38.066   3.468
45158W        W17484  20.605  18.035  12.435
45159W        W17485  31.967  21.520   1.791
45160W        W17486   8.389  37.649  11.090
45161W        W17487  26.452  24.733  10.485
45162W        W17488  28.595  15.808   0.417
45163W        W17489   8.666  38.990   3.400
45164W        W17490  39.301  10.474  11.149
45165W        W17491   9.849  19.768  11.695
45166W        W17492  13.762   5.639   4.536
45167W        W17493  28.617   1.466   1.228
45168W        W17494  15.076  44.374  12.056
45169W        W17495  16.234  41.231  12.394
45170W        W17496  15.778  14.078   2.271
45171W        W17497  32.670  42.903  14.370
45172W        W17498  43.607  27.931  11.010
45173W        W17499  37.005  26.734   3.282
45174W        W17500  33.551  28.717   2.653
45175W        W17501   6.173  36.036   0.764
45176W        W17502   4.246  13.509   3.369
45177W        W17503  30.300  10.329  10.471
45178W        W17504   9.093  24.196  11.163
45179W        W17505  37.803  15.171  12.842
45180W        W17506  21.553   4.176  13.367
45181W        W17507  16.737  22.530  13.148
45182W        W17508  37.900   5.242  12.329
45183W        W17509   0.030   1.582  11.591
45184W        W17510   0.463  34.556   4.124
45185W        W17511   0.006  33.508   1.846
45186W        W17512  20.225  22.073   0.974
45187W        W17513  43.249   2.722   2.869
45188W        W17514   1.117  12.613   2.837
45189W        W17515  41.736  42.538  11.891
45190W        W17516  16.715   0.025   0.207
45191W        W17517  14.182  23.263   1.738
45192W        W17518  24.963   3.090   3.801
45193W        W17519  15.736  12.145  10.724
45194W        W17520  42.594  25.177  13.082
45195W        W17521  30.382  18.208   1.936
45196W        W17522  20.727  10.347  10.972
45197W        W17523   7.699  31.902   2.864
45198W        W17524  38.838  43.930  10.484
45199W        W17525  26.953  28.829   3.711
45200W        W17526   1.305  21.344  11.653
45201W        W17527  12.112  37.024  14.733
45202W        W17528   0.853  22.090   4.989
45203W        W17529  42.793   7.351   4.732
45204W        W17530   2.946   0.453   2.166
45205W        W17531  22.584   8.949  13.126
45206W        W17532  25.253  36.458   1.772
45207W        W17533   3.653  38.883   1.429
45208W        W17534  39.089  21.782   3.647
45209W        W17535  16.495  32.186   0.273
45210W        W17536  26.075  32.893   0.056
45211W        W17537  34.841  20.185  14.610
45212W        W17538  11.239  31.043   0.514
45213W        W17539  15.080  21.341   3.166
45214W        W17540  30.718  43.944   2.303
45215W        W17541  11.793   1.243  10.630
45216W        W17542  14.279  12.775  10.792
45217W        W17543  16.728  18.341   0.523
45218W        W17544  11.173  39.794  11.855
45219W        W17545  14.920  33.501  12.233
45220W        W17546   8.379  32.530  10.730
45221W        W17547   4.900  27.817  11.144
45222W        W17548  39.265  10.656  12.418
45223W        W17549  38.663  27.105   2.575
45224W        W17550   1.248  10.886   4.686
45225W        W17551  11.924  33.048  14.563
45226W        W17552  24.109   9.109  14.695
45227W        W17553  39.230  19.704   1.719
45228W        W17554  31.495  15.734  12.311
45229W        W17555  10.175  17.155  12.384
45230W        W17556  42.182  43.824   1.202
45231W        W17557  42.107  16.558   0.265
45232W        W17558  21.752  40.799   1.783
45233W        W17559  35.629  19.515   0.219
45234W        W17560   8.409  29.666   3.155
45235W        W17561  35.439  29.122  12.903
45236W        W17562   9.548  25.182   3.526
45237W        W17563  28.367  16.082  12.039
45238W        W17564  10.339   3.135   3.801
45239W        W17565   3.372  42.002  12.904
45240W        W17566  15.668  17.611   1.942
45241W        W17567  41.855   7.973   2.624
45242W        W17568  10.194  32.759   1.754
45243W        W17569  35.433  15.404   2.369
45244W        W17570  34.804   8.841  13.244
45245W        W17571   4.991   8.241  11.291
45246W        W17572  43.531  44.094   0.695
45247W        W17573   8.723  29.466   3.521
45248W        W17574  16.186  10.391  10.526
45249W        W17575   6.292  21.589   1.706
45250W        W17576  42.987  35.760   4.144
45251W        W17577  29.499   9.610   4.266
45252W        W17578  39.494   2.371   1.435
45253W        W17579  14.595  44.240   0.264
45254W        W17580   0.163  33.492   3.788
45255W        W17581  43.157   2.208  13.628
45256W        W17582  12.606  26.220  12.449
45257W        W17583   1.188  40.454  11.011
45258W        W17584  28.404  35.897  14.221
45259W        W17585  22.919  14.137   2.775
45260W        W17586  10.853  27.872   3.592
45261W        W17587  21.636   4.241   2.621
45262W        W17588   0.809  19.000   1.059
45263W        W17589  38.425   9.175   3.843
45264W        W17590  11.926   8.212   0.381
45265W        W17591   0.512   4.669  10.666
45266W        W17592  31.371  26.221  14.567
45267W        W17593  20.601  16.604   1.309
45268W        W17594   4.395  10.901   0.321
45269W        W17595  12.072  30.926   2.864
45270W        W17596  13.456  24.728   2.655
45271W        W17597   7.457  19.521  14.003
45272W        W17598  23.566  26.181  12.499
45273W        W17599  38.840  22.448   5.117
45274W        W17600  23.992  25.783  13.111
45275W        W17601  17.150  21.286  14.877
45276W        W17602  12.407  32.128  11.459
45277W        W17603  12.873  21.458   1.273
45278W        W17604   6.228  27.740  13.025
45279W        W17605  35.950  25.033  12.060
45280W        W17606  23.999  12.084  14.397
45281W        W17607  41.509  14.827  11.568
45282W        W17608  37.464  11.589  10.157
45283W        W17609  20.237  34.340   1.408
45284W        W17610  19.064  36.546  13.973
45285W        W17611  33.221   9.122  14.327
45286W        W17612   8.593  17.563   2.046
45287W        W17613  38.943  42.797   1.153
45288W        W17614  13.136  25.063   0.858
45289W        W17615  23.304  22.463   2.391
45290W        W17616  20.642  38.456  13.822
45291W        W17617  11.915   2.897   0.481
45292W        W17618  29.913  39.954  11.952
45293W        W17619  34.867  15.263   1.835
45294W        W17620   6.597  30.510  14.053
45295W        W17621  22.711  23.774   5.023
45296W        W17622  17.673  24.293  13.867
45297W        W17623   9.434   7.894   1.158
45298W        W17624  18.756  13.305   0.078
45299W        W17625   4.726  28.418  10.494
45300W        W17626  24.261  24.993  13.377
45301W        W17627   4.252  23.696  13.367
45302W        W17628  18.311  35.539   3.765
45303W        W17629  24.483  24.928   4.254
45304W        W17630  17.680  14.227  14.854
45305W        W17631  33.984  18.733   5.075
45306W        W17632  44.368  39.456   1.858
45307W        W17633  24.533  19.851  12.561
45308W        W17634  43.891  36.659  12.312
45309W        W17635  28.867  17.682   0.963
45310W        W17636  12.173  23.533  12.968
45311W        W17637  13.275  29.687  11.116
45312W        W17638   1.838  20.701   4.682
45313W        W17639   6.653  31.402   0.328
45314W        W17640  40.504   0.997  10.705
45315W        W17641  27.955  20.444   1.895
45316W        W17642  24.749   7.715   2.143
45317W        W17643   0.455   3.536  11.393
45318W        W17644  36.740  16.208   1.333
45319W        W17645   6.673  17.829   1.885
45320W        W17646   0.093  23.151   0.150
45321W        W17647  14.280  10.362   4.125
45322W        W17648  22.702  40.529   3.008
45323W        W17649  38.850  42.446  13.347
45324W        W17650  22.909  27.948  14.582
45325W        W17651  13.565  24.404  13.993
45326W        W17652  18.912  13.009  12.672
45327W        W17653  33.627  22.967   4.249
45328W        W17654   8.635  30.637   3.172
45329W        W17655   9.948  15.702  14.112
45330W        W17656   1.806  36.410  10.722
45331W        W17657  41.254  44.733  12.844
45332W        W17658  12.641  26.815   0.408
45333W        W17659  14.940   4.562   2.316
45334W        W17660  23.143   8.360   1.384
45335W        W17661  41.122  29.961  13.400
45336W        W17662  10.785  43.565  10.686
45337W        W17663  30.139  14.734  12.571
45338W        W17664  10.738  44.431  12.676
45339W        W17665  41.430  25.655   4.578
45340W        W17666  31.830  38.280   0.535
45341W        W17667   3.646  15.704  11.104
45342W        W17668  30.186   8.290  14.350
45343W        W17669  16.177  36.083  14.330
45344W        W17670  13.201  44.661  12.451
45345W        W17671  28.987  44.922   1.921
45346W        W17672   0.566   1.040   4.143
45347W        W17673  23.612  19.073  12.996
45348W        W17674  28.962  41.288   3.884
45349W        W17675   9.905  21.763   2.897
45350W        W17676  21.691  18.522  14.417
45351W        W17677  41.512   8.366   2.522
45352W        W17678   2.757  16.302  12.591
45353W        W17679   5.496  39.825   1.872
45354W        W17680  33.702  14.352   1.748
45355W        W17681  40.122  11.774  13.537
45356W        W17682  20.914  31.416  13.852
45357W        W17683  30.436   1.193  10.695
45358W        W17684  38.635   3.661  14.032
45359W        W17685  18.038  26.547   2.313
45360W        W17686  15.603  16.785  13.965
45361W        W17687  44.411  35.794   0.890
45362W        W17688  29.397   1.208  11.572
45363W        W17689  41.382   9.377   4.291
45364W        W17690  23.667  41.352   4.463
45365W        W17691   8.235   6.971   0.998
45366W        W17692  16.508  13.157  14.872
45367W        W17693  34.092  37.978  14.787
45368W        W17694  40.295  18.959   1.959
45369W        W17695  40.526  39.773   2.641
45370W        W17696  21.550  34.919   1.674
45371W        W17697  33.098  12.719   4.953
45372W        W17698  44.302  21.612   4.642
45373W        W17699  32.990  42.318  14.849
45374W        W17700  19.683  26.420  13.770
45375W        W17701  31.461  33.527   2.156
45376W        W17702  17.795   6.708   1.419
45377W        W17703  42.385  22.242  11.691
45378W        W17704  13.808  18.873   1.373
45379W        W17705  21.061  37.654  13.995
45380W        W17706  43.932  12.124  14.032
45381W        W17707  26.165   8.949   4.669
45382W        W17708   6.187  31.030  11.090
45383W        W17709   3.518  38.141   0.715
45384W        W17710  17.565   2.026  12.647
45385W        W17711  24.688  22.077   3.494
45386W        W17712  43.359  16.132  13.910
45387W        W17713   3.719  17.678  10.970
45388W        W17714  30.360  19.422  11.224
45389W        W17715  27.527  19.249   4.663
45390W        W17716  31.822  16.609  14.456
45391W        W17717   8.672   9.759  13.075
45392W        W17718  29.193  38.398   1.478
45393W        W17719  15.648  40.567  12.870
45394W        W17720   2.743  36.454   2.259
45395W        W17721  33.026  31.189  12.053
45396W        W17722  28.689   4.191  13.854
45397W        W17723  37.933  14.619  14.345
45398W        W17724   2.443  33.895   2.213
45399W        W17725  43.483  16.776  14.330
45400W        W17726  30.923  31.332  11.670
45401W        W17727  20.126   8.343   1.888
45402W        W17728   2.884  13.110  14.263
45403W        W17729  27.383   3.448  11.314
45404W        W17730  35.540   6.865   0.117
45405W        W17731  32.598  40.165  14.417
45406W        W17732  35.928   7.440  14.943
45407W        W17733  22.098  15.634  10.677
45408W        W17734  15.786  27.026   1.291
45409W        W17735  44.846   8.889  11.585
45410W        W17736   3.160  36.188  11.052
45411W        W17737  38.907  22.642   4.622
45412W        W17738  13.364   2.950  14.487
45413W        W17739  30.642  32.494  14.259
45414W        W17740  27.137  39.391  11.212
45415W        W17741  43.691  15.116  13.359
45416W        W17742   0.973   0.964   3.330
45417W        W17743  16.788  31.663  14.676
45418W        W17744  41.392  24.661   0.327
45419W        W17745  31.584   7.746   3.294
45420W        W17746   8.362  34.890   3.248
45421W        W17747  29.392  28.927  12.954
45422W        W17748  21.642  13.838   1.329
45423W        W17749  28.375  33.190  13.389
45424W        W17750  24.868  32.182   4.073
45425W        W17751  44.493  30.033  13.064
45426W        W17752   9.762  14.389  11.991
45427W        W17753  21.093  10.584  13.464
45428W        W17754   0.516  19.216  13.855
45429W        W17755  26.654  18.117  11.284
45430W        W17756  19.688  22.967   2.482
45431W        W17757  18.769  29.993  13.915
45432W        W17758  30.572  30.899   2.139
45433W        W17759  29.106  40.067   0.517
45434W        W17760  35.077  17.976  10.263
45435W        W17761   3.093  34.463  11.948
45436W        W17762  33.820  31.543   1.541
45437W        W17763  28.283  22.986   4.836
45438W        W17764  16.093   3.959  12.520
45439W        W17765  40.908  13.002  14.931
45440W        W17766  25.414   0.001   0.745
45441W        W17767  32.659  44.807   4.906
45442W        W17768  42.310  35.920   2.201
45443W        W17769  37.170  32.963  12.261
45444W        W17770  19.211  26.629   4.195
45445W        W17771  29.875  12.768  13.774
45446W        W17772  34.422  20.345  10.950
45447W        W17773  34.082  21.542   3.205
45448W        W17774  23.455   7.349  12.940
45449W        W17775  36.465   6.956  11.082
45450W        W17776   6.925   0.025   4.287
45451W        W17777  25.048  28.569  14.764
45452W        W17778  32.960  29.844  14.161
45453W        W17779  28.467  42.752   1.307
45454W        W17780  32.960   7.668  11.542
45455W        W17781  17.110   0.735   1.390
45456W        W17782  40.614   3.364   2.251
45457W        W17783   4.884  21.228   5.172
45458W        W17784   2.295  10.130  13.292
45459W        W17785   0.683   3.883  13.355
45460W        W17786   7.167  29.075  12.388
45461W        W17787   7.273  42.382   3.151
45462W        W17788  38.865  16.678  12.192
45463W        W17789   0.878  25.483   4.790
45464W        W17790  17.053  18.043  12.403
45465W        W17791  27.476  26.933   3.759
45466W        W17792  15.552  42.288   3.265
45467W        W17793   4.943  36.058   1.309
45468W        W17794  19.824  43.499   0.700
45469W        W17795  28.139  14.256   2.665
45470W        W17796  27.916  25.651   0.398
45471W        W17797  10.151   4.129   0.187
45472W        W17798   5.465  15.433  12.973
45473W        W17799  26.130  37.059   1.691
45474W        W17800  31.185  41.203  13.821
45475W        W17801   9.535  18.203   5.011
45476W        W17802   7.196  19.250  11.124
45477W        W17803  17.066  22.741   2.388
45478W        W17804  41.881  23.270   1.492
45479W        W17805   0.761   2.670   0.434
45480W        W17806  13.680  20.839   1.878
45481W        W17807  13.291  44.702   2.379
45482W        W17808   9.193  25.176   0.905
45483W        W17809   9.311  26.485   4.124
45484W        W17810  21.315  30.696  14.440
45485W        W17811  39.753   3.330  13.533
45486W        W17812  17.673  22.480  14.481
45487W        W17813  40.092  14.516  13.397
45488W        W17814  36.579   3.696  13.835
45489W        W17815   8.546   9.769  11.556
45490W        W17816  13.653  42.366   2.636
45491W        W17817  30.636  28.358  12.085
45492W        W17818  21.600  21.342  12.539
45493W        W17819  32.381   9.646   0.749
45494W        W17820   9.102   1.523   2.271
45495W        W17821  21.686  34.586  13.435
45496W        W17822  24.991  17.484  13.897
45497W        W17823  41.496  25.561   3.257
45498W        W17824  10.406   2.781  13.403
45499W        W17825  16.941  27.572   0.027
45500W        W17826  19.603  21.947   3.211
45501W        W17827  27.878  42.635  11.525
45502W        W17828  42.321  15.493   2.124
45503W        W17829  23.746   1.406   4.606
45504W        W17830  30.921  20.982  14.798
45505W        W17831  28.589  42.219  11.089
45506W        W17832  28.210   2.212   1.859
45507W        W17833   3.932  35.249   0.281
45508W        W17834  26.964  26.858   3.671
45509W        W17835  40.483  13.230  14.760
45510W        W17836  19.128  26.298  12.081
45511W        W17837  20.981  42.065  11.161
45512W        W17838  44.923   8.414   2.911
45513W        W17839  24.992  31.697   4.707
45514W        W17840  31.767   7.956   1.446
45515W        W17841  11.412  36.574  12.016
45516W        W17842  34.960  34.946  12.829
45517W        W17843  20.976  17.812   0.164
45518W        W17844  28.795   2.428   2.645
45519W        W17845  29.281  11.747   1.841
45520W        W17846  27.463   2.762  11.187
45521W        W17847  28.571  11.162   1.978
45522W        W17848  13.389  16.570  11.211
45523W        W17849   1.648  44.440   2.874
45524W        W17850  38.963  15.764   1.628
45525W        W17851  26.883  24.778  14.558
45526W        W17852  11.354   5.400  10.655
45527W        W17853  33.182   8.158  11.524
45528W        W17854  11.088  13.125  12.091
45529W        W17855  30.042  15.805   4.314
45530W        W17856  13.812  20.178  12.611
45531W        W17857  44.407  38.442   1.756
45532W        W17858  30.033   1.797  14.726
45533W        W17859  16.579  19.456  13.916
45534W        W17860  39.272  20.810   1.171
45535W        W17861   9.667   2.285  12.979
45536W        W17862   7.267   2.866  10.762
45537W        W17863  34.430  21.428   0.026
45538W        W17864   2.952  14.284   1.266
45539W        W17865   3.824   7.704  14.993
45540W        W17866   6.438  10.105  14.902
45541W        W17867  37.616   2.048  10.438
45542W        W17868  43.560   3.894   0.840
45543W        W17869  19.542  12.282  14.826
45544W        W17870  36.622  40.169   1.283
45545W        W17871  41.105  31.738   3.574
45546W        W17872  43.811  14.582   0.921
45547W        W17873   4.385  38.953  11.575
45548W        W17874  41.732  28.021   1.586
45549W        W17875  12.881  27.521   4.169
45550W        W17876  40.277   2.896   0.211
45551W        W17877  44.412  35.519  13.582
45552W        W17878  32.415  26.814  14.028
45553W        W17879  23.614   7.851   4.604
45554W        W17880   9.549  13.206   0.634
45555W        W17881  11.336  36.452  14.863
45556W        W17882  33.919   4.274   0.485
45557W        W17883  18.860  31.060  14.850
45558W        W17884  31.350  29.989   0.038
45559W        W17885  19.670  20.730   1.430
45560W        W17886  26.592  35.963  12.124
45561W        W17887  12.407  21.256   4.659
45562W        W17888  36.548  10.309   0.776
45563W        W17889  23.972   7.433  11.686
45564W        W17890   6.010  27.224   1.262
45565W        W17891  25.734  30.945   3.925
45566W        W17892   7.173   3.417   2.997
45567W        W17893  43.967  34.105   4.731
45568W        W17894  33.909   1.680  13.937
45569W        W17895  37.860   6.671  12.633
45570W        W17896  33.481  28.399  12.930
45571W        W17897  37.024  14.287  12.535
45572W        W17898  13.720   5.184   1.319
45573W        W17899  43.461  13.092  13.067
45574W        W17900  13.282  40.291  11.133
45575W        W17901  21.796   8.326   1.981
45576W        W17902  18.656   4.857  14.428
45577W        W17903   0.742  17.060  13.815
45578W        W17904  21.472  13.755  10.508
45579W        W17905  37.399  23.685   1.802
45580W        W17906  24.943   0.502   3.785
45581W        W17907  17.848  13.129  13.877
45582W        W17908  44.898  29.493  14.019
45583W        W17909  26.028  25.915  10.936
45584W        W17910   2.465  42.108   4.045
45585W        W17911   5.321  22.435  12.642
45586W        W17912  41.411  29.668   4.401
45587W        W17913  44.026  21.183  12.385
45588W        W17914  42.919  37.079  12.395
45589W        W17915   5.293  38.348   4.644
45590W        W17916  11.152  15.802  14.273
45591W        W17917  11.125  25.632  11.088
45592W        W17918  29.099  26.927   1.945
45593W        W17919  27.237  32.871   4.331
45594W        W17920   4.200  28.563  13.566
45595W        W17921   9.914  17.267   1.129
45596W        W17922  24.628   4.928  14.457
45597W        W17923  32.703   9.193   1.644
45598W        W17924  12.244  13.577   1.936
45599W        W17925  26.113  25.249   4.861
45600W        W17926   7.911  29.905   0.920
45601W        W17927   1.408  35.461  10.698
45602W        W17928  36.416  21.087   4.763
45603W        W17929  39.329   2.395  11.114
45604W        W17930  42.307  15.850  13.024
45605W        W17931  15.614  17.717   0.875
45606W        W17932  32.056  22.784  14.323
45607W        W17933  35.592  35.514   9.981
45608W        W17934  22.034  16.251  14.213
45609W        W17935  34.325  27.267   3.790
45610W        W17936   4.930  12.745   9.951
45611W        W17937  22.130  26.181   2.089
45612W        W17938  16.621  11.892  13.208
45613W        W17939  30.452   9.136   1.144
45614W        W17940  14.296  35.583   3.186
45615W        W17941  29.589  14.627  12.065
45616W        W17942  11.505  23.113  14.030
45617W        W17943  39.498  32.087  11.701
45618W        W17944  39.251   8.137  12.585
45619W        W17945  44.775  35.591   2.868
45620W        W17946  23.249  11.302   4.129
45621W        W17947  27.621  19.112   3.647
45622W        W17948  42.941  14.011  13.021
45623W        W17949  13.563  41.251   0.443
45624W        W17950  38.391  25.627   2.330
45625W        W17951  38.532  44.392  11.924
45626W        W17952   6.713  24.394  12.383
45627W        W17953  40.342  16.773  14.475
45628W        W17954  42.593  16.935  13.012
45629W        W17955  10.253   3.927   2.201
45630W        W17956  35.875  22.148  13.982
45631W        W17957  39.845   4.755   2.273
45632W        W17958  25.314  23.586  11.564
45633W        W17959  44.522   4.227   0.862
45634W        W17960  20.190  33.825   1.336
45635W        W17961  29.185   4.651  13.916
45636W        W17962  30.869   8.902   3.359
45637W        W17963  18.097  27.121   1.450
45638W        W17964  22.692  37.857   1.261
45639W        W17965  34.878   4.635  14.630
45640W        W17966  43.826  37.634  13.361
45641W        W17967  41.567  25.087  11.317
45642W        W17968  27.059   2.746  11.904
45643W        W17969  37.399   7.814  10.508
45644W        W17970  16.591  31.748  11.969
45645W        W17971  19.668  38.539  11.679
45646W        W17972  33.372  24.614  11.207
45647W        W17973  12.082   5.610  13.447
45648W        W17974  25.044   7.173   0.443
45649W        W17975  19.671  18.777   3.813
45650W        W17976   8.810  38.361   0.650
45651W        W17977  25.980  24.740   3.212
45652W        W17978   9.663  43.282   0.436
45653W        W17979  42.224  21.045  11.123
45654W        W17980   5.842  15.850   1.398
45655W        W17981  29.992   6.187   2.220
45656W        W17982  33.525   6.403  10.597
45657W        W17983   4.365   2.707   0.236
45658W        W17984  12.764   0.482   2.822
45659W        W17985  27.599  36.537   4.546
45660W        W17986  36.919   2.248   0.512
45661W        W17987  39.399  32.340   1.092
45662W        W17988  10.924  12.770  11.220
45663W        W17989  16.568  28.887  14.061
45664W        W17990   7.918  28.932  13.425
45665W        W17991  21.257  28.969  11.607
45666W        W17992  32.171  10.722   2.902
45667W        W17993  38.013  37.322  13.623
45668W        W17994  17.308  18.616  13.025
45669W        W17995  14.131  17.833   1.249
45670W        W17996  42.991  18.250   1.706
45671W        W17997  10.151  38.873   4.934
45672W        W17998  31.720  35.526  12.555
45673W        W17999   9.928  18.166  13.412
45674W        W18000   4.424  13.271  11.929
45675W        W18001  24.013  32.957  13.939
45676W        W18002  44.853  10.688  10.787
45677W        W18003  40.020  23.694  10.759
45678W        W18004  29.772  25.039  14.446
45679W        W18005  44.590  35.892  10.737
45680W        W18006  31.368  43.980   3.764
45681W        W18007   1.262  29.549  14.371
45682W        W18008  23.229  40.029  10.455
45683W        W18009   5.858  16.631   3.696
45684W        W18010   8.323  36.662   2.891
45685W        W18011  10.034   7.834   3.322
45686W        W18012  41.904  42.526  14.066
45687W        W18013  43.228  35.451   2.913
45688W        W18014   3.006  15.574  14.251
45689W        W18015   7.876  38.521   2.787
45690W        W18016   1.924  36.951  12.411
45691W        W18017   0.138  27.497   0.146
45692W        W18018  31.909  31.682   4.302
45693W        W18019  21.497   7.417   1.582
45694W        W18020   8.851  22.971   4.577
45695W        W18021   1.246   9.919   5.539
45696W        W18022  24.917  25.024   0.653
45697W        W18023  14.125   0.715  13.132
45698W        W18024   7.310  40.930  13.060
45699W        W18025  24.454  35.840   2.450
45700W        W18026  37.775  12.330   2.719
45701W        W18027  13.065   2.925   3.954
45702W        W18028  30.790  28.963  11.552
45703W        W18029  10.181  41.164   3.177
45704W        W18030  10.674  36.463  13.792
45705W        W18031  17.998  19.529  11.652
45706W        W18032  27.583  20.274   3.585
45707W        W18033  17.629  15.250   4.568
45708W        W18034   0.438  29.455   2.365
45709W        W18035  38.865  13.723  12.519
45710W        W18036   3.131  25.162   3.621
45711W        W18037  25.980  26.754  13.354
45712W        W18038   9.662   4.336  13.055
45713W        W18039  42.001  40.432  10.753
45714W        W18040  42.411   6.754   0.724
45715W        W18041   0.944  14.988  13.105
45716W        W18042  22.981  28.726  11.980
45717W        W18043  10.011  15.626  13.145
45718W        W18044  41.369  38.957  11.743
45719W        W18045  25.884  23.705   0.226
45720W        W18046   9.672   6.827   2.492
45721W        W18047   7.819   9.913  14.425
45722W        W18048   9.878  29.321   0.645
45723W        W18049   0.465  21.370   1.282
45724W        W18050   2.700   3.237  11.386
45725W        W18051   5.934   1.498  12.912
45726W        W18052  15.860  13.783  13.829
45727W        W18053  29.016   3.722   1.385
45728W        W18054  16.565  35.494  11.859
45729W        W18055  22.672  39.425  13.392
45730W        W18056  32.385  24.363   4.253
45731W        W18057  37.661  42.018   0.354
45732W        W18058  33.885  11.572  10.520
45733W        W18059   6.767  21.097   4.530
45734W        W18060  24.240  21.782  13.439
45735W        W18061  29.419  17.206   3.300
45736W        W18062  14.266  33.494   4.212
45737W        W18063  13.865  43.610  11.990
45738W        W18064  14.408  28.438   4.255
45739W        W18065  22.934  12.598  11.217
45740W        W18066  44.808  43.513  10.636
45741W        W18067  32.599  32.830   4.611
45742W        W18068  30.628  34.800   3.472
45743W        W18069  18.264  28.268  13.368
45744W        W18070  24.542  11.676   2.266
45745W        W18071  44.297  17.244  14.577
45746W        W18072  22.451  25.726  14.010
45747W        W18073   6.802  44.777  12.910
45748W        W18074  14.850  44.802  13.572
45749W        W18075  22.233  15.545   3.235
45750W        W18076  37.975  28.432  10.291
45751W        W18077   8.160  14.770  11.793
45752W        W18078   2.305  18.152   4.690
45753W        W18079  34.034  26.626   1.261
45754W        W18080   8.447  25.433   2.608
45755W        W18081  34.511   7.406   0.018
45756W        W18082  23.098  24.051   1.672
45757W        W18083  32.391  13.930   4.149
45758W        W18084  24.920  34.116   4.519
45759W        W18085  14.380  32.980   4.057
45760W        W18086  10.585  16.639   0.259
45761W        W18087  19.570  38.970  11.919
45762W        W18088  17.751   7.420  13.137
45763W        W18089  23.215  29.502   1.303
45764W        W18090   4.474  24.078   2.877
45765W        W18091   7.779  17.227  14.457
45766W        W18092  27.247  27.436   1.136
45767W        W18093  32.147  19.605   3.680
45768W        W18094   9.687  29.820   3.730
45769W        W18095  34.948   2.702   0.770
45770W        W18096  33.386  14.189   1.362
45771W        W18097   1.322  11.362  14.953
45772W        W18098   4.783  35.870   4.127
45773W        W18099   1.742  17.316   0.845
45774W        W18100  33.026  32.398   3.939
45775W        W18101  25.585  17.718   0.144
45776W        W18102  43.261  27.177  13.783
45777W        W18103   1.513  14.146  12.934
45778W        W18104  40.163  21.970   4.322
45779W        W18105   9.891  30.590   3.135
45780W        W18106  44.518   8.620   4.565
45781W        W18107  19.840   7.083  14.009
45782W        W18108  40.157  11.989   4.168
45783W        W18109  14.478  34.341  10.619
45784W        W18110   2.139  34.774  12.212
45785W        W18111  41.802   6.484  14.936
45786W        W18112  14.751   9.675   2.348
45787W        W18113  10.766  27.085   2.689
45788W        W18114  35.584   0.518  13.944
45789W        W18115  18.739  16.597   4.349
45790W        W18116   4.754  29.330   4.268
45791W        W18117  25.054  20.102  11.374
45792W        W18118  29.735  27.961   2.726
45793W        W18119  37.127  17.970   2.480
45794W        W18120  24.726  15.552   0.359
45795W        W18121  37.057  19.710   0.499
45796W        W18122  32.640  19.710   3.750
45797W        W18123  36.109  12.303  13.946
45798W        W18124  40.862  18.038   3.280
45799W        W18125  42.923  12.844  11.501
45800W        W18126   0.919   6.947  11.622
45801W        W18127   5.996  34.316   3.749
45802W        W18128  34.357  34.458   4.223
45803W        W18129  40.991  10.865   0.923
45804W        W18130   0.041  34.854   2.695
45805W        W18131  39.584  20.353   1.218
45806W        W18132  19.602  38.945  14.319
45807W        W18133   0.799   2.398   2.116
45808W        W18134  35.683  39.977  13.600
45809W        W18135  27.182  28.292  12.614
45810W        W18136  12.659  26.789  10.150
45811W        W18137  35.353  42.024   0.832
45812W        W18138  39.111  35.823   2.286
45813W        W18139  26.602  42.861  14.333
45814W        W18140  31.886   9.830   1.640
45815W        W18141  44.767  33.523   1.377
45816W        W18142   4.612   4.479   0.982
45817W        W18143   2.325  23.822  11.091
45818W        W18144  19.119   5.422   1.459
45819W        W18145  17.776  15.946  13.823
45820W        W18146  43.349  37.511  13.510
45821W        W18147   4.428  38.003   3.668
45822W        W18148  12.631  29.421   3.812
45823W        W18149  18.252  30.959  12.422
45824W        W18150  33.389  12.173   3.757
45825W        W18151  15.024  24.557  13.979
45826W        W18152  32.445  39.397   0.976
45827W        W18153   6.846  44.678   0.866
45828W        W18154  28.006  42.323  14.207
45829W        W18155  44.794  26.806  11.467
45830W        W18156  41.974   4.986   3.226
45831W        W18157   5.240  10.085  12.360
45832W        W18158  18.965  31.050   1.186
45833W        W18159   4.796  21.641  12.984
45834W        W18160   5.757  26.435  11.498
45835W        W18161  29.282  25.716   2.497
45836W        W18162  10.115  44.663   5.044
45837W        W18163   4.345  38.612   3.512
45838W        W18164  13.973   7.263   0.899
45839W        W18165   6.025   7.449  13.792
45840W        W18166   8.100  14.216   1.281
45841W        W18167  33.518  22.250   1.321
45842W        W18168  20.831   3.785   2.326
45843W        W18169  38.542  27.657  11.166
45844W        W18170  36.374  38.781   2.380
45845W        W18171  19.728  13.331  10.681
45846W        W18172  23.553   1.557  11.099
45847W        W18173  21.775  32.082  14.715
45848W        W18174   2.882  29.852   1.633
45849W        W18175  41.838  25.529   4.235
45850W        W18176   4.709  44.894   0.518
45851W        W18177  38.999   8.873   1.750
45852W        W18178  20.743  19.856   0.792
45853W        W18179   5.619  25.138  10.769
45854W        W18180   2.344  44.555  13.710
45855W        W18181  37.262   6.763  13.458
45856W        W18182  37.758  18.736   5.015
45857W        W18183  44.134   0.119  10.095
45858W        W18184  11.853   0.584  14.799
45859W        W18185  35.961  24.504  12.006
45860W        W18186   5.751  23.896   1.931
45861W        W18187  41.911   9.119  11.538
45862W        W18188  17.835  32.561   1.251
45863W        W18189  26.145  35.872   0.668
45864W        W18190  12.353  11.711   3.987
45865W        W18191  18.839   7.325  13.870
45866W        W18192  15.446  18.735   4.132
45867W        W18193  32.433  37.906  11.890
45868W        W18194  15.306  39.948   1.451
45869W        W18195  26.487  36.389  13.075
45870W        W18196  37.299  27.103  11.603
45871W        W18197  38.398  28.829   1.215
45872W        W18198  16.724  11.234   2.794
45873W        W18199  42.937   9.654  10.597
45874W        W18200   4.238  42.291  14.884
45875W        W18201   7.267  37.042   3.719
45876W        W18202  23.542  27.239  13.382
45877W        W18203  43.451   7.148   3.631
45878W        W18204   2.299  18.233   2.294
45879W        W18205  36.009  28.133   2.874
45880W        W18206  37.331  26.576  14.380
45881W        W18207  33.338   6.222  11.046
45882W        W18208  24.471   0.717  13.907
45883W        W18209  16.079  10.095   4.048
45884W        W18210  34.307  14.217  14.439
45885W        W18211  42.432  15.279   2.899
45886W        W18212  26.557  42.076  12.475
45887W        W18213  44.843  37.400   0.001
45888W        W18214  15.308  35.920   3.800
45889W        W18215  16.354   6.764  10.939
45890W        W18216  29.151  41.830  13.125
45891W        W18217   8.578  14.796  12.820
45892W        W18218   7.328  23.600  11.561
45893W        W18219  42.576  30.609  12.403
45894W        W18220  44.458   8.841   3.715
45895W        W18221  11.847  11.395   1.233
45896W        W18222   7.285   3.310  14.340
45897W        W18223  11.675  40.873  14.379
45898W        W18224  23.132   7.221  13.860
45899W        W18225  31.492  40.794  13.791
45900W        W18226  44.964  31.758  11.454
45901W        W18227   4.840   6.484  14.832
45902W        W18228  19.089  32.150   1.013
45903W        W18229   0.961   3.295  11.081
45904W        W18230  16.468  29.483   4.121
45905W        W18231  29.388   5.329   4.698
45906W        W18232   2.431  23.068   0.244
45907W        W18233  38.623  21.170   2.025
45908W        W18234   5.852   6.877   2.787
45909W        W18235   5.236   9.602  12.502
45910W        W18236  16.279  29.468  12.450
45911W        W18237  37.419  23.664  11.865
45912W        W18238  35.875  13.665   3.755
45913W        W18239  20.206  29.709   1.228
45914W        W18240  31.039  18.865   2.288
45915W        W18241  13.477  24.453   0.328
45916W        W18242  24.733   8.255  14.043
45917W        W18243  31.145  17.801  11.868
45918W        W18244  36.655   0.172  11.051
45919W        W18245  40.898   8.596   4.816
45920W        W18246  18.822   8.650   4.491
45921W        W18247   0.276  35.077   2.259
45922W        W18248  43.562  41.346   1.465
45923W        W18249   9.777  41.062  12.031
45924W        W18250  27.581   8.358   3.209
45925W        W18251   1.801  19.327  13.018
45926W        W18252  16.080  44.554   1.313
45927W        W18253  20.135  37.331  14.797
45928W        W18254  26.709  28.978   0.222
45929W        W18255   6.956  17.590  13.498
45930W        W18256  28.018   5.701  10.317
45931W        W18257  23.654   9.384   2.954
45932W        W18258  34.332  30.959   0.363
45933W        W18259   5.944  29.106   1.707
45934W        W18260   6.593   3.453  11.608
45935W        W18261  25.944   8.220  14.392
45936W        W18262  32.676   0.052  13.593
45937W        W18263  36.523   0.419  11.495
45938W        W18264  25.070  13.449   0.560
45939W        W18265  22.334  20.500   3.115
45940W        W18266  16.528   5.208   0.419
45941W        W18267  13.054  27.040  13.958
45942W        W18268  38.512   5.149  14.049
45943W        W18269  43.507  43.763  13.485
45944W        W18270  13.108  37.987  13.515
45945W        W18271   3.882  23.059   0.846
45946W        W18272  13.803  11.112  10.715
45947W        W18273  35.331   7.363   3.919
45948W        W18274  44.380  41.150   2.408
45949W        W18275   7.881   2.728  12.723
45950W        W18276   0.225  35.500  12.672
45951W        W18277  18.349   9.259   1.011
45952W        W18278  20.289  11.933   3.385
45953W        W18279   8.395  17.115   2.783
45954W        W18280  33.047  24.068   3.333
45955W        W18281  29.450  35.889  11.158
45956W        W18282  31.561  40.941  11.138
45957W        W18283  23.441  26.184  11.140
45958W        W18284  11.666  18.331   3.759
45959W        W18285  28.124  10.617   3.294
45960W        W18286  14.291  44.152  14.289
45961W        W18287  15.649  33.901   0.470
45962W        W18288   4.275   2.767   1.624
45963W        W18289  25.696  21.172  12.925
45964W        W18290  34.077   9.295   1.437
45965W        W18291  14.822  19.039  12.079
45966W        W18292  26.658   7.688  12.140
45967W        W18293   9.890  44.552  12.547
45968W        W18294  38.808   1.948  11.596
45969W        W18295  27.560  27.397   3.583
45970W        W18296   4.200  26.883   1.724
45971W        W18297  35.025  40.015   3.580
45972W        W18298   0.719  29.623  13.768
45973W        W18299  37.097  10.226  14.892
45974W        W18300   1.401  42.444   0.835
45975W        W18301  14.276  40.032  10.481
45976W        W18302   2.604  28.538  11.962
45977W        W18303  15.644  21.505  13.566
45978W        W18304   7.740   1.727   3.239
45979W        W18305  29.890   3.863  14.885
45980W        W18306  17.054  42.636   5.145
45981W        W18307   7.938  36.453   3.227
45982W        W18308  39.089  18.518  13.940
45983W        W18309  15.659   6.775  11.483
45984W        W18310  41.346  11.286  13.219
45985W        W18311  12.612  12.041   2.135
45986W        W18312  29.704   7.150  13.497
45987W        W18313  22.657  19.076   4.646
45988W        W18314  25.094  38.962  11.529
45989W        W18315  42.569  12.217  13.771
45990W        W18316  19.681  30.135   4.595
45991W        W18317  19.644   2.852  13.070
45992W        W18318   5.352  21.831   0.700
45993W        W18319  29.639  24.481   0.035
45994W        W18320  36.551  11.033   3.440
45995W        W18321   2.782  23.067  12.572
45996W        W18322  21.271  18.988   4.057
45997W        W18323  10.221  27.126  12.021
45998W        W18324  36.586   8.520   3.275
45999W        W18325  21.322   2.741   3.648
46000W        W18326  14.972  12.195  13.059
46001W        W18327  13.444   7.884  11.898
46002W        W18328  36.015  42.503   3.231
46003W        W18329  20.503  31.099   4.209
46004W        W18330  43.219  37.564  14.930
46005W        W18331   2.975   0.346  13.506
46006W        W18332  14.880   7.210  12.935
46007W        W18333   0.039  23.455  11.063
46008W        W18334   2.237  24.151  13.392
46009W        W18335   1.970   4.049  14.231
46010W        W18336  44.500   1.686   4.217
46011W        W18337   4.284  43.412  14.522
46012W        W18338  15.244   2.486   3.757
46013W        W18339  20.550   1.729   3.139
46014W        W18340  15.546  37.774   0.444
46015W        W18341  21.731   2.783   2.352
46016W        W18342   4.499  11.124   2.359
46017W        W18343   3.791  32.272  11.153
46018W        W18344  41.031   6.416   3.674
46019W        W18345  19.649  28.234   4.069
46020W        W18346  30.920  26.228  12.511
46021W        W18347  25.189  13.911  13.024
46022W        W18348  30.055  24.588   0.364
46023W        W18349  12.343  33.926   3.742
46024W        W18350   8.218  14.538  13.140
46025W        W18351   1.552  20.290   4.024
46026W        W18352   7.141  21.555   4.197
46027W        W18353  35.146  44.503  12.136
46028W        W18354   8.564  44.463  13.875
46029W        W18355  12.820  19.872   0.868
46030W        W18356  20.758   0.566   3.687
46031W        W18357   4.581  42.626   0.941
46032W        W18358  44.412  40.252   5.009
46033W        W18359  36.454  34.812   3.657
46034W        W18360  22.701  44.339  10.468
46035W        W18361   4.277  22.717   1.690
46036W        W18362  30.020  36.143   3.163
46037W        W18363  41.907  19.317  14.877
46038W        W18364  14.822  22.632   3.280
46039W        W18365  21.574  13.190  12.185
46040W        W18366  33.548  14.151   3.854
46041W        W18367  17.891   3.465   4.082
46042W        W18368   2.216  42.774   3.289
46043W        W18369  42.024   0.314   0.314
46044W        W18370  20.776  27.650  12.781
46045W        W18371  12.743  28.417  11.507
46046W        W18372  39.383  32.948   4.751
46047W        W18373   5.387  22.416  10.328
46048W        W18374  10.837  30.134   3.189
46049W        W18375  24.905  16.741  11.958
46050W        W18376  17.830  28.599  12.677
46051W        W18377  32.928  40.195  12.988
46052W        W18378  34.445   2.349  13.127
46053W        W18379   2.521  44.743   0.121
46054W        W18380  12.210  16.424  12.564
46055W        W18381  30.964   8.270   2.172
46056W        W18382  18.126   1.268  10.887
46057W        W18383   2.246  40.881   4.676
46058W        W18384  43.389  10.173  12.394
46059W        W18385  32.407  14.251  12.782
46060W        W18386  28.564  20.139   4.688
46061W        W18387  44.470  24.445   2.663
46062W        W18388  30.864  39.962  14.413
46063W        W18389  39.273  15.134  14.533
46064W        W18390  33.729   0.464   1.910
46065W        W18391  35.779  11.429   3.280
46066W        W18392   1.296  22.218   0.388
46067W        W18393  44.095  39.895   1.965
46068W        W18394  43.039  25.748   1.318
46069W        W18395  39.138  35.738  11.985
46070W        W18396  26.905  10.228  14.260
46071W        W18397  19.217  40.853  13.274
46072W        W18398  18.729  26.204  12.365
46073W        W18399  25.867  41.458  10.980
46074W        W18400  22.358  35.505  12.853
46075W        W18401  44.618  35.004   4.113
46076W        W18402   2.347  37.227   2.471
46077W        W18403  30.500  34.126   0.601
46078W        W18404  37.717  30.111   2.799
46079W        W18405  36.903   5.663   3.138
46080W        W18406  16.615  44.774  11.650
46081W        W18407  29.937  43.551  10.656
46082W        W18408  28.085  29.936  13.931
46083W        W18409  24.258  34.458  14.945
46084W        W18410  27.440  39.870  11.120
46085W        W18411   5.722   2.614  12.027
46086W        W18412  20.645  43.872  12.754
46087W        W18413  37.798  30.090   4.641
46088W        W18414   0.381  42.506  11.451
46089W        W18415  17.606  16.041   2.716
46090W        W18416  24.736  24.894  12.471
46091W        W18417  25.966  12.374  11.817
46092W        W18418   4.430  15.285   3.629
46093W        W18419  24.681  17.392   3.611
46094W        W18420  39.078  16.695   2.356
46095W        W18421  22.072   2.496   0.046
46096W        W18422  35.466  36.608  11.603
46097W        W18423  17.661  42.833   2.869
46098W        W18424   6.513  18.130   4.048
46099W        W18425  39.856  35.727   1.136
46100W        W18426  44.450   9.712  13.460
46101W        W18427  21.672  43.176   0.547
46102W        W18428  36.588  34.018   5.467
46103W        W18429   8.475  30.867   2.284
46104W        W18430  35.382   3.679  11.653
46105W        W18431  38.440  13.739  13.501
46106W        W18432   2.524   0.761  11.604
46107W        W18433   6.232  26.733  12.993
46108W        W18434   5.154  39.744   1.498
46109W        W18435   4.812  28.034  12.106
46110W        W18436  25.376   5.399   0.927
46111W        W18437  31.409  33.056   1.827
46112W        W18438  20.052  39.672  11.324
46113W        W18439   0.006  30.201   0.480
46114W        W18440   1.319  41.886  11.202
46115W        W18441   6.353  28.916   3.729
46116W        W18442  18.998  36.160  11.076
46117W        W18443  35.016   5.982  11.577
46118W        W18444  12.229  16.842  12.882
46119W        W18445   0.735  12.127   2.900
46120W        W18446  36.914  10.014   4.516
46121W        W18447  10.116  41.061  12.599
46122W        W18448  43.356  21.294  10.558
46123W        W18449  29.327  21.289   2.209
46124W        W18450  25.611  11.515   1.765
46125W        W18451   7.181  41.530  10.669
46126W        W18452   7.764  29.427  12.497
46127W        W18453  19.291   8.117  12.187
46128W        W18454  19.600  37.317  14.828
46129W        W18455  24.587   6.951   3.296
46130W        W18456   7.406  10.627   3.612
46131W        W18457  17.794   3.489  13.795
46132W        W18458   0.457  36.861   4.676
46133W        W18459  25.456  25.468  14.421
46134W        W18460  26.687  22.540  14.015
46135W        W18461   4.894  15.011   3.581
46136W        W18462   6.947  22.590   4.637
46137W        W18463  29.890  34.683   1.186
46138W        W18464   8.620  16.318  14.839
46139W        W18465  12.503   6.819   1.298
46140W        W18466  24.207  35.398   2.470
46141W        W18467  22.184  16.666   2.221
46142W        W18468  34.642  15.549  13.368
46143W        W18469  40.764   8.430  12.346
46144W        W18470  12.102  24.581  10.246
46145W        W18471  28.536  36.808  14.635
46146W        W18472  20.514   5.349  13.897
46147W        W18473  14.305  26.523   4.099
46148W        W18474  35.108   1.264   0.265
46149W        W18475  10.146  42.813   0.041
46150W        W18476   4.894  10.345   4.091
46151W        W18477  18.550  18.637   1.490
46152W        W18478  25.871  37.066  10.539
46153W        W18479  44.253  28.503  13.049
46154W        W18480  12.598  42.888  13.949
46155W        W18481  18.303  20.148   2.714
46156W        W18482  35.103   4.137  13.355
46157W        W18483  36.103  14.710  14.064
46158W        W18484  19.567  37.048   3.559
46159W        W18485  14.211  38.851   3.331
46160W        W18486  23.875  35.100   4.679
46161W        W18487  14.629   4.982   1.644
46162W        W18488  11.291  42.012   2.707
46163W        W18489  44.994   1.427   3.605
46164W        W18490  33.600  20.068  11.272
46165W        W18491  11.877  10.246  10.344
46166W        W18492  15.878  35.477   2.685
46167W        W18493  41.796  28.009   2.561
46168W        W18494  36.518  10.268  10.905
46169W        W18495  34.411  31.754  13.655
46170W        W18496   2.523  10.851   1.481
46171W        W18497  38.167  43.042   5.024
46172W        W18498  17.513  35.586  12.118
46173W        W18499  11.743  32.638  11.433
46174W        W18500  31.243  11.305  12.886
46175W        W18501  33.431   4.738   3.416
46176W        W18502  44.809   6.781  14.505
46177W        W18503  40.429  18.221   0.737
46178W        W18504  28.635   9.197   3.112
46179W        W18505  11.182  24.758  11.669
46180W        W18506   9.564  28.092  10.705
46181W        W18507  39.096  13.549  12.970
46182W        W18508  33.821  39.419   2.388
46183W        W18509  40.603  28.008   4.547
46184W        W18510  44.829  12.657  13.648
46185W        W18511  18.536  33.989  14.884
46186W        W18512  14.146  11.409  12.184
46187W        W18513   2.005  34.722   2.288
46188W        W18514  44.005  18.351   3.231
46189W        W18515  16.297  30.496  14.219
46190W        W18516  38.477  37.287   4.615
46191W        W18517  21.403   3.927   4.207
46192W        W18518   1.669  11.171   4.810
46193W        W18519  26.592  16.988  10.628
46194W        W18520   0.421   1.816  13.806
46195W        W18521  28.964  23.152   1.529
46196W        W18522  24.951  21.468   2.694
46197W        W18523  44.796   5.158   3.714
46198W        W18524  38.018   2.925  13.255
46199W        W18525  44.514  30.389  11.818
46200W        W18526  23.284   8.237  13.554
46201W        W18527  25.627   1.852  14.224
46202W        W18528  16.365   3.965   3.651
46203W        W18529   6.747  38.636   0.950
46204W        W18530   6.838   3.880  13.229
46205W        W18531  26.579  29.656   2.906
46206W        W18532  35.487  22.157  11.919
46207W        W18533  10.773  25.430   1.234
46208W        W18534  37.023  10.202  10.611
46209W        W18535  40.829  34.009  14.113
46210W        W18536  18.790  44.927  11.538
46211W        W18537   8.635   9.537  10.780
46212W        W18538  23.536  30.009  11.028
46213W        W18539  23.831  28.671  11.185
46214W        W18540   1.434   3.774  13.533
46215W        W18541  33.271  18.072   1.832
46216W        W18542  32.955  27.694  12.170
46217W        W18543   9.225   8.476  13.007
46218W        W18544  36.787  10.517   1.215
46219W        W18545   5.503   7.664   3.205
46220W        W18546  40.270  18.468   2.793
46221W        W18547  24.977  24.607   0.308
46222W        W18548  32.552  19.509  13.480
46223W        W18549   7.892  30.925   1.363
46224W        W18550   6.819   3.822   3.886
46225W        W18551   4.359  30.163   3.901
46226W        W18552  10.126  34.061  13.879
46227W        W18553  13.604  34.793   0.392
46228W        W18554  10.112  24.270  10.988
46229W        W18555  25.024  44.008   2.827
46230W        W18556   1.707  11.598   5.644
46231W        W18557  40.744  14.108  11.538
46232W        W18558   1.961  26.215  12.446
46233W        W18559   4.738  32.586   2.725
46234W        W18560  26.757  33.165  13.921
46235W        W18561  40.615  40.226   4.198
46236W        W18562  29.587   0.771  10.602
46237W        W18563  16.302  26.970  13.395
46238W        W18564  41.146   3.771  13.249
46239W        W18565  16.860  40.308  14.120
46240W        W18566  26.120  11.165  12.362
46241W        W18567   1.712  26.480   2.362
46242W        W18568  33.284   3.456  13.850
46243W        W18569  43.470  43.473  12.343
46244W        W18570  12.935  34.024  11.188
46245W        W18571  25.470  38.920   3.734
46246W        W18572   8.957  21.163   0.799
46247W        W18573  30.058   8.826  10.639
46248W        W18574   5.948  21.365   0.972
46249W        W18575   1.413  10.403  12.802
46250W        W18576  34.988  10.583  14.555
46251W        W18577  10.399  17.723   3.213
46252W        W18578  28.177  44.933  11.038
46253W        W18579   6.456  23.207  11.449
46254W        W18580  13.093  28.699  13.596
46255W        W18581  17.098  36.100   3.101
46256W        W18582  26.204  23.760   4.894
46257W        W18583   2.684  26.927  12.816
46258W        W18584  35.288  11.308   3.242
46259W        W18585   5.760   1.244   4.686
46260W        W18586  19.890  28.098   3.174
46261W        W18587  21.763  19.340  13.786
46262W        W18588  27.019  37.469   1.335
46263W        W18589  25.193  28.173   0.162
46264W        W18590   4.131  14.071   4.579
46265W        W18591  13.356  38.851   3.318
46266W        W18592  26.298  16.682   1.028
46267W        W18593  40.398  28.546  10.765
46268W        W18594  15.032  20.837  13.904
46269W        W18595  19.831  26.758  12.389
46270W        W18596  21.698  21.417  11.299
46271W        W18597  35.001  44.317   5.065
46272W        W18598  26.015  40.682   0.400
46273W        W18599  16.301  13.991   3.247
46274W        W18600  38.097   3.969   4.075
46275W        W18601  28.497  10.345  12.139
46276W        W18602  30.937  38.520   1.040
46277W        W18603   0.040  20.721  14.412
46278W        W18604  31.620  20.973   0.338
46279W        W18605  42.794  10.421  13.742
46280W        W18606  36.255  29.172  11.284
46281W        W18607  18.491   5.411  12.710
46282W        W18608  22.214  34.083   3.470
46283W        W18609  20.487  31.680  14.844
46284W        W18610   2.425  44.398  12.794
46285W        W18611  15.861  17.895   4.769
46286W        W18612   9.480  13.600   3.139
46287W        W18613  39.873  43.257   4.520
46288W        W18614  29.886  39.454   0.756
46289W        W18615  16.705  38.616   0.813
46290W        W18616  17.022  39.398   0.963
46291W        W18617   6.449  15.223  12.413
46292W        W18618  18.592  33.664  12.117
46293W        W18619  37.610  44.981   0.934
46294W        W18620   6.669   9.187  11.977
46295W        W18621   2.307   9.584  13.561
46296W        W18622   7.898  33.391   0.376
46297W        W18623  23.689  21.155  14.058
46298W        W18624  12.863   4.599   4.581
46299W        W18625  20.268  30.746  13.918
46300W        W18626  30.280  40.457   4.393
46301W        W18627  12.908   2.523   1.949
46302W        W18628  20.199   2.422  11.623
46303W        W18629   5.497   5.249  11.695
46304W        W18630  16.491  15.238   0.014
46305W        W18631  33.089  35.400   4.754
46306W        W18632  33.167  31.335  13.627
46307W        W18633  33.950   0.360   3.362
46308W        W18634  32.960  42.408   1.247
46309W        W18635  20.174  35.322   4.351
46310W        W18636  29.941   5.460   2.722
46311W        W18637  29.641  42.308  11.191
46312W        W18638   0.734  33.944  13.502
46313W        W18639  36.871  17.595   3.156
46314W        W18640  15.607  21.415   3.115
46315W        W18641  15.596  26.682   2.623
46316W        W18642  10.049  32.324   0.777
46317W        W18643  23.631  24.979  11.705
46318W        W18644  19.957   6.343  11.720
46319W        W18645  19.022  12.264   3.904
46320W        W18646  16.218  29.275  14.031
46321W        W18647   8.745   9.264   1.984
46322W        W18648   9.206  17.071   2.220
46323W        W18649  32.444  19.875   1.881
46324W        W18650  44.113  14.869   2.456
46325W        W18651  32.201  35.648  12.431
46326W        W18652  27.214  36.901   4.627
46327W        W18653  11.257  19.656  13.016
46328W        W18654  22.505  20.395  10.457
46329W        W18655  40.865  14.839   2.185
46330W        W18656   6.971  26.610   0.977
46331W        W18657  25.881  36.566  10.636
46332W        W18658  37.494  40.548  10.786
46333W        W18659   6.250  22.544  10.644
46334W        W18660  33.486  29.923   3.326
46335W        W18661  34.549   8.421   2.329
46336W        W18662  34.872  12.924  14.816
46337W        W18663  21.977  43.363  13.421
46338W        W18664  16.852  13.369   1.212
46339W        W18665   1.776  38.581  14.805
46340W        W18666  29.447  30.184  13.414
46341W        W18667  35.593  10.463   9.978
46342W        W18668   4.752  19.617   2.872
46343W        W18669  18.846  43.324   4.159
46344W        W18670  12.930   0.113  12.432
46345W        W18671  16.530  22.583   1.062
46346W        W18672   7.412   5.056   2.918
46347W        W18673  28.566  44.285  11.450
46348W        W18674   7.819  19.900   5.055
46349W        W18675  13.232   2.175   2.184
46350W        W18676  17.324   0.413  12.602
46351W        W18677  41.980  28.605   4.825
46352W        W18678  17.848  14.230  12.049
46353W        W18679  21.057  14.289   1.324
46354W        W18680   1.774   2.813  10.909
46355W        W18681  22.095  41.943   3.568
46356W        W18682   5.982  12.333  11.223
46357W        W18683   4.936  44.477   0.715
46358W        W18684  17.113  11.392   1.275
46359W        W18685  17.619  16.904  12.862
46360W        W18686  34.758   8.186  14.500
46361W        W18687  28.017  27.548  10.231
46362W        W18688  20.173  37.780   3.367
46363W        W18689   5.167   7.226  10.557
46364W        W18690  21.986   6.896  13.026
46365W        W18691  30.645  29.938  12.059
46366W        W18692  16.751  36.585  13.055
46367W        W18693  12.474  16.397  11.077
46368W        W18694   5.454   1.236  12.896
46369W        W18695  24.157  37.625  10.141
46370W        W18696  22.567  10.752   0.974
46371W        W18697  29.027  20.959  12.018
46372W        W18698  44.359  18.613  11.269
46373W        W18699  34.116  36.463  10.196
46374W        W18700  32.477  28.601  11.232
46375W        W18701  15.812  25.124  12.852
46376W        W18702  23.537  32.588  13.618
46377W        W18703   7.522   9.699   1.164
46378W        W18704  42.347  18.516   2.915
46379W        W18705   4.483   3.475   4.568
46380W        W18706  17.969  31.146   2.583
46381W        W18707  21.730   6.520   0.010
46382W        W18708  10.922  33.860  11.095
46383W        W18709   9.593  24.533  13.900
46384W        W18710  18.513  32.489   4.668
46385W        W18711  27.229  27.582  14.016
46386W        W18712  21.549   6.459  14.002
46387W        W18713  35.455  41.757   4.320
46388W        W18714  18.272  20.301  12.903
46389W        W18715  16.417   7.804   3.741
46390W        W18716  12.279  17.191   0.824
46391W        W18717   3.630  23.487  11.447
46392W        W18718   5.701  13.559  12.038
46393W        W18719  15.113  16.980  14.008
46394W        W18720   0.005  22.348   3.804
46395W        W18721  18.307  26.659   1.309
46396W        W18722  18.176   8.449  11.114
46397W        W18723  43.255  14.670   0.385
46398W        W18724  15.252  39.521   1.180
46399W        W18725  32.495  10.406   4.137
46400W        W18726  41.308  12.561  13.261
46401W        W18727  24.089  33.530  14.147
46402W        W18728  12.114  30.396   3.054
46403W        W18729  30.216  17.279   0.734
46404W        W18730  22.687  10.231   0.507
46405W        W18731  27.735  44.380  10.446
46406W        W18732  34.027   0.982   4.149
46407W        W18733  38.075  44.233   3.029
46408W        W18734  21.144  16.020   1.883
46409W        W18735  29.614   5.670   1.368
46410W        W18736   2.268  10.863  12.460
46411W        W18737  11.839  33.110   2.798
46412W        W18738  30.834  22.453   1.925
46413W        W18739  13.322  11.338   2.294
46414W        W18740  10.869  17.555  12.089
46415W        W18741   9.919  16.857   4.063
46416W        W18742  12.355  30.559   2.099
46417W        W18743   8.970  21.571  13.906
46418W        W18744  18.393  26.478  12.617
46419W        W18745   9.790  36.927   0.368
46420W        W18746   2.919  26.425  11.982
46421W        W18747  21.511  15.840  14.922
46422W        W18748  39.405  14.866  14.992
46423W        W18749  25.030  34.323   1.842
46424W        W18750   0.291  16.141   2.745
46425W        W18751  29.087  19.559  10.999
46426W        W18752  33.661  28.246   0.963
46427W        W18753  19.733   4.446  12.591
46428W        W18754  25.767  25.749  11.754
46429W        W18755  15.737  10.467   1.306
46430W        W18756  33.329  25.005  11.558
46431W        W18757  44.076  35.400   1.016
46432W        W18758  19.167  15.278  14.016
46433W        W18759  30.681   1.328  11.152
46434W        W18760  38.797  37.389  14.380
46435W        W18761  24.305  30.506  10.181
46436W        W18762  14.176  13.335   1.376
46437W        W18763   0.493  20.563   1.928
46438W        W18764  38.407  33.799   1.805
46439W        W18765  36.465  23.279   3.428
46440W        W18766  19.155  43.076  10.999
46441W        W18767  30.510  34.941  14.835
46442W        W18768  39.898  21.576   4.826
46443W        W18769  18.008  15.069   0.601
46444W        W18770  40.780  33.998  14.640
46445W        W18771   0.448  27.020   4.535
46446W        W18772  30.437   9.230  13.918
46447W        W18773  12.688  31.336   4.050
46448W        W18774  12.842  35.418   4.565
46449W        W18775  24.238   2.451  13.406
46450W        W18776  40.900   5.266   4.103
46451W        W18777  22.532  28.153   4.136
46452W        W18778  35.497   2.356  11.195
46453W        W18779  39.591  36.985   2.786
46454W        W18780  22.213  37.593  10.435
46455W        W18781  10.448  23.181   0.819
46456W        W18782  10.128  13.669   4.358
46457W        W18783  10.692  23.542   2.165
46458W        W18784  14.448  24.889   4.672
46459W        W18785  22.642  24.292  10.773
46460W        W18786  18.092  22.781  14.431
46461W        W18787  10.418   5.379   0.787
46462W        W18788  12.797  22.245   4.030
46463W        W18789  43.864  17.169  14.304
46464W        W18790  42.795  27.713   2.356
46465W        W18791  15.068  23.249  13.934
46466W        W18792   2.923  18.537   1.713
46467W        W18793  37.973   9.739   0.103
46468W        W18794  37.577  23.823   0.775
46469W        W18795  42.446  22.272  10.704
46470W        W18796   3.030  41.121   3.195
46471W        W18797  26.117   9.299   1.494
46472W        W18798   1.216  18.475  13.932
46473W        W18799  10.870  33.324  13.818
46474W        W18800  25.078  11.161   4.370
46475W        W18801  28.968  32.378  14.053
46476W        W18802   3.468  20.540  13.346
46477W        W18803  18.367  43.065   0.795
46478W        W18804   8.820  19.607   0.810
46479W        W18805  12.370   5.519   0.905
46480W        W18806  18.489  31.905  10.379
46481W        W18807  31.998  18.038   3.695
46482W        W18808  21.737  12.392  14.755
46483W        W18809  13.288  10.896   0.413
46484W        W18810  22.627  41.256   4.177
46485W        W18811  28.687  26.583  13.124
46486W        W18812  38.766  37.542   0.792
46487W        W18813   4.812   2.676  11.069
46488W        W18814  38.543  24.602  14.727
46489W        W18815  39.167  38.438  11.364
46490W        W18816  33.114  36.926  11.247
46491W        W18817  26.509  41.273   4.948
46492W        W18818  36.886  29.577  12.002
46493W        W18819  33.829  34.643  13.173
46494W        W18820   6.112  22.335   4.767
46495W        W18821  43.790  35.595   1.394
46496W        W18822  21.739   1.302   1.492
46497W        W18823  40.014  28.078   0.295
46498W        W18824  28.588  13.264   0.721
46499W        W18825  18.530  14.577  13.515
46500W        W18826  18.415  21.606  12.558
46501W        W18827   3.686  16.515  12.078
46502W        W18828  33.477  18.537   0.820
46503W        W18829  40.707   3.294   1.075
46504W        W18830   1.294  40.955  13.073
46505W        W18831  42.281  24.603  14.048
46506W        W18832  22.679  11.777   3.675
46507W        W18833  32.210  35.246   3.298
46508W        W18834  16.734  13.206   3.057
46509W        W18835  16.119  10.591  11.195
46510W        W18836  35.674  22.683  11.294
46511W        W18837  43.522  42.967  13.861
46512W        W18838  17.344  11.595  12.919
46513W        W18839   7.172   6.859   2.483
46514W        W18840  37.087  30.591   1.741
46515W        W18841   4.403  31.507   4.159
46516W        W18842   5.775  13.798   1.375
46517W        W18843  26.490  39.032   4.604
46518W        W18844  28.576   0.441  13.470
46519W        W18845  26.988  31.043   1.894
46520W        W18846  12.408   2.829   4.583
46521W        W18847  10.791  35.968   4.507
46522W        W18848  34.898  31.676   4.087
46523W        W18849  24.706  25.255  13.417
46524W        W18850  25.536   1.925   4.900
46525W        W18851  21.542  26.016  12.458
46526W        W18852  37.985   6.938  10.550
46527W        W18853  17.159  28.487   2.712
46528W        W18854  11.764  32.456   4.934
46529W        W18855  31.961  19.279   0.382
46530W        W18856  31.517  23.592  12.196
46531W        W18857  37.630  32.653   2.620
46532W        W18858   4.326  44.001  12.612
46533W        W18859  31.936   0.652   0.867
46534W        W18860  21.201  27.100   4.979
46535W        W18861  16.590  23.603   4.112
46536W        W18862  14.255  14.610  11.181
46537W        W18863  22.102  11.176  12.745
46538W        W18864  28.188  32.960   4.134
46539W        W18865  26.415  37.637   1.314
46540W        W18866   1.506   2.445  10.696
46541W        W18867   2.882  17.104   4.370
46542W        W18868   1.274  41.907  10.685
46543W        W18869   1.495  10.495  10.871
46544W        W18870  13.430  17.523   1.509
46545W        W18871   5.441  43.366  11.351
46546W        W18872   9.636   0.070  13.767
46547W        W18873   6.015  20.833  10.620
46548W        W18874  24.194  17.679   9.740
46549W        W18875  23.944  33.487   1.951
46550W        W18876  19.652   6.750  11.854
46551W        W18877  22.389  15.808  12.844
46552W        W18878  40.870  39.864  13.875
46553W        W18879  38.235  18.661  13.662
46554W        W18880  42.939  36.267  13.189
46555W        W18881  39.457  33.623  12.082
46556W        W18882  23.751   1.483  12.006
46557W        W18883   5.120   8.518  12.302
46558W        W18884  30.782  23.534   4.501
46559W        W18885  37.434  13.615   9.995
46560W        W18886  36.790  35.453  11.221
46561W        W18887  25.040  24.071  12.481
46562W        W18888  36.250   2.376  10.669
46563W        W18889  38.334  27.904   2.371
46564W        W18890  28.434   9.708   1.704
46565W        W18891   8.377   3.712   1.632
46566W        W18892   0.235  13.683  12.996
46567W        W18893  27.596   3.464   4.405
46568W        W18894  25.998   9.909  12.130
46569W        W18895   4.809  26.287   0.254
46570W        W18896  23.046  41.213  13.476
46571W        W18897  25.626  38.411   4.104
46572W        W18898  42.354  28.210   3.176
46573W        W18899  43.949  11.624  13.901
46574W        W18900  30.197   9.851  14.891
46575W        W18901  34.625  42.414   3.607
46576W        W18902  37.037  23.804  11.573
46577W        W18903  14.762  15.096  13.304
46578W        W18904  31.559  34.883   2.182
46579W        W18905  35.104   2.838   1.814
46580W        W18906  44.928  22.457  11.936
46581W        W18907  17.827  14.870   4.890
46582W        W18908  42.273  40.504   3.903
46583W        W18909  21.600  26.265   4.739
46584W        W18910   3.672  11.435  13.445
46585W        W18911   4.745  12.255  14.357
46586W        W18912  43.859  19.694   0.186
46587W        W18913  24.475  36.071   2.901
46588W        W18914   0.280  44.818  12.024
46589W        W18915  10.882  10.713   3.163
46590W        W18916   1.215   6.620   4.572
46591W        W18917  32.158   6.462  14.011
46592W        W18918  18.798  14.547  10.429
46593W        W18919   8.669  44.926  12.927
46594W        W18920   9.166  23.462   1.328
46595W        W18921  43.168   8.887   1.663
46596W        W18922  23.440  28.051  14.735
46597W        W18923  22.755  14.309   3.695
46598W        W18924  33.089  44.814  13.773
46599W        W18925  28.555  38.983  10.911
46600W        W18926   3.673  25.269   2.090
46601W        W18927   7.105   3.496  11.602
46602W        W18928  31.031  37.941  13.124
46603W        W18929   2.499  29.003   5.095
46604W        W18930   6.644  39.407   0.530
46605W        W18931  15.621  42.521  14.049
46606W        W18932  20.021  38.390  10.773
46607W        W18933   7.849   4.499   1.312
46608W        W18934   4.167  13.377   0.463
46609W        W18935  41.361   5.355  14.274
46610W        W18936  13.159   8.804  13.363
46611W        W18937  32.069  33.984  10.418
46612W        W18938  35.778  38.058  11.106
46613W        W18939  22.141  33.157   4.180
46614W        W18940   8.634  38.756  13.904
46615W        W18941  28.090  18.634  10.262
46616W        W18942  29.509   7.571  11.559
46617W        W18943  24.845  31.463  13.420
46618W        W18944   7.845  34.890   1.618
46619W        W18945   1.883   7.157   1.095
46620W        W18946  36.364  26.178   2.943
46621W        W18947  29.369  25.165  12.119
46622W        W18948  31.883  39.506   1.713
46623W        W18949   1.852  28.078   4.564
46624W        W18950  34.501  27.673   3.478
46625W        W18951  26.256   4.191   0.041
46626W        W18952  24.061   0.397  12.621
46627W        W18953  34.543   9.741   2.810
46628W        W18954  40.846   2.396  14.996
46629W        W18955  16.631  19.799   2.915
46630W        W18956  31.556  40.085  13.129
46631W        W18957  35.285   4.325   0.397
46632W        W18958   2.199  15.607  13.002
46633W        W18959  34.440  25.690   4.207
46634W        W18960  26.416  16.648   5.025
46635W        W18961  41.849  24.936  13.461
46636W        W18962  37.517   1.075   2.926
46637W        W18963  19.251  23.339   4.571
46638W        W18964  20.703  16.812   2.352
46639W        W18965  31.579  34.138   1.213
46640W        W18966  31.417  31.459  11.713
46641W        W18967  36.072  11.682  14.322
46642W        W18968  37.763  24.449  11.243
46643W        W18969   6.774  31.280   0.815
46644W        W18970  35.725  12.084  12.477
46645W        W18971  18.096  22.977   0.514
46646W        W18972  34.649  37.917  13.424
46647W        W18973  43.953  13.738  12.580
46648W        W18974  15.841  16.731   2.106
46649W        W18975  40.374  17.586  12.981
46650W        W18976  33.466  19.806  11.713
46651W        W18977   2.237  32.939   1.310
46652W        W18978   9.974  43.743   2.728
46653W        W18979  42.889   2.734  12.441
46654W        W18980  17.590   1.807   4.188
46655W        W18981  13.566  44.305  13.172
46656W        W18982  14.270   6.282   4.530
46657W        W18983  15.877   5.225   4.049
46658W        W18984   9.370   6.100   3.315
46659W        W18985  10.751   1.719   4.562
46660W        W18986   8.928   4.245  13.428
46661W        W18987  31.662  13.184  13.065
46662W        W18988  28.551  32.604  14.841
46663W        W18989  22.231  10.639  11.166
46664W        W18990  17.412  35.317  12.548
46665W        W18991  33.659  20.228   4.139
46666W        W18992  24.097  18.091  12.589
46667W        W18993  25.608   9.259  14.358
46668W        W18994  33.153  17.104  12.889
46669W        W18995   6.676  16.631   4.645
46670W        W18996  37.306   1.288  13.716
46671W        W18997   8.418   3.905  14.866
46672W        W18998  23.103  33.760  14.277
46673W        W18999  19.017  29.183  13.987
46674W        W19000   1.282  14.306   1.710
46675W        W19001  31.654  25.124   3.147
46676W        W19002  34.816  12.298   2.604
46677W        W19003  24.619  10.236   9.887
46678W        W19004  32.901  16.296   0.969
46679W        W19005  28.994   5.858  13.120
46680W        W19006  36.341  31.243  13.301
46681W        W19007   0.763  42.796   1.798
46682W        W19008  20.134  39.507  10.845
46683W        W19009  37.899   6.641  14.912
46684W        W19010  17.155   8.787   2.240
46685W        W19011  30.903  20.359  11.615
46686W        W19012   2.037  22.662  12.321
46687W        W19013  36.612   4.650   0.207
46688W        W19014   5.809  24.714   0.513
46689W        W19015  20.345   1.770  12.487
46690W        W19016  12.490   9.126   1.463
46691W        W19017  18.998  11.337  12.083
46692W        W19018   9.320  26.903  12.627
46693W        W19019  25.425  44.808   1.728
46694W        W19020  19.466  26.016  10.896
46695W        W19021  12.197   4.503  12.978
46696W        W19022  16.582   1.009  10.632
46697W        W19023  43.824  44.981   3.138
46698W        W19024  32.063  20.360  12.861
46699W        W19025  35.986   9.958  14.883
46700W        W19026  41.387   6.323  12.063
46701W        W19027   2.884   0.283   3.553
46702W        W19028  37.351   3.394  14.361
46703W        W19029   8.411  32.594   3.793
46704W        W19030  23.116  40.344   1.730
46705W        W19031  12.195  22.273  10.544
46706W        W19032  23.689  42.286  11.572
46707W        W19033  10.741   0.034  13.522
46708W        W19034  32.119  28.665   4.466
46709W        W19035  27.659  38.535  13.270
46710W        W19036  31.004   9.979   2.713
46711W        W19037   9.799  27.689  13.487
46712W        W19038   7.990  34.460   0.853
46713W        W19039  28.625  18.629  12.258
46714W        W19040  43.124  18.547   0.833
46715W        W19041  15.299  21.716   2.207
46716W        W19042  27.657  34.933  14.504
46717W        W19043   3.709  31.450   1.274
46718W        W19044  10.126   8.275   4.154
46719W        W19045  32.886   2.879   3.277
46720W        W19046  10.601  26.463   3.307
46721W        W19047  38.597  34.603  11.505
46722W        W19048   2.204  24.397   1.417
46723W        W19049  22.615  17.095  10.996
46724W        W19050  41.480  41.855   3.861
46725W        W19051  42.426   2.947  12.663
46726W        W19052  40.756  29.677  12.115
46727W        W19053   6.952  28.845  13.403
46728W        W19054  39.138  35.514  14.357
46729W        W19055  26.751  11.108  12.893
46730W        W19056  31.610  25.224  13.760
46731W        W19057  36.796  14.367   2.378
46732W        W19058  27.464  19.092   1.343
46733W        W19059  10.416  34.539  13.041
46734W        W19060   8.883  29.279   0.863
46735W        W19061  29.664   6.427  14.250
46736W        W19062  13.301  34.844  14.822
46737W        W19063  26.118  44.182   2.938
46738W        W19064  13.699  33.103  14.456
46739W        W19065  17.090   4.884  10.258
46740W        W19066  16.686  13.584   2.707
46741W        W19067  29.508  25.787  11.428
46742W        W19068  33.621   7.213   4.701
46743W        W19069  41.539  28.697   2.740
46744W        W19070   9.702  35.864  10.685
46745W        W19071  36.198  33.305  10.548
46746W        W19072  42.373  31.085   4.550
46747W        W19073  16.691  12.053  14.030
46748W        W19074  30.578  38.167   1.230
46749W        W19075  44.501   7.166   1.972
46750W        W19076  36.680  15.491   1.637
46751W        W19077  22.414   5.817   3.943
46752W        W19078  13.379  33.553   5.206
46753W        W19079  22.038  21.981  13.873
46754W        W19080  13.899  41.540   4.956
46755W        W19081   0.255  12.577  14.390
46756W        W19082  23.787  21.695   0.247
46757W        W19083  21.820  15.760   0.911
46758W        W19084   6.216  26.561  12.482
46759W        W19085  20.085  22.063   3.331
46760W        W19086  18.085   6.271  13.865
46761W        W19087   1.018   0.918   2.802
46762W        W19088  23.103   0.389  10.973
46763W        W19089   8.147   9.756   1.848
46764W        W19090  29.830   5.887   0.019
46765W        W19091   9.046   4.323  11.283
46766W        W19092  13.328  12.374   1.468
46767W        W19093   8.005  38.745   2.296
46768W        W19094   4.323  12.555   2.999
46769W        W19095  42.497  14.994  12.669
46770W        W19096  40.181   3.751  10.660
46771W        W19097  19.822  33.510   3.236
46772W        W19098  38.403  26.727   3.777
46773W        W19099  11.422  13.673  11.218
46774W        W19100  14.098   2.197  11.053
46775W        W19101  37.457  14.773   0.087
46776W        W19102  28.143  18.086   0.305
46777W        W19103  33.466  39.973  14.058
46778W        W19104  39.429  43.854  12.052
46779W        W19105  21.678  20.025  12.001
46780W        W19106  10.848  41.839   1.372
46781W        W19107  32.636   5.194  12.629
46782W        W19108  10.512  31.522  13.364
46783W        W19109   6.265   0.544  10.227
46784W        W19110  44.455  15.741  12.885
46785W        W19111  16.865  37.519   1.451
46786W        W19112  40.343  31.610   4.795
46787W        W19113   4.188  23.150   0.424
46788W        W19114  12.729  34.452  12.934
46789W        W19115   2.939  41.568  14.829
46790W        W19116   4.213   1.511   0.652
46791W        W19117  24.749  33.552  14.927
46792W        W19118  16.978   1.233  14.334
46793W        W19119   6.215  26.553  10.697
46794W        W19120  21.619  13.565   4.073
46795W        W19121   0.922   2.556  11.522
46796W        W19122  29.233  33.377   4.975
46797W        W19123  11.041   1.351   0.311
46798W        W19124  16.084  28.147   2.384
46799W        W19125  25.081  42.842  11.690
46800W        W19126   4.339  18.552   0.551
46801W        W19127  22.214   1.365  11.150
46802W        W19128  13.390  39.822   2.937
46803W        W19129   7.713   6.777   1.765
46804W        W19130  18.263   4.409  13.422
46805W        W19131  15.227  16.823  11.425
46806W        W19132  39.522  16.744   0.907
46807W        W19133  17.114  38.790   4.556
46808W        W19134   6.918  28.419   3.818
46809W        W19135  21.076  42.583   1.136
46810W        W19136  11.859  19.840   3.086
46811W        W19137   0.838   3.492  12.976
46812W        W19138  16.587  19.560  14.910
46813W        W19139  36.592  34.552   2.650
46814W        W19140  33.952  26.960  14.092
46815W        W19141  22.188  12.083  13.513
46816W        W19142  42.463  43.502   2.670
46817W        W19143  30.943  38.300   1.571
46818W        W19144  11.512  41.997  12.570
46819W        W19145  13.857  30.705   2.209
46820W        W19146  19.807  16.189  13.814
46821W        W19147  35.092  39.862  12.450
46822W        W19148  23.997  36.208   3.051
46823W        W19149  10.649  10.364   0.644
46824W        W19150  35.140  26.176   2.250
46825W        W19151   0.029  11.795  11.699
46826W        W19152   1.277  30.964  10.736
46827W        W19153  37.063  15.864   3.217
46828W        W19154  23.602  16.088  13.518
46829W        W19155  31.085  13.375  11.528
46830W        W19156   7.691   5.948   3.745
46831W        W19157  29.972  33.283   2.645
46832W        W19158  21.399  33.431   5.083
46833W        W19159  44.232  21.271  12.870
46834W        W19160  28.879  44.459   2.139
46835W        W19161   5.287   2.860   4.867
46836W        W19162   3.958  28.528  13.041
46837W        W19163  40.029  21.127  12.379
46838W        W19164  17.049  34.402  14.736
46839W        W19165  36.558  15.102  14.454
46840W        W19166  13.790   6.275  10.702
46841W        W19167   4.092  40.902  11.341
46842W        W19168  22.481  42.886  14.469
46843W        W19169  35.007  41.477  11.266
46844W        W19170  16.743   4.981   2.110
46845W        W19171   8.139  29.622   1.289
46846W        W19172  36.624  33.223  13.172
46847W        W19173  38.766   9.343  13.834
46848W        W19174   1.676  17.572  12.672
46849W        W19175  40.884  44.811  13.190
46850W        W19176   1.939  43.799   0.840
46851W        W19177  33.532   7.410   0.410
46852W        W19178  33.659   3.362  11.555
46853W        W19179  40.361   7.192   2.421
46854W        W19180  31.557   2.265   0.538
46855W        W19181  34.533  22.287  10.747
46856W        W19182  37.189  15.677   1.771
46857W        W19183  20.481  41.615  11.930
46858W        W19184  17.281  39.402   0.497
46859W        W19185  21.743  27.431   1.393
46860W        W19186  23.983  10.456   3.172
46861W        W19187  18.530   3.541   0.802
46862W        W19188  19.472  23.106   2.945
46863W        W19189  25.152  39.399   5.078
46864W        W19190  12.290  29.916  11.083
46865W        W19191  33.955   2.060  14.832
46866W        W19192   1.607  19.846   1.839
46867W        W19193  40.729  19.444   0.458
46868W        W19194  28.115   5.974   4.746
46869W        W19195  25.027  27.183  14.383
46870W        W19196  43.797  30.497  13.029
46871W        W19197  12.338  29.619   1.012
46872W        W19198  42.189  12.838   4.824
46873W        W19199  31.338   6.399  13.444
46874W        W19200   2.752  27.679  11.171
46875W        W19201  10.037   4.719   1.919
46876W        W19202  26.647   5.710  14.971
46877W        W19203  37.259   1.476  12.476
46878W        W19204   1.234  11.818   0.826
46879W        W19205  44.708  17.052  14.812
46880W        W19206   3.730  11.457  12.514
46881W        W19207  10.831  13.819  13.278
46882W        W19208  41.064  17.197   2.161
46883W        W19209  22.051   4.987  13.520
46884W        W19210  27.613  26.964  13.752
46885W        W19211  13.334  25.045  11.887
46886W        W19212  21.180  11.788   3.837
46887W        W19213   3.527  20.826  13.776
46888W        W19214  20.085   9.734  10.945
46889W        W19215   9.623   1.209  12.953
46890W        W19216  21.590  41.869   4.919
46891W        W19217  31.351  30.428  14.351
46892W        W19218  30.640  28.048  11.237
46893W        W19219  31.918  30.894  12.920
46894W        W19220  39.954  42.153  14.312
46895W        W19221  38.767  31.942   4.586
46896W        W19222  41.007  37.331   0.333
46897W        W19223   5.174  36.658  10.643
46898W        W19224  19.294  35.186  11.111
46899W        W19225  21.937  18.688  11.085
46900W        W19226   1.593   4.328   0.177
46901W        W19227  27.894  28.994  11.671
46902W        W19228  33.777  40.289   1.452
46903W        W19229  22.096  26.185  14.762
46904W        W19230  38.802   1.244   1.873
46905W        W19231  39.716  37.106   4.458
46906W        W19232  26.655  29.919  14.998
46907W        W19233  38.316  28.641  14.317
46908W        W19234  17.813  37.433   0.449
46909W        W19235  37.443  20.288   4.923
46910W        W19236  22.248  28.504   4.373
46911W        W19237   9.165   0.671  14.946
46912W        W19238  12.652   2.867   2.244
46913W        W19239  29.554  19.304  10.944
46914W        W19240  25.215  18.679  12.084
46915W        W19241   6.652  28.221   4.296
46916W        W19242  41.958  34.520   0.961
46917W        W19243  14.633  16.338  12.059
46918W        W19244  22.487  28.049  14.867
46919W        W19245  30.876  32.585   3.776
46920W        W19246   8.685  13.083  11.147
46921W        W19247  20.570  17.564   3.829
46922W        W19248  32.471  31.399   1.411
46923W        W19249  23.168  27.523  13.903
46924W        W19250  20.065  16.073   3.247
46925W        W19251   3.769  22.579  11.118
46926W        W19252   9.241   1.969   1.259
46927W        W19253  23.028  35.469   4.877
46928W        W19254  37.411  14.207  13.305
46929W        W19255   7.442  10.284   1.828
46930W        W19256  27.073  40.782  13.897
46931W        W19257  17.759  32.064   2.966
46932W        W19258  32.830   6.861   0.916
46933W        W19259  28.961  23.739  14.531
46934W        W19260  12.455  43.780   3.150
46935W        W19261  16.090  14.324  10.096
46936W        W19262  32.889  37.876   0.463
46937W        W19263  10.858   4.798   0.478
46938W        W19264   6.853  36.379   4.637
46939W        W19265   7.295   4.034  14.500
46940W        W19266  28.822   6.234   2.300
46941W        W19267  44.457  18.614  13.074
46942W        W19268  16.299  18.643  11.148
46943W        W19269  44.931  15.776  13.109
46944W        W19270  16.606  21.025  12.064
46945W        W19271  26.072  15.285  12.152
46946W        W19272  22.245  30.941   1.894
46947W        W19273   4.853   9.584   3.682
46948W        W19274   2.406  36.591   0.710
46949W        W19275   5.408  31.366   4.143
46950W        W19276  27.822  18.719  10.689
46951W        W19277  30.095   6.925   3.820
46952W        W19278  36.852   7.926   1.781
46953W        W19279  41.965  34.921   4.275
46954W        W19280   0.898  40.906  10.813
46955W        W19281   9.339  10.548   2.834
46956W        W19282  12.215   2.446   4.074
46957W        W19283  12.318  18.541  13.990
46958W        W19284  16.793  34.162   0.727
46959W        W19285  22.140  16.213  12.100
46960W        W19286   3.742  37.429   4.065
46961W        W19287  42.904   9.991   1.049
46962W        W19288  44.948   4.188   2.984
46963W        W19289  39.927  34.178  13.608
46964W        W19290  28.434  12.195   4.701
46965W        W19291  41.953  21.225   5.006
46966W        W19292  11.664  28.145  11.313
46967W        W19293  18.051  22.124   4.935
46968W        W19294  11.641  15.332   0.275
46969W        W19295  21.600  40.882   0.725
46970W        W19296   5.304  10.816  14.521
46971W        W19297  26.138  26.671   5.096
46972W        W19298  13.558  32.023   4.600
46973W        W19299  25.321  23.534  12.303
46974W        W19300  20.926  16.821   0.432
46975W        W19301  36.395  40.359  14.810
46976W        W19302  24.226  15.128   3.509
46977W        W19303  12.527  14.140   3.638
46978W        W19304  25.684  35.135   0.849
46979W        W19305  27.902  11.234  11.186
46980W        W19306  31.932  26.555   3.162
46981W        W19307   5.444   9.765  12.017
46982W        W19308  30.640  16.978   0.742
46983W        W19309  26.720  11.325   2.195
46984W        W19310   1.314  20.426  11.205
46985W        W19311  41.996  26.112  13.956
46986W        W19312  27.074  29.060  10.339
46987W        W19313  43.075   1.912   0.241
46988W        W19314  31.613  42.652  12.859
46989W        W19315  32.338   9.302  11.154
46990W        W19316   5.924  24.681  14.546
46991W        W19317   0.642  30.957   1.884
46992W        W19318  28.916  40.165  12.989
46993W        W19319  12.642   8.790  13.003
46994W        W19320   7.656   5.185  14.376
46995W        W19321  22.249  42.779   0.069
46996W        W19322  21.590  14.653   2.729
46997W        W19323  33.715   3.212   1.282
46998W        W19324  30.138  26.188   5.098
46999W        W19325  42.953   6.860  13.525
47000W        W19326   5.316   6.725   4.420
47001W        W19327  35.930  44.378   1.881
47002W        W19328  37.534  36.218   4.343
47003W        W19329   4.647   7.375  12.017
47004W        W19330   1.868  19.284   2.646
47005W        W19331  43.775  16.786   4.638
47006W        W19332  16.172   5.147  11.743
47007W        W19333  25.996  21.962  10.564
47008W        W19334  35.343  40.213   0.883
47009W        W19335   2.753  44.710   1.120
47010W        W19336  35.146  14.773  14.336
47011W        W19337  31.353  28.677   3.249
47012W        W19338   4.990  10.823  11.592
47013W        W19339   3.990  44.965  13.444
47014W        W19340   7.365  43.662   5.015
47015W        W19341  16.133  38.368   1.797
47016W        W19342   1.425  28.981   1.729
47017W        W19343  19.511  13.939   3.275
47018W        W19344  14.845  33.507   1.658
47019W        W19345  42.315  19.623  14.778
47020W        W19346  41.056  12.206   1.195
47021W        W19347   4.718  14.038  14.893
47022W        W19348   5.444  14.989   3.626
47023W        W19349   8.453   6.893  13.449
47024W        W19350  18.299  13.672   1.363
47025W        W19351  42.511  27.697  13.370
47026W        W19352  35.857  35.626   4.114
47027W        W19353  21.974   6.642   4.206
47028W        W19354  34.971   2.847  12.646
47029W        W19355   5.085  12.941  12.551
47030W        W19356  36.880  13.860   2.349
47031W        W19357  38.785  19.457  13.592
47032W        W19358  27.118  27.266  12.512
47033W        W19359   2.221   9.396   3.713
47034W        W19360  26.952  13.224   0.282
47035W        W19361   3.631  41.547   4.393
47036W        W19362  25.336  17.062  11.917
47037W        W19363  26.522  11.025   1.827
47038W        W19364  12.461  37.290  14.481
47039W        W19365  15.973  20.856  11.505
47040W        W19366  14.647  17.509  12.859
47041W        W19367  12.117   1.792   2.655
47042W        W19368  17.152  34.675   3.848
47043W        W19369   2.994  30.621   0.509
47044W        W19370  18.158  11.161   0.733
47045W        W19371  42.176  40.818   2.839
47046W        W19372   4.723  10.642   2.428
47047W        W19373  40.954  25.383  12.894
47048W        W19374   9.270  16.937   0.430
47049W        W19375   1.537  35.239   2.903
47050W        W19376  16.969  39.984   1.699
47051W        W19377   3.484   6.389   1.347
47052W        W19378  22.143   3.244  11.461
47053W        W19379  29.971   6.035  13.128
47054W        W19380  10.137  10.373   4.133
47055W        W19381  25.746  22.427  13.959
47056W        W19382  21.792  36.017  12.034
47057W        W19383  17.854  19.186  13.445
47058W        W19384  34.101   9.772   4.120
47059W        W19385  44.900  25.804  11.639
47060W        W19386   2.240  18.614   3.914
47061W        W19387  10.151  44.211   2.668
47062W        W19388  15.305  23.397  13.480
47063W        W19389   4.974  35.379   3.388
47064W        W19390  17.851  27.964  11.604
47065W        W19391  15.530  13.919  11.157
47066W        W19392   4.346  33.904   2.329
47067W        W19393   2.700  27.100   1.664
47068W        W19394  44.424  42.006  10.213
47069W        W19395   4.424  30.189   2.681
47070W        W19396  32.345  30.597   3.376
47071W        W19397  16.615   0.684   1.496
47072W        W19398  15.497  10.655   3.675
47073W        W19399  19.463  21.804  11.494
47074W        W19400   9.880  24.536   1.810
47075W        W19401  23.504   0.394   3.617
47076W        W19402  40.348  35.777   1.377
47077W        W19403  18.158  42.166  11.480
47078W        W19404  39.081  43.045  13.938
47079W        W19405   5.117  28.984   4.266
47080W        W19406  24.304  38.420  13.853
47081W        W19407  16.430  25.692   3.598
47082W        W19408  30.911  21.177   2.415
47083W        W19409   1.172  33.018  14.381
47084W        W19410  12.879  41.783   3.775
47085W        W19411  43.823  12.878  11.969
47086W        W19412   0.981  13.904  10.705
47087W        W19413  27.440   1.222  13.061
47088W        W19414  21.978  13.159  10.469
47089W        W19415  29.960  43.637   0.710
47090W        W19416  24.524  14.439  10.166
47091W        W19417   9.877  11.790   0.440
47092W        W19418   1.007  17.785   2.145
47093W        W19419  29.535  16.095   4.835
47094W        W19420  20.282  41.182  11.579
47095W        W19421  27.728  16.254   4.079
47096W        W19422   6.202   1.505  10.780
47097W        W19423   5.727  39.762   3.715
47098W        W19424  19.781  19.491  14.486
47099W        W19425  24.795   5.436  14.412
47100W        W19426   5.844   7.888   2.181
47101W        W19427  38.270  17.098   2.682
47102W        W19428  44.501  29.061   3.861
47103W        W19429   8.658   2.890  11.095
47104W        W19430  31.908   8.745  14.486
47105W        W19431  36.700  11.268  13.455
47106W        W19432  41.117   9.626  12.024
47107W        W19433  10.343  17.048  12.865
47108W        W19434  42.279  16.465  12.505
47109W        W19435  16.695  35.884   3.869
47110W        W19436  21.371  39.001   2.136
47111W        W19437  32.890  31.742  13.980
47112W        W19438   3.606   0.138   2.725
47113W        W19439  21.439  17.717   2.259
47114W        W19440  30.977   7.900  14.521
47115W        W19441  41.544  32.451   1.487
47116W        W19442  16.507  42.560  14.536
47117W        W19443  12.392  23.649  14.294
47118W        W19444  12.543  24.767  13.919
47119W        W19445  13.183  43.535  10.793
47120W        W19446  11.701  17.269   3.754
47121W        W19447  39.917  41.561   1.283
47122W        W19448  29.493  41.983  10.809
47123W        W19449   9.103  33.930  10.717
47124W        W19450  35.494   9.478   3.272
47125W        W19451  31.396   2.242  10.577
47126W        W19452  38.890  16.873   4.606
47127W        W19453  30.603  36.572   1.265
47128W        W19454  23.177  25.055  11.913
47129W        W19455   8.269  20.455   2.218
47130W        W19456  24.110  41.021   1.530
47131W        W19457  36.555   5.382  14.768
47132W        W19458  27.973  28.483   0.940
47133W        W19459   8.373  24.471   4.946
47134W        W19460  41.638  25.615  11.071
47135W        W19461  29.930  28.003   1.842
47136W        W19462  11.679  22.378   2.178
47137W        W19463   4.539  43.204  12.375
47138W        W19464  32.406  41.560  13.124
47139W        W19465  17.316  18.378  12.055
47140W        W19466  12.277  20.818   4.955
47141W        W19467  11.363  20.597  10.744
47142W        W19468  10.316  16.925  14.912
47143W        W19469  14.089   0.383   0.906
47144W        W19470  18.414   3.441   4.098
47145W        W19471   0.401  36.102   2.273
47146W        W19472   0.001  39.939  13.095
47147W        W19473  10.908  34.830   1.192
47148W        W19474  12.156  24.439  11.550
47149W        W19475  39.757  12.527  11.549
47150W        W19476  17.372  27.169  11.976
47151W        W19477  38.819  32.797   0.429
47152W        W19478  18.752  22.664   2.331
47153W        W19479  19.587  27.389   2.811
47154W        W19480  35.651  21.965   4.364
47155W        W19481   6.624  21.765  11.702
47156W        W19482   5.218  18.938  13.185
47157W        W19483  28.091  44.797  12.411
47158W        W19484  13.424  40.039  12.823
47159W        W19485  24.056  36.207  14.629
47160W        W19486  13.827  33.391   0.465
47161W        W19487   7.285  42.171   5.086
47162W        W19488  44.722  38.578   1.312
47163W        W19489  14.292  33.479  10.365
47164W        W19490  24.764  43.577  12.181
47165W        W19491  27.429  43.978  14.509
47166W        W19492   6.722   0.747  11.889
47167W        W19493  28.341  36.964   3.147
47168W        W19494  14.106  31.405  11.074
47169W        W19495   4.047  16.892   0.194
47170W        W19496   1.093  28.027   1.491
47171W        W19497  40.801   7.857   0.839
47172W        W19498   9.816  35.417  14.787
47173W        W19499  32.123  20.554  11.519
47174W        W19500  15.696   2.796  10.563
47175W        W19501   4.683   0.490   4.158
47176W        W19502  40.477  19.241   4.728
47177W        W19503  16.528   8.312   2.306
47178W        W19504  18.711   4.069  12.454
47179W        W19505  41.960  26.682   0.826
47180W        W19506  40.270  43.135  14.411
47181W        W19507  44.346  29.489  13.424
47182W        W19508  23.628  24.763   0.833
47183W        W19509  32.361  30.656  14.389
47184W        W19510  15.902  19.241   2.721
47185W        W19511  11.958  36.544  14.960
47186W        W19512   3.799  20.720  10.630
47187W        W19513   2.624  18.208  13.432
47188W        W19514  42.576   7.041  14.753
47189W        W19515  43.253  37.877  11.125
47190W        W19516  14.776  20.475   4.807
47191W        W19517  41.535  16.401  11.983
47192W        W19518  11.695  30.968  13.872
47193W        W19519  28.626   8.320   0.148
47194W        W19520   1.454  10.374   5.445
47195W        W19521  20.985  35.552   0.369
47196W        W19522  35.954  24.783  12.502
47197W        W19523  24.379  30.972  14.194
47198W        W19524  35.285  19.205  11.621
47199W        W19525   1.115  42.857   1.430
47200W        W19526  23.515  42.265  13.910
47201W        W19527  40.102  30.613   1.540
47202W        W19528  31.837   3.302  10.063
47203W        W19529  18.872   1.918  13.855
47204W        W19530  31.472   5.843  12.021
47205W        W19531  21.153  34.034   1.816
47206W        W19532  22.012  30.418   0.357
47207W        W19533   4.950   0.282  10.049
47208W        W19534  22.070  12.718  10.734
47209W        W19535  40.003   2.781   1.173
47210W        W19536  22.872  21.732   1.033
47211W        W19537  24.602  25.662  14.497
47212W        W19538   0.595  44.326  12.575
47213W        W19539  41.793  12.756   3.725
47214W        W19540  27.906   8.077  12.977
47215W        W19541  44.381  40.333   1.374
47216W        W19542  39.948   5.895  14.684
47217W        W19543  36.553   7.211  10.632
47218W        W19544  25.193  18.022   1.831
47219W        W19545   9.377  28.540   4.151
47220W        W19546   4.830  35.664   0.376
47221W        W19547   6.524   6.728  11.090
47222W        W19548  39.266  16.706   2.835
47223W        W19549   9.340  18.396   0.484
47224W        W19550   1.958  32.907   2.894
47225W        W19551  12.239  12.399   2.238
47226W        W19552  23.098  37.582   1.409
47227W        W19553  32.060  43.248  14.840
47228W        W19554  43.785  36.888   1.902
47229W        W19555  40.460   5.792  14.837
47230W        W19556  11.794   8.760   3.614
47231W        W19557  17.993   3.906   1.861
47232W        W19558  29.418  39.082   0.302
47233W        W19559  34.552  44.531   2.405
47234W        W19560   5.476  12.282   3.797
47235W        W19561  11.971  16.697   0.123
47236W        W19562  21.750  37.533  11.121
47237W        W19563  24.173   0.517  10.751
47238W        W19564  34.955  23.547  14.604
47239W        W19565  10.312  32.880  13.986
47240W        W19566   2.663   8.842   1.759
47241W        W19567  42.969  17.744  12.983
47242W        W19568  22.632   6.251   0.488
47243W        W19569  14.403  22.800  13.428
47244W        W19570  21.788  31.614  10.720
47245W        W19571   5.677  44.152  13.527
47246W        W19572   9.491   7.896   2.208
47247W        W19573   5.406  28.970   4.702
47248W        W19574  14.865  34.468  13.062
47249W        W19575  31.199  35.095   4.695
47250W        W19576   9.846   2.656   4.385
47251W        W19577  10.313   3.874  12.765
47252W        W19578  27.661  25.254  10.195
47253W        W19579  27.152  42.964  11.228
47254W        W19580  32.927  31.070  10.849
47255W        W19581  26.138  43.921  13.594
47256W        W19582  11.115  33.896  13.889
47257W        W19583  27.538  36.720  13.375
47258W        W19584  39.987   0.679  14.162
47259W        W19585  23.647  18.689   4.530
47260W        W19586  35.316  39.220   0.919
47261W        W19587  19.797  22.305  11.296
47262W        W19588  30.018   0.050  11.593
47263W        W19589  25.283  44.318  10.790
47264W        W19590  11.809  25.198  14.392
47265W        W19591  31.918  33.450  12.866
47266W        W19592  31.612   5.819   2.163
47267W        W19593  17.674  13.331   4.619
47268W        W19594  43.542  41.022   0.236
47269W        W19595  24.394  24.292   3.648
47270W        W19596  26.929  42.989  11.725
47271W        W19597   6.462  23.733  12.432
47272W        W19598  28.463   3.250  12.828
47273W        W19599  13.074  13.333  12.615
47274W        W19600  11.245  18.635   3.770
47275W        W19601  36.382  29.781   0.626
47276W        W19602  37.110  31.428  13.657
47277W        W19603   5.275  21.682  11.476
47278W        W19604  31.929  38.835  12.599
47279W        W19605  18.194  34.621   1.793
47280W        W19606  30.891  28.774  10.252
47281W        W19607  17.797  37.321   3.925
47282W        W19608  31.435  37.536  10.625
47283W        W19609  20.855  29.490  12.146
47284W        W19610  42.259   3.181   3.600
47285W        W19611  11.279  27.154   4.588
47286W        W19612   9.251   1.738  14.393
47287W        W19613   8.803  22.304  14.359
47288W        W19614   5.205  24.968   3.335
47289W        W19615  24.036   1.361  11.154
47290W        W19616  37.459  29.459   0.320
47291W        W19617   9.250   1.329  10.573
47292W        W19618  18.213  10.937   2.287
47293W        W19619   1.351  34.518   3.395
47294W        W19620   3.019   7.717   1.149
47295W        W19621  37.090  13.823  11.622
47296W        W19622  27.956  15.236  14.283
47297W        W19623  24.310   8.806   1.874
47298W        W19624  25.048  17.199   1.309
47299W        W19625  27.606  40.434   3.589
47300W        W19626  11.375  28.654   0.779
47301W        W19627  30.193  14.084  10.730
47302W        W19628  21.719  40.592  13.759
47303W        W19629  37.314   3.928   3.851
47304W        W19630  23.612   7.453  12.472
47305W        W19631  11.235  25.975   5.505
47306W        W19632  41.852  39.468   2.134
47307W        W19633  40.874   2.468   2.852
47308W        W19634   9.184  26.640  11.300
47309W        W19635  11.378   4.329  11.553
47310W        W19636  42.469  27.920  11.158
47311W        W19637   6.640  16.109  11.699
47312W        W19638  15.096  20.656   3.830
47313W        W19639  30.942  44.946   0.244
47314W        W19640  18.976  42.805   4.079
47315W        W19641  33.175   4.355  13.895
47316W        W19642  27.148  24.885  13.459
47317W        W19643   2.444   4.187  14.442
47318W        W19644  30.960  13.691   0.906
47319W        W19645  41.019  17.735   0.006
47320W        W19646  10.825   9.622  12.091
47321W        W19647  26.039   9.555  11.007
47322W        W19648  21.949  40.346  11.298
47323W        W19649  43.946   5.983  12.018
47324W        W19650  20.558  30.548  13.544
47325W        W19651  18.960  11.366  14.772
47326W        W19652   2.712  12.266  10.096
47327W        W19653  27.478  14.744   1.894
47328W        W19654  21.062  27.912  13.842
47329W        W19655  11.985  30.451   1.216
47330W        W19656  27.694  19.437  12.037
47331W        W19657  12.431  24.410   1.917
47332W        W19658  32.569   6.920   0.479
47333W        W19659  28.849  30.053  10.729
47334W        W19660  31.567  21.469  10.651
47335W        W19661  22.257  23.696  14.507
47336W        W19662  41.249  43.848  12.043
47337W        W19663  28.116  28.769   9.838
47338W        W19664  35.545  14.487  11.523
47339W        W19665   6.496  32.279   3.382
47340W        W19666   9.366  27.579  11.427
47341W        W19667  16.534  41.059   0.441
47342W        W19668   4.211  40.444   2.259
47343W        W19669  22.416  22.777  12.063
47344W        W19670  18.267  12.238   1.768
47345W        W19671  30.408   6.942  11.087
47346W        W19672  33.641  41.559  11.265
47347W        W19673   7.449  27.608   0.958
47348W        W19674  34.917  14.959  11.054
47349W        W19675  19.387  11.769   4.971
47350W        W19676  42.893  37.514  12.679
47351W        W19677  33.369  13.092   2.302
47352W        W19678   8.487  40.596  12.072
47353W        W19679  39.394  39.781  11.505
47354W        W19680   2.004  42.374   1.937
47355W        W19681  44.845  43.235  14.683
47356W        W19682  33.524  14.751   0.809
47357W        W19683   1.461  22.334   3.113
47358W        W19684   2.860  21.747   3.657
47359W        W19685   2.012   0.303   1.986
47360W        W19686  23.310  24.047  12.109
47361W        W19687  42.288  26.045   4.273
47362W        W19688  34.453  17.360  13.914
47363W        W19689  43.820   9.620   2.119
47364W        W19690   9.229  40.231   1.313
47365W        W19691  31.059   2.075   0.417
47366W        W19692   4.807  38.343   1.606
47367W        W19693  30.177  43.366  12.050
47368W        W19694  29.032  42.320   2.805
47369W        W19695  38.809  24.133  12.056
47370W        W19696   9.637  44.036   1.862
47371W        W19697  37.384  33.014  13.998
47372W        W19698  24.695  16.270   3.159
47373W        W19699  24.211  21.324  12.105
47374W        W19700  16.354  28.007  12.646
47375W        W19701  27.635  12.435  14.060
47376W        W19702  43.857  33.631   3.790
47377W        W19703  17.702  11.276  14.294
47378W        W19704  42.790  35.029   4.627
47379W        W19705  30.503  14.093   4.108
47380W        W19706  34.592  42.082  14.321
47381W        W19707  42.564  38.916  13.967
47382W        W19708  38.971  42.052   3.602
47383W        W19709  39.471  19.511   0.796
47384W        W19710  34.763  21.297   4.376
47385W        W19711   1.823  29.382   2.398
47386W        W19712   2.259  34.210   1.781
47387W        W19713  11.734  18.089   2.703
47388W        W19714  14.611   9.250   4.635
47389W        W19715  44.288   7.149   4.621
47390W        W19716  23.911   2.288   4.215
47391W        W19717  14.187   0.857   2.165
47392W        W19718  10.907  13.615  11.074
47393W        W19719  40.933  35.293   2.476
47394W        W19720  19.236  41.514   3.406
47395W        W19721   5.170  36.717   4.146
47396W        W19722  36.975  24.233   0.276
47397W        W19723   6.775   3.199  12.991
47398W        W19724   7.329  20.138  14.362
47399W        W19725  35.732  40.281   4.962
47400W        W19726   4.957  16.241   1.736
47401W        W19727  28.484  16.722   2.880
47402W        W19728  44.421  27.595  13.133
47403W        W19729  17.679   1.271  11.157
47404W        W19730  25.716  42.299   0.918
47405W        W19731  37.886  29.125  13.226
47406W        W19732  25.087  31.869  14.815
47407W        W19733  28.019  34.945  10.462
47408W        W19734  40.394  33.861  11.868
47409W        W19735  17.145   7.772   4.984
47410W        W19736  17.830  43.988   2.767
47411W        W19737   1.217  21.996  13.521
47412W        W19738  28.148  23.185  14.426
47413W        W19739  33.154   0.339   1.170
47414W        W19740  38.389   9.151  14.129
47415W        W19741  40.249  36.913   0.292
47416W        W19742  34.349  43.032  10.647
47417W        W19743  43.005  13.183  12.838
47418W        W19744  24.896  10.144   0.889
47419W        W19745  21.250  20.625  14.519
47420W        W19746  18.572  37.161   3.334
47421W        W19747  44.853  32.678   1.377
47422W        W19748  43.436   3.376  13.527
47423W        W19749   2.837  37.368   3.711
47424W        W19750  38.737  44.868  12.088
47425W        W19751  34.478  28.900   0.387
47426W        W19752  16.354  40.966   2.620
47427W        W19753  27.493   1.134  10.882
47428W        W19754   5.224  21.799   1.746
47429W        W19755  38.738   8.156  12.539
47430W        W19756  18.684   9.544  14.865
47431W        W19757  19.974   7.632   0.252
47432W        W19758   6.870  26.855   4.536
47433W        W19759  28.362  34.368   4.209
47434W        W19760   1.878  30.366  12.356
47435W        W19761   9.606   0.342  12.921
47436W        W19762  30.974  36.144   4.551
47437W        W19763  44.932  18.019   2.739
47438W        W19764  43.309   0.099   1.320
47439W        W19765   8.176   1.342  11.644
47440W        W19766  21.099  24.361   3.617
47441W        W19767   0.808  23.805  11.717
47442W        W19768  40.716  30.598  14.957
47443W        W19769  39.119  18.752  12.495
47444W        W19770  29.966  33.883  14.326
47445W        W19771  33.358  33.776   2.267
47446W        W19772  20.829  14.176  12.599
47447W        W19773  40.833   1.840   4.071
47448W        W19774   7.860  37.573  12.656
47449W        W19775  16.545   5.892  10.783
47450W        W19776  44.446  18.621   3.244
47451W        W19777  15.763  44.479   3.282
47452W        W19778  21.793  17.902   3.144
47453W        W19779   7.124  21.112   3.819
47454W        W19780  25.031   9.253   3.934
47455W        W19781  21.088  27.710  11.905
47456W        W19782  33.353  39.891   4.907
47457W        W19783  13.822  35.652  13.724
47458W        W19784  16.664  19.070  14.699
47459W        W19785  15.680  29.992   1.731
47460W        W19786  20.101  42.967   3.917
47461W        W19787  30.379  30.209   3.879
47462W        W19788   0.426  42.119   0.909
47463W        W19789  40.287  13.792   4.239
47464W        W19790  32.869  37.476   3.678
47465W        W19791  20.835   7.439   1.094
47466W        W19792  40.819  22.513   0.315
47467W        W19793  15.642  44.687  14.513
47468W        W19794  12.744  15.119   3.615
47469W        W19795  10.747  17.829  12.518
47470W        W19796  40.415  38.945   3.726
47471W        W19797  15.122  11.071   1.917
47472W        W19798  27.523  23.997  13.488
47473W        W19799  29.466   4.674  11.202
47474W        W19800  35.892  34.904  11.459
47475W        W19801  19.010   5.598  11.782
47476W        W19802  44.576  20.816   1.438
47477W        W19803   3.163  30.986   4.109
47478W        W19804  26.704  28.570   2.109
47479W        W19805  39.023   4.887  10.807
47480W        W19806   8.369  24.439   3.975
47481W        W19807  34.637  26.133   0.190
47482W        W19808  36.583  31.545   4.244
47483W        W19809  10.460  20.191  12.049
47484W        W19810  44.767  25.107   4.588
47485W        W19811  11.231   9.636   4.550
47486W        W19812  26.965  29.587   4.285
47487W        W19813   7.360  13.893   1.268
47488W        W19814  37.537  27.530  11.438
47489W        W19815  42.804  27.559   1.458
47490W        W19816   8.634  36.807   1.864
47491W        W19817  16.827  33.160   0.696
47492W        W19818  29.251  25.279   2.777
47493W        W19819  14.765  10.550  14.428
47494W        W19820  13.208   5.906  11.168
47495W        W19821  11.949  15.041  14.867
47496W        W19822  13.079   7.736   4.563
47497W        W19823   1.674  19.070   3.859
47498W        W19824  13.746  19.600  10.580
47499W        W19825   9.543  26.945   3.095
47500W        W19826  38.964  39.113  13.277
47501W        W19827  17.552   6.889  11.578
47502W        W19828   2.164  14.372  11.065
47503W        W19829  16.492  17.173  14.867
47504W        W19830  42.332  13.894  13.082
47505W        W19831  18.626  31.863  12.415
47506W        W19832   3.795   7.364   5.044
47507W        W19833  17.600  34.992   2.302
47508W        W19834  19.535   0.704  13.883
47509W        W19835   6.333  41.759   1.705
47510W        W19836  14.170   2.399  14.321
47511W        W19837  21.545  25.407  12.998
47512W        W19838  15.825  33.598  12.759
47513W        W19839  43.881  41.890  12.005
47514W        W19840  23.144   7.446   2.696
47515W        W19841  43.750  16.563  12.406
47516W        W19842  32.720  43.971   4.060
47517W        W19843  38.121  36.954  12.406
47518W        W19844   2.031  30.497   3.569
47519W        W19845  38.957  20.218   3.600
47520W        W19846   9.929  23.618   4.416
47521W        W19847  15.054   7.865  14.910
47522W        W19848  25.275  43.528  12.170
47523W        W19849   2.566   0.325   1.715
47524W        W19850  43.712  11.424  10.999
47525W        W19851  17.066  33.884  12.986
47526W        W19852  35.463  34.939   1.718
47527W        W19853  42.772  23.645   0.451
47528W        W19854  31.671  41.960   1.479
47529W        W19855   0.685  40.477   1.323
47530W        W19856  21.458  12.387   3.606
47531W        W19857  42.708  21.756   0.304
47532W        W19858  23.127  40.494   2.745
47533W        W19859  33.134  10.641  10.941
47534W        W19860  18.320   5.858  13.594
47535W        W19861  17.794  40.395  14.786
47536W        W19862  35.227  33.828   1.908
47537W        W19863  34.437  27.946   0.415
47538W        W19864  15.756   0.803   1.742
47539W        W19865  15.101   1.004   0.022
47540W        W19866   8.690  23.517  10.423
47541W        W19867  30.871  27.563   2.215
47542W        W19868  34.909   4.141   3.054
47543W        W19869   1.955   3.881   1.951
47544W        W19870  42.745  42.859  14.353
47545W        W19871  30.989   3.061  12.861
47546W        W19872  18.486   0.410   3.822
47547W        W19873  15.156  42.744  13.151
47548W        W19874  39.889  15.606  12.485
47549W        W19875  20.939  12.843   4.498
47550W        W19876  30.085   7.918  13.526
47551W        W19877   7.773  33.837   1.378
47552W        W19878  43.153  34.611   1.685
47553W        W19879  35.495  19.803   2.321
47554W        W19880   2.232  43.814  14.883
47555W        W19881  21.300  29.837   3.820
47556W        W19882  14.743   5.189  14.791
47557W        W19883  36.048   1.457   2.573
47558W        W19884  17.796  36.858  13.071
47559W        W19885  38.392  12.110  10.235
47560W        W19886  11.638  22.186  14.534
47561W        W19887  16.630  28.000  14.992
47562W        W19888   1.275   8.217  10.668
47563W        W19889  35.122  21.071   3.435
47564W        W19890  10.927  39.806  10.909
47565W        W19891   4.940  34.521  11.960
47566W        W19892  25.325  28.247   2.810
47567W        W19893  26.154  36.548   1.789
47568W        W19894   8.374   9.821   3.175
47569W        W19895  22.812  44.333   2.415
47570W        W19896  19.745  42.241   3.401
47571W        W19897  41.862  27.122   1.436
47572W        W19898   6.167   0.739   1.623
47573W        W19899  15.833  13.665   0.776
47574W        W19900   5.398  40.912  11.676
47575W        W19901  43.297  35.023   3.870
47576W        W19902  39.573  20.641  10.891
47577W        W19903  14.313  23.315  13.481
47578W        W19904  23.057  43.982  13.724
47579W        W19905  36.984   3.698  12.044
47580W        W19906  41.448  16.175   0.436
47581W        W19907  19.568  11.850   0.180
47582W        W19908   9.247  33.639   1.977
47583W        W19909  38.869   7.744   0.016
47584W        W19910  44.006  22.302  14.789
47585W        W19911  27.484  20.776   1.781
47586W        W19912  24.069  39.405   5.637
47587W        W19913  18.029  40.594   0.494
47588W        W19914   0.967  34.823  10.294
47589W        W19915  12.862  18.587   2.179
47590W        W19916  41.821  13.850  12.974
47591W        W19917  31.156  41.356  10.600
47592W        W19918  34.876   8.803   3.256
47593W        W19919  17.930  39.065  10.694
47594W        W19920  25.643  40.031   0.084
47595W        W19921   8.872  30.525  13.490
47596W        W19922  17.871  30.164   2.957
47597W        W19923  39.097  34.055   0.749
47598W        W19924  13.842  31.636   1.459
47599W        W19925   3.964  25.405  14.246
47600W        W19926   5.305   6.687   2.476
47601W        W19927   1.094  10.295   2.608
47602W        W19928  38.083  30.643  11.579
47603W        W19929  14.806  12.891   0.189
47604W        W19930  11.157  38.007   2.289
47605W        W19931  44.985   0.099   1.822
47606W        W19932   1.920  22.003   4.200
47607W        W19933  39.431  35.527  12.621
47608W        W19934   5.273   8.003  13.049
47609W        W19935  23.468  36.935   3.253
47610W        W19936   1.312  31.943  11.924
47611W        W19937  31.939  37.326  10.427
47612W        W19938  14.567   8.976  13.396
47613W        W19939  20.208  11.057  12.513
47614W        W19940  14.661  30.003   1.531
47615W        W19941  34.564  39.357  14.425
47616W        W19942  26.472   0.879  13.934
47617W        W19943  17.324  13.823  13.021
47618W        W19944  11.100  16.731  10.740
47619W        W19945  35.448  44.259   1.706
47620W        W19946  25.749   5.836   1.163
47621W        W19947  18.915  28.591   1.955
47622W        W19948  28.960   0.889   4.264
47623W        W19949  17.991   2.365   1.225
47624W        W19950  39.747  20.146  11.616
47625W        W19951  42.521   2.460  12.686
47626W        W19952  13.225  39.584  14.824
47627W        W19953   8.265  13.949   2.572
47628W        W19954   4.368  40.373   1.754
47629W        W19955  13.726   3.365  11.935
47630W        W19956   1.492  13.326  13.960
47631W        W19957  32.702  39.452  13.623
47632W        W19958  31.204  17.117   3.788
47633W        W19959  35.827  43.811   3.160
47634W        W19960  37.546  38.637  11.981
47635W        W19961  12.365  10.851   3.395
47636W        W19962  37.931  22.523  14.790
47637W        W19963  44.916   8.454  10.355
47638W        W19964  25.942  21.203   2.341
47639W        W19965   5.902  33.694  13.941
47640W        W19966  24.703  24.305  11.009
47641W        W19967  20.566  31.152   1.210
47642W        W19968  40.763  12.133  13.788
47643W        W19969   2.420  11.731  11.454
47644W        W19970   0.671   3.043   3.745
47645W        W19971  41.314  26.179   0.219
47646W        W19972  20.661  34.459   4.928
47647W        W19973  28.150  42.469   3.988
47648W        W19974  42.905  35.773  13.086
47649W        W19975  34.200   4.536   4.943
47650W        W19976  40.068  10.281   0.974
47651W        W19977  13.530   0.429  10.263
47652W        W19978  32.561  36.819   3.829
47653W        W19979   0.473  41.350  14.361
47654W        W19980  37.062   4.415   1.164
47655W        W19981  38.567  13.138  10.547
47656W        W19982  29.355   5.039   5.112
47657W        W19983  11.656  28.395   4.185
47658W        W19984  14.286  16.468  11.674
47659W        W19985  35.585  31.656   3.732
47660W        W19986   3.384  42.273   2.393
47661W        W19987  40.318   2.429   1.882
47662W        W19988  19.808  20.328  13.399
47663W        W19989   6.968  23.242  14.670
47664W        W19990  16.302  36.047  11.166
47665W        W19991  31.846   6.178   2.924
47666W        W19992   6.858   3.935  10.917
47667W        W19993   7.147   1.730   1.878
47668W        W19994  36.011  20.082   3.094
47669W        W19995  16.709  30.554   3.079
47670W        W19996   0.445  11.125   3.351
47671W        W19997  16.202  35.021   2.336
47672W        W19998  32.366   4.100   0.602
47673W        W19999  29.716  27.612   1.535
47674W        W20000  28.971  19.529  12.944
47675W        W20001  41.820  10.313   4.191
47676W        W20002   4.500  40.822  14.372
47677W        W20003  27.507  24.039   1.957
47678W        W20004  22.610   4.751   3.026
47679W        W20005   7.394  44.774   4.157
47680W        W20006  23.522  18.738   3.244
47681W        W20007  24.922  20.311   5.089
47682W        W20008  19.210   7.692   4.579
47683W        W20009  14.218   0.532   0.315
47684W        W20010  40.773  30.402   0.429
47685W        W20011  25.941  22.574   5.340
47686W        W20012  14.085  34.630   1.000
47687W        W20013  38.774   1.630  11.174
47688W        W20014  28.747   9.701  10.947
47689W        W20015  13.197  39.891   9.961
47690W        W20016   6.342   9.353  12.450
47691W        W20017  19.652   4.427   3.223
47692W        W20018  41.539   0.033   3.756
47693W        W20019   7.820  21.490   4.825
47694W        W20020  42.996  32.048  10.585
47695W        W20021   5.960  21.787  10.676
47696W        W20022   6.370   9.027  13.015
47697W        W20023  37.885   1.426   1.252
47698W        W20024  17.671  32.188   4.885
47699W        W20025  41.918  44.035   2.366
47700W        W20026   2.909  28.868   2.482
47701W        W20027  34.890  10.700   4.882
47702W        W20028  43.334  17.328   0.495
47703W        W20029  24.444  31.911   3.181
47704W        W20030  37.520   4.908   3.560
47705W        W20031  13.620   6.200   2.369
47706W        W20032  31.108  32.352   1.959
47707W        W20033  31.962  22.247  13.457
47708W        W20034  17.551  14.470   2.457
47709W        W20035  10.783   6.242   2.394
47710W        W20036  16.280   0.984  11.058
47711W        W20037   6.676  27.691  11.147
47712W        W20038  17.225   1.399   4.191
47713W        W20039  15.575  41.909  12.843
47714W        W20040   8.941  24.037   1.169
47715W        W20041  14.271  17.405  13.526
47716W        W20042  17.739   9.737  13.372
47717W        W20043  21.274  29.842   2.225
47718W        W20044   5.332  25.189  13.564
47719W        W20045  20.293  21.102  13.100
47720W        W20046  18.297   0.892  13.467
47721W        W20047  14.064  16.476   0.797
47722W        W20048  33.341   6.352   2.899
47723W        W20049  43.084  19.060  13.761
47724W        W20050  34.616  19.751   3.762
47725W        W20051   9.836  22.589  14.542
47726W        W20052  41.553  10.691  12.415
47727W        W20053   3.515  13.840  13.999
47728W        W20054  19.156   1.336  11.847
47729W        W20055   4.267  35.716  12.492
47730W        W20056   0.993  20.596  13.951
47731W        W20057  24.639  31.986   3.666
47732W        W20058  29.455  12.796   4.242
47733W        W20059  35.852  14.264  10.973
47734W        W20060  20.528  23.311   0.427
47735W        W20061  30.517  18.376  11.438
47736W        W20062  36.942  18.206  13.295
47737W        W20063  33.872  20.677   0.319
47738W        W20064  23.537  24.989  11.212
47739W        W20065  21.637  42.484  13.880
47740W        W20066   9.002   8.391  13.626
47741W        W20067  13.626  41.443  10.589
47742W        W20068  32.506  21.892  14.917
47743W        W20069  14.330   0.687  12.208
47744W        W20070  33.350   9.158   3.295
47745W        W20071  28.259   7.873   2.304
47746W        W20072  26.583  25.338  11.294
47747W        W20073  34.277   6.729  13.332
47748W        W20074  27.412  32.416  12.602
47749W        W20075  14.822  39.734   1.401
47750W        W20076   5.498  37.941  13.861
47751W        W20077  13.583  20.640  13.438
47752W        W20078  18.785  12.124   2.694
47753W        W20079  37.626  19.192  12.443
47754W        W20080  26.368  15.151  12.613
47755W        W20081  44.808  33.156   4.083
47756W        W20082  28.763  28.943   3.381
47757W        W20083  34.898  15.386  14.647
47758W        W20084   2.812   1.392   0.503
47759W        W20085  10.786  16.198  11.637
47760W        W20086  20.054   6.934  13.083
47761W        W20087  24.711   1.791   3.079
47762W        W20088  26.704  24.620  13.653
47763W        W20089   1.805  13.556   3.531
47764W        W20090  28.214  11.089  14.509
47765W        W20091  23.675  38.483  12.550
47766W        W20092  37.117   0.907   0.736
47767W        W20093  29.995  33.221  12.916
47768W        W20094  41.319  38.353   1.882
47769W        W20095  16.392  40.553  14.027
47770W        W20096  16.624  11.875  12.454
47771W        W20097  17.872  27.201  12.047
47772W        W20098  33.266  11.668  11.235
47773W        W20099  38.087  28.600   3.270
47774W        W20100  30.574  37.653  14.448
47775W        W20101  21.934  24.507  12.991
47776W        W20102  19.555  18.398   1.889
47777W        W20103   5.813   1.863  11.553
47778W        W20104  23.563  31.384   1.334
47779W        W20105  20.131  31.601  13.477
47780W        W20106  15.164  12.826   3.332
47781W        W20107  38.441  35.933   1.793
47782W        W20108   2.104  29.702  13.535
47783W        W20109   5.479  15.380   1.336
47784W        W20110   6.351  41.507   2.580
47785W        W20111   7.010  36.445  14.493
47786W        W20112  13.158  25.075  10.850
47787W        W20113  24.546  20.119  11.298
47788W        W20114  33.112   6.712   3.678
47789W        W20115   6.483  29.211   0.092
47790W        W20116  12.536   8.857   0.757
47791W        W20117  24.249  22.734   2.930
47792W        W20118   4.006  20.045   2.842
47793W        W20119  13.744  12.287  14.731
47794W        W20120   5.768  36.463   4.603
47795W        W20121  21.701  38.109  12.493
47796W        W20122  15.137  19.760  13.990
47797W        W20123  38.964   6.681   1.838
47798W        W20124  30.602  44.647  13.077
47799W        W20125  28.320  21.014   1.296
47800W        W20126  10.371   4.936  14.108
47801W        W20127   9.632   0.916  13.550
47802W        W20128   8.467  31.948   4.213
47803W        W20129   8.894  38.422  11.472
47804W        W20130   0.004  32.413  14.069
47805W        W20131  29.726  37.108   2.192
47806W        W20132  21.596  30.602  10.755
47807W        W20133  44.193  35.018  11.695
47808W        W20134  20.235  30.903   0.290
47809W        W20135  37.109  34.918   0.883
47810W        W20136  13.936  22.529  10.820
47811W        W20137  14.068  38.828  11.089
47812W        W20138   9.232  14.170  11.201
47813W        W20139  25.190  12.114  11.504
47814W        W20140   1.441  43.889  12.606
47815W        W20141  14.850  38.015   1.877
47816W        W20142  13.615  30.428   0.422
47817W        W20143   9.630  22.073   4.760
47818W        W20144  30.555  41.306   3.323
47819W        W20145  37.966  43.793   1.297
47820W        W20146  27.912  14.870  10.715
47821W        W20147   8.893   6.423   2.629
47822W        W20148   5.671  21.393  11.581
47823W        W20149  30.356  13.043   4.545
47824W        W20150  34.382  36.240   9.613
47825W        W20151  23.245  22.573  11.224
47826W        W20152  25.711  21.400  14.081
47827W        W20153  23.529  25.351  12.135
47828W        W20154  18.862  19.738   0.851
47829W        W20155  44.353  22.136  10.163
47830W        W20156  27.545  21.929  10.987
47831W        W20157  31.262   4.867  11.608
47832W        W20158  16.058  14.277   2.916
47833W        W20159  24.414  22.361  13.502
47834W        W20160  40.623   5.164   0.867
47835W        W20161  44.667  28.352  14.804
47836W        W20162  41.252  20.034   4.584
47837W        W20163  39.627  25.908   2.351
47838W        W20164  16.266  11.480   0.409
47839W        W20165  13.556  25.577   2.581
47840W        W20166  15.749  35.613  11.491
47841W        W20167  18.681  32.913   4.393
47842W        W20168   8.454  43.514   2.272
47843W        W20169  20.645  12.315  13.937
47844W        W20170   1.372  34.593  12.897
47845W        W20171  40.935   7.173   2.324
47846W        W20172  27.888  29.032   2.866
47847W        W20173  14.568  18.926   2.739
47848W        W20174  44.281  27.947   3.220
47849W        W20175   7.284  40.935   3.181
47850W        W20176  18.232  27.653   3.600
47851W        W20177  43.447  27.152  11.300
47852W        W20178  16.114  43.704  10.676
47853W        W20179  25.997  24.368  14.884
47854W        W20180   8.006  14.069  13.316
47855W        W20181  42.977  24.284  10.757
47856W        W20182  25.097  38.259   3.318
47857W        W20183  23.559  43.522   1.246
47858W        W20184   2.547  16.032   4.854
47859W        W20185  19.565   4.517  11.052
47860W        W20186  15.792  44.438   2.157
47861W        W20187  38.366  31.937  10.359
47862W        W20188  42.442  43.003   3.896
47863W        W20189  31.938  31.934  13.585
47864W        W20190  24.332   3.133   0.263
47865W        W20191  44.030   5.257  12.317
47866W        W20192  24.485   6.537   1.969
47867W        W20193  12.279  31.838  14.029
47868W        W20194  33.049  40.918   4.037
47869W        W20195   6.479  39.518   2.910
47870W        W20196  18.743  34.391   0.144
47871W        W20197  37.101  13.167  14.285
47872W        W20198  16.067  34.018   1.366
47873W        W20199  17.121  34.539  13.772
47874W        W20200  35.105   0.748   0.266
47875W        W20201  10.709   1.351  13.826
47876W        W20202  16.271  19.813   1.186
47877W        W20203  35.369  39.964  14.020
47878W        W20204  40.734  31.428   1.798
47879W        W20205  22.770   2.766   1.733
47880W        W20206  15.266   6.820   3.594
47881W        W20207  22.722  36.277   1.464
47882W        W20208  37.001  15.759   1.257
47883W        W20209  37.206  15.291   0.161
47884W        W20210  11.384  17.813   4.189
47885W        W20211  17.297   1.824   2.656
47886W        W20212  19.785   2.192  11.006
47887W        W20213   0.826  42.312   4.113
47888W        W20214  43.314  13.176   4.611
47889W        W20215  36.406  41.405   1.349
47890W        W20216  20.953  16.748  10.857
47891W        W20217  12.898  26.117  14.276
47892W        W20218  15.759  42.370   1.022
47893W        W20219  28.470  13.826  12.459
47894W        W20220  39.247  39.489   0.620
47895W        W20221  10.819  16.045  13.555
47896W        W20222  43.695  28.623  11.438
47897W        W20223   0.200  36.948  11.079
47898W        W20224  20.999  26.561  11.050
47899W        W20225   8.517   4.231   4.522
47900W        W20226   7.717   5.651   2.232
47901W        W20227  32.506   5.001  14.889
47902W        W20228   2.779   7.401  12.414
47903W        W20229  38.187  30.610  14.095
47904W        W20230   6.501  22.048   1.819
47905W        W20231  34.591  35.789  14.450
47906W        W20232   8.338  40.638   2.455
47907W        W20233   7.727  31.422   4.284
47908W        W20234  23.126   3.981   3.232
47909W        W20235  38.408  24.085   4.347
47910W        W20236  44.319  31.242   1.750
47911W        W20237  11.132  13.775  14.217
47912W        W20238  26.936  21.135   0.274
47913W        W20239  42.211   2.759   2.230
47914W        W20240  35.358  31.139  10.519
47915W        W20241   1.407  13.339   2.933
47916W        W20242   3.112   1.825   2.334
47917W        W20243   6.974  14.291  12.136
47918W        W20244  39.262  44.505   0.450
47919W        W20245   8.889  28.615   4.058
47920W        W20246   9.421  16.861  10.931
47921W        W20247  30.638  32.092   2.033
47922W        W20248  16.687  29.152   1.947
47923W        W20249  42.333  23.561  13.932
47924W        W20250  37.578  25.488   0.758
47925W        W20251   6.103  36.045   4.590
47926W        W20252  21.787  13.629   3.229
47927W        W20253  43.222   4.734   4.768
47928W        W20254  27.584  16.091   2.690
47929W        W20255   4.242   0.832  11.712
47930W        W20256  17.798  21.060   3.224
47931W        W20257  25.245   7.535  12.037
47932W        W20258   0.521  19.653  12.979
47933W        W20259  35.004  26.621   4.687
47934W        W20260  30.238  29.927  13.014
47935W        W20261  34.688   2.793  10.812
47936W        W20262  30.691   0.883  13.601
47937W        W20263  41.851  34.627   0.475
47938W        W20264  23.954  31.725   0.362
47939W        W20265  12.570  41.518  12.971
47940W        W20266   5.145  21.932  12.535
47941W        W20267  25.568  36.099   0.487
47942W        W20268  41.300  10.349   4.094
47943W        W20269   3.276  44.416   3.836
47944W        W20270  17.093   9.796   2.767
47945W        W20271  41.306  33.907  11.197
47946W        W20272  43.782  13.519  13.917
47947W        W20273  38.333  39.443   0.758
47948W        W20274   2.485   2.214  12.578
47949W        W20275  17.760  20.034   1.334
47950W        W20276  25.683  20.218  10.274
47951W        W20277  19.919  23.433  13.090
47952W        W20278  29.594  44.459  14.766
47953W        W20279  20.877  19.637   3.727
47954W        W20280  21.495  27.065   0.447
47955W        W20281  25.698  29.213   3.803
47956W        W20282  42.932  40.001   4.232
47957W        W20283  26.715  22.670   2.125
47958W        W20284  39.026   7.436  14.639
47959W        W20285  29.919  33.726  12.840
47960W        W20286  13.686  10.627   3.184
47961W        W20287  25.706   5.739   1.708
47962W        W20288  13.241  14.595   3.371
47963W        W20289  16.145   7.242  10.864
47964W        W20290  18.015  14.358  12.945
47965W        W20291  30.434  36.930  13.999
47966W        W20292  24.468   3.418   1.336
47967W        W20293   8.093   6.456   2.266
47968W        W20294  23.106  41.747  11.854
47969W        W20295  13.799  44.094  12.101
47970W        W20296  22.389  40.511   1.780
47971W        W20297  38.821  32.044  14.072
47972W        W20298   1.254  37.954  11.596
47973W        W20299   1.408  44.873   4.292
47974W        W20300  42.807  24.603  14.073
47975W        W20301   4.678   6.716   0.259
47976W        W20302  30.200  36.330   0.010
47977W        W20303  14.251  19.676   1.420
47978W        W20304  18.749   2.259   4.640
47979W        W20305  16.542   2.482  11.629
47980W        W20306  40.711  24.246  11.139
47981W        W20307  28.971  30.663   4.126
47982W        W20308  10.651  26.783   4.078
47983W        W20309  21.062  24.826   0.340
47984W        W20310  30.942  24.361   4.057
47985W        W20311  34.360  17.144  10.431
47986W        W20312  28.131   5.336  12.849
47987W        W20313  17.017  39.974  11.544
47988W        W20314   5.471  20.503   4.273
47989W        W20315   6.758  32.777  13.367
47990W        W20316   3.863   3.774  12.664
47991W        W20317  38.367  33.952   4.784
47992W        W20318  43.355  39.500  12.066
47993W        W20319   0.736  20.222   0.996
47994W        W20320  40.842  13.698   1.342
47995W        W20321  21.316  37.859   0.111
47996W        W20322  35.340  36.633   2.726
47997W        W20323  41.435   2.234  14.392
47998W        W20324   0.998  22.645   3.948
47999W        W20325  34.014  29.154   0.225
48000W        W20326  14.773  44.377   1.212
48001W        W20327  11.608   5.626  10.193
48002W        W20328   4.349  33.895  14.015
48003W        W20329  18.294  26.001  11.495
48004W        W20330  37.393  36.171  12.529
48005W        W20331  22.692  40.100  14.848
48006W        W20332  35.826  43.385  11.067
48007W        W20333   0.341  18.632   2.632
48008W        W20334  44.894  35.301   1.466
48009W        W20335  18.283  11.431   2.512
48010W        W20336  43.196  18.523  12.535
48011W        W20337  11.209  37.712   0.983
48012W        W20338  29.630  44.334   2.698
48013W        W20339  43.040  18.198  11.935
48014W        W20340  42.862  24.622  13.550
48015W        W20341  15.747   5.822   3.268
48016W        W20342  34.636  22.671  13.308
48017W        W20343  36.919  22.975  12.002
48018W        W20344  26.165  17.828  14.464
48019W        W20345  40.563   7.461   1.109
48020W        W20346  11.304  10.100   4.766
48021W        W20347  39.339  25.642   4.383
48022W        W20348  19.204  11.460   4.578
48023W        W20349  31.816  27.687   3.249
48024W        W20350  17.031  38.439  13.824
48025W        W20351   5.191   9.969   1.218
48026W        W20352  26.185  35.820   3.838
48027W        W20353  36.767  30.027   3.722
48028W        W20354   7.198  28.395  11.208
48029W        W20355  21.660  28.555  11.729
48030W        W20356   2.398   4.634   5.569
48031W        W20357  25.973  10.834  10.942
48032W        W20358   0.010  12.396   1.430
48033W        W20359  31.054  29.398  11.638
48034W        W20360  18.516  25.984  10.642
48035W        W20361   1.012   9.949   1.271
48036W        W20362  39.151  18.832   1.264
48037W        W20363   4.962  37.493  10.878
48038W        W20364  26.839  36.937   4.164
48039W        W20365  26.426   0.891  13.006
48040W        W20366  44.467  10.394  14.816
48041W        W20367  14.525  16.792   4.295
48042W        W20368  13.815  42.791  11.401
48043W        W20369  40.351  22.806   1.697
48044W        W20370  31.089   3.338   3.588
48045W        W20371  11.254  24.299   4.530
48046W        W20372  40.473  11.747   3.147
48047W        W20373   8.470  29.642  13.533
48048W        W20374  31.930  32.354   5.030
48049W        W20375  10.389  23.552   2.597
48050W        W20376   7.372  43.061   3.413
48051W        W20377   1.694  12.320   1.907
48052W        W20378   0.586  42.756   4.122
48053W        W20379  39.312  29.854  14.038
48054W        W20380   7.894  20.097  13.011
48055W        W20381   4.738  40.286   3.672
48056W        W20382  18.565   2.339  13.073
48057W        W20383  12.874  25.016  13.603
48058W        W20384  26.211  26.406  13.005
48059W        W20385  35.304  37.461   4.607
48060W        W20386  14.015  24.744   0.551
48061W        W20387  11.618  16.156   1.249
48062W        W20388  44.677   1.654   5.049
48063W        W20389  40.659  16.916  14.870
48064W        W20390  31.648  36.380   4.447
48065W        W20391   4.966  29.252  11.682
48066W        W20392   9.587  23.079  14.888
48067W        W20393  37.361  33.005  14.577
48068W        W20394  25.962  19.045  10.635
48069W        W20395  15.637  25.079  14.417
48070W        W20396  43.268  24.128   0.869
48071W        W20397   3.160  34.554  13.752
48072W        W20398  33.699   5.466   0.869
48073W        W20399  35.344   6.423  12.894
48074W        W20400  15.394  24.292  10.556
48075W        W20401  35.819  28.970  11.005
48076W        W20402  10.659  10.727  12.330
48077W        W20403  35.939  42.465  13.363
48078W        W20404   5.870  41.756  10.777
48079W        W20405  32.447  39.815  13.363
48080W        W20406  28.148  27.479  14.480
48081W        W20407   6.416  21.475  12.057
48082W        W20408  18.696  42.733   0.543
48083W        W20409  28.857  29.847  14.727
48084W        W20410   4.893   4.621   4.591
48085W        W20411  14.569  21.254   3.288
48086W        W20412   2.805  31.121  11.893
48087W        W20413  34.921  38.906  14.417
48088W        W20414  37.134  37.050   4.901
48089W        W20415  24.880  37.990   5.646
48090W        W20416   6.887   5.467  10.403
48091W        W20417  20.536   6.658   3.193
48092W        W20418  24.782   1.767  14.823
48093W        W20419  16.035  17.848   1.148
48094W        W20420  42.397  16.063  10.877
48095W        W20421  33.467  17.761  13.871
48096W        W20422   5.776  32.881  12.513
48097W        W20423  36.386  20.706   1.361
48098W        W20424  17.020  12.092   2.890
48099W        W20425  18.285  34.118  14.311
48100W        W20426  22.925  25.428   1.691
48101W        W20427  17.056  39.084   3.693
48102W        W20428   3.855   8.299  14.348
48103W        W20429   5.471  27.605   3.289
48104W        W20430   7.442  19.231  12.897
48105W        W20431  25.549  38.273  11.198
48106W        W20432  21.531  16.852  10.646
48107W        W20433  38.946  42.941  13.123
48108W        W20434  25.100  22.469  10.670
48109W        W20435  16.612  17.946   2.829
48110W        W20436  22.980  17.344   2.331
48111W        W20437  20.997  34.827   4.001
48112W        W20438  14.610   1.475  14.394
48113W        W20439  25.597  37.120  13.997
48114W        W20440  37.405  42.486  12.580
48115W        W20441   6.658   6.406  12.067
48116W        W20442  18.296   9.739   2.210
48117W        W20443  19.594   6.243   0.442
48118W        W20444   9.744  36.617   0.999
48119W        W20445   9.200   8.860   1.489
48120W        W20446  28.633  13.857   1.901
48121W        W20447  15.045  35.827  13.399
48122W        W20448   7.126  22.540  10.804
48123W        W20449   9.263  44.704   0.925
48124W        W20450  23.232  29.037   1.515
48125W        W20451  14.219   5.789   0.091
48126W        W20452  11.354   5.067   2.354
48127W        W20453  44.819  44.740   3.271
48128W        W20454  17.243   7.223   5.193
48129W        W20455  32.778  34.527   3.208
48130W        W20456   7.436  40.690  14.431
48131W        W20457  16.865  24.402   1.313
48132W        W20458  29.193   1.771   0.383
48133W        W20459  28.373  23.500  10.502
48134W        W20460  19.211  17.613   1.537
48135W        W20461  39.267  42.618   4.469
48136W        W20462  28.873   1.373  13.937
48137W        W20463  36.477  36.998   1.447
48138W        W20464  35.868  17.583   1.430
48139W        W20465  23.187  15.173  13.109
48140W        W20466   8.412  25.474  11.731
48141W        W20467  30.338  33.612   2.773
48142W        W20468  29.109  34.815  11.212
48143W        W20469  12.278  20.231   1.643
48144W        W20470  26.427  31.053  14.735
48145W        W20471   1.318  27.974   4.831
48146W        W20472   2.690  10.348  10.710
48147W        W20473  43.321  31.018  12.807
48148W        W20474  21.128  32.449   2.849
48149W        W20475   6.019  43.181  13.537
48150W        W20476  20.086  40.320   4.975
48151W        W20477  17.095   8.272   3.163
48152W        W20478   0.114  27.983   1.395
48153W        W20479  26.504  39.313  12.885
48154W        W20480  15.647  41.641  13.974
48155W        W20481  14.819  32.908  13.738
48156W        W20482  18.424  38.820   3.589
48157W        W20483  16.255  13.338   2.573
48158W        W20484   6.997  39.079   2.424
48159W        W20485  38.057  10.638   2.503
48160W        W20486   8.408  20.028   3.935
48161W        W20487  11.206  37.847   3.403
48162W        W20488  23.176  41.081  12.990
48163W        W20489  13.728  13.704  13.818
48164W        W20490  23.607   1.345   4.098
48165W        W20491  13.696  38.304  12.992
48166W        W20492  44.535  11.508   5.043
48167W        W20493  14.589  35.404   4.149
48168W        W20494  17.805   6.135  13.390
48169W        W20495  39.149  24.598  11.101
48170W        W20496  21.164  14.376  13.903
48171W        W20497  22.095   8.422   0.624
48172W        W20498  18.756  34.477  14.631
48173W        W20499  14.072  25.515   3.359
48174W        W20500  21.683  22.819  11.856
48175W        W20501  31.156  43.081   3.214
48176W        W20502  13.247  42.625   1.798
48177W        W20503  37.615  26.132  13.990
48178W        W20504  40.554  13.663   2.419
48179W        W20505  26.116  34.934  12.835
48180W        W20506  34.013  33.112  14.521
48181W        W20507   8.917  18.520  11.756
48182W        W20508   7.791   9.962  11.114
48183W        W20509   3.922  41.324  11.059
48184W        W20510   7.926  33.087   2.184
48185W        W20511  15.455  34.846   1.342
48186W        W20512  22.790   9.883   1.430
48187W        W20513  15.644  39.095  12.966
48188W        W20514  42.503  30.941  13.786
48189W        W20515  44.256  22.515   2.174
48190W        W20516  43.527   8.785   4.443
48191W        W20517  24.390  35.063   4.569
48192W        W20518  12.234  21.490  12.836
48193W        W20519   0.760  20.693  14.859
48194W        W20520  14.359  30.608  10.838
48195W        W20521   1.830  43.021   4.804
48196W        W20522   5.419  41.878  14.930
48197W        W20523   5.489  29.000   1.951
48198W        W20524  23.429  26.402   2.910
48199W        W20525   3.392  30.202   3.825
48200W        W20526  10.617  43.522   3.294
48201W        W20527   3.357  17.572   4.301
48202W        W20528  17.888  32.346  14.554
48203W        W20529  26.118  33.388   4.553
48204W        W20530  29.890   5.282   4.632
48205W        W20531   2.151  30.594  10.632
48206W        W20532   6.260  12.842  12.419
48207W        W20533  26.053   5.787   3.774
48208W        W20534  13.573  18.780   4.193
48209W        W20535   3.349  29.742  13.919
48210W        W20536  42.275  23.973   3.169
48211W        W20537  33.800  21.643  12.028
48212W        W20538   0.968  26.106   4.227
48213W        W20539  26.878  32.167   0.538
48214W        W20540  41.234  15.137   1.924
48215W        W20541  42.291  28.704   4.090
48216W        W20542  29.549  16.609  12.841
48217W        W20543  36.057  10.493  10.771
48218W        W20544  33.199  19.501  12.513
48219W        W20545  30.911  33.715   1.321
48220W        W20546  17.826  13.596   1.131
48221W        W20547  29.482  37.228   2.640
48222W        W20548  30.486  44.787   3.374
48223W        W20549  41.420  10.154   2.711
48224W        W20550  24.291   2.927  10.768
48225W        W20551  20.330  37.580  11.134
48226W        W20552  27.042  20.802   1.466
48227W        W20553  36.944  39.567   0.678
48228W        W20554  31.057   5.717   2.887
48229W        W20555  33.918  17.325  13.471
48230W        W20556  21.590   1.130  13.772
48231W        W20557   8.183  31.510  11.038
48232W        W20558  33.501  42.731  11.897
48233W        W20559  18.342  44.528   0.698
48234W        W20560  15.793  26.455  14.672
48235W        W20561  18.756  42.426   1.858
48236W        W20562  37.063  17.604   0.763
48237W        W20563  29.303  25.076  13.494
48238W        W20564  16.591  29.118  12.169
48239W        W20565   3.725  38.452  12.402
48240W        W20566  42.396  44.112  10.697
48241W        W20567   9.810  28.862   3.987
48242W        W20568   5.035  24.049   0.277
48243W        W20569   2.252  21.681   5.072
48244W        W20570  42.389   6.420   1.309
48245W        W20571  14.131  16.218  12.103
48246W        W20572  40.000  39.167   1.602
48247W        W20573  24.135  42.883   4.006
48248W        W20574  34.263  33.949   3.730
48249W        W20575  18.208  43.100  13.933
48250W        W20576  18.313  36.614   0.964
48251W        W20577   1.521   1.948  13.070
48252W        W20578   9.377  17.988  14.210
48253W        W20579  34.512  36.298   0.343
48254W        W20580   9.804  35.329   2.426
48255W        W20581  14.585  36.289  12.513
48256W        W20582  30.934   5.893   3.355
48257W        W20583  36.481  23.248  12.033
48258W        W20584  21.048   7.778   2.386
48259W        W20585  14.315  26.833   3.653
48260W        W20586  43.876   2.418   4.991
48261W        W20587  32.961  32.431  11.026
48262W        W20588   9.798  39.255  13.468
48263W        W20589  26.704  18.670  13.932
48264W        W20590  13.879  21.184  13.375
48265W        W20591  24.197  38.577   5.044
48266W        W20592   2.386  11.646   4.061
48267W        W20593  10.766   0.249   2.469
48268W        W20594  36.506  13.412  12.191
48269W        W20595  36.620  21.051   1.761
48270W        W20596   6.762   1.714  14.723
48271W        W20597  37.858  16.230  14.825
48272W        W20598  29.663   3.792  12.953
48273W        W20599  32.109  13.281  12.414
48274W        W20600   6.024  24.946  12.043
48275W        W20601  35.058   6.736   0.258
48276W        W20602   8.868   1.672  10.637
48277W        W20603   0.072  44.322  14.743
48278W        W20604  35.152  37.804  13.515
48279W        W20605   6.878  15.716   4.048
48280W        W20606   7.352  13.877   3.229
48281W        W20607   2.206  19.658   2.813
48282W        W20608  21.349   5.454  13.110
48283W        W20609  42.530   7.721   0.923
48284W        W20610  18.621  18.282  13.535
48285W        W20611  24.119  16.843   0.371
48286W        W20612   4.693  41.963  12.510
48287W        W20613   8.698  43.406   0.356
48288W        W20614  16.065  43.533   1.510
48289W        W20615  12.403  44.943   3.928
48290W        W20616  38.112   3.290  12.881
48291W        W20617   5.904  10.932  11.564
48292W        W20618   5.430  32.461  11.664
48293W        W20619  26.156  38.178  13.395
48294W        W20620  27.648   1.786   2.956
48295W        W20621  20.444  16.792   0.751
48296W        W20622  36.037  37.105  12.447
48297W        W20623  11.735  38.145  12.665
48298W        W20624  41.499  20.677  11.624
48299W        W20625  30.835  11.753  10.312
48300W        W20626  22.976  26.006  11.962
48301W        W20627  10.095  14.619   3.806
48302W        W20628  28.455  28.461   2.453
48303W        W20629  13.366  14.722   0.435
48304W        W20630  16.069  20.853   0.245
48305W        W20631   6.511   7.842  10.846
48306W        W20632  21.981  35.853   4.080
48307W        W20633  20.657   6.343   3.567
48308W        W20634  10.447  40.238   0.471
48309W        W20635  10.074  12.581   0.838
48310W        W20636  39.133  43.955   0.362
48311W        W20637  22.616  24.586   0.677
48312W        W20638  29.923  19.566   3.714
48313W        W20639  43.241  18.230   2.174
48314W        W20640  34.061  30.161   4.335
48315W        W20641  44.904  39.086  12.606
48316W        W20642  32.184  29.009  12.244
48317W        W20643   6.604   4.328  10.692
48318W        W20644  11.290  19.258  13.939
48319W        W20645  25.636   3.123   4.321
48320W        W20646   2.300  22.382  11.168
48321W        W20647  28.669   2.537  12.440
48322W        W20648  27.000  40.058  13.467
48323W        W20649  12.621   0.366   4.865
48324W        W20650  23.672  15.168  12.961
48325W        W20651  32.850   5.201   4.161
48326W        W20652  44.302  28.526  14.463
48327W        W20653  18.026   9.437   2.523
48328W        W20654  29.981  40.544   0.237
48329W        W20655  39.889  24.656  11.560
48330W        W20656  39.957  44.397  13.356
48331W        W20657  32.855  42.028  14.397
48332W        W20658  36.480   8.923  12.002
48333W        W20659  37.660  12.163  14.998
48334W        W20660  44.222   7.639   1.363
48335W        W20661  42.511  30.571  14.848
48336W        W20662  20.117  10.188  11.660
48337W        W20663  40.572  38.814  12.581
48338W        W20664  34.885  37.999   1.842
48339W        W20665  43.066   1.248  12.594
48340W        W20666  22.858  29.897   5.025
48341W        W20667  23.461   8.949   2.191
48342W        W20668  37.099  19.330  10.650
48343W        W20669  30.077  36.933  11.224
48344W        W20670   9.139  43.122  13.004
48345W        W20671  41.429   9.347  13.294
48346W        W20672  38.057  42.873  12.840
48347W        W20673  14.881   4.774   3.626
48348W        W20674  23.260  11.747   3.580
48349W        W20675  41.770   4.958   2.764
48350W        W20676  10.853  16.267  12.513
48351W        W20677  26.893  13.740  13.503
48352W        W20678  22.646  38.981   2.589
48353W        W20679   1.634  33.583   1.677
48354W        W20680   0.226  29.546  13.632
48355W        W20681  10.472  39.920   0.045
48356W        W20682  27.918  34.464  13.371
48357W        W20683  30.627  10.689   0.272
48358W        W20684  31.165  38.088  12.639
48359W        W20685  37.422  39.066   4.207
48360W        W20686  39.076   5.860   2.119
48361W        W20687  11.722   0.350   4.642
48362W        W20688  11.758   2.129  11.056
48363W        W20689  14.755   1.542   2.418
48364W        W20690  22.299  14.081   3.765
48365W        W20691  34.523  35.266   0.151
48366W        W20692   1.559  21.445   2.170
48367W        W20693  16.633  40.534   0.450
48368W        W20694  39.011  31.938  14.543
48369W        W20695  17.262  13.003  10.934
48370W        W20696  44.847  13.948   0.798
48371W        W20697  21.195  42.511  10.847
48372W        W20698  20.003  16.824   3.661
48373W        W20699  36.450  18.988   0.237
48374W        W20700  17.009  27.721   2.329
48375W        W20701  30.691  37.875   0.817
48376W        W20702  31.281  19.037  11.120
48377W        W20703  24.159  24.190  11.585
48378W        W20704   7.839   4.244   3.155
48379W        W20705  12.669  11.819   1.209
48380W        W20706   1.380  25.226   3.202
48381W        W20707  28.489  38.349   0.925
48382W        W20708  34.313  33.016   3.841
48383W        W20709  29.050  12.088  12.659
48384W        W20710   0.999  13.193   4.071
48385W        W20711  19.227  21.865   0.784
48386W        W20712  30.657  43.318   1.775
48387W        W20713   3.125   8.339  10.781
48388W        W20714  30.590   6.668   3.809
48389W        W20715  43.549  35.379  11.235
48390W        W20716  30.151  27.158   0.060
48391W        W20717  12.257  27.633  11.541
48392W        W20718  12.455  44.894   1.616
48393W        W20719  40.939  17.668  13.703
48394W        W20720  17.332  13.658  10.564
48395W        W20721   4.139  25.537   4.582
48396W        W20722  35.613  40.510   4.539
48397W        W20723   3.715  37.927   2.403
48398W        W20724  13.629  23.712  13.306
48399W        W20725  36.398  23.131   0.337
48400W        W20726  31.496  31.912  10.550
48401W        W20727   8.665   2.744  11.956
48402W        W20728  41.575  30.909  13.367
48403W        W20729  19.206  18.879  13.506
48404W        W20730  22.331  34.524  14.932
48405W        W20731  22.246  24.695   2.143
48406W        W20732  30.973  26.749  12.587
48407W        W20733   7.957   0.053  14.534
48408W        W20734   9.934  26.932  14.810
48409W        W20735  28.504  28.958  13.814
48410W        W20736  35.507  16.076  10.469
48411W        W20737  35.080  20.089   3.074
48412W        W20738   9.022  41.533  13.067
48413W        W20739  41.507  13.682  12.090
48414W        W20740   0.276  41.447   1.303
48415W        W20741  24.258  32.718   0.254
48416W        W20742  19.780  27.577  12.949
48417W        W20743  42.775  33.487   4.688
48418W        W20744  44.384  10.020   4.507
48419W        W20745  10.830  32.047   4.636
48420W        W20746  31.777  38.292  13.434
48421W        W20747  12.449  27.908  11.038
48422W        W20748  41.910  33.461   1.742
48423W        W20749  35.427  22.158  14.910
48424W        W20750  44.757  27.644  11.962
48425W        W20751  22.266  20.290   4.116
48426W        W20752  18.847  39.821  11.111
48427W        W20753  16.085   2.623   0.424
48428W        W20754  31.970  19.965  10.789
48429W        W20755  20.150  38.914  10.768
48430W        W20756  43.170  38.629  11.414
48431W        W20757  29.650  17.600  13.912
48432W        W20758  44.005  15.071  12.944
48433W        W20759  43.772  33.391   2.320
48434W        W20760  27.780  13.513  11.058
48435W        W20761  13.779  32.087   4.145
48436W        W20762  27.626  15.542   1.854
48437W        W20763  17.306  17.546  12.391
48438W        W20764  33.366   2.332   1.415
48439W        W20765   7.389  37.633  14.298
48440W        W20766  10.392  16.227  13.334
48441W        W20767  22.033  25.449   1.710
48442W        W20768  44.898  36.449   3.898
48443W        W20769  38.267  22.664  11.641
48444W        W20770  32.380  25.414  14.883
48445W        W20771  16.118  20.612   3.100
48446W        W20772  39.350  16.116   4.607
48447W        W20773  23.014  27.422   2.788
48448W        W20774   9.154   2.718  14.919
48449W        W20775   0.003   1.423  13.198
48450W        W20776  38.775  23.254  11.099
48451W        W20777  10.402  43.989  13.549
48452W        W20778  28.900  41.827  14.903
48453W        W20779   8.937  28.078  11.559
48454W        W20780   8.837   0.381   2.355
48455W        W20781  12.262  41.399  11.611
48456W        W20782   7.051  21.431  13.436
48457W        W20783   4.326  27.908  11.948
48458W        W20784  15.795   3.819  12.078
48459W        W20785   0.634  39.856  11.541
48460W        W20786  37.006  13.638  10.573
48461W        W20787  37.826  23.670   2.383
48462W        W20788  22.110  38.950   0.186
48463W        W20789  22.496   3.154   1.496
48464W        W20790  38.891   4.194   4.853
48465W        W20791  27.037  11.292  11.927
48466W        W20792  26.026   3.810   3.392
48467W        W20793   8.702  11.891  14.467
48468W        W20794  30.329  20.792  11.166
48469W        W20795  29.177  11.933   3.204
48470W        W20796  33.652   1.837   0.183
48471W        W20797  35.912   0.324   1.452
48472W        W20798  40.339  15.177  11.501
48473W        W20799  41.502  35.408  10.790
48474W        W20800  33.925  44.546  11.536
48475W        W20801  32.024  33.197  13.964
48476W        W20802  33.863  20.262  13.164
48477W        W20803  43.956  34.407   3.353
48478W        W20804  28.993  15.164   3.575
48479W        W20805   9.339  32.979  13.086
48480W        W20806  24.978   0.398   1.811
48481W        W20807   6.125  13.575  14.230
48482W        W20808   4.106  30.966   2.917
48483W        W20809   6.458  19.732  13.862
48484W        W20810   1.174  43.203   3.772
48485W        W20811  30.073  13.774   4.027
48486W        W20812   3.256   6.169   3.668
48487W        W20813   5.671  33.535   2.110
48488W        W20814  11.910  42.033   4.155
48489W        W20815   1.131  21.939   1.804
48490W        W20816  40.807  43.414  12.705
48491W        W20817  39.330  35.147   1.414
48492W        W20818  13.624  11.058  11.552
48493W        W20819  15.193  37.793  13.025
48494W        W20820  23.367  28.834  12.852
48495W        W20821  14.908  12.405   3.126
48496W        W20822  10.094  44.278   1.819
48497W        W20823  12.746  34.924   4.435
48498W        W20824  28.567  33.936  14.460
48499W        W20825  25.986  10.053  14.523
48500W        W20826   5.666  28.454  12.537
48501W        W20827   1.902  13.261   2.742
48502W        W20828   5.521  11.239   5.064
48503W        W20829   3.093  10.778  12.416
48504W        W20830  23.962  24.978  14.726
48505W        W20831   6.756  17.028  10.112
48506W        W20832  11.289  13.482   0.725
48507W        W20833  42.266   9.347  10.996
48508W        W20834  23.473  43.502   0.264
48509W        W20835  28.854  37.023   0.970
48510W        W20836   5.755  17.388  11.616
48511W        W20837  23.052  31.591   1.760
48512W        W20838  44.523  36.515   2.147
48513W        W20839  41.490  32.955  13.851
48514W        W20840   4.290  33.712  13.121
48515W        W20841  11.270  34.894   0.560
48516W        W20842  15.532  17.211  12.522
48517W        W20843  32.678  18.338  11.102
48518W        W20844  41.492  42.413   2.173
48519W        W20845   4.818  32.609   3.222
48520W        W20846  27.479  17.679   0.116
48521W        W20847  43.969  11.817  11.998
48522W        W20848  24.168  42.833   1.215
48523W        W20849  11.797  10.686  12.791
48524W        W20850   4.010  38.612   3.084
48525W        W20851  12.012  40.112  12.102
48526W        W20852  22.107   8.718   3.325
48527W        W20853  12.740   6.796  12.562
48528W        W20854  44.237  33.031   1.619
48529W        W20855  28.194  30.572   2.423
48530W        W20856   8.294  16.157   4.425
48531W        W20857   8.831  16.647   3.221
48532W        W20858  40.845  27.515   4.532
48533W        W20859  43.333  16.095   1.669
48534W        W20860  11.846   9.800   2.157
48535W        W20861   7.174   3.045   4.012
48536W        W20862  32.925  13.120  11.430
48537W        W20863  21.517   9.313   0.683
48538W        W20864  11.370  20.927   5.045
48539W        W20865  13.330  30.569  10.080
48540W        W20866  13.243  12.310  10.793
48541W        W20867  38.044  23.552   0.804
48542W        W20868  27.522  28.731  11.909
48543W        W20869  11.404  37.558  14.019
48544W        W20870  32.341  28.192   3.728
48545W        W20871   9.358  35.552  12.642
48546W        W20872  27.172  37.886  12.820
48547W        W20873  25.916  14.922  12.528
48548W        W20874  30.932  19.789  10.839
48549W        W20875   3.864  27.888   2.580
48550W        W20876  39.175  19.289   4.135
48551W        W20877  33.331   1.898   1.666
48552W        W20878  38.893  27.159  14.230
48553W        W20879  12.762   9.684  10.702
48554W        W20880  29.400   7.913  14.483
48555W        W20881  21.515   4.645   4.651
48556W        W20882   1.769  25.578   3.232
48557W        W20883   1.682  25.536   1.591
48558W        W20884  17.252  21.263  10.698
48559W        W20885  23.041   8.596  12.361
48560W        W20886  14.824  15.005   4.311
48561W        W20887   9.829  27.936  11.110
48562W        W20888  14.322  13.867  14.613
48563W        W20889   0.981  32.172   1.336
48564W        W20890  14.652   8.727   4.523
48565W        W20891  34.417  23.547   2.267
48566W        W20892   9.699  13.933  13.959
48567W        W20893  36.151  37.978  12.051
48568W        W20894  25.037  26.715  13.466
48569W        W20895  17.048   3.457  12.495
48570W        W20896  34.097   1.593  11.114
48571W        W20897   2.484  34.380  11.553
48572W        W20898  25.052  37.401  11.953
48573W        W20899  44.234  44.567  14.323
48574W        W20900  40.643  36.467   2.435
48575W        W20901  10.188   5.197   3.669
48576W        W20902  21.481   4.631  13.109
48577W        W20903   2.441  22.226   3.217
48578W        W20904  31.932  24.759   4.672
48579W        W20905   7.766  33.950   4.079
48580W        W20906   7.902  43.813  11.358
48581W        W20907   6.835  44.446  11.058
48582W        W20908  30.861  21.295  13.410
48583W        W20909  22.297  34.152   4.338
48584W        W20910  33.364  23.750   2.261
48585W        W20911  15.377  44.990   4.581
48586W        W20912  41.933  10.873  13.322
48587W        W20913  13.708   7.152  10.566
48588W        W20914  38.038   9.487  10.669
48589W        W20915  10.211  17.763  14.058
48590W        W20916  28.828  40.079   3.365
48591W        W20917  44.970  10.519   4.117
48592W        W20918   6.929  37.013  11.608
48593W        W20919  22.497  25.195   4.080
48594W        W20920  35.337  10.319  11.649
48595W        W20921  26.415  44.233   0.386
48596W        W20922  15.529  40.891  11.142
48597W        W20923   5.041   4.467   1.763
48598W        W20924  29.922   3.623   0.364
48599W        W20925  33.198  30.405  14.893
48600W        W20926  17.669  28.670  11.021
48601W        W20927  44.415  29.984  13.577
48602W        W20928  14.718  16.251  11.486
48603W        W20929  22.463   9.715   1.835
48604W        W20930  39.343   7.354  12.314
48605W        W20931  43.567  38.807  13.825
48606W        W20932  38.417  42.783  10.378
48607W        W20933   2.935  29.065  10.733
48608W        W20934   4.196  22.648  13.373
48609W        W20935  17.795  31.707   0.890
48610W        W20936   9.309  41.290  12.220
48611W        W20937  38.323   1.072  11.961
48612W        W20938  18.422  26.040  12.006
48613W        W20939  40.876  40.842   4.908
48614W        W20940  21.906  37.150   4.036
48615W        W20941  14.195   5.516   3.388
48616W        W20942   9.838  17.787   2.925
48617W        W20943  26.488   9.094  13.063
48618W        W20944  10.433  27.578   4.196
48619W        W20945  23.603  42.268   1.762
48620W        W20946   4.926  30.523  10.899
48621W        W20947   9.481  30.374   2.281
48622W        W20948  34.817   4.897   3.665
48623W        W20949  14.235  31.203  12.020
48624W        W20950  18.670  35.888  11.978
48625W        W20951  40.800  37.953  12.599
48626W        W20952   9.291  34.094  12.182
48627W        W20953  44.701  11.801   0.878
48628W        W20954   3.392   9.332  14.674
48629W        W20955   4.470  23.246   0.836
48630W        W20956  43.868  17.650   0.277
48631W        W20957  28.711  15.064  14.928
48632W        W20958   6.093  30.458  13.971
48633W        W20959   8.754  17.325  14.481
48634W        W20960  28.178  19.853   5.055
48635W        W20961   3.041   9.314   3.452
48636W        W20962  18.118   5.181  14.531
48637W        W20963  27.915  16.324   3.603
48638W        W20964  11.301  12.312  10.747
48639W        W20965  10.213  37.080   4.122
48640W        W20966  21.885   1.255  10.482
48641W        W20967  28.661  32.824   2.421
48642W        W20968  43.805  28.681  14.464
48643W        W20969  17.826   0.323   2.477
48644W        W20970  23.439   3.245  10.782
48645W        W20971  15.322  36.416   9.895
48646W        W20972   4.404   4.875  10.025
48647W        W20973  40.412  27.984  10.734
48648W        W20974   9.625  35.329  13.825
48649W        W20975  10.746  29.212  10.859
48650W        W20976  25.926  34.041   3.385
48651W        W20977  37.068  11.889   2.389
48652W        W20978  17.106   5.751   0.835
48653W        W20979  40.884  14.108   0.766
48654W        W20980  15.116  28.876   0.674
48655W        W20981  14.324  35.944   2.804
48656W        W20982  27.024  16.058  10.946
48657W        W20983   6.207  20.471  11.000
48658W        W20984  20.510  26.438   0.974
48659W        W20985  27.120   1.807   0.730
48660W        W20986   9.543  11.804   1.743
48661W        W20987  24.687   9.254  14.091
48662W        W20988  36.009  34.876  12.352
48663W        W20989  39.295  20.675   4.606
48664W        W20990  44.799   1.020   2.728
48665W        W20991  42.335  44.957   0.096
48666W        W20992  10.798  14.330   4.216
48667W        W20993   1.246  15.262  11.325
48668W        W20994  44.271   1.883   3.738
48669W        W20995  10.867   1.546   0.845
48670W        W20996  28.547  11.255   4.550
48671W        W20997  16.748  15.313   0.895
48672W        W20998  35.662  38.877  12.255
48673W        W20999  39.609  42.780   3.664
48674W        W21000  27.225  30.729  12.954
48675W        W21001   6.940  20.159   1.187
48676W        W21002  29.163  39.882  12.445
48677W        W21003  22.049  40.687  14.492
48678W        W21004  14.090   6.839  12.947
48679W        W21005  39.899  24.060   3.170
48680W        W21006   0.875  42.838   2.803
48681W        W21007   2.666  11.757  10.226
48682W        W21008  21.080   5.453  12.654
48683W        W21009   9.060  41.270   2.814
48684W        W21010   6.803  20.768  11.576
48685W        W21011  16.723  15.614  11.940
48686W        W21012  37.321   3.239   2.383
48687W        W21013   4.110  36.225  12.387
48688W        W21014  44.188  21.245   4.998
48689W        W21015   1.812   2.778  14.531
48690W        W21016  36.017  33.568   1.859
48691W        W21017   4.430  23.203  14.981
48692W        W21018  17.847  26.465  13.329
48693W        W21019   5.488   6.325  12.569
48694W        W21020  41.417  34.051   2.759
48695W        W21021  36.172  21.627  14.896
48696W        W21022  39.995  17.854   0.276
48697W        W21023  34.919   8.821   1.667
48698W        W21024  22.627  43.729   3.770
48699W        W21025  24.861  13.863   0.827
48700W        W21026  26.478   6.311  12.374
48701W        W21027  32.481  23.112   2.955
48702W        W21028  17.072   9.789   3.328
48703W        W21029  38.954  32.663  10.798
48704W        W21030  26.911  11.773  10.609
48705W        W21031  28.146  24.522  11.336
48706W        W21032   1.811  11.482   9.880
48707W        W21033  21.249  43.486  10.462
48708W        W21034   1.178  34.924  11.543
48709W        W21035  24.031  20.058  11.135
48710W        W21036  24.039  23.082   2.096
48711W        W21037  26.805  27.738  14.246
48712W        W21038  10.434  27.235  10.063
48713W        W21039   9.314  35.991  12.994
48714W        W21040   1.788   3.834   0.931
48715W        W21041  42.361   2.674  11.246
48716W        W21042  28.204  26.042   3.334
48717W        W21043   9.917  31.614  10.695
48718W        W21044   6.593  20.211   2.138
48719W        W21045  13.747  27.097  14.836
48720W        W21046  33.036  19.979  12.453
48721W        W21047  33.133  21.056   3.817
48722W        W21048  37.609  18.037  14.843
48723W        W21049  14.058   7.822  10.544
48724W        W21050  41.705  22.357  15.000
48725W        W21051  40.793   5.271   4.633
48726W        W21052  34.126  39.439   0.399
48727W        W21053   9.557  16.769  13.558
48728W        W21054  26.679  38.320   1.752
48729W        W21055  26.476  41.450   0.735
48730W        W21056  31.676  18.128  11.074
48731W        W21057  13.977   9.106   1.944
48732W        W21058   6.653  23.932   4.813
48733W        W21059  20.590  13.825  14.758
48734W        W21060   7.193  31.086  13.847
48735W        W21061  10.209  36.571   5.039
48736W        W21062   0.758  15.212  12.684
48737W        W21063  10.344  24.172   3.141
48738W        W21064  21.722  32.464  11.220
48739W        W21065   4.355  37.351  11.125
48740W        W21066   6.800   4.189  14.718
48741W        W21067  14.372  32.413  13.973
48742W        W21068  12.902   8.309  11.385
48743W        W21069  17.314  23.182   2.256
48744W        W21070  20.147  26.646  10.846
48745W        W21071  27.674  43.256   2.228
48746W        W21072   5.609   8.305  12.134
48747W        W21073  23.390  11.490  14.079
48748W        W21074  39.915  13.589  13.316
48749W        W21075  38.369   4.845  12.006
48750W        W21076  31.069   3.347   0.724
48751W        W21077   0.980  29.453   1.060
48752W        W21078   3.741  21.278  12.406
48753W        W21079  14.316   7.281  11.719
48754W        W21080  42.953  39.567  11.103
48755W        W21081   5.332  25.522  11.510
48756W        W21082  25.206   1.788   3.333
48757W        W21083  34.865  32.536  13.551
48758W        W21084  19.291  24.132   4.133
48759W        W21085  11.451  24.961   1.848
48760W        W21086  34.713  17.103   1.861
48761W        W21087   4.223   9.562  10.138
48762W        W21088  38.834  42.264  14.908
48763W        W21089  31.034  25.445   1.214
48764W        W21090  40.134  19.166  11.656
48765W        W21091  33.024  35.444   9.533
48766W        W21092   4.545  41.401   1.965
48767W        W21093  41.853  39.610   4.047
48768W        W21094   0.913  16.356  12.931
48769W        W21095   5.926  20.028  11.627
48770W        W21096   7.714   2.252  14.837
48771W        W21097  28.859  31.613  12.795
48772W        W21098  37.881  38.950   2.216
48773W        W21099  44.092  32.861   0.312
48774W        W21100   5.655   7.152   3.210
48775W        W21101  13.331  11.781  12.680
48776W        W21102   3.002  26.466  14.388
48777W        W21103  23.000  38.894   3.532
48778W        W21104   0.341  34.419  11.528
48779W        W21105  10.851  43.362   3.726
48780W        W21106   5.809   3.674  12.050
48781W        W21107  17.833  16.760   0.592
48782W        W21108   2.793   4.181   9.771
48783W        W21109  42.906  14.684   0.778
48784W        W21110  33.447  35.927  14.963
48785W        W21111   5.333  44.707   1.927
48786W        W21112  40.812  20.116   3.687
48787W        W21113   0.312   6.093   1.774
48788W        W21114  38.387   2.804   4.249
48789W        W21115  41.746   9.745   1.465
48790W        W21116  43.089  25.095   4.784
48791W        W21117  34.835  19.555   1.775
48792W        W21118  38.420  15.394  14.545
48793W        W21119   6.923   8.759   3.711
48794W        W21120  34.836   8.349   1.902
48795W        W21121  41.658  22.287  10.282
48796W        W21122  10.238  21.579  11.951
48797W        W21123   4.689  25.188  12.594
48798W        W21124  16.693  39.735   3.867
48799W        W21125  14.674  35.426   1.498
48800W        W21126  18.142   6.359  11.214
48801W        W21127  35.166  36.470   1.371
48802W        W21128  34.062  28.951  14.738
48803W        W21129   4.811   9.274   4.515
48804W        W21130  37.760   8.174  11.027
48805W        W21131   6.929  41.677   0.283
48806W        W21132   4.730  40.404   2.252
48807W        W21133  38.395   7.966   0.820
48808W        W21134  26.743  35.771   2.101
48809W        W21135  32.861  37.087  14.445
48810W        W21136  44.082   7.747   2.213
48811W        W21137  39.866  27.411  13.495
48812W        W21138  25.545  12.194   4.675
48813W        W21139  24.994  33.067   1.321
48814W        W21140  30.109  40.915   4.680
48815W        W21141  42.779  15.507   0.402
48816W        W21142  23.597  18.029  11.567
48817W        W21143   8.415  27.186  14.764
48818W        W21144  28.186  22.043   0.670
48819W        W21145  24.231  32.099  14.442
48820W        W21146  11.268  11.924   0.032
48821W        W21147  40.232  22.751  13.593
48822W        W21148   0.949  38.984   2.315
48823W        W21149  26.587   6.756  11.599
48824W        W21150   7.883   3.800   1.776
48825W        W21151  28.197  18.537   4.111
48826W        W21152  27.088  34.825   3.169
48827W        W21153  23.564  30.227  13.385
48828W        W21154  38.085  32.710  10.974
48829W        W21155  40.080  12.673  13.842
48830W        W21156  12.758  22.494  13.850
48831W        W21157  43.812  16.152  14.933
48832W        W21158  17.516   4.362  11.163
48833W        W21159  22.758  12.711  12.534
48834W        W21160  19.653  35.585   3.230
48835W        W21161  39.968  27.377   4.097
48836W        W21162   5.008  17.152   4.441
48837W        W21163  38.857   0.487   1.043
48838W        W21164  44.162   2.298   4.581
48839W        W21165  28.976  41.848  13.588
48840W        W21166  37.283  15.601  13.966
48841W        W21167  36.473  12.674   2.402
48842W        W21168   3.371  26.432  11.435
48843W        W21169  25.644  18.743  14.536
48844W        W21170  21.903   7.111  12.000
48845W        W21171  16.966  42.737  12.034
48846W        W21172   6.833  36.649  13.932
48847W        W21173  11.186  32.012  12.426
48848W        W21174   2.722  36.454  12.797
48849W        W21175  22.459   8.955   2.286
48850W        W21176  43.987  21.641   3.261
48851W        W21177  27.644   0.975   1.006
48852W        W21178   7.545  12.367  12.012
48853W        W21179  31.118   6.185   1.185
48854W        W21180  20.734   0.780   2.211
48855W        W21181  22.730  11.802   5.141
48856W        W21182  17.164  40.769  13.322
48857W        W21183  29.122   2.735   2.909
48858W        W21184  38.406  10.651  10.097
48859W        W21185   1.451   6.172  13.841
48860W        W21186   7.840  19.622  11.030
48861W        W21187  28.492  28.343   5.035
48862W        W21188   4.305  23.120   4.405
48863W        W21189  14.992   4.981   9.895
48864W        W21190   7.158  30.583   4.013
48865W        W21191   5.782   6.044  12.240
48866W        W21192  37.013  29.769  12.454
48867W        W21193  10.771  29.405  14.007
48868W        W21194  23.991  25.154   4.096
48869W        W21195   3.691   9.778   3.258
48870W        W21196  33.517  14.608   3.614
48871W        W21197  27.301  14.222  10.662
48872W        W21198   9.353  14.597   4.217
48873W        W21199  42.232   5.089   3.652
48874W        W21200  40.794  43.356   4.157
48875W        W21201  25.965   3.491  10.365
48876W        W21202   8.269  30.443  13.004
48877W        W21203  12.574  11.315   3.257
48878W        W21204  44.278  11.807   4.643
48879W        W21205   8.365  21.895  13.910
48880W        W21206   8.122  25.117   4.364
48881W        W21207  36.649  32.081   0.897
48882W        W21208  32.727  14.691   4.278
48883W        W21209   7.317  40.366  14.860
48884W        W21210  35.658   1.959   4.445
48885W        W21211  34.123   8.208  11.715
48886W        W21212  35.806  43.439  11.909
48887W        W21213  10.051  17.760   1.938
48888W        W21214  24.172   7.522  10.330
48889W        W21215   3.648  29.094   2.726
48890W        W21216  20.748   0.184  12.954
48891W        W21217  42.854  24.541   0.956
48892W        W21218  14.925  28.754   2.693
48893W        W21219   9.623  12.324   4.179
48894W        W21220   1.327  14.149   1.211
48895W        W21221  24.124  35.992  11.534
48896W        W21222  29.454  11.123   4.627
48897W        W21223  25.814  37.186   4.057
48898W        W21224  12.619  24.088  14.497
48899W        W21225  21.594  12.740   3.236
48900W        W21226   7.784   6.929   1.274
48901W        W21227  12.815  20.877  13.994
48902W        W21228  20.055  20.858  13.923
48903W        W21229  11.684   2.950  12.407
48904W        W21230   5.500  25.004  14.515
48905W        W21231  34.433  40.512   4.001
48906W        W21232  35.505   1.956   0.736
48907W        W21233  37.893  12.577   3.607
48908W        W21234  18.009  30.977   0.169
48909W        W21235  19.990  38.729   1.012
48910W        W21236  15.362   0.509   1.239
48911W        W21237  22.113  40.979   4.998
48912W        W21238  25.690  15.070   2.790
48913W        W21239  13.650   0.345  10.766
48914W        W21240  22.423   4.720   2.531
48915W        W21241  33.441  10.816   1.149
48916W        W21242   1.275  26.608  14.836
48917W        W21243  28.965  14.594   0.902
48918W        W21244   1.483  29.400  10.668
48919W        W21245   0.251  38.198  13.566
48920W        W21246  13.886  37.958  13.942
48921W        W21247  17.636  13.169   2.887
48922W        W21248  19.098  23.776   3.348
48923W        W21249  17.106  35.410   3.239
48924W        W21250  41.977  42.345  14.533
48925W        W21251   9.529   9.451  11.508
48926W        W21252  40.726  41.423   1.267
48927W        W21253  12.750  34.596  14.214
48928W        W21254  15.594  29.916  11.631
48929W        W21255   5.892  16.788  13.905
48930W        W21256   5.463   4.304  11.417
48931W        W21257  29.819  28.488  12.392
48932W        W21258  21.747   4.826  11.566
48933W        W21259   4.508  28.706  14.875
48934W        W21260  29.229  43.936  11.318
48935W        W21261  37.991  44.182  10.993
48936W        W21262   0.193  22.204   0.655
48937W        W21263  12.958   8.427  14.504
48938W        W21264  20.919  38.447   0.829
48939W        W21265  39.405   5.776   4.822
48940W        W21266  20.508  22.505   0.978
48941W        W21267  29.934  11.248   2.373
48942W        W21268   9.183  15.062  14.492
48943W        W21269  18.176   4.364   1.230
48944W        W21270  26.625  27.545  10.710
48945W        W21271  26.615   8.583  14.864
48946W        W21272  36.855  40.839   3.567
48947W        W21273   4.504  29.041  14.467
48948W        W21274  42.926  37.673   9.816
48949W        W21275  33.516  40.273  12.377
48950W        W21276  19.766  31.734   4.534
48951W        W21277  30.257  12.901  11.554
48952W        W21278  13.114   3.215   1.300
48953W        W21279  23.171  28.515   0.310
48954W        W21280  17.678  20.058  12.018
48955W        W21281  33.461   5.811   3.620
48956W        W21282   0.165  22.080  13.465
48957W        W21283  27.086   2.742  10.389
48958W        W21284  25.088   8.634   3.258
48959W        W21285  22.065  39.290  12.546
48960W        W21286  36.119   8.911  10.800
48961W        W21287  10.894   1.790   1.297
48962W        W21288  13.865   3.795   3.760
48963W        W21289  10.851   2.462  14.386
48964W        W21290   6.533  24.835  10.384
48965W        W21291   6.010  14.600   2.631
48966W        W21292   4.621  36.110   5.077
48967W        W21293   5.697   9.878   1.394
48968W        W21294  10.259  41.555  14.412
48969W        W21295  11.746   7.210   0.319
48970W        W21296  19.355   8.984  14.912
48971W        W21297  14.631  36.878  13.423
48972W        W21298  44.376   2.313  10.639
48973W        W21299  36.227  32.408  10.576
48974W        W21300   1.737  10.771  12.976
48975W        W21301  17.823  17.258   0.444
48976W        W21302  39.668  27.148   2.836
48977W        W21303  22.691  24.697   3.720
48978W        W21304  33.947  40.411  13.500
48979W        W21305  28.586  36.014  12.130
48980W        W21306   0.215   8.782  14.559
48981W        W21307  10.420  24.819   5.052
48982W        W21308  27.109   9.747   1.988
48983W        W21309  28.176  22.446   2.407
48984W        W21310   4.770  26.533  11.228
48985W        W21311  36.585   4.798  12.510
48986W        W21312  18.828   2.364   0.604
48987W        W21313   7.980   0.573  14.847
48988W        W21314  44.238  30.055  12.570
48989W        W21315   1.834  17.018  14.479
48990W        W21316  17.079  15.070  13.525
48991W        W21317   1.112  38.443  14.559
48992W        W21318  28.076  12.565  11.319
48993W        W21319  35.862   4.265   2.628
48994W        W21320   7.884  31.966  10.691
48995W        W21321  23.680  29.915   2.089
48996W        W21322  25.970   2.410   3.375
48997W        W21323   1.759  31.207  13.281
48998W        W21324  40.353   2.239  14.889
48999W        W21325   1.339  23.263  10.982
49000W        W21326  34.997   0.955   2.151
49001W        W21327  40.326  26.025  12.700
49002W        W21328  25.615  14.281  11.927
49003W        W21329   6.298   8.466  14.833
49004W        W21330  23.505  44.031   4.598
49005W        W21331  26.645  43.888   2.316
49006W        W21332  13.605  33.022   0.801
49007W        W21333  35.624  13.676   0.440
49008W        W21334  28.115  15.016   0.870
49009W        W21335  14.725  16.580   4.730
49010W        W21336   0.961  35.592  10.475
49011W        W21337  20.268  32.142  11.202
49012W        W21338  10.171  20.068  13.225
49013W        W21339  19.913   5.299  10.647
49014W        W21340  25.274  13.150  12.501
49015W        W21341  27.971  35.464  12.575
49016W        W21342  44.133  43.315  12.880
49017W        W21343  26.537  39.304   0.523
49018W        W21344  13.523  14.783   2.736
49019W        W21345  40.922  16.696   0.833
49020W        W21346  18.308  13.376  14.833
49021W        W21347  11.575  41.626   4.171
49022W        W21348  22.644   3.421   2.830
49023W        W21349   1.816  15.958   3.336
49024W        W21350  37.765   0.319   1.345
49025W        W21351  26.547   4.911  13.051
49026W        W21352  38.864  14.654  13.260
49027W        W21353  30.177  29.244  11.748
49028W        W21354  26.434  10.091  11.944
49029W        W21355  17.588  33.320   2.067
49030W        W21356  28.428   4.843  13.502
49031W        W21357  30.425  26.124  11.313
49032W        W21358  31.045   1.554   0.371
49033W        W21359  20.090  36.915   3.237
49034W        W21360  43.057  29.452  10.797
49035W        W21361  14.411  21.056  11.395
49036W        W21362  12.075  40.158   1.395
49037W        W21363   8.856  36.588   1.143
49038W        W21364   4.764  44.508  12.016
49039W        W21365  12.669  29.193  12.897
49040W        W21366  35.305   7.810  12.921
49041W        W21367  11.375  28.339  12.042
49042W        W21368  24.969   6.106   1.337
49043W        W21369   5.361  43.241  11.832
49044W        W21370  22.667  19.116   2.379
49045W        W21371  21.645   5.209  14.579
49046W        W21372   8.467  43.424  14.883
49047W        W21373  15.724  23.245  12.993
49048W        W21374   8.680  14.020   3.185
49049W        W21375   6.182  11.220   1.398
49050W        W21376  12.749  32.689  14.853
49051W        W21377  35.936  42.834  12.123
49052W        W21378  34.026   0.965   3.205
49053W        W21379  15.779  33.566   0.847
49054W        W21380  31.146  21.011   1.063
49055W        W21381   1.730  23.517   0.836
49056W        W21382  29.189  44.393  13.981
49057W        W21383  22.470   0.918  11.215
49058W        W21384  17.221  34.808  12.595
49059W        W21385  26.460  12.228  14.986
49060W        W21386  33.483   7.459  10.653
49061W        W21387   2.650  36.436   0.253
49062W        W21388  40.285  40.575   0.513
49063W        W21389  18.292  25.972  12.548
49064W        W21390   2.017  17.761  13.981
49065W        W21391   2.177   3.448   2.146
49066W        W21392  43.468   7.192   2.842
49067W        W21393  18.174  29.176  10.732
49068W        W21394  22.842  18.341  11.913
49069W        W21395  40.842   8.389   3.269
49070W        W21396  24.616  25.408   2.873
49071W        W21397  12.757  20.803   3.317
49072W        W21398  28.041  17.238  12.417
49073W        W21399  17.519  28.726   3.946
49074W        W21400  11.812  44.043   3.747
49075W        W21401  29.397   4.415  12.058
49076W        W21402   2.644  32.563  10.714
49077W        W21403  42.651  43.949  13.788
49078W        W21404  42.511  11.215   3.136
49079W        W21405   0.826   5.289   2.850
49080W        W21406  16.193  38.854  10.028
49081W        W21407  24.231  40.921  11.681
49082W        W21408  16.557   0.951  13.581
49083W        W21409  38.785  33.394   1.720
49084W        W21410   9.397   8.222   4.856
49085W        W21411  39.513   8.837   1.646
49086W        W21412  30.935  17.848  14.013
49087W        W21413  18.174   7.132   0.901
49088W        W21414  29.051  15.647  14.934
49089W        W21415   7.368  25.198  11.584
49090W        W21416  13.212  39.561  11.647
49091W        W21417  14.033  22.168   3.314
49092W        W21418  19.159  38.547  11.846
49093W        W21419  25.989  10.254   4.200
49094W        W21420  40.203  20.057   2.832
49095W        W21421  15.290  20.173   3.078
49096W        W21422  44.168  32.616  12.512
49097W        W21423  19.280  19.584  10.674
49098W        W21424  22.123  26.410  13.972
49099W        W21425  44.102  42.395  11.994
49100W        W21426  19.220  10.183  12.667
49101W        W21427  32.697  14.664   2.273
49102W        W21428  39.940  37.380   2.500
49103W        W21429  20.495  41.535  12.753
49104W        W21430  24.304  28.230  12.070
49105W        W21431  43.918  34.475  10.949
49106W        W21432  38.296  30.333  11.999
49107W        W21433  37.517  16.770   4.999
49108W        W21434  26.899  22.308   4.974
49109W        W21435   2.969   1.757   1.673
49110W        W21436   0.225  44.074  12.888
49111W        W21437  36.884  21.424   3.257
49112W        W21438   8.569  20.759  11.234
49113W        W21439  20.043  27.630   3.835
49114W        W21440  18.126  17.169  11.131
49115W        W21441   9.182   2.060  12.916
49116W        W21442  41.637  25.418  14.873
49117W        W21443  44.807   5.265   0.229
49118W        W21444   2.544   8.798  12.196
49119W        W21445  23.481  13.240   2.706
49120W        W21446  10.407  35.328  11.517
49121W        W21447  36.572  12.719  10.732
49122W        W21448  25.918  27.118   1.305
49123W        W21449  16.257  31.492   4.875
49124W        W21450  37.903  21.786   4.175
49125W        W21451   1.062  17.009  10.528
49126W        W21452  36.066  25.437   4.571
49127W        W21453  20.979  20.981  14.238
49128W        W21454  19.262   2.878  11.537
49129W        W21455  37.304  11.064   1.939
49130W        W21456  43.877   7.880   3.540
49131W        W21457  42.397  11.428  12.381
49132W        W21458  20.946  30.957   2.764
49133W        W21459  16.827  15.506  10.187
49134W        W21460  24.091   6.342   4.126
49135W        W21461  23.597  24.106  13.271
49136W        W21462  16.962  26.356  10.934
49137W        W21463   0.836   0.137   0.470
49138W        W21464  32.499  43.599  14.061
49139W        W21465  21.463  41.520   3.172
49140W        W21466   8.185   3.621   2.875
49141W        W21467   3.325  13.519   3.316
49142W        W21468  18.827  33.035   0.040
49143W        W21469  17.291   3.001   0.753
49144W        W21470  13.743  40.935   3.743
49145W        W21471   9.173  37.522   1.684
49146W        W21472  29.701  37.501  14.089
49147W        W21473  43.480  27.177   4.733
49148W        W21474  22.041  28.951   0.203
49149W        W21475  15.634  29.444  11.146
49150W        W21476  19.522  11.612   4.093
49151W        W21477  36.920  28.527   4.689
49152W        W21478  10.855  32.030  14.303
49153W        W21479  34.069  14.737  14.565
49154W        W21480  28.377  14.129   1.311
49155W        W21481  27.984  17.698  11.565
49156W        W21482  18.818  33.076  13.068
49157W        W21483  20.826  25.575  13.598
49158W        W21484  38.993  33.422  11.991
49159W        W21485  20.182  20.811   4.524
49160W        W21486   0.482   9.939  12.063
49161W        W21487  23.694  44.947   2.939
49162W        W21488  24.616   2.011   1.652
49163W        W21489  30.421  22.732   1.750
49164W        W21490  15.660  28.497   1.344
49165W        W21491   8.131  22.364  13.951
49166W        W21492  22.129   9.234   1.472
49167W        W21493  35.915  18.253   4.549
49168W        W21494  17.264  11.444   4.408
49169W        W21495  12.849  13.590  14.412
49170W        W21496  16.155  29.941  14.980
49171W        W21497  20.513  12.115  13.018
49172W        W21498   4.602  32.928   1.405
49173W        W21499   8.829  29.118  14.365
49174W        W21500   5.206  16.636   4.497
49175W        W21501  15.558  19.361   1.398
49176W        W21502  23.586  20.813   3.264
49177W        W21503   9.256   3.702  14.974
49178W        W21504  11.344  18.342   4.182
49179W        W21505   7.127  19.259  11.983
49180W        W21506   8.207   1.034  14.836
49181W        W21507  25.913  30.554  13.341
49182W        W21508  39.617  12.587   2.368
49183W        W21509  24.031  34.017  14.742
49184W        W21510   7.441  41.144  11.601
49185W        W21511  33.151  34.612   5.124
49186W        W21512   3.307  24.273   3.212
49187W        W21513  26.177  26.752  10.158
49188W        W21514  35.530  32.149  10.271
49189W        W21515   1.522  35.325  14.790
49190W        W21516  17.119  37.184  10.879
49191W        W21517   1.256  32.041   4.560
49192W        W21518  23.482   1.271  12.424
49193W        W21519  40.888  33.469   3.842
49194W        W21520  39.371  23.477  13.548
49195W        W21521  13.592  42.411  11.079
49196W        W21522  40.257  21.966  13.698
49197W        W21523  17.683   3.727   4.509
49198W        W21524  18.216  43.042  11.237
49199W        W21525   9.422   5.808  10.578
49200W        W21526  16.391   9.439   1.630
49201W        W21527  41.052  21.834  13.749
49202W        W21528  16.597  31.900  14.266
49203W        W21529   0.812  31.323   0.937
49204W        W21530  34.065   9.961  13.406
49205W        W21531  18.822   7.864  13.849
49206W        W21532  15.710   6.711  12.698
49207W        W21533   6.909   7.390  13.958
49208W        W21534  18.845  29.100   0.329
49209W        W21535   8.409  43.027   1.370
49210W        W21536  37.430  25.644  11.040
49211W        W21537  16.997  30.535   5.014
49212W        W21538  17.584  18.214  12.470
49213W        W21539  38.267  20.686   2.659
49214W        W21540   6.654  39.735  13.947
49215W        W21541  25.218  20.981  14.580
49216W        W21542   5.705  26.982   4.489
49217W        W21543  14.107  41.332  11.202
49218W        W21544  25.041  44.869   3.486
49219W        W21545  42.708   8.687   2.630
49220W        W21546  40.795   6.472   0.876
49221W        W21547  33.856  21.043   0.914
49222W        W21548   8.175  34.451  14.556
49223W        W21549  25.849   1.677  11.657
49224W        W21550   5.430  36.864  11.724
49225W        W21551  39.580  15.669   0.334
49226W        W21552  42.227  44.975  14.069
49227W        W21553  39.105  24.191   3.677
49228W        W21554   3.321  41.242  10.401
49229W        W21555  11.513   4.629   2.158
49230W        W21556  33.448   2.363   5.233
49231W        W21557   0.323   8.220  11.631
49232W        W21558  16.614  34.596   0.978
49233W        W21559  26.937  44.302   0.291
49234W        W21560  18.356  10.302   3.081
49235W        W21561   3.926  44.246   2.562
49236W        W21562  26.613   1.536   3.178
49237W        W21563   5.306  22.858  12.338
49238W        W21564  10.121  44.364  11.557
49239W        W21565   5.848   5.914  11.294
49240W        W21566  27.737  12.056   3.898
49241W        W21567  22.848  16.448  14.398
49242W        W21568   9.618  20.945   1.831
49243W        W21569  24.208  32.465  14.813
49244W        W21570  17.312  36.897   4.132
49245W        W21571  36.292  11.169   0.268
49246W        W21572  23.744  12.076  14.870
49247W        W21573  27.856  36.131   1.446
49248W        W21574  37.982  10.743  11.171
49249W        W21575  14.690  27.957  14.214
49250W        W21576  29.509   3.499   2.739
49251W        W21577  33.619  28.986   0.536
49252W        W21578   7.354   6.442   0.065
49253W        W21579  37.317  11.302  10.639
49254W        W21580  20.621  36.316  12.526
49255W        W21581   8.735  36.952  11.534
49256W        W21582   8.952  12.407   3.699
49257W        W21583  43.972  26.267   2.732
49258W        W21584  38.598  39.913   0.686
49259W        W21585   2.248   3.679  14.463
49260W        W21586  16.766  41.966   2.732
49261W        W21587  21.632  41.736   2.704
49262W        W21588  15.379  15.075   2.691
49263W        W21589  30.393  23.044   0.909
49264W        W21590  34.449   2.880   2.386
49265W        W21591   1.758   6.718  12.720
49266W        W21592   2.177  24.187   4.766
49267W        W21593  24.475  25.634   3.330
49268W        W21594  34.518  26.631   0.988
49269W        W21595  22.231  41.935  10.579
49270W        W21596  35.057   6.849  12.954
49271W        W21597   6.918   2.295  14.483
49272W        W21598  15.554   6.824  14.793
49273W        W21599  38.091  24.429   1.177
49274W        W21600  32.647  39.046   3.333
49275W        W21601  13.247  36.919   9.884
49276W        W21602  18.294   5.970   3.744
49277W        W21603  32.366  28.566   3.359
49278W        W21604  38.893  41.820   0.813
49279W        W21605   0.469  21.555   0.362
49280W        W21606   5.337  25.467  14.326
49281W        W21607  28.479  15.878  13.484
49282W        W21608  25.399  37.909   2.336
49283W        W21609  20.812  17.759  10.605
49284W        W21610  38.136   2.781  12.766
49285W        W21611  27.323   5.811   0.787
49286W        W21612  12.685  22.898   0.686
49287W        W21613   1.696  11.537   3.420
49288W        W21614  15.107  18.211  11.622
49289W        W21615  41.341  18.495  13.997
49290W        W21616  32.860  43.307  12.585
49291W        W21617   1.208  24.031  12.942
49292W        W21618  26.120  21.865  12.548
49293W        W21619   5.684  30.470   2.622
49294W        W21620  40.032   3.868  13.839
49295W        W21621  24.894   6.909   1.822
49296W        W21622  37.637  15.293   0.970
49297W        W21623   4.813  10.935   1.249
49298W        W21624  26.234  35.022  12.337
49299W        W21625  23.503  32.680  11.450
49300W        W21626  33.972  18.204  11.129
49301W        W21627   2.295   6.831   2.231
49302W        W21628  12.671  23.404   0.861
49303W        W21629   7.942  38.789   3.705
49304W        W21630  19.782   5.709   3.846
49305W        W21631  28.270  17.519  12.910
49306W        W21632   7.129  38.498   3.700
49307W        W21633   3.473  28.765  14.078
49308W        W21634  36.469  38.980  13.922
49309W        W21635   8.771  14.328  13.934
49310W        W21636   5.675   8.747   4.091
49311W        W21637  28.587   0.303  11.440
49312W        W21638  40.015  36.125  14.202
49313W        W21639  22.947   8.820   2.174
49314W        W21640  29.603   5.805   0.847
49315W        W21641  43.635   8.762  12.620
49316W        W21642  18.452  19.248  11.630
49317W        W21643  25.098   7.698  10.595
49318W        W21644  12.354   4.339   4.314
49319W        W21645  32.709  35.540   1.219
49320W        W21646  23.674  29.713  13.480
49321W        W21647  24.167  32.450   0.964
49322W        W21648  37.351   7.761  11.969
49323W        W21649  29.062   9.285   3.394
49324W        W21650   1.073  37.472  11.152
49325W        W21651  22.564  34.941  11.649
49326W        W21652   7.926   5.789   1.765
49327W        W21653  17.758  19.141   1.017
49328W        W21654  34.059  24.599   0.933
49329W        W21655   0.973  10.895   4.260
49330W        W21656  42.801  41.808   4.609
49331W        W21657  33.016  44.541  10.425
49332W        W21658  27.615  38.460  14.473
49333W        W21659  42.791  16.279  11.779
49334W        W21660   9.053  41.967   0.496
49335W        W21661  14.861   4.777  12.066
49336W        W21662  17.708  19.699   2.336
49337W        W21663  24.155  19.887  12.949
49338W        W21664  22.219   6.786  14.944
49339W        W21665  13.769   8.673   1.089
49340W        W21666  42.541   7.994   0.122
49341W        W21667  33.017  39.052  11.503
49342W        W21668  30.387  24.252  11.968
49343W        W21669  35.064   8.846   4.762
49344W        W21670  37.979  12.667   1.732
49345W        W21671  34.232  21.040   3.176
49346W        W21672  34.461  14.838   0.726
49347W        W21673  39.760  19.569  11.150
49348W        W21674   2.674  10.821   2.235
49349W        W21675  39.470  35.948  13.382
49350W        W21676  25.697   8.767  10.038
49351W        W21677  29.191  36.408  12.223
49352W        W21678  21.730  18.159   2.176
49353W        W21679   9.259  36.464  14.849
49354W        W21680  25.724  40.228   4.188
49355W        W21681  15.632  28.636  11.651
49356W        W21682  32.325  13.690  11.166
49357W        W21683  11.433  11.332   4.164
49358W        W21684  35.924  38.675  12.879
49359W        W21685   8.784  30.410  10.727
49360W        W21686   1.164  23.550   3.715
49361W        W21687  18.944  17.206   1.348
49362W        W21688  17.920  27.327  11.209
49363W        W21689   5.546  28.831   1.451
49364W        W21690  42.406  33.973   0.207
49365W        W21691  31.491   4.082   0.912
49366W        W21692  23.771   0.286   0.412
49367W        W21693  35.077  31.065   1.405
49368W        W21694   8.993  12.229  13.100
49369W        W21695  19.512  44.614   5.069
49370W        W21696  11.966   2.078   2.211
49371W        W21697   7.395  22.235  14.372
49372W        W21698  43.445  39.074   3.092
49373W        W21699  33.465  40.387   3.641
49374W        W21700  17.701  10.713   1.478
49375W        W21701  11.934  32.610  14.288
49376W        W21702  25.223  40.965  11.518
49377W        W21703  20.343  44.374  11.068
49378W        W21704  22.733  25.609  12.575
49379W        W21705  22.601  30.432   2.140
49380W        W21706  29.884  32.285  14.970
49381W        W21707  44.949  19.959  11.869
49382W        W21708  26.065   8.048   4.838
49383W        W21709  35.334  37.833   0.892
49384W        W21710  37.413  29.488  14.793
49385W        W21711  17.667  36.415  13.317
49386W        W21712  28.461  23.444  13.824
49387W        W21713  12.507  34.306  10.112
49388W        W21714  29.579  18.479  13.479
49389W        W21715  18.135  31.874  13.104
49390W        W21716  12.014  18.937   3.125
49391W        W21717   7.433   8.772  11.878
49392W        W21718  14.477  18.489   0.048
49393W        W21719   8.584  15.770   2.668
49394W        W21720   5.349  28.050  11.254
49395W        W21721  14.779  42.742  11.175
49396W        W21722  33.957  26.463   2.736
49397W        W21723  35.463  22.713   2.901
49398W        W21724   9.373  15.372  12.870
49399W        W21725  40.565  22.965  10.375
49400W        W21726  40.502  11.785   3.764
49401W        W21727   4.277  28.279   5.117
49402W        W21728   8.184   3.838  10.574
49403W        W21729   2.087  11.847   0.217
49404W        W21730   0.805   4.367   3.267
49405W        W21731  33.214  40.814   3.476
49406W        W21732  41.209  41.644   3.162
49407W        W21733  22.143  30.186   2.110
49408W        W21734  41.001  14.600  14.888
49409W        W21735   5.320  21.602  12.960
49410W        W21736  27.641   4.794   4.473
49411W        W21737  30.588   7.783   4.721
49412W        W21738  13.744  36.498  13.467
49413W        W21739  21.052  17.744  12.518
49414W        W21740  21.163  24.447  13.813
49415W        W21741  12.855  12.638  14.324
49416W        W21742  24.760  41.420   0.477
49417W        W21743   8.912  41.688   0.953
49418W        W21744  25.622  14.679   0.955
49419W        W21745  21.617   0.422   4.740
49420W        W21746  32.800  25.728   3.329
49421W        W21747  15.852  30.974  14.026
49422W        W21748  12.383  26.065  14.401
49423W        W21749  15.007  18.835  13.034
49424W        W21750   3.806  17.150   3.858
49425W        W21751  17.691  37.815  12.676
49426W        W21752  28.411   6.507   3.921
49427W        W21753  35.880  29.151  11.632
49428W        W21754  19.061  38.033   0.883
49429W        W21755  13.381  41.918   2.243
49430W        W21756  43.326  26.320  13.513
49431W        W21757  29.056  12.443  13.970
49432W        W21758  22.245   9.922  14.097
49433W        W21759  42.359  24.420   0.883
49434W        W21760  39.573  34.471  14.938
49435W        W21761   6.387  20.595   3.300
49436W        W21762  25.604  27.015  12.031
49437W        W21763  25.105  28.163  12.899
49438W        W21764  23.981  12.212   3.608
49439W        W21765  28.189  26.576  14.550
49440W        W21766   4.177  44.385   0.606
49441W        W21767  18.763  15.511  14.296
49442W        W21768  20.441  38.475  14.317
49443W        W21769  16.280   7.584  11.239
49444W        W21770  37.962  29.601   4.565
49445W        W21771  36.529  34.876   4.513
49446W        W21772  27.960  31.990   4.551
49447W        W21773  18.850  43.803   2.877
49448W        W21774  17.476  33.517   4.513
49449W        W21775  17.651  28.556   2.956
49450W        W21776  42.252  42.468  12.945
49451W        W21777  30.790  24.000   1.171
49452W        W21778  43.965  12.634  14.009
49453W        W21779  27.942   6.618  10.669
49454W        W21780  34.599  27.060   0.697
49455W        W21781  34.894   4.585   4.488
49456W        W21782  44.218  10.156  14.426
49457W        W21783   7.655  35.938   2.765
49458W        W21784  24.005  18.481   3.174
49459W        W21785   9.004  13.774   1.664
49460W        W21786  13.627  35.313   0.391
49461W        W21787  35.592  11.469   0.966
49462W        W21788  16.359   1.400  13.407
49463W        W21789  13.201  31.549  12.027
49464W        W21790  12.612  26.979  12.161
49465W        W21791   5.921  19.116   2.719
49466W        W21792  36.073  26.700   1.236
49467W        W21793  23.464  17.177  11.242
49468W        W21794  28.050  31.447   4.580
49469W        W21795  28.826   1.207  10.909
49470W        W21796   5.799  30.126   0.417
49471W        W21797  12.449  35.782  14.226
49472W        W21798  29.183  15.280  13.062
49473W        W21799  29.968  12.275  13.615
49474W        W21800  20.090  17.086   3.197
49475W        W21801   8.173  18.963  11.401
49476W        W21802  17.580  31.960  14.409
49477W        W21803  27.900   2.199  12.105
49478W        W21804  17.095   4.314   3.028
49479W        W21805  28.999  31.417  13.253
49480W        W21806  30.659  33.566   4.715
49481W        W21807  31.922   4.563  12.208
49482W        W21808   0.365  11.497   4.846
49483W        W21809  22.294   6.192   2.284
49484W        W21810   7.850   3.296   1.597
49485W        W21811  21.750  39.653   3.837
49486W        W21812  32.676  18.804  11.321
49487W        W21813  38.255  21.240  11.623
49488W        W21814  13.416  30.527  12.965
49489W        W21815  36.602  15.589   4.751
49490W        W21816  36.387  22.598   1.575
49491W        W21817  36.313  24.452  11.606
49492W        W21818  10.354   2.674   2.836
49493W        W21819  26.985  42.454  11.668
49494W        W21820  27.988  14.747   2.850
49495W        W21821  19.486  13.213  12.043
49496W        W21822  39.099  30.127  10.478
49497W        W21823  23.922  40.554   3.863
49498W        W21824  35.846   0.996  12.095
49499W        W21825  15.320  40.391   0.167
49500W        W21826  17.531  32.547   1.680
49501W        W21827  44.143  41.393  11.196
49502W        W21828  30.391  43.734   1.931
49503W        W21829   7.353  17.207  10.927
49504W        W21830  28.005   3.522   4.965
49505W        W21831   5.876  42.346   1.421
49506W        W21832   4.384  11.177  11.101
49507W        W21833  15.870  31.402   1.679
49508W        W21834  37.781  19.584   4.057
49509W        W21835  30.978  43.630   3.653
49510W        W21836  23.674  12.284   3.199
49511W        W21837  40.017  38.761   1.251
49512W        W21838   4.449  44.243  11.574
49513W        W21839  40.963   9.836   0.913
49514W        W21840  33.777  21.925   0.470
49515W        W21841   3.356  23.790  11.155
49516W        W21842   6.607   7.162   2.438
49517W        W21843  22.797  12.629   0.701
49518W        W21844  11.641  14.245   4.699
49519W        W21845  25.620   7.509   2.818
49520W        W21846  41.104  44.038  10.612
49521W        W21847  11.917  21.103   3.922
49522W        W21848   3.652  33.296   0.440
49523W        W21849  32.367  20.376   1.792
49524W        W21850  25.649  17.631   4.096
49525W        W21851   1.460  41.951   4.609
49526W        W21852  15.502  39.330   3.390
49527W        W21853   2.375   0.003  11.095
49528W        W21854   5.439  14.040   0.411
49529W        W21855  17.745   1.974   1.015
49530W        W21856   6.777   5.888   1.592
49531W        W21857   6.436  34.473   0.879
49532W        W21858   8.802  13.031  13.545
49533W        W21859  32.578  14.150  11.047
49534W        W21860  12.877  32.461   3.322
49535W        W21861  37.310   2.453   0.836
49536W        W21862   2.835  34.959   0.811
49537W        W21863   8.817  32.751  13.310
49538W        W21864   4.779  35.514  14.280
49539W        W21865  38.383  29.767  11.136
49540W        W21866  34.479  29.054  14.444
49541W        W21867  41.113  17.580  11.620
49542W        W21868   5.411  25.482   2.063
49543W        W21869   8.850  16.031  14.456
49544W        W21870  40.739  34.605   3.362
49545W        W21871  23.463   1.786   3.834
49546W        W21872  44.527  21.112  14.266
49547W        W21873  35.212   1.022   5.113
49548W        W21874  15.753  31.934  12.363
49549W        W21875  21.973  40.432  14.916
49550W        W21876  11.231  31.758  12.915
49551W        W21877  38.510   8.461  14.932
49552W        W21878  41.547  40.267  11.492
49553W        W21879   2.269  16.436  11.363
49554W        W21880  21.742  19.505   2.578
49555W        W21881  33.925  42.375  14.814
49556W        W21882  44.409  38.806  10.585
49557W        W21883  15.881  17.514   0.157
49558W        W21884  10.269  23.690   0.759
49559W        W21885   7.545   4.517   3.541
49560W        W21886  34.213   4.038   3.609
49561W        W21887   2.417   0.574   4.228
49562W        W21888  16.585  18.472   2.769
49563W        W21889  27.191   6.446   1.788
49564W        W21890  41.240  15.740  12.940
49565W        W21891  18.274  34.533  14.796
49566W        W21892  10.609  32.217   2.394
49567W        W21893   3.689  39.539   3.294
49568W        W21894  32.621  16.804   1.442
49569W        W21895  10.761  23.001  12.001
49570W        W21896  34.360  42.810   3.075
49571W        W21897   1.823  24.450  12.474
49572W        W21898  24.045  13.472  11.551
49573W        W21899  40.026  28.400  12.548
49574W        W21900  10.253  43.463  14.765
49575W        W21901  25.652  26.913   0.579
49576W        W21902   8.158  26.186   3.694
49577W        W21903  20.358  18.008  11.087
49578W        W21904  14.150  19.212  10.929
49579W        W21905   9.317  17.419   0.265
49580W        W21906  12.276  39.331   1.893
49581W        W21907  44.972   8.229   2.438
49582W        W21908   4.690  22.104   4.688
49583W        W21909  14.243   0.804   5.122
49584W        W21910   9.592  27.038  12.152
49585W        W21911   9.176  12.245   1.395
49586W        W21912  15.871  39.305  13.432
49587W        W21913  20.524  39.398   2.258
49588W        W21914  21.539  17.069   1.297
49589W        W21915  26.450  20.712  14.013
49590W        W21916  32.213  43.486  12.165
49591W        W21917  19.684   5.645  13.417
49592W        W21918  12.215   0.279   1.352
49593W        W21919  41.456   3.482  10.978
49594W        W21920  38.595   8.875   9.955
49595W        W21921  26.969  39.968   4.712
49596W        W21922   0.958  32.541  14.229
49597W        W21923   8.149   3.871   4.305
49598W        W21924  12.804  20.108  10.727
49599W        W21925  15.288  42.991  10.557
49600W        W21926  44.438  17.141  13.582
49601W        W21927  42.316  16.442  11.631
49602W        W21928  40.464  19.218   3.367
49603W        W21929   9.626   6.807  13.021
49604W        W21930   7.828  16.788   1.300
49605W        W21931   3.129  23.632  14.856
49606W        W21932   9.419  18.101   3.649
49607W        W21933  25.561  20.622   2.794
49608W        W21934  44.455  16.134   0.481
49609W        W21935  16.589  28.600   0.350
49610W        W21936   0.520  35.572  10.735
49611W        W21937  16.378  35.481   2.718
49612W        W21938   8.165   7.776   4.641
49613W        W21939  12.658  27.005  11.086
49614W        W21940  16.559   6.667  14.357
49615W        W21941  33.324   6.677  13.258
49616W        W21942  27.320   8.798   3.228
49617W        W21943  18.201  24.168  11.136
49618W        W21944  20.147  37.892  14.211
49619W        W21945  31.021  12.223  13.699
49620W        W21946  19.180  43.443   2.251
49621W        W21947  33.879  14.791   4.337
49622W        W21948  20.792  40.951   1.671
49623W        W21949  16.772  42.093  14.268
49624W        W21950  17.016  43.568  12.538
49625W        W21951   1.012   0.337   3.649
49626W        W21952   1.787   0.228  11.500
49627W        W21953  35.731   1.912   0.267
49628W        W21954  14.244  26.095   2.243
49629W        W21955  15.830  40.488   0.885
49630W        W21956  24.905  37.097   2.126
49631W        W21957  30.455   6.282   2.411
49632W        W21958   0.141  15.802   3.622
49633W        W21959  11.536   7.091  11.071
49634W        W21960  37.620  37.054  12.536
49635W        W21961  31.644   6.588  13.068
49636W        W21962   9.899  36.134   0.887
49637W        W21963  30.897  21.155   5.068
49638W        W21964  28.036   2.756   2.714
49639W        W21965  24.969   8.294   1.396
49640W        W21966   8.405  33.513   0.846
49641W        W21967  25.767  26.588  14.839
49642W        W21968  35.406   2.467   0.806
49643W        W21969  16.045  23.052   2.110
49644W        W21970  12.291  15.437  13.054
49645W        W21971  33.053  39.313   3.537
49646W        W21972  28.650   7.271  14.291
49647W        W21973   7.986  12.507  10.672
49648W        W21974  14.290  31.908  14.800
49649W        W21975   0.780  25.003   4.606
49650W        W21976  32.903   6.318  14.413
49651W        W21977  30.641  40.373   1.461
49652W        W21978   2.759  21.955  13.546
49653W        W21979  12.168   6.079   4.135
49654W        W21980  17.709  31.444  10.638
49655W        W21981  25.653  33.369  10.961
49656W        W21982  33.955  37.833   0.696
49657W        W21983  36.772  30.247   2.654
49658W        W21984  10.048  42.574   4.997
49659W        W21985   5.045   9.328   4.071
49660W        W21986  25.120  41.032   0.837
49661W        W21987  24.102  26.914   2.054
49662W        W21988  16.636  37.378  14.618
49663W        W21989  38.162  38.480  11.287
49664W        W21990  20.629  37.935  14.026
49665W        W21991  12.694   4.477  12.611
49666W        W21992   4.968  31.603  12.478
49667W        W21993  10.779  16.414   3.159
49668W        W21994  16.659  42.020  14.775
49669W        W21995  12.401  26.021   2.446
49670W        W21996  12.954  36.688   4.254
49671W        W21997  43.800  39.761  12.099
49672W        W21998  25.043   4.650  14.321
49673W        W21999   9.091   0.777   3.325
49674W        W22000  21.665  18.972  12.218
49675W        W22001  33.576  19.953  12.636
49676W        W22002  27.017  44.224   2.121
49677W        W22003  30.301  40.225   0.509
49678W        W22004  12.728  26.266  10.248
49679W        W22005  31.003  12.356  11.978
49680W        W22006  37.458  29.930  14.032
49681W        W22007  38.914  44.726  11.277
49682W        W22008  24.254  24.874  14.301
49683W        W22009  23.971  31.276  12.042
49684W        W22010   4.357  18.884   0.131
49685W        W22011  39.431  26.688   2.811
49686W        W22012  32.015  31.625   2.628
49687W        W22013  31.415  30.351   2.746
49688W        W22014  30.168  32.831  14.245
49689W        W22015  10.917  11.413  11.286
49690W        W22016  29.691  33.078  11.599
49691W        W22017  13.662   9.911   4.789
49692W        W22018   5.705  19.209   3.250
49693W        W22019  16.756  12.106  11.993
49694W        W22020  33.964  38.818   4.583
49695W        W22021  14.873  30.755  14.582
49696W        W22022  40.277   7.156   4.624
49697W        W22023  32.485  28.908  13.906
49698W        W22024  40.001  37.003   1.807
49699W        W22025  25.968   9.281  12.930
49700W        W22026  38.920   1.833  12.092
49701W        W22027  23.718   5.842  12.980
49702W        W22028   2.930  14.635   2.079
49703W        W22029  33.610  37.795  14.620
49704W        W22030   7.581  38.455  12.577
49705W        W22031   0.969   6.710   1.257
49706W        W22032   5.941  28.592  13.975
49707W        W22033  33.039  18.111   1.317
49708W        W22034  25.503   9.984  12.351
49709W        W22035  42.970   3.443  10.658
49710W        W22036  34.342  25.030   0.816
49711W        W22037  32.576   6.095   2.275
49712W        W22038  44.947  35.892  12.420
49713W        W22039  23.790   4.222  10.603
49714W        W22040  44.638  38.085   2.187
49715W        W22041  43.364  24.405   2.673
49716W        W22042  30.426  32.325   2.763
49717W        W22043  23.127  31.490   2.770
49718W        W22044  34.408  15.352   3.609
49719W        W22045  26.887  36.347  10.662
49720W        W22046   5.353  32.040   0.299
49721W        W22047  40.065  20.679   2.243
49722W        W22048  41.791  33.068   4.008
49723W        W22049  24.001  29.634  14.968
49724W        W22050  15.275  42.275  13.320
49725W        W22051  12.352  26.390   2.791
49726W        W22052  36.908  33.806   5.872
49727W        W22053  36.059   3.259   4.063
49728W        W22054  10.493  43.752   2.779
49729W        W22055  23.519  35.924   1.497
49730W        W22056   6.796  28.103   2.682
49731W        W22057  19.534  14.677   2.784
49732W        W22058   4.524  23.005   2.697
49733W        W22059  40.774  20.704  14.343
49734W        W22060  24.428  16.715   3.234
49735W        W22061   4.295  18.743  11.867
49736W        W22062  38.314   2.265  14.929
49737W        W22063  28.983  35.022   3.862
49738W        W22064  11.383   5.807   0.388
49739W        W22065  25.865  10.982  12.909
49740W        W22066  14.017  28.715   1.303
49741W        W22067  32.937   9.685   1.706
49742W        W22068  27.755  28.546  10.176
49743W        W22069  40.805  20.758  12.388
49744W        W22070  35.912   4.550   2.188
49745W        W22071  12.440   8.145   1.157
49746W        W22072  32.928   7.504   1.180
49747W        W22073   3.645  10.473   4.534
49748W        W22074   1.840  40.772  12.266
49749W        W22075  37.968  28.694   1.479
49750W        W22076  11.697  37.323  10.653
49751W        W22077  29.522  17.924   1.925
49752W        W22078  26.175  29.965   0.814
49753W        W22079  13.825  12.800   4.529
49754W        W22080  10.805   4.051  14.457
49755W        W22081  11.246  44.251  11.131
49756W        W22082   9.797  28.939   2.536
49757W        W22083   3.317  37.414  10.653
49758W        W22084   2.265   3.389  12.900
49759W        W22085  11.895   7.980  12.324
49760W        W22086  32.396  37.275   3.682
49761W        W22087  32.473  15.737  11.113
49762W        W22088  15.044  42.459   2.406
49763W        W22089  21.981  17.271  14.540
49764W        W22090  41.749  12.375   1.928
49765W        W22091  42.538   1.860  11.232
49766W        W22092  26.027   0.801   1.282
49767W        W22093  44.257  25.069   4.493
49768W        W22094  28.977  18.417  14.060
49769W        W22095   6.313  28.252  14.799
49770W        W22096   2.914  42.981  11.640
49771W        W22097  26.696  13.712   0.693
49772W        W22098  25.544  41.719  14.826
49773W        W22099   9.808  10.597   0.769
49774W        W22100  17.589  19.493   3.818
49775W        W22101   8.035  34.062   4.549
49776W        W22102   6.316  40.779  13.370
49777W        W22103   0.581   7.362  11.498
49778W        W22104  21.670   9.152  14.308
49779W        W22105  29.053  39.754   0.922
49780W        W22106  15.801  23.920  10.517
49781W        W22107   5.704  23.439   1.310
49782W        W22108  41.862   0.963   1.384
49783W        W22109  18.636   6.424   1.798
49784W        W22110  41.705  21.046   3.425
49785W        W22111  29.182  42.406   1.758
49786W        W22112  23.594  20.827   1.831
49787W        W22113  39.439  27.540   0.934
49788W        W22114   6.252  28.565  12.452
49789W        W22115  13.358  19.118   4.593
49790W        W22116  31.398   3.791   4.054
49791W        W22117  14.724  44.894  12.499
49792W        W22118  28.055  38.972   1.699
49793W        W22119  11.206   8.530   3.927
49794W        W22120  33.889  29.548   3.305
49795W        W22121  29.070  29.684  11.045
49796W        W22122  35.005  10.867   3.200
49797W        W22123  36.314   4.443   3.368
49798W        W22124  40.931  11.944   2.956
49799W        W22125  39.434  40.431  11.859
49800W        W22126  14.886  28.393   4.087
49801W        W22127  16.195  11.891  10.726
49802W        W22128  19.717  38.036  10.452
49803W        W22129  22.790  12.778   3.560
49804W        W22130  41.370  26.403   0.663
49805W        W22131  11.788   5.744  10.686
49806W        W22132  39.570  31.768  13.364
49807W        W22133  33.265   7.482   3.260
49808W        W22134  44.467  12.305   3.305
49809W        W22135  16.098  24.870   5.119
49810W        W22136  24.103  42.554  10.405
49811W        W22137   9.669  23.466  10.741
49812W        W22138  14.250  26.164   1.637
49813W        W22139  44.511  22.513  14.789
49814W        W22140  39.840  15.010   1.498
49815W        W22141  38.682  36.392   3.691
49816W        W22142  33.105  33.548  14.776
49817W        W22143  22.600  24.187   2.825
49818W        W22144  28.375  24.156  12.186
49819W        W22145  16.791  31.769  13.354
49820W        W22146  23.142   1.888   0.980
49821W        W22147   9.597   1.001  14.899
49822W        W22148  27.919  43.888  12.076
49823W        W22149  41.041  13.543  10.762
49824W        W22150  36.040  34.014  13.280
49825W        W22151   6.381  37.300  10.956
49826W        W22152  19.146  20.464  13.992
49827W        W22153  37.495  40.749  13.997
49828W        W22154  13.659  40.374  13.984
49829W        W22155  27.904   6.872   1.258
49830W        W22156  38.899  32.265   0.277
49831W        W22157  42.894  40.850  12.982
49832W        W22158   0.257  15.326   1.063
49833W        W22159  11.364  34.117  11.899
49834W        W22160  13.286   4.919   4.638
49835W        W22161  26.105  28.416   2.655
49836W        W22162  23.218  20.253  11.568
49837W        W22163  18.948  42.846  13.265
49838W        W22164  32.935  12.372   3.675
49839W        W22165   7.845  28.822   4.311
49840W        W22166   1.529   4.421   4.601
49841W        W22167   3.983   3.711   1.012
49842W        W22168  41.576   1.291   4.136
49843W        W22169  34.800  34.188  14.988
49844W        W22170   1.958  14.900  12.283
49845W        W22171  17.590  17.533   1.711
49846W        W22172  44.223   0.542  11.318
49847W        W22173  38.984  14.322   1.668
49848W        W22174  34.155  11.723   4.724
49849W        W22175  26.712   5.351  14.493
49850W        W22176  26.041  36.435  11.094
49851W        W22177   0.108   0.490  11.110
49852W        W22178   9.937  44.895  14.199
49853W        W22179  14.572  19.678  12.880
49854W        W22180  15.701  41.600  14.936
49855W        W22181  21.254  23.672  12.435
49856W        W22182  43.686  10.410   2.422
49857W        W22183  27.514   9.134   4.158
49858W        W22184  10.318   9.770  12.084
49859W        W22185  13.825  31.307  10.657
49860W        W22186  10.514   7.207  11.130
49861W        W22187  34.054  26.559   0.741
49862W        W22188   1.206  22.284  10.153
49863W        W22189   5.990  29.075  13.718
49864W        W22190  23.009  12.306  11.614
49865W        W22191  31.085  31.826  11.515
49866W        W22192  44.239  10.983   3.708
49867W        W22193  41.566   9.700   2.910
49868W        W22194   0.419  12.153   1.186
49869W        W22195  25.443  17.471  14.499
49870W        W22196  12.100  22.564  14.498
49871W        W22197   9.394  16.287  11.522
49872W        W22198  18.759  44.773   4.023
49873W        W22199  11.291  15.209  12.958
49874W        W22200  33.195   6.400   4.658
49875W        W22201  38.855  18.030  10.142
49876W        W22202  29.574  25.888   0.264
49877W        W22203   3.871   7.398  11.482
49878W        W22204  41.358  20.195   1.332
49879W        W22205  35.348  25.151  10.705
49880W        W22206  30.335  38.465  11.098
49881W        W22207  43.348  37.538  12.963
49882W        W22208  30.923  34.515   0.967
49883W        W22209  29.321  14.293  11.533
49884W        W22210  24.028  21.164   0.421
49885W        W22211  18.769  32.954   2.018
49886W        W22212  37.743  18.582  13.873
49887W        W22213  34.272  21.623   1.167
49888W        W22214   3.913  42.495   3.262
49889W        W22215  43.872  40.975  11.424
49890W        W22216  38.957   3.349  10.696
49891W        W22217  35.955  33.028  13.770
49892W        W22218  20.334  13.303   4.009
49893W        W22219  14.252  25.103  13.122
49894W        W22220  25.123  43.246   2.701
49895W        W22221  27.572  19.499   2.818
49896W        W22222  32.811   7.650   3.013
49897W        W22223  43.641  37.508  10.528
49898W        W22224  14.295   8.254   0.133
49899W        W22225  12.780  28.050   2.955
49900W        W22226  21.869  18.620  13.504
49901W        W22227   5.168   6.467   5.043
49902W        W22228  18.691  30.595   1.275
49903W        W22229  16.115   4.984  13.422
49904W        W22230  28.067  10.297   2.330
49905W        W22231  28.470   6.784  11.722
49906W        W22232  38.427  25.526   0.890
49907W        W22233  13.242  35.786   4.101
49908W        W22234  30.595  19.541   1.660
49909W        W22235  40.173  42.346   2.540
49910W        W22236  15.082  34.538  14.953
49911W        W22237  40.273  31.582  12.006
49912W        W22238   8.909   9.418  12.124
49913W        W22239  44.368  32.130   3.408
49914W        W22240  32.739  23.895   0.446
49915W        W22241  24.307  21.193   3.691
49916W        W22242  25.873  43.025  14.994
49917W        W22243  32.679  22.970   2.511
49918W        W22244  10.356  32.348   1.438
49919W        W22245   6.752  36.113  11.713
49920W        W22246  42.578  17.299   5.046
49921W        W22247  13.755  32.512   2.865
49922W        W22248  32.926  17.954  11.298
49923W        W22249  17.950  29.430   2.348
49924W        W22250  17.641  40.043   1.159
49925W        W22251  22.674  27.816   2.741
49926W        W22252  31.108  39.783   2.832
49927W        W22253  36.591  33.400   3.682
49928W        W22254   7.288   6.364  13.367
49929W        W22255  37.123  34.479  10.715
49930W        W22256  23.135  36.068   1.171
49931W        W22257  35.671  12.335  10.743
49932W        W22258  34.815  36.872   4.547
49933W        W22259   2.246   9.301  10.400
49934W        W22260  14.145   2.391   1.432
49935W        W22261  30.945  24.421  14.811
49936W        W22262   2.118  43.482  14.493
49937W        W22263  10.803  17.590   2.615
49938W        W22264  15.229  25.975  12.936
49939W        W22265  38.962  34.476  13.436
49940W        W22266  23.027   7.923   3.857
49941W        W22267   3.187  27.092  14.833
49942W        W22268  34.572  32.951   5.698
49943W        W22269  40.237  39.456   2.358
49944W        W22270   7.024  11.803  12.639
49945W        W22271  17.219  28.240   9.974
49946W        W22272  29.589   5.817  10.971
49947W        W22273  16.850  30.872  12.603
49948W        W22274  39.334  35.525   4.742
49949W        W22275   2.500  18.963   3.632
49950W        W22276   5.607  36.769  13.366
49951W        W22277  28.135  38.871  12.598
49952W        W22278  12.710  33.873  11.673
49953W        W22279  14.796   1.428   3.129
49954W        W22280   1.483  43.394  12.927
49955W        W22281  15.208  15.257   3.152
49956W        W22282  37.341  41.956  13.421
49957W        W22283  16.266  44.397  12.493
49958W        W22284  21.628  44.981   0.932
49959W        W22285  38.628  10.218  14.845
49960W        W22286  14.651  44.487   4.266
49961W        W22287  30.002  36.275   0.923
49962W        W22288  16.088   4.472   1.598
49963W        W22289   0.324  22.345   1.683
49964W        W22290  38.109  35.951  12.064
49965W        W22291  26.159   6.004   4.648
49966W        W22292  20.030   5.764  10.411
49967W        W22293  27.185  37.815   4.100
49968W        W22294  16.625  37.143  12.091
49969W        W22295   6.272  20.204  13.013
49970W        W22296  11.399  38.443  11.508
49971W        W22297  38.097  21.577   0.761
49972W        W22298  29.555   6.405  10.151
49973W        W22299   3.215  17.527  11.463
49974W        W22300  14.134   2.961  13.701
49975W        W22301  44.237  38.669   1.259
49976W        W22302  39.675  41.749   2.097
49977W        W22303  39.307  22.581  11.957
49978W        W22304  19.659   2.342   4.689
49979W        W22305  30.539  12.116  10.567
49980W        W22306  43.322  33.624  13.408
49981W        W22307  44.224   7.280   2.392
49982W        W22308  24.095  31.418  11.437
49983W        W22309   9.136  22.016  14.664
49984W        W22310  37.939   1.364  12.972
49985W        W22311  28.589  34.868   0.755
49986W        W22312  26.069  38.104   1.842
49987W        W22313  15.148  37.093  11.088
49988W        W22314  24.856  10.562   5.071
49989W        W22315   3.013  20.039  14.521
49990W        W22316   3.472  39.267   5.018
49991W        W22317  32.144  22.157  13.980
49992W        W22318  24.846  13.279  14.511
49993W        W22319  19.055   7.225   1.823
49994W        W22320  16.713   8.049  13.170
49995W        W22321  15.333  17.214   1.302
49996W        W22322  25.551  44.233  14.974
49997W        W22323  24.105  27.082   4.478
49998W        W22324  25.942  30.759  11.595
49999W        W22325  31.481  36.288   1.669
50000W        W22326  16.764  41.529   4.167
50001W        W22327  22.212  23.010   4.631
50002W        W22328   4.901  41.631   0.800
50003W        W22329  40.018  24.008   4.395
50004W        W22330  27.948  37.657  12.011
50005W        W22331   0.856  35.489   2.158
50006W        W22332   9.413  35.574  14.476
50007W        W22333   9.636  19.965   3.302
50008W        W22334   3.200  44.873   3.637
50009W        W22335   2.268  25.861  13.891
50010W        W22336   5.196  39.116   4.111
50011W        W22337  15.070  17.280   0.377
50012W        W22338  34.945   9.050  12.343
50013W        W22339  43.050  36.510  12.369
50014W        W22340  42.881  26.653  11.958
50015W        W22341   5.675   2.008   3.205
50016W        W22342   2.418  24.528  10.340
50017W        W22343  14.183   4.339   1.194
50018W        W22344  18.340   7.456  11.211
50019W        W22345   4.646  22.899   0.462
50020W        W22346  33.941  39.975  12.462
50021W        W22347  38.345  25.746  11.936
50022W        W22348  11.636  12.800  14.029
50023W        W22349   5.721  29.511  11.157
50024W        W22350   6.803   0.238  14.998
50025W        W22351   2.478  43.442  14.092
50026W        W22352  14.548  24.115   1.397
50027W        W22353  43.405  39.851   0.929
50028W        W22354  23.827  35.040   0.277
50029W        W22355   8.638  43.432  13.258
50030W        W22356  40.247   9.388  13.847
50031W        W22357   5.360  12.703   2.153
50032W        W22358  17.827  36.608  10.686
50033W        W22359  14.860  30.950   0.059
50034W        W22360  21.562  20.391   0.045
50035W        W22361  30.485  27.717   1.184
50036W        W22362   0.482  33.009   2.051
50037W        W22363  26.607  19.374   3.254
50038W        W22364  10.688   3.796   1.309
50039W        W22365  33.587  27.742   1.846
50040W        W22366  35.364   8.976  13.953
50041W        W22367  24.667   7.103   4.300
50042W        W22368  21.073   4.873   1.420
50043W        W22369  33.858  43.413  12.579
50044W        W22370  32.158   4.364   1.964
50045W        W22371  18.043  44.487  14.096
50046W        W22372  14.074   0.368  13.966
50047W        W22373   6.935  37.903  14.746
50048W        W22374  23.448   8.279   4.903
50049W        W22375  14.338  31.869   2.670
50050W        W22376  28.234   4.269   3.285
50051W        W22377   0.828  27.943  11.417
50052W        W22378  21.619  38.374  13.511
50053W        W22379   0.885  30.360   4.991
50054W        W22380  30.677  13.104  12.913
50055W        W22381   0.961  29.263  14.084
50056W        W22382  11.198  10.787   0.725
50057W        W22383  21.765  17.596  14.904
50058W        W22384  20.586  34.096   1.984
50059W        W22385  11.610  21.714  13.410
50060W        W22386  36.154  11.326  12.069
50061W        W22387   0.457  28.440   1.935
50062W        W22388  40.751   1.653  10.992
50063W        W22389  22.495  38.919   3.509
50064W        W22390  25.041  34.893  10.694
50065W        W22391  44.369  43.060   3.672
50066W        W22392  11.890   6.935  14.508
50067W        W22393  21.051  41.876   4.022
50068W        W22394  33.407  42.737   2.934
50069W        W22395  11.326  40.417   2.624
50070W        W22396  32.898  36.670   0.780
50071W        W22397  34.790  42.693  11.590
50072W        W22398  42.977   3.312   4.959
50073W        W22399  35.436  19.806   3.350
50074W        W22400  38.446  39.557  10.862
50075W        W22401  12.469  10.632   0.249
50076W        W22402  26.423  17.623   0.763
50077W        W22403  40.721  41.194  10.839
50078W        W22404  38.534   6.207   0.699
50079W        W22405  31.900  11.631   0.941
50080W        W22406   5.389   5.748   1.373
50081W        W22407   9.381  22.325  13.801
50082W        W22408  40.669  26.458   1.351
50083W        W22409  20.171  11.122   3.378
50084W        W22410  23.803  33.034  11.239
50085W        W22411  33.023   6.485  14.889
50086W        W22412  32.445  23.861   2.095
50087W        W22413   0.408  28.594   2.463
50088W        W22414   2.287   8.987   4.585
50089W        W22415  19.626  22.985   1.927
50090W        W22416  30.548   5.161   1.662
50091W        W22417  41.468   1.937  12.002
50092W        W22418   9.916  12.413   3.753
50093W        W22419  43.106  44.279  13.484
50094W        W22420  29.762  24.494  12.746
50095W        W22421   7.265  40.416  12.889
50096W        W22422  32.876  17.295   4.078
50097W        W22423  38.147   5.882   1.755
50098W        W22424   4.435  42.008  12.072
50099W        W22425  35.583  11.338  14.864
50100W        W22426  17.111  41.080  13.750
50101W        W22427  27.592   0.741  14.699
50102W        W22428  17.362  18.928  13.442
50103W        W22429  38.072   2.007  12.160
50104W        W22430  34.775  33.268  11.456
50105W        W22431   9.540   8.551  13.484
50106W        W22432  31.891  39.050   1.945
50107W        W22433   5.361  37.359  11.677
50108W        W22434   2.286  18.530  10.675
50109W        W22435  18.614  24.590   0.806
50110W        W22436  31.092  36.686  14.989
50111W        W22437  10.623  21.835  13.319
50112W        W22438   6.761  28.010  11.571
50113W        W22439   9.284   2.263   5.020
50114W        W22440  31.497  26.935  11.515
50115W        W22441  35.595  31.613  12.951
50116W        W22442  40.953  20.753  10.987
50117W        W22443  28.105  44.011   3.116
50118W        W22444  31.810  28.145   5.124
50119W        W22445   5.327  33.524   3.903
50120W        W22446   9.478   7.467   1.883
50121W        W22447   2.073  17.773   3.560
50122W        W22448  31.007  17.558   2.806
50123W        W22449   3.392   8.827   4.970
50124W        W22450  40.887   9.386   2.435
50125W        W22451  10.820  17.481  13.441
50126W        W22452  43.140  10.708   1.430
50127W        W22453  35.973  10.671   0.313
50128W        W22454  19.205   2.648   1.542
50129W        W22455  15.191  22.303  12.521
50130W        W22456  31.268  10.190   1.200
50131W        W22457   4.359  32.168   0.437
50132W        W22458   0.396   2.890  13.257
50133W        W22459   0.919  30.568  13.807
50134W        W22460   3.937  34.596  10.701
50135W        W22461   5.257  21.593  13.948
50136W        W22462  10.770  42.916   2.310
50137W        W22463  23.641   4.007  12.181
50138W        W22464   8.852  19.178   1.765
50139W        W22465   5.209   2.200  12.892
50140W        W22466   0.310  33.626   0.365
50141W        W22467  22.885   3.029   2.163
50142W        W22468  23.653  18.196   4.055
50143W        W22469  21.182  40.090   2.963
50144W        W22470  38.854  13.798   4.168
50145W        W22471  34.668   8.396   0.387
50146W        W22472  18.145  13.071  11.187
50147W        W22473  31.431  34.439  11.180
50148W        W22474   6.482  23.665   0.422
50149W        W22475  39.779   8.844  11.619
50150W        W22476  34.358  19.586   4.219
50151W        W22477  30.585  43.692  13.400
50152W        W22478   8.728   0.883  11.222
50153W        W22479  42.305  44.798   1.572
50154W        W22480  33.606   9.314   0.463
50155W        W22481  42.395  37.946   2.351
50156W        W22482   0.351  10.378   3.776
50157W        W22483  39.042  18.186   0.718
50158W        W22484  35.563   7.665  10.837
50159W        W22485  26.592   2.847   0.880
50160W        W22486  31.566  30.664   5.014
50161W        W22487  34.900   2.378   1.683
50162W        W22488  23.807   7.154  13.319
50163W        W22489  17.587  36.905  14.896
50164W        W22490  41.471  30.976   4.617
50165W        W22491   0.548  37.172  11.881
50166W        W22492  11.060  14.279   3.769
50167W        W22493  27.336  14.943  11.622
50168W        W22494  11.296   8.583   3.389
50169W        W22495  20.176  10.548  12.528
50170W        W22496   6.591  37.786  11.077
50171W        W22497  29.607  23.172   2.688
50172W        W22498  13.159  43.202   2.924
50173W        W22499   5.692  29.548  14.817
50174W        W22500  25.749   1.388   2.246
50175W        W22501  27.902  44.488   3.218
50176W        W22502   7.636   6.699  14.424
50177W        W22503  42.298  41.040   3.748
50178W        W22504  22.593  22.228  10.900
50179W        W22505  15.717  27.601  12.498
50180W        W22506  33.969  36.816  12.568
50181W        W22507  23.975  14.299  12.697
50182W        W22508  25.684  35.878  13.512
50183W        W22509  17.524  23.048   1.354
50184W        W22510  44.990  27.636  10.442
50185W        W22511   0.450  33.481  13.521
50186W        W22512  31.071   5.963   4.149
50187W        W22513  15.133  16.149   0.138
50188W        W22514  26.470  31.431   0.875
50189W        W22515  43.228   9.747  14.795
50190W        W22516  24.767  20.697  12.427
50191W        W22517  24.680  35.130   1.755
50192W        W22518  30.719  25.056  10.464
50193W        W22519  42.793   6.632   3.253
50194W        W22520  12.569  20.274  13.098
50195W        W22521  28.627  34.615   2.690
50196W        W22522  39.063  32.951   0.888
50197W        W22523  39.975   3.239  10.800
50198W        W22524   7.620  24.409  11.986
50199W        W22525   3.762   4.356   3.867
50200W        W22526   2.802   8.685  11.039
50201W        W22527   4.755  33.536  10.482
50202W        W22528   0.881  43.874  11.218
50203W        W22529   6.091   4.775   3.260
50204W        W22530  28.259  38.717   3.258
50205W        W22531  42.845  35.413   0.534
50206W        W22532  16.553  11.734   2.860
50207W        W22533  37.572  18.364   4.673
50208W        W22534  14.694  39.564  13.965
50209W        W22535   4.450  26.232   3.228
50210W        W22536  14.754  25.622  11.066
50211W        W22537   3.906  28.908  12.490
50212W        W22538  25.129  24.617  11.551
50213W        W22539  23.572  35.020  13.466
50214W        W22540  44.597  10.582  11.927
50215W        W22541  30.822  18.760   0.357
50216W        W22542  11.780   0.794  14.244
50217W        W22543  12.235  34.900   3.654
50218W        W22544  13.289   5.340  13.395
50219W        W22545  30.635  20.170   2.118
50220W        W22546  22.957  13.327   2.761
50221W        W22547  19.700  25.186  11.105
50222W        W22548  10.443  28.414  11.534
50223W        W22549   2.189  37.555   0.935
50224W        W22550  44.818  39.801   0.846
50225W        W22551  20.217  30.836  12.162
50226W        W22552  43.530  29.522  12.206
50227W        W22553  15.324  36.857   0.546
50228W        W22554  44.014   5.756  12.464
50229W        W22555  38.964  22.164  13.515
50230W        W22556  26.970  21.606  12.404
50231W        W22557  37.069  30.504   0.886
50232W        W22558   3.486  25.466  11.574
50233W        W22559   0.442   3.635   3.386
50234W        W22560  15.337   2.836  11.683
50235W        W22561  38.109  26.995  11.078
50236W        W22562  11.750  18.836   4.844
50237W        W22563  17.028  25.172  11.330
50238W        W22564  28.611  38.557  10.609
50239W        W22565   8.872  32.231   2.476
50240W        W22566  22.016  30.723  14.936
50241W        W22567   8.861  31.544  12.786
50242W        W22568  25.935   4.263   1.663
50243W        W22569  11.462  20.025  14.344
50244W        W22570  16.151   4.927   0.144
50245W        W22571  16.533  29.159  12.886
50246W        W22572   1.724   8.616  11.935
50247W        W22573  21.227   0.045  13.838
50248W        W22574  22.254  32.167  14.473
50249W        W22575   2.185  21.803  10.453
50250W        W22576   3.638  31.020   1.920
50251W        W22577  23.675  14.807   4.270
50252W        W22578  32.288  32.137  10.136
50253W        W22579   3.440  39.398   2.868
50254W        W22580  24.082  19.629  11.969
50255W        W22581  13.825   1.702   0.740
50256W        W22582  44.904  41.854  11.103
50257W        W22583  44.226  13.220   4.920
50258W        W22584  17.797  24.308  13.321
50259W        W22585   6.841  30.849   3.104
50260W        W22586   0.295  16.593   0.467
50261W        W22587   1.969  35.208   0.554
50262W        W22588  37.464  25.376  10.610
50263W        W22589  40.522  27.741  11.170
50264W        W22590  13.855   7.867  14.407
50265W        W22591  33.051  18.910   0.662
50266W        W22592  31.060  38.985   1.306
50267W        W22593  43.783   5.934   1.688
50268W        W22594  29.728  14.581  14.036
50269W        W22595   3.187  38.809  13.047
50270W        W22596  31.968  39.458  14.905
50271W        W22597  18.722   7.947  10.558
50272W        W22598  38.759   3.252  12.492
50273W        W22599  38.893   3.890  10.710
50274W        W22600  31.113  16.029   0.467
50275W        W22601  15.108  27.988  11.956
50276W        W22602  44.280  13.404  11.358
50277W        W22603   0.265  25.194   1.228
50278W        W22604  31.134  12.496   2.698
50279W        W22605   4.669   4.866   2.897
50280W        W22606  42.799   7.141   3.306
50281W        W22607  27.145  39.692   3.758
50282W        W22608  11.650  10.128   9.883
50283W        W22609  19.497  10.248   4.284
50284W        W22610   2.426  12.115   2.278
50285W        W22611  16.934  42.803  11.022
50286W        W22612  14.610  28.411   3.343
50287W        W22613  28.959  28.131  10.232
50288W        W22614  44.495  28.410   2.305
50289W        W22615  18.516  24.197   2.359
50290W        W22616  18.074  22.573   2.098
50291W        W22617  33.061  21.594   1.691
50292W        W22618  13.190  10.973  14.924
50293W        W22619   6.433  36.344   1.115
50294W        W22620  12.741  42.742   2.245
50295W        W22621  31.827  27.079  14.834
50296W        W22622   5.525  14.505   2.788
50297W        W22623  14.131  39.967  14.278
50298W        W22624  19.016  24.007  12.998
50299W        W22625  11.820  35.572   9.706
50300W        W22626   3.532  12.859   1.773
50301W        W22627  10.131  10.760   1.914
50302W        W22628  22.039  17.726  13.527
50303W        W22629  39.202  13.337  12.369
50304W        W22630  16.094  36.071   3.127
50305W        W22631  40.072  37.279  10.966
50306W        W22632  10.647  40.397   4.346
50307W        W22633  22.360   1.233   3.332
50308W        W22634  26.750  19.231   4.181
50309W        W22635  38.411  44.181  13.554
50310W        W22636  38.822  23.914  13.847
50311W        W22637  44.249  26.606   0.375
50312W        W22638  43.987  29.681   2.621
50313W        W22639  15.676  15.211   1.486
50314W        W22640  43.037  18.685   3.302
50315W        W22641  23.853  33.795  13.761
50316W        W22642  14.192  43.951   4.665
50317W        W22643   7.232  27.240   1.760
50318W        W22644   1.271   8.194  13.947
50319W        W22645  37.938  33.461   4.218
50320W        W22646  20.791  35.137  11.179
50321W        W22647   2.810  39.685  11.537
50322W        W22648  38.332  30.616  11.119
50323W        W22649  18.210  34.402   0.805
50324W        W22650  41.326   6.233   2.275
50325W        W22651  10.552  44.952  12.629
50326W        W22652  36.384  31.788   3.289
50327W        W22653   1.569  33.652   0.351
50328W        W22654  31.519  44.652  13.020
50329W        W22655   2.245  20.712  12.092
50330W        W22656  37.357  19.281  12.886
50331W        W22657  38.882  18.325  12.611
50332W        W22658  30.920  31.114   3.906
50333W        W22659  19.659  20.509   0.767
50334W        W22660  42.821  32.691  11.036
50335W        W22661  31.669  25.839   2.212
50336W        W22662  43.753  15.673   0.768
50337W        W22663   7.199  36.167   2.856
50338W        W22664  16.246  16.910  14.368
50339W        W22665  32.615   5.912   0.276
50340W        W22666  31.400  19.126   1.940
50341W        W22667   4.141   0.437  12.061
50342W        W22668  21.209   2.485   4.873
50343W        W22669  10.296   9.240  14.702
50344W        W22670  31.721  21.848   2.249
50345W        W22671  38.764  30.533   2.372
50346W        W22672   1.339  30.822  14.543
50347W        W22673  10.331  44.267   1.357
50348W        W22674  43.785  43.350  11.124
50349W        W22675  40.403  12.378  12.966
50350W        W22676  30.471   8.552   4.218
50351W        W22677  27.441  36.431   0.250
50352W        W22678  34.113  21.534  12.449
50353W        W22679  18.151  18.527  11.518
50354W        W22680  34.386  25.410   1.244
50355W        W22681   4.255  35.309  14.762
50356W        W22682   2.878  23.871   0.280
50357W        W22683  38.315   7.325   1.379
50358W        W22684  12.641   4.132   4.713
50359W        W22685  32.462   3.305  14.255
50360W        W22686  13.845   4.801  13.063
50361W        W22687  24.294  23.468   1.848
50362W        W22688  20.994  25.125   3.441
50363W        W22689  39.539  10.836  11.440
50364W        W22690  40.833  15.899  11.051
50365W        W22691  11.424  39.044  10.340
50366W        W22692  10.600  29.576   0.255
50367W        W22693   0.971  41.404  10.675
50368W        W22694  29.842  39.875  13.422
50369W        W22695   5.973  29.964  14.072
50370W        W22696   6.402  28.076   2.213
50371W        W22697  44.876   1.282   2.265
50372W        W22698  36.660  24.425  12.938
50373W        W22699  43.953  19.227  11.614
50374W        W22700  36.820  23.059  13.747
50375W        W22701  23.539  43.494   2.161
50376W        W22702  11.276  42.966  12.828
50377W        W22703  12.061  20.343   3.062
50378W        W22704  35.027  40.448   0.505
50379W        W22705  23.050  36.411   4.986
50380W        W22706  42.044  22.413  12.344
50381W        W22707  16.998  44.277  11.998
50382W        W22708  33.595   4.729   0.392
50383W        W22709  14.003   8.245   3.603
50384W        W22710  21.713  30.764   4.738
50385W        W22711  31.495  26.952   0.873
50386W        W22712  11.401  24.455   9.734
50387W        W22713  18.036  38.530  12.794
50388W        W22714  10.062  31.006  11.044
50389W        W22715   1.187   8.292   1.618
50390W        W22716  38.283  10.184   4.899
50391W        W22717   6.014  26.113   3.239
50392W        W22718  31.063  44.411  13.076
50393W        W22719   7.803  34.830   2.134
50394W        W22720  27.643  22.068   1.345
50395W        W22721  11.793   8.314   4.530
50396W        W22722  39.581  22.552   0.849
50397W        W22723  14.577  28.489  14.351
50398W        W22724  26.694   5.430   0.401
50399W        W22725  24.621  20.007  13.137
50400W        W22726  40.004  21.962   1.790
50401W        W22727  34.491  35.021  12.328
50402W        W22728  31.333  26.085   1.004
50403W        W22729  10.384  41.925  11.486
50404W        W22730  18.725  12.151   2.185
50405W        W22731  16.695  12.622  11.962
50406W        W22732  38.648  16.900  13.158
50407W        W22733   4.541   2.737   4.132
50408W        W22734   0.742   1.210  11.096
50409W        W22735  14.818  24.101  14.094
50410W        W22736  33.049   1.367   0.817
50411W        W22737  34.658   5.692   0.835
50412W        W22738  20.819  19.756  13.963
50413W        W22739  30.682  38.514   2.090
50414W        W22740   8.440  24.682   1.151
50415W        W22741   1.575  31.416  10.700
50416W        W22742   0.020  12.970  14.612
50417W        W22743  39.394  16.668   0.389
50418W        W22744  17.743  41.956  12.203
50419W        W22745  19.054  38.292  12.833
50420W        W22746   6.389  16.761  14.058
50421W        W22747  11.686  19.509  10.212
50422W        W22748  29.482  12.345   4.506
50423W        W22749   9.159  18.816  12.533
50424W        W22750   7.177  22.115   0.222
50425W        W22751  17.392  24.115   3.102
50426W        W22752  33.844  31.462  14.448
50427W        W22753  17.122   2.698  12.028
50428W        W22754  27.611   3.817  11.010
50429W        W22755  18.247  29.275  13.541
50430W        W22756  18.520  11.146   1.380
50431W        W22757  36.826   4.795   1.488
50432W        W22758  34.174   6.998   1.351
50433W        W22759  31.028  14.374  13.941
50434W        W22760  17.636  32.491  10.680
50435W        W22761  25.992  41.843  14.055
50436W        W22762  27.118  41.469   1.478
50437W        W22763  14.142  37.677   0.414
50438W        W22764  36.832  13.733   1.830
50439W        W22765  33.982  32.905  12.434
50440W        W22766  38.870  15.311  11.154
50441W        W22767   8.175  11.242   2.816
50442W        W22768   9.824  43.077  12.250
50443W        W22769  35.056  38.650   2.379
50444W        W22770   0.764  35.203   3.227
50445W        W22771  42.878   5.017  12.038
50446W        W22772  44.779  24.005   2.738
50447W        W22773  15.344   6.851  11.084
50448W        W22774   4.480   1.172  12.610
50449W        W22775  31.928  21.238  13.377
50450W        W22776  16.327  44.716  14.123
50451W        W22777  28.119  12.597   4.516
50452W        W22778   2.673  17.686   2.726
50453W        W22779  11.834  32.681   2.501
50454W        W22780   3.487   3.404  12.530
50455W        W22781  12.682  17.295   4.625
50456W        W22782  25.594  22.314   3.593
50457W        W22783  36.342  30.140   3.992
50458W        W22784  24.270  38.916  13.507
50459W        W22785  37.916  37.297   3.450
50460W        W22786   8.101  21.224  13.031
50461W        W22787  29.670   9.521   0.830
50462W        W22788  27.776  21.128   3.180
50463W        W22789  29.742  21.015   3.752
50464W        W22790  13.455  10.109   4.066
50465W        W22791  34.432  12.810  10.629
50466W        W22792  14.075   8.205  12.277
50467W        W22793  17.583  44.435   2.782
50468W        W22794  30.437  26.604  13.903
50469W        W22795  27.458  22.060  14.974
50470W        W22796  34.602  38.569   2.140
50471W        W22797  40.297  26.068   4.472
50472W        W22798  23.599  25.450   2.700
50473W        W22799  41.928   4.460   3.276
50474W        W22800   3.655   1.544  13.909
50475W        W22801  43.332  39.747   0.430
50476W        W22802  29.626  17.251  11.110
50477W        W22803   4.674  11.819   3.315
50478W        W22804  29.679  15.233  14.528
50479W        W22805  29.087  24.224  10.610
50480W        W22806  19.713  37.315  13.928
50481W        W22807  18.660   1.462  13.120
50482W        W22808   4.233  39.254   4.361
50483W        W22809  36.383  11.101  13.075
50484W        W22810   0.603  30.571  12.485
50485W        W22811   5.755  33.488   3.641
50486W        W22812  17.319  28.223   3.165
50487W        W22813   3.145   4.510   5.060
50488W        W22814  34.582  13.129   0.746
50489W        W22815  22.518  16.431  11.817
50490W        W22816   2.166  31.485   4.696
50491W        W22817   5.180   3.216   1.691
50492W        W22818   5.445   1.984   3.696
50493W        W22819  34.060  19.061   3.925
50494W        W22820  34.450   7.482   3.820
50495W        W22821  16.254  37.610   3.334
50496W        W22822   7.036  37.979  10.823
50497W        W22823  35.736  26.968  11.180
50498W        W22824  17.698   0.548  11.627
50499W        W22825   2.081  11.603   1.439
50500W        W22826  25.128  12.293   1.344
50501W        W22827   1.454  42.983  12.624
50502W        W22828   6.235   4.530  10.970
50503W        W22829  25.198  22.569  12.925
50504W        W22830  21.972  43.898  11.672
50505W        W22831  41.539   6.760   0.330
50506W        W22832  16.230  40.755  12.201
50507W        W22833  25.232   7.575   4.671
50508W        W22834  21.499  35.927  11.547
50509W        W22835   9.496  12.278  14.549
50510W        W22836   1.086  14.110   2.772
50511W        W22837  19.184  29.421   1.408
50512W        W22838  22.987  21.075   4.129
50513W        W22839  36.857  40.936   1.658
50514W        W22840  15.708  27.582  10.746
50515W        W22841   4.845  24.119  14.787
50516W        W22842  33.555  42.553  12.383
50517W        W22843   9.939  44.267  12.133
50518W        W22844  40.821  21.874  12.924
50519W        W22845  33.445  14.220   0.848
50520W        W22846  13.177  19.237  13.947
50521W        W22847  11.393  39.038  10.866
50522W        W22848  22.516  16.255  10.241
50523W        W22849  34.744   0.032   3.668
50524W        W22850  35.041  20.596   3.239
50525W        W22851  30.239  32.577   3.174
50526W        W22852  27.473  42.970  13.008
50527W        W22853   7.187  32.671   4.054
50528W        W22854  21.666  31.120  10.832
50529W        W22855  16.080  38.384   0.118
50530W        W22856  31.477   9.387  14.738
50531W        W22857  33.003   0.172   4.858
50532W        W22858  23.526  17.528  11.599
50533W        W22859  42.316  11.542   1.387
50534W        W22860  30.367  25.877   4.260
50535W        W22861  35.409  37.329  13.952
50536W        W22862  33.047  35.422  14.251
50537W        W22863   1.244  42.047  12.184
50538W        W22864  32.990   7.083  14.038
50539W        W22865  41.014  25.440   1.642
50540W        W22866  14.142  23.102  14.812
50541W        W22867   7.347  18.285   4.336
50542W        W22868   2.465  16.088  11.034
50543W        W22869  38.094  39.562   2.710
50544W        W22870   6.768  38.739  14.154
50545W        W22871  17.373  25.667   3.831
50546W        W22872  43.047   2.486   3.572
50547W        W22873   5.790   7.793  14.523
50548W        W22874  16.121   6.679   3.194
50549W        W22875   2.713  17.282  11.615
50550W        W22876  25.740  43.921  13.265
50551W        W22877  22.590   0.401   1.868
50552W        W22878  15.599  19.852   4.720
50553W        W22879   8.994  14.689  11.572
50554W        W22880  19.717  26.869   3.671
50555W        W22881  38.155   1.248   3.267
50556W        W22882   4.760  37.056  11.098
50557W        W22883  25.173   7.434   0.914
50558W        W22884  38.517  35.367   0.931
50559W        W22885   2.475   8.919  10.740
50560W        W22886   4.107   2.818   5.012
50561W        W22887  41.409   9.849  13.110
50562W        W22888  32.366  40.061  14.885
50563W        W22889  26.632  23.710   3.706
50564W        W22890  16.062  24.702  13.032
50565W        W22891  30.022   2.793  11.181
50566W        W22892  37.479  37.647  10.761
50567W        W22893  19.161  19.954  13.877
50568W        W22894   8.437  11.389   4.132
50569W        W22895  24.518  18.684   3.210
50570W        W22896  34.397   4.819   1.936
50571W        W22897  34.828  25.440  12.516
50572W        W22898  20.715  13.876   1.435
50573W        W22899  44.475  33.543  13.552
50574W        W22900  18.622   6.302  11.993
50575W        W22901  21.080   7.718   4.377
50576W        W22902  14.176  12.624   2.791
50577W        W22903  18.075  28.266  14.439
50578W        W22904  18.080  27.039   4.324
50579W        W22905  26.524  30.045  11.657
50580W        W22906  16.615   2.353  14.594
50581W        W22907  30.349   0.890  12.366
50582W        W22908   5.349  22.520  10.864
50583W        W22909  18.343  20.131   0.440
50584W        W22910  41.461   7.720   1.268
50585W        W22911  31.144  33.987  11.267
50586W        W22912  14.262  14.358   1.351
50587W        W22913  23.206  12.093   2.239
50588W        W22914   1.424  25.486   2.567
50589W        W22915  25.942  30.664   0.019
50590W        W22916  32.777   1.384  12.798
50591W        W22917  16.830   7.016   2.353
50592W        W22918  18.516  34.536  13.667
50593W        W22919   1.809  15.789   5.047
50594W        W22920  17.875  10.727   4.097
50595W        W22921  16.689  31.454  10.659
50596W        W22922  34.910  29.059   0.129
50597W        W22923  24.192  42.390  11.447
50598W        W22924   7.401  33.659   3.820
50599W        W22925   5.243   1.016  11.439
50600W        W22926   8.018   8.207   4.392
50601W        W22927  37.385  10.006  10.230
50602W        W22928  16.923   2.691   4.185
50603W        W22929  30.948  27.954   1.333
50604W        W22930  28.892  39.040   3.769
50605W        W22931  35.806  35.754   2.798
50606W        W22932  35.406  35.610  12.544
50607W        W22933  44.074   1.895   4.896
50608W        W22934   3.828   4.272  12.426
50609W        W22935  21.988  27.067   0.309
50610W        W22936  36.554   1.720  11.154
50611W        W22937  39.657   7.182  11.017
50612W        W22938   4.743  12.395  10.803
50613W        W22939   7.294  21.343   5.062
50614W        W22940   3.816  14.307   3.325
50615W        W22941   0.259  14.957   1.421
50616W        W22942   4.489  13.798   0.369
50617W        W22943  35.035  35.871  13.302
50618W        W22944  13.494  22.589  11.608
50619W        W22945  30.227  38.820   2.260
50620W        W22946  44.314  44.203  11.131
50621W        W22947   3.792  43.932  13.780
50622W        W22948  20.000  38.679  12.090
50623W        W22949  34.632   5.747  10.669
50624W        W22950  13.665   9.465  13.482
50625W        W22951   5.347   0.257  10.694
50626W        W22952   4.285  16.679  10.902
50627W        W22953  30.281  39.553   3.915
50628W        W22954  27.990  24.938  12.111
50629W        W22955  26.152  18.468   1.706
50630W        W22956  25.950  30.292   0.374
50631W        W22957  32.189  43.069   4.106
50632W        W22958  14.660  11.174   4.114
50633W        W22959  15.879  38.477  14.657
50634W        W22960  21.702   6.783  12.617
50635W        W22961  15.763  22.226  12.982
50636W        W22962   5.849  42.522   0.415
50637W        W22963  14.537  42.364   1.336
50638W        W22964  14.343  31.593   1.659
50639W        W22965  12.363  37.116   3.032
50640W        W22966   9.718  38.945   2.358
50641W        W22967   2.286  36.075  11.150
50642W        W22968  25.462   9.620   0.751
50643W        W22969   4.689  12.609  12.443
50644W        W22970  30.054   2.211  12.474
50645W        W22971  25.955  13.704  10.708
50646W        W22972   4.145  43.016   2.260
50647W        W22973   5.237  37.358  12.528
50648W        W22974  16.054  18.820  11.576
50649W        W22975  35.411  22.045  11.248
50650W        W22976  33.490  39.390   3.262
50651W        W22977  35.206  42.343  11.531
50652W        W22978  28.992  11.936   1.456
50653W        W22979   2.934   2.946  12.640
50654W        W22980   7.384  30.169  13.657
50655W        W22981  12.206   2.634  13.309
50656W        W22982   8.144  34.372   4.146
50657W        W22983  29.593  24.498   4.423
50658W        W22984  11.268  42.110   0.370
50659W        W22985  25.640  24.196  10.665
50660W        W22986  33.794   6.742  13.505
50661W        W22987  10.776  43.701  14.807
50662W        W22988  41.546  18.984  11.595
50663W        W22989   8.348  20.180  13.843
50664W        W22990  42.806  37.413  14.254
50665W        W22991  29.726  40.879  13.387
50666W        W22992  13.800  12.039  12.934
50667W        W22993   7.918  28.684  12.966
50668W        W22994   2.440   0.111   3.316
50669W        W22995   9.060  39.746   1.133
50670W        W22996   7.159  13.348  11.152
50671W        W22997  27.543  35.198  11.437
50672W        W22998   9.783  22.281  12.458
50673W        W22999  27.297  35.270   4.970
50674W        W23000  44.923  35.180  11.169
50675W        W23001   0.794   1.103  14.306
50676W        W23002  22.418  41.837   2.938
50677W        W23003  14.621  33.392   2.445
50678W        W23004   0.324  29.947   0.964
50679W        W23005  10.755   9.915  13.409
50680W        W23006  33.525   2.224  11.087
50681W        W23007  28.201  17.053  13.774
50682W        W23008  17.559  11.389  12.492
50683W        W23009  37.321  20.747   3.618
50684W        W23010  29.360  19.534  14.780
50685W        W23011  23.456  39.532   2.644
50686W        W23012  41.932   8.272   2.223
50687W        W23013   1.352  12.367  14.887
50688W        W23014  18.647  26.861  13.363
50689W        W23015  14.537   2.366  12.916
50690W        W23016   3.385   5.121  10.670
50691W        W23017   6.743  26.299   4.378
50692W        W23018  44.531  44.334   1.590
50693W        W23019  16.603  33.129  12.906
50694W        W23020  21.475  29.373   0.818
50695W        W23021  11.106  21.947  14.228
50696W        W23022  31.194   9.237   0.535
50697W        W23023  26.745  40.469   4.192
50698W        W23024  13.623  17.334   4.621
50699W        W23025  43.284  13.284  14.040
50700W        W23026  29.463  13.867  12.481
50701W        W23027  44.880   2.947  12.853
50702W        W23028  33.904  41.029  11.682
50703W        W23029  40.094  38.836  13.445
50704W        W23030   2.387  12.036  12.997
50705W        W23031  15.692  13.964   2.761
50706W        W23032  30.315  15.376   3.690
50707W        W23033   2.399  44.815  12.424
50708W        W23034  14.679  39.624   3.294
50709W        W23035   9.367  31.560  12.673
50710W        W23036  32.933  36.080  11.884
50711W        W23037   9.230  40.464   3.430
50712W        W23038  27.486  14.280   1.633
50713W        W23039   8.181  14.197  14.774
50714W        W23040  10.286  26.383  12.488
50715W        W23041  33.981   8.541  14.359
50716W        W23042  23.574   5.144   1.420
50717W        W23043   3.655  13.024   4.987
50718W        W23044  23.617  14.169  10.375
50719W        W23045  34.317  30.907   1.894
50720W        W23046  17.106  11.194   2.289
50721W        W23047  38.915  14.855  14.810
50722W        W23048  17.101   9.898   1.749
50723W        W23049  15.256  13.277  14.454
50724W        W23050   1.731  33.742   2.379
50725W        W23051  19.540  33.818   1.016
50726W        W23052  35.386  16.780   4.109
50727W        W23053   1.382  17.314   4.202
50728W        W23054   6.733  22.263  10.622
50729W        W23055  31.119   4.672  14.304
50730W        W23056  12.952   2.324  12.178
50731W        W23057  12.404  42.325   4.492
50732W        W23058   4.393  21.647  11.379
50733W        W23059  15.399  41.953  11.953
50734W        W23060  44.203  37.441  14.147
50735W        W23061  23.887   8.322   4.588
50736W        W23062   4.995  40.865   2.206
50737W        W23063  35.425   1.632   3.697
50738W        W23064   7.842  10.669   0.213
50739W        W23065  36.528  38.001  14.954
50740W        W23066  31.434  32.460   2.972
50741W        W23067  42.576  17.235   3.173
50742W        W23068  40.636   4.468  11.215
50743W        W23069  37.050  36.129  13.913
50744W        W23070  44.349  10.551   4.539
50745W        W23071  10.281  43.820   0.500
50746W        W23072  12.646   7.904  11.601
50747W        W23073   5.052  12.574   3.622
50748W        W23074   1.809  32.683   3.649
50749W        W23075   8.655   7.645   4.560
50750W        W23076  33.262  24.001   0.399
50751W        W23077  32.187  41.973   1.476
50752W        W23078  41.018  38.869   0.344
50753W        W23079  42.397  11.096   0.460
50754W        W23080  11.225  13.051   3.346
50755W        W23081  21.965   4.229   0.956
50756W        W23082   8.390  40.979   4.604
50757W        W23083  18.978  32.215  13.973
50758W        W23084  16.263  17.003   4.232
50759W        W23085  21.059  19.831   4.173
50760W        W23086  26.373  28.226   2.276
50761W        W23087  22.531  23.866  11.102
50762W        W23088  15.900  29.297   1.220
50763W        W23089   9.785  14.741  12.701
50764W        W23090  23.253  30.576  14.499
50765W        W23091  43.722  35.482   2.651
50766W        W23092  36.199  21.964  14.504
50767W        W23093   9.096   4.952   4.096
50768W        W23094  13.105   7.150  13.417
50769W        W23095  22.190  29.691  13.426
50770W        W23096   4.981  28.791  10.118
50771W        W23097  39.593  14.614  14.571
50772W        W23098  26.524  35.585  13.999
50773W        W23099  19.164   7.937   0.256
50774W        W23100   0.920   8.596  13.034
50775W        W23101  42.627  44.823   1.071
50776W        W23102  19.107  13.779  12.309
50777W        W23103  29.935   3.834  12.469
50778W        W23104   1.983  19.042  11.606
50779W        W23105  33.553  17.242  13.966
50780W        W23106  23.119  26.659   0.826
50781W        W23107  12.616   7.242   0.997
50782W        W23108   5.734  10.832   1.104
50783W        W23109  10.019  37.290  14.006
50784W        W23110   7.141  26.694  12.817
50785W        W23111  39.216  34.239   3.171
50786W        W23112   8.059  25.163  14.964
50787W        W23113  19.445   5.457  11.531
50788W        W23114  33.011  20.662  14.863
50789W        W23115  42.918   9.174   3.851
50790W        W23116  28.604  20.120   1.311
50791W        W23117  44.029  34.145   1.374
50792W        W23118   6.899  16.560  11.480
50793W        W23119   0.910  15.694  11.294
50794W        W23120   5.766  42.268   3.639
50795W        W23121  14.197  36.033   0.502
50796W        W23122  31.730  29.034  11.915
50797W        W23123  28.005  37.581   0.016
50798W        W23124   2.950   1.136   1.474
50799W        W23125   4.315   6.739  13.519
50800W        W23126  39.847  32.657  13.077
50801W        W23127  12.158  12.686  13.866
50802W        W23128  39.790  21.787  10.484
50803W        W23129  40.601   7.957  12.524
50804W        W23130  21.654  21.155  10.460
50805W        W23131   1.226  20.182  12.884
50806W        W23132  24.141  20.195  14.966
50807W        W23133  17.206  21.681   4.552
50808W        W23134  18.284  18.293   1.185
50809W        W23135  20.902  20.576  13.571
50810W        W23136  23.074  42.552  11.216
50811W        W23137  25.449  38.118  12.993
50812W        W23138  15.486  39.686  13.558
50813W        W23139  36.437  20.100   4.739
50814W        W23140  36.909  27.594   1.737
50815W        W23141  25.400  26.783   1.882
50816W        W23142  16.551  21.303  12.543
50817W        W23143  37.888  26.759  10.689
50818W        W23144  11.494   7.485  10.148
50819W        W23145   8.488   3.371  12.437
50820W        W23146  35.656  25.773   1.653
50821W        W23147  15.635  12.422  11.162
50822W        W23148  18.911   7.280   1.321
50823W        W23149  40.242  34.457   3.098
50824W        W23150  15.278  11.701   0.539
50825W        W23151  36.881  41.990   3.858
50826W        W23152  35.236  27.091  12.489
50827W        W23153  39.015  34.562   0.803
50828W        W23154  10.308  39.212   3.116
50829W        W23155  43.926  43.612  12.516
50830W        W23156  36.358  35.915  13.505
50831W        W23157   9.122   5.867  11.581
50832W        W23158   9.880   9.905  11.414
50833W        W23159  41.323  39.075   1.345
50834W        W23160  38.499  16.296   0.270
50835W        W23161  12.530  16.277   0.998
50836W        W23162  33.503  35.981  11.652
50837W        W23163  41.574  14.826   1.630
50838W        W23164  11.245  27.122   0.951
50839W        W23165  29.760  41.365   2.572
50840W        W23166  12.889   8.765  12.108
50841W        W23167  29.134  39.656   2.170
50842W        W23168  38.563  40.830  13.927
50843W        W23169  25.102  44.373   3.658
50844W        W23170   9.392  42.015  11.654
50845W        W23171  13.135  35.487   2.803
50846W        W23172  27.872  43.963  10.765
50847W        W23173  36.666   9.823  13.084
50848W        W23174  11.706   6.892   1.367
50849W        W23175  10.235  32.247  11.538
50850W        W23176  37.358  14.550   0.545
50851W        W23177  13.698  31.149   3.648
50852W        W23178   8.586  12.684  13.888
50853W        W23179  44.102  19.827  13.388
50854W        W23180  32.034   1.976  12.126
50855W        W23181  43.919  19.161  10.650
50856W        W23182  36.555  29.089  14.328
50857W        W23183  38.341  32.921  11.369
50858W        W23184   6.230  10.668   1.294
50859W        W23185  15.056   9.189  11.686
50860W        W23186  31.344  29.227   4.133
50861W        W23187  44.445  37.924   4.321
50862W        W23188  10.766  12.040  13.031
50863W        W23189  19.749  12.178   2.724
50864W        W23190  10.442  15.621  14.132
50865W        W23191   6.408   8.776  10.638
50866W        W23192  36.599  27.735  12.477
50867W        W23193  23.128  31.908  13.909
50868W        W23194   5.433   1.140   4.266
50869W        W23195   1.957  34.383  11.488
50870W        W23196   8.511  21.181  11.982
50871W        W23197  15.234  13.572   4.514
50872W        W23198  35.929   9.436   3.591
50873W        W23199  31.233  40.481   2.282
50874W        W23200  10.021  29.566   3.395
50875W        W23201   2.658  42.486  12.899
50876W        W23202  19.250   1.999  13.509
50877W        W23203  19.672  20.711  12.522
50878W        W23204  35.855   5.443  11.700
50879W        W23205   7.144  16.975  11.656
50880W        W23206  33.458  20.019   3.134
50881W        W23207  30.143  17.458   2.268
50882W        W23208  39.307  25.978  14.894
50883W        W23209  24.096   1.234  14.014
50884W        W23210  29.079  41.826   2.652
50885W        W23211  35.443  33.947  12.790
50886W        W23212  25.927  23.628  12.769
50887W        W23213  36.645  25.136   2.589
50888W        W23214   4.443  21.558  11.884
50889W        W23215   9.062  44.559  14.012
50890W        W23216  17.374  21.671  12.322
50891W        W23217  42.132   5.040   1.251
50892W        W23218  31.151  18.200  14.835
50893W        W23219   2.100  19.171  13.439
50894W        W23220  42.273  30.205  12.531
50895W        W23221  11.300  28.677  13.772
50896W        W23222  30.406  44.898  11.270
50897W        W23223  12.846  36.355  14.806
50898W        W23224  40.045  41.544   4.112
50899W        W23225  14.664  22.330  13.762
50900W        W23226  38.827  25.607  11.197
50901W        W23227  15.702  43.362  12.201
50902W        W23228  18.884   8.419  12.121
50903W        W23229  39.530  10.786  12.875
50904W        W23230   5.669  33.323  11.476
50905W        W23231   7.178   3.870   0.509
50906W        W23232   9.788  43.899  13.077
50907W        W23233   7.333  33.858  14.439
50908W        W23234  44.071  29.012   1.412
50909W        W23235  37.056  20.043  11.210
50910W        W23236   2.445  32.619  14.338
50911W        W23237  10.926   3.040  10.830
50912W        W23238   1.177  34.041   2.320
50913W        W23239  21.418  36.404   4.684
50914W        W23240  33.301  10.178  10.704
50915W        W23241   3.983  22.289   0.370
50916W        W23242  17.764  24.491   1.407
50917W        W23243  11.282  39.413   2.693
50918W        W23244  39.714  17.351   3.700
50919W        W23245  29.606  39.593  14.388
50920W        W23246  35.508   0.863  10.959
50921W        W23247  30.519  30.024   0.676
50922W        W23248   8.860  38.806  13.428
50923W        W23249  36.896   1.681  11.548
50924W        W23250   9.449  23.289   0.763
50925W        W23251  24.492  43.591   4.687
50926W        W23252  40.346  20.716   4.914
50927W        W23253  44.726   6.804   2.255
50928W        W23254  11.898  30.145   2.412
50929W        W23255   0.887  19.726  10.817
50930W        W23256   2.997  40.348  12.893
50931W        W23257  39.894  19.087   1.659
50932W        W23258  39.058   5.329  11.682
50933W        W23259  19.334  37.598   0.448
50934W        W23260  43.904   9.315   1.366
50935W        W23261  17.686   7.990   4.214
50936W        W23262   4.855   2.773   0.961
50937W        W23263   4.451  20.855  14.054
50938W        W23264   2.372   1.689  13.571
50939W        W23265  33.768  17.757   2.251
50940W        W23266   1.960  23.479  13.857
50941W        W23267  12.958  39.387   0.206
50942W        W23268   1.436  28.243   0.628
50943W        W23269  25.184  11.885  14.291
50944W        W23270  38.850   8.308   3.573
50945W        W23271  20.234  12.738   3.299
50946W        W23272   2.402  12.784   0.403
50947W        W23273  34.169  44.733   1.696
50948W        W23274  22.416  37.601   0.899
50949W        W23275  43.683  38.108   2.710
50950W        W23276  12.605  41.004   2.159
50951W        W23277   4.451  35.682   4.800
50952W        W23278   3.885  44.248   3.092
50953W        W23279   3.771  20.899   3.149
50954W        W23280  36.458  30.826   1.779
50955W        W23281  36.594  16.110  14.396
50956W        W23282  32.751   4.637  11.333
50957W        W23283  13.796  25.301  11.951
50958W        W23284  32.479  30.411   9.953
50959W        W23285  36.605  10.783   2.979
50960W        W23286   8.247   5.361  14.750
50961W        W23287  35.362   8.188   3.684
50962W        W23288   2.198  44.952   0.468
50963W        W23289  31.473  34.200   3.181
50964W        W23290  32.477   2.421   3.820
50965W        W23291  29.217  28.951  10.047
50966W        W23292   7.203  44.913  14.923
50967W        W23293  26.114   6.754  10.556
50968W        W23294  11.344   9.800   3.148
50969W        W23295  22.249  33.869   0.330
50970W        W23296  13.573   6.629  11.571
50971W        W23297  34.912   7.317   3.614
50972W        W23298  36.170   5.356   4.028
50973W        W23299  26.494  21.529  12.656
50974W        W23300   6.134  29.033   4.191
50975W        W23301  24.037  19.990   3.275
50976W        W23302  40.804  10.364   1.368
50977W        W23303  38.380  15.169   3.204
50978W        W23304  24.719   5.937  13.020
50979W        W23305   4.392   3.983   4.593
50980W        W23306  30.413  36.087  12.044
50981W        W23307  39.160  23.532  11.992
50982W        W23308   9.218   4.123  12.103
50983W        W23309   1.775  40.778  14.513
50984W        W23310  31.941  37.432  11.943
50985W        W23311   7.936  22.582  13.492
50986W        W23312  14.400  38.964  11.523
50987W        W23313  18.762  10.285  10.114
50988W        W23314   2.496  42.631   2.823
50989W        W23315  33.543  23.077  12.382
50990W        W23316  36.530  24.323  11.171
50991W        W23317  33.489  15.807   5.105
50992W        W23318  17.567   3.713   1.340
50993W        W23319  44.996  17.752   4.038
50994W        W23320  30.582   5.480  11.992
50995W        W23321  44.789  13.689   3.667
50996W        W23322  28.632  16.828  11.056
50997W        W23323  13.436   1.867  13.115
50998W        W23324  22.092  28.013   0.232
50999W        W23325  14.270  18.878  12.527
51000W        W23326  42.013  18.742  12.816
51001W        W23327  14.581  29.449   1.419
51002W        W23328  26.876  42.893   2.346
51003W        W23329  27.540  28.395   2.399
51004W        W23330  12.718  36.330  10.199
51005W        W23331  29.638  11.175   1.185
51006W        W23332  20.263   7.404  13.982
51007W        W23333   9.650  22.213  14.244
51008W        W23334  44.248  36.071  11.703
51009W        W23335  29.385  22.218   4.209
51010W        W23336  30.394  24.601  10.597
51011W        W23337  32.991   8.467  11.137
51012W        W23338  19.809  42.072   2.903
51013W        W23339  15.354  13.581   1.176
51014W        W23340  19.934   0.327  13.325
51015W        W23341  25.374   0.216  12.012
51016W        W23342  38.078  26.183  11.528
51017W        W23343   9.270   3.750   0.945
51018W        W23344  19.195  33.088  13.917
51019W        W23345   4.160  22.195   4.645
51020W        W23346   1.646  18.953   1.363
51021W        W23347  17.013  28.166  10.539
51022W        W23348  39.907  27.772  10.671
51023W        W23349   8.777  43.548  10.996
51024W        W23350   9.583  31.717  14.434
51025W        W23351   9.943  16.952  13.229
51026W        W23352  28.258  26.017   0.165
51027W        W23353  34.650  13.521   3.295
51028W        W23354  37.126  29.224  11.109
51029W        W23355  38.394   2.297  11.151
51030W        W23356  15.713  26.093   0.539
51031W        W23357   9.927   7.925  11.071
51032W        W23358   3.950  40.316  13.630
51033W        W23359  18.644  10.479  14.819
51034W        W23360   3.359  40.839  13.509
51035W        W23361   0.502   8.778  12.808
51036W        W23362   6.343  41.284   4.218
51037W        W23363   1.995  18.011  12.650
51038W        W23364  42.724   7.650  10.957
51039W        W23365  21.443  31.530   4.095
51040W        W23366   8.370  27.115  12.455
51041W        W23367  11.330  14.257   4.271
51042W        W23368  33.551  13.742   0.680
51043W        W23369   1.969  43.521  13.002
51044W        W23370  26.380  11.752   0.899
51045W        W23371   8.958   1.430  11.845
51046W        W23372  33.865  19.920   5.030
51047W        W23373   2.161  16.759  12.819
51048W        W23374   1.212  43.873  13.921
51049W        W23375  12.189  42.115   2.654
51050W        W23376  30.544  35.024   3.017
51051W        W23377   0.759  34.444  11.219
51052W        W23378  29.284  27.689   1.275
51053W        W23379   2.864  11.203  11.201
51054W        W23380  41.559  42.554  12.371
51055W        W23381   8.237   6.307  12.833
51056W        W23382   1.514  44.438   1.488
51057W        W23383  26.866  28.620   4.183
51058W        W23384   1.835  30.607   4.522
51059W        W23385  23.629  33.547  10.597
51060W        W23386  10.866   8.578  11.184
51061W        W23387   0.998  36.794   2.210
51062W        W23388  38.715   9.937   4.159
51063W        W23389  42.297  26.647  14.768
51064W        W23390  12.340   4.346   2.912
51065W        W23391   0.506  33.103   2.574
51066W        W23392  36.606  38.286   2.262
51067W        W23393  27.008  30.138   2.945
51068W        W23394  24.389  18.217   4.754
51069W        W23395  44.212  19.666   4.193
51070W        W23396  22.034  28.681   2.535
51071W        W23397  12.067   0.054   4.339
51072W        W23398  42.546  39.883  11.146
51073W        W23399   7.851  28.416   0.726
51074W        W23400  26.494   2.430   2.149
51075W        W23401  34.803  23.544   4.465
51076W        W23402  36.122  35.355   3.742
51077W        W23403  18.161  14.391  14.797
51078W        W23404   4.235  18.218   2.872
51079W        W23405  23.595  40.008  12.097
51080W        W23406  10.993  12.615  12.127
51081W        W23407   9.980  19.026  12.206
51082W        W23408  19.658  18.369  14.970
51083W        W23409  21.707   0.322   3.719
51084W        W23410  36.369  42.786  13.468
51085W        W23411  40.115  16.677   1.543
51086W        W23412  18.260  26.871  12.067
51087W        W23413  33.229  22.675  13.084
51088W        W23414  17.682  38.497  10.532
51089W        W23415  39.917  34.537   0.802
51090W        W23416  14.142  35.378  14.802
51091W        W23417  39.749  33.554  12.934
51092W        W23418  42.272  35.507  11.450
51093W        W23419  22.534  44.059  14.988
51094W        W23420  32.355  11.193   4.669
51095W        W23421   0.736  41.136   0.071
51096W        W23422  16.757  10.754   0.031
51097W        W23423   4.676  20.724   2.378
51098W        W23424  14.587  44.149   2.788
51099W        W23425  40.536  23.309   4.157
51100W        W23426  16.133   4.464   4.029
51101W        W23427   0.413  28.420  14.053
51102W        W23428  13.024   0.307   4.257
51103W        W23429  12.923  16.622   2.296
51104W        W23430   7.331   1.403  11.598
51105W        W23431  12.848   3.334  12.117
51106W        W23432   1.005   0.863   0.062
51107W        W23433  15.589  15.070  11.688
51108W        W23434  28.395  40.051  13.046
51109W        W23435   2.808  27.581  13.985
51110W        W23436  37.838  21.474  11.870
51111W        W23437   0.314   0.761  10.674
51112W        W23438  30.498  13.628  12.119
51113W        W23439  27.196  28.783  12.496
51114W        W23440  24.533  10.934  11.264
51115W        W23441  10.543  13.256   5.128
51116W        W23442  36.458   7.403   2.421
51117W        W23443   2.986  36.403   1.274
51118W        W23444  18.636  40.769  11.221
51119W        W23445  21.209  32.915  14.872
51120W        W23446  11.849   2.158   0.887
51121W        W23447  28.453  21.638   0.894
51122W        W23448   0.232   1.915  14.295
51123W        W23449   4.244  32.529  10.787
51124W        W23450  39.929  14.991  14.938
51125W        W23451  18.056  20.863  11.178
51126W        W23452   1.767   3.275  12.033
51127W        W23453  13.217   0.439  12.971
51128W        W23454  32.435  36.433   0.817
51129W        W23455   3.046   5.737   3.847
51130W        W23456  38.842  33.639  14.827
51131W        W23457   6.364  28.359   1.771
51132W        W23458  37.925  19.670   3.207
51133W        W23459  12.103  25.607   2.294
51134W        W23460  25.947   9.877  13.104
51135W        W23461  22.449  22.106   1.099
51136W        W23462  34.954  39.750  13.749
51137W        W23463  16.555  34.356   3.174
51138W        W23464  24.058  31.575   1.268
51139W        W23465  15.767  26.271   1.700
51140W        W23466   0.258  42.796   1.890
51141W        W23467  14.521  15.156   4.723
51142W        W23468   9.644  44.731   3.925
51143W        W23469  41.748  32.027  10.955
51144W        W23470  30.571  43.380   2.896
51145W        W23471   8.369   9.192  13.799
51146W        W23472  31.463  23.108  11.929
51147W        W23473  28.132  34.158  12.980
51148W        W23474  34.550  16.328  12.941
51149W        W23475  23.260  14.646   4.027
51150W        W23476  14.157  13.614  11.991
51151W        W23477  43.972  10.264   4.334
51152W        W23478  43.340   5.904   2.230
51153W        W23479  26.284  24.993   1.241
51154W        W23480  31.430  12.689   1.265
51155W        W23481  37.487  24.238   3.134
51156W        W23482  14.056  10.199   0.047
51157W        W23483  35.299  24.071  11.481
51158W        W23484  24.491  24.398   2.735
51159W        W23485  12.951  41.701   2.768
51160W        W23486   9.101   7.881   3.546
51161W        W23487  12.119  14.955  13.164
51162W        W23488  43.639  41.961   3.590
51163W        W23489   8.164  30.465   4.956
51164W        W23490  35.608  17.604   0.972
51165W        W23491  25.607   0.386  10.762
51166W        W23492  14.627  31.186  14.421
51167W        W23493  33.615   8.803  12.640
51168W        W23494  44.968  33.557  12.322
51169W        W23495  16.879  14.757   4.098
51170W        W23496  11.400  43.344  13.211
51171W        W23497  33.104  41.882  12.516
51172W        W23498  41.021  32.987   2.646
51173W        W23499  20.308   3.905   2.338
51174W        W23500  41.044  21.779  11.018
51175W        W23501   7.607  34.130   2.211
51176W        W23502  37.319  27.525  14.731
51177W        W23503  26.927  33.397  10.551
51178W        W23504  37.476   2.990   1.946
51179W        W23505   4.920  43.348   3.685
51180W        W23506  25.472  41.755  11.171
51181W        W23507  28.384   1.192  11.184
51182W        W23508  28.083   7.346   3.634
51183W        W23509   1.215  15.008   2.368
51184W        W23510  26.561   7.913   1.854
51185W        W23511  21.701  23.169   2.777
51186W        W23512   9.345   7.805   2.705
51187W        W23513  32.177  18.120   1.202
51188W        W23514  14.250   5.878  13.652
51189W        W23515  22.314  21.585   2.268
51190W        W23516  11.331  22.404   1.770
51191W        W23517   4.900  22.808  10.991
51192W        W23518  23.934  19.238   4.026
51193W        W23519   0.449  13.809  11.889
51194W        W23520  24.702  44.950   4.290
51195W        W23521  22.016  24.679   4.767
51196W        W23522  34.596  24.059  10.905
51197W        W23523  18.103  24.754  10.501
51198W        W23524  30.590  10.195  11.448
51199W        W23525   9.370  19.513   1.347
51200W        W23526  16.175  13.641   1.629
51201W        W23527  40.879  18.456   3.902
51202W        W23528   5.528  34.419   0.310
51203W        W23529  21.039   6.675  13.423
51204W        W23530  24.583   1.207  13.833
51205W        W23531  37.183  10.703   0.127
51206W        W23532  34.994  33.654   3.300
51207W        W23533  14.302   1.164  12.429
51208W        W23534   4.117  22.248   2.908
51209W        W23535  17.260   5.241  14.980
51210W        W23536  24.044  13.587   2.077
51211W        W23537  32.123  24.598  13.339
51212W        W23538  39.005   5.595   4.229
51213W        W23539  29.098  27.863  14.486
51214W        W23540  34.014  26.392  12.913
51215W        W23541  29.147  44.506  12.536
51216W        W23542  31.952  15.739  12.604
51217W        W23543  29.113  11.732  13.540
51218W        W23544  13.237  31.429   3.290
51219W        W23545  23.185  14.205  14.977
51220W        W23546  21.272  22.246   2.708
51221W        W23547   7.920   9.572   2.272
51222W        W23548  31.607   0.920   2.177
51223W        W23549  40.169  42.956  14.887
51224W        W23550   0.861   0.798   1.567
51225W        W23551  21.911  40.310   1.791
51226W        W23552  13.319   9.328   2.613
51227W        W23553  37.605  26.254  11.711
51228W        W23554  31.905  11.573   1.450
51229W        W23555  11.558  25.084  11.492
51230W        W23556   1.949  41.245   0.728
51231W        W23557  11.054  28.157  10.709
51232W        W23558  44.419  32.659  14.928
51233W        W23559  26.709  13.341  14.334
51234W        W23560   4.144  42.295   0.902
51235W        W23561  24.957  27.955   0.832
51236W        W23562  35.526  26.673   3.339
51237W        W23563  37.826  44.894  10.553
51238W        W23564  30.630  35.830   0.183
51239W        W23565   7.479  15.077  12.330
51240W        W23566  40.723  38.904   3.314
51241W        W23567   9.691  20.489   3.228
51242W        W23568  38.591  38.640  13.466
51243W        W23569  21.656  26.482  13.087
51244W        W23570  26.225  40.457   4.202
51245W        W23571  38.141  28.865  12.092
51246W        W23572  12.258  23.134  14.348
51247W        W23573  29.318  33.413  11.732
51248W        W23574  24.975  23.801  12.039
51249W        W23575  22.483  41.237   2.354
51250W        W23576  17.125  13.474   3.404
51251W        W23577   7.996   0.326  13.547
51252W        W23578   1.545  28.153   1.959
51253W        W23579   9.131  44.397  11.559
51254W        W23580  12.364  27.974  14.977
51255W        W23581  42.998  42.378  13.505
51256W        W23582   2.410   2.638  10.506
51257W        W23583  25.561  11.450   2.614
51258W        W23584  13.340  29.930   4.891
51259W        W23585  15.290   0.304  12.526
51260W        W23586  15.197   9.895  14.846
51261W        W23587   2.125  20.517   2.195
51262W        W23588  33.434  44.911  11.961
51263W        W23589  14.388  16.038  12.530
51264W        W23590  15.800   3.384   4.078
51265W        W23591  13.428  35.407   2.132
51266W        W23592   3.116  31.271   2.807
51267W        W23593  33.006  43.806  14.001
51268W        W23594   5.653  42.003  14.418
51269W        W23595   4.501  15.674  14.093
51270W        W23596  35.433   0.907   1.865
51271W        W23597  17.353  22.076  14.508
51272W        W23598  35.955  31.968  10.639
51273W        W23599   6.437  30.569  13.107
51274W        W23600  16.895  38.224   2.263
51275W        W23601   8.807  27.559  12.855
51276W        W23602  17.697  15.620  13.417
51277W        W23603  31.036   0.808  14.757
51278W        W23604  32.753   8.175  12.276
51279W        W23605  18.097  34.816  13.799
51280W        W23606  35.295  21.754   2.376
51281W        W23607  17.067  29.927   0.947
51282W        W23608   1.900  10.166  12.630
51283W        W23609  37.056  30.203  14.293
51284W        W23610  43.258  19.381  11.481
51285W        W23611  26.993  26.198  14.409
51286W        W23612  12.664  18.151   1.973
51287W        W23613  32.812  17.685   2.007
51288W        W23614   8.179  43.924   0.967
51289W        W23615  26.848  16.597  13.370
51290W        W23616  43.630  12.154  12.678
51291W        W23617   1.752  20.973   3.286
51292W        W23618  42.451  10.215   2.658
51293W        W23619  10.523  15.967  10.927
51294W        W23620  12.748  42.869  14.992
51295W        W23621  27.524  17.200  14.437
51296W        W23622  30.558   1.961   2.339
51297W        W23623  17.834  18.197  12.936
51298W        W23624  19.857  27.668  14.336
51299W        W23625  22.600  11.238  12.858
51300W        W23626  40.344   3.800   2.183
51301W        W23627  21.807  38.046   1.324
51302W        W23628  23.992   6.716  14.862
51303W        W23629  36.608   5.794   2.727
51304W        W23630  26.891  16.748   3.096
51305W        W23631   3.697  20.986   1.768
51306W        W23632  42.581  32.046  14.352
51307W        W23633  39.427   8.068  11.243
51308W        W23634   7.687   6.423  12.059
51309W        W23635  39.833  12.215  12.469
51310W        W23636  25.250  36.110  10.943
51311W        W23637  42.886  19.585  12.119
51312W        W23638  20.515  15.142   4.762
51313W        W23639  18.812   5.065  13.421
51314W        W23640  31.386  15.253   2.431
51315W        W23641   3.629  40.654  14.436
51316W        W23642  42.860   5.330   0.412
51317W        W23643   0.313  26.423   0.324
51318W        W23644  25.169  37.850   3.635
51319W        W23645  42.852  39.052  12.972
51320W        W23646   2.520  20.045  12.979
51321W        W23647   4.158  13.189  10.601
51322W        W23648  32.902  42.056   1.946
51323W        W23649  28.517  12.180  11.874
51324W        W23650  14.310  33.597   5.090
51325W        W23651   3.671  39.982   4.710
51326W        W23652  23.372  25.666   1.737
51327W        W23653  43.229  12.849   0.873
51328W        W23654  32.522  22.982  10.460
51329W        W23655  34.126  24.203  10.686
51330W        W23656  33.633   5.932  10.732
51331W        W23657  34.707  28.612   1.828
51332W        W23658  29.620  19.748   0.402
51333W        W23659  28.570  43.566  13.565
51334W        W23660   3.344  32.907   2.247
51335W        W23661   0.830  28.767  14.049
51336W        W23662   0.413  34.408   3.295
51337W        W23663  23.593  18.770   1.831
51338W        W23664   2.273  16.200   3.370
51339W        W23665  20.595  43.048  12.768
51340W        W23666  30.652  32.339  12.349
51341W        W23667  42.021  29.917   0.346
51342W        W23668  41.798  25.389  13.189
51343W        W23669  16.986   6.598   4.115
51344W        W23670  22.091  25.708   1.192
51345W        W23671  35.925  10.988   5.507
51346W        W23672  12.261  39.773  13.471
51347W        W23673   8.456  32.868  12.037
51348W        W23674   9.272  23.753   0.901
51349W        W23675  27.625  32.026  11.798
51350W        W23676   3.919  25.946   0.894
51351W        W23677   3.465  32.444   2.379
51352W        W23678  28.195   1.371  14.959
51353W        W23679  33.002   8.727   4.961
51354W        W23680  19.238  13.920  13.300
51355W        W23681  41.310  25.160   0.199
51356W        W23682  40.501  43.301   2.792
51357W        W23683   0.763   9.176   4.390
51358W        W23684   0.761  18.749  13.961
51359W        W23685  23.660  18.040   0.272
51360W        W23686  23.130   6.413  12.891
51361W        W23687   2.806  29.063   1.583
51362W        W23688   7.318   9.227  14.356
51363W        W23689  31.573  18.573  14.336
51364W        W23690  36.914  38.206   0.290
51365W        W23691  21.845  27.145  10.998
51366W        W23692   4.020  34.601  11.506
51367W        W23693  42.258  14.190  13.514
51368W        W23694   9.763  25.162  12.064
51369W        W23695  23.789  43.220   4.205
51370W        W23696   9.776   6.245  10.450
51371W        W23697  16.131  18.280  14.841
51372W        W23698  16.777  21.278  11.631
51373W        W23699  14.933  36.627   2.613
51374W        W23700  38.856  43.989   0.814
51375W        W23701   1.440  23.740  11.125
51376W        W23702  37.572   0.376   2.412
51377W        W23703  22.641  13.058  14.427
51378W        W23704  29.862  31.783   5.049
51379W        W23705   5.167   6.759   1.966
51380W        W23706   2.213  40.786  13.967
51381W        W23707  31.301  31.951   1.223
51382W        W23708  14.787  14.199   2.628
51383W        W23709  37.836   7.863   2.573
51384W        W23710  17.288  42.047  14.117
51385W        W23711  39.964  14.108  13.102
51386W        W23712  30.533  42.063   4.067
51387W        W23713  16.690   2.960  12.072
51388W        W23714   1.660  41.712  13.067
51389W        W23715   3.326  39.819  12.502
51390W        W23716  35.493   4.265   2.238
51391W        W23717   9.784  25.244  11.141
51392W        W23718  21.831  39.048   4.983
51393W        W23719  42.284  40.485   3.396
51394W        W23720   6.018  31.898  12.850
51395W        W23721   1.103   1.501  13.979
51396W        W23722  22.936  11.239   2.005
51397W        W23723  43.202  26.229   2.421
51398W        W23724   4.136  25.150   0.804
51399W        W23725  42.822   4.260   3.633
51400W        W23726  36.153  10.009  10.610
51401W        W23727  24.254  43.903  11.218
51402W        W23728  29.632  19.818   3.342
51403W        W23729  31.693  35.475  13.449
51404W        W23730  37.521  31.119   3.621
51405W        W23731  31.619   5.307   0.780
51406W        W23732  39.988  16.504   3.248
51407W        W23733  36.683   8.733  11.509
51408W        W23734   4.791  14.982   0.905
51409W        W23735  37.799  16.419   0.943
51410W        W23736   7.727  26.609   2.726
51411W        W23737   5.476  24.590  13.739
51412W        W23738  10.338  17.150   0.882
51413W        W23739   4.204  38.821  11.110
51414W        W23740   1.914   9.812  10.359
51415W        W23741  22.496  29.479  14.735
51416W        W23742  20.929   4.998  12.448
51417W        W23743  33.976  22.470  12.655
51418W        W23744  38.174   2.199  13.482
51419W        W23745  19.474  36.941  13.427
51420W        W23746  22.680  24.011  13.310
51421W        W23747   3.254   7.695  12.047
51422W        W23748   0.767  36.401  10.675
51423W        W23749  26.952  13.817   3.143
51424W        W23750  42.727  14.158   3.564
51425W        W23751   5.890  15.640   3.656
51426W        W23752  13.773  15.626   0.282
51427W        W23753  25.126  34.194  11.201
51428W        W23754  36.904  31.857  14.993
51429W        W23755  29.505  13.129   2.698
51430W        W23756  20.749  43.916  10.983
51431W        W23757  36.527  10.093  11.423
51432W        W23758  24.999  40.358   4.648
51433W        W23759   9.598  11.383  13.539
51434W        W23760  28.513  28.645   1.589
51435W        W23761  35.379   9.530   1.330
51436W        W23762  41.396   5.833  14.496
51437W        W23763  38.933  33.459   3.657
51438W        W23764   3.223  20.080   0.809
51439W        W23765  17.523  34.161  14.804
51440W        W23766  40.469  43.332   3.725
51441W        W23767  28.085  26.513   0.058
51442W        W23768   7.935  37.407   3.298
51443W        W23769   3.641  27.169   3.155
51444W        W23770  31.982  35.053   4.058
51445W        W23771   2.843  41.006  13.527
51446W        W23772  11.891   1.400   3.766
51447W        W23773  44.758   4.322   3.980
51448W        W23774  29.512  20.806   2.355
51449W        W23775  28.236  35.979   1.119
51450W        W23776   8.723  13.607   0.161
51451W        W23777  38.571   2.270  12.041
51452W        W23778  19.542  33.569  11.576
51453W        W23779   1.918  17.755   4.059
51454W        W23780  43.847   4.914   1.912
51455W        W23781   4.842  16.841  12.590
51456W        W23782  18.513  32.002   2.307
51457W        W23783  21.576  29.672   4.524
51458W        W23784   1.208   7.210  10.326
51459W        W23785   4.754  24.897   4.139
51460W        W23786  29.006  42.588   3.255
51461W        W23787  27.915  30.439   4.633
51462W        W23788  29.170  18.165  13.197
51463W        W23789  33.368  29.071   4.376
51464W        W23790  23.787   7.413   4.273
51465W        W23791  14.623  37.378  10.019
51466W        W23792  40.851  39.924  11.919
51467W        W23793  24.375   8.798   0.414
51468W        W23794  26.818  36.045   1.198
51469W        W23795  38.882  10.800   4.668
51470W        W23796  41.355  21.611   0.385
51471W        W23797  12.855  18.251   0.926
51472W        W23798   8.612   4.127   2.393
51473W        W23799  21.748  34.135  11.128
51474W        W23800   3.442   7.882   4.620
51475W        W23801  10.570  39.082  11.542
51476W        W23802  25.351  32.197   9.746
51477W        W23803  20.990  31.787   4.990
51478W        W23804  20.814  12.337   4.637
51479W        W23805  25.821  20.491  11.553
51480W        W23806  33.176  28.131   1.231
51481W        W23807  28.612   3.065  14.344
51482W        W23808  20.586  41.100  13.051
51483W        W23809  10.360  31.835   4.499
51484W        W23810   2.564  16.689   0.097
51485W        W23811  28.995  19.369   3.501
51486W        W23812   3.749   2.374  10.655
51487W        W23813  27.006  19.726   5.101
51488W        W23814  11.744  32.795  12.781
51489W        W23815   0.879  27.745  10.580
51490W        W23816  37.489  17.124   4.160
51491W        W23817   3.205  19.728   2.858
51492W        W23818  10.897  17.661   4.137
51493W        W23819  30.562  31.855  10.234
51494W        W23820   6.165  19.709  10.358
51495W        W23821  16.496  36.008  14.774
51496W        W23822  38.461  41.880   0.381
51497W        W23823  31.899  22.314   0.528
51498W        W23824  30.068  43.373   2.709
51499W        W23825   1.485  22.783   4.082
51500W        W23826  43.897  39.996   0.969
51501W        W23827  19.023  30.902  11.996
51502W        W23828  14.079  33.785   1.249
51503W        W23829  21.099  37.663   2.414
51504W        W23830  22.520  36.434   1.015
51505W        W23831   3.192  28.738  13.578
51506W        W23832  22.242  28.243   0.697
51507W        W23833  23.392  21.018   1.269
51508W        W23834  39.475  43.506  12.429
51509W        W23835   0.240  27.677  11.763
51510W        W23836  28.367  22.074  13.051
51511W        W23837  37.306  16.736   3.436
51512W        W23838  15.697  23.089  11.133
51513W        W23839   4.220  44.562   1.543
51514W        W23840  34.663  11.412   0.047
51515W        W23841  10.637  43.813   1.347
51516W        W23842   9.407  35.463  13.161
51517W        W23843   4.439  13.268  12.914
51518W        W23844   7.553  37.919   2.043
51519W        W23845  44.532  21.744  12.814
51520W        W23846   1.292  28.298   3.435
51521W        W23847  24.020  38.760   4.599
51522W        W23848   2.133  16.724   3.304
51523W        W23849  40.012   3.733  12.778
51524W        W23850  17.805  38.540  13.451
51525W        W23851  44.218   4.831   4.705
51526W        W23852   1.120   5.575  11.514
51527W        W23853  15.821   2.774   1.846
51528W        W23854  40.292  15.151   3.660
51529W        W23855  27.597  23.941  11.105
51530W        W23856  33.583  10.029   5.089
51531W        W23857  36.957  19.185  13.847
51532W        W23858  23.823   4.371   1.731
51533W        W23859   5.253  25.985  11.238
51534W        W23860  17.166  26.709  14.897
51535W        W23861   5.220   7.246  13.443
51536W        W23862  33.516  34.434  10.576
51537W        W23863  42.440  18.597  14.961
51538W        W23864  27.965  36.814   0.697
51539W        W23865  27.834  20.064   3.175
51540W        W23866  25.044  14.137  10.553
51541W        W23867  40.754  10.187  11.049
51542W        W23868  14.173  36.096  11.590
51543W        W23869  10.342  17.832   2.715
51544W        W23870  19.222  39.511  13.507
51545W        W23871  10.719  19.594   0.811
51546W        W23872   2.355  29.517   1.347
51547W        W23873   9.185   6.267   4.299
51548W        W23874  19.659   2.399  14.451
51549W        W23875  27.978  16.608  13.959
51550W        W23876  13.687  32.515  13.407
51551W        W23877  39.421   5.323   4.034
51552W        W23878  31.744  14.578   0.427
51553W        W23879  13.491  34.136   1.805
51554W        W23880   3.431  19.199  13.019
51555W        W23881  20.046  42.798  10.523
51556W        W23882  40.603   2.951  11.572
51557W        W23883  36.104   0.720   4.375
51558W        W23884  16.647   9.859   1.368
51559W        W23885  34.327  41.074   4.552
51560W        W23886  25.319  10.586   0.782
51561W        W23887  42.368  36.940   3.767
51562W        W23888  13.077  20.627   2.575
51563W        W23889   4.606  18.140   4.620
51564W        W23890   1.008  25.720  12.592
51565W        W23891  31.377  40.573  14.694
51566W        W23892   3.946   7.468  13.579
51567W        W23893  41.445   7.593   5.194
51568W        W23894  27.507   3.737   0.244
51569W        W23895  28.922  40.119  11.132
51570W        W23896  36.688   3.394  12.881
51571W        W23897   2.501  40.996   0.341
51572W        W23898   1.229   1.804   4.208
51573W        W23899  38.845   2.501   2.820
51574W        W23900   1.019  13.801   4.446
51575W        W23901  16.093  26.020   1.382
51576W        W23902   5.553  18.938  14.408
51577W        W23903  15.116  37.405  10.675
51578W        W23904  25.008   4.437  10.969
51579W        W23905  32.535  31.932  11.629
51580W        W23906  12.183  33.872  11.923
51581W        W23907  33.284  33.428   4.487
51582W        W23908  17.144   6.767  13.015
51583W        W23909  28.374  25.197  11.837
51584W        W23910  37.469  37.081  14.778
51585W        W23911   1.692   2.939   5.158
51586W        W23912   4.105   1.526  13.640
51587W        W23913  40.707  10.372  12.602
51588W        W23914   6.705  42.527   2.814
51589W        W23915  40.394  33.927   4.932
51590W        W23916  12.456   0.850  11.463
51591W        W23917  23.530  10.733  13.155
51592W        W23918  21.014   5.541  10.790
51593W        W23919   7.831  38.972  10.272
51594W        W23920  20.535   1.831   2.283
51595W        W23921  10.162  35.983  14.873
51596W        W23922  18.435  22.673   0.768
51597W        W23923   7.721  40.697  14.891
51598W        W23924  36.557   9.024   3.406
51599W        W23925  34.623  33.165   9.817
51600W        W23926  21.120  39.397  13.729
51601W        W23927  13.407  28.214  13.470
51602W        W23928  22.179  32.963  11.520
51603W        W23929  15.845   6.185   3.635
51604W        W23930  36.358  38.431   4.658
51605W        W23931  42.720  38.439   1.786
51606W        W23932  37.902  16.658  14.535
51607W        W23933  12.166  32.947  10.894
51608W        W23934  23.318  10.813   2.708
51609W        W23935  17.725   3.235  11.910
51610W        W23936  31.342  32.028  13.447
51611W        W23937  20.637  12.324   1.277
51612W        W23938  28.035  35.601  13.165
51613W        W23939  29.403  18.524   3.658
51614W        W23940  17.043  26.504  12.539
51615W        W23941  18.856  41.181   4.710
51616W        W23942  37.991   3.276   2.085
51617W        W23943  17.089  16.797   1.342
51618W        W23944  32.117  32.735   4.242
51619W        W23945   5.863   3.055  14.981
51620W        W23946  18.889   1.777  11.868
51621W        W23947  21.169   2.625   1.029
51622W        W23948  15.351  27.204  14.879
51623W        W23949   4.410  13.051   1.693
51624W        W23950   9.948  27.456   3.890
51625W        W23951  40.538   9.354   0.236
51626W        W23952  13.304  31.304  13.451
51627W        W23953  25.626   4.583   4.477
51628W        W23954  39.844  26.974  14.449
51629W        W23955   5.683  35.870  11.151
51630W        W23956   2.839   5.963  14.645
51631W        W23957  25.429  29.997   2.141
51632W        W23958  14.711  14.361   0.346
51633W        W23959  40.491  28.495   2.160
51634W        W23960  17.753  42.805   4.615
51635W        W23961  35.318  23.542  10.491
51636W        W23962  25.090   5.851  10.905
51637W        W23963  10.316  42.405   4.100
51638W        W23964  13.858  26.587  14.951
51639W        W23965  13.104  15.090  12.970
51640W        W23966  19.016  39.813  14.421
51641W        W23967  27.883  35.116   3.688
51642W        W23968  38.803  26.724  12.522
51643W        W23969  36.102  11.357  14.772
51644W        W23970   1.731  18.419  12.834
51645W        W23971  41.356  39.196  12.403
51646W        W23972  21.247  44.041  11.939
51647W        W23973  29.663  35.366   1.744
51648W        W23974   3.631  10.338   2.307
51649W        W23975  38.504  40.661  14.966
51650W        W23976  16.845  32.711   0.964
51651W        W23977   5.330   4.235   2.105
51652W        W23978  44.731  19.119   2.785
51653W        W23979  33.911   2.324   1.376
51654W        W23980  36.488  44.219  12.077
51655W        W23981  41.515  23.548  14.447
51656W        W23982  34.301   8.343   2.765
51657W        W23983  40.066  31.878  13.437
51658W        W23984  10.789  26.031  14.427
51659W        W23985  16.828  22.131  10.686
51660W        W23986   4.788  39.840  14.223
51661W        W23987  22.478  15.456  10.982
51662W        W23988   2.954  32.164   2.897
51663W        W23989  13.657  19.574   2.655
51664W        W23990  12.118  24.057   1.146
51665W        W23991  32.464  38.349   2.860
51666W        W23992   8.419   0.174  11.452
51667W        W23993  44.483  33.408   2.708
51668W        W23994  31.705  26.485   0.902
51669W        W23995  42.833  31.881  11.503
51670W        W23996   2.634  15.626  11.352
51671W        W23997  41.814   3.180   3.883
51672W        W23998   0.401  10.423   5.504
51673W        W23999  21.184  34.814   1.260
51674W        W24000  24.697  12.191   3.312
51675W        W24001   5.831  34.177  12.119
51676W        W24002  12.793  39.206  10.544
51677W        W24003  26.299   4.383  11.569
51678W        W24004  28.710   7.247   0.770
51679W        W24005  26.533   7.945   0.457
51680W        W24006  34.380  31.412  11.973
51681W        W24007  12.882  24.222   0.416
51682W        W24008  16.980  33.500   4.404
51683W        W24009   5.171  28.465   1.360
51684W        W24010  18.900  44.240   3.228
51685W        W24011  41.463  31.618  12.541
51686W        W24012  37.914  24.555  13.542
51687W        W24013  17.739  29.729   1.903
51688W        W24014  29.451  38.994   2.597
51689W        W24015  18.688  15.628  13.437
51690W        W24016  31.488   6.234  14.933
51691W        W24017  22.519  44.184  13.065
51692W        W24018  41.649  10.217  10.192
51693W        W24019   4.434  25.267  14.509
51694W        W24020  15.364  39.524  11.070
51695W        W24021  39.673  10.438   4.893
51696W        W24022  35.954  15.945  10.215
51697W        W24023  16.639  30.015   4.935
51698W        W24024  15.157   8.609  10.830
51699W        W24025   6.465  24.073   0.706
51700W        W24026  13.170   2.210   1.212
51701W        W24027  15.544  35.474  13.214
51702W        W24028  42.885  10.378  13.245
51703W        W24029   9.773  27.109   1.088
51704W        W24030   5.400  38.429  11.122
51705W        W24031  23.686  12.396  10.791
51706W        W24032  18.022   2.787  12.559
51707W        W24033  36.940   1.185   4.144
51708W        W24034  11.594  17.773  10.625
51709W        W24035  15.915  29.106   3.672
51710W        W24036   0.822  22.513   2.502
51711W        W24037  18.050  37.550  14.269
51712W        W24038  34.288  28.174   3.230
51713W        W24039  17.260  20.283  10.711
51714W        W24040  22.270  39.673   3.884
51715W        W24041   4.394  15.574   2.218
51716W        W24042  40.527   8.106   0.317
51717W        W24043   6.816   2.729  14.978
51718W        W24044   1.515  41.404  14.785
51719W        W24045  25.591  30.620   0.990
51720W        W24046   3.822  33.482  14.983
51721W        W24047  13.291  34.849  13.952
51722W        W24048  21.221   0.881   0.761
51723W        W24049   1.951  42.066   3.385
51724W        W24050  38.027  11.674  13.773
51725W        W24051  20.277  24.553   4.788
51726W        W24052  36.486   4.800   0.683
51727W        W24053  40.518   8.220  10.685
51728W        W24054   8.712  43.028  13.570
51729W        W24055   9.329  30.589  14.450
51730W        W24056  24.645  38.358   2.166
51731W        W24057  38.309  21.294  12.967
51732W        W24058   1.960  32.118  14.933
51733W        W24059  22.801  17.062   4.114
51734W        W24060  37.496  13.759  10.484
51735W        W24061  21.784  25.761   0.774
51736W        W24062   8.404  17.883   0.369
51737W        W24063  44.720   4.966   1.754
51738W        W24064   1.363   7.876   1.330
51739W        W24065  12.772  33.356   0.813
51740W        W24066  28.109  18.590   2.304
51741W        W24067  14.699   5.143  13.407
51742W        W24068   5.688  36.881  14.287
51743W        W24069   1.327   4.636   9.835
51744W        W24070  15.003  10.921  14.857
51745W        W24071  22.638  13.240  13.087
51746W        W24072  36.444  38.553   3.102
51747W        W24073  40.599  22.090   4.648
51748W        W24074   5.317   9.441   2.119
51749W        W24075  40.585   8.671  10.992
51750W        W24076  35.102  17.822  13.481
51751W        W24077  43.318  44.851   3.180
51752W        W24078  41.769  34.976  13.906
51753W        W24079  10.440   5.378  14.366
51754W        W24080  33.641   1.106  13.944
51755W        W24081  17.572  25.597  13.843
51756W        W24082  38.544   6.796   2.127
51757W        W24083  33.551   2.740   1.175
51758W        W24084  43.913  39.022  10.764
51759W        W24085  44.894   1.781  11.138
51760W        W24086  42.015  25.696   0.806
51761W        W24087   5.740  21.513   0.521
51762W        W24088  38.566  34.432   3.627
51763W        W24089   9.605  10.956  11.983
51764W        W24090  16.089   5.746   1.180
51765W        W24091   7.420  35.890  14.694
51766W        W24092  19.874   1.311  11.029
51767W        W24093   8.447  23.994   3.709
51768W        W24094  11.715  16.483   4.189
51769W        W24095   5.977  38.405   0.140
51770W        W24096  32.553  31.295  11.901
51771W        W24097  31.452  35.583   2.365
51772W        W24098  40.142   9.615   1.958
51773W        W24099  42.076  10.521  12.531
51774W        W24100   0.826  31.219  11.133
51775W        W24101   0.867  26.046  13.568
51776W        W24102  32.820   4.527   2.367
51777W        W24103  22.022  35.003   4.289
51778W        W24104   2.012   6.674  13.572
51779W        W24105  12.089  20.490  13.040
51780W        W24106   9.836  40.267  11.505
51781W        W24107  18.142  18.318  13.341
51782W        W24108  35.369  13.609   2.832
51783W        W24109  18.354   1.019   1.736
51784W        W24110  14.730  15.246   3.366
51785W        W24111   7.016  18.106   3.957
51786W        W24112  13.888  26.868  11.528
51787W        W24113  37.375   8.389  11.368
51788W        W24114   1.461  38.842   3.411
51789W        W24115  20.721  25.964  10.639
51790W        W24116  42.256  25.126  12.092
51791W        W24117   4.939   7.406   4.167
51792W        W24118  15.291  22.118  11.493
51793W        W24119  41.798  21.500  11.903
51794W        W24120  42.464  21.472   1.012
51795W        W24121  41.002  18.547   3.222
51796W        W24122  20.951  10.150   2.702
51797W        W24123  20.214   1.483   0.314
51798W        W24124  28.914  35.879   4.088
51799W        W24125  24.998  16.337  12.906
51800W        W24126   1.847  40.450   0.439
51801W        W24127  13.590  28.575  11.452
51802W        W24128  26.754   1.923  14.844
51803W        W24129  15.628   8.957  14.302
51804W        W24130  42.252  33.143  13.383
51805W        W24131  21.998  34.081  14.924
51806W        W24132  44.437  11.437   3.550
51807W        W24133  22.468  39.377  10.573
51808W        W24134  18.156  39.556  14.416
51809W        W24135  32.410   1.698  11.264
51810W        W24136  33.619  42.102   2.335
51811W        W24137  12.142  13.371  14.573
51812W        W24138  31.228  18.090   4.100
51813W        W24139   8.364   2.042   1.809
51814W        W24140   3.421  36.468   2.389
51815W        W24141  42.288  19.628  11.476
51816W        W24142  44.715  43.812   3.215
51817W        W24143  44.070   5.346  14.963
51818W        W24144  43.531   3.393   3.157
51819W        W24145  39.906  35.325  11.731
51820W        W24146  26.553  39.601   0.948
51821W        W24147  21.895   3.359   0.052
51822W        W24148  32.468  39.335  12.617
51823W        W24149  21.717   4.215  14.291
51824W        W24150  26.967   3.905  13.383
51825W        W24151  19.151   9.385  11.110
51826W        W24152   5.486  29.884   0.743
51827W        W24153  23.718   0.007  13.097
51828W        W24154  43.995  24.822   2.881
51829W        W24155   2.594  34.644  12.010
51830W        W24156  20.059  11.846  12.926
51831W        W24157  19.575  40.497  13.520
51832W        W24158  33.669  33.509  12.485
51833W        W24159  13.719  11.163  12.047
51834W        W24160  22.268  42.366   4.934
51835W        W24161  15.338  29.745  12.040
51836W        W24162   6.241  10.869  14.428
51837W        W24163  29.110  39.490  14.423
51838W        W24164  16.216  34.479  12.430
51839W        W24165  29.592  20.152  10.392
51840W        W24166  38.849  17.372   4.787
51841W        W24167  40.400  38.859  14.817
51842W        W24168  27.146  31.531   3.065
51843W        W24169  17.129   7.445   1.959
51844W        W24170  42.742  11.644  14.392
51845W        W24171   9.974  17.854  11.574
51846W        W24172  43.910  43.318  12.017
51847W        W24173  33.964  44.886  11.978
51848W        W24174  15.345   2.708   3.247
51849W        W24175   9.876  13.046  12.596
51850W        W24176  23.451  37.029  13.889
51851W        W24177  29.506   0.224  11.475
51852W        W24178  14.330  27.578  11.988
51853W        W24179  44.375  33.597   4.517
51854W        W24180  34.347  22.950  14.823
51855W        W24181  44.977  16.071  14.872
51856W        W24182  21.091  40.912  13.073
51857W        W24183   9.746   8.405  11.606
51858W        W24184  13.533  44.359   4.069
51859W        W24185  39.510  15.731   2.887
51860W        W24186   5.886  40.792   2.701
51861W        W24187  13.286  12.825  11.813
51862W        W24188  10.220   3.975   1.155
51863W        W24189  22.296   8.169   4.273
51864W        W24190  20.165   4.839  12.891
51865W        W24191  31.403   0.319  10.645
51866W        W24192   1.971  20.639  13.992
51867W        W24193  30.940  37.813   0.366
51868W        W24194  28.215   0.304   1.717
51869W        W24195   1.379  25.924   0.524
51870W        W24196  43.668  38.756  12.012
51871W        W24197  14.937  19.393  12.552
51872W        W24198   6.628  36.883  13.499
51873W        W24199  24.964   5.433  11.160
51874W        W24200  19.633  25.442  10.626
51875W        W24201  30.072   5.275  13.573
51876W        W24202  37.181  12.650  12.022
51877W        W24203  22.203  12.843   2.613
51878W        W24204   2.421  29.012   1.237
51879W        W24205  21.229  27.088  12.549
51880W        W24206  25.939  41.126   2.690
51881W        W24207  23.481  15.200   9.764
51882W        W24208  14.313  15.547  12.628
51883W        W24209   9.882  37.307  12.625
51884W        W24210  20.761  29.935   2.273
51885W        W24211   3.758  35.018   3.751
51886W        W24212  16.235  11.786  12.869
51887W        W24213  22.957  37.127  14.047
51888W        W24214  19.604  34.447  11.000
51889W        W24215  39.068  44.428  14.962
51890W        W24216  39.576  27.329  11.121
51891W        W24217  15.319  34.812  13.280
51892W        W24218  18.116  30.900   0.655
51893W        W24219  28.564  38.295   1.879
51894W        W24220   2.175  40.414   5.009
51895W        W24221  28.050  28.428   1.470
51896W        W24222  36.582  41.390  11.175
51897W        W24223  37.954  20.056  14.068
51898W        W24224  18.025  22.039   0.254
51899W        W24225  41.295  37.617  10.582
51900W        W24226  12.418  18.073  13.286
51901W        W24227   8.416  41.729  13.392
51902W        W24228  30.789  11.487  11.153
51903W        W24229   6.338  13.144   3.676
51904W        W24230  22.206  20.621  14.360
51905W        W24231   9.394  36.070  12.069
51906W        W24232   1.039  44.548  10.823
51907W        W24233  23.813  36.129  11.940
51908W        W24234  36.941  39.613   0.145
51909W        W24235  21.529  44.834  13.423
51910W        W24236  40.442  41.258   2.815
51911W        W24237  22.937  37.865  13.441
51912W        W24238  24.861  20.162  10.379
51913W        W24239  27.987  16.253   1.435
51914W        W24240   6.869   8.841  13.870
51915W        W24241   7.833  23.493   4.035
51916W        W24242  31.693  14.899   2.209
51917W        W24243  18.010  11.527   4.322
51918W        W24244  17.683  34.799   1.802
51919W        W24245  15.189  23.552   1.013
51920W        W24246   2.085  17.607  12.989
51921W        W24247  19.741   2.982   0.349
51922W        W24248  10.006   8.810  13.830
51923W        W24249   7.184  37.980   2.392
51924W        W24250  22.488  30.568  12.576
51925W        W24251  41.266  22.250  11.096
51926W        W24252  36.902  27.490   3.824
51927W        W24253  17.766  43.199  14.418
51928W        W24254  24.474  25.930  10.880
51929W        W24255   3.820  43.392   2.137
51930W        W24256  13.220  22.190  11.801
51931W        W24257  28.224  10.358  11.220
51932W        W24258  11.351  41.835   2.207
51933W        W24259  16.286  33.127  13.583
51934W        W24260  34.994  35.284  12.445
51935W        W24261  30.631  25.463  11.600
51936W        W24262  22.462  27.008   0.108
51937W        W24263  22.150  26.691  12.339
51938W        W24264  33.198  10.711   2.678
51939W        W24265  16.108   4.958   1.828
51940W        W24266  41.296   6.979   1.852
51941W        W24267  30.909  34.608  14.782
51942W        W24268  31.832  15.517  13.667
51943W        W24269  18.457  21.977  11.599
51944W        W24270   4.405   6.422   2.716
51945W        W24271  40.610  33.785  10.760
51946W        W24272  25.900  35.791   0.216
51947W        W24273  13.263   2.997   3.467
51948W        W24274  40.942  14.683   2.718
51949W        W24275  29.161  15.028  12.581
51950W        W24276  18.299   6.353  13.411
51951W        W24277  33.562  37.340   1.044
51952W        W24278  16.775  24.301  10.861
51953W        W24279  12.269  12.823   4.670
51954W        W24280  43.451   3.573   2.353
51955W        W24281  29.908  38.899  13.373
51956W        W24282  39.503  44.949  13.497
51957W        W24283  23.012  40.716  13.627
51958W        W24284  29.633   7.681  13.472
51959W        W24285  43.456   2.901   0.572
51960W        W24286   6.039  32.576   0.343
51961W        W24287  28.451   4.799   3.301
51962W        W24288  21.646  28.061   0.526
51963W        W24289  39.501   1.669   0.624
51964W        W24290   1.469  12.233   3.244
51965W        W24291   8.300  12.033   2.431
51966W        W24292  17.431  20.802   2.958
51967W        W24293   2.789  24.670  10.671
51968W        W24294  29.103  13.194   2.172
51969W        W24295  35.082   3.796   2.658
51970W        W24296   8.289  33.557   3.708
51971W        W24297  37.793  36.479  14.206
51972W        W24298  33.748  35.895   5.107
51973W        W24299  44.801  42.189  14.867
51974W        W24300  25.403  43.268  14.887
51975W        W24301   3.010  35.453   3.710
51976W        W24302   7.849  12.101   4.222
51977W        W24303   4.609   2.553  14.786
51978W        W24304  40.541  15.342   4.166
51979W        W24305  26.993  21.578   0.818
51980W        W24306   5.167  19.037   3.323
51981W        W24307  21.651  34.162  12.012
51982W        W24308  29.876   5.787  12.650
51983W        W24309  23.973  26.946  12.465
51984W        W24310  33.522   8.923   1.401
51985W        W24311   3.333  24.163  12.085
51986W        W24312  24.918  33.542   3.977
51987W        W24313  12.492  23.998   5.011
51988W        W24314  44.356  23.999   3.486
51989W        W24315  31.101   5.117   1.637
51990W        W24316   6.918  23.024   1.461
51991W        W24317   4.736  26.392  13.912
51992W        W24318   7.182   3.423   0.786
51993W        W24319  14.987  25.000  12.451
51994W        W24320  24.547  13.694  11.817
51995W        W24321  28.335   0.694  12.079
51996W        W24322  31.639  41.753   4.615
51997W        W24323  39.099  19.050   2.882
51998W        W24324  42.028  35.101  11.163
51999W        W24325  43.264  16.613   0.826
52000W        W24326  13.160  29.399   2.221
52001W        W24327   7.463   7.693   1.420
52002W        W24328  26.940   8.871  10.642
52003W        W24329  14.645  17.199  11.890
52004W        W24330  26.920  17.772   1.645
52005W        W24331  21.921  42.237  12.097
52006W        W24332  35.186  43.154  14.804
52007W        W24333  43.515   1.831  12.137
52008W        W24334  39.434  13.141  10.989
52009W        W24335  19.867  37.044  10.710
52010W        W24336  12.689   8.359  14.010
52011W        W24337   9.366  25.999  12.766
52012W        W24338  15.706  19.906  13.565
52013W        W24339  40.104  14.195   1.223
52014W        W24340   0.223   5.679  11.868
52015W        W24341  23.948  30.210  14.329
52016W        W24342  35.028   1.496   0.713
52017W        W24343  40.821   5.466   0.483
52018W        W24344  19.856   7.191   1.360
52019W        W24345  41.876  31.481   2.250
52020W        W24346   3.257  42.913  12.101
52021W        W24347   1.880  17.338   4.478
52022W        W24348  29.033  10.783   4.591
52023W        W24349  39.995  32.941  11.966
52024W        W24350  10.274   6.317  12.562
52025W        W24351  35.160  37.279  13.481
52026W        W24352   8.158   3.480  14.703
52027W        W24353  27.557  31.500  11.825
52028W        W24354  24.526  42.280  11.081
52029W        W24355   1.991  25.145   1.771
52030W        W24356  25.756  36.467  12.042
52031W        W24357   2.694  44.827   3.808
52032W        W24358  38.276  16.597   0.833
52033W        W24359  40.394  17.609  13.968
52034W        W24360   1.221  26.620   1.743
52035W        W24361   8.804  28.603  14.755
52036W        W24362  20.516   4.431   4.574
52037W        W24363  23.529  21.455   3.769
52038W        W24364  36.431  37.475  10.550
52039W        W24365  43.418  15.976  13.420
52040W        W24366  36.452  39.441   3.051
52041W        W24367  27.483   8.751  11.481
52042W        W24368  41.905  39.469   1.631
52043W        W24369  43.171  27.092   1.284
52044W        W24370  17.980   2.487  11.446
52045W        W24371  42.965  30.426   3.247
52046W        W24372  31.681  22.068   1.784
52047W        W24373  15.129  25.664   0.422
52048W        W24374  41.990  42.090  11.728
52049W        W24375  27.124  12.838  10.977
52050W        W24376  23.966  23.179  13.470
52051W        W24377   6.247  19.350  14.126
52052W        W24378  15.698  32.859   3.400
52053W        W24379  24.512  23.155  11.693
52054W        W24380  11.051   6.315   0.318
52055W        W24381   6.824  17.119  13.297
52056W        W24382  39.415  33.045  14.951
52057W        W24383  35.957  27.207   0.931
52058W        W24384  43.082   0.530   0.138
52059W        W24385  37.590   2.674   3.277
52060W        W24386  26.705  20.299   2.274
52061W        W24387   1.048  17.394  14.090
52062W        W24388  43.938  29.589  11.885
52063W        W24389  26.200  24.129   0.336
52064W        W24390   9.827  42.687   2.315
52065W        W24391  26.969  35.572  14.459
52066W        W24392  28.948  21.750   1.277
52067W        W24393  12.196  36.170  10.237
52068W        W24394  17.599  41.451   0.965
52069W        W24395  36.205   2.714   0.330
52070W        W24396  20.782  17.342  10.286
52071W        W24397  25.916  27.497   2.422
52072W        W24398  32.112  30.847   3.769
52073W        W24399  29.445  15.134   3.870
52074W        W24400  34.479  19.753  13.469
52075W        W24401  23.584  19.267  11.092
52076W        W24402  44.996  33.058  13.442
52077W        W24403  37.289  40.807  11.755
52078W        W24404  21.616  14.296  10.689
52079W        W24405  21.760  38.352  14.019
52080W        W24406  17.170   4.375   4.646
52081W        W24407   8.414  44.726   0.526
52082W        W24408  21.600   7.261   3.316
52083W        W24409  10.200   9.438   2.656
52084W        W24410   6.228   0.150  11.748
52085W        W24411  14.273  29.414   2.669
52086W        W24412  32.791  10.663  14.010
52087W        W24413  27.069  44.343  13.399
52088W        W24414  24.081  23.553   2.756
52089W        W24415   7.697  33.619   2.183
52090W        W24416  40.368  43.526   2.332
52091W        W24417  10.290  27.918   1.125
52092W        W24418  31.158   2.964  10.568
52093W        W24419  43.653  26.825   0.761
52094W        W24420  31.309  20.243   4.649
52095W        W24421  40.927  43.781   4.551
52096W        W24422  32.862  27.651   2.337
52097W        W24423  15.706  21.037  12.655
52098W        W24424  13.647  35.741   5.181
52099W        W24425  41.317  18.179  10.603
52100W        W24426  43.331  15.091   3.185
52101W        W24427  39.917  43.280   3.567
52102W        W24428   6.648  41.332  12.408
52103W        W24429  41.087   0.799  11.492
52104W        W24430  21.759  29.068  11.644
52105W        W24431  40.587  44.426  13.439
52106W        W24432   2.273   7.136  10.132
52107W        W24433  27.031  19.172   0.996
52108W        W24434  18.528  31.869   4.133
52109W        W24435  41.803   8.232   3.925
52110W        W24436  41.526  40.401  12.935
52111W        W24437  11.869  19.141   3.564
52112W        W24438  37.561  24.115  10.697
52113W        W24439  29.024  19.700  11.484
52114W        W24440  16.225  22.349  12.037
52115W        W24441  34.782   5.856   1.343
52116W        W24442   1.040   6.639  11.122
52117W        W24443  24.460  16.295   3.723
52118W        W24444   6.807  27.556   0.786
52119W        W24445  34.962  44.040   2.681
52120W        W24446  12.684  29.799  10.756
52121W        W24447  41.108  16.663  14.988
52122W        W24448  11.767  19.577  11.962
52123W        W24449  23.574  23.550  12.099
52124W        W24450  16.505  35.138  12.972
52125W        W24451  14.530   4.494   0.292
52126W        W24452  19.262  40.263  14.458
52127W        W24453  42.530  22.262   2.268
52128W        W24454  33.939  22.602  12.148
52129W        W24455   3.648  32.784  11.211
52130W        W24456  30.189  29.495  14.768
52131W        W24457  20.745   9.810  13.619
52132W        W24458   1.931  25.981   0.318
52133W        W24459  10.739  27.046   2.157
52134W        W24460  21.327  35.149  11.146
52135W        W24461  22.200  15.680   5.458
52136W        W24462   7.763  12.798   0.392
52137W        W24463  20.508  23.222  12.458
52138W        W24464  19.474  44.084  12.084
52139W        W24465   1.240  36.205  11.209
52140W        W24466  14.807  15.594   3.785
52141W        W24467  11.295  11.361  14.887
52142W        W24468  16.847  11.076   3.272
52143W        W24469   4.999  44.831  13.365
52144W        W24470  39.515  30.528   3.316
52145W        W24471  15.101  33.122  12.928
52146W        W24472   4.753  37.678   2.361
52147W        W24473  19.659   9.409  12.565
52148W        W24474  37.034   1.895  11.084
52149W        W24475  27.235   3.971  12.924
52150W        W24476  21.888   7.698  13.403
52151W        W24477  41.188  16.991  12.973
52152W        W24478  10.161  33.490  13.168
52153W        W24479  28.525  14.234  14.895
52154W        W24480  16.292  24.093  10.757
52155W        W24481  23.738  21.640  14.299
52156W        W24482  24.692  40.422   0.878
52157W        W24483   0.787  26.414   1.905
52158W        W24484   9.482  37.366   3.433
52159W        W24485  25.002   0.388   4.317
52160W        W24486  34.212  21.262   4.525
52161W        W24487  34.128  32.207   2.286
52162W        W24488   3.490  36.693  13.864
52163W        W24489   6.594   6.930  13.049
52164W        W24490  18.728  22.047   3.622
52165W        W24491  44.468   7.375  11.600
52166W        W24492  42.312  15.291   4.426
52167W        W24493  16.292  21.742  14.901
52168W        W24494   8.308  20.840   3.191
52169W        W24495  40.074  33.916  10.636
52170W        W24496   6.729  23.968  14.808
52171W        W24497  35.331  41.408   2.455
52172W        W24498  43.405  16.836   1.280
52173W        W24499  18.514  13.704   4.102
52174W        W24500  27.911  43.369   3.576
52175W        W24501  42.503  11.768   3.235
52176W        W24502   7.023  26.450  12.217
52177W        W24503  26.081  18.102   5.207
52178W        W24504  40.878  38.771   1.255
52179W        W24505  27.368  34.146  11.977
52180W        W24506  43.902  22.901   4.695
52181W        W24507   4.322  39.383  14.539
52182W        W24508  44.420  14.344  11.684
52183W        W24509  29.373  10.754   4.971
52184W        W24510  33.551  16.145  11.052
52185W        W24511   5.704  25.358  13.933
52186W        W24512  34.142  11.734   2.792
52187W        W24513  19.639  44.568   4.553
52188W        W24514  27.875   4.330  10.690
52189W        W24515  13.291  27.935  13.045
52190W        W24516  26.940  44.728  11.596
52191W        W24517   6.142  19.625   4.379
52192W        W24518   5.460  19.790  11.502
52193W        W24519  44.470  43.881  10.739
52194W        W24520   7.894   0.598  11.757
52195W        W24521  43.391  40.984   2.207
52196W        W24522   8.400  39.396  12.925
52197W        W24523  19.574  31.854  12.913
52198W        W24524  39.948  21.672   3.377
52199W        W24525  30.962  15.747  13.140
52200W        W24526  19.806  35.669   1.426
52201W        W24527  14.522  13.621  11.106
52202W        W24528  11.310  31.946  14.554
52203W        W24529  16.542  28.185  12.205
52204W        W24530  32.986  28.485   0.373
52205W        W24531  11.175  30.973  14.506
52206W        W24532  10.989   9.726  13.822
52207W        W24533  44.668  14.338   3.677
52208W        W24534  33.429  12.999  11.418
52209W        W24535  22.288  15.759   4.138
52210W        W24536  21.394  39.251   0.671
52211W        W24537  38.546  32.505  11.070
52212W        W24538  13.299  25.242  14.946
52213W        W24539   9.531  29.045  14.840
52214W        W24540  38.069  33.050  12.344
52215W        W24541  28.782   6.770  12.161
52216W        W24542  14.096   3.734   4.731
52217W        W24543  16.544   6.793  12.708
52218W        W24544  20.880   2.844  13.371
52219W        W24545   5.689  27.879   2.833
52220W        W24546   4.861  18.361  13.797
52221W        W24547  32.100   9.192   4.171
52222W        W24548  18.786  13.366   1.422
52223W        W24549   1.917  36.422   1.143
52224W        W24550   2.700   9.469  14.323
52225W        W24551  15.601  27.226  11.602
52226W        W24552  18.696  30.066  12.532
52227W        W24553  11.034  36.098   3.078
52228W        W24554  14.213  17.612  14.949
52229W        W24555  11.894  33.171   0.426
52230W        W24556  26.519  18.756   1.953
52231W        W24557  21.077  29.581  14.434
52232W        W24558  15.365   4.673  11.651
52233W        W24559  35.478  23.584  14.309
52234W        W24560  13.055  25.647   2.573
52235W        W24561  14.268  12.198  13.121
52236W        W24562  29.567  31.709   1.330
52237W        W24563  13.770  14.343   2.869
52238W        W24564  32.120  43.275  11.252
52239W        W24565   1.764  34.153   0.315
52240W        W24566  12.846  25.975   0.628
52241W        W24567   7.339   9.760   3.433
52242W        W24568  40.383   5.026  13.612
52243W        W24569  41.929  15.997  13.888
52244W        W24570  11.929  13.812  10.217
52245W        W24571   3.908  34.954   4.253
52246W        W24572  23.581  22.294   3.371
52247W        W24573  24.961  35.929   4.157
52248W        W24574  32.361  23.904   4.537
52249W        W24575  17.513  31.853   0.448
52250W        W24576   8.113  31.995   0.379
52251W        W24577  24.112   3.896  12.003
52252W        W24578  29.081  27.405   2.131
52253W        W24579  12.642  14.070  14.435
52254W        W24580   6.857   5.213   4.544
52255W        W24581  28.001   6.578  11.682
52256W        W24582  17.320   6.383   3.771
52257W        W24583  30.589  30.699  14.631
52258W        W24584  43.843  19.833  11.949
52259W        W24585  17.062  10.703   2.863
52260W        W24586  18.619  28.619   1.528
52261W        W24587   0.072  42.531  10.997
52262W        W24588  11.157   7.907   0.142
52263W        W24589   3.728   6.133  13.891
52264W        W24590   3.838  30.972  13.879
52265W        W24591  21.756  31.130   3.781
52266W        W24592   9.744  24.707   3.554
52267W        W24593  28.198   7.274  13.407
52268W        W24594  29.951   2.415   3.728
52269W        W24595  29.916  41.836  11.619
52270W        W24596  28.076  41.333   4.242
52271W        W24597  15.063   4.320  11.877
52272W        W24598  28.426  12.172   2.312
52273W        W24599   3.790  17.663   3.166
52274W        W24600  25.248  22.451  13.418
52275W        W24601  14.109  40.713   0.443
52276W        W24602  22.482  22.207   0.185
52277W        W24603  31.341   9.222  11.122
52278W        W24604  16.185  40.535   3.901
52279W        W24605   4.694  15.129  13.421
52280W        W24606   6.835  34.598  11.417
52281W        W24607  19.027  34.848  12.889
52282W        W24608  25.511  40.129   0.724
52283W        W24609   7.347  35.781  14.186
52284W        W24610   2.024   9.775  10.852
52285W        W24611  29.768   4.166   2.255
52286W        W24612  34.860  32.811   1.812
52287W        W24613  34.677   0.003   0.468
52288W        W24614   0.297  23.986  13.358
52289W        W24615   1.278  31.169  13.477
52290W        W24616  22.003  10.318   4.258
52291W        W24617  31.123  34.445  11.583
52292W        W24618  40.803  43.875   1.273
52293W        W24619  23.818  30.911   4.551
52294W        W24620  36.092  29.432   0.367
52295W        W24621   9.191   3.608  11.956
52296W        W24622  30.056  22.110   2.526
52297W        W24623  16.466  19.721   3.391
52298W        W24624  30.398   0.904   3.192
52299W        W24625  14.445  18.919  14.608
52300W        W24626  23.285  41.815  14.313
52301W        W24627  18.022  12.058   4.302
52302W        W24628  28.779   9.702   2.266
52303W        W24629   2.173  30.005   1.362
52304W        W24630  30.432  41.270   3.834
52305W        W24631  19.329  26.748  12.927
52306W        W24632  30.799  11.892   0.033
52307W        W24633  24.060  44.815   0.305
52308W        W24634   6.208  10.344  14.461
52309W        W24635  12.263  14.424   3.260
52310W        W24636  43.232  41.348  11.963
52311W        W24637  19.648  34.281   3.606
52312W        W24638  42.995  37.429   0.784
52313W        W24639   8.582   3.393   3.138
52314W        W24640  37.767   5.437  13.688
52315W        W24641  42.031  15.191  10.443
52316W        W24642   6.334  43.524   4.536
52317W        W24643  21.500   8.226   3.706
52318W        W24644   9.319   6.672  13.414
52319W        W24645  27.462  17.773  11.646
52320W        W24646   6.284  40.958   1.854
52321W        W24647  30.334  17.409  11.640
52322W        W24648   9.995  10.838  13.310
52323W        W24649  11.980  40.336  10.964
52324W        W24650  15.893  18.410  12.966
52325W        W24651   3.452   8.887  13.947
52326W        W24652  22.044  31.395  12.105
52327W        W24653  32.363  32.468   0.021
52328W        W24654  28.066  44.641   5.086
52329W        W24655  36.571   1.325   2.364
52330W        W24656   7.826  42.292  13.682
52331W        W24657  16.118  28.056   1.728
52332W        W24658  39.876  41.894   3.094
52333W        W24659   6.280  20.057  10.719
52334W        W24660  17.896   6.405   2.659
52335W        W24661  12.993  15.586   3.263
52336W        W24662  35.724  29.280  14.058
52337W        W24663  41.018   6.837   0.280
52338W        W24664  16.259  41.248  11.451
52339W        W24665  41.242  43.539  11.643
52340W        W24666  12.473  25.455  10.084
52341W        W24667  29.081  18.914  13.916
52342W        W24668  17.839  42.948   0.050
52343W        W24669   5.789  19.998   0.473
52344W        W24670   8.582  42.002  12.973
52345W        W24671   2.528  37.545  11.148
52346W        W24672  44.258  12.464   3.739
52347W        W24673   0.223  30.179   4.064
52348W        W24674  23.092   8.196   1.884
52349W        W24675  16.696  39.547   4.369
52350W        W24676  37.981  36.012  13.398
52351W        W24677  26.735  13.618  12.044
52352W        W24678  17.095  23.037   2.811
52353W        W24679  11.851  10.132  10.847
52354W        W24680  34.410  27.157  13.378
52355W        W24681  20.263  24.731   2.481
52356W        W24682  10.226   3.501   1.432
52357W        W24683  10.902   4.927   3.628
52358W        W24684  11.061  17.120  14.600
52359W        W24685  10.182  14.362  12.935
52360W        W24686  20.095   2.850   1.559
52361W        W24687   5.327  13.872  14.833
52362W        W24688  39.019   0.516  13.048
52363W        W24689  39.729  25.705  10.711
52364W        W24690  43.103  27.916  14.927
52365W        W24691   5.396  19.102   3.803
52366W        W24692  28.522  10.168  13.479
52367W        W24693  42.384  42.751   4.392
52368W        W24694  36.187  16.953   4.168
52369W        W24695  14.697  15.597  10.745
52370W        W24696  40.539   8.921  12.870
52371W        W24697  20.889  15.778  11.096
52372W        W24698  17.684   6.422  12.960
52373W        W24699  30.360  18.170  10.607
52374W        W24700   5.190  12.690  12.123
52375W        W24701  19.187   5.703   2.871
52376W        W24702  26.021  21.049  10.122
52377W        W24703   4.775   5.305   0.705
52378W        W24704  38.964  39.227   1.343
52379W        W24705  20.545   8.281   2.514
52380W        W24706   7.219  35.934  11.625
52381W        W24707  43.452  24.044   3.594
52382W        W24708  34.583  10.105   3.695
52383W        W24709  42.599  14.931   4.157
52384W        W24710  38.924  36.147  12.197
52385W        W24711  27.565  10.155   0.434
52386W        W24712  16.579   5.736   0.386
52387W        W24713  13.352  28.987   2.427
52388W        W24714  36.080  22.458  11.106
52389W        W24715  12.306  10.902  11.125
52390W        W24716  14.232   1.476  13.410
52391W        W24717  17.862   5.261   0.843
52392W        W24718  31.083  33.387   0.895
52393W        W24719  27.166  24.153   2.391
52394W        W24720   1.286  11.102   1.814
52395W        W24721  14.743   8.649   2.412
52396W        W24722  23.530  12.434  14.545
52397W        W24723  32.539   1.912   3.789
52398W        W24724  20.511  29.991  13.076
52399W        W24725  36.899  44.592   2.165
52400W        W24726  20.245  26.504   1.428
52401W        W24727  22.571  44.601  13.956
52402W        W24728  16.022  10.674   3.714
52403W        W24729  13.114   9.311  14.505
52404W        W24730  36.973  11.275   2.580
52405W        W24731  41.269  17.246  11.233
52406W        W24732   3.984  24.278   2.619
52407W        W24733  21.553   6.330  12.447
52408W        W24734  14.876   9.870  13.362
52409W        W24735  29.023   4.230   4.601
52410W        W24736  38.707  41.190  10.742
52411W        W24737  13.548  35.298  12.418
52412W        W24738  41.273  26.531   2.915
52413W        W24739  15.103  26.538  11.103
52414W        W24740  41.554  13.341   0.756
52415W        W24741  36.284  38.753   3.888
52416W        W24742  38.869   0.994   1.184
52417W        W24743  10.820  11.545  10.793
52418W        W24744  25.535  30.704  14.689
52419W        W24745   2.224  14.348  11.985
52420W        W24746  14.110   8.366  10.441
52421W        W24747  23.091  21.312  10.703
52422W        W24748   4.219  12.212   1.731
52423W        W24749   1.796  21.994   4.831
52424W        W24750   9.502  12.700   1.766
52425W        W24751  20.628  27.931  10.627
52426W        W24752   1.294   6.200   2.792
52427W        W24753   5.175  29.678  13.068
52428W        W24754  18.656  36.764   4.644
52429W        W24755  27.731  18.270   4.198
52430W        W24756  15.800  35.187  11.797
52431W        W24757   1.315  35.094  12.680
52432W        W24758  33.631  14.970   2.238
52433W        W24759  40.961  41.398  11.227
52434W        W24760  20.195  29.978  11.128
52435W        W24761  23.083  12.649   4.735
52436W        W24762  44.998   8.204   3.893
52437W        W24763  17.854   6.687  12.553
52438W        W24764  11.290  41.698   4.593
52439W        W24765  10.496  25.756   4.286
52440W        W24766   3.835  27.930  13.969
52441W        W24767  16.727   2.229  13.602
52442W        W24768  19.290  11.073  12.436
52443W        W24769   1.994  31.937  12.307
52444W        W24770  39.266  43.978  12.558
52445W        W24771  39.697  36.379  11.541
52446W        W24772  14.087   4.200   2.265
52447W        W24773  38.388  38.526  10.601
52448W        W24774   2.083  27.630  12.004
52449W        W24775  33.431  24.635   2.628
52450W        W24776  32.386  20.782   4.987
52451W        W24777  33.971   7.749  11.570
52452W        W24778  16.680  23.551  13.201
52453W        W24779  31.000  39.252   1.735
52454W        W24780  12.013  26.621  10.613
52455W        W24781  39.591  19.215  11.525
52456W        W24782  16.414  42.060  11.240
52457W        W24783   9.366  36.075  11.029
52458W        W24784  17.814  22.956  10.789
52459W        W24785  40.905  11.686   3.421
52460W        W24786  40.067  34.016   0.790
52461W        W24787  20.320  40.442  10.625
52462W        W24788   4.209  10.073  14.831
52463W        W24789  10.672  15.319   3.924
52464W        W24790   1.760  18.525  10.646
52465W        W24791  38.485  41.488  13.502
52466W        W24792  22.013  38.752  12.521
52467W        W24793  22.659  34.966   0.792
52468W        W24794  29.580  18.533   2.776
52469W        W24795   5.750  42.872  14.341
52470W        W24796  27.027  36.053  12.486
52471W        W24797  13.735  19.188  11.257
52472W        W24798   2.546   3.882  14.039
52473W        W24799  25.679  26.413  11.993
52474W        W24800  37.654  33.492  13.964
52475W        W24801   4.153  14.362  12.436
52476W        W24802  26.642  39.000   2.340
52477W        W24803   8.683   4.728  13.478
52478W        W24804  31.142  41.272   2.596
52479W        W24805   9.342  40.933  11.370
52480W        W24806   0.298  15.221  14.706
52481W        W24807   1.494  33.796  10.919
52482W        W24808   8.994   7.104   0.417
52483W        W24809  43.755  30.038  10.698
52484W        W24810  16.190  37.955   2.935
52485W        W24811  21.381  26.203  13.486
52486W        W24812   0.812  39.372  13.976
52487W        W24813   2.527  30.492   3.726
52488W        W24814  30.449  33.091   2.707
52489W        W24815   4.647   3.970   5.330
52490W        W24816  26.053  20.574  13.723
52491W        W24817  25.866  17.136  12.100
52492W        W24818  14.018  23.319   2.623
52493W        W24819  32.399  32.549   2.274
52494W        W24820  21.304  21.260   0.734
52495W        W24821   7.380  15.118  12.837
52496W        W24822  21.176  15.810  12.020
52497W        W24823  15.796   8.183   0.060
52498W        W24824  29.173   9.786  14.020
52499W        W24825   8.580  25.419  13.422
52500W        W24826  12.315  21.838   2.855
52501W        W24827   2.281  36.537   4.628
52502W        W24828   6.479  11.797   4.935
52503W        W24829  33.532  12.608  14.669
52504W        W24830  24.039  14.108   0.016
52505W        W24831  31.629  44.487  11.653
52506W        W24832  39.388  24.498  10.659
52507W        W24833  26.750  25.262  14.339
52508W        W24834   7.221  35.599   2.921
52509W        W24835  41.850  23.789   1.612
52510W        W24836  33.942   8.305   0.874
52511W        W24837  30.904  29.631   1.419
52512W        W24838  10.269  27.914  12.423
52513W        W24839  24.476   8.755   2.916
52514W        W24840  13.330  19.513  11.173
52515W        W24841   7.751  13.271  12.029
52516W        W24842  32.544  41.764   4.560
52517W        W24843   7.670  12.594   1.868
52518W        W24844  20.043  33.897   3.764
52519W        W24845  33.868  34.828  11.663
52520W        W24846  15.803   7.764  11.227
52521W        W24847  42.248  31.124   4.038
52522W        W24848  11.562  41.813   0.053
52523W        W24849   3.934  25.233   4.175
52524W        W24850   7.739  44.587  11.581
52525W        W24851  37.346  34.006   4.610
52526W        W24852  42.975  26.621   1.360
52527W        W24853  18.345  22.225   3.315
52528W        W24854   2.184  33.565   4.034
52529W        W24855  11.460   1.765   4.290
52530W        W24856  40.155  22.669  11.656
52531W        W24857  37.441  29.406  13.946
52532W        W24858  37.622  38.949  14.777
52533W        W24859  29.356  16.098  12.013
52534W        W24860  32.168  20.474  14.383
52535W        W24861  29.293   4.382   4.195
52536W        W24862  37.993  18.658   0.504
52537W        W24863   4.718  17.995  11.973
52538W        W24864  31.688  14.386   3.781
52539W        W24865  42.280  39.113  11.499
52540W        W24866  26.522  43.362   4.707
52541W        W24867   0.908  43.884   1.840
52542W        W24868   9.744  39.723  14.447
52543W        W24869  26.412  43.788  12.047
52544W        W24870  33.038  26.549   4.520
52545W        W24871  29.070  34.823   1.408
52546W        W24872  30.760  12.981  11.588
52547W        W24873  36.680  12.166   1.091
52548W        W24874   7.903  21.808  11.869
52549W        W24875  19.678   9.335   3.940
52550W        W24876   4.877  27.167  13.638
52551W        W24877  13.709  29.926   4.167
52552W        W24878  28.643  42.492  11.974
52553W        W24879  21.928  16.786   2.662
52554W        W24880  42.904  43.267   3.751
52555W        W24881  21.606  11.274  12.610
52556W        W24882  14.755  38.602   3.234
52557W        W24883   6.346  27.750  14.884
52558W        W24884  32.383  10.356   0.295
52559W        W24885   1.598  21.740  11.492
52560W        W24886  24.599  43.282  10.907
52561W        W24887  21.176   5.380  11.267
52562W        W24888  18.266  16.239  13.758
52563W        W24889   3.808  40.952   2.222
52564W        W24890  39.382   3.964   2.323
52565W        W24891  31.605  21.157  11.853
52566W        W24892  18.703  37.570   2.420
52567W        W24893  15.819  10.382   5.077
52568W        W24894  22.024  27.434   2.077
52569W        W24895   7.226  44.270  10.760
52570W        W24896  16.670   4.576   4.280
52571W        W24897  21.813  19.083  13.307
52572W        W24898  42.524  17.659  12.145
52573W        W24899   0.558  31.500  10.765
52574W        W24900   1.715  42.118  12.393
52575W        W24901  30.576  21.739  13.354
52576W        W24902  11.151  20.086  14.770
52577W        W24903  29.499  28.054   5.074
52578W        W24904  25.805  41.907  12.951
52579W        W24905  13.648   4.247  14.243
52580W        W24906  33.853  16.171   1.343
52581W        W24907  27.107  25.021  12.496
52582W        W24908   7.830  20.540   4.311
52583W        W24909   7.083  23.906  11.091
52584W        W24910  17.760  38.878  14.870
52585W        W24911  36.941  21.268   2.753
52586W        W24912   3.431  22.715   1.338
52587W        W24913   0.044  33.468   0.782
52588W        W24914  16.471  29.122   4.906
52589W        W24915  15.848  22.879  10.131
52590W        W24916  36.379  24.692  13.317
52591W        W24917   2.376  10.133   4.616
52592W        W24918  28.116  38.827  13.468
52593W        W24919   8.581  40.749   1.765
52594W        W24920  17.184  37.378   2.738
52595W        W24921  28.647  17.800  13.110
52596W        W24922   7.317  30.279  14.165
52597W        W24923  41.996   2.459  12.460
52598W        W24924  29.589  14.116  12.060
52599W        W24925  22.178  11.609  10.550
52600W        W24926  17.861  13.722  10.687
52601W        W24927   7.980  36.181  11.868
52602W        W24928  39.799  23.972  13.036
52603W        W24929  30.500   6.369  12.453
52604W        W24930  19.091   0.319  13.000
52605W        W24931   3.468  11.359  12.987
52606W        W24932  32.521  39.250  11.590
52607W        W24933   2.438  44.054  13.521
52608W        W24934  15.046  36.448   0.721
52609W        W24935  44.451  28.687   0.928
52610W        W24936  18.711  21.983   1.865
52611W        W24937  24.057   9.741  13.753
52612W        W24938  16.728  18.068   1.478
52613W        W24939  12.688   9.794  14.983
52614W        W24940  38.054   4.142  14.773
52615W        W24941   0.638  14.773   0.295
52616W        W24942  42.743   3.818  13.431
52617W        W24943   1.716  13.278  13.499
52618W        W24944   6.723  28.802   0.268
52619W        W24945  34.911  11.645   3.210
52620W        W24946  18.518  37.090  12.479
52621W        W24947  16.162  38.103   3.430
52622W        W24948   6.473  15.607   3.653
52623W        W24949  14.882   4.157  14.847
52624W        W24950   7.712   7.798   3.747
52625W        W24951   9.902   0.542   3.053
52626W        W24952  38.608   7.118  13.859
52627W        W24953  30.124  41.572   3.428
52628W        W24954  12.901  42.264  13.461
52629W        W24955   5.782   0.768   3.807
52630W        W24956  38.665  26.476   0.774
52631W        W24957   4.964   4.025  13.024
52632W        W24958  37.567  14.278  10.648
52633W        W24959  15.683   7.008  13.952
52634W        W24960  29.550  26.514   0.396
52635W        W24961   7.568   5.214  12.601
52636W        W24962  23.460  18.509  11.492
52637W        W24963  10.952  21.344  14.001
52638W        W24964  35.291  38.388  14.562
52639W        W24965  37.727   3.586   3.944
52640W        W24966  44.275  25.217   0.340
52641W        W24967  33.415  37.442  12.323
52642W        W24968  42.310  21.912  13.062
52643W        W24969  23.761  38.827  12.075
52644W        W24970   3.680  19.600   5.021
52645W        W24971   4.364  21.226  11.062
52646W        W24972  36.304  41.825  11.083
52647W        W24973  10.901   1.613   3.714
52648W        W24974   8.785   0.826   1.744
52649W        W24975  32.145  44.017   0.268
52650W        W24976   6.730  25.106   4.030
52651W        W24977   8.852  13.698   3.543
52652W        W24978  39.591  21.007   1.820
52653W        W24979  27.534  34.906  13.580
52654W        W24980  16.616  16.697  14.707
52655W        W24981  25.907  22.803   1.683
52656W        W24982   2.412  23.704  14.014
52657W        W24983  11.804   6.393   1.199
52658W        W24984  35.182  20.728  11.508
52659W        W24985  23.673  29.217  12.603
52660W        W24986  23.504   9.243  11.133
52661W        W24987  29.108  31.424  12.367
52662W        W24988  26.658  29.388  12.909
52663W        W24989  15.572  13.729  14.247
52664W        W24990  28.150  19.546   2.415
52665W        W24991  43.928  10.617   0.914
52666W        W24992  44.245  23.642   4.509
52667W        W24993  40.403  32.981  13.942
52668W        W24994  14.319  26.528  13.231
52669W        W24995  12.782   2.185   0.871
52670W        W24996  32.848  29.545   1.497
52671W        W24997  14.346  41.464   0.679
52672W        W24998   3.325  23.161  14.751
52673W        W24999  41.596  38.932   4.165
52674W        W25000  12.202  15.382   1.250
52675W        W25001  26.257  17.326   4.578
52676W        W25002   4.186  43.573  11.132
52677W        W25003  12.268  23.620  11.154
52678W        W25004  32.020  31.657   1.655
52679W        W25005   2.929  39.562  14.454
52680W        W25006  42.546  17.254  13.436
52681W        W25007  34.392  25.679  12.645
52682W        W25008  24.001  23.687   3.262
52683W        W25009  30.893  17.061   2.871
52684W        W25010  40.338  41.283   1.579
52685W        W25011   1.378   3.674  11.583
52686W        W25012  26.140  13.148   0.701
52687W        W25013  11.120  41.004   0.199
52688W        W25014  20.539   9.225   4.201
52689W        W25015  11.392  13.341  11.722
52690W        W25016  13.135   5.223   0.500
52691W        W25017  28.503  26.972   1.340
52692W        W25018   1.169  15.770   3.727
52693W        W25019  16.055  23.062  13.858
52694W        W25020  33.110  16.797  14.857
52695W        W25021  26.735  13.604  14.798
52696W        W25022   2.068  15.640  14.424
52697W        W25023  34.668   4.175  14.790
52698W        W25024  16.976   9.665   4.224
52699W        W25025  15.142   9.842  12.396
52700W        W25026   4.936  13.804   2.727
52701W        W25027  20.766  12.510   0.281
52702W        W25028  25.952  41.605   2.893
52703W        W25029  18.204  15.314   3.725
52704W        W25030  17.494  27.235  12.974
52705W        W25031  40.271  32.866   0.309
52706W        W25032   1.860  20.680  14.908
52707W        W25033  13.869  26.519   1.787
52708W        W25034  17.795   2.300   4.236
52709W        W25035  26.243  32.490   4.593
52710W        W25036   5.011  40.692  14.389
52711W        W25037  27.146  31.022  11.209
52712W        W25038  13.347   8.435   1.536
52713W        W25039   5.360  29.220   3.850
52714W        W25040  28.937   7.706  13.020
52715W        W25041   6.959  10.788   3.431
52716W        W25042  27.174   6.205  11.057
52717W        W25043  36.574  11.437   3.762
52718W        W25044  21.618   6.281  14.535
52719W        W25045  14.877  30.560  13.366
52720W        W25046  10.468   5.932   4.114
52721W        W25047  40.721   0.685  13.374
52722W        W25048  32.721  28.512  10.751
52723W        W25049  13.545  13.861   3.610
52724W        W25050   8.038  19.670   4.654
52725W        W25051   9.841  23.679  14.256
52726W        W25052   3.441   1.351   4.650
52727W        W25053  15.570  18.679   1.827
52728W        W25054  41.876  15.495   3.220
52729W        W25055  22.774  35.846  12.822
52730W        W25056  42.277  39.415   4.859
52731W        W25057  44.935  43.735   4.463
52732W        W25058   5.274  15.742  13.335
52733W        W25059  27.963  12.592   0.796
52734W        W25060  37.049  13.596  14.531
52735W        W25061  39.785  11.100   4.193
52736W        W25062  21.096  18.500   3.945
52737W        W25063  25.379  15.050  14.367
52738W        W25064  13.489   8.942   1.942
52739W        W25065  41.196   5.395   1.403
52740W        W25066  10.390  41.245   2.269
52741W        W25067  43.809  44.883  10.459
52742W        W25068   6.440  33.922  11.129
52743W        W25069  11.660  40.448   1.865
52744W        W25070  16.162  35.819   1.146
52745W        W25071  28.271  44.417  10.503
52746W        W25072  25.285  35.213  12.480
52747W        W25073  37.601  38.286   4.829
52748W        W25074  18.960  43.196   0.898
52749W        W25075  16.834  36.040   0.183
52750W        W25076  34.183   8.796  14.786
52751W        W25077   3.498   3.148   4.563
52752W        W25078  43.418  38.979  12.869
52753W        W25079   1.679   4.476   3.531
52754W        W25080  30.306  37.392   2.292
52755W        W25081  22.199   0.860  11.645
52756W        W25082  22.993  10.247  14.715
52757W        W25083   0.445   5.146  12.973
52758W        W25084   5.843  42.268   4.517
52759W        W25085  16.841  34.526   2.757
52760W        W25086  13.585   4.962  11.291
52761W        W25087  14.385  20.820  10.850
52762W        W25088  19.528   0.389   3.860
52763W        W25089  14.192  25.829   0.741
52764W        W25090  12.349  35.748   3.370
52765W        W25091   2.294  37.896  13.761
52766W        W25092  22.268  18.232  13.072
52767W        W25093  31.009  13.376   1.316
52768W        W25094  13.212  13.633  11.417
52769W        W25095   9.347  37.747   1.271
52770W        W25096  22.178  21.184   0.247
52771W        W25097   2.234  33.461   4.607
52772W        W25098  10.595  22.763  12.533
52773W        W25099  39.468  10.382   2.429
52774W        W25100  31.390  15.995   1.297
52775W        W25101  18.578  12.322  14.939
52776W        W25102  43.059  40.523   1.237
52777W        W25103   6.221  23.703  14.985
52778W        W25104  15.575  28.954  10.984
52779W        W25105  23.958   3.023  13.036
52780W        W25106  31.400  10.430   2.730
52781W        W25107  31.885  30.511   2.943
52782W        W25108  22.357   7.466   1.452
52783W        W25109  32.125  37.966   2.301
52784W        W25110  21.614  40.790  10.517
52785W        W25111  39.549  26.217  14.491
52786W        W25112  26.050  31.087   2.942
52787W        W25113  40.429   9.747   1.151
52788W        W25114   6.619  17.062   3.367
52789W        W25115   7.793  32.393   1.865
52790W        W25116  34.910   5.572   4.854
52791W        W25117   5.503  13.288  14.826
52792W        W25118  16.256  18.431   1.282
52793W        W25119  28.476  37.857   0.146
52794W        W25120   7.798  38.450  10.411
52795W        W25121  22.305   2.673  13.342
52796W        W25122   3.337   2.496  14.377
52797W        W25123  28.662  31.446   1.286
52798W        W25124  40.905  34.812   4.610
52799W        W25125  32.145  40.229  14.074
52800W        W25126  35.283  44.574  13.974
52801W        W25127  29.610  13.609   4.837
52802W        W25128  16.744  27.389   1.388
52803W        W25129  18.307  29.969  12.195
52804W        W25130  43.079  33.102  11.187
52805W        W25131  22.175   0.831   2.716
52806W        W25132  10.079  36.875  14.387
52807W        W25133  34.170   3.837  11.123
52808W        W25134  43.807  25.006  11.648
52809W        W25135  15.268  44.731  10.817
52810W        W25136   3.230  15.696  13.011
52811W        W25137  34.111  35.543   5.046
52812W        W25138   1.526  12.812   0.708
52813W        W25139  35.025  22.529  13.614
52814W        W25140  22.095  32.394  13.630
52815W        W25141  23.240  15.094   4.254
52816W        W25142  44.201  19.110  10.183
52817W        W25143  12.814  12.487   0.702
52818W        W25144  22.166  37.127   4.483
52819W        W25145  43.614  31.391  12.998
52820W        W25146  28.777  44.772  11.882
52821W        W25147   6.356  36.324   2.178
52822W        W25148  22.615  30.435   3.116
52823W        W25149   4.955  24.031   2.674
52824W        W25150  29.074  14.889   1.312
52825W        W25151  11.136  21.220   3.659
52826W        W25152  39.952  43.982   0.877
52827W        W25153  38.910  31.627  13.800
52828W        W25154   2.084  39.841  14.757
52829W        W25155  25.404  31.427   1.810
52830W        W25156  44.922  26.303  10.591
52831W        W25157  14.816  29.862  10.687
52832W        W25158  39.683  27.527  13.990
52833W        W25159   9.730  27.137   0.589
52834W        W25160  22.674  31.179   3.819
52835W        W25161  30.163   4.459   4.204
52836W        W25162   5.868  22.144  11.062
52837W        W25163  16.441   7.382   1.471
52838W        W25164  37.613  35.200  14.479
52839W        W25165  33.926   4.702   1.805
52840W        W25166  31.409  33.456  14.404
52841W        W25167  42.844  25.757  14.725
52842W        W25168  44.732  11.378  12.426
52843W        W25169  29.882  44.785   2.686
52844W        W25170   1.318  42.522  12.442
52845W        W25171  24.592  38.327   2.687
52846W        W25172  44.221  21.360   0.113
52847W        W25173  40.380  40.708   2.861
52848W        W25174  28.135  17.754  12.462
52849W        W25175  20.986  35.651  12.191
52850W        W25176  36.289  37.868   3.774
52851W        W25177  32.601  15.116   4.702
52852W        W25178  39.933  18.299   3.640
52853W        W25179  32.241   5.177  13.605
52854W        W25180  30.953  34.839  11.873
52855W        W25181  32.653  35.958  12.501
52856W        W25182  31.630  22.689  11.618
52857W        W25183  24.483  26.444   2.910
52858W        W25184  10.901  39.517   1.337
52859W        W25185   8.971  12.338  14.486
52860W        W25186   5.323  26.666   3.217
52861W        W25187  40.974   5.440  12.283
52862W        W25188  28.051  40.895   4.541
52863W        W25189  42.664  13.026  14.434
52864W        W25190  13.843  26.919   3.277
52865W        W25191  17.298  11.134   0.814
52866W        W25192  27.078  31.049   4.717
52867W        W25193  42.036  22.708  11.913
52868W        W25194  27.348  34.620   2.313
52869W        W25195  41.044  18.922  11.613
52870W        W25196  19.103  25.713   1.119
52871W        W25197  40.524  25.211   0.740
52872W        W25198  13.836  39.014   1.768
52873W        W25199   9.271  31.589  14.035
52874W        W25200  34.525  20.985   1.664
52875W        W25201   1.167  10.099   3.900
52876W        W25202   5.042  23.180   1.866
52877W        W25203  42.900   0.015  11.974
52878W        W25204  39.770  38.127   3.746
52879W        W25205  12.116  22.094   3.263
52880W        W25206  30.121  18.525   2.264
52881W        W25207  17.737  28.605  12.173
52882W        W25208  21.474  43.405  11.156
52883W        W25209  17.637  37.491   2.472
52884W        W25210  26.406  37.374   2.859
52885W        W25211  42.365  22.263  12.697
52886W        W25212  43.090   8.983   2.918
52887W        W25213  18.832  16.694  11.576
52888W        W25214  22.672   6.959  11.250
52889W        W25215  21.146   1.835  11.479
52890W        W25216  44.613  28.436  13.451
52891W        W25217  43.299  11.757   1.163
52892W        W25218  10.332  31.202  11.927
52893W        W25219   1.257  14.578  13.070
52894W        W25220  41.810   8.885  13.961
52895W        W25221  13.799  35.645  11.099
52896W        W25222  33.150  19.209  10.734
52897W        W25223   2.256  35.371  10.700
52898W        W25224  21.494   6.754  13.141
52899W        W25225  17.312  30.648  14.100
52900W        W25226   4.719  20.552   0.940
52901W        W25227  40.223  44.059   3.217
52902W        W25228  42.769  19.462   4.376
52903W        W25229  22.550  11.546   0.284
52904W        W25230  28.588  26.963   4.063
52905W        W25231  25.627  16.977   4.974
52906W        W25232  18.687  26.481  13.048
52907W        W25233   7.285   4.158  13.288
52908W        W25234  40.805   3.255   0.568
52909W        W25235  36.354  22.749   4.237
52910W        W25236  12.807  38.088   3.275
52911W        W25237  12.796  25.093  14.304
52912W        W25238  43.922  32.061  13.866
52913W        W25239   9.759  14.494   1.849
52914W        W25240  25.529  33.550  12.439
52915W        W25241  42.959  37.314   3.106
52916W        W25242  37.894   3.650   3.097
52917W        W25243  24.131  35.067  12.889
52918W        W25244  32.924  42.542   2.770
52919W        W25245   3.788  13.527   4.806
52920W        W25246  31.173  34.492   4.137
52921W        W25247  43.182   9.955  10.221
52922W        W25248  14.003  42.174   1.204
52923W        W25249  27.378  25.682  11.142
52924W        W25250  11.916   0.042   3.836
52925W        W25251  25.025  26.698   4.237
52926W        W25252  14.618  40.763   0.550
52927W        W25253  16.608  20.127  11.732
52928W        W25254  37.517   2.123   5.072
52929W        W25255  44.891  22.944  14.685
52930W        W25256  16.654  16.220   4.531
52931W        W25257   4.412   0.185   0.211
52932W        W25258  13.854  33.511   3.330
52933W        W25259  14.824  24.211  13.585
52934W        W25260   4.712  28.549  13.622
52935W        W25261   8.977  31.386   3.660
52936W        W25262  15.806  23.416  10.307
52937W        W25263  19.524   9.225  14.436
52938W        W25264  11.903  15.237   1.649
52939W        W25265   6.872   4.415   1.424
52940W        W25266  28.447  11.748  12.230
52941W        W25267   2.016  27.660  14.971
52942W        W25268   5.378  14.834  14.935
52943W        W25269   3.621   9.085   0.481
52944W        W25270  17.351  25.473   3.323
52945W        W25271  19.296   9.858   2.309
52946W        W25272  28.772  39.043  12.341
52947W        W25273  11.325  34.790  10.632
52948W        W25274  36.157  25.829  11.633
52949W        W25275  23.155  31.916   3.610
52950W        W25276  22.978   1.118   3.527
52951W        W25277  20.317  21.704   4.341
52952W        W25278  24.490  43.947   1.684
52953W        W25279  18.755   5.809  12.164
52954W        W25280  22.751  16.374   0.494
52955W        W25281  33.349   8.075  11.057
52956W        W25282  25.938  25.920  14.904
52957W        W25283  10.719  16.831  12.400
52958W        W25284   6.701  17.612   2.744
52959W        W25285   0.436  20.443  12.439
52960W        W25286  15.698  10.598  10.918
52961W        W25287  35.430  13.666  12.154
52962W        W25288  33.649  16.740  14.116
52963W        W25289  29.997  43.510   2.198
52964W        W25290  43.499  30.125  13.921
52965W        W25291  22.165  15.189   2.219
52966W        W25292   6.810  12.412   3.274
52967W        W25293  44.431  18.145   0.469
52968W        W25294  31.628  34.394   1.799
52969W        W25295  32.568   2.705  12.068
52970W        W25296  16.865  21.568  12.219
52971W        W25297  32.610   2.463   2.723
52972W        W25298   6.141  26.212   3.742
52973W        W25299   0.719  37.916   2.864
52974W        W25300  16.069  30.543  12.876
52975W        W25301  12.385  38.857   0.254
52976W        W25302  21.651  30.073   0.493
52977W        W25303   5.140  39.389  11.521
52978W        W25304  10.288  39.041  14.340
52979W        W25305   8.662   1.419  14.709
52980W        W25306  27.949  10.819  12.001
52981W        W25307  11.594  39.239   3.125
52982W        W25308   3.514  13.667  14.938
52983W        W25309   3.255  32.076  12.462
52984W        W25310  29.972  25.132   2.237
52985W        W25311  32.965  28.475  14.335
52986W        W25312  32.181  24.926  12.455
52987W        W25313   1.655  39.668   3.336
52988W        W25314  36.692  40.015  11.562
52989W        W25315   9.517   6.885   4.962
52990W        W25316  12.730   5.066  12.611
52991W        W25317  40.366  35.868  14.479
52992W        W25318   7.877  17.903   3.686
52993W        W25319  18.270  30.004  14.009
52994W        W25320  38.984  35.585   0.782
52995W        W25321  23.840  39.363  14.796
52996W        W25322  39.455   3.875   0.078
52997W        W25323  14.318   4.383  10.793
52998W        W25324  40.250  18.286  12.064
52999W        W25325   3.782   3.950   1.939
53000W        W25326  27.473  25.291   2.111
53001W        W25327  23.461  22.782   3.544
53002W        W25328   9.654   1.402  11.437
53003W        W25329  11.233  17.547   4.617
53004W        W25330  37.542  12.910   5.343
53005W        W25331  44.701   8.203  13.279
53006W        W25332  18.173  40.266  11.407
53007W        W25333  18.261  39.336   4.854
53008W        W25334  12.980  17.645   2.665
53009W        W25335   4.321  10.142   0.913
53010W        W25336   2.211  42.266  12.557
53011W        W25337  23.837  14.572  10.151
53012W        W25338  10.360  40.463  10.896
53013W        W25339  37.858   0.461   4.618
53014W        W25340   4.753   3.186  11.173
53015W        W25341  22.094   7.214   3.143
53016W        W25342  43.752  38.476   4.585
53017W        W25343  28.181  31.488  11.140
53018W        W25344   8.588  28.638  14.293
53019W        W25345   4.330  19.856   1.622
53020W        W25346  16.496   1.760   2.227
53021W        W25347  29.934  18.554  13.022
53022W        W25348  41.552  21.192   2.259
53023W        W25349   2.275   0.543   3.086
53024W        W25350  16.177  15.060  12.905
53025W        W25351  18.807  10.315  11.901
53026W        W25352  22.790  27.624  12.862
53027W        W25353  24.920  18.259  14.423
53028W        W25354   9.127  44.048   2.746
53029W        W25355  14.589  26.529  11.179
53030W        W25356  38.839   3.452  11.600
53031W        W25357  15.697  34.391  12.260
53032W        W25358  18.534  36.088   4.029
53033W        W25359  20.496  24.191   0.248
53034W        W25360  25.359  26.691   3.490
53035W        W25361  21.468  40.009  12.500
53036W        W25362  27.007   4.780  12.306
53037W        W25363   4.219  38.774  12.016
53038W        W25364  36.854  15.293  13.847
53039W        W25365  42.854   2.617  11.572
53040W        W25366   5.957  38.273  12.922
53041W        W25367  22.737  24.441   4.166
53042W        W25368  22.581  32.993   1.413
53043W        W25369  19.933  12.625   4.607
53044W        W25370   5.906  14.299   0.454
53045W        W25371  40.271  37.076   4.486
53046W        W25372  12.095  11.201  12.512
53047W        W25373  43.903  30.974   1.448
53048W        W25374  31.527  20.996  14.373
53049W        W25375  42.174  22.737  12.827
53050W        W25376  43.791  35.662   4.300
53051W        W25377  44.028  43.736  13.436
53052W        W25378  44.813  14.318  10.845
53053W        W25379  13.443   5.125  12.954
53054W        W25380  21.880  19.009   2.694
53055W        W25381  29.728  36.347   0.449
53056W        W25382  36.776   8.472   1.764
53057W        W25383   8.856   1.250   4.520
53058W        W25384  24.039  37.978   1.536
53059W        W25385  16.866  28.480  14.925
53060W        W25386  13.842   2.970   0.471
53061W        W25387   5.407  40.094   3.181
53062W        W25388  26.883  21.181  12.694
53063W        W25389  22.441  10.701   0.469
53064W        W25390  20.822  21.087   4.876
53065W        W25391   2.967   8.877  10.591
53066W        W25392  38.430  24.278  12.905
53067W        W25393  13.637  41.013   0.958
53068W        W25394  43.330  29.784   1.862
53069W        W25395  12.208  18.950   0.285
53070W        W25396   1.236  16.751   0.307
53071W        W25397   1.359  23.644   5.589
53072W        W25398   1.338  33.624   2.710
53073W        W25399  28.085  40.347   3.825
53074W        W25400  26.431   2.201  13.592
53075W        W25401   3.300  35.483   4.288
53076W        W25402  35.299  22.763  10.979
53077W        W25403  36.496  10.698  10.592
53078W        W25404  11.642   9.779   2.708
53079W        W25405  44.731  29.856  14.813
53080W        W25406  34.090  20.148  11.271
53081W        W25407  42.299  28.427  11.107
53082W        W25408  26.723  34.953  12.113
53083W        W25409  27.103  15.589  13.336
53084W        W25410  32.037  30.182  13.284
53085W        W25411   6.656  17.314   2.319
53086W        W25412   5.456  21.682  10.534
53087W        W25413  21.182   9.215  14.094
53088W        W25414  33.768  16.259   3.486
53089W        W25415   8.691  19.489  12.741
53090W        W25416   0.793  20.717  11.150
53091W        W25417  44.289  29.273  11.002
53092W        W25418  36.232  15.212   1.674
53093W        W25419   6.832  32.672   2.678
53094W        W25420  13.756  15.024   1.754
53095W        W25421   6.932  11.356   0.891
53096W        W25422  18.843  33.100   2.514
53097W        W25423  37.969  29.099   4.398
53098W        W25424   6.943  24.746  10.921
53099W        W25425   3.426  28.449   1.881
53100W        W25426  44.088  27.645  14.667
53101W        W25427   5.938  33.114   2.249
53102W        W25428  26.202  17.128  14.897
53103W        W25429  18.649   5.947   2.008
53104W        W25430   8.040  39.852  11.215
53105W        W25431  34.050   3.489   2.805
53106W        W25432  30.071  20.840   4.691
53107W        W25433  10.243  29.707  12.962
53108W        W25434  43.377  17.569   2.703
53109W        W25435  44.057  36.012  14.306
53110W        W25436  43.519  36.053   2.775
53111W        W25437  13.854   7.480  11.838
53112W        W25438  21.057   3.691   4.551
53113W        W25439  11.141   4.674   3.995
53114W        W25440  25.663  28.344   0.340
53115W        W25441   5.170  14.783  11.078
53116W        W25442  43.578  23.929  11.158
53117W        W25443  31.155  28.908   3.702
53118W        W25444  14.167   1.718  14.557
53119W        W25445  25.164   7.805  14.896
53120W        W25446  40.437  40.116  12.143
53121W        W25447  40.326  34.937   3.327
53122W        W25448  39.670   9.695  10.605
53123W        W25449  29.936  26.031   1.021
53124W        W25450  35.986   0.149   0.537
53125W        W25451  19.523  32.890   2.595
53126W        W25452  39.982  15.582   3.099
53127W        W25453   2.233  36.563  12.853
53128W        W25454  28.090   3.515  13.128
53129W        W25455   6.734  15.340  10.592
53130W        W25456  22.377  14.260   1.120
53131W        W25457  18.545  10.921   0.515
53132W        W25458  26.007   3.738  14.975
53133W        W25459  13.992  39.499  14.478
53134W        W25460  41.360   7.831  11.010
53135W        W25461  39.907  21.784  14.400
53136W        W25462  18.865  30.012   0.586
53137W        W25463  13.088  36.548  12.335
53138W        W25464   1.479   7.175   4.280
53139W        W25465  21.666  42.839  12.913
53140W        W25466  22.174  44.376   4.601
53141W        W25467  32.660  17.372  11.989
53142W        W25468  33.335  26.952  12.982
53143W        W25469   1.999   9.768  13.078
53144W        W25470  31.095  25.152  14.973
53145W        W25471  23.099  15.567  14.308
53146W        W25472   2.682  18.467   3.719
53147W        W25473  29.388  15.328  13.563
53148W        W25474  31.821  32.041   1.340
53149W        W25475  23.945   3.274  14.446
53150W        W25476   3.373  10.842  10.633
53151W        W25477  28.990  39.122  13.090
53152W        W25478  23.750   5.321  13.597
53153W        W25479  32.055  18.572   0.902
53154W        W25480  39.632  36.472  13.928
53155W        W25481  17.126  19.669   4.054
53156W        W25482  18.926  30.163  11.537
53157W        W25483  26.172  40.102  12.382
53158W        W25484  15.740  21.317  11.740
53159W        W25485   5.692   8.369   2.147
53160W        W25486  14.250  39.457  14.923
53161W        W25487  37.543  23.244  10.638
53162W        W25488  44.902   7.200   0.898
53163W        W25489  37.559  26.652  13.896
53164W        W25490  30.012  22.457  13.360
53165W        W25491  25.013  24.991   1.703
53166W        W25492  12.317  37.580  12.362
53167W        W25493  17.939  10.748  11.012
53168W        W25494  11.703  13.104  14.629
53169W        W25495  43.316   4.482  11.448
53170W        W25496  30.527  32.341  10.424
53171W        W25497  38.537  28.654  14.807
53172W        W25498   0.593  37.647  12.118
53173W        W25499  36.901  35.272  14.868
53174W        W25500   1.689  29.254   4.336
53175W        W25501  28.262  35.499  11.198
53176W        W25502  40.473  31.297   1.360
53177W        W25503  38.520  27.048   2.083
53178W        W25504  11.854  27.968  14.217
53179W        W25505  40.404  20.912   3.588
53180W        W25506   5.379  29.182  12.000
53181W        W25507  31.959  27.064  10.926
53182W        W25508  31.120   6.632  11.503
53183W        W25509   7.134  42.838  14.803
53184W        W25510  14.039  25.950  11.511
53185W        W25511  22.629   0.010  12.666
53186W        W25512   8.400  23.655   4.457
53187W        W25513  30.020  12.559  14.594
53188W        W25514   0.194   1.837  10.717
53189W        W25515  23.035  37.322  13.262
53190W        W25516  19.679   5.887  11.705
53191W        W25517  18.005   2.211   2.174
53192W        W25518   2.179  21.450  12.503
53193W        W25519  26.869  23.222  12.756
53194W        W25520  39.303  22.964   0.713
53195W        W25521  20.552  33.040   0.674
53196W        W25522   8.152  39.080   4.152
53197W        W25523   7.076   3.869  12.446
53198W        W25524   5.176  17.520  10.914
53199W        W25525  37.444   0.909   4.683
53200W        W25526   1.753   6.816   3.135
53201W        W25527  39.488  34.663  11.527
53202W        W25528   4.329  12.345   0.371
53203W        W25529  43.128   8.965  13.477
53204W        W25530  37.178  41.573   3.777
53205W        W25531  29.333  10.617   2.832
53206W        W25532   2.780  34.522   0.510
53207W        W25533  20.688  18.219   1.998
53208W        W25534  44.641   8.676  14.539
53209W        W25535  44.037   4.814   3.738
53210W        W25536  20.820   0.980  12.557
53211W        W25537   6.567  28.534   2.533
53212W        W25538  31.035   3.179  14.256
53213W        W25539   3.553  23.724   4.667
53214W        W25540  34.863  43.178  11.126
53215W        W25541  13.778  24.907   9.748
53216W        W25542   3.019  15.951   5.108
53217W        W25543  36.023   6.266   3.744
53218W        W25544  15.767  13.360  14.528
53219W        W25545   5.394  40.378  14.870
53220W        W25546  23.998   4.731  13.612
53221W        W25547  43.685  22.282  11.247
53222W        W25548  36.924  27.042  10.634
53223W        W25549  36.042  32.070  14.554
53224W        W25550  17.558   3.022   0.302
53225W        W25551   2.256  35.854  10.276
53226W        W25552  32.445  40.608   2.407
53227W        W25553  19.505   1.899   3.154
53228W        W25554  28.364   2.861  14.768
53229W        W25555  12.778  10.349  13.040
53230W        W25556  19.734   4.785  10.635
53231W        W25557   4.849  21.740   1.408
53232W        W25558  34.116  29.748   1.357
53233W        W25559  10.125  24.718  11.874
53234W        W25560  13.648  21.711  11.602
53235W        W25561  18.068  10.189   2.282
53236W        W25562  31.992   0.444   3.901
53237W        W25563  23.102   5.799  14.384
53238W        W25564  37.770  25.520  13.408
53239W        W25565  34.486  28.041  14.345
53240W        W25566  14.666  12.741  12.000
53241W        W25567  15.794  26.996  13.347
53242W        W25568  39.110   1.902   2.124
53243W        W25569  19.592  17.835   0.729
53244W        W25570  36.010  29.907  10.454
53245W        W25571  27.421  37.486   3.753
53246W        W25572  40.788  35.072   3.658
53247W        W25573  32.925  12.778  13.138
53248W        W25574  18.785  36.032  14.043
53249W        W25575  14.819  40.128   3.242
53250W        W25576  39.545  10.893   0.802
53251W        W25577  43.274  43.326  14.897
53252W        W25578  25.526  24.277  11.569
53253W        W25579  44.301   9.904  13.964
53254W        W25580  25.088  35.520  12.847
53255W        W25581  13.916  37.889   3.558
53256W        W25582  11.159   2.663   2.774
53257W        W25583  17.600  37.462  14.830
53258W        W25584  34.214  16.330   3.737
53259W        W25585   5.169   1.451   0.335
53260W        W25586  12.622  13.362   2.256
53261W        W25587  43.882  20.546   1.215
53262W        W25588  11.599  31.032   4.855
53263W        W25589  28.402  11.213  11.119
53264W        W25590  31.499  13.759   0.744
53265W        W25591  39.299  31.158   3.668
53266W        W25592  43.843  26.458  11.870
53267W        W25593   1.023   5.315  13.404
53268W        W25594  22.737  28.953  12.495
53269W        W25595  26.891  37.502   3.795
53270W        W25596  24.751  34.127  14.100
53271W        W25597  22.869  31.573  10.808
53272W        W25598  13.529  17.163   9.760
53273W        W25599  32.964  38.846   2.414
53274W        W25600   1.725  25.031  11.875
53275W        W25601   1.220   8.405  14.924
53276W        W25602  22.736  24.432   3.257
53277W        W25603   7.351  21.589  10.358
53278W        W25604  15.331  36.164   4.254
53279W        W25605  38.286  27.945  12.908
53280W        W25606  31.011  14.997   2.671
53281W        W25607  16.026  10.741   1.927
53282W        W25608  18.067   4.964   4.604
53283W        W25609  23.989  19.269   2.745
53284W        W25610   3.286   0.832  10.613
53285W        W25611   2.473   4.320  12.006
53286W        W25612  35.043  30.925   0.867
53287W        W25613  43.418  40.500   1.650
53288W        W25614  44.547  14.327  12.690
53289W        W25615   9.315  22.501   0.501
53290W        W25616  36.973   5.843  10.715
53291W        W25617  20.558  29.075  10.743
53292W        W25618  19.491   9.372   2.070
53293W        W25619  28.467  41.316  13.159
53294W        W25620   7.883  13.686   4.337
53295W        W25621  21.119  21.471  14.906
53296W        W25622  42.775  33.536  11.070
53297W        W25623   0.517  12.383  12.449
53298W        W25624  13.624  28.861   0.964
53299W        W25625  30.100  17.107   2.641
53300W        W25626   4.283   4.161  13.882
53301W        W25627  30.323  15.181   1.260
53302W        W25628  31.909  25.968   1.773
53303W        W25629  31.705  43.241   3.398
53304W        W25630  10.803  18.729  11.016
53305W        W25631  12.778  42.347   3.939
53306W        W25632  22.045   9.833  13.092
53307W        W25633   9.298  42.331  13.398
53308W        W25634  13.590  35.519  13.295
53309W        W25635  41.023  35.127   0.502
53310W        W25636  40.050  30.579   4.447
53311W        W25637  39.824  43.488   0.975
53312W        W25638   9.970   2.536  10.635
53313W        W25639  25.572  29.186  10.514
53314W        W25640  29.343  42.463   1.249
53315W        W25641  34.050  18.596  11.950
53316W        W25642  38.718   9.431   0.252
53317W        W25643  20.551  11.463   3.401
53318W        W25644  37.321  19.276   2.165
53319W        W25645  13.333  39.008   3.839
53320W        W25646  40.495  24.011  10.698
53321W        W25647   1.905  21.539  11.102
53322W        W25648  42.960  20.072  12.330
53323W        W25649   6.126  13.141   2.767
53324W        W25650   9.310  33.210   0.352
53325W        W25651   3.344  27.038   0.313
53326W        W25652  29.084  43.785  12.938
53327W        W25653  30.328  15.036  13.610
53328W        W25654  15.126  26.115   4.948
53329W        W25655   4.486  25.470  14.015
53330W        W25656  13.869  31.648  11.465
53331W        W25657  25.728  32.605   1.165
53332W        W25658  21.299  15.622   2.619
53333W        W25659   7.879  33.064  10.812
53334W        W25660  29.377  29.321   3.996
53335W        W25661  41.233  38.507  11.008
53336W        W25662  11.183  14.595  11.167
53337W        W25663  18.265   9.430   3.320
53338W        W25664  37.495   5.706   0.811
53339W        W25665  10.869  11.965   0.382
53340W        W25666  32.649  35.481  13.875
53341W        W25667  14.538  31.945   3.186
53342W        W25668  15.767  18.442   3.161
53343W        W25669  11.427  15.301  10.682
53344W        W25670  41.832  12.935  14.623
53345W        W25671  26.999  15.670   4.306
53346W        W25672  20.121  42.946  11.000
53347W        W25673  14.146  31.146   0.241
53348W        W25674  18.497  23.368  11.395
53349W        W25675   2.106   6.309  12.628
53350W        W25676   0.484  34.409  13.349
53351W        W25677  21.249  42.325   2.159
53352W        W25678  44.472   6.137  14.922
53353W        W25679  34.576  41.825   3.852
53354W        W25680  36.645  44.443   0.141
53355W        W25681  11.586  29.111   3.735
53356W        W25682  31.177  21.164   0.570
53357W        W25683  35.071  23.133   1.468
53358W        W25684  32.719   0.947  13.942
53359W        W25685  24.629  24.717  14.924
53360W        W25686  25.068  44.656  13.021
53361W        W25687  21.693   0.750   2.896
53362W        W25688  26.726  13.158  10.713
53363W        W25689  20.583  23.292  11.521
53364W        W25690  34.300  12.841  12.656
53365W        W25691  28.976  40.327   0.962
53366W        W25692  41.803   2.275   0.617
53367W        W25693  40.313  33.136   2.204
53368W        W25694  37.367  36.371  13.020
53369W        W25695   2.841  22.424  13.766
53370W        W25696  20.675  29.715   1.820
53371W        W25697  44.980  22.738   1.429
53372W        W25698   9.957  34.297  12.909
53373W        W25699  30.950   1.325  12.440
53374W        W25700   9.514  25.240   1.994
53375W        W25701  12.760  10.156   0.377
53376W        W25702  42.414  20.143  13.095
53377W        W25703  16.726   3.244   1.700
53378W        W25704  38.655  33.839   0.871
53379W        W25705  41.909   5.833  14.346
53380W        W25706  27.542  17.137  13.402
53381W        W25707  30.179  44.518   1.469
53382W        W25708   9.242  12.203   2.418
53383W        W25709  39.401  23.108  12.155
53384W        W25710  17.818  13.883  12.878
53385W        W25711   0.683   7.136   1.378
53386W        W25712  41.873  24.400   0.371
53387W        W25713   4.058  10.777  11.714
53388W        W25714   7.617   4.254  10.617
53389W        W25715  42.244  20.133   1.744
53390W        W25716  20.552  43.411  13.622
53391W        W25717  38.197  29.552  14.347
53392W        W25718  23.767  41.297   0.303
53393W        W25719   3.221  33.480   2.808
53394W        W25720   5.879   5.072  11.999
53395W        W25721  26.938  16.374  14.475
53396W        W25722   2.138  16.255  11.810
53397W        W25723   5.014   7.907   4.157
53398W        W25724  11.173  30.487  12.541
53399W        W25725  30.144  11.375   0.959
53400W        W25726  18.308   5.870  11.163
53401W        W25727   3.611  27.449   2.716
53402W        W25728  13.434   5.676  13.031
53403W        W25729  35.141  16.456  11.202
53404W        W25730  24.016   8.794  11.598
53405W        W25731   9.292  11.736  11.928
53406W        W25732   9.278  43.152   0.087
53407W        W25733  41.757  16.280   2.829
53408W        W25734  21.479  35.743   4.127
53409W        W25735  43.263  18.675   0.181
53410W        W25736   4.431  36.335   0.016
53411W        W25737  25.463  23.838  12.683
53412W        W25738  16.544   6.316   4.148
53413W        W25739  33.508  28.033  10.784
53414W        W25740  40.281  20.876  14.404
53415W        W25741  34.770  21.747   1.194
53416W        W25742  44.416  20.730  12.939
53417W        W25743  42.358  38.458  13.411
53418W        W25744  34.802  36.904  14.422
53419W        W25745  16.300  16.553  12.866
53420W        W25746  35.041  32.917  12.541
53421W        W25747   7.249  44.524  14.299
53422W        W25748  16.649  31.865   4.705
53423W        W25749  44.723  32.499   3.768
53424W        W25750  25.586  35.589   2.384
53425W        W25751   2.449  30.122  12.587
53426W        W25752  25.727  36.867  13.353
53427W        W25753  25.164  18.461   5.044
53428W        W25754   0.349  25.654   1.852
53429W        W25755   5.298  39.427  11.045
53430W        W25756  33.825  41.520  11.837
53431W        W25757  34.610  44.307   3.682
53432W        W25758  15.641  31.910   3.620
53433W        W25759  25.451  29.450   2.177
53434W        W25760  28.909   4.559  13.471
53435W        W25761   5.456  10.704   4.358
53436W        W25762  34.912  27.101   0.271
53437W        W25763  39.013  19.255   1.530
53438W        W25764  13.841  44.485   4.464
53439W        W25765  17.621   3.323   1.685
53440W        W25766   2.819   6.937  13.760
53441W        W25767  26.114  15.087  14.885
53442W        W25768  31.067  37.113   0.826
53443W        W25769  42.409  22.779  13.339
53444W        W25770  30.850   7.452  12.402
53445W        W25771  36.768  15.374  14.829
53446W        W25772   3.473  18.801   2.981
53447W        W25773  21.465  36.062   3.287
53448W        W25774  40.062  28.808   2.329
53449W        W25775  15.418   8.805   4.041
53450W        W25776  16.131   6.409  12.752
53451W        W25777  19.744  14.190   1.252
53452W        W25778  24.937  11.878  13.815
53453W        W25779  10.454  42.032   1.898
53454W        W25780  28.571  29.571  11.586
53455W        W25781  41.802   8.447  12.936
53456W        W25782  34.477  40.506  14.205
53457W        W25783  12.396  16.912  14.325
53458W        W25784   7.159  39.001   3.242
53459W        W25785  23.183   3.070  14.410
53460W        W25786  17.569   4.726   4.645
53461W        W25787  36.973  38.616   0.618
53462W        W25788  42.854   0.364  14.321
53463W        W25789  17.585  18.658   3.152
53464W        W25790   7.214  19.620  14.492
53465W        W25791  15.374  13.825   2.036
53466W        W25792  43.275  16.730   4.593
53467W        W25793  25.622  18.763   4.825
53468W        W25794  32.258  20.123   4.401
53469W        W25795  39.522  21.699  14.075
53470W        W25796  38.336  39.415  13.905
53471W        W25797  26.697  20.139   0.895
53472W        W25798   0.577   6.815  11.247
53473W        W25799  44.074   6.313  13.974
53474W        W25800  21.048  14.080  14.861
53475W        W25801  36.480  11.515   3.244
53476W        W25802  16.839  17.475  10.972
53477W        W25803  26.625  25.387   0.409
53478W        W25804  38.832  11.338  13.327
53479W        W25805  29.589  16.333  13.320
53480W        W25806   4.799  35.490  14.853
53481W        W25807  42.619  16.726   3.978
53482W        W25808  24.216  27.963   4.110
53483W        W25809  30.199  17.720   1.361
53484W        W25810  32.799   0.225  14.933
53485W        W25811  21.643   3.339  11.611
53486W        W25812  15.657   1.241  14.804
53487W        W25813  30.232  32.451  14.592
53488W        W25814  33.783  26.565  14.816
53489W        W25815  27.520  19.659   0.906
53490W        W25816  19.269  31.997  12.498
53491W        W25817  24.411  18.396   5.606
53492W        W25818  15.709  22.492  12.537
53493W        W25819  40.077   2.139  12.060
53494W        W25820   8.171  27.897   2.843
53495W        W25821   1.907  38.292  12.938
53496W        W25822  42.870   1.682  14.813
53497W        W25823  12.606  44.474   1.887
53498W        W25824  18.711  29.143  12.623
53499W        W25825   6.383  33.524   4.393
53500W        W25826  30.475  34.044  13.083
53501W        W25827  22.150  24.070   2.618
53502W        W25828  33.546  42.504   0.766
53503W        W25829  16.594   2.687   1.385
53504W        W25830   3.735   3.438   1.927
53505W        W25831   8.440  12.352  14.495
53506W        W25832  12.701  17.690  13.570
53507W        W25833  32.211  42.382  11.232
53508W        W25834  42.830  42.954   0.949
53509W        W25835  19.810   7.257  14.897
53510W        W25836  16.966  38.326  11.883
53511W        W25837  30.535   3.492  10.949
53512W        W25838  31.937  24.554  10.510
53513W        W25839  33.319  36.829  14.416
53514W        W25840  37.691  27.694   2.301
53515W        W25841  31.583   8.566  14.934
53516W        W25842  12.840  36.131   1.873
53517W        W25843  35.669  31.693  14.489
53518W        W25844  22.023  26.202   4.442
53519W        W25845  19.629  24.132   4.552
53520W        W25846  35.464  42.294   4.313
53521W        W25847  36.324   4.026   4.249
53522W        W25848  16.894   6.169   0.607
53523W        W25849  18.598  40.512  13.442
53524W        W25850  42.064   6.932  14.816
53525W        W25851   5.239  15.496  11.767
53526W        W25852  13.389   7.313   4.539
53527W        W25853  25.187  39.556   4.573
53528W        W25854  22.734  15.123  10.646
53529W        W25855  14.200   2.870  10.707
53530W        W25856   0.685  25.152  11.914
53531W        W25857  18.857  25.596  14.283
53532W        W25858  41.405  11.351  10.434
53533W        W25859  26.991  44.706  14.279
53534W        W25860   3.877  30.984   2.389
53535W        W25861  12.710  21.595   3.752
53536W        W25862  22.583  42.326   3.110
53537W        W25863  40.365  29.583   3.232
53538W        W25864   6.647  31.406   2.411
53539W        W25865   5.857  13.601   2.939
53540W        W25866  34.966  30.512   0.221
53541W        W25867  18.809  33.887  10.898
53542W        W25868  43.351  26.399  12.120
53543W        W25869   6.914  17.682   1.421
53544W        W25870  31.259  25.124   0.894
53545W        W25871  44.000  23.830   2.674
53546W        W25872   6.477  30.043  14.226
53547W        W25873  39.343  35.590   2.718
53548W        W25874  19.184  29.981   3.706
53549W        W25875  25.130  27.651  11.135
53550W        W25876  32.847   1.267   1.295
53551W        W25877   1.793   3.189  12.918
53552W        W25878  24.872  17.837  11.629
53553W        W25879  42.529   1.998  12.909
53554W        W25880  40.470  39.014  11.254
53555W        W25881  30.049  13.559   2.430
53556W        W25882  18.546  13.204   2.951
53557W        W25883   3.889  25.684  12.617
53558W        W25884  11.237  19.212   3.298
53559W        W25885  10.439  35.521   3.299
53560W        W25886  14.574  40.572   3.284
53561W        W25887  25.828  19.701  12.274
53562W        W25888  33.493  14.369  11.611
53563W        W25889  18.969  24.918   1.028
53564W        W25890  24.910  15.881  11.095
53565W        W25891  43.959  13.917   0.407
53566W        W25892  28.585   2.892   0.760
53567W        W25893  12.152  44.566   4.136
53568W        W25894   1.582  23.239   1.230
53569W        W25895  36.985   6.239  12.048
53570W        W25896   4.416  41.855  10.725
53571W        W25897  11.109  19.055  11.738
53572W        W25898  35.652  22.007   0.360
53573W        W25899  33.625  29.805   1.112
53574W        W25900  42.510  25.646   3.135
53575W        W25901  29.016  29.906  11.522
53576W        W25902   5.531  34.277  10.903
53577W        W25903   9.379  21.182   4.044
53578W        W25904  39.015   4.850   3.131
53579W        W25905   5.164  27.276  11.992
53580W        W25906  33.549  24.441  12.550
53581W        W25907   7.157  11.172   3.723
53582W        W25908   2.739   0.713   3.812
53583W        W25909  36.143  20.636  14.633
53584W        W25910   1.460  13.150   4.799
53585W        W25911  30.518  26.826   3.223
53586W        W25912   0.401  16.244   1.439
53587W        W25913  20.662  13.326  10.523
53588W        W25914  26.343  11.140   4.213
53589W        W25915  23.677   9.397   0.422
53590W        W25916  22.678  29.965  12.249
53591W        W25917  41.662  16.479  11.145
53592W        W25918   7.830   6.092  11.371
53593W        W25919  26.667  27.293  14.011
53594W        W25920  36.528  44.914   0.877
53595W        W25921   6.231  31.055  13.314
53596W        W25922  18.854  22.983   3.597
53597W        W25923  11.314   6.016  11.800
53598W        W25924   0.026   6.363   2.235
53599W        W25925  38.432  12.331  14.240
53600W        W25926  15.648  28.697   3.807
53601W        W25927  12.637   2.020   3.265
53602W        W25928  23.177   5.316   4.461
53603W        W25929  42.367   0.957  14.740
53604W        W25930  15.553  43.747   0.427
53605W        W25931  18.257  44.823   3.851
53606W        W25932  38.059   2.426  13.942
53607W        W25933  24.193  20.522  10.707
53608W        W25934  31.086  28.728  13.602
53609W        W25935   8.122  38.102  11.173
53610W        W25936  40.869  21.244  10.898
53611W        W25937  28.426  27.461   4.083
53612W        W25938  26.542  15.901   3.620
53613W        W25939  26.408  19.221  14.677
53614W        W25940  23.760  30.112   3.844
53615W        W25941  36.610  10.538   3.446
53616W        W25942  20.293  43.914   3.568
53617W        W25943  16.652  24.698   0.855
53618W        W25944  27.656  40.933  13.292
53619W        W25945   3.292   6.872   1.424
53620W        W25946  24.865  16.655  11.069
53621W        W25947  12.848  38.121  14.671
53622W        W25948  23.102   6.787  14.463
53623W        W25949  38.202  26.993   1.225
53624W        W25950  36.091  31.608   3.850
53625W        W25951  38.312  35.675   2.682
53626W        W25952  17.637  44.862   1.207
53627W        W25953  40.959  24.503   3.261
53628W        W25954  13.914  10.629  14.454
53629W        W25955   3.705  43.293   1.648
53630W        W25956  42.227   6.417  13.526
53631W        W25957  22.204   9.179  14.999
53632W        W25958  28.753  43.108  13.432
53633W        W25959  42.107  37.304   1.282
53634W        W25960  21.066  18.558  11.219
53635W        W25961  29.984   5.902   3.779
53636W        W25962  25.352   7.633   1.985
53637W        W25963  10.643  31.443   2.101
53638W        W25964  41.982  15.228  12.832
53639W        W25965  24.743   7.223  14.919
53640W        W25966  13.310  15.101  13.865
53641W        W25967  16.119   7.884  10.833
53642W        W25968  39.007  31.666   2.744
53643W        W25969  36.893  19.240   0.345
53644W        W25970  35.727  33.538   0.548
53645W        W25971   9.850  22.476   1.879
53646W        W25972  40.967  39.256  11.153
53647W        W25973  13.270  14.357   4.739
53648W        W25974   3.327   0.847   4.591
53649W        W25975  44.917  24.812   1.074
53650W        W25976   9.820  12.264   4.657
53651W        W25977  26.844  21.584  11.507
53652W        W25978  24.461  40.456  13.061
53653W        W25979  34.370   8.036   0.699
53654W        W25980  31.917  15.768  10.771
53655W        W25981   6.621  38.484   3.676
53656W        W25982  42.746  25.641  12.918
53657W        W25983  44.142  14.398   0.240
53658W        W25984  25.273  21.175   5.116
53659W        W25985  12.590   2.937   3.728
53660W        W25986  28.577  36.160  11.626
53661W        W25987  25.563  38.740   1.726
53662W        W25988   7.288   5.708  10.905
53663W        W25989  33.943  41.734  13.955
53664W        W25990  28.338  14.116  11.435
53665W        W25991   4.222  19.184   2.359
53666W        W25992  23.688  19.592  14.397
53667W        W25993  36.435   7.771  13.413
53668W        W25994  35.452  20.271   4.357
53669W        W25995  18.209  44.571  13.195
53670W        W25996  20.157   7.213  10.968
53671W        W25997  35.026  18.741  14.544
53672W        W25998  36.268  14.545   2.205
53673W        W25999  37.409  32.557  14.343
53674W        W26000  42.201  39.434   1.196
53675W        W26001  41.157  22.151   2.555
53676W        W26002   3.230  24.572   1.716
53677W        W26003  17.219  21.696   4.022
53678W        W26004   0.608  38.744  11.621
53679W        W26005  14.790  23.530   3.195
53680W        W26006  35.473  28.577  12.583
53681W        W26007  25.456  29.431  13.028
53682W        W26008  20.765   4.191   2.627
53683W        W26009  18.071  16.315  11.951
53684W        W26010  32.894  22.612   1.818
53685W        W26011  30.108  16.084  14.098
53686W        W26012  10.465  13.459  10.850
53687W        W26013   4.369  43.009   2.716
53688W        W26014  40.229  30.015  12.925
53689W        W26015  14.148  38.008   4.031
53690W        W26016  12.700   4.457   1.773
53691W        W26017  24.226  26.484   4.666
53692W        W26018   5.191  28.453   0.655
53693W        W26019  14.266  12.626  13.554
53694W        W26020  37.766   7.264   3.109
53695W        W26021   0.829  16.195   0.523
53696W        W26022  40.353  39.073  12.116
53697W        W26023   4.626  22.773  13.642
53698W        W26024   2.021   2.390  10.759
53699W        W26025  16.416  35.784  13.910
53700W        W26026  24.204   4.787  11.988
53701W        W26027  11.507  10.391   0.944
53702W        W26028  42.099  34.804  10.320
53703W        W26029  37.831   9.049  10.862
53704W        W26030   3.366  42.489   4.253
53705W        W26031  30.805  28.003  12.491
53706W        W26032   8.333  42.072   4.563
53707W        W26033  41.820  29.215  10.666
53708W        W26034  23.167   3.622  11.016
53709W        W26035  30.817  23.212   2.284
53710W        W26036   3.187  40.543  11.657
53711W        W26037  29.469  14.563   2.548
53712W        W26038  12.133  10.399  14.027
53713W        W26039  30.744   0.014  12.084
53714W        W26040  38.107  22.061  13.576
53715W        W26041  22.113  13.134   3.825
53716W        W26042  30.439  14.542   3.831
53717W        W26043  15.872  13.118   2.309
53718W        W26044  31.909   8.256  13.552
53719W        W26045  31.196  44.919  12.362
53720W        W26046   3.376  18.560  14.913
53721W        W26047  29.265  20.819  11.106
53722W        W26048  26.135  19.738   4.304
53723W        W26049  11.725  41.986  12.086
53724W        W26050  30.184  13.163   0.722
53725W        W26051   4.650  34.786   1.232
53726W        W26052  30.213   9.227  13.439
53727W        W26053  29.949  21.187  11.500
53728W        W26054  22.320  14.577   3.855
53729W        W26055  31.284  18.317   1.397
53730W        W26056   0.428   6.672  14.850
53731W        W26057  27.032  43.472   0.767
53732W        W26058  11.419  14.792  11.578
53733W        W26059   8.175  15.594  12.590
53734W        W26060  37.965  36.489  14.726
53735W        W26061  27.700  38.300   1.418
53736W        W26062  41.443  43.417  13.376
53737W        W26063  15.473  26.937  12.042
53738W        W26064  26.980  11.101  12.402
53739W        W26065  31.846  21.017  10.630
53740W        W26066  27.434  30.135   4.722
53741W        W26067  28.071  42.316   2.533
53742W        W26068  14.686  28.835  10.718
53743W        W26069   2.517  14.137  10.616
53744W        W26070   5.036  43.469  10.617
53745W        W26071  27.425  24.928   0.693
53746W        W26072  36.509  31.356  12.001
53747W        W26073   4.879  19.347  13.940
53748W        W26074  23.209  16.398   0.268
53749W        W26075   1.394  41.244   4.862
53750W        W26076   9.881   6.756   4.628
53751W        W26077  33.868  10.677  11.409
53752W        W26078   2.434  12.288   0.252
53753W        W26079  11.288  35.034  11.120
53754W        W26080  38.394  16.134   4.667
53755W        W26081   5.925   0.528   0.481
53756W        W26082  10.212  10.691  10.629
53757W        W26083  19.720  33.014   4.167
53758W        W26084  42.397  15.124  13.594
53759W        W26085  29.475  42.391  14.340
53760W        W26086  11.362  12.950   2.257
53761W        W26087  17.471   1.540   0.922
53762W        W26088  38.408   4.443   2.091
53763W        W26089  34.645  16.252  10.524
53764W        W26090  28.710  28.591  14.132
53765W        W26091  44.344   9.630   2.274
53766W        W26092  40.200   9.308   1.271
53767W        W26093  35.904  10.688  13.543
53768W        W26094   4.403  21.813   3.373
53769W        W26095  11.885   1.819  13.622
53770W        W26096   2.461  30.146   2.849
53771W        W26097  34.434  25.679   2.873
53772W        W26098  41.940  34.490  10.707
53773W        W26099  21.218  36.877  13.023
53774W        W26100  38.080  27.636   3.165
53775W        W26101  12.211  11.713   0.970
53776W        W26102  11.242  41.527  10.703
53777W        W26103  26.855  41.577   2.493
53778W        W26104  42.588   5.209  13.771
53779W        W26105  13.363  14.641  13.053
53780W        W26106  15.311  29.789   4.165
53781W        W26107  33.976  33.983  14.037
53782W        W26108  13.068  33.639  13.936
53783W        W26109  17.320   5.772  11.182
53784W        W26110  19.167  10.325   0.487
53785W        W26111  15.516  38.337   4.859
53786W        W26112  25.737  20.668  10.593
53787W        W26113  29.614  39.845  10.978
53788W        W26114  20.579   2.385   2.690
53789W        W26115  19.184   1.996   0.729
53790W        W26116  40.514   4.215  10.753
53791W        W26117  44.595  25.922  14.802
53792W        W26118  33.652  21.600  14.321
53793W        W26119  25.664  37.326  10.113
53794W        W26120  43.232  42.397   4.181
53795W        W26121   3.245  40.218   2.397
53796W        W26122   3.044  32.667  14.340
53797W        W26123  21.201  25.039   4.633
53798W        W26124  34.759  37.510  13.709
53799W        W26125  29.173  31.425  13.745
53800W        W26126   6.900  38.963   3.697
53801W        W26127  34.011  44.510  12.429
53802W        W26128  16.195  41.294   0.958
53803W        W26129  29.989   3.937  13.802
53804W        W26130  20.670  20.632   4.622
53805W        W26131  28.693   7.344  14.807
53806W        W26132  43.013  20.688   3.156
53807W        W26133  41.456  31.511  14.969
53808W        W26134  29.823  28.646  12.866
53809W        W26135  28.818  41.083  10.345
53810W        W26136  11.391  24.771   0.962
53811W        W26137  37.533  38.138  12.067
53812W        W26138  21.245  25.005  12.117
53813W        W26139  28.116  15.890   1.070
53814W        W26140  35.552   7.261   0.835
53815W        W26141  31.951  10.541   4.648
53816W        W26142  23.661  40.789  10.980
53817W        W26143  29.041  42.725   4.262
53818W        W26144  42.635  30.491  11.887
53819W        W26145  36.692  44.689  12.053
53820W        W26146  32.003  15.599  11.246
53821W        W26147  13.290  15.717   0.098
53822W        W26148   3.296  39.823  14.922
53823W        W26149  41.935  14.314   2.455
53824W        W26150   5.822  41.315   2.619
53825W        W26151  43.999  26.174  10.551
53826W        W26152  33.930   3.317   0.390
53827W        W26153  15.160   2.842   2.792
53828W        W26154   0.839  22.971  10.683
53829W        W26155  19.649  16.171  14.310
53830W        W26156  39.943  22.724   3.586
53831W        W26157  42.961  28.914   4.697
53832W        W26158  25.121  38.578  11.205
53833W        W26159   1.331  22.274   4.927
53834W        W26160   9.473   0.277   0.034
53835W        W26161  10.669  39.747  10.463
53836W        W26162  42.067   0.391   2.336
53837W        W26163   9.372  21.653   2.818
53838W        W26164  34.095  32.816   5.074
53839W        W26165  12.387  34.700   4.130
53840W        W26166  14.673  30.085  12.463
53841W        W26167  44.757   4.651  11.730
53842W        W26168  19.998  44.813  13.466
53843W        W26169  42.962  29.109  11.242
53844W        W26170  29.978  11.087   3.408
53845W        W26171  13.227  44.980   3.920
53846W        W26172  30.984  38.340   2.869
53847W        W26173  17.580  16.356   4.375
53848W        W26174  36.985  12.381  10.117
53849W        W26175  25.527  11.242  13.506
53850W        W26176  28.957   8.181   4.150
53851W        W26177  20.551  18.758   0.765
53852W        W26178  38.358  15.207   4.634
53853W        W26179  13.470  15.739   2.425
53854W        W26180  20.429  13.266   3.128
53855W        W26181  10.704  33.179   3.340
53856W        W26182  39.961  21.645   2.772
53857W        W26183  16.452  37.506  12.875
53858W        W26184  11.427   3.280  11.989
53859W        W26185  22.151  27.512  14.337
53860W        W26186  10.189  12.322   2.886
53861W        W26187  25.425  29.450   4.581
53862W        W26188  22.684  43.443   2.828
53863W        W26189   1.198  35.909  11.976
53864W        W26190  23.000  43.409  13.606
53865W        W26191   1.303   2.224   1.400
53866W        W26192   0.869  20.631  10.648
53867W        W26193  25.455  13.878   2.399
53868W        W26194   6.568  22.660  10.267
53869W        W26195  23.266  29.085  10.548
53870W        W26196  15.174  22.584   2.195
53871W        W26197  33.007   0.110  14.354
53872W        W26198  24.751  20.021   1.735
53873W        W26199  34.044  25.729   2.306
53874W        W26200   8.979  21.129  10.560
53875W        W26201  25.775  25.025   1.163
53876W        W26202  25.049   0.614  13.972
53877W        W26203  31.621  30.779   2.542
53878W        W26204  10.837  14.254   3.294
53879W        W26205  14.642  26.435  12.577
53880W        W26206  41.325  22.270   3.618
53881W        W26207  17.306  44.360   3.204
53882W        W26208  40.982  16.797   2.484
53883W        W26209  41.318  35.221   3.735
53884W        W26210  38.101  21.063  13.911
53885W        W26211   4.911  15.731   0.228
53886W        W26212  24.612   9.365  14.593
53887W        W26213   5.834   4.799  13.023
53888W        W26214  11.117  29.553   0.276
53889W        W26215   8.722  28.797   0.752
53890W        W26216  40.093  36.800  12.529
53891W        W26217  35.047  18.786   0.818
53892W        W26218  29.437  41.314   1.977
53893W        W26219  14.414  44.824  10.754
53894W        W26220  10.863  27.459   1.439
53895W        W26221  12.571  30.239  11.971
53896W        W26222  18.073   3.309   1.433
53897W        W26223  29.686  39.920  12.436
53898W        W26224  25.588  33.543  13.365
53899W        W26225  36.984  23.806  12.469
53900W        W26226  17.748  42.659   1.537
53901W        W26227   0.313   6.656  10.826
53902W        W26228  23.460  34.495  13.446
53903W        W26229  16.187  28.628  11.633
53904W        W26230  33.852  12.427   1.865
53905W        W26231  23.180  16.849  14.488
53906W        W26232  36.944  24.294   4.271
53907W        W26233  14.938  38.386  14.409
53908W        W26234  21.454  23.162   0.932
53909W        W26235  33.618  12.173   2.371
53910W        W26236  17.182   0.213  14.491
53911W        W26237  35.946  14.190  12.852
53912W        W26238  39.150   3.126  10.260
53913W        W26239  31.769  15.789   5.033
53914W        W26240  27.172  29.028   2.799
53915W        W26241  13.266  44.704  13.379
53916W        W26242  13.798  26.452  10.625
53917W        W26243  34.821  19.343  13.355
53918W        W26244   6.757   0.899  11.375
53919W        W26245  33.025  18.249  12.815
53920W        W26246  18.028   9.567   1.316
53921W        W26247  31.665  39.510  12.081
53922W        W26248  23.794  21.035   3.670
53923W        W26249   2.420   8.099  11.619
53924W        W26250  28.967  27.271   1.320
53925W        W26251   4.860   7.634  12.879
53926W        W26252   6.998   7.892   1.356
53927W        W26253   7.325  25.215   3.649
53928W        W26254  27.457   4.814  14.508
53929W        W26255  40.656  23.513   3.663
53930W        W26256   4.650  17.080   3.373
53931W        W26257   9.712   2.735   1.312
53932W        W26258  33.523   1.919   4.107
53933W        W26259  42.891  28.309  13.090
53934W        W26260   3.931  30.892  11.481
53935W        W26261  35.883  43.929   2.122
53936W        W26262   0.724   8.092   0.324
53937W        W26263  43.834   4.742  11.625
53938W        W26264  24.164  35.418  10.598
53939W        W26265  28.077  19.345   2.943
53940W        W26266  17.481  24.239   1.764
53941W        W26267   8.632  43.544   4.141
53942W        W26268  30.587  31.209  14.683
53943W        W26269  22.319   3.938   3.625
53944W        W26270   4.670  13.735  12.044
53945W        W26271  30.739  32.026   3.821
53946W        W26272  29.373  33.594  14.911
53947W        W26273  33.111   8.060   1.249
53948W        W26274  38.081  31.491  13.201
53949W        W26275   5.304  23.878  14.832
53950W        W26276  13.225  25.669  13.552
53951W        W26277   2.307  35.465  14.255
53952W        W26278  12.216  32.970  12.002
53953W        W26279  23.201  16.297   3.127
53954W        W26280  31.185  38.749  10.158
53955W        W26281  43.896  32.456   2.242
53956W        W26282  42.807  38.639   4.601
53957W        W26283   6.511  30.689   2.307
53958W        W26284  18.580  32.440   3.276
53959W        W26285  30.590  15.422   5.059
53960W        W26286  24.876  19.768   0.847
53961W        W26287   9.346  29.009  11.078
53962W        W26288  36.210   6.338   1.699
53963W        W26289  43.881  40.096  12.463
53964W        W26290  31.704  43.801   4.126
53965W        W26291   7.792  41.891  14.002
53966W        W26292  44.041  31.861  11.948
53967W        W26293  22.674  36.058  10.798
53968W        W26294  25.620   4.286   3.627
53969W        W26295  37.411   1.264  12.916
53970W        W26296   6.242  33.675  10.718
53971W        W26297  16.782   2.972   0.969
53972W        W26298  37.626  11.970  13.832
53973W        W26299  17.957  43.027   4.211
53974W        W26300  29.035  23.259  14.759
53975W        W26301  24.316   7.505   4.986
53976W        W26302  30.135  39.113  12.331
53977W        W26303  23.557  27.886  10.734
53978W        W26304  44.278   0.613   0.358
53979W        W26305  27.927  22.086  12.763
53980W        W26306  22.912  33.726  13.478
53981W        W26307   4.254   7.647  14.196
53982W        W26308   4.344  33.288   2.406
53983W        W26309  40.719  42.821   3.608
53984W        W26310  32.678  21.641   1.371
53985W        W26311  23.693   9.806  12.595
53986W        W26312  28.215   2.294   0.027
53987W        W26313   9.917  42.392   0.282
53988W        W26314  39.445  24.902  13.271
53989W        W26315  13.279  23.602   0.816
53990W        W26316  17.631  38.810   0.435
53991W        W26317  12.384  35.236   3.261
53992W        W26318  24.841   9.204  11.614
53993W        W26319   2.672  23.715  11.630
53994W        W26320  34.470  39.353  10.850
53995W        W26321   1.865  32.577   0.932
53996W        W26322  44.805  40.594  13.918
53997W        W26323   0.035   2.236   2.375
53998W        W26324  22.245  36.899   2.195
53999W        W26325  30.624   0.783   0.571
54000W        W26326  35.102  12.632  11.589
54001W        W26327  29.086  27.658   3.173
54002W        W26328   7.326  23.619  12.364
54003W        W26329   8.728  27.717   0.152
54004W        W26330  44.325  18.332   0.950
54005W        W26331   0.546   6.286  11.124
54006W        W26332  27.639   3.296  13.344
54007W        W26333  43.580   2.638   1.894
54008W        W26334  41.042   9.833   2.912
54009W        W26335  13.800  15.551  12.775
54010W        W26336  16.327  17.571   0.837
54011W        W26337  36.585  19.473   2.604
54012W        W26338  28.509  13.098  13.408
54013W        W26339  32.868  26.211   4.173
54014W        W26340  27.182   0.362  10.968
54015W        W26341  36.367   1.712   3.308
54016W        W26342  25.739   9.823   3.421
54017W        W26343   6.794   9.690  11.110
54018W        W26344  34.892  25.385   4.155
54019W        W26345  15.055  27.670  14.956
54020W        W26346  14.900  19.338   1.886
54021W        W26347  21.286   9.247  14.939
54022W        W26348   7.842  11.942  14.325
54023W        W26349  33.601  17.698  11.090
54024W        W26350   6.400  39.117  11.982
54025W        W26351  24.603  24.738   0.950
54026W        W26352  16.320  19.122   3.230
54027W        W26353   7.086   7.627  12.049
54028W        W26354  41.259   0.079   4.183
54029W        W26355  40.681  31.098  14.862
54030W        W26356  15.304  12.670   4.375
54031W        W26357  10.870  35.137   0.769
54032W        W26358  10.154  28.194   1.558
54033W        W26359  33.167  10.863   4.529
54034W        W26360  43.251  38.525  11.886
54035W        W26361  21.831  24.487   2.416
54036W        W26362  28.133  10.624  13.034
54037W        W26363  18.971  40.830   3.838
54038W        W26364   1.948   9.518   1.408
54039W        W26365   7.626  25.477  14.018
54040W        W26366  20.954   4.032   1.839
54041W        W26367  21.128  33.315   1.329
54042W        W26368  42.290  32.008  14.793
54043W        W26369  15.402  11.474  11.908
54044W        W26370   3.192  11.437   1.910
54045W        W26371  16.359  28.275  11.295
54046W        W26372   3.439  14.261   2.928
54047W        W26373  27.910  22.168   0.251
54048W        W26374  20.333   6.319   3.954
54049W        W26375  11.712  14.735   3.750
54050W        W26376  42.175   1.379  12.003
54051W        W26377  19.461  25.115  12.419
54052W        W26378   6.324  20.548   4.196
54053W        W26379  37.970   3.448   2.585
54054W        W26380  32.615  31.390  12.389
54055W        W26381  40.284  24.550   2.178
54056W        W26382  30.408  16.245   1.238
54057W        W26383  28.952   0.248  14.361
54058W        W26384  29.976  32.535  11.786
54059W        W26385  20.595  36.560  12.081
54060W        W26386   8.852  39.125  14.239
54061W        W26387  32.676   7.363   0.733
54062W        W26388  13.291  19.733   4.118
54063W        W26389  14.788   2.751  14.981
54064W        W26390  21.160  32.333   1.471
54065W        W26391  44.331  29.542   3.928
54066W        W26392  42.558  15.338  11.528
54067W        W26393  41.402  40.332   2.775
54068W        W26394  33.207  33.897  10.615
54069W        W26395   0.914   6.422  14.923
54070W        W26396  12.536  10.325   0.847
54071W        W26397  29.901  42.227   2.773
54072W        W26398   4.813  42.374   1.459
54073W        W26399   8.882  26.204   0.066
54074W        W26400  18.211   8.963  11.074
54075W        W26401  31.451  39.392   1.946
54076W        W26402  35.082   3.040  11.059
54077W        W26403  12.657  13.927   1.913
54078W        W26404  30.866  43.095  14.837
54079W        W26405   4.264  30.120   0.063
54080W        W26406  21.256   6.909   1.425
54081W        W26407  24.406  34.442  12.537
54082W        W26408   8.873   2.327   0.705
54083W        W26409  24.561   3.687  13.485
54084W        W26410  22.596  16.208   0.959
54085W        W26411  18.343  26.126   1.700
54086W        W26412  17.195  37.517  12.666
54087W        W26413  11.265  20.413   2.655
54088W        W26414  37.940  21.639   0.265
54089W        W26415   3.288  27.406   4.489
54090W        W26416  42.502  34.909  11.234
54091W        W26417  25.944  21.686   1.291
54092W        W26418  39.578   6.765   3.691
54093W        W26419  41.579  43.813   2.019
54094W        W26420  31.945  34.267   3.335
54095W        W26421  26.452  35.236   4.631
54096W        W26422   4.306  18.036   1.374
54097W        W26423  12.182  44.266  14.991
54098W        W26424  39.950  43.709  12.555
54099W        W26425  18.596  42.534   3.834
54100W        W26426  20.147   6.853  14.963
54101W        W26427  27.427  25.674  13.012
54102W        W26428   7.931   8.750   2.273
54103W        W26429   6.913  10.657   4.349
54104W        W26430  31.140   3.317   4.099
54105W        W26431  18.829  44.881  13.894
54106W        W26432   7.419   8.206  12.480
54107W        W26433  29.013  40.352  10.679
54108W        W26434  10.876  14.570   2.515
54109W        W26435  20.170  38.991  14.341
54110W        W26436   6.543  21.359  11.159
54111W        W26437  10.528  18.506   3.305
54112W        W26438  19.466   0.275   9.978
54113W        W26439  21.191  37.026  14.493
54114W        W26440  12.165  22.951   1.838
54115W        W26441  25.513  35.934  14.888
54116W        W26442  18.477  41.530   4.623
54117W        W26443  22.074  27.206  12.381
54118W        W26444  30.623  36.050  13.820
54119W        W26445  19.708  29.439   1.737
54120W        W26446  21.842  37.407   9.708
54121W        W26447  36.976   6.061   3.425
54122W        W26448  37.121  27.689  12.401
54123W        W26449  42.022  31.637   1.352
54124W        W26450   4.494  26.095  12.501
54125W        W26451  11.568  14.227   3.798
54126W        W26452  11.253  40.561  14.332
54127W        W26453   1.875  32.111  12.789
54128W        W26454  44.766   2.756   1.101
54129W        W26455  39.084  25.684  12.462
54130W        W26456  43.086  29.695   2.792
54131W        W26457   0.225  29.698   3.880
54132W        W26458  11.319  16.514   4.729
54133W        W26459  13.021  27.088  12.789
54134W        W26460  34.486  28.122   3.744
54135W        W26461  29.904  14.757  14.496
54136W        W26462  33.213  16.335   4.188
54137W        W26463  34.424  33.308  11.077
54138W        W26464  35.840  33.573   0.029
54139W        W26465  40.271  41.048   3.260
54140W        W26466   2.365   5.673   2.278
54141W        W26467  10.265  43.232   4.526
54142W        W26468  20.980   9.191   2.738
54143W        W26469  39.943  29.247   3.251
54144W        W26470  41.489  15.575   1.262
54145W        W26471  42.833  38.345   4.096
54146W        W26472  32.048  24.658   1.522
54147W        W26473  15.233  26.091   0.723
54148W        W26474   1.301  37.451   0.428
54149W        W26475  27.157   1.275   1.485
54150W        W26476  13.061   8.788   0.738
54151W        W26477  22.486  17.977   1.462
54152W        W26478  40.909  44.409   0.997
54153W        W26479  40.364   8.519   1.433
54154W        W26480   6.725  41.228  12.908
54155W        W26481  15.573  17.985  11.532
54156W        W26482  29.132  31.889  13.970
54157W        W26483  15.021  41.540  10.688
54158W        W26484  33.922  14.400   0.788
54159W        W26485  10.385  23.505   1.236
54160W        W26486  22.111  27.682  12.093
54161W        W26487  26.598  27.662   9.878
54162W        W26488  29.307  22.884  11.090
54163W        W26489  38.829   3.957  11.643
54164W        W26490  27.028  36.046   1.749
54165W        W26491  36.024  14.361   0.915
54166W        W26492  19.882  27.197   2.423
54167W        W26493  27.721  16.717   1.319
54168W        W26494  30.340  16.624   4.691
54169W        W26495  26.768  14.135   4.617
54170W        W26496   4.970  36.664   0.583
54171W        W26497  36.620  43.043  13.848
54172W        W26498  43.389  23.690  11.563
54173W        W26499   0.521   6.802  13.418
54174W        W26500  28.301  41.438   0.299
54175W        W26501  32.556  43.392  14.534
54176W        W26502  10.418   4.374   1.918
54177W        W26503  31.859   6.023   4.579
54178W        W26504  12.281  27.037  10.728
54179W        W26505  24.740  12.306  11.629
54180W        W26506  15.785  39.737   0.494
54181W        W26507  14.841  15.209  13.807
54182W        W26508   5.284  22.712   1.867
54183W        W26509   7.396  39.037   1.309
54184W        W26510  26.953   4.468   2.752
54185W        W26511  17.661  24.129  12.835
54186W        W26512  27.690  26.044  11.939
54187W        W26513  38.350  25.715  11.059
54188W        W26514  13.699  30.523  13.548
54189W        W26515  33.541  25.685   2.924
54190W        W26516   0.283  22.039  12.351
54191W        W26517   8.085  19.981   2.323
54192W        W26518  28.272   4.260  11.051
54193W        W26519   3.403  38.876  11.430
54194W        W26520  16.810  42.387   4.687
54195W        W26521   6.625   4.901  11.159
54196W        W26522  35.721   1.378   1.798
54197W        W26523   3.418  22.424  13.030
54198W        W26524  10.912  26.030  11.472
54199W        W26525  21.120  43.320  12.421
54200W        W26526  32.147  41.485  12.450
54201W        W26527  18.175  25.726   1.289
54202W        W26528   5.720  32.472   3.079
54203W        W26529  40.372  12.258  10.614
54204W        W26530   6.282  40.126  11.995
54205W        W26531   3.210  10.060  13.343
54206W        W26532   9.958  11.618  14.962
54207W        W26533  38.210   5.083  10.218
54208W        W26534   2.357  38.999   5.050
54209W        W26535  18.227  42.804   1.266
54210W        W26536   8.229  17.875  13.845
54211W        W26537   7.997   1.221  12.106
54212W        W26538   3.855  29.361  11.605
54213W        W26539  24.468   8.192  12.112
54214W        W26540  27.170  19.142  12.971
54215W        W26541  14.310  24.283  10.547
54216W        W26542  16.947  41.995   4.097
54217W        W26543  19.496  30.950  10.520
54218W        W26544  39.373  27.655   3.701
54219W        W26545   6.285  31.191   0.661
54220W        W26546  28.156  29.469  13.684
54221W        W26547  26.379   8.028   3.611
54222W        W26548  30.976  14.350   4.080
54223W        W26549  14.717  30.606  12.493
54224W        W26550   1.397   0.540  14.906
54225W        W26551  26.114  13.645  12.888
54226W        W26552  12.311  28.828  12.972
54227W        W26553   3.451  12.070   1.348
54228W        W26554  40.476  22.771  13.131
54229W        W26555   8.363   2.060  13.451
54230W        W26556  31.625  14.317  12.493
54231W        W26557  15.843  33.500   2.753
54232W        W26558  37.938   9.617   1.707
54233W        W26559  12.775  22.320  12.019
54234W        W26560  17.000  11.345   3.970
54235W        W26561  20.542  27.080  11.596
54236W        W26562  40.205  32.915  11.498
54237W        W26563  28.612  18.516  10.278
54238W        W26564   8.905  19.112   2.262
54239W        W26565  34.397  43.880   1.125
54240W        W26566  24.664  17.891   1.739
54241W        W26567   0.717   2.137   0.631
54242W        W26568  40.313  16.358  12.332
54243W        W26569   6.775   0.989  10.378
54244W        W26570  33.377   8.816   0.428
54245W        W26571  27.426  24.092   2.839
54246W        W26572  19.090  35.613  14.017
54247W        W26573  10.053  24.754  10.427
54248W        W26574  32.109   6.905  12.363
54249W        W26575  19.754  15.636   0.475
54250W        W26576  27.414  39.476  12.448
54251W        W26577  14.725   0.729   0.725
54252W        W26578  38.849  37.620  13.489
54253W        W26579   9.359   3.530   1.417
54254W        W26580  41.422  30.697   4.165
54255W        W26581   3.883  38.943  11.665
54256W        W26582  32.584  14.078   3.428
54257W        W26583  18.131  23.128   1.902
54258W        W26584   6.520  17.387  11.139
54259W        W26585   9.724  40.870  10.600
54260W        W26586  43.798  15.555  10.532
54261W        W26587  42.416  13.035   3.010
54262W        W26588  32.509  31.260   0.794
54263W        W26589  20.180   0.991   0.414
54264W        W26590  18.301   4.387   2.728
54265W        W26591  29.190   9.155  13.326
54266W        W26592  22.038  32.942   3.725
54267W        W26593   5.334  39.623   3.400
54268W        W26594   7.192  16.517  13.009
54269W        W26595  31.129  19.354   2.404
54270W        W26596  37.516  19.772  11.162
54271W        W26597  28.214  17.701   2.350
54272W        W26598  35.125  31.880   3.653
54273W        W26599  35.992  15.186  10.687
54274W        W26600  12.213  10.091   2.561
54275W        W26601  31.860  42.835   1.380
54276W        W26602  27.415  24.647   1.472
54277W        W26603  38.808  21.181   0.305
54278W        W26604  27.555  12.644   2.397
54279W        W26605  10.573  13.634   4.737
54280W        W26606  29.164  43.783   3.954
54281W        W26607   9.735  33.852   4.100
54282W        W26608  15.728  41.000   0.821
54283W        W26609  15.723  29.313  10.652
54284W        W26610  42.946  25.933  14.237
54285W        W26611  26.483  38.930  13.621
54286W        W26612  22.738  36.890  12.068
54287W        W26613  34.043  15.625   2.669
54288W        W26614   9.268  33.211   4.255
54289W        W26615  11.669  42.408   3.907
54290W        W26616  19.747   8.285  12.059
54291W        W26617  19.334  28.788  13.989
54292W        W26618   9.809  38.576  12.073
54293W        W26619  43.435   8.859  12.135
54294W        W26620   9.087  10.637  12.614
54295W        W26621   6.877  12.748   4.709
54296W        W26622  32.416   2.323  14.407
54297W        W26623   4.433   8.046  11.477
54298W        W26624  44.262  35.562  10.514
54299W        W26625  15.344  38.147   0.766
54300W        W26626  12.777  41.324  11.648
54301W        W26627  21.925   2.369  12.451
54302W        W26628   5.117   9.867   4.024
54303W        W26629  27.499  27.044   4.787
54304W        W26630  23.405  25.107   3.581
54305W        W26631   9.515  25.469   1.503
54306W        W26632  19.475   2.407  13.282
54307W        W26633  22.575  33.543   3.280
54308W        W26634   8.795  41.533   4.124
54309W        W26635   8.688   1.961  14.700
54310W        W26636  10.963  40.337  11.114
54311W        W26637  23.039  28.604  10.728
54312W        W26638  22.774  40.283  11.145
54313W        W26639  21.159  39.622   2.753
54314W        W26640  42.090  17.718   1.800
54315W        W26641  24.044  11.842  12.948
54316W        W26642  18.469  13.048  14.449
54317W        W26643  16.191  33.366  14.060
54318W        W26644   2.895  28.660  11.039
54319W        W26645  32.279  32.944  14.832
54320W        W26646  41.205  15.136   1.402
54321W        W26647  20.331  39.320  12.493
54322W        W26648  44.320  21.731  11.081
54323W        W26649  10.814  36.822   1.864
54324W        W26650  18.701  41.798  12.953
54325W        W26651  28.429   5.331  12.420
54326W        W26652  25.625  42.036   4.564
54327W        W26653  26.076  12.651   0.054
54328W        W26654  33.688  24.054  11.419
54329W        W26655  18.147  30.995  13.427
54330W        W26656   3.306  38.953   0.986
54331W        W26657  39.598  20.167  12.544
54332W        W26658  24.451   1.779   0.344
54333W        W26659  25.063   3.764   0.760
54334W        W26660  11.588  44.339   0.854
54335W        W26661   2.323  15.627   2.236
54336W        W26662  32.658  22.130  12.224
54337W        W26663   7.198  36.985  12.640
54338W        W26664  10.242  29.606   2.553
54339W        W26665  25.321   4.681  12.432
54340W        W26666  22.292  43.255  13.817
54341W        W26667  18.572  17.517   2.884
54342W        W26668  34.904  23.037   0.497
54343W        W26669   6.736  41.742  13.040
54344W        W26670  22.051   1.239  14.496
54345W        W26671   1.397  42.828   4.554
54346W        W26672   9.115   9.308  10.730
54347W        W26673  36.376  30.033   1.502
54348W        W26674  16.590  37.061  12.590
54349W        W26675   3.362   2.683   4.298
54350W        W26676  44.045  44.622  12.237
54351W        W26677   2.772   0.985  10.397
54352W        W26678   9.474  15.811  13.152
54353W        W26679  13.687  11.414   0.577
54354W        W26680  42.522   9.244   1.750
54355W        W26681  29.179  22.311   5.015
54356W        W26682  43.654  43.219   3.202
54357W        W26683  40.682  23.128  13.445
54358W        W26684  34.780   4.781  11.192
54359W        W26685  17.800  23.387   3.677
54360W        W26686  39.805  27.018   1.774
54361W        W26687   2.427   9.913  14.519
54362W        W26688  41.951   4.422   4.114
54363W        W26689  40.436  17.724  14.478
54364W        W26690  28.497  40.020   3.741
54365W        W26691  17.023   8.160   1.403
54366W        W26692  17.815  10.199   0.741
54367W        W26693  32.534  34.907   1.637
54368W        W26694   1.818  33.465  14.197
54369W        W26695  36.632   0.033  13.790
54370W        W26696  29.527  42.760   3.748
54371W        W26697   0.947  39.294  12.460
54372W        W26698  34.480  22.714  14.204
54373W        W26699  31.474   8.863   4.274
54374W        W26700  11.684  39.068   3.653
54375W        W26701  16.638  40.424   3.187
54376W        W26702  32.242   6.790   3.671
54377W        W26703  10.929  30.461   2.331
54378W        W26704  27.206  15.706   0.485
54379W        W26705  39.968   5.486  14.144
54380W        W26706   8.312   7.497  10.468
54381W        W26707  43.717  15.619  14.783
54382W        W26708  11.749   8.380   0.869
54383W        W26709  41.400  15.843  11.885
54384W        W26710  24.574  28.453  14.266
54385W        W26711  26.440  30.007  12.150
54386W        W26712   8.078   4.405  10.303
54387W        W26713  24.452  10.285   4.202
54388W        W26714  20.546   6.194  14.033
54389W        W26715  25.672  34.082   2.794
54390W        W26716   5.059   6.557  11.172
54391W        W26717  36.783   1.042  11.882
54392W        W26718  14.198   6.777   4.693
54393W        W26719   7.289  16.482  12.501
54394W        W26720  22.457   1.848  11.068
54395W        W26721  19.415   0.857   1.444
54396W        W26722  38.363  43.472  12.452
54397W        W26723  18.233  30.582  13.772
54398W        W26724  12.595  19.476   4.722
54399W        W26725  38.625  21.090  13.920
54400W        W26726  33.900  13.711  11.976
54401W        W26727  35.933   2.911  13.039
54402W        W26728  28.773  31.973   2.856
54403W        W26729   7.790   1.305   2.960
54404W        W26730   1.739   0.500   1.410
54405W        W26731  15.297  31.783   4.492
54406W        W26732   2.039  42.292  11.092
54407W        W26733  23.135  43.327   2.446
54408W        W26734  11.693  44.922   3.389
54409W        W26735  27.416  30.649   4.709
54410W        W26736  14.063  34.602   5.003
54411W        W26737  12.689  22.103   4.572
54412W        W26738  33.351   0.304  14.786
54413W        W26739  10.976  25.924   5.040
54414W        W26740  23.292   7.179  13.382
54415W        W26741  39.113  11.770   4.125
54416W        W26742  28.660  19.247   4.761
54417W        W26743   7.917  23.491   2.672
54418W        W26744   1.321  36.804  12.869
54419W        W26745  41.791  26.736  14.950
54420W        W26746   0.361  31.487   1.135
54421W        W26747  19.273  11.387  11.202
54422W        W26748  14.655  43.741   2.490
54423W        W26749  40.096  32.397   1.992
54424W        W26750  29.153   0.973   0.738
54425W        W26751   1.477  37.953  12.499
54426W        W26752  39.847   4.636   1.744
54427W        W26753   8.278  11.627   0.935
54428W        W26754  38.956  11.612  12.409
54429W        W26755  15.738  16.655   4.502
54430W        W26756   4.637  27.077   1.973
54431W        W26757  31.291  11.909  14.823
54432W        W26758  29.220  26.041  12.084
54433W        W26759  23.105  32.973  12.972
54434W        W26760  22.170  26.427  12.883
54435W        W26761  35.282  19.493  13.483
54436W        W26762  44.413  36.282   3.992
54437W        W26763  22.683   4.309   1.691
54438W        W26764  16.350  18.161  13.958
54439W        W26765  26.162  41.809   1.403
54440W        W26766  44.292  17.692   4.612
54441W        W26767   3.572  14.104   5.101
54442W        W26768   9.871  22.809  12.028
54443W        W26769   1.249   6.898   3.150
54444W        W26770  11.224   8.387  12.845
54445W        W26771  36.293  38.775  13.470
54446W        W26772  12.346   8.712   4.255
54447W        W26773  36.832  21.969  11.252
54448W        W26774  23.985  35.451  12.118
54449W        W26775   4.716   2.812  13.901
54450W        W26776  16.378  43.455   4.724
54451W        W26777  20.749  14.588   4.146
54452W        W26778  43.978  10.272   3.830
54453W        W26779  41.694  26.078   2.201
54454W        W26780  43.968  36.534   3.452
54455W        W26781  22.247  18.588   0.829
54456W        W26782  31.419   1.722  10.989
54457W        W26783  37.689   6.396  11.632
54458W        W26784  23.099  32.064   0.497
54459W        W26785  42.437  41.508   1.937
54460W        W26786   0.005  44.556   1.866
54461W        W26787  37.796  33.386  14.454
54462W        W26788   2.854  14.500  11.829
54463W        W26789   8.296  15.388  13.446
54464W        W26790  24.419  28.150   2.112
54465W        W26791  35.550  18.945   0.844
54466W        W26792  39.065  29.968  12.133
54467W        W26793  11.281  18.082   4.628
54468W        W26794  11.257  14.308   1.485
54469W        W26795  24.699  24.713   3.691
54470W        W26796  28.367  21.490  10.690
54471W        W26797  32.301  35.362   0.255
54472W        W26798   5.615  38.378  12.515
54473W        W26799  32.941  37.183   0.778
54474W        W26800  20.800  22.581  10.736
54475W        W26801  11.765   5.000   3.093
54476W        W26802  36.672   6.263   3.782
54477W        W26803  13.077  12.677   2.734
54478W        W26804  16.642  27.587   0.480
54479W        W26805  16.681  44.849   4.879
54480W        W26806  12.406  30.654  14.538
54481W        W26807  26.076  27.707   3.201
54482W        W26808   0.477  17.975  10.410
54483W        W26809  35.033  30.071   1.678
54484W        W26810  32.984  27.563   0.492
54485W        W26811  41.391  35.466   2.283
54486W        W26812  28.805  14.261   2.157
54487W        W26813   8.079  39.604   4.112
54488W        W26814  17.950  40.327   4.396
54489W        W26815  10.631  34.064  14.818
54490W        W26816  32.393  29.968   1.707
54491W        W26817  38.466  37.022   1.987
54492W        W26818  11.840  24.780   0.721
54493W        W26819  31.374  19.664  13.779
54494W        W26820  25.223  38.294   4.415
54495W        W26821   8.791   3.463  14.834
54496W        W26822   5.278   6.735  12.034
54497W        W26823  23.207  25.381  14.398
54498W        W26824  28.443  28.387  12.343
54499W        W26825   9.019  17.765   1.132
54500W        W26826  37.671  40.688   3.595
54501W        W26827   0.849  26.384  13.166
54502W        W26828  21.833  33.585   0.087
54503W        W26829  28.063  40.884   2.679
54504W        W26830  40.468  28.203   0.539
54505W        W26831  23.674  41.043   1.267
54506W        W26832  39.557  39.614   2.850
54507W        W26833  30.524  18.092  13.401
54508W        W26834  17.192  12.063  13.114
54509W        W26835  36.629   8.994   1.222
54510W        W26836  43.993  22.148   1.857
54511W        W26837  32.870  16.294   2.982
54512W        W26838  12.924  43.717  11.600
54513W        W26839  21.129  12.083   3.337
54514W        W26840  34.171  33.025   0.097
54515W        W26841  30.483   9.704  12.333
54516W        W26842   8.002  10.236   4.969
54517W        W26843  29.964  25.546  12.954
54518W        W26844  42.424  10.315  11.448
54519W        W26845  21.442  39.480  10.228
54520W        W26846  37.971  33.135   4.658
54521W        W26847  24.267  18.131  11.014
54522W        W26848   1.999  15.049  10.799
54523W        W26849  25.579  21.127  10.400
54524W        W26850  24.740  13.700  12.889
54525W        W26851  17.637  31.198   4.547
54526W        W26852   3.819  16.688   0.761
54527W        W26853  44.425  29.760  11.021
54528W        W26854  20.460  41.612   3.178
54529W        W26855  20.680   1.148  11.980
54530W        W26856  16.587  39.666   0.830
54531W        W26857  12.546   7.115  13.422
54532W        W26858  20.174   1.956  13.842
54533W        W26859  18.277  41.291  14.635
54534W        W26860  37.019  20.680  14.472
54535W        W26861   0.789  10.678   2.446
54536W        W26862  41.509  21.861  13.556
54537W        W26863  36.381  13.192  11.165
54538W        W26864  30.885  39.504   2.155
54539W        W26865  17.823   1.275   3.021
54540W        W26866  38.075  39.817   1.080
54541W        W26867  33.595   5.853   4.113
54542W        W26868  26.478  29.933  13.911
54543W        W26869  39.479  20.058  12.055
54544W        W26870  42.963  28.644  14.732
54545W        W26871  40.354  34.178  10.984
54546W        W26872  43.019  12.946   3.273
54547W        W26873   3.251  35.577   2.386
54548W        W26874  19.224  29.134  11.803
54549W        W26875  37.398  32.008   0.089
54550W        W26876  18.538   4.738  13.101
54551W        W26877  29.464  39.487  12.604
54552W        W26878   9.386  32.570  12.123
54553W        W26879  15.154  38.216   2.278
54554W        W26880  39.732   0.877   2.725
54555W        W26881  42.005  15.005   0.259
54556W        W26882  36.094  37.952  12.572
54557W        W26883  14.362  20.664   2.304
54558W        W26884  12.659  16.457   3.472
54559W        W26885  21.417   1.523  12.123
54560W        W26886  14.098  30.633   0.330
54561W        W26887   9.545  32.360   4.720
54562W        W26888  26.999   6.740   3.899
54563W        W26889  17.248   3.734   2.362
54564W        W26890  35.610  23.927   4.289
54565W        W26891   3.583  24.269   4.639
54566W        W26892  29.714  23.529  13.865
54567W        W26893  24.098   0.246  11.633
54568W        W26894   2.993  32.072  11.999
54569W        W26895  26.190   2.507  13.266
54570W        W26896  31.640  26.182   0.021
54571W        W26897  14.150  27.241   9.642
54572W        W26898  23.442  33.084   4.493
54573W        W26899  28.430  44.544   1.241
54574W        W26900  43.323  18.279   4.624
54575W        W26901   0.870  10.855   2.971
54576W        W26902  28.713  29.122  14.818
54577W        W26903  12.382  44.039   0.600
54578W        W26904  35.135  32.572  13.995
54579W        W26905  25.413  37.385  11.158
54580W        W26906  17.159  22.758  12.932
54581W        W26907  10.045  39.773  13.845
54582W        W26908  37.060   0.753   0.232
54583W        W26909  33.569  41.964   0.796
54584W        W26910   3.893   7.268  13.046
54585W        W26911  16.819  28.525  11.258
54586W        W26912  36.422  37.972  13.975
54587W        W26913  32.056  42.297  13.871
54588W        W26914  25.211  22.126  11.486
54589W        W26915  10.617  41.318   2.733
54590W        W26916   9.432  30.859  10.625
54591W        W26917  37.096  20.969  10.636
54592W        W26918  40.158  13.779   3.718
54593W        W26919  22.754   0.972  12.517
54594W        W26920   5.799  34.150   1.895
54595W        W26921   6.212  35.155  13.956
54596W        W26922  35.999  28.556  12.345
54597W        W26923  34.399  36.774   1.943
54598W        W26924  17.537  30.244  14.444
54599W        W26925  12.169  33.718  12.410
54600W        W26926  25.200  11.919   0.383
54601W        W26927  11.133   2.874  11.821
54602W        W26928  31.582  23.770   1.830
54603W        W26929  24.779  18.279  13.458
54604W        W26930  40.567  43.432   1.161
54605W        W26931   8.205  27.405  12.062
54606W        W26932  22.045  20.608   0.952
54607W        W26933  29.458   2.261  10.712
54608W        W26934  41.905  19.586   3.390
54609W        W26935  43.486  23.979  14.037
54610W        W26936  29.225  16.094   3.968
54611W        W26937  23.929  25.065   3.587
54612W        W26938   5.399  35.933  12.877
54613W        W26939  42.488  16.345  12.980
54614W        W26940  22.108  13.540   1.732
54615W        W26941  33.712  18.196   3.640
54616W        W26942  37.374  35.471   2.444
54617W        W26943  22.833  22.805  13.953
54618W        W26944  10.770  11.452   0.371
54619W        W26945  28.836  31.506  11.938
54620W        W26946   3.219  11.643  10.259
54621W        W26947  31.008   5.354  12.849
54622W        W26948  31.160  23.516   2.765
54623W        W26949  30.574   0.033   4.292
54624W        W26950  23.368  43.690  13.382
54625W        W26951   3.439  11.076  14.316
54626W        W26952   3.678  16.655   3.148
54627W        W26953  21.648   9.204  10.722
54628W        W26954  25.167  19.024  12.479
54629W        W26955  21.035  18.556  13.006
54630W        W26956  36.928  43.410  12.169
54631W        W26957  27.392  17.316  12.759
54632W        W26958  36.846  32.877  14.499
54633W        W26959  33.336  41.842  14.369
54634W        W26960  17.056  17.973   0.293
54635W        W26961  27.339  26.896   2.871
54636W        W26962  44.446   2.929   2.188
54637W        W26963  20.721  41.240   2.895
54638W        W26964  30.644  43.518  11.365
54639W        W26965  16.006  12.273  11.628
54640W        W26966   7.355   9.328  11.232
54641W        W26967   1.241  39.381   4.764
54642W        W26968  12.149  26.577   3.246
54643W        W26969  43.776  23.422   4.531
54644W        W26970  13.785  31.821  14.202
54645W        W26971  25.372  39.742   1.048
54646W        W26972  15.187  11.759  14.362
54647W        W26973  28.252  31.034   2.192
54648W        W26974  37.010  30.651   2.887
54649W        W26975  31.344  40.547  11.952
54650W        W26976  39.813  16.843   1.969
54651W        W26977  25.236  34.338  12.848
54652W        W26978  14.639  18.036  11.430
54653W        W26979  22.191  16.426   9.859
54654W        W26980  14.089  31.145   1.601
54655W        W26981  17.703  14.546  12.511
54656W        W26982   6.454  39.114   1.735
54657W        W26983  38.487  25.915  14.487
54658W        W26984   4.763   4.346   4.999
54659W        W26985  34.589  42.268  13.455
54660W        W26986   0.921  19.200  14.175
54661W        W26987  34.169   6.373   0.825
54662W        W26988  16.565  37.944  11.170
54663W        W26989  39.168   5.420   0.829
54664W        W26990  20.857  28.255   1.413
54665W        W26991  11.696   3.736   3.173
54666W        W26992  32.643  14.584   3.244
54667W        W26993  32.124  35.494   3.778
54668W        W26994  23.340  12.629   1.436
54669W        W26995  17.779  32.707   4.936
54670W        W26996  35.399  33.519   5.877
54671W        W26997   8.786  13.813   2.585
54672W        W26998   1.931  21.757   2.397
54673W        W26999  13.029  23.307   4.561
54674W        W27000  36.315  23.940  13.959
54675W        W27001  28.550  31.686  12.372
54676W        W27002  16.568   8.561  14.441
54677W        W27003  41.052  33.650   0.469
54678W        W27004  31.887  24.807  11.999
54679W        W27005  22.611   8.707  14.462
54680W        W27006  17.770  37.154  14.435
54681W        W27007   6.844  20.570  14.866
54682W        W27008  14.829   4.968   0.288
54683W        W27009  21.090  40.631  14.942
54684W        W27010  30.176   1.385  11.112
54685W        W27011  39.386  16.552  10.865
54686W        W27012  34.012  18.502   0.656
54687W        W27013  26.531   6.949  10.256
54688W        W27014  44.039   0.487   3.177
54689W        W27015  27.598  43.744  14.941
54690W        W27016  22.261  31.437  11.604
54691W        W27017  22.715  10.876   3.722
54692W        W27018  18.630  43.853   4.139
54693W        W27019   1.354   4.929  11.014
54694W        W27020  37.283   8.838  13.931
54695W        W27021  38.678   2.237  13.551
54696W        W27022   3.467  24.620  14.351
54697W        W27023  31.597   0.672   1.282
54698W        W27024  12.118   9.854   0.874
54699W        W27025  32.377  12.109  14.786
54700W        W27026   6.698  10.209   2.212
54701W        W27027   2.834   5.829   2.460
54702W        W27028  19.672  20.128   3.536
54703W        W27029   9.521  39.527   1.888
54704W        W27030  42.006  34.928  14.347
54705W        W27031  29.473  18.143   1.450
54706W        W27032   8.271  25.287  12.854
54707W        W27033  29.510   0.173  10.585
54708W        W27034  43.011  37.130  13.392
54709W        W27035  43.419  37.566   1.063
54710W        W27036  32.499  31.845  12.556
54711W        W27037  33.511  41.574  14.843
54712W        W27038   2.368  25.179   2.763
54713W        W27039  25.490  27.984  13.185
54714W        W27040  20.994   5.381  11.753
54715W        W27041  41.291  14.756  12.031
54716W        W27042  12.384  32.431  13.401
54717W        W27043  16.386  24.538  11.106
54718W        W27044  21.916  28.532   4.772
54719W        W27045  10.709  27.237  13.305
54720W        W27046  25.484  30.503   3.904
54721W        W27047  14.247  10.944   2.358
54722W        W27048   2.402  23.228  14.245
54723W        W27049   9.746  26.538   3.380
54724W        W27050  11.629   1.593  11.993
54725W        W27051  10.899  26.052   3.374
54726W        W27052   0.951   4.804   1.290
54727W        W27053  20.433  28.581  12.445
54728W        W27054  29.386  12.837   0.776
54729W        W27055  22.144   7.798   3.937
54730W        W27056  23.200  20.067   3.309
54731W        W27057  34.035  30.126   4.864
54732W        W27058  25.163  21.278   2.187
54733W        W27059   7.427  38.923   4.582
54734W        W27060  24.387   0.306   4.576
54735W        W27061  31.761  15.878  11.641
54736W        W27062   5.599  21.107  12.005
54737W        W27063   1.905  35.591   4.490
54738W        W27064   5.932   9.658  12.142
54739W        W27065   7.084  43.775  14.819
54740W        W27066   5.604  25.650  12.535
54741W        W27067  25.084  13.267   3.398
54742W        W27068  41.520  23.229   0.679
54743W        W27069  10.840  33.124  12.833
54744W        W27070   1.287  11.248   2.858
54745W        W27071   4.796  17.646   4.568
54746W        W27072   3.918  13.127   3.502
54747W        W27073  42.975  34.793  12.917
54748W        W27074  43.922  41.036  13.254
54749W        W27075  14.789  10.355  10.736
54750W        W27076   9.689  26.717   0.266
54751W        W27077   6.759   9.861   3.201
54752W        W27078  32.494  28.709  14.461
54753W        W27079  36.022  19.628   4.274
54754W        W27080  35.833  15.315   1.980
54755W        W27081  15.035  26.026   1.206
54756W        W27082   6.699  36.118  13.972
54757W        W27083   5.383   4.282   3.094
54758W        W27084  14.751  40.017  13.133
54759W        W27085  14.094  42.481  11.076
54760W        W27086  34.536  31.497   3.722
54761W        W27087  18.622  36.363   1.758
54762W        W27088  24.958  27.966   1.370
54763W        W27089  29.572  40.810  12.342
54764W        W27090  28.540   3.842   3.297
54765W        W27091  26.602   8.199   3.178
54766W        W27092   1.335  12.295   3.732
54767W        W27093  22.619  35.553  10.765
54768W        W27094  43.533  44.031   3.733
54769W        W27095  14.087  42.764  14.132
54770W        W27096  25.935  18.109  11.109
54771W        W27097  33.538   9.659  11.667
54772W        W27098   6.186  20.227   2.529
54773W        W27099  39.278  42.937   4.073
54774W        W27100  26.147  16.148   0.466
54775W        W27101  26.425  26.332   2.767
54776W        W27102  43.014   3.705  12.436
54777W        W27103  23.187  22.039   4.668
54778W        W27104  27.940   7.898  14.439
54779W        W27105  23.541  24.992  13.936
54780W        W27106  18.616  38.848  13.995
54781W        W27107  31.380   5.917   1.713
54782W        W27108  12.783  16.570   4.013
54783W        W27109  21.243  28.899   0.786
54784W        W27110  32.021  35.651   1.853
54785W        W27111  39.203  29.781  14.534
54786W        W27112  31.559   9.634  11.853
54787W        W27113  27.031   8.339   2.125
54788W        W27114  37.981  44.440  12.010
54789W        W27115   1.221  16.792   4.175
54790W        W27116   0.075  15.364   1.701
54791W        W27117  34.496  37.791  10.744
54792W        W27118   1.283  33.554   2.179
54793W        W27119   0.305  36.978   0.995
54794W        W27120  37.787   6.752  13.356
54795W        W27121   6.786  28.533  11.572
54796W        W27122   1.877  22.263   3.733
54797W        W27123  17.700  36.869   4.839
54798W        W27124   1.757   0.602   4.642
54799W        W27125  21.645  42.008   2.264
54800W        W27126   6.496  18.276  12.538
54801W        W27127  43.884  31.728  13.304
54802W        W27128  30.459  39.495   0.872
54803W        W27129   2.234   2.200   1.837
54804W        W27130  26.924  10.861  13.449
54805W        W27131  42.411  19.342   4.755
54806W        W27132  24.700   6.784   0.637
54807W        W27133  23.167  37.609   9.741
54808W        W27134  19.694  25.537  12.678
54809W        W27135  15.343   3.539  10.896
54810W        W27136   1.529  19.378  11.444
54811W        W27137  43.457  15.870   3.727
54812W        W27138  10.839  44.292   1.291
54813W        W27139   0.418  18.209   2.883
54814W        W27140  29.418  32.168   5.033
54815W        W27141  15.540  25.968   2.141
54816W        W27142  42.926   9.631   2.363
54817W        W27143  36.752  11.136  10.674
54818W        W27144  14.578  24.725   2.420
54819W        W27145  11.413  31.162   3.976
54820W        W27146  41.833  42.175  13.709
54821W        W27147  32.409  29.390  10.323
54822W        W27148  26.719   7.689   0.019
54823W        W27149  17.597  37.522  13.492
54824W        W27150  30.744   6.519   1.367
54825W        W27151   3.931  14.370  14.286
54826W        W27152  40.254   9.365   3.784
54827W        W27153  17.896   7.282   4.578
54828W        W27154  11.847  34.031  14.374
54829W        W27155  10.327  33.983   0.441
54830W        W27156  43.845  38.716  12.546
54831W        W27157  39.960  28.981  13.368
54832W        W27158  35.840  44.351   4.822
54833W        W27159  31.572  12.616   4.279
54834W        W27160  29.391  36.976   0.772
54835W        W27161  26.239   8.424  12.606
54836W        W27162  22.101  19.197  11.115
54837W        W27163  10.809  36.973  13.797
54838W        W27164   1.855   6.934  14.855
54839W        W27165  34.971   4.720  12.518
54840W        W27166  16.565  31.087  11.390
54841W        W27167  26.181  27.872  14.838
54842W        W27168  31.710  35.185   4.987
54843W        W27169   3.618  11.350  10.095
54844W        W27170  13.237  29.889   2.374
54845W        W27171  39.815  29.085  14.252
54846W        W27172   5.471  20.350  13.429
54847W        W27173  31.823  39.328   2.786
54848W        W27174   3.775  16.254  12.551
54849W        W27175  22.067  41.384   0.634
54850W        W27176  16.131  35.557   2.254
54851W        W27177  24.178   5.741  12.399
54852W        W27178  13.343  25.615   2.110
54853W        W27179   3.247  20.461  10.644
54854W        W27180  32.640  12.273   1.341
54855W        W27181   1.311   5.723  13.605
54856W        W27182  20.891   4.250  11.989
54857W        W27183  29.511  37.669  10.720
54858W        W27184  36.316  24.022  13.016
54859W        W27185  37.904  29.980  14.370
54860W        W27186   2.886  30.372   0.939
54861W        W27187  13.069  37.066  12.518
54862W        W27188  36.272  22.309  13.569
54863W        W27189  25.038  43.913  11.927
54864W        W27190  40.277  22.610   0.386
54865W        W27191  34.804  39.819  12.026
54866W        W27192  31.459  16.683  10.486
54867W        W27193  38.793   8.586   3.128
54868W        W27194  32.905  14.940  12.041
54869W        W27195  36.336  41.786  11.939
54870W        W27196  29.542   3.702   4.075
54871W        W27197  22.797   7.444  12.100
54872W        W27198  41.974  20.051  13.881
54873W        W27199  29.716  38.909   2.163
54874W        W27200   2.381  26.662   3.682
54875W        W27201  34.785  15.062  12.616
54876W        W27202   1.844  29.939   0.370
54877W        W27203  21.830  35.914  13.361
54878W        W27204  17.235   0.014   4.319
54879W        W27205  32.843  31.171  12.825
54880W        W27206  36.297   0.887   3.094
54881W        W27207  34.608  35.084  11.380
54882W        W27208  29.325  44.085   4.467
54883W        W27209  12.274  15.313   3.755
54884W        W27210  30.484  36.536  12.958
54885W        W27211  25.180  19.267   2.356
54886W        W27212  21.096   6.210   1.762
54887W        W27213   9.219  10.152  10.197
54888W        W27214   7.271   7.632   3.544
54889W        W27215   8.803  39.257   1.895
54890W        W27216  30.000  27.646  11.462
54891W        W27217  33.617  33.627   0.194
54892W        W27218  12.800  16.334  12.495
54893W        W27219   1.266  21.262  12.555
54894W        W27220  31.635   2.882  12.686
54895W        W27221  22.548  33.546  11.478
54896W        W27222   8.927  30.096  12.855
54897W        W27223  19.501  33.239  14.353
54898W        W27224  29.081  35.609  14.095
54899W        W27225  28.602   8.316  13.411
54900W        W27226  44.527  35.663   2.342
54901W        W27227   9.290  40.989   4.623
54902W        W27228  12.688  24.275  11.243
54903W        W27229  28.136  21.267  13.850
54904W        W27230  18.075   0.348   0.075
54905W        W27231  39.471  41.317  11.197
54906W        W27232  35.348  17.592   3.228
54907W        W27233  19.279  33.075  13.394
54908W        W27234  29.692   5.417   0.184
54909W        W27235   2.481  26.571  10.703
54910W        W27236  25.720  12.491   3.383
54911W        W27237   1.000   2.845  11.929
54912W        W27238   9.852  29.514   1.871
54913W        W27239  24.514  26.161  14.373
54914W        W27240  26.009   7.800   3.888
54915W        W27241  29.731   7.767  10.718
54916W        W27242   6.239   1.806   1.493
54917W        W27243  22.216  12.624   4.037
54918W        W27244  40.092  20.574   1.228
54919W        W27245  41.211   5.880   3.603
54920W        W27246   4.782  30.504  12.812
54921W        W27247  18.711  26.706  11.002
54922W        W27248  44.993  12.102   2.373
54923W        W27249  35.052  35.579   1.387
54924W        W27250   8.331  26.704  11.493
54925W        W27251  21.786  44.324  11.987
54926W        W27252  37.872  13.704   0.909
54927W        W27253  28.821  34.544   3.974
54928W        W27254  26.911  38.015   2.209
54929W        W27255  13.008  39.736  13.021
54930W        W27256  36.227  34.037   5.028
54931W        W27257  10.764  30.954   2.826
54932W        W27258  14.686   6.882  14.302
54933W        W27259  18.449   5.372  10.506
54934W        W27260  28.944  30.696  11.049
54935W        W27261   6.940  29.636   0.851
54936W        W27262  36.243  28.490   5.064
54937W        W27263  23.281  15.675  12.043
54938W        W27264  37.423   5.216  14.448
54939W        W27265  32.968  34.416   2.189
54940W        W27266  16.796  43.382  14.433
54941W        W27267  11.289  37.409  14.502
54942W        W27268  11.188  22.339  11.503
54943W        W27269   3.842  22.716  11.837
54944W        W27270  42.940   4.316  10.674
54945W        W27271  20.230  13.138  10.777
54946W        W27272  43.388   4.829   0.722
54947W        W27273  40.541   3.367  10.734
54948W        W27274  32.440  33.636   2.241
54949W        W27275  37.788  19.051   0.243
54950W        W27276  11.705  27.027   3.104
54951W        W27277  25.139  37.859   4.151
54952W        W27278  32.339  37.427   4.620
54953W        W27279  32.329  16.579  14.444
54954W        W27280   2.753   2.251   4.608
54955W        W27281   0.833  12.293  10.870
54956W        W27282  41.888  44.134  12.838
54957W        W27283  23.489  22.207   0.389
54958W        W27284  36.840   8.367  12.635
54959W        W27285  10.025  36.528   2.375
54960W        W27286  43.443  14.586  10.877
54961W        W27287   8.370  18.509  11.539
54962W        W27288  36.994  42.315   1.702
54963W        W27289   6.422  11.342   0.959
54964W        W27290  37.603  40.514   3.040
54965W        W27291  13.782  41.281   2.754
54966W        W27292   5.398   5.635  11.173
54967W        W27293  15.390  14.810   0.605
54968W        W27294  20.001  34.471  13.313
54969W        W27295  31.181  15.649   2.183
54970W        W27296  11.703  31.844  13.197
54971W        W27297  43.926  13.265  12.832
54972W        W27298  24.528  39.797  10.687
54973W        W27299  21.027  15.340  11.881
54974W        W27300   9.350  10.883  12.965
54975W        W27301  42.021  40.893  11.614
54976W        W27302  38.171  26.289   0.719
54977W        W27303   3.425  16.646   2.677
54978W        W27304  29.129  35.447   2.314
54979W        W27305  35.427  42.956   1.233
54980W        W27306  20.032   8.653  13.267
54981W        W27307  39.802  11.751  14.975
54982W        W27308  25.277   0.840  11.625
54983W        W27309  28.353  10.494  14.375
54984W        W27310  36.410  23.521   2.463
54985W        W27311  43.817   4.207   4.371
54986W        W27312  17.372   0.771   0.336
54987W        W27313  30.887  11.739  14.551
54988W        W27314  29.117  14.339  12.011
54989W        W27315   1.087  15.045   4.905
54990W        W27316  20.001  21.143   2.256
54991W        W27317   3.936  10.899  11.229
54992W        W27318  29.919  40.037   1.840
54993W        W27319  13.123   6.327   3.234
54994W        W27320  28.823  36.003  13.898
54995W        W27321   8.314  26.571  10.357
54996W        W27322  37.390  36.565  12.112
54997W        W27323  31.008  12.367  14.900
54998W        W27324  15.147  35.597   1.581
54999W        W27325  30.516   7.851   0.668
55000W        W27326  18.999  27.146  12.631
55001W        W27327  38.075   1.491  12.114
55002W        W27328   7.109  20.619   1.926
55003W        W27329  20.539  27.597   1.878
55004W        W27330  21.796  43.294   2.933
55005W        W27331  33.455  25.159   2.860
55006W        W27332  44.361   9.217  10.096
55007W        W27333  24.492  14.761  14.818
55008W        W27334   7.444  14.796   4.204
55009W        W27335  38.885   7.986  13.589
55010W        W27336   6.337  31.018   0.191
55011W        W27337  20.776  11.061   2.521
55012W        W27338  43.414   6.674   2.768
55013W        W27339  28.695  22.699   0.268
55014W        W27340  35.059   6.101  10.698
55015W        W27341  33.182  24.164  14.066
55016W        W27342  17.535  22.771   2.680
55017W        W27343   8.624  42.493   2.852
55018W        W27344  36.605  11.298   4.670
55019W        W27345  34.406  11.654   3.330
55020W        W27346  36.738  17.997  12.354
55021W        W27347  16.835   5.596   2.788
55022W        W27348   0.846  33.068  12.967
55023W        W27349  10.812  16.817   3.522
55024W        W27350  37.541  19.940   0.416
55025W        W27351   1.347  23.620   3.037
55026W        W27352   5.314  12.855  10.826
55027W        W27353  40.405  15.872  14.815
55028W        W27354  22.017  21.555  10.480
55029W        W27355  42.548  36.420   2.357
55030W        W27356  33.716   9.201  14.462
55031W        W27357  43.226  38.023  13.409
55032W        W27358  36.293  39.474  13.922
55033W        W27359  30.511  26.877   4.131
55034W        W27360   4.351   2.737   3.352
55035W        W27361  22.563  17.864  13.479
55036W        W27362   1.489  24.671   2.289
55037W        W27363  29.918  11.640  14.958
55038W        W27364  10.545  12.812   1.715
55039W        W27365  29.535  32.526  12.528
55040W        W27366   0.392  26.628   2.417
55041W        W27367   7.356   9.144  12.633
55042W        W27368   2.143  25.972  11.906
55043W        W27369  39.337  34.552  10.687
55044W        W27370  34.587  11.598   1.944
55045W        W27371  16.275   6.362  11.757
55046W        W27372  31.053  13.656  10.685
55047W        W27373   5.245  24.949   4.283
55048W        W27374  22.041  36.349   0.831
55049W        W27375   7.625   5.285  13.884
55050W        W27376  36.374  25.458  13.964
55051W        W27377  20.589  12.545   4.216
55052W        W27378  43.178   7.856  10.729
55053W        W27379  37.366  15.427   3.168
55054W        W27380  21.057   9.283   0.422
55055W        W27381  22.444  27.163  14.097
55056W        W27382   0.012  38.150  12.569
55057W        W27383   9.198  42.913   0.876
55058W        W27384  28.626  29.466  13.976
55059W        W27385   6.213  42.023  12.450
55060W        W27386  41.410  34.576   4.501
55061W        W27387  34.436  22.205  14.395
55062W        W27388  22.214   1.378  11.684
55063W        W27389  39.194  25.970   3.327
55064W        W27390  41.417  32.083  11.345
55065W        W27391  30.645   0.207  14.391
55066W        W27392  10.300   2.914  12.844
55067W        W27393  24.979   1.841   0.312
55068W        W27394   7.456  40.903   0.307
55069W        W27395   3.706  38.944   2.834
55070W        W27396  18.333  11.832   4.630
55071W        W27397  15.128  38.469  13.931
55072W        W27398  31.417  27.929  12.502
55073W        W27399  34.006  17.845  14.980
55074W        W27400   4.348  28.924  12.191
55075W        W27401  35.776  41.288   2.707
55076W        W27402  12.425   5.929   0.593
55077W        W27403  11.169   9.626  14.309
55078W        W27404   8.193  29.512  10.722
55079W        W27405  41.374  29.104  13.311
55080W        W27406  15.388  19.068  14.746
55081W        W27407  43.826  33.481  11.156
55082W        W27408  40.010  30.877   0.655
55083W        W27409   5.283   2.868   2.909
55084W        W27410  31.574  40.322   4.156
55085W        W27411   9.957  34.803  12.995
55086W        W27412   1.425  17.541   4.665
55087W        W27413   4.275  35.367  12.082
55088W        W27414  32.922   0.998  13.476
55089W        W27415  25.232  22.172   3.257
55090W        W27416  43.811  13.370   1.734
55091W        W27417  10.455  11.190   4.165
55092W        W27418  18.077  24.850   0.901
55093W        W27419  34.379  25.320  11.092
55094W        W27420  15.152  19.801   3.426
55095W        W27421  20.058  40.544  13.376
55096W        W27422  38.833  31.437   3.710
55097W        W27423  20.619  38.145   1.732
55098W        W27424  24.549   6.856   3.818
55099W        W27425   6.199  13.804  14.709
55100W        W27426  34.048   6.260  10.693
55101W        W27427   5.450  29.527   3.089
55102W        W27428  38.894   5.194   3.902
55103W        W27429   3.962   9.728  13.793
55104W        W27430  31.890  24.115  13.415
55105W        W27431  24.134   9.297   0.174
55106W        W27432  30.021  23.960   3.634
55107W        W27433   9.856  19.800   2.595
55108W        W27434  10.829  10.659  13.808
55109W        W27435  17.076  44.351  13.002
55110W        W27436   0.551  44.405  13.429
55111W        W27437   5.899  41.331  13.063
55112W        W27438  26.595   0.417  11.659
55113W        W27439  32.162  34.508  14.712
55114W        W27440  29.469  34.200   3.691
55115W        W27441  30.296  25.258  13.354
55116W        W27442  15.800  40.376  14.961
55117W        W27443  17.809  42.234   3.728
55118W        W27444  10.106  17.113   3.264
55119W        W27445   6.897  30.336  14.436
55120W        W27446   7.613  24.613  12.452
55121W        W27447  42.479  41.594  10.569
55122W        W27448  42.160  28.544  13.789
55123W        W27449   5.786  10.306  12.911
55124W        W27450   2.828  39.404   4.585
55125W        W27451  38.344  28.438   2.846
55126W        W27452   4.331  41.502   2.473
55127W        W27453  33.358  22.483   4.982
55128W        W27454   5.362   0.052   0.410
55129W        W27455  23.160  17.418  12.322
55130W        W27456  23.564  35.810  14.965
55131W        W27457  41.611  37.499   1.191
55132W        W27458  41.926   9.322  14.225
55133W        W27459  10.838  14.323  12.513
55134W        W27460  21.156  27.962  10.686
55135W        W27461  40.916  39.325  12.627
55136W        W27462  41.968   9.764  10.976
55137W        W27463  15.238  10.732  13.251
55138W        W27464  11.196   6.501  11.607
55139W        W27465   5.802  17.222   0.856
55140W        W27466   0.629  19.043  10.849
55141W        W27467   3.440  32.488   4.934
55142W        W27468  18.272  43.985  12.436
55143W        W27469   5.728  15.022  14.362
55144W        W27470  29.408  29.949  14.858
55145W        W27471  42.431  44.327   4.111
55146W        W27472  18.695  40.033   4.804
55147W        W27473  30.591  16.143  14.303
55148W        W27474   3.017  24.602  14.058
55149W        W27475  35.833  20.617   2.831
55150W        W27476  38.803  21.787  12.032
55151W        W27477  25.035   0.445   0.894
55152W        W27478   0.001  31.026  13.827
55153W        W27479  24.681  17.775   0.813
55154W        W27480  10.850  21.674   3.612
55155W        W27481   2.927   4.758  13.137
55156W        W27482  26.550  33.005   2.674
55157W        W27483  37.527  32.443  14.843
55158W        W27484  15.382  25.274  13.627
55159W        W27485  13.825  44.627  11.668
55160W        W27486  15.319  44.912   3.697
55161W        W27487  40.816  13.909  12.901
55162W        W27488  34.639  13.499  13.812
55163W        W27489  16.352  28.417   0.777
55164W        W27490  37.469  22.498   1.300
55165W        W27491   4.687   2.414   2.755
55166W        W27492   6.250   3.759  11.425
55167W        W27493  16.138  35.853   0.645
55168W        W27494   4.704  33.630  12.808
55169W        W27495  32.603  13.493  14.407
55170W        W27496  22.092  10.135  11.357
55171W        W27497   4.528  44.562  12.667
55172W        W27498   4.216  10.896   1.972
55173W        W27499   2.234  43.094  12.177
55174W        W27500  41.163  30.568   3.336
55175W        W27501  42.228   9.997   0.536
55176W        W27502  10.076  35.529   2.007
55177W        W27503  22.096  28.374  12.916
55178W        W27504   5.511  22.734   0.458
55179W        W27505  15.757  35.034  13.398
55180W        W27506   7.424   8.370  14.578
55181W        W27507  21.295  25.673   0.613
55182W        W27508  42.713  23.517   2.666
55183W        W27509  21.045  33.081   0.839
55184W        W27510  16.116  44.331   1.780
55185W        W27511  24.297   3.015  12.480
55186W        W27512  22.880  34.093  10.070
55187W        W27513  12.496  26.120   9.818
55188W        W27514   4.868   6.399  11.989
55189W        W27515  19.855  10.074  14.269
55190W        W27516  11.044  25.592  14.476
55191W        W27517  31.172   6.920   3.167
55192W        W27518  32.024  39.444  11.539
55193W        W27519  36.616  23.067   4.612
55194W        W27520  12.070  39.526  14.468
55195W        W27521  32.460  24.477   1.239
55196W        W27522  16.190  33.388  11.538
55197W        W27523  15.780  26.751  12.880
55198W        W27524  17.994  31.577   4.536
55199W        W27525   2.699  35.938   1.374
55200W        W27526  30.497   1.054   2.695
55201W        W27527  31.781   6.256   1.898
55202W        W27528   2.282  43.392   0.983
55203W        W27529  24.271  20.155   1.906
55204W        W27530  41.458  29.227   1.696
55205W        W27531  33.620  32.340   0.019
55206W        W27532   7.478  29.779  11.777
55207W        W27533  13.088  12.792   4.699
55208W        W27534  35.325  40.950   4.653
55209W        W27535  42.414  16.727   1.334
55210W        W27536  20.315  10.218  14.471
55211W        W27537  40.851  39.317   1.269
55212W        W27538  32.451  18.698   4.186
55213W        W27539   0.164  37.592  11.027
55214W        W27540  26.922   9.795   4.738
55215W        W27541   2.699  17.820  11.548
55216W        W27542   0.508  30.736   4.733
55217W        W27543   8.675  27.072   3.667
55218W        W27544   3.835  41.374   3.937
55219W        W27545  10.685  13.886  10.637
55220W        W27546  38.191  10.026   1.962
55221W        W27547   4.520  38.567   2.999
55222W        W27548  15.825  34.129   4.000
55223W        W27549  36.643  19.718  14.327
55224W        W27550  10.272  41.514   0.471
55225W        W27551  20.285  26.864  13.593
55226W        W27552  25.291  32.820   4.548
55227W        W27553  16.691  21.604  10.529
55228W        W27554   7.566  30.445   0.606
55229W        W27555  18.692   4.172  11.943
55230W        W27556  28.415  34.520  11.511
55231W        W27557  43.469   0.632   2.769
55232W        W27558  13.583  31.646  13.747
55233W        W27559  20.676  23.915   4.218
55234W        W27560  42.904  41.892  10.625
55235W        W27561  39.536  26.950   2.372
55236W        W27562  39.078   7.435   0.387
55237W        W27563  25.105  44.429  11.233
55238W        W27564   7.573  10.666  11.508
55239W        W27565   3.769  16.104  14.845
55240W        W27566   2.654  43.021   3.167
55241W        W27567  28.924  27.609   4.580
55242W        W27568  36.973   8.887   3.117
55243W        W27569  44.028   1.212   0.842
55244W        W27570   7.393  41.753  13.437
55245W        W27571  22.233  21.064  10.696
55246W        W27572  33.523  10.661  10.599
55247W        W27573   6.467  14.765   4.331
55248W        W27574   5.565  22.536   2.297
55249W        W27575  19.777  29.908  11.576
55250W        W27576  20.169  32.093  14.423
55251W        W27577  21.238  26.668   1.411
55252W        W27578  39.290  11.623   0.315
55253W        W27579  26.399  13.334  11.144
55254W        W27580  18.846  16.318   1.273
55255W        W27581  12.660   3.805  10.929
55256W        W27582  25.920  30.089  12.098
55257W        W27583  21.629  10.749   0.853
55258W        W27584   4.863  22.687  14.534
55259W        W27585  30.842  28.857   2.728
55260W        W27586  25.729  12.416  12.829
55261W        W27587  23.537   4.103   1.406
55262W        W27588  22.624  33.596   0.694
55263W        W27589  21.996  42.865  10.832
55264W        W27590  31.879   1.013  11.624
55265W        W27591  35.980  35.246  10.213
55266W        W27592  18.653  17.109   4.545
55267W        W27593  13.211  44.614   0.346
55268W        W27594   9.462  19.076  12.156
55269W        W27595  20.246   5.785  13.895
55270W        W27596   4.431  12.655  10.103
55271W        W27597  32.411  27.059   1.404
55272W        W27598  43.112  12.722  11.045
55273W        W27599   6.613  39.123   1.041
55274W        W27600   3.355  14.033   3.379
55275W        W27601  25.492  27.893  13.690
55276W        W27602  11.904   4.901  12.187
55277W        W27603  27.727   6.275   4.541
55278W        W27604  27.145  30.869   0.831
55279W        W27605  44.819  42.010  10.616
55280W        W27606  42.502  13.546   0.430
55281W        W27607  42.284  24.695  11.381
55282W        W27608   7.226  20.925  13.940
55283W        W27609  39.811  14.895   3.747
55284W        W27610  31.675  14.181   3.268
55285W        W27611   9.695   3.479  10.629
55286W        W27612  33.028  17.233  13.878
55287W        W27613  40.114  11.103   1.404
55288W        W27614  11.138  14.644  11.989
55289W        W27615  35.093  38.479   4.780
55290W        W27616   8.369   9.083   3.802
55291W        W27617  17.610  42.474   4.236
55292W        W27618  31.099  41.340   0.694
55293W        W27619  14.721   6.432   3.592
55294W        W27620  35.343  37.995   0.399
55295W        W27621  31.030  19.741  10.330
55296W        W27622  12.597  39.767   0.252
55297W        W27623  31.909  36.414   2.751
55298W        W27624  25.970  30.068  13.943
55299W        W27625  42.912  38.533  13.088
55300W        W27626  22.602  35.300   5.133
55301W        W27627  30.446  30.855  11.041
55302W        W27628  12.883  14.796  13.911
55303W        W27629  25.570  34.876  13.477
55304W        W27630  10.403  44.588  13.568
55305W        W27631  12.450  33.417  12.092
55306W        W27632  42.807   4.472  13.850
55307W        W27633  38.552  15.559  11.929
55308W        W27634  29.706  17.196  12.553
55309W        W27635  35.098   7.300   1.840
55310W        W27636  43.447  43.162  10.541
55311W        W27637   9.966  21.342   1.512
55312W        W27638  35.058  25.245  12.087
55313W        W27639   2.008   0.406  11.066
55314W        W27640   9.849  30.724  14.385
55315W        W27641  20.701  37.646  13.015
55316W        W27642  23.115  41.506   2.760
55317W        W27643  31.025   2.504   1.795
55318W        W27644  22.304   2.914   1.930
55319W        W27645  27.333  21.358   0.502
55320W        W27646  20.640  15.567   2.148
55321W        W27647  11.800  21.673  14.710
55322W        W27648  19.322  20.185   2.695
55323W        W27649   3.694  13.744  13.042
55324W        W27650  14.304  26.718  12.194
55325W        W27651  31.463  32.500  12.065
55326W        W27652  13.110  37.516   1.827
55327W        W27653  35.206  43.826   1.406
55328W        W27654  37.122  43.237   3.258
55329W        W27655  42.420  24.130  13.805
55330W        W27656  10.905  27.978   2.652
55331W        W27657  36.987  42.549  11.130
55332W        W27658   5.368  25.751  13.878
55333W        W27659  19.685  30.494  13.845
55334W        W27660  26.183  29.479  10.904
55335W        W27661  39.640   0.089   4.762
55336W        W27662  12.420  43.525   4.039
55337W        W27663  29.628  11.760   0.371
55338W        W27664  28.938  18.344   3.800
55339W        W27665  37.977  21.285   4.217
55340W        W27666  20.140  39.019   4.098
55341W        W27667  12.387  37.888  11.826
55342W        W27668  37.720  32.493   1.340
55343W        W27669   7.170  17.783   4.325
55344W        W27670   3.770   4.246  14.845
55345W        W27671  40.738   0.825   2.717
55346W        W27672  16.604   3.759   1.690
55347W        W27673  39.853  36.906   2.282
55348W        W27674   8.015  31.134  13.280
55349W        W27675  11.289  25.690  14.925
55350W        W27676  12.708  24.753   1.281
55351W        W27677  18.488  14.220   4.163
55352W        W27678  37.870  39.767  12.477
55353W        W27679  32.571  44.053   1.263
55354W        W27680  29.932   1.905   2.536
55355W        W27681   8.889   8.470   1.600
55356W        W27682  35.606  36.375   0.315
55357W        W27683  42.443  40.600  12.825
55358W        W27684   2.858  10.571   9.893
55359W        W27685  16.816  43.818   2.656
55360W        W27686   7.116  16.609   4.928
55361W        W27687   6.580  29.341   1.098
55362W        W27688  10.138   6.172   2.847
55363W        W27689  29.974  13.231   3.675
55364W        W27690  31.571  21.569  12.377
55365W        W27691   2.880   2.410  10.538
55366W        W27692  40.640  24.581   2.548
55367W        W27693  16.275  41.924  14.400
55368W        W27694  21.991  12.669  14.367
55369W        W27695   0.149   3.027   2.639
55370W        W27696  24.202  28.628   1.964
55371W        W27697  18.166  26.208   0.328
55372W        W27698  21.686   6.204  11.011
55373W        W27699   5.346  34.660   1.843
55374W        W27700  17.017  24.167  14.797
55375W        W27701  25.451  42.946   0.311
55376W        W27702  40.979  27.312  13.924
55377W        W27703  36.866  29.687  11.081
55378W        W27704   2.337  10.361  12.418
55379W        W27705   6.958   0.468   1.418
55380W        W27706   8.027   6.136  12.402
55381W        W27707  10.704  32.146   3.273
55382W        W27708  10.139  19.899   5.139
55383W        W27709  25.646  34.832  10.684
55384W        W27710  44.962  27.541   1.161
55385W        W27711  17.637  31.072  14.829
55386W        W27712   6.175  33.391  14.516
55387W        W27713  14.888  22.765  13.875
55388W        W27714  39.476  25.070  11.484
55389W        W27715  20.005  24.216   0.442
55390W        W27716  15.896   4.722  11.612
55391W        W27717   4.755  43.686  14.723
55392W        W27718  24.489  39.116  13.087
55393W        W27719  43.529  40.465  12.467
55394W        W27720  24.057  30.086  11.130
55395W        W27721   9.217  33.455  10.618
55396W        W27722  38.606  28.342  11.093
55397W        W27723  20.162  35.971  12.623
55398W        W27724  33.950  17.052  10.035
55399W        W27725  22.288   6.291  11.804
55400W        W27726  14.857   9.450  12.623
55401W        W27727  26.083  42.909   1.602
55402W        W27728  12.347   6.388   0.331
55403W        W27729  13.151  28.492  13.124
55404W        W27730   5.555  13.691   0.781
55405W        W27731  15.596  14.651   3.609
55406W        W27732  42.068  25.143  14.879
55407W        W27733  11.135  29.149  12.486
55408W        W27734   3.474   0.052  13.342
55409W        W27735   1.249  17.280   1.744
55410W        W27736  44.442  34.506   0.650
55411W        W27737  27.484   9.478  10.796
55412W        W27738  12.239  34.149  12.804
55413W        W27739  34.462  32.814   4.720
55414W        W27740  20.704   2.734  10.621
55415W        W27741  42.182  15.967  12.531
55416W        W27742  39.353   9.085  11.155
55417W        W27743  22.085  44.202  14.782
55418W        W27744   1.759  34.323  14.795
55419W        W27745  24.725   8.971   0.830
55420W        W27746  21.109  44.392   0.948
55421W        W27747  14.247  13.684   2.816
55422W        W27748  19.327  32.256   0.551
55423W        W27749   6.362   4.276   1.343
55424W        W27750  20.177  43.910  13.018
55425W        W27751  22.408  36.996   3.171
55426W        W27752  43.816   3.508   2.719
55427W        W27753  38.773  10.997   2.874
55428W        W27754  25.200  11.792   1.865
55429W        W27755   7.369  30.063  13.141
55430W        W27756  44.194  22.039  13.495
55431W        W27757  28.729  34.898   3.242
55432W        W27758  15.071  19.724  11.607
55433W        W27759  12.529  31.035   0.232
55434W        W27760  26.643  28.496  12.908
55435W        W27761  16.137  18.292  11.564
55436W        W27762  33.641  30.706  14.965
55437W        W27763  30.135  38.901   1.268
55438W        W27764   9.482  44.401  13.464
55439W        W27765  29.676  38.847  10.112
55440W        W27766  10.799   4.348   4.157
55441W        W27767  13.064  18.256   4.149
55442W        W27768   8.303  14.347   3.350
55443W        W27769  39.227  22.506  10.742
55444W        W27770  18.753   0.866   3.816
55445W        W27771  17.570   5.264  14.536
55446W        W27772  11.303  29.168   0.598
55447W        W27773  35.466  15.283  10.535
55448W        W27774   5.024  26.750   2.009
55449W        W27775  23.632  33.989   1.951
55450W        W27776  25.137   2.421  13.154
55451W        W27777   3.468  33.062   4.500
55452W        W27778  17.782  42.306   4.753
55453W        W27779   3.065  27.446   0.479
55454W        W27780  15.197   5.498   3.229
55455W        W27781  39.886  32.408   0.902
55456W        W27782  37.078  17.332  14.260
55457W        W27783  14.764   9.456   1.461
55458W        W27784  16.526  13.826   2.280
55459W        W27785  14.918   1.701  10.348
55460W        W27786   8.748  36.078  11.076
55461W        W27787   3.701  14.206  14.984
55462W        W27788  34.595  20.484  12.747
55463W        W27789  32.078   6.102  11.183
55464W        W27790  39.019  39.887  10.290
55465W        W27791  19.760  12.402  11.395
55466W        W27792  26.093  37.544   1.901
55467W        W27793   2.279  17.338   2.650
55468W        W27794   3.763  43.596  10.637
55469W        W27795  32.421  19.659  14.523
55470W        W27796  35.284   9.363   0.830
55471W        W27797   8.772  29.608  12.822
55472W        W27798  40.469   6.177   3.613
55473W        W27799   9.774  37.926   1.823
55474W        W27800  23.506   2.742   0.389
55475W        W27801  17.566  20.540   4.090
55476W        W27802  25.420   5.619  14.308
55477W        W27803  24.121  39.444  11.603
55478W        W27804  27.114  43.889   4.149
55479W        W27805   7.560  11.677  11.579
55480W        W27806  20.655  36.154   3.654
55481W        W27807  26.430  25.505   1.441
55482W        W27808  23.268  37.835   3.300
55483W        W27809  42.355  19.228  11.183
55484W        W27810  12.809  26.510  11.046
55485W        W27811  26.500  42.470   4.500
55486W        W27812  33.469  15.239  14.310
55487W        W27813  29.999  44.200   0.537
55488W        W27814  44.412  14.276  14.785
55489W        W27815  19.879  14.873   1.817
55490W        W27816  10.536  11.541   4.568
55491W        W27817   1.395  16.328   2.790
55492W        W27818  17.989  14.241   1.020
55493W        W27819  17.383  21.315  13.528
55494W        W27820   4.749  44.766   0.020
55495W        W27821   3.254  32.598   2.826
55496W        W27822  33.269  33.623   2.760
55497W        W27823  25.603  15.148  11.927
55498W        W27824  25.600  21.562   4.456
55499W        W27825  10.591  39.042  12.441
55500W        W27826  15.893  10.780   4.197
55501W        W27827   1.603  41.875  14.565
55502W        W27828  32.892  35.625   1.826
55503W        W27829  28.331  19.927   0.476
55504W        W27830  21.449  29.114  11.158
55505W        W27831  22.636  29.074   2.516
55506W        W27832  20.168  20.861  14.414
55507W        W27833   3.461  44.040   5.098
55508W        W27834   8.900  30.208   0.623
55509W        W27835  28.780  31.935   1.949
55510W        W27836  13.833  28.452   0.733
55511W        W27837  41.203  31.054  14.887
55512W        W27838  23.140   1.645  13.120
55513W        W27839  39.868  34.056   1.262
55514W        W27840   6.911  19.246   1.210
55515W        W27841  37.548  17.633   4.164
55516W        W27842  10.782  30.093   0.295
55517W        W27843  29.982  28.919  12.144
55518W        W27844   7.080  13.814   3.699
55519W        W27845  24.660  29.381  10.721
55520W        W27846  24.968  40.840  14.228
55521W        W27847  19.827  25.759   0.138
55522W        W27848  13.300  24.570  10.942
55523W        W27849   5.196  35.071  11.695
55524W        W27850   6.336   6.308  10.687
55525W        W27851  21.409   2.941  13.110
55526W        W27852   9.630  26.238   0.888
55527W        W27853  28.700  25.914   0.451
55528W        W27854  39.053   3.433  14.894
55529W        W27855  43.831  35.853   1.829
55530W        W27856   9.223  12.847   5.082
55531W        W27857  17.396   7.340  12.768
55532W        W27858  24.693  38.378  13.512
55533W        W27859  10.365  27.015  10.664
55534W        W27860  38.014  29.936   3.278
55535W        W27861   1.815   3.414   4.971
55536W        W27862  29.461   6.121  12.465
55537W        W27863  17.302  33.063  12.080
55538W        W27864  14.609   0.136   2.374
55539W        W27865  24.124  25.596   2.866
55540W        W27866  23.750  20.686   2.788
55541W        W27867  21.657   5.695   3.563
55542W        W27868  30.203  33.385  14.305
55543W        W27869  33.062  29.803   3.683
55544W        W27870   5.255  30.095   3.727
55545W        W27871  23.755   9.693  11.105
55546W        W27872  32.394  26.123  14.538
55547W        W27873  35.330  12.741   0.054
55548W        W27874  10.666  19.807   1.300
55549W        W27875  18.587  30.992   0.850
55550W        W27876  32.620  22.159   2.610
55551W        W27877  17.122  31.003   3.689
55552W        W27878  22.077   2.020   1.903
55553W        W27879  24.477  31.931   0.328
55554W        W27880  12.325   2.481   2.314
55555W        W27881  29.414   7.358  10.637
55556W        W27882  24.920  40.464  11.174
55557W        W27883   7.385  34.168   3.749
55558W        W27884   0.367  28.914  13.875
55559W        W27885  38.440  43.926  11.155
55560W        W27886  17.763  15.762  11.633
55561W        W27887   2.866  40.104   1.894
55562W        W27888   5.186  19.813  12.400
55563W        W27889   6.642   7.265   3.826
55564W        W27890  22.602  41.362   2.864
55565W        W27891  34.951   2.278   4.292
55566W        W27892  17.856   0.356   1.453
55567W        W27893  41.350  28.615  12.071
55568W        W27894  25.114   6.417   0.904
55569W        W27895  38.262  11.129   2.790
55570W        W27896  29.083  33.660  12.971
55571W        W27897  35.417  16.653  12.611
55572W        W27898  25.153   2.172  14.945
55573W        W27899   1.845  10.351   5.113
55574W        W27900   2.800  33.632  10.525
55575W        W27901  26.197   9.098   0.605
55576W        W27902  25.692  10.185  13.874
55577W        W27903  26.533  13.289   4.187
55578W        W27904  42.950  32.260  14.829
55579W        W27905  23.583  40.399   1.520
55580W        W27906  28.067  35.030  14.814
55581W        W27907  22.265  38.592   1.150
55582W        W27908  37.281  33.451  14.337
55583W        W27909   8.424  13.461   2.712
55584W        W27910  13.200  18.976   0.238
55585W        W27911   5.654  10.164   0.362
55586W        W27912  34.048  44.311   0.375
55587W        W27913  27.581   9.182   0.485
55588W        W27914  30.000  19.499  12.930
55589W        W27915   1.983  20.488  10.191
55590W        W27916  42.750  26.212   0.485
55591W        W27917   5.997  30.941   2.786
55592W        W27918  36.445  41.750  13.512
55593W        W27919  23.761  45.000  14.917
55594W        W27920  11.748   8.299  10.582
55595W        W27921  26.628  15.098   2.686
55596W        W27922   8.118  44.356   1.772
55597W        W27923  35.964  21.296  11.427
55598W        W27924   4.151  38.774   0.349
55599W        W27925   2.609  28.891   2.042
55600W        W27926  30.226  26.621   2.851
55601W        W27927  23.071  19.125  13.810
55602W        W27928  28.389  41.448  14.285
55603W        W27929  18.509  19.668   2.617
55604W        W27930   8.832  29.009   3.730
55605W        W27931  25.263  42.807  14.206
55606W        W27932  32.078  20.978   0.918
55607W        W27933  26.219  37.525  14.473
55608W        W27934  19.639  13.747   4.296
55609W        W27935  39.089   6.474  14.344
55610W        W27936  34.194  15.286   0.810
55611W        W27937   4.419  15.690  12.163
55612W        W27938  36.139  37.020  14.869
55613W        W27939  28.025  35.627  10.054
55614W        W27940  14.785  23.776  10.364
55615W        W27941  39.288   4.854  14.786
55616W        W27942  42.521  42.863  14.839
55617W        W27943  26.322  22.032   1.224
55618W        W27944  19.802  35.381  11.503
55619W        W27945   3.815  28.990   0.031
55620W        W27946  28.416  10.714   1.733
55621W        W27947  33.167  41.766  11.150
55622W        W27948  29.578  26.189  13.197
55623W        W27949  33.086   9.322  12.829
55624W        W27950  34.232  41.778  12.982
55625W        W27951  31.378  20.037   0.306
55626W        W27952   1.722   6.082  12.384
55627W        W27953  43.925  32.432   4.657
55628W        W27954  15.321   1.380  13.403
55629W        W27955  26.671  15.575  14.243
55630W        W27956   3.845  28.021   3.542
55631W        W27957  28.203  32.569   4.482
55632W        W27958   1.729  10.735  11.875
55633W        W27959  43.296  36.521   2.814
55634W        W27960  40.979  39.340   3.212
55635W        W27961  16.315  33.572   1.223
55636W        W27962  39.990   8.825  12.588
55637W        W27963   5.759   0.313  12.429
55638W        W27964  27.118  10.356  13.443
55639W        W27965  13.416   0.502   1.752
55640W        W27966  33.922   0.438   4.249
55641W        W27967  42.531  17.639   3.803
55642W        W27968  38.105   8.315   0.203
55643W        W27969  12.701   6.241  14.783
55644W        W27970   2.158   7.356  13.978
55645W        W27971   8.377  38.579  13.419
55646W        W27972  22.472  38.315  14.426
55647W        W27973  26.789  38.078   4.943
55648W        W27974  43.987  22.676   3.823
55649W        W27975  36.428  22.076  12.174
55650W        W27976  40.775  18.941   0.342
55651W        W27977  10.352   5.972   3.276
55652W        W27978   3.772  31.468   2.186
55653W        W27979  32.684  44.357   3.216
55654W        W27980  13.820  17.472  11.012
55655W        W27981   5.929  27.925  12.157
55656W        W27982  21.788   2.694  13.388
55657W        W27983  11.106  13.687  12.853
55658W        W27984  26.668  30.094   0.711
55659W        W27985  26.069  23.058  13.542
55660W        W27986  15.084  41.442   3.183
55661W        W27987  33.595  21.136  12.088
55662W        W27988   6.800  36.906   4.831
55663W        W27989  40.956  42.462   1.450
55664W        W27990  34.862  14.718   3.401
55665W        W27991  12.022   3.874  13.579
55666W        W27992   3.179  23.713  13.292
55667W        W27993  15.293   8.616   0.410
55668W        W27994   0.477  14.270   0.102
55669W        W27995  31.171  26.421  12.938
55670W        W27996  17.746  35.791   1.794
55671W        W27997  17.686  23.916  10.496
55672W        W27998  11.962  19.547   0.111
55673W        W27999  23.158   3.850   1.158
55674W        W28000  30.866  15.242   2.184
55675W        W28001  13.886   3.824  14.441
55676W        W28002   9.119   1.191  14.837
55677W        W28003  26.014  24.871  14.757
55678W        W28004  36.446  19.289  11.963
55679W        W28005   6.253  18.083  12.960
55680W        W28006   9.402  19.420   3.202
55681W        W28007  15.331  43.847  10.789
55682W        W28008  32.344  29.558   1.320
55683W        W28009   4.246  14.021  10.769
55684W        W28010  13.397  26.948   2.193
55685W        W28011  14.674  34.958  12.964
55686W        W28012  37.116  38.277   2.214
55687W        W28013  10.374   9.632   4.458
55688W        W28014  19.158  10.797  13.284
55689W        W28015  12.996   5.280   4.903
55690W        W28016   8.612  27.752  12.006
55691W        W28017  37.510  24.069   2.140
55692W        W28018  22.388  29.565  11.842
55693W        W28019  18.575   6.298   0.363
55694W        W28020  24.585  42.771   1.525
55695W        W28021  42.387  44.374  10.238
55696W        W28022  38.286  17.166   1.308
55697W        W28023  44.647  42.562  13.466
55698W        W28024  16.984  39.008   4.989
55699W        W28025  27.252  12.807  11.980
55700W        W28026  13.592  39.612   3.361
55701W        W28027  33.995  34.571  14.332
55702W        W28028  36.816  26.000   1.177
55703W        W28029  17.615  43.406  12.999
55704W        W28030  43.885  28.441   0.979
55705W        W28031  40.533  36.168  14.085
55706W        W28032  11.255  30.576   4.843
55707W        W28033  39.301  30.818  11.203
55708W        W28034   6.298  29.509  13.935
55709W        W28035  12.969  24.871  14.725
55710W        W28036  41.440   0.883   4.450
55711W        W28037   1.452  16.987   4.602
55712W        W28038  14.332  19.509   1.925
55713W        W28039  23.386  16.069  13.045
55714W        W28040  27.711  33.482  10.891
55715W        W28041  31.830  35.099   3.587
55716W        W28042   8.818   3.879  11.361
55717W        W28043  26.497   0.415   4.407
55718W        W28044  42.301  17.154   3.643
55719W        W28045  12.004  14.508  13.377
55720W        W28046  34.179  37.036  12.002
55721W        W28047  26.880  19.525   3.722
55722W        W28048  19.776  28.691   3.827
55723W        W28049  17.183  22.599  14.451
55724W        W28050  31.383  38.073   0.297
55725W        W28051  12.827  21.289   2.389
55726W        W28052  11.814   7.263   2.709
55727W        W28053  44.436  38.385   0.838
55728W        W28054   1.240  32.747  10.863
55729W        W28055  42.402  32.859   0.401
55730W        W28056  18.322  29.217  14.473
55731W        W28057  27.306  38.715  10.252
55732W        W28058  10.255   0.112   1.620
55733W        W28059  41.008  42.092  11.589
55734W        W28060  26.506  39.811  14.600
55735W        W28061   9.416   3.988  13.955
55736W        W28062   0.981  40.528   1.738
55737W        W28063  21.753  23.547  13.279
55738W        W28064  24.619  11.590  12.073
55739W        W28065   6.971  28.396  10.717
55740W        W28066  31.997  38.325   2.637
55741W        W28067   0.999  35.424  11.946
55742W        W28068  13.437  42.724  10.278
55743W        W28069  39.603  25.224  12.872
55744W        W28070  29.997  33.849  14.861
55745W        W28071  28.457  13.164  11.934
55746W        W28072  14.894  19.545   0.343
55747W        W28073  37.026   1.427  13.302
55748W        W28074   8.111   9.939  10.659
55749W        W28075  36.055  31.937   4.555
55750W        W28076  24.370  37.072   1.362
55751W        W28077  12.576  25.304  12.483
55752W        W28078   5.164  20.325  14.784
55753W        W28079   9.838  30.101   4.159
55754W        W28080  33.922   7.328  12.517
55755W        W28081  11.164  37.099  12.877
55756W        W28082  34.273  23.414  12.955
55757W        W28083  29.019  10.280  11.914
55758W        W28084  29.248   7.190   0.097
55759W        W28085  34.702  38.781   2.879
55760W        W28086   2.347   0.920   0.785
55761W        W28087  39.388  18.635   2.238
55762W        W28088  18.059  37.673   2.725
55763W        W28089  17.639  18.287  13.980
55764W        W28090  38.852   9.449   4.103
55765W        W28091  38.118  26.073   2.348
55766W        W28092  26.876  16.862   3.587
55767W        W28093   7.461  24.055   1.825
55768W        W28094  25.984  15.678   0.628
55769W        W28095  44.904   6.847  12.598
55770W        W28096  34.295  22.706  10.916
55771W        W28097   5.329  16.693  13.893
55772W        W28098  37.432   2.780  11.999
55773W        W28099  42.543  30.590   1.500
55774W        W28100  43.542  13.761  12.254
55775W        W28101  26.214  40.975   3.089
55776W        W28102  41.138  24.533   1.293
55777W        W28103  30.477  23.563  12.565
55778W        W28104  38.403   3.693  11.757
55779W        W28105  15.706  13.824  14.782
55780W        W28106  33.678  23.543  14.185
55781W        W28107   1.162  37.733  12.898
55782W        W28108  26.244   7.388  12.000
55783W        W28109  37.339   5.935   3.059
55784W        W28110  17.105  12.696  14.418
55785W        W28111  44.897   5.312  13.782
55786W        W28112   0.095  42.754   4.282
55787W        W28113   2.962  21.543  12.010
55788W        W28114  31.785   5.425  14.385
55789W        W28115  35.819  12.119   2.727
55790W        W28116  44.815  29.245  13.519
55791W        W28117  18.109  25.698  14.755
55792W        W28118  36.555  13.316  14.389
55793W        W28119  19.985  41.456  11.868
55794W        W28120  31.595  10.172   3.843
55795W        W28121  28.678  37.444   3.222
55796W        W28122  39.131  32.329  10.408
55797W        W28123   6.522  29.683  13.480
55798W        W28124   8.765  11.773   2.426
55799W        W28125   1.753   6.112   1.880
55800W        W28126  42.649  41.806  13.923
55801W        W28127  40.494  38.984   5.169
55802W        W28128  20.878  19.555   0.385
55803W        W28129  33.836  26.474   3.233
55804W        W28130  27.703   8.661  14.280
55805W        W28131  38.269   8.727  11.982
55806W        W28132  19.094   1.928   2.232
55807W        W28133  22.239  25.544   4.796
55808W        W28134  39.037  37.334  12.559
55809W        W28135  39.255  33.629   1.686
55810W        W28136  20.729  37.284   3.130
55811W        W28137  31.500   2.192  13.760
55812W        W28138  44.870  43.219   3.746
55813W        W28139  31.374  36.970   3.074
55814W        W28140   8.756  38.505  10.611
55815W        W28141   4.592  26.106   0.739
55816W        W28142   2.196  38.857  10.991
55817W        W28143  44.303  14.759  10.860
55818W        W28144  44.664  27.016   2.418
55819W        W28145  14.612  35.859   5.083
55820W        W28146  44.395  12.099  11.914
55821W        W28147  30.326   9.588  12.787
55822W        W28148  22.759  21.751   3.075
55823W        W28149  10.327  20.940  10.607
55824W        W28150   6.295  37.213   1.529
55825W        W28151   3.181   1.995  14.462
55826W        W28152   3.245  14.681  13.029
55827W        W28153   3.387   4.235   4.695
55828W        W28154  37.987   1.261   2.760
55829W        W28155  36.501  44.046  11.594
55830W        W28156  36.788  25.100  14.108
55831W        W28157  27.631   4.832  10.737
55832W        W28158  22.156  23.204   2.509
55833W        W28159  29.582   4.297  12.897
55834W        W28160   0.816   4.753   0.789
55835W        W28161   5.185   4.969   3.307
55836W        W28162   8.947   5.630  10.717
55837W        W28163   1.209  22.107   2.699
55838W        W28164  39.355  23.669  13.055
55839W        W28165   6.165   4.070   2.716
55840W        W28166  34.812   9.712   2.097
55841W        W28167  42.334  15.045   2.422
55842W        W28168  38.366  23.245  14.824
55843W        W28169  30.408  20.300  11.500
55844W        W28170   2.917  44.865  14.737
55845W        W28171  21.229  41.555   1.199
55846W        W28172  32.089  25.011  14.980
55847W        W28173  24.197  27.689  12.941
55848W        W28174  24.511  22.737  14.382
55849W        W28175  38.624  32.358  10.545
55850W        W28176  33.892  41.480   1.425
55851W        W28177   9.312  13.645   0.809
55852W        W28178   9.645  10.220   3.992
55853W        W28179  37.985   3.448   0.252
55854W        W28180  44.372  28.937  13.416
55855W        W28181  18.896  39.887   1.712
55856W        W28182  16.981   9.332  13.423
55857W        W28183  24.703  44.388   2.648
55858W        W28184  35.385  17.091  14.804
55859W        W28185   4.674  42.429   3.807
55860W        W28186  34.061  37.802  11.541
55861W        W28187  29.627   0.390   2.077
55862W        W28188  42.062   8.743  12.618
55863W        W28189  12.579  19.611   3.579
55864W        W28190  21.701  25.169   2.787
55865W        W28191   9.760   7.935  12.496
55866W        W28192  42.565  16.094  11.356
55867W        W28193  16.238   8.193  13.388
55868W        W28194  32.001  23.545   0.004
55869W        W28195  21.832  29.644  12.000
55870W        W28196   2.704  13.788   1.311
55871W        W28197  16.658  19.558   3.828
55872W        W28198   9.973  42.614  11.066
55873W        W28199  19.544  14.212   2.365
55874W        W28200   2.860   9.905   3.469
55875W        W28201  27.210  27.200  11.132
55876W        W28202  33.888  43.248  13.951
55877W        W28203   3.708   1.553  14.869
55878W        W28204  11.521   2.274   2.439
55879W        W28205   4.144  36.545   3.861
55880W        W28206   2.198  39.448  12.815
55881W        W28207  34.679  11.379   1.441
55882W        W28208  14.250  22.461   2.932
55883W        W28209  32.418  31.308   2.745
55884W        W28210  28.435   2.307  13.542
55885W        W28211  29.894  13.129  13.400
55886W        W28212  15.673  40.814   1.771
55887W        W28213  34.533  42.008   4.354
55888W        W28214  41.380   1.327   1.781
55889W        W28215  38.288  37.523  11.595
55890W        W28216  30.477  39.026   0.291
55891W        W28217  24.759  44.505   4.008
55892W        W28218  41.407  24.374  13.889
55893W        W28219  10.234   1.821  10.442
55894W        W28220  25.934   6.352   2.627
55895W        W28221  32.594  13.716  12.901
55896W        W28222  25.300   6.105  14.338
55897W        W28223  31.119   6.924   1.835
55898W        W28224  26.851   8.644   3.342
55899W        W28225   6.979  10.519   3.868
55900W        W28226   9.194  19.735  10.659
55901W        W28227  28.143  12.365  14.144
55902W        W28228  15.400  13.321  13.954
55903W        W28229   6.220  21.088   3.345
55904W        W28230  40.289   6.163   0.854
55905W        W28231   5.519  14.941  11.677
55906W        W28232  42.931  44.346  13.970
55907W        W28233  35.975  34.031   0.320
55908W        W28234  36.152   9.871  12.999
55909W        W28235   7.958  37.661   1.499
55910W        W28236   9.328   6.427  12.555
55911W        W28237  20.783  21.279  12.945
55912W        W28238  27.527  41.285  14.630
55913W        W28239  41.401  20.446  14.874
55914W        W28240  23.006  16.637   5.251
55915W        W28241  43.229   6.354  13.572
55916W        W28242  18.588  32.997   1.017
55917W        W28243  21.999  35.794  11.579
55918W        W28244  26.756  16.901  12.387
55919W        W28245  39.578   0.321  13.083
55920W        W28246  43.986  24.254  11.221
55921W        W28247   4.674   3.428   1.626
55922W        W28248  31.053   7.256   3.560
55923W        W28249  17.141  19.537  11.809
55924W        W28250  15.088  28.145  11.060
55925W        W28251  41.965  23.429  10.255
55926W        W28252  31.965  19.685  10.318
55927W        W28253   2.672  12.191  12.012
55928W        W28254  14.616  31.533  12.963
55929W        W28255  41.560  40.383  14.257
55930W        W28256  19.271  17.369   2.479
55931W        W28257  37.991  16.007  10.508
55932W        W28258  40.020   1.698   2.213
55933W        W28259  12.744   2.249   0.362
55934W        W28260   3.902  17.596  12.887
55935W        W28261  35.909  18.229   0.291
55936W        W28262  33.496  36.929  14.919
55937W        W28263  44.869  28.956  13.941
55938W        W28264  29.141  21.708   3.805
55939W        W28265  26.068  42.860  10.704
55940W        W28266  26.667   4.455  12.787
55941W        W28267  25.720   8.877  13.414
55942W        W28268  14.093  18.045   1.742
55943W        W28269  28.117  35.771  10.815
55944W        W28270   5.645   3.279  11.630
55945W        W28271  30.703  37.065  14.979
55946W        W28272  12.275  35.418   1.408
55947W        W28273  42.260  30.078   4.676
55948W        W28274  15.671  12.949  10.257
55949W        W28275  32.388  40.032  11.099
55950W        W28276  31.041  25.439   1.721
55951W        W28277   5.549  14.705   4.175
55952W        W28278  27.016  24.749   4.684
55953W        W28279  28.964   6.851  10.804
55954W        W28280  21.201  31.621   3.246
55955W        W28281  22.019   0.371  11.908
55956W        W28282  20.725   0.058   3.547
55957W        W28283   4.742  11.736  14.360
55958W        W28284   5.813  25.562   4.363
55959W        W28285  44.909  44.044   1.814
55960W        W28286  43.280  33.752  11.947
55961W        W28287  43.958   3.826   4.028
55962W        W28288   1.708  32.511  10.687
55963W        W28289  29.188   3.319   4.535
55964W        W28290  17.269  16.229  12.999
55965W        W28291  39.224  22.801   1.189
55966W        W28292  20.726  23.464  10.730
55967W        W28293  43.764  26.594   1.747
55968W        W28294   1.562  41.816   3.166
55969W        W28295  25.105  14.224   4.807
55970W        W28296  17.293  25.492   1.868
55971W        W28297   7.848  31.548   2.350
55972W        W28298  10.374  21.247   2.250
55973W        W28299  21.732   6.759   1.327
55974W        W28300  31.857  14.780   4.071
55975W        W28301  32.870  27.063  12.798
55976W        W28302  30.631  25.213   1.456
55977W        W28303  29.516  15.059   2.673
55978W        W28304   9.655  24.080  12.442
55979W        W28305  24.700   3.393   2.790
55980W        W28306  12.456  24.503   0.337
55981W        W28307  27.950  42.196  12.379
55982W        W28308  19.500  17.689   4.748
55983W        W28309  31.944   2.899   3.178
55984W        W28310  44.487  11.107  11.036
55985W        W28311  29.541   4.828  12.969
55986W        W28312  37.823   3.243   4.653
55987W        W28313  39.235  25.546  14.010
55988W        W28314  33.091  19.726  10.732
55989W        W28315  11.267  10.695  13.541
55990W        W28316  25.050  24.477  13.301
55991W        W28317  20.081  17.847   2.563
55992W        W28318  15.706  18.190   0.267
55993W        W28319  23.946   1.032   4.317
55994W        W28320  38.115  20.099  12.480
55995W        W28321  30.538  11.662   1.197
55996W        W28322  14.686  37.709  13.688
55997W        W28323   3.666  20.675   2.193
55998W        W28324  26.918   0.426   0.905
55999W        W28325   7.922  18.103  12.495
56000W        W28326   5.338   9.731  13.487
56001W        W28327  14.659  15.056   1.863
56002W        W28328   9.754  20.783  14.460
56003W        W28329  36.437  40.369   0.817
56004W        W28330  22.743  38.164   1.726
56005W        W28331   0.416  18.066  11.899
56006W        W28332  21.596  34.542   3.411
56007W        W28333   8.235  23.580  12.340
56008W        W28334  29.861  10.577   4.884
56009W        W28335   7.839   9.242  13.653
56010W        W28336  14.681  30.913  12.091
56011W        W28337  19.772  34.617   1.362
56012W        W28338  27.911  14.782  12.058
56013W        W28339  41.330  40.340   4.679
56014W        W28340  38.246   5.702  11.476
56015W        W28341  43.998  20.903   4.604
56016W        W28342   9.366  27.395  12.474
56017W        W28343   4.285  42.502   0.447
56018W        W28344  20.629  24.737  14.336
56019W        W28345  10.727   0.392   4.378
56020W        W28346   2.282   1.681  14.988
56021W        W28347   3.223   3.736   3.270
56022W        W28348  32.390   0.735   9.727
56023W        W28349   7.632  38.438   4.712
56024W        W28350  23.108  17.891   5.021
56025W        W28351   5.421   2.825  11.614
56026W        W28352  20.673   4.443  11.570
56027W        W28353  27.462   7.464  12.542
56028W        W28354  23.198  23.981  12.943
56029W        W28355  12.881  23.732   0.524
56030W        W28356  21.650  37.415   2.717
56031W        W28357  30.280  24.241   1.259
56032W        W28358  36.281  12.665  11.134
56033W        W28359   7.391  27.316  14.042
56034W        W28360  10.765  26.179  12.379
56035W        W28361  15.336  31.856   2.729
56036W        W28362  29.176  25.666  10.468
56037W        W28363  43.413   9.400  10.702
56038W        W28364  17.726  35.365  13.471
56039W        W28365  33.319   5.147  11.937
56040W        W28366  44.679  37.362  12.874
56041W        W28367  30.983  20.268  13.505
56042W        W28368  37.423  11.875   3.603
56043W        W28369   6.748  15.557   0.246
56044W        W28370  42.978  23.574  14.775
56045W        W28371  13.016  33.772   3.156
56046W        W28372   5.980  27.790   3.263
56047W        W28373   5.840   6.244  10.471
56048W        W28374  40.490  16.124   0.267
56049W        W28375  35.357  31.974   3.185
56050W        W28376   9.415  20.793  13.899
56051W        W28377  37.986  15.107  14.530
56052W        W28378  28.895  21.934  11.767
56053W        W28379  44.805  29.438   5.146
56054W        W28380  32.512   6.637  12.537
56055W        W28381  15.130   4.836   2.746
56056W        W28382  29.466  33.869  12.138
56057W        W28383  36.977  38.095   0.802
56058W        W28384   8.445   0.924   4.505
56059W        W28385   3.040  32.837  10.922
56060W        W28386  11.367  34.087   2.340
56061W        W28387  22.161   7.235   0.789
56062W        W28388  28.386  25.504   3.280
56063W        W28389  10.264  40.928   2.679
56064W        W28390  38.692  22.595  13.323
56065W        W28391   3.260   4.375  12.396
56066W        W28392   8.433  40.521   0.473
56067W        W28393  43.900   6.199   0.393
56068W        W28394  25.550  10.118   2.005
56069W        W28395  10.604  37.970   2.248
56070W        W28396  10.902  36.973   2.757
56071W        W28397  21.128  12.235   0.963
56072W        W28398  31.025  16.532   3.634
56073W        W28399  10.279  40.565  11.393
56074W        W28400  38.385  35.108   1.418
56075W        W28401  15.532  22.534  11.732
56076W        W28402  38.583  34.071   4.094
56077W        W28403  28.017  43.383  10.731
56078W        W28404  15.569  20.427  13.527
56079W        W28405   6.685  27.347   1.645
56080W        W28406  43.009  39.804   1.721
56081W        W28407  19.769  29.122   2.137
56082W        W28408   6.950  29.307  14.317
56083W        W28409  31.177  13.072   1.810
56084W        W28410  43.073  25.967   3.834
56085W        W28411  14.113  15.193   0.341
56086W        W28412  44.884  23.079   1.861
56087W        W28413  43.089  32.076   4.078
56088W        W28414   9.380  30.914   2.355
56089W        W28415  29.065  29.113  10.901
56090W        W28416  29.206   7.242   0.632
56091W        W28417  14.205  19.751   3.782
56092W        W28418   8.210  30.191   1.212
56093W        W28419   9.234   5.091   3.270
56094W        W28420  11.374  23.792   1.328
56095W        W28421  44.391  31.206   4.711
56096W        W28422   9.356  43.300   2.101
56097W        W28423  15.741  38.974   0.908
56098W        W28424   3.974  32.090  10.698
56099W        W28425   0.284  36.481  14.184
56100W        W28426  23.003  29.539  10.446
56101W        W28427   7.941  32.424  12.345
56102W        W28428  39.840  33.752   2.785
56103W        W28429  39.301  20.997   4.181
56104W        W28430  14.016  20.737  14.445
56105W        W28431  33.950  14.364   3.410
56106W        W28432   4.792  32.101  12.580
56107W        W28433  25.247  33.421  11.591
56108W        W28434   0.484  25.168   1.689
56109W        W28435  33.483  31.119   3.779
56110W        W28436   2.445  35.035   0.022
56111W        W28437  13.800  27.543  11.914
56112W        W28438  29.543  20.153   3.716
56113W        W28439  26.068  32.105  13.340
56114W        W28440  23.712  15.853   2.344
56115W        W28441   8.342  42.934   2.287
56116W        W28442   0.936  24.554   1.045
56117W        W28443   3.675  13.210  13.548
56118W        W28444  37.512   4.961   2.731
56119W        W28445  27.505  22.952  12.486
56120W        W28446  37.462  41.193   2.276
56121W        W28447  10.267  10.417   1.009
56122W        W28448  25.614  32.039  14.867
56123W        W28449  41.894  30.978   2.090
56124W        W28450  15.380   4.818   2.290
56125W        W28451  34.443  37.424  14.289
56126W        W28452   2.822  19.976   4.445
56127W        W28453   3.274  20.995   3.072
56128W        W28454  16.720   3.567   1.208
56129W        W28455   9.240  32.696   4.210
56130W        W28456  26.936  19.117   2.896
56131W        W28457  25.602   5.916  11.571
56132W        W28458  42.459  37.179  12.597
56133W        W28459  25.197  15.521   4.710
56134W        W28460  20.057  10.578   2.255
56135W        W28461  11.785  16.124  12.702
56136W        W28462   7.655   1.439  12.420
56137W        W28463  23.626  44.887  12.063
56138W        W28464  23.069  20.179  14.867
56139W        W28465  40.526  28.410   3.288
56140W        W28466  30.121   7.551  14.969
56141W        W28467  41.372  33.076   4.368
56142W        W28468  32.143  33.246   4.243
56143W        W28469   3.990  24.018   3.062
56144W        W28470  42.976  41.534  10.997
56145W        W28471  18.134   1.395   4.039
56146W        W28472  22.439  10.344  13.879
56147W        W28473  21.298  43.262   2.799
56148W        W28474   4.832  35.172  13.848
56149W        W28475   4.433  22.368   5.074
56150W        W28476  18.626  35.909  13.379
56151W        W28477   2.429  10.089  11.435
56152W        W28478   3.885  21.024  11.036
56153W        W28479  39.085   4.315   1.319
56154W        W28480  35.592  17.208  12.864
56155W        W28481  41.366  31.502   4.576
56156W        W28482   8.190  26.643  12.485
56157W        W28483  11.793   4.508   1.311
56158W        W28484   4.020  34.467   3.150
56159W        W28485  43.287   5.749   1.079
56160W        W28486  33.641  33.949  12.778
56161W        W28487  41.440  17.992  14.812
56162W        W28488  34.297  21.789   2.034
56163W        W28489  37.862  20.116   2.908
56164W        W28490   4.175  39.878   4.651
56165W        W28491  23.896  29.678  13.006
56166W        W28492  39.486  24.701   0.184
56167W        W28493   9.083  23.460   0.449
56168W        W28494  43.656   3.088   4.454
56169W        W28495  17.998  33.032   2.679
56170W        W28496  34.118  25.156   3.601
56171W        W28497  36.263   9.685  11.604
56172W        W28498  24.081  26.968   0.994
56173W        W28499  33.138  14.154  10.918
56174W        W28500  27.459  40.266   0.051
56175W        W28501  43.053   2.363   1.181
56176W        W28502   1.806  21.495   3.313
56177W        W28503  37.964  33.632   3.721
56178W        W28504  12.914  35.358   0.774
56179W        W28505  39.972  26.248  11.564
56180W        W28506   4.891  26.190  10.399
56181W        W28507   8.870  22.177  10.709
56182W        W28508  40.236  24.682  13.034
56183W        W28509  29.572  38.539   0.025
56184W        W28510   4.635   1.565   0.942
56185W        W28511  14.091  19.657   4.551
56186W        W28512  41.978  32.036  12.943
56187W        W28513  15.275  32.230  11.971
56188W        W28514   7.247  35.010   4.757
56189W        W28515  35.090  42.150  13.326
56190W        W28516  44.048   2.021   1.374
56191W        W28517  32.431  37.009   0.476
56192W        W28518  27.256  11.287   0.270
56193W        W28519  15.214  43.175  12.322
56194W        W28520  11.430  25.671  12.061
56195W        W28521  32.851  39.794  11.082
56196W        W28522   6.814   8.455  14.307
56197W        W28523  15.333  24.924   3.133
56198W        W28524  13.361  34.491   4.102
56199W        W28525  11.812  27.552   2.916
56200W        W28526  44.852   1.810   0.819
56201W        W28527  27.166   6.949  11.872
56202W        W28528  19.290  37.965   4.610
56203W        W28529   2.306  22.550  13.130
56204W        W28530   4.319  35.134   0.986
56205W        W28531   0.378   6.945  11.704
56206W        W28532  20.549  12.626  12.889
56207W        W28533  27.472  44.007   2.439
56208W        W28534  24.082  38.437  13.386
56209W        W28535   5.680   5.110   4.138
56210W        W28536   3.410  12.341   2.226
56211W        W28537  36.580  35.504   5.033
56212W        W28538  37.018  38.368  14.263
56213W        W28539  42.841  14.646   3.641
56214W        W28540  31.534   4.735  12.515
56215W        W28541  20.225  19.624   0.812
56216W        W28542   1.645  39.102  14.805
56217W        W28543  28.342   3.361   3.295
56218W        W28544  39.218  43.992   3.416
56219W        W28545   9.821  27.191  14.369
56220W        W28546  35.084   8.741   3.773
56221W        W28547  10.798   8.469   4.234
56222W        W28548  33.693   6.870  10.702
56223W        W28549  23.609  24.242   4.669
56224W        W28550  29.041  22.587   4.212
56225W        W28551  30.129  16.914  11.647
56226W        W28552   7.189  43.581   0.268
56227W        W28553  39.545  40.122   2.782
56228W        W28554  38.864  27.367  11.429
56229W        W28555  28.984  37.303  10.169
56230W        W28556  15.732  32.524  11.662
56231W        W28557  32.046  24.936  10.159
56232W        W28558  19.869  26.682  14.196
56233W        W28559  27.528   2.612   2.741
56234W        W28560  26.567  37.177   0.414
56235W        W28561  44.417  10.255  10.667
56236W        W28562  21.428  20.741  10.729
56237W        W28563  39.017  40.785   0.664
56238W        W28564  37.975  15.282  13.328
56239W        W28565   5.367  39.416   4.518
56240W        W28566  15.328  22.194   4.670
56241W        W28567  30.532  14.833  12.279
56242W        W28568  42.414  40.376  11.053
56243W        W28569  20.820  21.528  13.462
56244W        W28570  43.700  14.764  12.146
56245W        W28571  36.443  29.739   0.112
56246W        W28572   7.818  19.236  11.642
56247W        W28573  31.450  40.461  10.445
56248W        W28574  38.366   8.648   0.507
56249W        W28575  38.586  18.605  14.061
56250W        W28576   5.995  29.494  14.396
56251W        W28577  38.058  13.360   0.274
56252W        W28578   9.703   1.755   1.407
56253W        W28579  26.137  20.637  14.423
56254W        W28580  13.824  13.635   2.137
56255W        W28581  16.636  31.364   4.553
56256W        W28582  19.252  44.692  11.484
56257W        W28583  35.826   9.513  11.433
56258W        W28584  31.439  43.108   2.758
56259W        W28585  44.944  40.358  14.367
56260W        W28586  11.303  19.183   0.996
56261W        W28587  42.579  42.112   0.317
56262W        W28588  22.279  29.960  11.559
56263W        W28589  37.029  41.176  10.996
56264W        W28590  43.521  23.657  12.104
56265W        W28591  30.335  27.393  11.909
56266W        W28592   6.218  30.191  11.454
56267W        W28593  14.306  34.770   2.816
56268W        W28594   5.714  20.592   1.311
56269W        W28595  30.729  13.948  14.705
56270W        W28596   6.895  19.716   0.926
56271W        W28597  15.463  35.499   0.308
56272W        W28598  22.481  33.217   3.721
56273W        W28599  16.108  43.485  13.133
56274W        W28600  17.827  24.065  11.485
56275W        W28601  36.569   5.206  10.576
56276W        W28602   3.596  42.150   0.530
56277W        W28603  26.210  24.292   3.310
56278W        W28604  15.737   8.923   4.775
56279W        W28605  32.891  33.476  12.802
56280W        W28606  29.869   0.515   0.796
56281W        W28607  18.905  35.597   2.430
56282W        W28608   3.866  23.576   0.786
56283W        W28609  35.653  11.091   0.313
56284W        W28610   3.181  43.922   2.288
56285W        W28611  12.234  23.779   2.119
56286W        W28612  42.223   7.400  12.672
56287W        W28613  16.854   7.740   2.911
56288W        W28614  25.452  42.325  12.984
56289W        W28615   8.139  26.981   1.730
56290W        W28616  27.483  10.355  10.539
56291W        W28617   1.220  12.878  14.860
56292W        W28618   6.039   4.451   3.661
56293W        W28619  36.939   7.980   0.311
56294W        W28620  35.352  12.407  14.283
56295W        W28621  44.974  16.538   2.830
56296W        W28622  22.392  17.585  13.894
56297W        W28623  29.721  41.947  14.363
56298W        W28624  27.535  43.994  12.546
56299W        W28625  22.491  28.614  12.091
56300W        W28626  44.804  31.445   1.700
56301W        W28627  40.421  33.930   1.210
56302W        W28628   4.528   2.999  10.758
56303W        W28629  14.330   1.230   1.219
56304W        W28630  10.389   0.833  13.087
56305W        W28631  26.055  31.645   2.281
56306W        W28632  41.048  16.257   4.223
56307W        W28633  27.124  14.362   2.642
56308W        W28634   2.939  35.107  10.564
56309W        W28635  24.554  44.241  13.937
56310W        W28636   3.946  19.443   4.147
56311W        W28637  41.783  44.545   4.570
56312W        W28638  11.405  10.658   3.163
56313W        W28639  12.241  24.148  11.120
56314W        W28640   0.294  12.895   2.490
56315W        W28641  26.223  38.484   0.207
56316W        W28642   0.546  38.138   4.164
56317W        W28643  36.396   3.168   1.386
56318W        W28644  39.306  34.481  11.956
56319W        W28645  11.331  42.564  12.498
56320W        W28646  14.817  28.072   3.665
56321W        W28647  31.196  21.903   0.001
56322W        W28648  31.127  42.580   3.159
56323W        W28649   1.963  37.965  13.338
56324W        W28650  22.455  36.997  13.980
56325W        W28651  13.134  41.433  10.364
56326W        W28652  20.092  30.389   2.806
56327W        W28653  17.220  35.979   1.715
56328W        W28654   9.963  37.858   4.637
56329W        W28655  23.383  24.039  14.010
56330W        W28656  19.728  40.220  13.045
56331W        W28657  38.716  10.473   5.028
56332W        W28658  20.910  28.687  10.673
56333W        W28659   4.384   4.450   3.720
56334W        W28660   8.599   8.264  13.964
56335W        W28661  28.667  39.528  11.113
56336W        W28662  15.801  35.442  14.721
56337W        W28663  25.252  17.014  14.727
56338W        W28664  30.553  36.568   2.690
56339W        W28665  23.542  23.114  12.384
56340W        W28666  37.284  38.058  11.140
56341W        W28667  32.103  12.074   3.697
56342W        W28668   8.187  26.930   4.437
56343W        W28669  15.217  32.074  11.041
56344W        W28670  43.779   0.497   0.330
56345W        W28671  26.635   3.443  12.908
56346W        W28672   8.361  38.097   3.368
56347W        W28673  43.747   6.462  13.540
56348W        W28674  17.118  14.251  12.521
56349W        W28675   5.983  13.731   0.484
56350W        W28676   7.747  38.949  12.621
56351W        W28677  22.867  19.999  13.418
56352W        W28678  29.924  16.375   1.405
56353W        W28679   3.213  21.520  14.522
56354W        W28680   8.673  19.568   2.165
56355W        W28681  11.763  21.623   0.745
56356W        W28682  41.045  23.686  13.376
56357W        W28683  27.396   4.704  13.609
56358W        W28684   8.359  38.857  14.993
56359W        W28685  26.295  26.030   0.701
56360W        W28686  17.804  42.195  11.067
56361W        W28687  25.073  26.323  13.912
56362W        W28688  21.525  19.256  14.261
56363W        W28689  12.205  42.778  12.475
56364W        W28690  26.676  16.603  11.463
56365W        W28691  41.128  16.689  14.029
56366W        W28692   9.676  16.580   4.893
56367W        W28693  36.829  40.399   0.467
56368W        W28694  39.573  11.193   2.941
56369W        W28695   8.107  28.208  13.087
56370W        W28696  16.353  16.872  12.432
56371W        W28697   6.424  27.609  13.927
56372W        W28698  35.814  18.241   2.735
56373W        W28699  44.921   8.317  14.255
56374W        W28700  20.215  42.056  14.946
56375W        W28701  29.684  41.115  10.477
56376W        W28702  31.086   9.261  12.904
56377W        W28703   2.322  21.472  11.769
56378W        W28704  26.710  30.887  13.011
56379W        W28705  20.072  41.946  11.958
56380W        W28706   6.072   0.985   0.679
56381W        W28707  43.162  22.764  13.070
56382W        W28708  15.565   5.098   1.820
56383W        W28709  11.145  34.198   3.811
56384W        W28710  15.989  43.980   0.211
56385W        W28711  21.216  26.957  14.068
56386W        W28712   2.725  37.118   4.146
56387W        W28713  21.994  20.851  13.501
56388W        W28714   3.197  14.681   0.282
56389W        W28715  17.081   3.045   4.541
56390W        W28716   0.864  21.659   4.274
56391W        W28717  28.367   5.750   1.934
56392W        W28718  27.705  26.232   5.395
56393W        W28719  35.514   5.871   2.762
56394W        W28720  11.617  37.063   4.121
56395W        W28721   6.530  27.825  13.452
56396W        W28722  30.619  24.241  12.467
56397W        W28723  16.128   5.983  12.412
56398W        W28724  40.619  16.371  11.016
56399W        W28725  38.397  20.711   1.156
56400W        W28726  39.338  17.162   0.673
56401W        W28727  14.206  36.655   0.769
56402W        W28728  31.795   8.428   3.225
56403W        W28729  31.897  35.911  13.742
56404W        W28730   9.880  16.705   1.207
56405W        W28731  31.159  23.474   1.939
56406W        W28732  38.571   0.264  14.259
56407W        W28733  17.327  43.015  12.797
56408W        W28734  29.579  38.920  12.159
56409W        W28735  19.210   1.708   4.161
56410W        W28736   9.887  12.249  13.398
56411W        W28737  18.836  32.084  14.775
56412W        W28738   7.276   3.537   3.873
56413W        W28739  37.773  14.251   0.395
56414W        W28740  41.564  31.970   2.790
56415W        W28741  40.827  38.040  14.834
56416W        W28742  21.621  29.659  13.068
56417W        W28743  19.133  21.236   3.393
56418W        W28744  26.197  42.882   3.287
56419W        W28745   3.269  21.220   1.619
56420W        W28746   6.383   4.966  13.975
56421W        W28747   6.367   7.206   0.968
56422W        W28748   8.814  33.441   1.676
56423W        W28749  29.121  30.208  11.128
56424W        W28750  13.849  30.974  12.268
56425W        W28751  30.635   7.892  14.153
56426W        W28752   0.545  25.106   0.808
56427W        W28753  33.783   8.368   3.593
56428W        W28754  17.078   1.242   3.715
56429W        W28755  30.595  37.438  13.970
56430W        W28756  17.204  44.780  13.377
56431W        W28757  28.473   9.625   0.635
56432W        W28758   9.505  26.922  13.748
56433W        W28759  15.253  20.826  11.921
56434W        W28760  10.723  21.187   4.580
56435W        W28761  41.368  32.587  13.449
56436W        W28762   4.307  31.406  11.937
56437W        W28763   4.905  25.408  13.011
56438W        W28764  26.174   4.593  11.129
56439W        W28765  27.180   0.352  14.992
56440W        W28766   5.115  43.340   4.496
56441W        W28767  27.979  20.380   0.507
56442W        W28768  30.538  44.211  13.347
56443W        W28769  38.621   8.704   2.282
56444W        W28770   6.988  32.968  11.185
56445W        W28771  33.573  14.847  12.839
56446W        W28772  29.891  41.258  13.028
56447W        W28773  25.517  25.297  11.053
56448W        W28774  33.056  29.061   1.551
56449W        W28775  30.565   7.847  12.290
56450W        W28776   0.120  44.405  10.789
56451W        W28777  42.377  27.765  10.465
56452W        W28778  43.434   0.032   3.655
56453W        W28779   3.372   3.829  10.303
56454W        W28780  25.545  33.113  14.903
56455W        W28781  32.449  40.934   2.932
56456W        W28782  43.918  35.535  11.604
56457W        W28783  21.474  19.819   2.283
56458W        W28784  19.766   0.934   4.698
56459W        W28785  33.500  18.157   3.160
56460W        W28786   0.852  25.167  10.403
56461W        W28787  20.136  29.836   4.680
56462W        W28788  40.082   3.735   4.645
56463W        W28789  10.883  19.007   2.633
56464W        W28790  40.651   2.962  12.804
56465W        W28791  34.885  38.090   3.189
56466W        W28792  14.718   5.251  10.694
56467W        W28793  38.919  15.816   4.640
56468W        W28794  31.856  28.932   2.717
56469W        W28795  37.481  36.583  14.610
56470W        W28796   8.620  16.652   4.595
56471W        W28797  29.973  41.529   1.515
56472W        W28798  32.004  37.753  12.825
56473W        W28799  26.049  18.599  10.907
56474W        W28800   5.397  27.935   4.539
56475W        W28801  12.798   8.783   0.270
56476W        W28802  37.345  40.793   1.664
56477W        W28803  39.114  41.991  11.446
56478W        W28804  21.752  43.970  12.577
56479W        W28805  15.460  35.449   3.962
56480W        W28806  16.651  26.277   2.394
56481W        W28807  24.554  25.156  10.565
56482W        W28808  23.211  36.354  13.529
56483W        W28809   2.465  19.510  12.828
56484W        W28810   5.538   4.610   1.795
56485W        W28811  39.136  44.809   2.780
56486W        W28812  11.577  15.081  11.975
56487W        W28813  15.712  36.584   4.540
56488W        W28814  10.501  41.660   4.833
56489W        W28815  37.820  40.919  14.489
56490W        W28816  16.174  29.513   0.767
56491W        W28817  14.961  19.242   2.688
56492W        W28818  18.670  30.651   4.979
56493W        W28819  15.618  32.933  12.067
56494W        W28820  36.562  10.119  14.899
56495W        W28821  40.508  39.762   1.839
56496W        W28822  40.326   3.449   5.037
56497W        W28823  38.329  28.798   1.866
56498W        W28824  19.479  11.810  12.030
56499W        W28825  32.445  30.655  14.894
56500W        W28826  19.177   2.487   0.995
56501W        W28827   8.178   5.914  13.517
56502W        W28828   7.354  17.653   0.292
56503W        W28829   7.294  34.879  14.480
56504W        W28830  28.984  32.589   1.861
56505W        W28831  43.447  30.638   4.443
56506W        W28832   1.204  31.326   1.718
56507W        W28833  22.803  44.339   5.062
56508W        W28834  19.160  11.607  13.380
56509W        W28835  17.106  42.363   3.308
56510W        W28836  34.580  32.669   4.190
56511W        W28837  28.090  42.033   1.037
56512W        W28838  21.564  28.458  14.687
56513W        W28839  19.182  19.702   0.439
56514W        W28840  23.581  36.554   2.222
56515W        W28841  14.180  36.211  10.206
56516W        W28842  40.348   7.154  14.249
56517W        W28843  10.396  23.554  13.389
56518W        W28844  34.806  42.797  10.726
56519W        W28845   8.115  25.172  13.389
56520W        W28846  27.179  21.459  13.308
56521W        W28847  11.734  16.798  13.060
56522W        W28848   3.834   5.786   0.736
56523W        W28849  34.092  40.429   0.035
56524W        W28850  43.280  13.820   2.890
56525W        W28851  11.903  29.725   2.116
56526W        W28852  41.812  21.891   4.153
56527W        W28853  29.231  23.472   1.863
56528W        W28854  21.267   1.275  12.603
56529W        W28855   3.975  15.381   3.404
56530W        W28856   6.582  12.028  14.418
56531W        W28857  20.365  10.335  12.099
56532W        W28858  10.818  25.548  11.629
56533W        W28859  29.675  20.162   4.922
56534W        W28860   5.907   2.716   2.313
56535W        W28861  43.697  35.070  11.609
56536W        W28862  13.832  31.154   4.649
56537W        W28863  25.388   6.601  14.373
56538W        W28864  28.074   9.317  10.036
56539W        W28865  17.250  27.206  14.817
56540W        W28866  11.569  33.588  12.984
56541W        W28867  42.360  23.938  14.291
56542W        W28868  38.539  10.949   0.552
56543W        W28869  39.761   9.854  12.479
56544W        W28870  20.775  16.055  13.765
56545W        W28871  24.257  15.678   3.144
56546W        W28872  15.252   9.411  14.009
56547W        W28873  25.014  35.228  11.969
56548W        W28874  10.948  12.249  14.351
56549W        W28875  29.040  35.872   4.602
56550W        W28876  43.277   5.015   2.706
56551W        W28877  18.041  17.269   2.296
56552W        W28878   8.715  39.121  12.201
56553W        W28879  11.584   3.385   2.815
56554W        W28880   8.848  22.446   1.846
56555W        W28881  41.357   2.750   3.116
56556W        W28882  17.677  40.890  14.833
56557W        W28883  24.670   5.029  12.826
56558W        W28884  33.935  22.163  11.155
56559W        W28885  13.323   3.453   1.751
56560W        W28886   8.356  42.801   3.400
56561W        W28887  20.475  25.029   0.829
56562W        W28888  26.477  30.850   4.660
56563W        W28889  25.658  25.259  12.489
56564W        W28890   3.358   9.838   0.909
56565W        W28891  17.749   7.483   4.133
56566W        W28892  31.131  44.836   0.733
56567W        W28893  12.349  41.910   3.116
56568W        W28894   5.228  42.752  11.997
56569W        W28895  28.025  31.082   1.311
56570W        W28896  12.025  40.889  12.520
56571W        W28897  22.486  11.078  11.924
56572W        W28898  27.899  33.053   3.129
56573W        W28899   6.395   8.914   1.753
56574W        W28900   5.670  42.250   2.743
56575W        W28901  14.328   3.285   1.597
56576W        W28902  17.865  35.583   2.734
56577W        W28903  20.295  40.021   3.196
56578W        W28904  32.648   2.925   0.533
56579W        W28905   4.185  20.668  14.460
56580W        W28906   7.245  24.595   4.470
56581W        W28907  24.203  41.433   5.153
56582W        W28908  40.629   6.374  11.489
56583W        W28909  20.620  42.043  12.857
56584W        W28910  16.297  33.329  14.574
56585W        W28911  27.737   7.645   0.841
56586W        W28912  18.614  36.882   3.794
56587W        W28913  30.739   2.120   4.110
56588W        W28914  33.914  17.262   3.974
56589W        W28915  26.916   3.955  12.521
56590W        W28916  33.523  35.400  12.448
56591W        W28917  39.239  11.334  10.955
56592W        W28918   5.360  26.916  14.457
56593W        W28919  38.942  27.592  11.896
56594W        W28920  28.951  20.240  14.423
56595W        W28921  25.164   1.920  14.466
56596W        W28922  20.103  40.952   0.475
56597W        W28923  38.306  28.388  13.824
56598W        W28924  43.317  25.522   3.708
56599W        W28925  11.171  44.991   1.215
56600W        W28926  35.843   8.153  10.838
56601W        W28927   9.073  21.000  13.057
56602W        W28928  27.973  20.198  13.350
56603W        W28929  38.641  43.804  14.465
56604W        W28930   0.123  38.335  13.068
56605W        W28931  25.838   9.695  12.622
56606W        W28932   6.481  41.406   2.079
56607W        W28933  25.957  14.504  10.630
56608W        W28934  17.654  19.543   1.481
56609W        W28935  16.168  30.976   2.602
56610W        W28936  37.144  35.931   2.381
56611W        W28937  22.280  29.573   1.401
56612W        W28938  17.642  37.333  10.282
56613W        W28939  22.991  22.870  11.542
56614W        W28940  40.365   3.686  11.965
56615W        W28941  10.117  33.588  13.673
56616W        W28942  26.090   3.394   4.231
56617W        W28943  41.153  44.061  13.792
56618W        W28944  19.538   7.716  11.519
56619W        W28945  23.818  27.718   3.343
56620W        W28946   3.665  15.875   4.560
56621W        W28947  34.718  16.751  11.045
56622W        W28948  39.734  34.367   3.121
56623W        W28949  10.123  28.564  11.939
56624W        W28950  40.380  27.157  11.208
56625W        W28951  33.623  29.147  12.456
56626W        W28952   4.089  20.042   4.918
56627W        W28953   9.649  39.691   0.407
56628W        W28954   4.175  12.341  10.619
56629W        W28955   1.325  29.094  11.486
56630W        W28956  44.333  33.494   4.020
56631W        W28957  41.462  36.429   0.712
56632W        W28958  13.979   0.104  13.518
56633W        W28959  17.285  18.576   4.916
56634W        W28960  32.795   5.188  14.466
56635W        W28961  43.695   6.849   2.126
56636W        W28962  38.956   2.738   1.780
56637W        W28963  13.222  43.794   0.807
56638W        W28964   4.398   1.987  12.467
56639W        W28965   7.186  37.240  13.985
56640W        W28966  41.214  35.268  11.783
56641W        W28967   5.434  12.171  11.211
56642W        W28968   8.785   8.813  13.865
56643W        W28969  31.572  41.394  10.886
56644W        W28970   2.323   4.219  10.641
56645W        W28971   4.411  40.456  10.692
56646W        W28972  37.014  39.733   3.746
56647W        W28973  14.392  36.054  12.954
56648W        W28974  43.104  41.888   0.356
56649W        W28975  33.866   4.359  14.608
56650W        W28976  37.469  21.449   4.069
56651W        W28977  15.778   0.361   0.226
56652W        W28978   5.208  24.178  14.413
56653W        W28979  17.358   9.312   0.850
56654W        W28980  33.005  35.394  13.281
56655W        W28981   5.970  42.025   4.053
56656W        W28982  43.894  38.247   0.012
56657W        W28983   3.313  27.101  14.312
56658W        W28984   6.343  28.845   1.938
56659W        W28985  35.489  24.968  13.778
56660W        W28986  44.819  10.652   0.754
56661W        W28987   6.470  25.544  12.888
56662W        W28988  23.496  18.845  13.858
56663W        W28989  36.935  25.120  13.059
56664W        W28990  43.204  38.435   0.578
56665W        W28991   9.727  23.652  11.983
56666W        W28992  40.102  15.064   4.161
56667W        W28993   6.596  21.569   3.585
56668W        W28994   3.505  27.127   2.289
56669W        W28995   7.252   8.438  10.712
56670W        W28996  36.074  28.541   3.237
56671W        W28997  42.415  26.985  14.245
56672W        W28998  43.842  11.949   1.868
56673W        W28999  30.961  27.452   4.692
56674W        W29000  43.420  40.179  14.154
56675W        W29001  17.882  17.258  10.581
56676W        W29002   3.623   7.217  12.081
56677W        W29003  17.080  24.414   0.863
56678W        W29004  24.146  15.140   2.473
56679W        W29005  37.990  22.969   0.023
56680W        W29006  19.372  19.416  13.571
56681W        W29007  12.316   9.591   1.297
56682W        W29008  41.499  21.484  12.646
56683W        W29009  32.541  44.337   3.718
56684W        W29010  38.004  44.225  10.085
56685W        W29011  10.723  24.484   0.429
56686W        W29012  43.483  10.227  14.877
56687W        W29013  42.796  22.076  12.888
56688W        W29014  25.230  16.298   0.435
56689W        W29015  44.940  29.479   3.159
56690W        W29016  27.228  25.944  10.144
56691W        W29017   2.369  25.575  13.028
56692W        W29018  43.272  13.837   1.047
56693W        W29019  34.359  30.839   3.142
56694W        W29020  32.183   6.161   0.440
56695W        W29021   7.200   1.705   2.398
56696W        W29022  16.698  30.142  10.945
56697W        W29023  31.878  42.855   1.901
56698W        W29024   8.161   8.214   1.018
56699W        W29025  36.382  13.018  13.975
56700W        W29026  23.942   1.189  11.624
56701W        W29027   5.448  23.229   2.812
56702W        W29028  13.077  21.466  13.249
56703W        W29029  15.115  21.321   0.292
56704W        W29030  41.486  43.632   3.614
56705W        W29031  29.422  16.475   2.717
56706W        W29032  11.796  37.188  13.325
56707W        W29033  24.559  24.919   1.427
56708W        W29034  29.728  29.102  12.583
56709W        W29035  44.857  14.058  11.816
56710W        W29036  22.593  13.107   4.001
56711W        W29037  24.212  34.075  11.015
56712W        W29038   6.498   3.313   1.324
56713W        W29039  25.136  16.782   4.951
56714W        W29040  33.805   8.166  10.840
56715W        W29041   4.736   6.655   2.351
56716W        W29042  15.080   5.748   2.795
56717W        W29043  32.869   7.866   0.809
56718W        W29044  12.114  43.002  14.856
56719W        W29045  42.003   9.460  10.565
56720W        W29046  30.028  13.091   2.240
56721W        W29047  36.265  23.642   0.327
56722W        W29048   6.467  19.700   3.312
56723W        W29049   6.113  18.338  11.563
56724W        W29050  17.958  36.581   3.887
56725W        W29051   9.485  28.606   1.790
56726W        W29052  33.976  27.428  13.355
56727W        W29053  14.083  20.549  11.166
56728W        W29054  38.985  25.100   1.299
56729W        W29055  28.548  29.288   5.250
56730W        W29056  35.979  11.905   3.181
56731W        W29057  21.842  35.489  14.976
56732W        W29058  26.299  42.463   1.774
56733W        W29059  40.414  10.430   2.860
56734W        W29060  39.905   9.761  11.187
56735W        W29061  30.618  10.303   1.945
56736W        W29062  41.955  40.393  12.634
56737W        W29063  16.888  24.695  11.155
56738W        W29064  43.601   5.096  12.566
56739W        W29065  38.470  41.458  11.437
56740W        W29066  44.713  33.591   0.393
56741W        W29067   2.262   7.782  13.060
56742W        W29068  35.076  17.706  14.531
56743W        W29069   5.356   0.410  12.127
56744W        W29070  35.109  24.497   1.503
56745W        W29071  16.447  38.331   3.779
56746W        W29072  32.674  28.939   0.261
56747W        W29073  37.379   9.098   2.779
56748W        W29074  24.671   3.728  10.854
56749W        W29075   4.296  13.044  11.066
56750W        W29076  44.122  10.745  12.085
56751W        W29077  26.381  22.602   0.360
56752W        W29078  11.836  21.102  12.632
56753W        W29079  11.721  23.794   1.940
56754W        W29080  37.542  23.122  12.547
56755W        W29081   5.773  41.756   3.640
56756W        W29082  16.575  27.859   1.499
56757W        W29083  35.425  20.999  12.679
56758W        W29084  39.614  23.979   4.088
56759W        W29085  32.531  15.856  12.041
56760W        W29086  14.897   4.390   2.798
56761W        W29087  18.103  42.382  10.664
56762W        W29088  40.543   9.923   2.824
56763W        W29089  17.296  14.153  13.434
56764W        W29090   3.331  21.222  14.058
56765W        W29091  33.608  15.171   1.281
56766W        W29092  30.087  26.201   2.515
56767W        W29093  12.691  37.298  10.549
56768W        W29094  43.345  30.446  11.095
56769W        W29095  18.742   3.481  10.559
56770W        W29096  11.109  37.642  12.922
56771W        W29097  31.518   2.531   2.280
56772W        W29098  37.831   7.888  12.104
56773W        W29099   0.950   0.306   0.927
56774W        W29100  36.291  35.503   0.668
56775W        W29101  36.330  10.258   3.124
56776W        W29102  41.416  12.877  13.911
56777W        W29103   3.040  37.925   3.186
56778W        W29104  37.788  16.697   0.050
56779W        W29105   8.565   2.874   3.868
56780W        W29106  36.022   2.798  11.581
56781W        W29107  25.451  16.558  10.884
56782W        W29108  27.448  19.231   1.847
56783W        W29109  17.289   7.123   0.725
56784W        W29110  25.975   2.613  14.186
56785W        W29111  14.213   5.156   3.761
56786W        W29112  17.255  35.081  13.578
56787W        W29113  44.573  38.288  10.587
56788W        W29114  25.187  44.963   4.529
56789W        W29115   0.805  15.130  12.175
56790W        W29116  29.536  43.576  14.541
56791W        W29117  29.973  20.805  12.470
56792W        W29118  24.712   9.801   4.138
56793W        W29119  39.368  41.254  13.694
56794W        W29120  10.606  39.034  13.906
56795W        W29121  23.989   7.805   1.819
56796W        W29122  19.148  13.856  12.800
56797W        W29123  20.269  36.481   3.807
56798W        W29124  14.833  39.468  11.023
56799W        W29125   6.739  22.875   4.167
56800W        W29126  16.221  24.224  11.697
56801W        W29127  25.445  22.095  13.048
56802W        W29128  18.137  10.778   3.665
56803W        W29129  32.538   9.338   4.414
56804W        W29130  13.689   2.017   2.354
56805W        W29131   4.785  34.954   3.660
56806W        W29132  40.592  42.797  13.894
56807W        W29133  21.790  29.465  12.553
56808W        W29134  26.501  37.843   1.783
56809W        W29135  33.906  13.891   1.954
56810W        W29136  25.599   1.884   3.987
56811W        W29137  43.981  28.974   4.767
56812W        W29138  17.996  33.545   4.543
56813W        W29139  16.576   5.726  12.492
56814W        W29140  40.035  23.901  14.352
56815W        W29141  29.041  13.805   2.257
56816W        W29142  20.986  16.591   1.941
56817W        W29143   2.753  31.287  11.020
56818W        W29144  22.596  27.237  10.999
56819W        W29145   7.383   3.645  12.032
56820W        W29146   9.750   1.401   2.741
56821W        W29147  29.854  21.316   4.200
56822W        W29148  14.741   3.312   3.588
56823W        W29149  44.028  39.059   3.725
56824W        W29150  31.796  16.483   0.379
56825W        W29151  40.851  24.144  12.519
56826W        W29152  39.942  14.368  10.978
56827W        W29153  10.207  37.518  14.884
56828W        W29154   6.958   1.212  11.883
56829W        W29155   9.541   1.525   3.190
56830W        W29156  43.028  44.776   2.743
56831W        W29157  11.259   4.918  13.824
56832W        W29158  23.738   0.879  14.439
56833W        W29159  38.287   3.977  12.710
56834W        W29160  41.062  18.648  10.774
56835W        W29161  37.491  38.405  14.047
56836W        W29162   6.336  33.633  12.318
56837W        W29163  13.039  36.022  13.395
56838W        W29164   3.783  38.530  11.345
56839W        W29165   2.242   1.026  11.940
56840W        W29166  20.095   2.007  10.634
56841W        W29167   3.392  14.969  11.642
56842W        W29168  32.309  24.620  13.869
56843W        W29169  27.226  37.501  14.222
56844W        W29170  25.686  29.240  12.062
56845W        W29171  42.964  43.801   2.875
56846W        W29172  43.464  26.047  10.551
56847W        W29173  40.904  44.219  12.002
56848W        W29174  14.613  27.128  13.807
56849W        W29175  19.675   2.697  14.024
56850W        W29176  16.511  27.975   2.687
56851W        W29177  32.896  11.833  13.059
56852W        W29178   7.002   6.928   4.102
56853W        W29179  13.917  30.573  13.082
56854W        W29180  43.284  36.081   3.873
56855W        W29181  37.612  42.010   1.291
56856W        W29182  21.591  20.347   1.868
56857W        W29183  28.608  38.841  11.824
56858W        W29184   3.447  12.747  13.800
56859W        W29185  40.963  37.576   2.425
56860W        W29186  17.007  21.559   3.010
56861W        W29187  16.726  32.743   3.187
56862W        W29188  34.071  39.428  13.122
56863W        W29189   0.954   8.167   0.770
56864W        W29190  36.338  32.619   1.482
56865W        W29191   7.171  44.505   0.219
56866W        W29192  28.682  43.258  11.326
56867W        W29193  31.996  38.756   0.407
56868W        W29194   4.981  44.246   3.783
56869W        W29195  18.754  43.331   3.082
56870W        W29196  14.167  41.001   0.872
56871W        W29197  44.367  38.956  14.658
56872W        W29198  13.770  41.021   1.903
56873W        W29199  22.398  34.287   1.313
56874W        W29200  40.841  24.119  13.146
56875W        W29201  10.583   1.731  13.062
56876W        W29202   3.008  20.599  11.079
56877W        W29203  28.875  40.454   2.801
56878W        W29204  20.277  37.384   2.430
56879W        W29205  41.744  27.012  10.633
56880W        W29206  44.863  20.226   4.546
56881W        W29207  29.183  19.065  12.936
56882W        W29208  26.866  25.676  10.423
56883W        W29209  16.894  22.886   0.854
56884W        W29210  12.692  42.178   2.838
56885W        W29211  43.913  38.249  14.494
56886W        W29212   0.947  40.236   0.897
56887W        W29213  38.992  40.809  14.828
56888W        W29214  11.812  22.509  10.774
56889W        W29215  31.327  37.513   4.637
56890W        W29216  21.226   4.583   0.874
56891W        W29217  25.563   1.965  10.712
56892W        W29218  27.351  29.509  14.660
56893W        W29219  19.816  19.997  12.092
56894W        W29220   4.707  34.978  11.491
56895W        W29221  19.024  12.332   4.416
56896W        W29222   5.707  11.955   4.140
56897W        W29223  31.053  36.563  11.281
56898W        W29224  12.370   4.474   3.396
56899W        W29225  27.424   2.750   0.097
56900W        W29226   3.139  38.470   2.007
56901W        W29227  21.533  21.992   1.367
56902W        W29228  41.215  24.031  11.163
56903W        W29229  37.503  29.598  13.474
56904W        W29230  15.308   4.571  10.515
56905W        W29231  28.669  19.140  13.082
56906W        W29232  25.630  39.849  10.664
56907W        W29233   6.943  30.600  12.974
56908W        W29234  27.115  10.966   2.818
56909W        W29235  28.399  22.529   0.694
56910W        W29236  13.491   7.398   0.814
56911W        W29237  13.041  13.586   1.750
56912W        W29238  38.516   7.293  13.373
56913W        W29239  36.395  44.101  12.935
56914W        W29240   1.314  21.399  13.467
56915W        W29241  39.752   9.246  10.848
56916W        W29242  20.532  36.914   1.504
56917W        W29243  27.065  12.603  14.923
56918W        W29244  27.762  42.179  13.773
56919W        W29245  35.762   9.396  13.922
56920W        W29246  20.563  42.497   4.355
56921W        W29247   7.448  25.709   0.374
56922W        W29248   3.706  14.816  14.410
56923W        W29249  27.279  44.386  11.383
56924W        W29250   4.242   3.350  10.483
56925W        W29251  32.439  38.548  14.805
56926W        W29252  13.678  31.383   0.039
56927W        W29253   0.088  36.989  14.247
56928W        W29254  32.479  28.967  10.661
56929W        W29255   9.773  37.001   1.825
56930W        W29256  28.110  22.549   3.198
56931W        W29257  11.252   7.510   1.083
56932W        W29258  40.805  12.829   2.842
56933W        W29259  28.332   0.956   0.432
56934W        W29260  40.858  12.049  10.548
56935W        W29261  30.216  35.486  11.112
56936W        W29262  17.391  27.150   2.202
56937W        W29263   7.673  38.475   0.515
56938W        W29264  29.918  22.476  14.836
56939W        W29265  18.475  41.898   1.157
56940W        W29266   5.234  31.666   3.726
56941W        W29267  15.408  20.315  14.446
56942W        W29268   9.093  38.911  12.470
56943W        W29269  39.414  30.350  12.281
56944W        W29270   0.927  11.130  12.843
56945W        W29271  25.515   6.395  12.464
56946W        W29272  25.657  15.289  14.719
56947W        W29273   2.535  12.734   0.913
56948W        W29274   6.515  30.022   4.250
56949W        W29275   3.004  34.355  14.597
56950W        W29276  23.934  44.739   1.771
56951W        W29277   6.737   4.106  14.189
56952W        W29278  42.441  12.198  11.492
56953W        W29279   5.636  29.128   4.268
56954W        W29280   4.926  15.225  11.006
56955W        W29281   9.534  34.232  12.612
56956W        W29282  17.510  25.063   9.629
56957W        W29283  18.020  44.103  11.364
56958W        W29284   9.202  37.583  12.015
56959W        W29285  17.797  34.417   2.670
56960W        W29286  23.506   7.768   0.912
56961W        W29287  30.098  12.321   4.165
56962W        W29288  33.521  27.929  11.947
56963W        W29289  24.103  12.670   3.846
56964W        W29290  16.025  10.204   0.316
56965W        W29291  21.201   4.488  14.229
56966W        W29292   7.784   2.050  12.997
56967W        W29293  30.760   4.491   2.383
56968W        W29294  31.437  19.084  12.616
56969W        W29295  21.028  12.079   2.286
56970W        W29296  19.054  16.596   2.831
56971W        W29297  32.428  35.425   1.622
56972W        W29298   9.164  13.238  11.125
56973W        W29299  23.153  39.614  13.161
56974W        W29300   1.827  42.489   2.422
56975W        W29301  15.728  32.117  11.352
56976W        W29302  15.244  21.215   4.986
56977W        W29303  16.722   3.914  14.821
56978W        W29304  36.145   2.345  12.379
56979W        W29305  25.197   2.092   3.738
56980W        W29306   2.845  17.192  13.022
56981W        W29307  15.626   4.212  12.558
56982W        W29308  38.721   8.397   1.866
56983W        W29309  31.630  12.919   4.805
56984W        W29310  14.788  20.226  13.109
56985W        W29311   9.490  22.158   2.762
56986W        W29312  32.280   9.131  14.767
56987W        W29313  26.714  37.320  10.187
56988W        W29314  43.716  33.389   0.544
56989W        W29315   6.860   1.275   0.030
56990W        W29316   3.421  34.140  14.976
56991W        W29317  35.418  19.756   4.264
56992W        W29318  38.922  44.233  13.426
56993W        W29319  33.587  32.595   2.833
56994W        W29320  20.430  41.907  13.828
56995W        W29321   2.818  16.494  12.118
56996W        W29322   7.256  44.349   3.773
56997W        W29323   2.974  27.525  10.722
56998W        W29324  16.457   0.845   0.061
56999W        W29325  15.988  35.664  13.451
57000W        W29326  33.181  15.668  11.614
57001W        W29327  15.058  39.974  11.056
57002W        W29328  42.716  10.385  11.026
57003W        W29329  23.119  13.848  10.579
57004W        W29330  43.999  26.729   1.295
57005W        W29331   9.739  20.725  12.548
57006W        W29332  22.208   0.434   3.742
57007W        W29333  38.018  17.814   1.740
57008W        W29334  11.089  44.898   3.372
57009W        W29335  40.391  19.339  13.412
57010W        W29336  24.141   4.484   4.905
57011W        W29337  14.842   3.871  12.943
57012W        W29338  35.434  38.275  11.646
57013W        W29339   4.882  17.804   2.230
57014W        W29340   0.815   2.125   1.186
57015W        W29341   2.892  24.644  11.630
57016W        W29342  34.867  36.848   2.782
57017W        W29343  23.248  23.069  11.971
57018W        W29344  26.330   0.738   1.704
57019W        W29345  26.797  13.054   1.766
57020W        W29346  37.089  26.749   0.970
57021W        W29347  24.660  32.871   2.254
57022W        W29348  40.477  11.775  11.254
57023W        W29349  20.454  29.702   4.185
57024W        W29350   5.540  33.082   4.804
57025W        W29351  39.556  40.950  14.058
57026W        W29352  15.023   8.417   0.806
57027W        W29353  41.575  20.526   0.483
57028W        W29354  23.006  29.590   4.413
57029W        W29355  21.799  28.995   0.927
57030W        W29356  33.265  21.991  12.452
57031W        W29357  38.838  28.322   4.558
57032W        W29358  14.648   1.126  14.814
57033W        W29359  14.922  17.050   1.000
57034W        W29360   1.045  39.411  11.320
57035W        W29361  12.849  22.035  14.017
57036W        W29362  10.204   5.110  14.814
57037W        W29363   1.215  14.727   0.310
57038W        W29364  33.363  34.968   4.627
57039W        W29365  37.361  22.112   3.109
57040W        W29366  20.085  36.548   0.496
57041W        W29367   4.337   5.253   5.076
57042W        W29368  39.792  25.723   2.832
57043W        W29369  36.403  17.130  12.403
57044W        W29370   8.161  19.497   2.511
57045W        W29371  13.258  32.331  11.531
57046W        W29372   9.742  19.677   0.290
57047W        W29373  18.796  36.041   2.154
57048W        W29374  41.314  41.068  11.016
57049W        W29375  31.558   0.252   3.697
57050W        W29376  42.702   0.577   1.717
57051W        W29377   3.336  27.586  13.313
57052W        W29378   2.533  43.242  13.604
57053W        W29379  34.888  36.193   9.771
57054W        W29380   1.922   7.186  12.582
57055W        W29381  25.128  31.966  11.497
57056W        W29382   4.198   5.305   1.297
57057W        W29383  14.679  18.543   1.863
57058W        W29384  14.195  44.213  13.462
57059W        W29385  38.877  35.334  12.786
57060W        W29386  14.257  24.499  11.950
57061W        W29387  31.699   7.462   1.778
57062W        W29388   9.219  31.125   4.033
57063W        W29389  43.778  10.210  11.614
57064W        W29390   4.656  12.247  11.677
57065W        W29391  43.336   2.208   2.754
57066W        W29392  27.480  34.464   0.261
57067W        W29393  33.850   3.657  13.739
57068W        W29394  23.633  11.871   1.873
57069W        W29395   3.478  16.681  12.575
57070W        W29396   4.394  33.305  14.893
57071W        W29397  28.402  18.816  10.651
57072W        W29398  33.703  28.591  14.596
57073W        W29399  40.289   2.665   3.701
57074W        W29400   8.737  24.789   4.799
57075W        W29401  11.106  38.028  12.111
57076W        W29402  42.989  27.804  13.184
57077W        W29403   6.862  20.191   1.685
57078W        W29404  42.837   3.201   0.828
57079W        W29405  40.363  42.217   1.986
57080W        W29406   6.887   3.064  11.454
57081W        W29407  29.185  26.493   0.880
57082W        W29408   2.442  44.016  12.345
57083W        W29409  41.869  27.976  12.485
57084W        W29410  35.366  30.524   1.030
57085W        W29411  35.494  26.119  13.031
57086W        W29412  19.657   5.142  13.577
57087W        W29413  17.805   2.959   0.768
57088W        W29414  41.098  20.711  11.953
57089W        W29415  37.471  23.667  11.361
57090W        W29416  38.415  43.472  11.938
57091W        W29417   8.737  23.763   0.203
57092W        W29418  30.155  35.446   1.572
57093W        W29419  44.325  30.997  13.373
57094W        W29420   8.707  31.586  13.311
57095W        W29421   8.840  34.429   3.675
57096W        W29422  23.232  14.349  13.613
57097W        W29423  37.820  32.933   3.364
57098W        W29424   8.824  32.249  10.774
57099W        W29425  34.477  26.076   1.924
57100W        W29426  43.021   4.652  14.333
57101W        W29427  19.243  38.438   1.196
57102W        W29428   3.971  16.728  12.432
57103W        W29429  19.691  39.846   2.323
57104W        W29430  16.202   0.323  14.867
57105W        W29431  10.289  29.238  11.946
57106W        W29432  23.670  37.983  12.357
57107W        W29433   8.719  16.546  12.909
57108W        W29434  11.084  40.248  12.084
57109W        W29435  19.110  20.892  13.704
57110W        W29436  15.767  27.778  11.757
57111W        W29437   9.269  41.816  12.134
57112W        W29438  33.725  23.295   0.916
57113W        W29439   8.123  22.983   2.171
57114W        W29440   7.204  28.422   4.606
57115W        W29441  17.501  13.224   3.827
57116W        W29442  13.100  30.441   5.088
57117W        W29443  35.211  11.083  13.239
57118W        W29444  41.720  25.069   3.263
57119W        W29445  30.430  38.602   0.978
57120W        W29446   3.862  33.901  14.248
57121W        W29447  29.579  21.680  11.500
57122W        W29448   5.227   1.073   1.265
57123W        W29449   7.756  42.472  10.561
57124W        W29450  27.019  23.382   3.233
57125W        W29451  38.020  13.208   1.804
57126W        W29452  29.895  21.238  14.459
57127W        W29453  40.567  38.024  14.377
57128W        W29454  19.562  34.981   2.633
57129W        W29455   3.437  22.030  11.489
57130W        W29456  39.367  43.681  14.936
57131W        W29457   3.442   0.394  10.373
57132W        W29458   5.760  40.553   0.662
57133W        W29459   0.571  16.532  14.440
57134W        W29460   0.861   3.944   0.166
57135W        W29461  20.199  38.578  13.464
57136W        W29462  26.001  32.342   0.230
57137W        W29463  31.958  30.698  12.400
57138W        W29464  28.451  41.903  11.624
57139W        W29465   1.422  37.611   2.888
57140W        W29466  39.483  27.507   4.857
57141W        W29467   8.776   1.256  10.900
57142W        W29468  11.353  26.917  11.156
57143W        W29469  18.290  11.890  14.938
57144W        W29470  21.118  10.120   3.228
57145W        W29471  12.577  41.261   1.393
57146W        W29472   3.846  28.076  11.478
57147W        W29473  30.603  11.409   3.106
57148W        W29474  44.255   2.480  12.962
57149W        W29475  35.498  12.515  13.378
57150W        W29476   9.547  17.627  11.437
57151W        W29477  12.120  18.070   3.715
57152W        W29478  35.506  10.375   0.859
57153W        W29479  20.378   7.621   0.567
57154W        W29480  17.771  34.055   3.655
57155W        W29481  26.161  28.062   9.963
57156W        W29482  18.867  11.734   3.303
57157W        W29483  14.812  41.452  11.906
57158W        W29484  42.500  17.094  14.958
57159W        W29485  28.523  29.382   3.212
57160W        W29486   7.868  27.077  12.328
57161W        W29487  21.374  35.262   0.767
57162W        W29488  12.138  43.492   1.012
57163W        W29489   2.684  28.215   3.719
57164W        W29490  39.945  44.983  13.201
57165W        W29491  24.465  42.785  13.801
57166W        W29492  20.629   7.440   4.205
57167W        W29493  20.006   5.968  14.334
57168W        W29494  33.561  22.547  10.350
57169W        W29495   9.641  23.684  12.956
57170W        W29496   6.728   0.928   1.379
57171W        W29497  16.089  31.434  12.914
57172W        W29498  39.943  27.126   0.385
57173W        W29499  26.751  25.729   1.798
57174W        W29500  38.325  29.339  12.034
57175W        W29501  27.368  28.512   4.214
57176W        W29502  27.658   9.178  14.327
57177W        W29503  15.249  11.546   3.226
57178W        W29504   8.861  39.981   2.402
57179W        W29505  37.250   2.198   4.228
57180W        W29506  43.041  25.691   3.108
57181W        W29507  36.128  13.198   3.735
57182W        W29508  25.281   7.029  12.033
57183W        W29509   0.574  29.588  10.515
57184W        W29510  26.490  40.776   5.015
57185W        W29511  24.228  34.533   2.258
57186W        W29512  29.461  36.100  12.612
57187W        W29513   9.107  38.305  14.721
57188W        W29514  16.180   9.095   2.217
57189W        W29515   1.237  43.979  12.148
57190W        W29516   5.151  37.370   2.707
57191W        W29517  18.688   0.572  13.344
57192W        W29518   1.892   8.920  13.018
57193W        W29519   5.205  19.516   3.136
57194W        W29520  26.156   5.754   0.848
57195W        W29521  24.640  30.051   3.756
57196W        W29522  13.636  26.016  10.052
57197W        W29523  39.620  14.076  12.234
57198W        W29524   6.082  20.517  11.809
57199W        W29525   9.009  34.428  10.761
57200W        W29526  40.299  41.563  12.879
57201W        W29527  22.434  15.175  13.019
57202W        W29528  32.645  22.522   1.281
57203W        W29529   7.754   0.912   1.401
57204W        W29530  13.085  21.718  14.895
57205W        W29531  15.788  29.513  11.947
57206W        W29532   8.300  11.848   4.304
57207W        W29533  27.528  23.486   3.233
57208W        W29534   7.479  17.775   2.265
57209W        W29535  38.190  28.271  13.308
57210W        W29536  30.729  39.923   0.684
57211W        W29537  11.105  13.642  12.060
57212W        W29538  44.782  16.906   3.149
57213W        W29539  12.745  25.016  10.185
57214W        W29540  44.871  17.323  12.001
57215W        W29541  19.199  34.317  14.414
57216W        W29542  36.942  24.829   2.904
57217W        W29543   1.980   4.387  11.910
57218W        W29544  20.982  11.722   4.993
57219W        W29545  16.507  10.791   3.610
57220W        W29546  38.207  23.360   0.318
57221W        W29547  38.776  42.356  11.318
57222W        W29548   4.559  28.129  10.913
57223W        W29549   0.547  30.289  12.929
57224W        W29550  34.530  41.117   3.176
57225W        W29551  25.059  24.521  14.335
57226W        W29552  26.607  30.579  14.286
57227W        W29553  36.177   5.262  13.215
57228W        W29554  31.056  12.722   4.124
57229W        W29555   9.545  30.656  12.488
57230W        W29556   5.836  43.361  11.671
57231W        W29557  22.550  26.490  14.984
57232W        W29558  20.355  34.867   5.082
57233W        W29559   7.971  32.649   4.624
57234W        W29560  16.869  19.471   9.787
57235W        W29561  27.549  40.584  14.637
57236W        W29562   8.981  24.011  13.430
57237W        W29563  16.255  23.303  14.295
57238W        W29564  36.024  18.066   3.192
57239W        W29565  13.734  27.337  11.390
57240W        W29566  37.510  30.016   3.298
57241W        W29567  21.620  20.704  13.836
57242W        W29568  36.853  12.671   4.814
57243W        W29569  12.640  24.207  12.651
57244W        W29570  15.300  32.867   4.886
57245W        W29571  10.793  12.063  10.720
57246W        W29572  22.320  19.857  10.390
57247W        W29573   8.341   1.390  11.169
57248W        W29574  44.721   2.356   0.016
57249W        W29575  41.875   1.405   3.693
57250W        W29576  27.987   9.860   0.564
57251W        W29577   9.870  43.340  12.947
57252W        W29578  17.619  10.519   3.718
57253W        W29579   3.648  36.338   3.840
57254W        W29580  39.230  43.729  13.300
57255W        W29581   2.759   5.194   3.221
57256W        W29582  14.827   4.997  13.982
57257W        W29583  41.928  27.617   4.580
57258W        W29584  18.734  42.526   0.024
57259W        W29585  43.858  29.960  12.215
57260W        W29586  20.659  28.905  14.676
57261W        W29587  30.853  37.678   2.075
57262W        W29588   1.305  33.204   1.784
57263W        W29589  30.889  14.348  13.425
57264W        W29590  24.306  44.460   5.111
57265W        W29591  27.980  23.699  10.865
57266W        W29592  23.136  10.304   0.206
57267W        W29593   8.751  27.359   0.991
57268W        W29594   3.964  37.640  11.262
57269W        W29595  22.183  35.884   2.221
57270W        W29596   2.255  38.911   1.813
57271W        W29597  36.817   8.204   3.642
57272W        W29598  26.777  23.476   2.773
57273W        W29599  44.825   0.517   2.694
57274W        W29600  20.236  23.046  12.874
57275W        W29601  41.031  31.394   2.815
57276W        W29602  16.839  34.822  11.149
57277W        W29603  24.398  19.295  11.366
57278W        W29604  41.866  40.010  13.019
57279W        W29605  39.779  42.895  13.528
57280W        W29606  12.750  38.709  10.719
57281W        W29607  41.282  38.385   2.394
57282W        W29608   8.884   8.696  14.364
57283W        W29609  39.813  10.268   0.515
57284W        W29610  17.000  42.604  12.564
57285W        W29611  10.943  14.688   1.289
57286W        W29612  20.258  20.237  14.984
57287W        W29613   1.782   7.424   0.108
57288W        W29614  14.343  16.714  13.048
57289W        W29615  40.376  10.029  14.615
57290W        W29616  34.781   8.246   0.950
57291W        W29617  31.005  38.048  14.917
57292W        W29618  25.742  38.034  12.028
57293W        W29619  37.126  29.399   4.756
57294W        W29620  22.541  27.165  10.501
57295W        W29621  30.127   7.334  14.509
57296W        W29622  41.086  22.091   4.906
57297W        W29623  38.956  29.782   3.242
57298W        W29624  42.291   3.431  12.601
57299W        W29625  34.507  34.311   1.605
57300W        W29626   2.370   3.114  14.614
57301W        W29627  30.949  30.108   2.478
57302W        W29628   3.996   1.943   4.797
57303W        W29629  21.218   5.104   0.877
57304W        W29630   0.826  36.204  12.207
57305W        W29631   5.164  10.587  12.495
57306W        W29632   0.951  28.946  14.543
57307W        W29633  44.498   4.807   3.958
57308W        W29634  13.827  19.267  11.766
57309W        W29635  33.488  33.169  13.366
57310W        W29636  34.059  35.119   3.251
57311W        W29637  16.644   0.309  12.907
57312W        W29638  11.119  26.163   2.902
57313W        W29639  42.902  30.742   0.770
57314W        W29640   1.374   5.407   3.073
57315W        W29641  20.166   1.493  10.641
57316W        W29642   9.447  13.264  11.555
57317W        W29643  28.656  37.171  11.457
57318W        W29644  42.785  12.342   1.832
57319W        W29645  32.561   9.279   4.931
57320W        W29646  27.892  21.739   2.883
57321W        W29647  16.908  36.583   3.123
57322W        W29648  24.748   6.358   3.761
57323W        W29649  38.447  36.873  13.006
57324W        W29650  39.612  13.512   2.415
57325W        W29651  11.736  23.486  13.282
57326W        W29652   9.161   5.276  12.926
57327W        W29653   7.875  31.806   1.857
57328W        W29654  36.550  40.503   4.540
57329W        W29655   6.810  33.044   4.110
57330W        W29656  38.390  31.854   0.931
57331W        W29657  29.474  20.355   2.635
57332W        W29658  22.482  27.478  12.452
57333W        W29659  13.705  31.164   1.224
57334W        W29660  40.825  27.693   2.377
57335W        W29661  33.689  23.586   3.587
57336W        W29662  17.168  31.477   0.295
57337W        W29663  10.517   9.916   4.043
57338W        W29664  25.842  18.250  10.116
57339W        W29665   0.462  20.876   1.489
57340W        W29666  25.056  17.363  12.962
57341W        W29667  24.205   1.023  10.808
57342W        W29668  38.562  17.408  14.548
57343W        W29669   9.928   7.256  11.967
57344W        W29670  27.476  42.326   3.223
57345W        W29671  43.794   8.341   4.325
57346W        W29672  19.115  17.214  12.014
57347W        W29673  30.724  42.893  10.328
57348W        W29674  37.532  43.523   1.199
57349W        W29675  32.254  23.764  13.540
57350W        W29676  44.305  13.770   3.885
57351W        W29677  32.417  28.017  11.650
57352W        W29678  20.366  18.266   1.000
57353W        W29679  27.104   3.474  12.580
57354W        W29680  44.296  35.568  13.076
57355W        W29681  18.034   3.949   2.751
57356W        W29682   1.429   0.909  12.150
57357W        W29683   0.361   3.294   0.697
57358W        W29684  29.360  20.236   3.131
57359W        W29685   7.846  35.634  12.933
57360W        W29686  42.928  25.045   2.729
57361W        W29687   3.968  11.927  12.461
57362W        W29688  10.848  12.734  14.487
57363W        W29689  24.785  33.701   4.857
57364W        W29690   2.013  21.619   5.528
57365W        W29691   9.479   2.339  11.987
57366W        W29692   7.239  38.621  14.350
57367W        W29693  37.615  39.976  14.181
57368W        W29694  11.173  37.041   4.390
57369W        W29695  38.328  43.754   4.511
57370W        W29696  44.265  41.541   3.253
57371W        W29697   2.925  22.301   0.604
57372W        W29698  34.617   7.271  14.027
57373W        W29699   6.671   9.857   1.795
57374W        W29700  11.690   7.442   1.364
57375W        W29701  26.060  43.263   1.196
57376W        W29702  24.570  44.490   1.757
57377W        W29703  28.677  16.300  13.276
57378W        W29704   3.747  24.177   3.490
57379W        W29705  24.048  27.966  12.502
57380W        W29706   3.386   4.994  10.022
57381W        W29707  42.987  21.590   0.726
57382W        W29708  11.303  28.408   2.266
57383W        W29709  25.921  28.163   3.044
57384W        W29710  37.785  10.406   1.308
57385W        W29711  29.670   6.363  12.067
57386W        W29712   0.589  35.985  10.447
57387W        W29713  25.861  17.604  10.235
57388W        W29714  41.855  29.463  12.449
57389W        W29715   5.332  11.600   0.342
57390W        W29716  42.427  10.204  10.415
57391W        W29717  30.142  30.649  12.027
57392W        W29718  14.577  25.958  14.845
57393W        W29719  30.439   8.270   3.721
57394W        W29720   4.389  17.761   4.911
57395W        W29721  32.468  33.913  11.723
57396W        W29722  44.294  15.661   3.170
57397W        W29723  42.990  28.666   2.632
57398W        W29724  44.359   2.265  11.508
57399W        W29725  36.471  32.233   4.551
57400W        W29726   6.767  14.765   3.605
57401W        W29727  43.318  32.463  13.625
57402W        W29728  30.799  43.524  10.895
57403W        W29729  37.914   3.593  11.534
57404W        W29730  41.429  37.953   4.720
57405W        W29731  30.565   5.931  14.417
57406W        W29732   9.293  23.473   2.255
57407W        W29733  35.354  19.601   1.856
57408W        W29734  38.268   5.634   3.141
57409W        W29735  34.802  32.861   3.760
57410W        W29736  19.848  18.311   2.841
57411W        W29737  15.758  29.455   1.750
57412W        W29738   8.819   6.115  10.701
57413W        W29739   6.126   9.936   4.106
57414W        W29740  19.142  34.196  11.134
57415W        W29741  42.992  36.680   1.274
57416W        W29742  32.918   5.477  11.115
57417W        W29743   3.896  12.766  10.821
57418W        W29744  38.254   3.399   0.877
57419W        W29745  29.628  32.976   2.412
57420W        W29746  36.501  17.095   1.979
57421W        W29747  25.933  11.907   0.728
57422W        W29748  19.213  42.876  14.179
57423W        W29749  26.480  36.249  11.702
57424W        W29750   3.872  19.936   4.140
57425W        W29751  40.377  12.796  10.630
57426W        W29752  17.607  37.090  10.764
57427W        W29753  14.875  10.354  10.199
57428W        W29754   2.108  23.591   1.423
57429W        W29755  31.930  10.039  14.511
57430W        W29756   6.407  43.101   2.809
57431W        W29757  17.775  14.334  13.390
57432W        W29758  24.370  28.582   2.908
57433W        W29759  11.292  11.547   2.426
57434W        W29760  33.018   1.889   3.984
57435W        W29761  31.205  31.496  10.712
57436W        W29762  17.312  28.122  11.577
57437W        W29763  23.200  35.942   4.792
57438W        W29764   0.393  23.959  12.411
57439W        W29765  19.783  27.129  12.037
57440W        W29766  34.614  34.412  14.559
57441W        W29767   5.488  41.257   1.842
57442W        W29768  20.939  23.476  10.238
57443W        W29769  18.097   3.203   2.278
57444W        W29770  29.938   5.200  11.503
57445W        W29771  17.014  35.943   0.652
57446W        W29772  42.590  39.238  14.627
57447W        W29773  11.956  24.439   2.631
57448W        W29774  26.825   8.264   0.751
57449W        W29775  16.738   9.364  14.975
57450W        W29776   2.733  21.137  14.547
57451W        W29777  35.561  16.131  14.311
57452W        W29778  32.116  39.735   2.664
57453W        W29779  13.640  38.054  13.475
57454W        W29780  16.829   3.414  14.733
57455W        W29781  11.381  18.755   1.917
57456W        W29782   1.710  35.018  12.371
57457W        W29783  18.627  37.125   4.272
57458W        W29784   1.475  10.116   4.347
57459W        W29785  15.388   5.712   3.653
57460W        W29786  24.973  31.942  13.946
57461W        W29787  24.300   8.967  12.383
57462W        W29788  40.286  22.493  12.150
57463W        W29789   6.087  44.910   4.088
57464W        W29790  35.674  12.250   5.449
57465W        W29791   3.031  38.378   3.414
57466W        W29792  28.629   8.243  14.328
57467W        W29793   0.686   0.323   2.201
57468W        W29794  13.967  17.790  14.478
57469W        W29795   8.538   3.178  14.437
57470W        W29796  20.298   9.773  12.925
57471W        W29797  18.166  27.151   1.975
57472W        W29798   8.540  31.689  14.308
57473W        W29799  16.372  28.649  12.105
57474W        W29800   0.321  41.056   4.646
57475W        W29801  13.112  29.518  14.002
57476W        W29802  25.497  30.507   2.045
57477W        W29803  19.036   3.910   3.161
57478W        W29804  13.351  27.265   5.518
57479W        W29805  13.149   0.965  12.919
57480W        W29806  14.221  28.457   4.725
57481W        W29807  34.282  38.508  11.045
57482W        W29808  11.266   4.949   3.245
57483W        W29809  13.619  27.079   4.121
57484W        W29810  12.925  31.055   3.614
57485W        W29811  18.729   5.774  13.941
57486W        W29812  28.074  16.473  12.165
57487W        W29813   5.716  35.450  14.730
57488W        W29814  25.420   8.243   2.357
57489W        W29815  20.024  28.909   0.445
57490W        W29816  24.343  36.566   2.837
57491W        W29817   8.693  41.668  13.812
57492W        W29818  34.315  30.029  11.996
57493W        W29819  33.545  39.966   3.920
57494W        W29820  16.109  14.797   3.643
57495W        W29821  17.290  18.093  10.151
57496W        W29822   8.629  35.859  13.349
57497W        W29823   5.832  28.952   2.348
57498W        W29824  39.073  27.503   4.112
57499W        W29825  38.567  16.068   3.152
57500W        W29826  22.577  20.127   0.051
57501W        W29827  36.352  18.415  11.554
57502W        W29828   7.135   7.936  14.557
57503W        W29829   1.253   5.747   1.468
57504W        W29830  32.964  38.980   4.644
57505W        W29831  15.336  13.983   1.524
57506W        W29832  14.631  24.556  14.331
57507W        W29833  41.927  22.502   0.467
57508W        W29834  44.255  36.945   3.284
57509W        W29835  21.582  44.928   3.422
57510W        W29836   7.660  20.764   1.013
57511W        W29837  30.135  19.107   3.254
57512W        W29838   6.285  21.566   4.274
57513W        W29839  19.226  31.748   0.700
57514W        W29840   4.788  11.020   3.654
57515W        W29841  35.883   6.378  11.991
57516W        W29842  12.810  17.074   4.177
57517W        W29843  39.077  34.750  10.280
57518W        W29844  43.360  44.828   2.328
57519W        W29845  36.982  11.325  14.280
57520W        W29846  37.683  11.644  12.892
57521W        W29847  36.486  27.970  10.178
57522W        W29848  13.318  21.111   2.645
57523W        W29849  19.171  16.164  14.045
57524W        W29850  12.713  37.154  13.560
57525W        W29851  25.431  16.792   5.408
57526W        W29852  11.902  24.942   2.675
57527W        W29853  36.464  11.104  10.254
57528W        W29854  20.763  34.669   2.770
57529W        W29855  37.102   5.489   0.273
57530W        W29856  35.481  37.490  14.982
57531W        W29857  21.548  39.145   4.005
57532W        W29858  44.748   1.778   3.344
57533W        W29859  12.932  12.074   0.337
57534W        W29860  14.302  33.927  14.843
57535W        W29861  24.727   7.392  12.106
57536W        W29862  39.935  35.861  12.453
57537W        W29863  13.113  27.790  13.515
57538W        W29864  18.607   4.847   4.656
57539W        W29865  20.729  13.671   2.996
57540W        W29866  11.015  30.380   3.720
57541W        W29867   7.711  28.403  13.359
57542W        W29868  20.108  43.259   4.732
57543W        W29869  26.677   7.161  14.856
57544W        W29870  13.250  17.022   2.189
57545W        W29871   6.238  34.193  10.729
57546W        W29872  13.231  10.128   2.925
57547W        W29873  14.062  33.988  12.798
57548W        W29874  30.943  16.463  14.497
57549W        W29875  20.599  23.006   0.867
57550W        W29876  26.488   0.084   2.718
57551W        W29877  40.564  31.917  12.291
57552W        W29878  15.571  34.941   1.848
57553W        W29879  30.638  13.917  13.079
57554W        W29880  25.922  43.735  12.227
57555W        W29881   4.927  41.762  10.775
57556W        W29882   1.958  16.665  13.596
57557W        W29883  31.943  25.267  12.790
57558W        W29884  37.526  32.542  13.814
57559W        W29885   6.442   2.015  12.046
57560W        W29886  35.846  16.737   0.872
57561W        W29887   6.330  44.046   0.422
57562W        W29888  31.579   4.205  12.414
57563W        W29889  22.537  25.427  14.939
57564W        W29890  36.030   4.839  12.947
57565W        W29891  36.399  25.822   3.345
57566W        W29892  10.584  26.530  14.398
57567W        W29893   7.800  43.521  12.358
57568W        W29894  39.245  31.001   4.568
57569W        W29895  21.546  10.939   0.355
57570W        W29896  38.003  18.349   3.596
57571W        W29897  28.770   4.402   1.261
57572W        W29898  36.869  38.781   3.334
57573W        W29899  12.709   0.334   3.861
57574W        W29900   2.869   5.650   0.121
57575W        W29901  25.180  43.853   1.970
57576W        W29902  29.057  13.142   0.290
57577W        W29903  38.843  26.570   1.425
57578W        W29904  10.860  18.474  13.702
57579W        W29905  16.491  33.405   4.286
57580W        W29906  24.282   1.398   3.062
57581W        W29907  26.514  36.160   0.363
57582W        W29908  19.258  42.033   3.421
57583W        W29909  25.400  43.316   3.128
57584W        W29910   0.340  18.536   4.542
57585W        W29911  26.646  43.810   1.327
57586W        W29912  20.521  13.144   1.865
57587W        W29913  42.667  14.764  14.410
57588W        W29914  25.063  21.867  14.545
57589W        W29915  30.227  31.200   1.928
57590W        W29916   2.813   8.732   1.284
57591W        W29917   7.724  34.104   3.088
57592W        W29918  17.056  22.249   2.269
57593W        W29919   6.599  33.390  10.486
57594W        W29920  31.285  11.445  14.410
57595W        W29921  25.049  42.864   3.768
57596W        W29922   8.821  32.099   4.576
57597W        W29923  23.241  10.881   3.653
57598W        W29924  39.308  31.349  12.962
57599W        W29925  18.121  35.356   1.107
57600W        W29926  39.360  39.177  13.855
57601W        W29927  23.750   0.799  12.452
57602W        W29928  10.925  25.626   0.786
57603W        W29929  14.698  42.448  10.657
57604W        W29930  20.676  36.533   1.174
57605W        W29931  23.808  15.777   3.380
57606W        W29932  31.673  30.608  13.991
57607W        W29933  24.930  13.356  12.155
57608W        W29934   9.692  21.682   2.419
57609W        W29935  18.618  42.315   3.009
57610W        W29936  38.083  16.344  11.829
57611W        W29937  20.212  36.520  11.376
57612W        W29938  37.863  24.765   4.072
57613W        W29939   3.057  41.908   1.397
57614W        W29940  12.601  35.499   2.711
57615W        W29941  38.898  31.036   2.353
57616W        W29942   8.969   3.223   3.799
57617W        W29943  41.455  15.500   4.709
57618W        W29944   6.005  32.088   3.303
57619W        W29945   3.985   1.933  14.612
57620W        W29946   0.976  11.206  10.701
57621W        W29947  17.625  28.724   0.314
57622W        W29948  35.944  20.562   3.328
57623W        W29949   3.750  27.630  11.718
57624W        W29950  34.402  16.764   0.397
57625W        W29951  30.143  30.479  13.818
57626W        W29952  13.796   5.712  13.433
57627W        W29953   6.382  29.964   2.837
57628W        W29954  37.326  13.845   1.802
57629W        W29955  11.538  26.089  14.009
57630W        W29956  16.834  20.728   4.765
57631W        W29957  13.090   8.280  12.059
57632W        W29958  26.192  12.479   3.161
57633W        W29959  13.646  20.543   1.467
57634W        W29960  21.715   7.165   2.357
57635W        W29961  40.868  26.428  11.566
57636W        W29962  36.268   4.834  12.056
57637W        W29963  36.900  44.832   4.938
57638W        W29964  23.823  41.901   1.466
57639W        W29965   4.749  42.426  11.368
57640W        W29966  39.009  44.518  11.734
57641W        W29967  11.610  16.525  13.979
57642W        W29968  15.694  29.040   3.193
57643W        W29969  33.629  36.130   3.685
57644W        W29970   3.525  35.916  10.807
57645W        W29971  14.577  42.883   1.266
57646W        W29972  38.366  32.594  14.540
57647W        W29973   6.451  38.024  12.116
57648W        W29974  40.047  37.543   4.547
57649W        W29975  28.167   5.676  11.593
57650W        W29976  38.289  12.578   1.310
57651W        W29977   1.375  28.339   1.118
57652W        W29978   1.851  12.868   0.280
57653W        W29979  40.114   7.830  12.505
57654W        W29980  16.177  11.721  13.389
57655W        W29981  24.244  16.140   1.792
57656W        W29982   0.092  41.552  13.905
57657W        W29983  44.239   8.204  11.922
57658W        W29984  31.053  38.621   3.290
57659W        W29985  12.653  31.180   2.141
57660W        W29986  27.101  18.128   2.428
57661W        W29987  16.527  20.931   0.898
57662W        W29988  21.239  44.515  13.709
57663W        W29989   4.845  37.027   4.698
57664W        W29990  42.248  20.517  12.775
57665W        W29991  41.370  13.288  12.500
57666W        W29992  40.173   0.073  11.968
57667W        W29993  34.358  21.277  11.592
57668W        W29994  15.391  17.540   3.612
57669W        W29995  34.622  22.230   4.346
57670W        W29996  33.098  11.386   3.363
57671W        W29997  30.973  22.960  11.959
57672W        W29998  18.742   7.387  10.507
57673W        W29999  18.107  37.925   1.423
57674W        W30000   0.911   2.508   4.558
57675W        W30001  15.755  27.078   3.337
57676W        W30002  23.414   2.210   4.158
57677W        W30003  14.684  20.417   1.909
57678W        W30004   9.711  28.988  13.956
57679W        W30005   0.779  31.535  14.986
57680W        W30006  15.686   0.979   3.150
57681W        W30007  35.832  25.033   0.371
57682W        W30008  38.873  11.929   3.690
57683W        W30009   9.155  26.618  13.972
57684W        W30010  34.012  31.630   2.823
57685W        W30011   2.222  30.711   0.324
57686W        W30012  33.324  31.262  10.561
57687W        W30013  43.045  12.328  13.524
57688W        W30014  28.441  20.299   2.703
57689W        W30015  25.237  28.732   2.598
57690W        W30016  40.635  24.486   1.302
57691W        W30017  27.413  36.905   3.343
57692W        W30018   1.008   3.485  13.457
57693W        W30019  40.450  19.850  13.429
57694W        W30020   8.702  14.357  10.625
57695W        W30021  43.973  23.173   3.340
57696W        W30022  37.190  36.546   4.653
57697W        W30023   4.939  27.432   0.772
57698W        W30024   6.860  31.507  13.948
57699W        W30025  33.892  25.997   4.117
57700W        W30026   4.419  16.530   2.311
57701W        W30027  18.063  12.295   3.831
57702W        W30028   6.304  14.078  14.252
57703W        W30029   3.249  44.328   3.290
57704W        W30030  16.040  18.916  12.903
57705W        W30031  43.196  21.967   0.323
57706W        W30032   7.826  23.687  11.593
57707W        W30033  25.253  39.981  13.078
57708W        W30034  38.386  24.711  13.741
57709W        W30035  24.639  32.158  14.808
57710W        W30036  32.910   1.429  12.021
57711W        W30037  38.213  21.542  11.112
57712W        W30038  19.726  39.129   1.377
57713W        W30039  42.725   7.311   1.273
57714W        W30040  15.750   7.200  10.561
57715W        W30041   9.199   5.750  14.932
57716W        W30042  42.841   9.312  12.977
57717W        W30043   9.783  41.497   3.308
57718W        W30044  14.587   4.849  11.630
57719W        W30045  42.447  10.139  13.414
57720W        W30046  24.816   7.784   3.489
57721W        W30047  43.041  22.753  12.112
57722W        W30048  18.455  20.284  14.523
57723W        W30049  10.042   2.087  11.246
57724W        W30050  35.067  41.270  14.420
57725W        W30051  36.351  39.610  11.595
57726W        W30052   4.920  36.614   2.369
57727W        W30053  26.537  36.545   3.653
57728W        W30054   6.709  30.998  13.956
57729W        W30055  18.762   7.311  11.480
57730W        W30056  22.493  23.033  12.501
57731W        W30057  20.966  29.404  11.662
57732W        W30058  25.678  33.610  13.910
57733W        W30059  15.681  11.759   4.608
57734W        W30060  13.126  18.064  12.972
57735W        W30061  24.000  21.512  13.829
57736W        W30062  10.195   2.012  11.730
57737W        W30063  40.301  14.767  10.549
57738W        W30064  12.616  31.955  13.408
57739W        W30065  14.694   9.275   2.968
57740W        W30066  14.671  37.557   1.731
57741W        W30067   2.429  23.223   3.396
57742W        W30068  31.019  21.733  10.479
57743W        W30069  28.767  27.001  12.430
57744W        W30070  39.398  12.571  13.007
57745W        W30071  28.412   9.241  13.846
57746W        W30072  34.670  12.071  11.028
57747W        W30073  34.516  17.364   2.359
57748W        W30074   4.229  26.870  12.026
57749W        W30075  18.110  24.301   3.676
57750W        W30076  38.296   7.449   0.050
57751W        W30077   2.300  28.233   1.278
57752W        W30078  33.110   6.391   0.794
57753W        W30079   1.465  14.108  10.708
57754W        W30080  27.932  37.439   3.698
57755W        W30081  42.210  25.533  11.735
57756W        W30082  24.701  39.088   3.316
57757W        W30083  18.284  20.458  14.033
57758W        W30084  16.101  16.685  11.980
57759W        W30085  18.285   1.362   1.287
57760W        W30086   1.536  40.506  13.260
57761W        W30087  44.358  14.148   1.912
57762W        W30088  31.231   1.320   3.141
57763W        W30089  16.813  35.930  12.053
57764W        W30090  12.919  42.403  14.846
57765W        W30091  26.112  39.313   0.222
57766W        W30092  14.342   3.616  11.156
57767W        W30093  15.442  14.754   2.272
57768W        W30094   7.662  40.419   4.479
57769W        W30095  18.190  17.097  14.566
57770W        W30096  42.365  14.549   2.316
57771W        W30097  22.018   6.415  14.254
57772W        W30098  15.673  12.903  14.290
57773W        W30099  39.072  30.680  12.465
57774W        W30100   5.137  37.641   0.849
57775W        W30101  19.977  33.501   0.971
57776W        W30102   2.796   4.176   4.909
57777W        W30103  35.008  35.029   1.411
57778W        W30104  32.124  17.055  14.615
57779W        W30105  42.046  25.732  14.905
57780W        W30106  26.211  15.418  13.428
57781W        W30107   3.881  33.502  10.809
57782W        W30108  31.429  16.338  14.678
57783W        W30109  38.011  38.796   0.309
57784W        W30110  10.177  37.667  12.068
57785W        W30111  44.464   4.997  12.447
57786W        W30112  39.326  33.619   2.834
57787W        W30113   4.404  29.026   4.566
57788W        W30114  33.422  10.098  13.144
57789W        W30115  17.632  40.316   4.800
57790W        W30116  25.558  26.280   1.844
57791W        W30117  22.253  44.010  12.639
57792W        W30118  22.645  22.173  10.399
57793W        W30119  26.969  44.491   9.966
57794W        W30120  11.657  27.974  10.305
57795W        W30121  19.317  38.427  13.274
57796W        W30122  44.250   0.725   4.349
57797W        W30123  14.552   9.485  13.485
57798W        W30124  32.181  36.155  12.448
57799W        W30125  27.198  32.095  14.834
57800W        W30126  35.007  18.043   3.180
57801W        W30127  28.843  36.079  13.392
57802W        W30128   5.286   1.477   4.625
57803W        W30129  32.457  27.895  10.782
57804W        W30130   4.756  38.839  13.743
57805W        W30131  28.136  23.968  10.442
57806W        W30132  44.078  20.122   4.026
57807W        W30133  43.432  17.689  14.867
57808W        W30134  34.127  35.663   9.914
57809W        W30135   7.837  38.621  13.017
57810W        W30136  22.695  16.981  14.369
57811W        W30137  15.547  10.091  10.008
57812W        W30138   6.380  33.620  13.763
57813W        W30139  21.666  27.730   0.952
57814W        W30140   2.448   4.635   0.733
57815W        W30141  32.116   9.780  12.587
57816W        W30142  30.283   9.229   0.271
57817W        W30143  44.765  31.368   4.397
57818W        W30144  44.063   8.768  11.238
57819W        W30145  28.648  40.836   0.839
57820W        W30146   1.942  36.145  13.387
57821W        W30147  16.148  42.015   1.647
57822W        W30148  10.821   5.206   3.187
57823W        W30149  27.095  27.390   1.631
57824W        W30150  32.595   4.791  11.812
57825W        W30151  35.156  11.639   4.632
57826W        W30152  37.837  28.145  13.671
57827W        W30153  12.817  25.112   4.104
57828W        W30154   6.446  28.961  10.736
57829W        W30155  15.567  23.301   9.835
57830W        W30156  16.658   5.973   3.098
57831W        W30157  38.870  20.265   3.112
57832W        W30158  26.089  39.771  14.969
57833W        W30159   2.248   4.182   1.637
57834W        W30160  18.756  14.072   4.959
57835W        W30161   6.720  39.566  10.710
57836W        W30162  34.176  24.264  13.161
57837W        W30163  41.548   8.223   0.983
57838W        W30164  42.307  30.660  10.465
57839W        W30165  34.924  16.787   3.696
57840W        W30166  26.483  20.154  14.494
57841W        W30167  38.673  21.214  11.914
57842W        W30168  28.415  41.944   1.877
57843W        W30169   9.164  29.663  14.016
57844W        W30170  30.378  42.066   0.426
57845W        W30171  27.066  22.165  10.754
57846W        W30172  37.551  25.935   1.063
57847W        W30173  31.600  25.922   3.702
57848W        W30174  19.266   7.639  13.963
57849W        W30175  36.881  13.548  13.456
57850W        W30176  37.086  30.976   2.488
57851W        W30177   9.924   7.783  12.037
57852W        W30178  41.733  41.338   0.326
57853W        W30179  13.755   9.382   2.874
57854W        W30180  15.797  27.337  12.069
57855W        W30181  31.534  28.006  14.686
57856W        W30182  35.907  27.196   2.699
57857W        W30183  37.911  32.410  11.353
57858W        W30184  30.499  33.728  13.535
57859W        W30185  44.612  29.504  14.468
57860W        W30186  36.664   0.970   1.651
57861W        W30187  19.116  10.401   2.363
57862W        W30188  13.317  13.856   4.603
57863W        W30189  33.695  29.409   4.160
57864W        W30190  27.203  13.019  12.793
57865W        W30191  24.117  36.118   0.237
57866W        W30192  15.987  19.979  10.800
57867W        W30193  24.150  30.098  13.860
57868W        W30194  17.309  37.598   1.716
57869W        W30195  35.237  14.181   1.337
57870W        W30196  35.922   2.068   3.386
57871W        W30197  35.038  20.248  13.674
57872W        W30198  30.159  30.158  12.129
57873W        W30199  39.658  17.550   0.536
57874W        W30200  42.436  14.841   4.693
57875W        W30201   7.220  16.513   2.633
57876W        W30202  35.167   7.337  13.046
57877W        W30203  16.568  26.774   2.283
57878W        W30204  44.464  38.844  11.506
57879W        W30205   2.644  16.244  11.694
57880W        W30206  34.029  25.714  10.706
57881W        W30207  29.096   1.708  13.588
57882W        W30208  36.702  13.011   5.153
57883W        W30209  29.078   5.637   1.465
57884W        W30210  27.109  21.047   0.849
57885W        W30211  39.149  11.104   3.284
57886W        W30212  42.900  43.473   0.824
57887W        W30213  27.949  21.104  11.231
57888W        W30214  23.784  38.311  14.041
57889W        W30215  41.444  20.949  14.801
57890W        W30216  34.115   5.228   1.781
57891W        W30217  18.752   4.702   1.770
57892W        W30218   0.492  23.001   3.283
57893W        W30219  19.705  10.385  12.666
57894W        W30220  38.315   4.444  10.484
57895W        W30221  20.617  10.378  10.461
57896W        W30222   9.591  37.291   4.929
57897W        W30223  33.802  34.642   3.245
57898W        W30224  15.199  41.045   4.560
57899W        W30225  34.024   7.317   3.571
57900W        W30226  40.034  20.099  14.725
57901W        W30227  14.267  32.122   0.257
57902W        W30228  12.008   2.231  14.977
57903W        W30229  34.602  13.245   4.824
57904W        W30230  43.302  36.600  12.989
57905W        W30231  44.779   8.861  10.659
57906W        W30232  13.390  20.061  11.871
57907W        W30233  21.524  25.470   1.967
57908W        W30234   9.721   0.033   1.637
57909W        W30235  33.488  28.666   4.660
57910W        W30236   8.449  33.125  11.592
57911W        W30237  35.901  32.849  10.578
57912W        W30238  11.369  39.059  14.018
57913W        W30239  24.964   4.226  12.968
57914W        W30240  40.297  36.323  12.406
57915W        W30241  34.317  34.649   3.274
57916W        W30242  11.214  17.080  10.369
57917W        W30243  38.909  33.946   0.260
57918W        W30244  34.494   4.053  13.082
57919W        W30245  24.957  32.194   3.291
57920W        W30246  10.728  28.420  13.016
57921W        W30247  19.748   4.026  11.118
57922W        W30248   1.689  44.982   2.249
57923W        W30249  24.278  11.106   3.783
57924W        W30250   4.051   0.085   4.617
57925W        W30251  26.233  31.001   3.814
57926W        W30252   1.189  19.626   4.602
57927W        W30253  35.305  34.028   3.766
57928W        W30254   5.321  21.643   4.628
57929W        W30255  16.352  20.191  13.144
57930W        W30256   2.416  23.689   0.443
57931W        W30257   6.379   2.216   1.788
57932W        W30258  42.987  44.181   1.629
57933W        W30259  38.166  37.646  11.091
57934W        W30260  42.820  35.480  14.504
57935W        W30261  44.928  24.732   3.394
57936W        W30262   2.331  37.117   0.705
57937W        W30263  36.906  38.619  12.846
57938W        W30264   7.907  34.783  13.267
57939W        W30265  23.064  34.354   0.279
57940W        W30266  25.098  41.843  14.571
57941W        W30267  39.949  39.253  10.454
57942W        W30268   4.836  40.809   0.327
57943W        W30269  18.244   4.984  12.034
57944W        W30270  13.752  21.620  10.586
57945W        W30271  21.742   4.791  12.687
57946W        W30272  44.904  17.044  13.397
57947W        W30273  24.902  15.218  13.460
57948W        W30274  19.151   0.546   2.979
57949W        W30275  44.916   2.918  13.465
57950W        W30276  36.221   0.508  14.633
57951W        W30277  15.652   5.323   3.096
57952W        W30278  20.395  12.892   2.290
57953W        W30279   1.364  44.994   0.945
57954W        W30280  25.400  19.618  14.998
57955W        W30281   2.386  19.637   5.258
57956W        W30282  39.318   8.370   4.856
57957W        W30283   0.301   7.736  12.645
57958W        W30284   9.890  35.488   4.791
57959W        W30285   5.132  32.850   1.413
57960W        W30286  38.294  11.369   1.858
57961W        W30287  18.091  28.918  14.843
57962W        W30288  28.588   7.753   1.869
57963W        W30289  29.024   5.868   4.124
57964W        W30290  12.438  35.445   2.190
57965W        W30291  27.706  22.516  14.953
57966W        W30292  31.403   6.321   3.893
57967W        W30293  24.650  16.801  11.514
57968W        W30294   6.569  26.662  12.092
57969W        W30295   6.402  36.368  10.860
57970W        W30296  38.851  30.492   1.052
57971W        W30297  10.785  19.243  11.138
57972W        W30298  32.480  25.439   2.251
57973W        W30299  20.480   7.148  14.412
57974W        W30300  35.012   6.205   2.744
57975W        W30301  31.356  18.752   0.320
57976W        W30302   0.845  39.881  14.744
57977W        W30303   3.998   5.322   3.727
57978W        W30304  37.683   4.264   0.618
57979W        W30305   6.719   3.010  13.995
57980W        W30306  20.424  25.122  12.453
57981W        W30307  27.179  29.956   0.705
57982W        W30308  20.289   0.516   2.247
57983W        W30309  30.198  39.032  12.863
57984W        W30310  39.355  32.078   0.620
57985W        W30311  30.042  32.054   2.364
57986W        W30312  17.083  31.601  12.684
57987W        W30313   5.392  13.210  11.649
57988W        W30314  30.595   3.785   1.537
57989W        W30315  40.071  32.425   4.218
57990W        W30316   7.076  42.454  11.726
57991W        W30317  22.410   2.323   4.142
57992W        W30318  10.106  20.471  12.312
57993W        W30319  38.520  20.378  12.231
57994W        W30320  36.647  42.025   0.379
57995W        W30321  35.416  43.853   2.819
57996W        W30322  36.345  35.803   2.830
57997W        W30323  37.618  21.095   5.228
57998W        W30324  31.669  39.938   0.829
57999W        W30325  29.882  32.935   1.824
58000W        W30326   0.642  23.203  14.189
58001W        W30327   6.697  13.805   1.878
58002W        W30328  33.749  38.082   2.919
58003W        W30329  24.716  25.760   1.021
58004W        W30330  37.473  19.820   4.659
58005W        W30331  21.035  36.529  14.417
58006W        W30332  13.030   3.741   1.323
58007W        W30333  33.662   0.290   3.812
58008W        W30334  35.795  30.356  11.150
58009W        W30335  29.209  38.888  14.848
58010W        W30336  42.398  35.234   3.692
58011W        W30337  28.121  37.885   3.827
58012W        W30338  11.835  16.996   4.170
58013W        W30339  38.060  25.395   3.778
58014W        W30340  35.905  22.824   4.549
58015W        W30341  31.923  40.610   3.899
58016W        W30342  19.456  35.607  14.387
58017W        W30343  26.331  24.205   0.864
58018W        W30344  22.010  35.086   2.411
58019W        W30345   4.857  10.341  13.120
58020W        W30346  36.311  24.453   2.277
58021W        W30347   0.338  38.834   0.480
58022W        W30348  22.134  18.816  12.527
58023W        W30349  11.589   2.475  14.772
58024W        W30350  36.535  30.121  14.204
58025W        W30351  24.124  35.822   3.855
58026W        W30352   8.409  36.913  13.341
58027W        W30353  43.095  34.383  11.488
58028W        W30354   5.832  28.208  11.189
58029W        W30355  39.004  36.813  12.626
58030W        W30356  40.444  10.413  10.678
58031W        W30357  27.995  27.079   2.701
58032W        W30358  15.133   9.962   3.203
58033W        W30359  40.290  44.770   1.931
58034W        W30360   7.664  34.624   3.143
58035W        W30361   6.450  44.882   0.564
58036W        W30362   2.234   5.560   4.117
58037W        W30363  29.510  27.040   3.131
58038W        W30364   5.001  10.917  12.116
58039W        W30365  30.374  25.947   0.773
58040W        W30366  10.019  31.817   0.370
58041W        W30367  11.601  37.082  14.252
58042W        W30368  20.837  21.808  13.045
58043W        W30369  21.551   8.406   0.514
58044W        W30370  27.185  10.911   3.339
58045W        W30371  44.282  12.049   2.642
58046W        W30372  43.288  34.896   4.442
58047W        W30373  37.305   7.238   1.282
58048W        W30374  22.982  41.007   4.718
58049W        W30375   4.362  43.508   2.878
58050W        W30376  42.954  44.426  12.044
58051W        W30377  34.517  38.980  13.630
58052W        W30378  34.071  36.839   1.344
58053W        W30379  23.853   1.973   4.792
58054W        W30380  15.567  24.487   2.189
58055W        W30381  22.169   6.404  10.307
58056W        W30382  14.020  34.546  10.726
58057W        W30383   6.867  42.949   4.729
58058W        W30384  42.510  26.033  13.995
58059W        W30385  14.064  41.916   0.724
58060W        W30386   6.966  15.831   1.543
58061W        W30387  38.987  19.788  14.325
58062W        W30388   2.805  36.834   3.689
58063W        W30389  36.946  28.606  14.006
58064W        W30390  33.936  33.494   3.708
58065W        W30391   2.404  40.116   4.205
58066W        W30392  18.960   6.862   0.452
58067W        W30393  17.468  11.941   9.869
58068W        W30394  22.462  22.506   4.145
58069W        W30395  26.926  37.344  11.206
58070W        W30396  17.679   0.144  14.793
58071W        W30397   5.797  29.003   0.703
58072W        W30398  38.748  19.519   5.094
58073W        W30399  22.717  40.211   1.001
58074W        W30400   6.169   7.217   0.078
58075W        W30401  24.495  19.240  14.786
58076W        W30402  15.057  39.886   0.077
58077W        W30403   2.478  34.449  10.634
58078W        W30404   4.806   3.679   3.574
58079W        W30405  31.141  31.586   3.141
58080W        W30406  30.627  10.272   3.642
58081W        W30407  13.261  17.151   1.166
58082W        W30408   7.687  18.753  10.565
58083W        W30409  20.557  30.112   4.515
58084W        W30410  38.864  24.736   0.928
58085W        W30411   6.270  14.768  12.251
58086W        W30412   7.373  39.425  11.943
58087W        W30413  15.488  41.745  10.625
58088W        W30414   9.208  18.629   4.871
58089W        W30415   6.776  23.712  13.896
58090W        W30416  27.108   2.779  12.434
58091W        W30417  25.636   4.429   2.845
58092W        W30418  25.696  39.606   3.342
58093W        W30419  39.295  23.138  12.695
58094W        W30420  20.620  27.708  13.649
58095W        W30421   6.169   0.443  12.156
58096W        W30422  13.270   8.725   5.126
58097W        W30423  32.601  11.131  11.169
58098W        W30424   3.527  11.897  13.777
58099W        W30425  35.094  25.034  14.705
58100W        W30426  28.425  32.839   1.943
58101W        W30427  44.911  13.436   0.845
58102W        W30428  17.711  42.758   3.783
58103W        W30429  39.730  33.830   1.726
58104W        W30430   9.164  27.562  13.895
58105W        W30431  37.942  16.314   1.784
58106W        W30432  23.148  37.627   2.825
58107W        W30433   4.883  37.491  13.489
58108W        W30434  36.512  19.967  13.883
58109W        W30435   9.618   4.946   2.873
58110W        W30436  21.952  17.605   2.704
58111W        W30437   8.386  38.452  11.583
58112W        W30438   5.694   9.362  14.905
58113W        W30439  14.894  32.652   4.609
58114W        W30440   3.918   0.228  14.811
58115W        W30441  19.294  14.223   2.860
58116W        W30442  27.783   6.224   4.036
58117W        W30443  10.539   2.302  11.299
58118W        W30444  15.918  39.492   0.051
58119W        W30445   5.415  11.144  13.110
58120W        W30446  44.988  38.765   4.550
58121W        W30447  20.130  25.283  10.798
58122W        W30448  28.572  13.715   0.979
58123W        W30449  42.418   2.671  13.124
58124W        W30450  25.485  40.941  14.221
58125W        W30451  35.374  14.790  13.292
58126W        W30452   2.148  42.598  12.994
58127W        W30453   4.857  43.312  13.222
58128W        W30454  16.612   4.688  10.364
58129W        W30455  40.993  10.980   2.316
58130W        W30456  29.191   9.327   0.769
58131W        W30457  15.747  41.546  11.908
58132W        W30458  34.910   5.335   3.320
58133W        W30459  19.554  18.171  13.447
58134W        W30460  43.604  14.280  12.384
58135W        W30461  34.084   0.024  12.459
58136W        W30462   8.406   0.599   1.509
58137W        W30463  21.667  17.551   1.271
58138W        W30464  35.004   7.706  13.786
58139W        W30465   8.905   4.744  11.552
58140W        W30466  17.743  29.635   3.165
58141W        W30467   8.712  33.943   4.444
58142W        W30468  37.348  30.953  13.607
58143W        W30469  36.840  22.543   4.897
58144W        W30470   5.247  40.683  13.910
58145W        W30471  10.208  13.208   3.570
58146W        W30472  42.763  43.243   1.810
58147W        W30473  15.978   3.468  14.262
58148W        W30474  29.916  43.739   1.683
58149W        W30475   1.978  32.361   0.459
58150W        W30476  25.963  33.008  14.027
58151W        W30477  15.638   4.176   1.710
58152W        W30478  12.232   8.619   2.350
58153W        W30479  39.027  14.065  12.905
58154W        W30480  25.255  21.504   0.426
58155W        W30481  19.322  34.133  12.082
58156W        W30482  23.104  37.064  11.726
58157W        W30483  11.745  42.743  13.550
58158W        W30484  44.328  30.492   4.968
58159W        W30485  43.985  24.641  14.477
58160W        W30486  16.471  11.990   4.235
58161W        W30487   3.785   5.687  14.920
58162W        W30488  36.541  38.410   3.598
58163W        W30489  39.738  25.614  13.916
58164W        W30490  31.562   7.320   2.827
58165W        W30491  32.227   6.910  10.747
58166W        W30492  28.702  44.711  12.821
58167W        W30493  32.714  19.727   2.750
58168W        W30494  10.829  18.293  14.971
58169W        W30495  30.495   4.971   3.175
58170W        W30496  19.318  39.736  13.981
58171W        W30497  23.645  16.850   4.090
58172W        W30498  19.632   0.760   0.935
58173W        W30499   4.829  21.205  13.288
58174W        W30500   8.222  28.176   1.363
58175W        W30501   4.811   7.985   1.885
58176W        W30502  33.398  23.094  13.368
58177W        W30503  23.206  10.409   3.883
58178W        W30504   6.771  32.681   1.722
58179W        W30505  44.741  15.733  11.019
58180W        W30506  26.874  17.074  11.898
58181W        W30507  27.556  27.106   4.269
58182W        W30508  36.342  14.400  11.932
58183W        W30509  15.287  39.996   0.507
58184W        W30510  39.269   0.837   2.930
58185W        W30511  28.623  26.956   2.205
58186W        W30512  11.481   8.115   3.183
58187W        W30513   8.960  19.228  14.966
58188W        W30514  33.445  32.658   3.769
58189W        W30515  42.953  32.969   2.240
58190W        W30516  16.574   3.195  12.516
58191W        W30517  19.514  40.194  11.550
58192W        W30518   6.717  28.849  12.585
58193W        W30519  40.413  40.291  10.335
58194W        W30520  16.129  21.030  11.941
58195W        W30521  34.325  31.676   2.391
58196W        W30522   2.377  37.497  12.064
58197W        W30523  26.680  30.346  12.975
58198W        W30524  27.090  28.983  14.868
58199W        W30525  31.699  43.975   1.179
58200W        W30526  42.202   7.399  13.583
58201W        W30527  25.674  42.110  11.608
58202W        W30528  11.726  40.354  14.432
58203W        W30529  40.030  13.243  12.843
58204W        W30530  42.878  44.285  11.533
58205W        W30531  35.307  30.233  14.444
58206W        W30532   9.725  31.158   4.116
58207W        W30533  16.621   5.514   4.565
58208W        W30534   5.500  19.936   3.252
58209W        W30535   4.221  22.966  12.756
58210W        W30536  25.523  17.838   2.180
58211W        W30537   4.412   5.239   1.765
58212W        W30538  30.458  27.551  13.413
58213W        W30539   9.096  36.294  11.402
58214W        W30540  43.336  40.804  11.244
58215W        W30541  40.032  10.568   3.230
58216W        W30542  44.776  17.174   2.231
58217W        W30543  37.967  25.551   4.350
58218W        W30544  34.421  39.059   1.927
58219W        W30545   8.668   9.023  10.779
58220W        W30546  11.386   5.895   1.806
58221W        W30547  29.415  10.674  13.340
58222W        W30548  34.924  15.774   0.005
58223W        W30549  20.545  22.642  11.174
58224W        W30550  37.607  31.766   2.416
58225W        W30551  15.030  44.398  13.877
58226W        W30552  22.049  10.806   4.085
58227W        W30553  26.114  39.706  13.272
58228W        W30554  34.475  22.149   2.404
58229W        W30555  39.856  15.896   0.970
58230W        W30556  41.449  36.086  11.925
58231W        W30557  20.030  27.817  12.550
58232W        W30558   9.202  26.642   2.627
58233W        W30559  18.711  21.844  10.738
58234W        W30560  16.684  31.715   0.185
58235W        W30561  42.333  30.110  10.500
58236W        W30562   1.064  22.928   4.803
58237W        W30563  28.490  31.192   0.362
58238W        W30564  13.177  11.378  11.504
58239W        W30565  26.467  41.603  14.760
58240W        W30566   5.485  10.437   3.436
58241W        W30567  41.317   9.882   3.362
58242W        W30568  21.931  30.894  12.015
58243W        W30569   1.866   2.226   2.626
58244W        W30570  23.533  18.656  10.296
58245W        W30571  34.881  12.659   0.336
58246W        W30572  41.057  40.315  14.065
58247W        W30573   9.692  15.508   1.938
58248W        W30574  34.964   4.201  14.362
58249W        W30575  30.857  16.140  11.075
58250W        W30576  44.196  16.113  11.543
58251W        W30577  29.132  42.754  13.569
58252W        W30578  36.326  41.767   0.758
58253W        W30579  14.739   1.253   1.535
58254W        W30580  24.126   7.892   1.331
58255W        W30581  30.706  25.167  12.440
58256W        W30582  40.279  17.263  14.747
58257W        W30583  29.243   7.856   2.375
58258W        W30584  16.788  11.564  12.857
58259W        W30585  41.773  33.313  13.365
58260W        W30586   4.698   5.299  12.453
58261W        W30587  29.464  42.682   4.572
58262W        W30588  28.077  35.369   2.420
58263W        W30589  19.231   9.257   3.016
58264W        W30590  37.545   1.969   2.715
58265W        W30591   4.694  23.172  12.767
58266W        W30592   9.669  10.454  12.099
58267W        W30593  25.287  43.361  11.122
58268W        W30594  17.195   1.723   0.528
58269W        W30595  23.500   3.974   2.860
58270W        W30596  39.935  38.940   4.031
58271W        W30597  29.582  24.988  12.602
58272W        W30598  24.745  34.379   1.279
58273W        W30599  28.391   0.283   4.470
58274W        W30600   3.851  23.000   3.133
58275W        W30601  12.312  23.616   3.766
58276W        W30602  10.243  43.338  10.772
58277W        W30603  29.968  21.696   0.357
58278W        W30604  31.794  29.170  14.187
58279W        W30605  27.378  21.095  10.680
58280W        W30606  23.589  24.742   3.215
58281W        W30607  34.416  13.702  14.651
58282W        W30608   1.486  21.669   5.555
58283W        W30609   1.671  16.682  12.649
58284W        W30610  15.189  43.881  13.890
58285W        W30611  30.398   1.743   3.256
58286W        W30612  22.041  23.649  11.121
58287W        W30613  42.028  41.403  10.352
58288W        W30614  35.832  28.951  12.616
58289W        W30615   3.380  16.661  10.140
58290W        W30616  19.017  25.353   0.749
58291W        W30617  23.326   1.407   2.205
58292W        W30618  13.976  23.615  14.758
58293W        W30619  20.300  36.888  13.157
58294W        W30620   9.618  16.163   3.163
58295W        W30621  36.221  24.582   4.584
58296W        W30622  29.729  33.576   0.784
58297W        W30623  28.523  21.470   1.378
58298W        W30624  26.040  24.120  13.484
58299W        W30625  13.648  42.271   0.294
58300W        W30626  41.824  25.405   0.372
58301W        W30627   9.732  19.526  12.119
58302W        W30628  38.303  41.423  10.458
58303W        W30629  12.438  21.229  13.777
58304W        W30630  37.561  38.427   4.307
58305W        W30631  22.241  10.772   4.568
58306W        W30632  16.011   4.677  13.856
58307W        W30633  19.146  42.072  13.829
58308W        W30634  18.860   1.754   3.751
58309W        W30635  16.762  17.065   3.809
58310W        W30636  12.875  11.510  13.944
58311W        W30637   3.207  37.566  13.574
58312W        W30638  31.024  37.474  11.417
58313W        W30639  13.424   0.973   1.998
58314W        W30640   2.205   3.924   2.942
58315W        W30641  23.572  26.557   4.022
58316W        W30642  11.444  10.589  11.475
58317W        W30643  36.419  27.889  13.412
58318W        W30644  42.780  23.771   3.134
58319W        W30645  27.083  26.624   3.232
58320W        W30646  36.101  28.720  14.861
58321W        W30647  18.288   0.827  11.101
58322W        W30648  40.489   8.391  14.854
58323W        W30649   8.843   5.771   3.176
58324W        W30650   3.701  37.669   1.653
58325W        W30651   8.842  18.766  14.715
58326W        W30652  21.801  14.855   1.282
58327W        W30653  22.699  40.160   1.995
58328W        W30654  39.082  38.945   0.311
58329W        W30655  35.874   2.903   3.682
58330W        W30656  18.263  21.259   3.201
58331W        W30657   3.780  15.103   2.000
58332W        W30658  36.592   3.879   1.467
58333W        W30659  21.193   9.783  12.419
58334W        W30660   4.898  20.334   3.181
58335W        W30661   7.171   5.889   4.413
58336W        W30662  24.414  44.926  13.567
58337W        W30663  35.285  43.730   3.301
58338W        W30664  10.387  26.161   2.327
58339W        W30665  36.633  32.087  12.468
58340W        W30666  38.977  23.217  13.295
58341W        W30667  11.864  24.690  14.488
58342W        W30668  19.617  40.467   0.006
58343W        W30669   4.175  24.605  12.090
58344W        W30670  17.278  30.434  13.626
58345W        W30671  11.545  38.075   0.238
58346W        W30672  16.755   1.258  11.119
58347W        W30673  34.662   6.223   0.918
58348W        W30674  26.209  31.162   1.385
58349W        W30675  44.649  36.630  12.974
58350W        W30676  17.719  12.873   4.287
58351W        W30677  41.469  18.188   1.171
58352W        W30678   5.175  37.100  12.088
58353W        W30679  12.419  43.786  11.528
58354W        W30680   0.386  26.599  12.445
58355W        W30681  42.008  18.044   4.382
58356W        W30682  25.026  13.844  13.962
58357W        W30683  21.270  29.438  12.475
58358W        W30684  28.470  31.424   4.226
58359W        W30685  42.131  13.985   0.417
58360W        W30686  14.190  15.594   4.683
58361W        W30687  21.996  24.989   0.796
58362W        W30688  16.234   5.632   3.273
58363W        W30689   7.606  16.668   4.250
58364W        W30690  41.043  36.481   0.402
58365W        W30691  25.204  10.215   2.907
58366W        W30692  15.166   5.281   2.146
58367W        W30693   5.848   7.349  14.261
58368W        W30694  37.931  42.825  13.916
58369W        W30695  28.432  37.615   4.579
58370W        W30696   1.348  34.803   1.951
58371W        W30697  33.039  23.944  14.512
58372W        W30698  10.090   6.382   1.308
58373W        W30699  11.633  36.297  11.521
58374W        W30700   9.382  30.420  13.372
58375W        W30701  29.580  20.282  13.157
58376W        W30702   5.364  23.647   2.505
58377W        W30703  12.258   2.461   0.404
58378W        W30704  41.643  37.641  12.992
58379W        W30705  32.422  19.572  12.025
58380W        W30706  40.458  36.620  10.537
58381W        W30707  22.156  42.829   4.654
58382W        W30708   3.892  41.059  13.636
58383W        W30709  18.321   6.938  11.264
58384W        W30710  35.597  40.263   4.086
58385W        W30711   1.341  13.143   1.299
58386W        W30712   9.347  10.169  13.969
58387W        W30713  14.944   3.451  12.636
58388W        W30714  33.747  12.545  11.416
58389W        W30715  18.802  28.027  14.889
58390W        W30716  13.856  24.788   3.697
58391W        W30717  12.769   2.788   2.744
58392W        W30718   4.268  21.204   0.794
58393W        W30719  35.866  35.168   1.950
58394W        W30720  22.222  38.149  14.986
58395W        W30721  18.893  26.424  13.525
58396W        W30722   6.824  19.278   0.663
58397W        W30723  37.970  42.002   3.796
58398W        W30724  38.470   7.462   0.908
58399W        W30725  37.106   7.438  12.343
58400W        W30726  23.427  30.876   2.730
58401W        W30727  17.409   2.645   4.489
58402W        W30728  25.169   3.353  14.157
58403W        W30729  42.525  27.422   1.907
58404W        W30730  39.575  33.863   0.866
58405W        W30731  10.828  16.935   1.090
58406W        W30732  17.228  41.479   3.908
58407W        W30733  19.435  29.261   0.294
58408W        W30734  36.335  13.320   3.242
58409W        W30735  13.684  15.188  14.283
58410W        W30736  37.614   4.699  10.300
58411W        W30737  21.586  32.545  14.890
58412W        W30738  40.229  25.579   3.711
58413W        W30739   4.650  42.234   0.173
58414W        W30740   7.879  21.696  10.261
58415W        W30741  32.992   3.840  14.585
58416W        W30742  19.812  15.863   1.800
58417W        W30743  20.564   4.614  13.391
58418W        W30744  43.886  16.105  13.280
58419W        W30745  33.915  10.851   1.370
58420W        W30746  14.685   0.269   0.467
58421W        W30747  32.912  19.794   0.770
58422W        W30748  26.505  32.803   0.880
58423W        W30749   4.428   7.515  11.526
58424W        W30750   8.490  13.759  12.588
58425W        W30751  15.607   0.040  10.608
58426W        W30752  14.443  35.562   0.639
58427W        W30753   3.236  17.264  14.357
58428W        W30754   4.196  25.192   3.169
58429W        W30755  36.911  41.390   1.373
58430W        W30756  32.611  29.760  12.968
58431W        W30757   8.629  13.560  10.987
58432W        W30758  38.530  32.341   0.894
58433W        W30759   4.154  20.091  14.803
58434W        W30760  33.918  11.252  14.592
58435W        W30761  18.079   2.205  11.856
58436W        W30762   0.775  26.213   0.509
58437W        W30763  38.257  42.369  10.659
58438W        W30764  30.008  22.309   3.014
58439W        W30765  35.064  21.279  12.392
58440W        W30766  38.183  33.166  10.479
58441W        W30767  36.475  24.089   2.661
58442W        W30768  23.119  44.442   2.828
58443W        W30769  44.801  21.738   4.486
58444W        W30770   4.516  11.485  10.295
58445W        W30771  29.874  21.499   1.927
58446W        W30772   9.045   8.105   1.927
58447W        W30773  27.942  33.461  13.469
58448W        W30774  15.042  29.650  13.804
58449W        W30775  42.354  27.701   3.179
58450W        W30776  28.674   1.490   1.789
58451W        W30777  15.894  37.466   1.171
58452W        W30778  17.644  38.382   1.966
58453W        W30779  13.759   4.202   3.164
58454W        W30780  23.720   7.390  11.238
58455W        W30781  36.118   4.872  14.381
58456W        W30782  20.944  37.944   0.917
58457W        W30783  41.933  11.760   4.388
58458W        W30784  19.073   9.647  10.669
58459W        W30785  35.087  18.538  11.110
58460W        W30786  33.698  29.451  13.387
58461W        W30787   7.885   4.817  10.574
58462W        W30788   9.252  29.049   0.307
58463W        W30789  12.613  21.980  14.868
58464W        W30790  43.552  12.117  12.157
58465W        W30791   0.665  14.658   2.722
58466W        W30792   7.976   0.864  14.402
58467W        W30793  40.538   5.231  14.934
58468W        W30794  11.600  25.641   2.162
58469W        W30795  41.825  35.879   2.041
58470W        W30796  24.479  31.452   3.748
58471W        W30797  27.611  34.462   1.912
58472W        W30798  18.170  18.293   3.692
58473W        W30799  11.811  34.788  11.881
58474W        W30800  39.135  42.783   2.280
58475W        W30801  31.431  38.027  10.524
58476W        W30802  24.926  35.932  12.517
58477W        W30803  38.528  22.751  14.000
58478W        W30804  30.966  38.452  14.001
58479W        W30805  30.215  36.026  10.814
58480W        W30806  13.821   9.798   3.858
58481W        W30807  40.893  43.265   3.139
58482W        W30808  10.829   2.103   3.290
58483W        W30809  16.662  17.662   4.201
58484W        W30810  30.464  13.254   2.520
58485W        W30811  35.025  24.963  12.523
58486W        W30812  16.950  35.698   9.880
58487W        W30813  17.196  35.916  11.208
58488W        W30814  35.908  25.577   2.073
58489W        W30815  23.574  15.127  12.443
58490W        W30816   6.901  16.297   1.768
58491W        W30817  43.717   7.339  14.029
58492W        W30818  33.012  31.614  12.617
58493W        W30819  32.017   3.870   4.697
58494W        W30820  11.269   4.466   3.453
58495W        W30821  25.825  35.664   1.930
58496W        W30822  11.623  16.723  10.688
58497W        W30823  39.256  12.815  14.520
58498W        W30824   2.966  15.333   1.345
58499W        W30825  27.903   4.378  11.413
58500W        W30826  32.161  35.897  14.195
58501W        W30827  43.759  12.140   0.904
58502W        W30828  33.444   5.127   3.056
58503W        W30829  34.359  21.639  11.956
58504W        W30830  10.179  40.820   3.610
58505W        W30831  31.085  34.191   1.377
58506W        W30832  19.698  30.618   3.740
58507W        W30833   6.334   4.721  10.486
58508W        W30834  18.628  33.575   2.674
58509W        W30835  41.655  20.221  11.423
58510W        W30836  38.117  28.931   0.739
58511W        W30837  25.016  18.019   2.902
58512W        W30838   1.299   4.865  13.421
58513W        W30839  21.191  26.315   4.246
58514W        W30840  29.445   8.705   1.312
58515W        W30841  11.297  18.587  14.442
58516W        W30842  14.780  25.017  14.469
58517W        W30843  28.995  37.989  14.314
58518W        W30844  40.907  26.044  11.939
58519W        W30845  36.351  10.846   4.681
58520W        W30846  16.634  37.094  13.106
58521W        W30847  42.476  32.008  11.133
58522W        W30848  23.151  22.295  10.760
58523W        W30849  20.219  11.590  12.487
58524W        W30850   5.311  18.614   3.624
58525W        W30851  39.532  36.284  14.396
58526W        W30852  44.560  14.766  14.823
58527W        W30853   8.334   5.480   0.805
58528W        W30854  29.881  35.447   3.675
58529W        W30855  16.919   4.833  14.961
58530W        W30856  30.457  16.103   2.364
58531W        W30857  28.514  30.212  13.225
58532W        W30858  41.972  22.032  13.419
58533W        W30859  16.824  20.221   2.672
58534W        W30860  38.388  21.248   1.391
58535W        W30861   1.417  44.048  13.488
58536W        W30862  40.122  36.423   0.215
58537W        W30863  27.541  26.529   0.180
58538W        W30864   8.293  36.215  10.903
58539W        W30865  15.130  29.528   0.832
58540W        W30866  42.823  14.189   0.833
58541W        W30867   0.137  18.965  11.901
58542W        W30868  24.988  20.198   4.084
58543W        W30869   4.344  11.414   0.550
58544W        W30870   0.725  11.206  11.601
58545W        W30871  39.506  28.937   1.534
58546W        W30872  14.263  25.395   0.987
58547W        W30873   3.510   2.885   2.826
58548W        W30874  28.445  35.590   0.348
58549W        W30875  25.046  20.735  11.996
58550W        W30876  27.447  43.255   0.999
58551W        W30877  36.120  43.414  11.495
58552W        W30878  40.752   7.481  14.415
58553W        W30879  27.902  12.808  12.802
58554W        W30880  24.137  17.496   3.494
58555W        W30881  17.165  26.215  11.652
58556W        W30882  44.635  30.880  11.649
58557W        W30883  35.082  31.943  11.881
58558W        W30884   5.419  38.748   9.938
58559W        W30885  21.644  26.702   2.702
58560W        W30886   7.040  37.874   1.911
58561W        W30887   4.007  14.783  13.967
58562W        W30888  43.456  36.575   3.337
58563W        W30889  29.677  43.027  12.923
58564W        W30890  14.003  26.241   9.717
58565W        W30891  22.695  28.363  13.536
58566W        W30892  22.824   0.431  14.843
58567W        W30893  10.339   6.043   5.011
58568W        W30894  17.280   8.483   1.782
58569W        W30895  10.514  16.903   2.360
58570W        W30896   9.916   6.292   0.785
58571W        W30897  10.437  27.689  13.769
58572W        W30898  21.038  31.409   1.156
58573W        W30899  42.293   6.801   3.213
58574W        W30900  37.131  21.533  11.223
58575W        W30901   9.181  18.440  14.442
58576W        W30902  18.127  43.044   1.722
58577W        W30903  28.066  11.743  13.703
58578W        W30904   4.328  32.657   0.621
58579W        W30905  28.631  19.847   2.417
58580W        W30906  37.815  31.766   3.430
58581W        W30907  16.840   9.842   0.352
58582W        W30908  35.314  15.521   4.647
58583W        W30909   5.182   9.156  11.657
58584W        W30910  37.384  28.068  13.406
58585W        W30911  16.650  32.811   1.886
58586W        W30912  37.439  13.746   2.848
58587W        W30913   9.850  11.371  14.003
58588W        W30914  41.268  31.603  12.059
58589W        W30915   3.769  36.683   1.687
58590W        W30916  36.826  15.133   4.562
58591W        W30917  30.911  30.069  13.559
58592W        W30918  37.234  27.859  11.166
58593W        W30919  21.524  17.197  13.088
58594W        W30920  18.359  40.070  13.314
58595W        W30921  35.083  12.698  12.965
58596W        W30922  11.965  25.093  14.887
58597W        W30923  26.415  15.639   1.836
58598W        W30924  38.485  24.572  14.223
58599W        W30925   5.284  29.614  11.460
58600W        W30926  17.756  19.351   1.960
58601W        W30927  38.336  18.745   0.107
58602W        W30928  13.570   7.146  11.562
58603W        W30929  18.366  26.029  13.898
58604W        W30930  21.226  16.292  12.179
58605W        W30931  38.320  24.169  14.923
58606W        W30932  20.682  33.989  14.500
58607W        W30933   7.140  43.020  13.941
58608W        W30934  43.723  43.468   1.229
58609W        W30935  38.197  29.308  11.038
58610W        W30936   8.461  18.039   2.230
58611W        W30937   5.439   8.129   0.818
58612W        W30938  15.757   4.264  14.772
58613W        W30939   3.655  12.176   0.864
58614W        W30940  26.233  12.633  11.461
58615W        W30941  29.207  30.015   2.434
58616W        W30942   1.564  14.206   2.611
58617W        W30943   6.897  14.832   4.616
58618W        W30944  14.992  29.375  11.923
58619W        W30945  23.009  43.535  10.834
58620W        W30946  38.715  37.487   1.892
58621W        W30947   8.725  13.308   2.292
58622W        W30948  27.702   2.329  14.871
58623W        W30949   2.654   8.190  11.031
58624W        W30950  32.508  15.079   0.820
58625W        W30951   1.289  20.263   4.493
58626W        W30952  38.324  43.379  14.463
58627W        W30953  25.193  35.989   3.697
58628W        W30954   7.328  44.875  11.505
58629W        W30955  38.616  15.942   1.281
58630W        W30956  12.664  44.997  12.026
58631W        W30957   0.734  23.893  13.082
58632W        W30958  42.426  11.781  14.021
58633W        W30959  31.725  12.471   3.750
58634W        W30960  15.563  23.742  14.777
58635W        W30961  43.789  37.163   2.358
58636W        W30962  37.401   2.315  11.116
58637W        W30963  36.004  10.854  11.974
58638W        W30964  18.752   3.174  12.437
58639W        W30965  41.105  37.124   3.590
58640W        W30966  24.571  25.251   0.968
58641W        W30967  43.892  21.499   1.355
58642W        W30968  24.404   2.931   2.782
58643W        W30969  10.353  36.136   3.867
58644W        W30970  30.978  34.277   2.328
58645W        W30971  20.456  43.850   1.247
58646W        W30972  29.132  16.715  11.559
58647W        W30973  30.899   6.763   0.406
58648W        W30974  42.363   7.263  10.735
58649W        W30975   2.665   5.986  14.146
58650W        W30976   5.033  17.294  12.440
58651W        W30977   1.184  14.924  12.629
58652W        W30978  10.845  29.563  12.650
58653W        W30979  36.923   4.329  14.523
58654W        W30980  33.226  40.334  10.272
58655W        W30981  17.278  25.562  13.423
58656W        W30982  35.891  41.479  12.481
58657W        W30983   4.479  26.072   2.165
58658W        W30984  21.656  21.318   4.568
58659W        W30985   2.737   0.310   4.565
58660W        W30986  40.989  34.417  12.360
58661W        W30987  32.215   5.632   0.359
58662W        W30988  11.154   6.610  12.939
58663W        W30989  18.851  35.404   2.919
58664W        W30990   3.493   0.539  14.955
58665W        W30991   6.186   5.205   4.041
58666W        W30992   4.519   9.735  11.081
58667W        W30993  12.935  39.658   1.138
58668W        W30994  22.623  31.521   4.269
58669W        W30995  27.627  25.437   0.005
58670W        W30996  14.737  29.256   2.860
58671W        W30997  10.835  23.110   0.459
58672W        W30998  23.675  44.429   2.862
58673W        W30999  24.571  24.243   0.840
58674W        W31000  23.796  22.747   3.161
58675W        W31001   7.286  27.882  13.854
58676W        W31002  27.651  24.014  14.459
58677W        W31003  31.133  29.126  11.186
58678W        W31004  21.608   7.627  12.971
58679W        W31005  28.685  10.110   3.291
58680W        W31006  15.281  35.409   2.026
58681W        W31007  30.865  44.964   1.169
58682W        W31008  38.673  26.914   1.043
58683W        W31009   2.422   6.490  11.107
58684W        W31010  18.035  35.280   2.365
58685W        W31011  42.325   8.986  11.810
58686W        W31012  21.575  33.171   3.827
58687W        W31013  29.579   8.067   1.905
58688W        W31014  19.765   6.855   3.735
58689W        W31015  27.428  29.439   4.060
58690W        W31016  42.356  33.457   0.061
58691W        W31017  21.616   9.720   3.687
58692W        W31018  26.933   2.402  14.981
58693W        W31019  30.926  28.615  11.181
58694W        W31020  11.196  22.231   1.284
58695W        W31021  32.958  40.582  10.656
58696W        W31022   3.781  35.882  12.587
58697W        W31023  10.295  32.512   0.356
58698W        W31024   8.094   3.499  13.240
58699W        W31025  36.160  24.159   3.643
58700W        W31026  23.202  20.112   3.820
58701W        W31027  11.464  24.839  12.100
58702W        W31028   7.667  30.575  11.476
58703W        W31029  23.429   0.031   0.921
58704W        W31030  44.251  39.858   0.623
58705W        W31031  34.291  41.423  14.807
58706W        W31032  26.032  43.897  14.087
58707W        W31033  43.708  18.071   1.229
58708W        W31034   4.841  38.563   0.753
58709W        W31035  38.923   1.697   4.831
58710W        W31036  30.388  24.447  14.053
58711W        W31037  21.692  40.747  11.749
58712W        W31038  26.756  21.612   0.341
58713W        W31039   1.861   1.048   0.531
58714W        W31040  16.064  10.880  13.879
58715W        W31041  18.806   9.462   0.869
58716W        W31042   5.425  32.671  13.383
58717W        W31043   9.890  10.273  10.538
58718W        W31044  15.598  34.953   4.150
58719W        W31045  15.113  21.747  14.235
58720W        W31046  36.160  15.083   0.256
58721W        W31047  35.525  27.919   0.493
58722W        W31048  44.035  23.991   1.421
58723W        W31049  18.068   9.208  10.650
58724W        W31050  31.765  17.004   0.315
58725W        W31051  32.585  20.152  14.492
58726W        W31052   4.263  13.044   3.123
58727W        W31053  23.087  11.405  10.652
58728W        W31054   4.371  18.606   4.511
58729W        W31055   8.860  42.086   3.103
58730W        W31056  41.794  16.956   3.599
58731W        W31057   5.700  14.811   3.200
58732W        W31058   5.785  18.485  14.464
58733W        W31059  33.885   4.684   3.097
58734W        W31060   3.449  36.764   4.803
58735W        W31061  26.167  35.445   1.477
58736W        W31062   8.822  23.014   2.772
58737W        W31063  33.507  32.192  13.347
58738W        W31064   1.248  33.445  14.992
58739W        W31065  29.525  36.262   2.741
58740W        W31066  24.484   0.528   1.720
58741W        W31067  26.501  25.065  14.764
58742W        W31068  14.799   5.811  12.460
58743W        W31069  10.798   1.571   1.849
58744W        W31070  12.558  14.691  11.800
58745W        W31071   2.670  20.982   5.435
58746W        W31072  42.711  37.794   4.081
58747W        W31073  10.721   5.588  13.033
58748W        W31074  12.853  15.150  12.526
58749W        W31075  26.652  15.182   1.722
58750W        W31076  18.683  40.493  10.741
58751W        W31077  41.351  26.497   3.941
58752W        W31078   5.907   7.299  12.032
58753W        W31079  32.045   9.630  12.075
58754W        W31080  36.747   1.833  13.053
58755W        W31081  40.976  17.090  14.313
58756W        W31082  24.636  12.833  13.635
58757W        W31083  40.312  23.467  12.435
58758W        W31084  26.394  41.514   3.526
58759W        W31085  18.810  10.205  11.076
58760W        W31086  28.096  32.670  11.737
58761W        W31087  41.066  42.900   4.246
58762W        W31088  12.747   4.224  14.000
58763W        W31089  24.189   9.225   4.093
58764W        W31090  38.569   0.799  11.607
58765W        W31091  44.267  25.180   3.136
58766W        W31092  23.144  44.454  10.678
58767W        W31093   6.799   0.305  12.985
58768W        W31094   1.731  21.580   5.096
58769W        W31095   1.174   1.416   2.890
58770W        W31096  39.312  37.812  13.433
58771W        W31097  37.807  10.134  11.070
58772W        W31098   0.521  41.422   3.615
58773W        W31099  24.777  37.267   1.645
58774W        W31100  35.601  14.760   4.113
58775W        W31101   4.411  38.265   0.835
58776W        W31102  29.435  28.591   1.317
58777W        W31103   5.196   7.758  13.495
58778W        W31104   7.421  35.108   2.972
58779W        W31105  24.966  39.776  11.794
58780W        W31106  44.243  42.208   0.334
58781W        W31107  41.282  38.096  13.535
58782W        W31108  34.337  44.998   3.337
58783W        W31109   6.739   7.132  14.476
58784W        W31110  31.030  17.255   2.383
58785W        W31111  30.857  14.880  13.620
58786W        W31112  20.662  33.109   1.180
58787W        W31113  30.228  13.288  10.619
58788W        W31114  41.466  20.312  13.471
58789W        W31115  30.158  41.781  12.931
58790W        W31116   4.930  38.819  13.219
58791W        W31117  24.307  36.647  13.013
58792W        W31118  34.487  23.860   1.401
58793W        W31119  23.178  16.871   2.810
58794W        W31120  23.669  26.212   0.460
58795W        W31121  19.643  39.464   1.950
58796W        W31122   7.234  41.394   4.604
58797W        W31123  13.650  18.110   2.388
58798W        W31124  42.300  13.557   3.151
58799W        W31125  38.907   5.809   0.628
58800W        W31126  17.786   0.754   3.743
58801W        W31127  22.608   8.714   3.563
58802W        W31128   9.271  37.799  13.809
58803W        W31129   2.220   2.100   9.786
58804W        W31130   1.562  19.330  10.723
58805W        W31131  18.017   4.452   4.554
58806W        W31132  44.027  30.616  11.721
58807W        W31133  44.095  30.494  14.658
58808W        W31134   3.724  22.864  13.495
58809W        W31135  41.229   0.065  13.862
58810W        W31136  17.635  13.396   3.350
58811W        W31137  19.735  36.232  11.849
58812W        W31138  24.791  38.950  12.164
58813W        W31139   0.303  35.011  12.474
58814W        W31140  36.159  44.383  11.272
58815W        W31141  38.152  10.919  11.634
58816W        W31142   1.475  13.632  14.482
58817W        W31143  24.874  24.079  14.068
58818W        W31144  44.048  12.999  11.066
58819W        W31145  34.093  14.118  13.455
58820W        W31146  44.570  17.609   1.361
58821W        W31147  16.491  24.299  12.127
58822W        W31148  43.777  19.905  13.793
58823W        W31149  32.445  38.038   3.258
58824W        W31150  43.021  12.464   3.053
58825W        W31151  30.652   4.214   0.590
58826W        W31152   9.866  21.040  14.008
58827W        W31153  21.230   6.209  13.338
58828W        W31154  30.462   5.502  12.818
58829W        W31155  27.898  42.119  11.649
58830W        W31156  36.516  20.810  12.825
58831W        W31157  43.434  21.725   3.933
58832W        W31158   4.732   3.589  10.137
58833W        W31159  43.785   3.265   3.624
58834W        W31160  32.928  20.104  13.308
58835W        W31161  30.137  44.367  13.030
58836W        W31162  42.594   6.820  10.715
58837W        W31163  42.940  40.075  11.878
58838W        W31164  15.833  44.945  14.936
58839W        W31165  43.239   1.921   2.322
58840W        W31166   6.261  23.052  10.731
58841W        W31167  15.301  16.289  14.642
58842W        W31168  33.192  25.770  11.516
58843W        W31169  30.707  32.852  12.460
58844W        W31170  44.031  19.319  13.292
58845W        W31171   4.397  23.486   2.868
58846W        W31172  38.599  19.014  13.415
58847W        W31173  29.497  26.034   4.644
58848W        W31174  11.576  22.218  13.348
58849W        W31175  40.566  12.840   1.249
58850W        W31176  13.638  24.297  14.687
58851W        W31177  41.845  17.457   3.665
58852W        W31178  38.040  36.311   4.193
58853W        W31179  12.832   7.197   1.447
58854W        W31180  23.103  27.165  11.037
58855W        W31181  20.992  27.846   1.706
58856W        W31182  14.596  11.303   3.624
58857W        W31183  34.864  31.644  12.546
58858W        W31184   4.305  37.065  12.545
58859W        W31185  36.467  24.291   3.160
58860W        W31186  25.443  39.156  12.869
58861W        W31187  30.959  16.764  12.174
58862W        W31188  25.611  39.023   3.229
58863W        W31189  25.959  44.385  12.721
58864W        W31190  36.427  41.564   0.297
58865W        W31191   0.653   7.852   4.939
58866W        W31192  12.736  44.100  11.173
58867W        W31193   0.231  37.793   3.711
58868W        W31194   7.097  19.625  10.744
58869W        W31195  29.133  39.968   1.368
58870W        W31196  26.386  17.195  12.008
58871W        W31197  25.787  15.505   3.047
58872W        W31198   7.221  16.973  12.642
58873W        W31199  44.644  41.269  14.895
58874W        W31200  38.307  19.571   4.126
58875W        W31201  23.095  33.021   2.299
58876W        W31202  17.158  34.373  11.204
58877W        W31203  34.977  29.426  14.780
58878W        W31204  31.669  14.037  11.583
58879W        W31205  42.864  21.761  14.382
58880W        W31206  27.128  29.320   3.637
58881W        W31207  28.097  30.453   1.929
58882W        W31208  26.901  31.720  10.641
58883W        W31209  16.072  37.970  14.175
58884W        W31210  10.933  22.467   4.170
58885W        W31211  20.262  39.878   2.252
58886W        W31212   7.375  37.148   3.215
58887W        W31213  25.961  16.506   2.011
58888W        W31214  13.565   8.272   3.886
58889W        W31215  13.590  20.461   3.590
58890W        W31216  23.276  35.471  14.722
58891W        W31217  42.588   5.981   3.743
58892W        W31218  24.254   1.526  12.036
58893W        W31219  18.845  42.765  14.525
58894W        W31220  35.312  10.450   3.186
58895W        W31221  12.613  33.533  12.596
58896W        W31222  12.764  24.703   9.764
58897W        W31223   9.043  25.158   1.825
58898W        W31224  17.633  19.557  12.035
58899W        W31225  17.863  11.978  13.578
58900W        W31226   2.160  25.545  13.497
58901W        W31227  15.730  33.359   3.253
58902W        W31228  11.137   6.674   0.685
58903W        W31229  37.289  23.611   3.758
58904W        W31230   2.974  19.553   0.851
58905W        W31231  33.451   0.285  13.489
58906W        W31232  28.062  25.194   3.021
58907W        W31233  37.508  19.573   3.593
58908W        W31234  22.198  21.951  11.850
58909W        W31235  18.885  13.092   4.147
58910W        W31236  10.122   1.420  12.906
58911W        W31237  12.028  23.693  10.201
58912W        W31238  23.814  14.628  11.185
58913W        W31239  23.464  37.529   0.550
58914W        W31240   0.983  13.218  13.913
58915W        W31241  28.955  13.574  12.507
58916W        W31242  17.346  43.856  12.866
58917W        W31243   7.223   2.897  12.442
58918W        W31244   6.267   5.898   1.861
58919W        W31245  22.938  12.478   0.215
58920W        W31246  17.729  34.880  12.544
58921W        W31247   4.248  32.766   2.521
58922W        W31248   0.224  16.321   1.920
58923W        W31249  23.547  21.707   4.219
58924W        W31250  21.102  30.865  12.947
58925W        W31251   7.211   0.266  13.332
58926W        W31252  17.558  21.064  12.859
58927W        W31253   0.310  20.779   2.376
58928W        W31254   6.893  19.758   0.406
58929W        W31255  23.600  11.851  12.046
58930W        W31256  41.471  11.837   1.754
58931W        W31257   6.637   7.970   2.633
58932W        W31258  34.280   7.381  11.758
58933W        W31259  34.498  41.908  14.822
58934W        W31260   5.859  20.608   2.361
58935W        W31261  28.429  16.748   4.575
58936W        W31262  15.823  18.230  11.143
58937W        W31263   7.740  24.573   0.439
58938W        W31264  14.249  32.090   1.609
58939W        W31265   0.583  22.907  12.506
58940W        W31266  12.648   8.544   3.021
58941W        W31267  43.533   9.322   4.556
58942W        W31268   6.686  38.427   0.027
58943W        W31269  44.456  20.178  13.494
58944W        W31270  39.514  16.293   3.246
58945W        W31271  15.160  10.170   0.302
58946W        W31272   6.212  30.122   1.448
58947W        W31273  27.618  30.134   2.250
58948W        W31274  40.095  25.113   4.192
58949W        W31275  26.067  40.080  13.642
58950W        W31276   3.853   8.756   0.823
58951W        W31277  17.827   5.729   3.749
58952W        W31278  10.661   8.067  14.969
58953W        W31279  20.832  16.121  13.232
58954W        W31280  10.921  34.643   3.716
58955W        W31281  41.510  22.735  11.698
58956W        W31282  36.639  18.166   1.361
58957W        W31283  21.348  19.279   4.886
58958W        W31284  37.353  20.846  11.673
58959W        W31285  12.273  26.599  11.049
58960W        W31286   8.767  23.190   3.273
58961W        W31287   3.640  32.530   0.904
58962W        W31288  28.133  41.867  12.026
58963W        W31289  21.742  39.871  13.400
58964W        W31290  31.934   6.946  12.818
58965W        W31291  29.125   7.662  14.877
58966W        W31292  32.488  12.853   2.639
58967W        W31293   5.414  20.316   0.256
58968W        W31294   3.321  30.396   3.186
58969W        W31295  36.066  26.989  13.057
58970W        W31296   1.095  26.409   0.864
58971W        W31297  29.178  16.185   3.080
58972W        W31298  41.895  21.642   2.717
58973W        W31299  31.640  36.603   1.308
58974W        W31300  19.262  35.590  14.891
58975W        W31301  21.207  22.584  11.713
58976W        W31302  27.754   8.866   2.260
58977W        W31303  29.591   3.940  10.664
58978W        W31304  38.129  28.661   4.180
58979W        W31305  40.708  41.239  12.929
58980W        W31306  38.177  35.960   2.252
58981W        W31307  22.515  41.153   0.716
58982W        W31308   4.784  34.790  11.024
58983W        W31309   7.224  38.143  13.491
58984W        W31310  13.328  12.925   1.512
58985W        W31311  22.542   6.585  12.171
58986W        W31312  23.724  42.231   4.324
58987W        W31313   4.913  19.695  13.542
58988W        W31314  17.216  26.487  14.436
58989W        W31315  26.498  18.599  11.429
58990W        W31316  26.724  16.924   2.044
58991W        W31317   5.170  11.295  14.946
58992W        W31318   8.384  18.168   1.317
58993W        W31319  40.841  33.871   0.893
58994W        W31320   6.392  34.813  13.053
58995W        W31321  21.689   4.834   0.854
58996W        W31322  23.737  25.216   3.131
58997W        W31323  44.183  30.210  10.981
58998W        W31324  29.362  39.620  13.468
58999W        W31325  28.769  35.878   2.442
59000W        W31326  25.858  25.580  14.061
59001W        W31327  37.907  43.358   1.844
59002W        W31328   1.327  18.681   2.081
59003W        W31329   3.320  28.163  11.630
59004W        W31330  16.545  43.209  12.460
59005W        W31331  11.483  28.216  14.499
59006W        W31332  38.004   8.520  12.710
59007W        W31333  10.685  42.253   2.839
59008W        W31334  34.794  30.234  12.878
59009W        W31335   6.108  36.823  13.434
59010W        W31336  36.538   5.587  12.942
59011W        W31337  18.571  11.132  11.771
59012W        W31338  18.780  14.703  10.928
59013W        W31339  42.903  21.013  10.583
59014W        W31340  31.971  30.583   0.366
59015W        W31341  44.083  34.795  12.914
59016W        W31342  34.090  43.278   4.148
59017W        W31343   4.908   5.870  11.967
59018W        W31344  38.871  29.628  11.157
59019W        W31345  32.309  20.094   3.877
59020W        W31346  39.496  21.557   1.044
59021W        W31347  44.467  24.698   3.135
59022W        W31348  14.611  25.583   3.197
59023W        W31349   6.305  24.295   2.147
59024W        W31350   5.679  25.152  11.685
59025W        W31351  12.001  24.026   3.805
59026W        W31352   9.008  29.094  14.859
59027W        W31353   1.372  40.382   3.584
59028W        W31354  44.752  32.625  14.487
59029W        W31355  17.172   8.803   3.187
59030W        W31356   3.964  13.671   4.261
59031W        W31357  38.415  20.202  10.664
59032W        W31358  20.063  11.113  10.721
59033W        W31359  37.865  43.667   0.775
59034W        W31360   3.865  10.304   1.058
59035W        W31361   0.275   5.698   3.195
59036W        W31362  26.528  11.803  14.540
59037W        W31363  29.673  26.569  10.368
59038W        W31364  11.944  12.713  11.136
59039W        W31365  24.632   8.535  10.747
59040W        W31366   6.650   0.259  12.029
59041W        W31367   4.235  42.799  10.616
59042W        W31368  26.132  33.445  12.443
59043W        W31369   2.786   3.734   4.636
59044W        W31370  37.322  43.947   4.381
59045W        W31371  16.737  17.117  14.393
59046W        W31372   0.926  25.961   3.343
59047W        W31373  19.176   3.203   3.805
59048W        W31374  39.029  26.242   3.733
59049W        W31375  20.808  21.567  10.303
59050W        W31376  12.875  44.885  10.737
59051W        W31377  27.728  13.791  11.908
59052W        W31378   6.951  31.642  14.951
59053W        W31379  23.856  36.842   5.580
59054W        W31380  41.063   7.426   1.869
59055W        W31381  13.674  15.727   4.526
59056W        W31382   7.719  18.551  12.784
59057W        W31383  35.974  16.566  11.380
59058W        W31384  40.428   7.640   0.539
59059W        W31385  38.001  38.443   2.219
59060W        W31386  19.021   2.436  14.893
59061W        W31387  16.694  30.735  11.739
59062W        W31388   2.190  11.666  13.329
59063W        W31389  20.624  15.526  11.586
59064W        W31390   5.374  12.120   1.721
59065W        W31391   0.049   4.929   0.541
59066W        W31392  26.517  21.776   0.787
59067W        W31393  38.491  15.688   4.377
59068W        W31394  25.971  37.621  11.649
59069W        W31395   0.534  41.958   1.381
59070W        W31396  32.588   4.608   4.583
59071W        W31397  30.568  19.114  14.758
59072W        W31398   8.146  41.014  14.960
59073W        W31399  19.229  32.760  12.993
59074W        W31400   7.205  28.027  14.359
59075W        W31401  15.917   2.921   4.276
59076W        W31402  30.226  30.686   4.632
59077W        W31403  42.526  33.715  12.389
59078W        W31404   3.895   2.369  13.843
59079W        W31405   1.810  25.701   0.773
59080W        W31406   0.243  41.402  12.046
59081W        W31407   9.306  33.434  12.473
59082W        W31408   0.731  29.999   1.769
59083W        W31409   0.231  10.238   5.046
59084W        W31410  31.717  15.172   1.462
59085W        W31411  27.717  27.406  10.681
59086W        W31412   5.835  30.604   1.750
59087W        W31413  11.255  31.450   4.367
59088W        W31414  25.611  35.441  12.869
59089W        W31415   2.852  23.682  12.899
59090W        W31416  40.479   5.458  12.475
59091W        W31417  14.386  16.159   1.678
59092W        W31418  32.910   9.259  10.437
59093W        W31419   5.564  16.355  11.481
59094W        W31420  13.736  16.836  14.848
59095W        W31421  37.422  39.558   0.419
59096W        W31422  13.113  34.973  13.451
59097W        W31423   0.974  24.663  14.687
59098W        W31424  27.480  35.944  13.963
59099W        W31425  12.332  17.429  11.075
59100W        W31426  28.161  34.578  10.794
59101W        W31427  30.417  39.351   2.364
59102W        W31428  13.171   8.646  10.594
59103W        W31429  16.511  12.291  11.588
59104W        W31430   5.564  36.351   4.135
59105W        W31431  21.250   9.773   2.473
59106W        W31432  10.228  41.771   3.399
59107W        W31433  43.463  27.053   0.331
59108W        W31434  43.213  26.499  14.376
59109W        W31435  42.338  38.399   4.697
59110W        W31436  44.748   8.401  12.374
59111W        W31437  41.016  32.097   1.513
59112W        W31438  28.240  33.582   4.715
59113W        W31439  29.454  34.455  13.995
59114W        W31440  29.354  44.247   3.853
59115W        W31441  38.621  42.909   2.164
59116W        W31442   4.383  18.954  13.358
59117W        W31443  40.679   5.062  12.074
59118W        W31444  19.256  16.779  13.326
59119W        W31445   4.369  31.815   0.060
59120W        W31446  17.266   7.664   4.262
59121W        W31447  23.591  15.648  12.435
59122W        W31448  15.744  14.010  10.679
59123W        W31449  42.345  33.043   4.843
59124W        W31450  28.475  26.118   4.306
59125W        W31451  33.947  12.664   2.893
59126W        W31452  10.576  20.703   0.865
59127W        W31453  10.219   8.174  14.444
59128W        W31454  29.854  25.953   4.202
59129W        W31455  12.657  24.419   0.834
59130W        W31456  15.303  30.595  14.322
59131W        W31457  37.957  36.046  14.437
59132W        W31458  37.495   7.713   2.922
59133W        W31459   8.257  38.083  11.922
59134W        W31460  21.828  36.001  14.471
59135W        W31461  37.030  30.477   3.564
59136W        W31462   9.211  32.716   1.845
59137W        W31463  18.727   3.246  13.998
59138W        W31464  42.524  33.911   3.693
59139W        W31465  38.870  44.259  10.880
59140W        W31466   7.370  35.420  11.536
59141W        W31467  41.554  19.359  11.974
59142W        W31468  39.082  33.975  14.377
59143W        W31469  26.661  36.005   3.809
59144W        W31470  40.268   6.127  11.975
59145W        W31471  11.197  37.325  10.203
59146W        W31472  16.595  37.194  10.961
59147W        W31473   9.861  43.725  14.994
59148W        W31474  39.381   5.984  12.109
59149W        W31475  36.423   3.203   0.240
59150W        W31476  26.525  43.986  13.956
59151W        W31477  16.169  30.407  11.102
59152W        W31478   1.691  37.517  13.375
59153W        W31479  14.134  25.488  14.757
59154W        W31480  13.424  35.542   0.833
59155W        W31481  39.080  35.040   0.981
59156W        W31482  33.999  39.303   3.405
59157W        W31483  14.068  39.630   1.698
59158W        W31484  12.179  23.723  13.447
59159W        W31485  27.703  29.232  13.511
59160W        W31486  17.115  18.698   0.891
59161W        W31487  14.172  18.173   0.370
59162W        W31488  13.331  30.440   3.643
59163W        W31489  17.868  10.688   3.244
59164W        W31490  11.288   6.066   2.398
59165W        W31491  30.485  38.039  11.407
59166W        W31492  31.112  41.543  11.592
59167W        W31493  30.904  42.962  11.688
59168W        W31494  34.188  42.125   3.698
59169W        W31495  18.069  43.430   0.224
59170W        W31496   9.146  26.126   2.825
59171W        W31497  10.371  32.182  13.061
59172W        W31498   3.766  26.941  14.883
59173W        W31499  33.301  39.018   5.082
59174W        W31500   9.166  42.597  12.951
59175W        W31501   6.865   5.405  11.893
59176W        W31502  12.719  44.009   4.708
59177W        W31503  31.783  11.127  12.401
59178W        W31504   9.608  33.035   2.572
59179W        W31505  17.833   3.929   0.376
59180W        W31506  32.778  14.172  10.550
59181W        W31507  38.286   6.846  13.454
59182W        W31508  41.877  18.507   1.275
59183W        W31509  20.965  28.089  12.512
59184W        W31510  43.479  17.109   1.719
59185W        W31511   5.273  43.830  13.454
59186W        W31512  42.436   4.966  11.656
59187W        W31513  27.771  21.614   4.822
59188W        W31514  32.384  42.850   0.294
59189W        W31515  41.921  10.552   3.378
59190W        W31516  35.797  38.915   0.268
59191W        W31517   2.219  28.545   4.359
59192W        W31518  36.083  33.645  10.936
59193W        W31519  29.030  39.024   4.947
59194W        W31520   2.501  25.455   2.352
59195W        W31521  27.459  11.490  13.482
59196W        W31522  11.244  23.295  11.077
59197W        W31523  10.397  38.371   3.310
59198W        W31524  42.961  16.591   1.322
59199W        W31525  30.466  42.772  13.349
59200W        W31526  11.352   6.289   3.788
59201W        W31527   7.384  41.423   0.409
59202W        W31528  34.164   1.813   0.293
59203W        W31529  40.704  22.162  13.893
59204W        W31530  36.582  17.205  10.407
59205W        W31531  30.446  16.063  12.809
59206W        W31532  12.163   6.231  11.197
59207W        W31533  41.325  31.872  13.875
59208W        W31534   8.661   9.775  12.521
59209W        W31535  21.500  41.564  14.647
59210W        W31536  13.101  18.133   4.652
59211W        W31537  31.085  22.778  14.348
59212W        W31538   4.494  39.106   3.618
59213W        W31539  15.607   2.758  14.517
59214W        W31540   2.363  39.024   0.441
59215W        W31541  24.656  28.078   0.215
59216W        W31542  32.979   6.433  12.569
59217W        W31543  32.402  22.070   2.145
59218W        W31544   3.438   6.180   0.857
59219W        W31545  24.892  36.529   2.893
59220W        W31546  19.764   6.362   2.211
59221W        W31547  23.271  24.762   1.267
59222W        W31548  28.063  37.929   4.348
59223W        W31549  23.119   4.472   2.236
59224W        W31550  20.564   6.015   0.179
59225W        W31551  23.255  11.299   3.280
59226W        W31552  42.675  26.047   2.475
59227W        W31553  25.682  16.000   3.152
59228W        W31554  31.052  17.569  12.532
59229W        W31555  29.537  38.543  13.519
59230W        W31556  21.769  13.355   2.317
59231W        W31557  22.291   0.889   1.002
59232W        W31558  40.352  21.978   3.820
59233W        W31559  14.997   5.342   1.642
59234W        W31560   0.528   3.649   4.193
59235W        W31561  14.687  25.090   0.965
59236W        W31562  14.415  15.815  14.364
59237W        W31563  38.759   5.746  11.571
59238W        W31564  43.744  25.248   0.376
59239W        W31565  44.361  24.059   0.778
59240W        W31566  17.671  41.837   4.569
59241W        W31567   8.291  16.590   1.468
59242W        W31568  40.732   1.221   0.555
59243W        W31569  12.167  23.657   0.798
59244W        W31570  43.975   9.943  12.021
59245W        W31571  11.796  24.114  11.712
59246W        W31572  34.941  40.783   1.852
59247W        W31573  42.368  41.831  11.480
59248W        W31574  32.483   3.446   3.748
59249W        W31575  15.426  25.291  11.552
59250W        W31576  44.066  27.039  12.548
59251W        W31577   4.504  40.077   3.058
59252W        W31578  34.655   9.201   1.929
59253W        W31579   1.876  19.535  11.072
59254W        W31580  17.670  13.882   4.610
59255W        W31581  15.267  25.729   4.629
59256W        W31582  15.340  10.775  12.757
59257W        W31583  20.373   4.172  11.925
59258W        W31584   2.294  25.784   4.986
59259W        W31585   1.487   7.125  12.925
59260W        W31586  34.144  11.330   1.292
59261W        W31587  44.746  18.722  14.277
59262W        W31588  20.579  18.057  14.917
59263W        W31589  38.979  22.593  13.775
59264W        W31590  30.041   4.680  12.092
59265W        W31591  32.122  32.085   2.449
59266W        W31592  25.259   4.746   1.571
59267W        W31593  14.834  41.957  12.839
59268W        W31594  13.338  41.537   3.664
59269W        W31595  31.971  40.830  10.845
59270W        W31596   2.989  34.496  11.459
59271W        W31597  25.303  16.366  10.394
59272W        W31598  11.638  22.298  11.191
59273W        W31599   7.968  30.283  11.154
59274W        W31600  11.625  39.566   3.541
59275W        W31601  37.458   9.858   0.000
59276W        W31602  42.462  14.945   0.508
59277W        W31603   0.912  28.271  13.968
59278W        W31604  18.112  10.294   3.531
59279W        W31605  14.556   5.420   1.913
59280W        W31606  32.349  37.066   2.917
59281W        W31607  14.247  29.452  13.441
59282W        W31608  28.565   0.714  13.028
59283W        W31609  24.596  33.795   3.263
59284W        W31610  25.149   7.310   4.238
59285W        W31611   8.788   3.236  10.693
59286W        W31612  13.757  23.467   3.060
59287W        W31613  30.979  16.127   4.578
59288W        W31614   1.616   3.005  13.953
59289W        W31615  12.240   8.274   2.767
59290W        W31616   9.158   5.872   0.883
59291W        W31617  42.015  40.987  14.001
59292W        W31618   2.364  32.161   0.744
59293W        W31619  31.646  11.919   3.853
59294W        W31620  39.903  31.218  11.915
59295W        W31621   9.007  19.853   1.227
59296W        W31622  35.103   2.834  13.208
59297W        W31623  16.045  23.608   4.099
59298W        W31624  12.876  34.245   4.941
59299W        W31625  21.758  21.711   3.271
59300W        W31626  42.991  29.642  11.306
59301W        W31627  37.113  15.793   4.771
59302W        W31628  12.755  42.395   1.808
59303W        W31629  12.260  37.129   4.836
59304W        W31630  39.473  31.778  12.603
59305W        W31631  35.608  41.121  14.922
59306W        W31632  27.881  40.356  12.313
59307W        W31633  38.820   9.381   1.757
59308W        W31634  40.501  17.895   1.991
59309W        W31635  39.021  24.775  14.892
59310W        W31636  10.381  20.756   4.555
59311W        W31637  31.530  36.809   4.176
59312W        W31638   4.427  12.759   5.026
59313W        W31639  41.542  37.809  11.950
59314W        W31640  33.195  18.245   3.676
59315W        W31641  16.036  33.827   2.270
59316W        W31642  11.181  20.461  14.411
59317W        W31643  13.478  38.860   2.796
59318W        W31644  23.930  38.883   1.956
59319W        W31645  12.751   6.688   3.768
59320W        W31646   8.472  31.077   4.562
59321W        W31647  26.760  42.022   2.764
59322W        W31648   1.929  27.954   3.679
59323W        W31649  43.455  28.923  14.765
59324W        W31650  39.906   0.968   4.704
59325W        W31651  37.857  32.445  13.377
59326W        W31652   3.926  29.101   3.169
59327W        W31653  34.465   2.796  12.490
59328W        W31654  36.659   3.858  14.559
59329W        W31655   3.509   6.735   2.820
59330W        W31656  14.522  15.168   2.344
59331W        W31657  39.369  10.549   0.432
59332W        W31658  26.940  32.683   0.439
59333W        W31659  28.615  38.844   0.782
59334W        W31660   8.821  25.240   3.967
59335W        W31661  44.599   9.229   3.382
59336W        W31662  17.623  15.889   0.054
59337W        W31663  37.040   3.490  14.815
59338W        W31664   8.313  43.462  12.484
59339W        W31665  39.582  44.952   2.968
59340W        W31666   4.439   2.874   4.628
59341W        W31667   4.780  28.579  10.988
59342W        W31668  23.619  38.404   4.647
59343W        W31669   1.357  28.737   2.613
59344W        W31670  31.519  15.684   1.698
59345W        W31671   9.751  32.286   0.327
59346W        W31672   0.311   5.988  11.477
59347W        W31673  23.285   4.919  10.633
59348W        W31674  37.302  21.122  14.377
59349W        W31675   2.982  28.625  14.039
59350W        W31676  20.717  14.633  12.355
59351W        W31677  14.658  39.323   2.819
59352W        W31678  17.994  28.989  12.964
59353W        W31679  29.488  28.501  10.090
59354W        W31680   3.727  26.999  12.905
59355W        W31681   2.261  39.787  13.237
59356W        W31682  16.025  44.409  11.142
59357W        W31683   3.999  40.427   2.889
59358W        W31684   6.320   5.473  14.032
59359W        W31685  20.904   5.335   1.585
59360W        W31686  19.429  18.554   0.862
59361W        W31687  40.761  17.582   2.343
59362W        W31688   2.436  38.293  14.057
59363W        W31689  32.721  30.217  14.950
59364W        W31690   6.832  13.954   3.251
59365W        W31691  18.872  22.222  14.826
59366W        W31692  14.621  43.554  11.535
59367W        W31693  18.960   4.376  13.083
59368W        W31694  26.730   9.192   2.653
59369W        W31695   0.682  27.921  11.915
59370W        W31696  12.386  37.046   2.492
59371W        W31697  15.188   6.028   1.003
59372W        W31698   6.766  20.053  13.102
59373W        W31699  39.382  32.053   2.744
59374W        W31700  27.206  35.945   2.257
59375W        W31701  29.789  13.716   3.598
59376W        W31702  26.085  33.544  10.660
59377W        W31703  33.414  18.577   1.900
59378W        W31704  32.110  43.400   4.902
59379W        W31705   1.285   8.778   1.815
59380W        W31706  23.313  31.062  12.428
59381W        W31707  19.601  10.360   1.241
59382W        W31708  17.703   8.419  11.464
59383W        W31709  36.536  26.916  13.832
59384W        W31710  13.861  42.233  13.635
59385W        W31711  38.624  41.927  11.571
59386W        W31712  31.163  43.752  11.210
59387W        W31713  41.542   4.860  11.896
59388W        W31714   0.856  31.979  13.535
59389W        W31715   9.369  35.392   1.450
59390W        W31716  33.713  38.936   4.152
59391W        W31717  23.265  13.740   2.745
59392W        W31718  29.553  11.877   4.264
59393W        W31719  29.680  26.283  13.682
59394W        W31720  11.892  40.517   3.848
59395W        W31721  13.747  44.210   3.619
59396W        W31722  17.813   1.233   1.498
59397W        W31723  17.173  27.791   0.439
59398W        W31724   1.431  27.141  13.934
59399W        W31725   6.482  15.969   1.888
59400W        W31726  32.922  33.622   1.350
59401W        W31727   4.438  19.584  14.346
59402W        W31728   4.967  21.228   4.655
59403W        W31729  26.214   4.551  14.072
59404W        W31730   9.225  18.643  13.012
59405W        W31731  24.684   2.443   4.670
59406W        W31732  41.026  32.280  10.595
59407W        W31733  37.370  28.792   4.682
59408W        W31734  41.504  23.728   3.118
59409W        W31735  15.141  16.379  12.206
59410W        W31736  36.820  28.560   0.952
59411W        W31737  10.653   8.011   0.790
59412W        W31738  30.352   4.756  14.771
59413W        W31739  30.049   6.230  13.879
59414W        W31740   0.316  24.471   0.289
59415W        W31741  34.621   2.300   3.004
59416W        W31742  14.095  24.540   4.116
59417W        W31743  22.363  31.897   1.397
59418W        W31744   1.535  21.607  12.981
59419W        W31745   2.290  10.814  14.260
59420W        W31746  11.223  19.666   3.717
59421W        W31747   9.393  28.427  12.617
59422W        W31748   7.230  38.459   0.778
59423W        W31749  11.192  38.834   1.877
59424W        W31750   3.497  22.073   0.328
59425W        W31751  38.981  28.539  12.077
59426W        W31752  32.824  32.508   5.006
59427W        W31753  34.644  10.739   4.439
59428W        W31754  28.041  41.605   0.723
59429W        W31755  21.061  11.107   3.217
59430W        W31756   4.878  36.310  13.628
59431W        W31757   5.751   3.673  10.536
59432W        W31758   5.591   8.627   2.756
59433W        W31759  10.604   0.806   0.014
59434W        W31760   2.238  42.404   4.723
59435W        W31761   8.341  44.044  12.594
59436W        W31762  31.653  15.470   0.481
59437W        W31763   5.813  20.871   0.876
59438W        W31764  24.472  42.371   0.149
59439W        W31765   9.253  16.202  13.930
59440W        W31766   7.214  34.079   4.212
59441W        W31767  42.739  14.676   2.664
59442W        W31768   7.023  36.108  10.724
59443W        W31769  13.629  26.089   4.326
59444W        W31770   5.839  40.780   2.130
59445W        W31771  43.782   4.186   0.376
59446W        W31772  10.347  30.629  14.589
59447W        W31773  39.516  37.310  11.831
59448W        W31774   5.003  38.573   0.265
59449W        W31775  15.369  16.006  11.919
59450W        W31776   8.694  25.542   3.061
59451W        W31777  35.606  24.559   3.324
59452W        W31778   5.797  15.848   3.163
59453W        W31779  31.183  11.786  12.536
59454W        W31780  12.155  19.229  11.664
59455W        W31781  37.018  17.081   3.900
59456W        W31782  29.595  39.578   0.340
59457W        W31783  19.273  26.074  14.458
59458W        W31784  31.709   7.496   1.246
59459W        W31785  12.606  18.281  11.943
59460W        W31786   4.991   0.940   0.384
59461W        W31787  23.982  19.023  11.448
59462W        W31788  28.125  44.075  11.653
59463W        W31789  26.276  31.185  12.855
59464W        W31790  41.595  28.970  14.371
59465W        W31791  39.272   9.308   0.024
59466W        W31792  25.813  10.922  11.993
59467W        W31793  30.246  25.808   2.808
59468W        W31794   8.656  36.554  13.051
59469W        W31795  12.806  13.829   3.298
59470W        W31796   6.381  16.145   2.852
59471W        W31797  22.632  16.162  12.547
59472W        W31798  32.177  39.612  11.990
59473W        W31799  19.292  38.735  10.648
59474W        W31800   1.736  38.365   3.371
59475W        W31801   7.269  10.697  12.809
59476W        W31802  36.900  23.536  13.494
59477W        W31803  35.071  34.565  11.929
59478W        W31804  26.704  43.808   3.212
59479W        W31805  32.068   5.523   4.550
59480W        W31806  31.272  32.006   3.900
59481W        W31807  29.236  35.048   1.903
59482W        W31808   6.264   2.252   4.060
59483W        W31809  18.162  26.448  11.793
59484W        W31810  26.120  17.955   9.608
59485W        W31811  25.132   8.193  11.252
59486W        W31812  39.542  31.177   2.144
59487W        W31813  14.094  20.547   2.756
59488W        W31814  12.827  14.238  12.510
59489W        W31815  24.101   3.408   5.055
59490W        W31816  43.954  12.313  10.959
59491W        W31817  43.473  30.933  13.291
59492W        W31818   6.671   9.339   1.905
59493W        W31819  34.520   9.397  11.519
59494W        W31820  19.231   8.112   2.773
59495W        W31821  33.624  10.781  14.646
59496W        W31822  18.273  39.384  13.047
59497W        W31823  22.299  36.841   0.801
59498W        W31824  44.771  28.616  11.946
59499W        W31825  21.242  24.676  12.508
59500W        W31826  33.551  21.767  11.244
59501W        W31827  24.734  14.036   4.015
59502W        W31828  44.606  32.050   0.330
59503W        W31829  12.661  25.571  12.923
59504W        W31830  27.697   3.280   1.471
59505W        W31831   4.938  25.388   4.214
59506W        W31832  30.676  12.331   0.324
59507W        W31833  25.630  44.846   1.253
59508W        W31834  25.863  40.935  11.143
59509W        W31835  41.193  24.979   3.238
59510W        W31836  19.504  39.913  12.388
59511W        W31837  43.785  25.368   1.273
59512W        W31838   6.000  40.705  12.588
59513W        W31839  39.601   2.334  11.947
59514W        W31840   9.011  10.990   0.614
59515W        W31841   8.015  32.568   1.418
59516W        W31842  42.283  22.551   4.506
59517W        W31843  12.190  14.291  14.350
59518W        W31844  28.704  17.167  14.797
59519W        W31845  24.120  26.666  14.258
59520W        W31846  14.373   4.557  11.273
59521W        W31847   0.253   3.140   0.222
59522W        W31848  26.148   1.168   2.456
59523W        W31849  41.309  23.263  12.592
59524W        W31850  43.791   7.892  12.956
59525W        W31851  28.231  41.435  11.138
59526W        W31852  29.500  43.514  11.167
59527W        W31853  21.748  41.950  14.895
59528W        W31854   4.802  36.711  12.050
59529W        W31855  31.975  36.962   4.411
59530W        W31856   7.187   5.532   0.202
59531W        W31857  32.066  34.756   3.273
59532W        W31858  39.421  35.897   0.899
59533W        W31859  22.464  37.336  12.073
59534W        W31860  21.214  36.324   9.869
59535W        W31861  37.435  33.913  14.190
59536W        W31862  44.209  14.933   0.139
59537W        W31863  33.572  26.496  10.778
59538W        W31864  30.616  24.366   0.848
59539W        W31865  43.515  18.358   0.526
59540W        W31866  31.916  21.953   4.184
59541W        W31867  33.007  21.677   2.817
59542W        W31868  32.431   6.889   4.632
59543W        W31869  25.948  44.827   1.663
59544W        W31870  22.465  30.188  14.209
59545W        W31871  14.635  25.692  12.092
59546W        W31872   6.634  37.958  10.491
59547W        W31873  22.775  19.228   1.860
59548W        W31874  23.819  10.909   3.666
59549W        W31875   3.173  29.145   4.195
59550W        W31876  29.006  19.502  12.018
59551W        W31877   8.139  43.881   2.996
59552W        W31878  11.838  27.487   0.485
59553W        W31879  31.452   7.910   4.210
59554W        W31880  38.641   8.702   1.416
59555W        W31881  24.897  28.742  11.081
59556W        W31882   8.706  44.783  13.474
59557W        W31883  24.750  42.525  11.464
59558W        W31884  27.686  26.557  14.683
59559W        W31885  44.047  19.192   4.135
59560W        W31886  32.082  31.542   0.646
59561W        W31887  20.535  14.581   2.576
59562W        W31888  43.302  31.199  12.308
59563W        W31889  22.443  25.024  13.120
59564W        W31890  14.723   5.406  14.307
59565W        W31891  14.352   6.265  11.549
59566W        W31892   2.778  24.231  14.335
59567W        W31893  20.227   0.533  11.566
59568W        W31894   5.296   1.869  10.643
59569W        W31895   2.816   3.075  13.127
59570W        W31896  14.467  35.748  10.210
59571W        W31897  37.895  22.522   2.627
59572W        W31898  44.320  12.400  13.702
59573W        W31899   3.820  40.262  10.118
59574W        W31900  27.228  26.939  14.964
59575W        W31901  23.034  21.801  11.626
59576W        W31902  17.815  12.339  12.642
59577W        W31903   3.418   6.228   2.650
59578W        W31904  36.287  16.634  12.308
59579W        W31905  24.754  24.927  14.430
59580W        W31906   7.690   3.415  14.017
59581W        W31907  31.950  19.618   4.549
59582W        W31908  14.665  10.739  11.976
59583W        W31909   4.332  32.157   4.784
59584W        W31910  32.110  19.990  12.096
59585W        W31911  11.645  26.196   2.872
59586W        W31912  28.431  39.986  11.159
59587W        W31913  16.726  15.408  11.005
59588W        W31914  31.180  41.705  13.856
59589W        W31915  23.044  11.396  11.515
59590W        W31916   3.991  23.747   4.207
59591W        W31917  27.696   1.994  13.334
59592W        W31918   3.935   0.218   1.558
59593W        W31919  24.552  40.091  11.180
59594W        W31920  38.223  16.263   1.216
59595W        W31921   4.859  29.742   4.542
59596W        W31922   9.326  22.576  10.218
59597W        W31923   1.765   8.923   2.219
59598W        W31924  10.925  15.247  10.572
59599W        W31925  22.704  10.345   3.698
59600W        W31926  42.695  12.416  11.102
59601W        W31927  11.344  37.804  14.847
59602W        W31928   1.226   6.704  12.814
59603W        W31929  35.412  24.735   4.632
59604W        W31930  41.403  40.763  13.281
59605W        W31931  35.463  11.262   5.460
59606W        W31932   4.483  10.866   2.831
59607W        W31933  15.122  38.271   3.145
59608W        W31934  42.837   3.849   4.825
59609W        W31935  22.670  15.724   0.004
59610W        W31936  35.888  37.378   3.679
59611W        W31937  29.485  30.511  12.500
59612W        W31938  38.797   0.760   2.148
59613W        W31939  31.031   9.350   4.105
59614W        W31940   2.348  44.597  11.958
59615W        W31941   1.947   2.334  14.809
59616W        W31942  30.240  25.755  14.048
59617W        W31943  30.461   5.251   0.763
59618W        W31944  41.286  14.920   3.685
59619W        W31945  41.461  11.919  11.196
59620W        W31946  38.369   9.394  11.586
59621W        W31947  14.458  16.558   2.464
59622W        W31948  13.288  17.213  10.524
59623W        W31949  39.233  13.322   0.744
59624W        W31950  42.895  10.602   4.536
59625W        W31951  23.850  22.987   3.850
59626W        W31952  10.656  17.529  14.300
59627W        W31953  10.260  41.822  10.579
59628W        W31954  37.940   9.895   3.667
59629W        W31955  27.077  44.984  10.583
59630W        W31956  13.322  28.383  12.112
59631W        W31957  28.617   8.986   4.299
59632W        W31958   6.343  44.766  13.591
59633W        W31959  23.706  10.287   0.369
59634W        W31960  41.973  29.775  11.523
59635W        W31961   5.634  42.906   1.803
59636W        W31962  34.236  27.709   2.389
59637W        W31963   1.828   6.723  11.700
59638W        W31964  17.919  32.201  11.001
59639W        W31965   4.766  27.018  10.481
59640W        W31966  26.579  40.382  11.395
59641W        W31967  39.556  36.032   2.478
59642W        W31968  20.024   1.689   3.107
59643W        W31969  42.950  43.396  10.508
59644W        W31970  30.327  12.094  14.407
59645W        W31971  43.833  22.871  11.659
59646W        W31972  15.713  28.749  12.317
59647W        W31973   5.226  11.623  14.208
59648W        W31974  41.274  11.229  13.733
59649W        W31975  19.191  34.647   0.831
59650W        W31976  44.856  44.530  10.325
59651W        W31977  27.606   9.167  11.178
59652W        W31978   4.803  28.085   2.976
59653W        W31979  30.361  38.146  14.528
59654W        W31980  29.909  18.471  10.795
59655W        W31981  27.676  33.446   3.881
59656W        W31982   3.191  37.279   1.252
59657W        W31983   9.363   1.828  10.632
59658W        W31984  25.968  42.016  13.454
59659W        W31985  12.294   3.420  10.869
59660W        W31986  29.126  28.510   0.862
59661W        W31987   6.709   2.488  14.041
59662W        W31988  40.112  23.490   4.436
59663W        W31989  37.780  10.917   1.290
59664W        W31990  26.627  11.250  10.618
59665W        W31991  41.774   2.722  13.917
59666W        W31992  11.652  21.906   1.956
59667W        W31993   5.614   0.988  14.023
59668W        W31994  24.968   9.393   1.925
59669W        W31995  24.911  10.218   3.341
59670W        W31996   5.721  25.925   3.642
59671W        W31997  43.723   6.422   0.870
59672W        W31998   4.222   4.832  13.250
59673W        W31999  42.893  13.241  10.337
59674W        W32000  12.635   6.581   2.341
59675W        W32001  35.496  11.769   2.934
59676W        W32002  16.892   3.833  11.658
59677W        W32003  15.098  19.598   1.405
59678W        W32004   5.807  12.883   2.405
59679W        W32005  12.913  38.183   1.087
59680W        W32006  23.814  28.174  12.041
59681W        W32007  12.037  12.457  11.552
59682W        W32008   8.911  15.924  12.134
59683W        W32009  28.527  14.658   1.224
59684W        W32010  17.987  40.030   3.268
59685W        W32011  24.590   6.437   1.469
59686W        W32012  35.313  29.175   2.268
59687W        W32013   1.324  21.606  14.363
59688W        W32014   8.161  14.126  12.813
59689W        W32015  12.830  40.474  11.348
59690W        W32016   1.751  35.490  14.063
59691W        W32017   1.797  29.310   1.884
59692W        W32018  30.981  23.657  11.477
59693W        W32019  16.755  14.590   2.950
59694W        W32020  11.723  14.070  11.118
59695W        W32021  44.584  35.304   0.974
59696W        W32022  14.873  30.640  11.691
59697W        W32023  42.788  27.717  10.778
59698W        W32024  18.155  12.679   3.492
59699W        W32025  14.293  39.338  12.198
59700W        W32026  30.062  15.911   0.996
59701W        W32027  24.361  18.655   5.018
59702W        W32028  16.245  36.995   4.143
59703W        W32029  39.130  26.658   1.000
59704W        W32030  41.269  38.585  13.045
59705W        W32031  24.518  39.884  13.527
59706W        W32032   2.298  28.971  13.811
59707W        W32033  43.911   3.940  12.266
59708W        W32034  11.438  42.503  11.161
59709W        W32035   6.220  34.143  13.882
59710W        W32036   3.211  18.298   3.727
59711W        W32037  22.689  12.857   2.106
59712W        W32038  20.327  37.321   4.128
59713W        W32039   0.444   3.382  14.795
59714W        W32040  33.966  44.700  14.379
59715W        W32041   5.209  24.817   4.785
59716W        W32042  19.454  42.845  13.384
59717W        W32043   3.792  26.620  11.209
59718W        W32044  36.295  42.489  11.460
59719W        W32045  13.049  17.198   3.119
59720W        W32046   8.265   0.448  12.465
59721W        W32047   0.347  38.278   2.853
59722W        W32048  28.129  37.252   2.702
59723W        W32049  11.252  32.410   4.124
59724W        W32050  34.739   3.393   4.403
59725W        W32051  23.150  31.588   0.728
59726W        W32052  39.612  35.179   1.845
59727W        W32053   7.756  11.621   4.157
59728W        W32054  30.140   2.924   3.671
59729W        W32055  29.096  31.048   2.438
59730W        W32056  33.406  32.992  10.573
59731W        W32057   3.851  40.702  13.277
59732W        W32058  14.903  14.812   0.474
59733W        W32059  44.942  34.396   1.882
59734W        W32060   7.964  15.757  13.563
59735W        W32061  41.773  32.464   3.718
59736W        W32062  35.795  32.929   4.607
59737W        W32063   4.162   1.867  10.478
59738W        W32064  28.702  32.350   2.237
59739W        W32065  26.969  22.612  11.085
59740W        W32066  40.387  41.311  13.315
59741W        W32067  33.686  20.902  10.346
59742W        W32068  12.661  11.800   0.696
59743W        W32069   8.619  19.606  13.233
59744W        W32070  32.060  18.290   3.254
59745W        W32071  23.606   2.402   4.610
59746W        W32072   2.498  20.542  11.103
59747W        W32073  41.806  10.429  12.031
59748W        W32074  28.182  42.659  12.509
59749W        W32075  41.751  26.707  13.430
59750W        W32076   0.726  23.135   1.655
59751W        W32077  10.466  42.566  14.387
59752W        W32078  14.884  11.192  12.649
59753W        W32079  13.028  44.312   4.205
59754W        W32080  14.856  11.275  10.814
59755W        W32081  30.877   0.947   1.716
59756W        W32082   7.967  42.072   2.789
59757W        W32083  10.485  23.969  12.777
59758W        W32084  12.645  23.535  14.715
59759W        W32085   5.810  17.663  12.592
59760W        W32086  20.142  36.424  12.349
59761W        W32087  34.062  14.076   4.902
59762W        W32088  35.326  35.141  14.397
59763W        W32089  10.936  44.383   3.645
59764W        W32090  31.529  29.366  11.466
59765W        W32091   9.308  41.421   2.381
59766W        W32092   6.166  15.126   2.530
59767W        W32093   2.440  37.210  10.768
59768W        W32094  26.000  15.034  10.579
59769W        W32095  34.363  28.992   3.889
59770W        W32096   1.266  22.586   0.017
59771W        W32097  34.012  16.675   1.736
59772W        W32098  31.292  32.458  11.057
59773W        W32099  29.682  18.239   2.350
59774W        W32100  32.015  27.207   3.445
59775W        W32101  19.693   0.806   0.410
59776W        W32102   3.926  28.666   1.842
59777W        W32103  31.120   8.108  11.612
59778W        W32104  44.653  10.151  13.640
59779W        W32105  15.361  38.802   0.504
59780W        W32106  34.858  18.282   0.874
59781W        W32107  39.268  40.091  12.453
59782W        W32108  20.600  41.868   1.336
59783W        W32109  41.624  16.901  11.947
59784W        W32110  23.126  39.736   3.305
59785W        W32111   5.881   4.937   3.705
59786W        W32112  28.924  12.733  14.359
59787W        W32113  16.656  19.068   3.625
59788W        W32114  22.775   0.747  13.434
59789W        W32115  11.188  27.628   0.938
59790W        W32116   7.235  34.621   2.850
59791W        W32117  29.528  16.690  11.967
59792W        W32118  30.617   8.190   1.513
59793W        W32119  16.797   1.912  11.941
59794W        W32120  25.458  39.487   2.414
59795W        W32121  18.051  30.400   4.162
59796W        W32122  26.072   9.322   0.045
59797W        W32123  23.495  21.581  14.753
59798W        W32124  20.540  18.545  13.475
59799W        W32125  41.476  43.524   1.173
59800W        W32126  24.485   3.351  10.576
59801W        W32127  10.313  21.187  12.436
59802W        W32128  12.924  15.039  13.458
59803W        W32129  39.821  11.102  14.338
59804W        W32130  29.205   4.181  13.719
59805W        W32131   3.944  12.300  10.157
59806W        W32132  20.243   9.653  14.280
59807W        W32133   2.672  31.517   4.581
59808W        W32134  27.526  23.759   2.379
59809W        W32135   6.201   0.959  12.108
59810W        W32136   4.235  18.481  10.538
59811W        W32137  32.469   2.338   1.340
59812W        W32138   3.248  16.562  10.638
59813W        W32139   4.756  35.413  13.370
59814W        W32140  22.533  19.562   2.215
59815W        W32141  40.079  41.997  13.115
59816W        W32142  19.081   0.037   0.407
59817W        W32143  34.284  15.723   4.582
59818W        W32144  42.302  12.048   2.800
59819W        W32145  20.078  14.265   2.370
59820W        W32146  36.904  16.285   4.587
59821W        W32147  23.461  44.084  11.430
59822W        W32148  41.987  23.484   0.711
59823W        W32149   3.155  27.945   0.266
59824W        W32150  15.274   4.753  13.883
59825W        W32151  27.109  40.931   4.209
59826W        W32152   7.184  36.567   2.536
59827W        W32153   9.697  33.083   0.710
59828W        W32154  35.357  11.786  11.593
59829W        W32155  16.280  41.256  13.405
59830W        W32156  28.669  18.006   4.100
59831W        W32157  11.297  23.643   2.220
59832W        W32158   2.179  34.629   3.144
59833W        W32159   0.259  19.211  12.861
59834W        W32160   7.899   4.146   0.934
59835W        W32161  24.536  10.368  12.479
59836W        W32162  38.105   6.771   4.888
59837W        W32163  28.562  27.959  11.435
59838W        W32164  17.763  26.702  12.061
59839W        W32165  40.508  11.358  13.013
59840W        W32166   4.618  27.404  14.036
59841W        W32167  37.788  18.675  10.642
59842W        W32168  36.955   3.269   2.774
59843W        W32169   1.826  20.677   2.583
59844W        W32170   2.294  18.020  12.239
59845W        W32171  11.642  11.639   3.233
59846W        W32172  26.612  38.840  11.874
59847W        W32173   5.830  27.476   0.729
59848W        W32174  15.273  11.240  14.265
59849W        W32175  34.117  37.004   3.387
59850W        W32176  11.450   4.836  11.969
59851W        W32177  16.182  25.693  10.697
59852W        W32178  41.987  10.719   0.847
59853W        W32179   7.433  36.217   2.223
59854W        W32180  14.394   8.183   3.230
59855W        W32181  13.740  36.998  14.306
59856W        W32182  10.766   5.289   0.383
59857W        W32183  26.054   7.531   4.340
59858W        W32184  31.916   1.410   0.392
59859W        W32185  28.038  20.500   3.396
59860W        W32186   2.878   2.804  11.616
59861W        W32187   5.311  33.443   3.377
59862W        W32188  25.883  13.129   3.045
59863W        W32189  27.963  22.068   3.276
59864W        W32190  21.079  35.890  13.948
59865W        W32191  23.909  39.792   1.459
59866W        W32192  29.590  24.301  10.076
59867W        W32193  29.636  43.873   3.640
59868W        W32194  40.495  11.075   1.008
59869W        W32195   2.329  21.512   2.636
59870W        W32196   6.808  39.995  12.074
59871W        W32197  12.733  14.716   0.733
59872W        W32198   5.337  35.266  10.701
59873W        W32199  28.063  24.207  10.891
59874W        W32200  31.324   1.477   5.074
59875W        W32201  25.076   9.774  12.833
59876W        W32202   6.038  16.298  11.280
59877W        W32203   9.670  27.397  13.910
59878W        W32204  18.127  25.155  13.543
59879W        W32205  30.568   7.330   0.832
59880W        W32206   7.277  34.092  13.595
59881W        W32207  26.503   6.020   3.675
59882W        W32208  21.272   1.836   3.646
59883W        W32209   7.779  30.290  12.935
59884W        W32210   6.147  15.566   1.748
59885W        W32211  11.501  14.744   1.291
59886W        W32212  28.682  32.608   3.086
59887W        W32213  33.440  15.841  10.672
59888W        W32214  30.027  18.250   4.545
59889W        W32215  12.761   6.233  10.554
59890W        W32216   5.877  27.119  14.374
59891W        W32217   2.167  23.146  12.109
59892W        W32218  15.579   1.213   9.969
59893W        W32219  36.099   6.392  11.522
59894W        W32220  39.952  20.182   3.385
59895W        W32221  23.731   6.756   3.229
59896W        W32222  44.464  42.341   4.714
59897W        W32223  28.503   4.197   4.616
59898W        W32224  27.118  12.268   1.726
59899W        W32225  40.664   4.416  12.957
59900W        W32226   7.172  40.504  14.030
59901W        W32227  19.311   2.876   0.667
59902W        W32228  38.517  12.863  13.005
59903W        W32229  33.913  30.566   1.997
59904W        W32230   6.732   7.576  13.296
59905W        W32231  29.068  35.970  14.934
59906W        W32232   4.913  33.351   1.209
59907W        W32233  43.559   1.957  11.250
59908W        W32234  31.111   3.496   2.122
59909W        W32235  35.041  33.918   4.192
59910W        W32236   1.679  31.029  11.075
59911W        W32237  21.297  15.350  11.145
59912W        W32238  26.537  35.488   3.657
59913W        W32239  37.863  35.953   1.816
59914W        W32240  21.611   2.326   4.555
59915W        W32241   0.256  28.237  13.581
59916W        W32242  15.423  12.853   2.344
59917W        W32243  30.174  14.046  12.476
59918W        W32244  22.353  18.274  11.951
59919W        W32245  19.567  32.838   1.706
59920W        W32246  23.100   0.394  11.487
59921W        W32247  11.929  44.201  13.503
59922W        W32248  36.150  31.612   2.849
59923W        W32249  14.444   3.322  12.517
59924W        W32250   9.500  36.685   1.480
59925W        W32251  16.122   6.850  11.781
59926W        W32252  39.132  25.201  11.143
59927W        W32253  34.855  29.612  11.073
59928W        W32254  14.292  28.790   3.883
59929W        W32255  15.217  40.587  12.545
59930W        W32256  24.844  23.511  12.465
59931W        W32257  19.030   0.381   4.696
59932W        W32258  10.842   1.831   0.397
59933W        W32259  11.776  43.805   1.347
59934W        W32260  13.951  16.586   2.423
59935W        W32261  17.593  40.414   3.253
59936W        W32262  37.004   5.099   5.076
59937W        W32263  33.995  27.944  10.626
59938W        W32264  25.416  16.485   3.153
59939W        W32265  42.930  31.074  10.739
59940W        W32266  13.834   3.781  13.516
59941W        W32267   5.446  29.895  13.942
59942W        W32268  18.318  40.906   3.171
59943W        W32269   8.592  29.983  14.774
59944W        W32270  21.201  37.153   2.413
59945W        W32271   6.117   2.063   4.517
59946W        W32272  25.106  14.210   1.655
59947W        W32273  41.497  17.180  14.268
59948W        W32274  41.258  21.031   4.514
59949W        W32275  38.486   3.203   3.341
59950W        W32276  29.998   6.418   3.726
59951W        W32277  33.682   1.935   0.677
59952W        W32278  32.926  24.672  10.681
59953W        W32279  27.298  11.781   0.957
59954W        W32280   7.994  12.969   1.729
59955W        W32281   2.207  22.805   1.858
59956W        W32282  18.054   0.953  12.991
59957W        W32283  19.179  36.088   1.814
59958W        W32284  42.324   3.187   4.544
59959W        W32285  20.656  33.072  11.071
59960W        W32286  29.973  34.912   0.710
59961W        W32287  33.627  27.017   2.147
59962W        W32288  35.640  15.582   2.881
59963W        W32289  20.289  23.152  13.368
59964W        W32290   0.281   3.137  13.732
59965W        W32291   3.834  34.866  11.121
59966W        W32292  24.205   8.157  14.887
59967W        W32293  28.644  21.165   0.904
59968W        W32294  18.284  18.208   2.690
59969W        W32295  26.963   0.015  10.015
59970W        W32296  23.377  26.995   1.513
59971W        W32297  23.078  10.133  11.228
59972W        W32298  16.616  32.082   2.580
59973W        W32299  30.081  40.112   2.329
59974W        W32300  21.604  22.457  11.070
59975W        W32301  27.406  11.902   1.947
59976W        W32302   3.181  12.214  12.150
59977W        W32303   5.857  14.296   4.129
59978W        W32304  39.926  17.027  11.101
59979W        W32305  26.605   5.319   4.218
59980W        W32306  34.290  33.579   9.746
59981W        W32307  16.410  39.310  14.969
59982W        W32308   0.717  16.189  10.266
59983W        W32309  31.950   4.056  12.062
59984W        W32310  39.560   6.235   3.754
59985W        W32311   8.778   4.751   0.237
59986W        W32312  34.330  19.660   1.775
59987W        W32313  14.532  42.501   3.170
59988W        W32314  19.594  42.741   1.197
59989W        W32315  15.769   6.420  13.115
59990W        W32316  30.504  20.507  10.733
59991W        W32317  14.143  34.568   3.271
59992W        W32318  19.660   4.359  11.530
59993W        W32319  33.661  35.405   4.832
59994W        W32320   3.413  12.195  11.148
59995W        W32321  32.470  27.580   0.409
59996W        W32322  21.545  20.201   4.642
59997W        W32323  25.957  11.340  13.258
59998W        W32324  18.999   9.346   2.232
59999W        W32325   2.244   0.996  14.366
60000W        W32326  41.789  11.357  12.999
60001W        W32327  40.998   8.936   3.154
60002W        W32328  42.222  24.258  12.103
60003W        W32329  26.056  34.417   0.639
60004W        W32330  40.475  12.959   0.210
60005W        W32331  11.690  38.748   3.231
60006W        W32332  41.369   0.030  14.351
60007W        W32333  29.314  35.626  12.783
60008W        W32334  14.362  40.749   2.739
60009W        W32335  16.902  38.355  11.163
60010W        W32336  21.768   3.728   2.439
60011W        W32337   8.132  40.484  11.672
60012W        W32338   7.167  43.935   3.431
60013W        W32339  10.320   1.361   3.610
60014W        W32340  43.837  24.520   0.957
60015W        W32341   0.434  21.092  14.505
60016W        W32342  22.596  23.447   2.362
60017W        W32343  19.787  32.008  12.457
60018W        W32344   9.868  32.470  11.254
60019W        W32345  33.352   8.321   1.738
60020W        W32346  23.319  17.810  14.915
60021W        W32347  18.128  41.821   2.088
60022W        W32348  18.023  23.300  14.430
60023W        W32349  35.314   5.738  12.528
60024W        W32350  43.088  27.451   2.732
60025W        W32351  26.014  16.206   5.228
60026W        W32352  14.230  27.556   1.589
60027W        W32353  39.055   1.040  11.597
60028W        W32354  32.920  33.740   9.898
60029W        W32355  22.423  20.711  13.803
60030W        W32356  21.578  17.172   3.707
60031W        W32357   4.296  15.033   3.179
60032W        W32358  19.612  13.709  12.032
60033W        W32359  10.156  26.646   2.273
60034W        W32360  39.137  14.182  12.402
60035W        W32361   6.218  15.087   1.937
60036W        W32362  23.300   1.877  10.770
60037W        W32363  22.634   6.663  11.673
60038W        W32364   0.889  23.837  12.569
60039W        W32365  10.566  38.351   1.895
60040W        W32366  12.734  16.887  13.006
60041W        W32367  19.631  14.708   0.067
60042W        W32368  12.067  27.900  10.616
60043W        W32369  13.872  13.140  10.720
60044W        W32370  15.579  42.301   0.403
60045W        W32371  21.856   1.284  13.375
60046W        W32372  12.362  32.938  13.362
60047W        W32373  26.704  14.114   2.810
60048W        W32374  42.853  19.703   2.872
60049W        W32375  20.743  19.059   1.271
60050W        W32376  25.257   8.199  12.562
60051W        W32377  20.961  24.223  12.508
60052W        W32378  31.102  37.394   4.172
60053W        W32379   2.974   8.907  14.933
60054W        W32380  15.062   6.720   2.693
60055W        W32381  39.847  17.140   0.758
60056W        W32382  40.349  34.628  13.659
60057W        W32383  32.935   2.351   1.107
60058W        W32384  23.734   0.770  10.795
60059W        W32385   9.742  15.789  11.572
60060W        W32386   2.398   0.791   2.625
60061W        W32387  10.604  40.473  12.065
60062W        W32388  16.130  22.630  14.383
60063W        W32389   4.711  26.385   4.057
60064W        W32390  44.267  37.345   1.887
60065W        W32391  30.492  41.136   2.172
60066W        W32392  13.194  14.467  11.574
60067W        W32393  27.707  32.881   2.692
60068W        W32394   5.998  36.863  14.727
60069W        W32395  22.776  40.361  12.581
60070W        W32396  29.327  33.088  13.414
60071W        W32397  12.584  42.619   4.886
60072W        W32398   5.012  10.838   2.825
60073W        W32399   7.897   9.944   0.921
60074W        W32400  16.108   9.161  14.376
60075W        W32401  14.378   4.223  14.867
60076W        W32402  18.717  22.032  12.528
60077W        W32403   8.758   7.895  11.118
60078W        W32404  34.911   2.040  12.576
60079W        W32405  28.216   6.223   5.173
60080W        W32406   8.232   8.485  14.326
60081W        W32407  32.596  25.992  13.718
60082W        W32408  35.129  31.070   2.272
60083W        W32409  22.002  44.437   3.705
60084W        W32410  24.270  28.479   4.089
60085W        W32411  39.864   9.762  13.806
60086W        W32412  16.720   7.289  14.996
60087W        W32413  22.563  32.135  10.638
60088W        W32414  11.301  18.520  13.000
60089W        W32415  15.156   1.462   2.766
60090W        W32416  25.054  19.203  14.516
60091W        W32417  16.459  20.147  10.660
60092W        W32418   3.943  16.570   2.623
60093W        W32419   7.713   0.426   2.771
60094W        W32420  43.518  31.333  10.648
60095W        W32421  33.667   4.757   9.826
60096W        W32422  29.332  33.871   2.871
60097W        W32423  10.876   5.165  10.772
60098W        W32424  28.108  15.415   3.573
60099W        W32425   6.510  18.095   2.781
60100W        W32426   1.793  32.974   1.840
60101W        W32427   8.630  43.064  10.848
60102W        W32428  20.596  44.753  11.973
60103W        W32429  10.457  28.422  10.688
60104W        W32430   9.229  35.115   3.805
60105W        W32431  28.233  34.476   0.786
60106W        W32432  35.974  34.161  10.973
60107W        W32433  26.118  22.449  10.708
60108W        W32434  33.647  15.714   1.852
60109W        W32435  35.906  37.482  11.376
60110W        W32436  29.408  12.097  11.111
60111W        W32437  15.363  29.097   3.604
60112W        W32438  39.952  20.330   0.774
60113W        W32439  12.423  44.642   2.352
60114W        W32440  25.158  13.519  11.725
60115W        W32441  29.446  11.397  12.900
60116W        W32442  32.949  41.385   4.281
60117W        W32443  34.436   4.716  12.436
60118W        W32444  42.266  12.600  12.817
60119W        W32445  36.750  24.721   2.294
60120W        W32446  19.820   2.439   0.315
60121W        W32447  21.666  18.543   2.721
60122W        W32448  33.383  29.453   0.797
60123W        W32449  11.375   2.833  10.981
60124W        W32450  12.859  26.139   2.659
60125W        W32451  27.424  22.402   0.428
60126W        W32452  16.713  24.288   2.467
60127W        W32453  35.510   0.002  11.217
60128W        W32454  29.694   1.814   0.348
60129W        W32455  27.972  27.194  12.228
60130W        W32456  22.164   7.253  13.810
60131W        W32457  16.313  19.057  13.743
60132W        W32458  30.094  15.266  12.961
60133W        W32459  20.292  37.856  12.796
60134W        W32460  41.405  14.581   4.033
60135W        W32461  17.787  31.145  12.370
60136W        W32462  12.810   0.512  13.308
60137W        W32463   8.319  12.867  11.471
60138W        W32464  32.965  24.925  11.152
60139W        W32465  25.591  14.270   4.021
60140W        W32466  21.966   8.330  11.690
60141W        W32467  29.557   9.587  12.460
60142W        W32468  34.935  14.565   2.480
60143W        W32469   2.551  14.569   1.099
60144W        W32470  10.934  23.626   2.622
60145W        W32471  17.047  34.414  12.911
60146W        W32472  17.105  16.466  13.977
60147W        W32473   7.883   8.305   2.809
60148W        W32474  19.650  18.464  12.087
60149W        W32475  16.248  32.549  11.546
60150W        W32476  34.735  41.876  13.070
60151W        W32477  41.263   3.257   0.963
60152W        W32478  16.085  44.387  10.273
60153W        W32479  32.545  31.975   0.437
60154W        W32480  18.719  32.620  12.862
60155W        W32481  32.338   7.726   4.305
60156W        W32482  36.489  10.924  12.085
60157W        W32483  42.946  22.782   4.648
60158W        W32484  32.418  31.033  13.585
60159W        W32485  20.060   2.037   2.252
60160W        W32486  33.256  17.276   5.034
60161W        W32487  44.014  33.437  12.329
60162W        W32488  22.931   9.932   2.812
60163W        W32489  11.245  37.655  10.612
60164W        W32490   4.360  38.320  14.471
60165W        W32491  35.413   2.667   3.678
60166W        W32492  12.167  42.437  13.735
60167W        W32493  31.924  40.310  11.031
60168W        W32494  27.865  35.500   4.889
60169W        W32495  33.904  33.031  13.966
60170W        W32496  12.631  20.801   2.405
60171W        W32497   9.033  16.499  11.169
60172W        W32498  17.626  27.555   1.375
60173W        W32499  20.404   0.523   2.874
60174W        W32500  18.757  14.829  12.808
60175W        W32501  29.392  13.671   0.764
60176W        W32502  18.213   2.819   3.279
60177W        W32503  24.272  34.435  10.201
60178W        W32504   6.091  11.073   0.297
60179W        W32505   3.912   4.656  14.147
60180W        W32506  27.344  34.856  14.073
60181W        W32507  30.353  36.540  10.729
60182W        W32508  42.714  11.974  13.330
60183W        W32509  14.004  32.206  12.185
60184W        W32510  26.487   8.742  13.910
60185W        W32511  28.588  23.723   0.332
60186W        W32512   4.775  27.905  10.508
60187W        W32513   7.445  44.339  13.340
60188W        W32514  41.929  19.094   2.248
60189W        W32515  20.701  15.022  11.619
60190W        W32516  19.956  29.364  12.489
60191W        W32517  17.557  11.836   4.229
60192W        W32518  40.516  14.328   3.543
60193W        W32519  32.067  27.819   0.854
60194W        W32520   7.917  25.228  11.685
60195W        W32521  40.073  22.116  12.507
60196W        W32522  33.089   8.779  12.857
60197W        W32523   9.110  22.101  13.405
60198W        W32524  26.495  39.571   4.084
60199W        W32525  11.846  44.905  10.636
60200W        W32526  14.213   9.389   3.097
60201W        W32527  44.984   5.041   1.307
60202W        W32528  33.444  12.876  12.529
60203W        W32529  38.103  42.479   3.791
60204W        W32530  14.850  30.638   3.330
60205W        W32531  31.549  21.581   2.659
60206W        W32532  38.639   7.843   1.257
60207W        W32533   8.609  28.586   2.049
60208W        W32534  38.197   2.849  14.214
60209W        W32535  27.572  13.472  11.537
60210W        W32536   1.839   1.428  11.916
60211W        W32537  26.687  36.700   4.605
60212W        W32538  36.611  17.295  11.941
60213W        W32539  35.555  43.296  11.495
60214W        W32540  15.590  30.098  12.742
60215W        W32541  12.325  26.167  11.982
60216W        W32542  16.180   7.768   0.704
60217W        W32543  21.581  25.749   3.433
60218W        W32544   6.744  35.339   4.759
60219W        W32545   1.787   9.835   1.793
60220W        W32546  17.978  27.130  12.891
60221W        W32547  35.652  35.936  13.954
60222W        W32548  41.572   3.730   5.022
60223W        W32549  39.957  34.217   4.887
60224W        W32550   1.167  35.534  12.914
60225W        W32551  27.330  15.400   3.158
60226W        W32552   4.912  41.842  14.955
60227W        W32553  17.059  22.099   0.336
60228W        W32554   6.670  23.959   3.404
60229W        W32555  15.635  37.780  11.473
60230W        W32556  21.655  40.090  13.886
60231W        W32557  21.028  38.516   4.265
60232W        W32558  35.298  37.138   2.824
60233W        W32559  36.418  24.218   4.935
60234W        W32560   3.593  24.200  11.625
60235W        W32561  13.326  34.549   5.003
60236W        W32562  14.529  44.392  11.025
60237W        W32563   4.417  13.808   2.728
60238W        W32564  42.934  39.284  13.921
60239W        W32565  11.194  10.320   2.374
60240W        W32566   3.194  34.556   0.197
60241W        W32567   8.089  15.199  11.495
60242W        W32568  15.222   8.296  11.235
60243W        W32569  11.762  39.996   3.297
60244W        W32570   2.496  34.911  10.350
60245W        W32571   3.481  32.414   1.383
60246W        W32572  25.952  15.700  14.759
60247W        W32573  42.143   8.868  11.142
60248W        W32574  11.691  19.021  10.929
60249W        W32575  32.427  16.238  11.170
60250W        W32576  13.151  37.986  10.520
60251W        W32577  18.813   5.777  11.217
60252W        W32578  28.986   0.149  13.461
60253W        W32579  21.335  28.753  13.272
60254W        W32580   6.681  40.329   4.498
60255W        W32581  25.146  16.986   3.624
60256W        W32582  42.075   4.440   2.788
60257W        W32583  44.807   2.946   4.833
60258W        W32584  10.905  38.162  12.595
60259W        W32585   3.752  29.369  10.991
60260W        W32586  41.743   8.978  13.474
60261W        W32587  27.490  25.579  12.052
60262W        W32588   2.699  29.651  11.955
60263W        W32589  22.006  17.551   4.026
60264W        W32590  20.068  29.002   1.715
60265W        W32591  15.817  35.013   0.031
60266W        W32592  15.222   4.812   4.586
60267W        W32593  11.944  43.688   4.087
60268W        W32594  40.357  23.506   2.735
60269W        W32595  35.957   6.817  11.148
60270W        W32596  14.344  14.179  12.443
60271W        W32597  40.120  23.229  10.518
60272W        W32598   7.863   0.768  12.259
60273W        W32599   5.102  35.504  12.978
60274W        W32600  11.548  24.714  14.920
60275W        W32601   7.294  30.227   3.615
60276W        W32602  41.665  29.227   0.784
60277W        W32603  20.598  25.487   2.301
60278W        W32604  24.238  11.208   1.398
60279W        W32605   3.853  27.620   4.991
60280W        W32606  29.256  17.086  13.949
60281W        W32607  32.681  41.931   1.286
60282W        W32608  21.143  29.902  11.685
60283W        W32609  22.705  10.228  12.956
60284W        W32610  40.757   5.823  13.983
60285W        W32611  41.138  31.490   0.822
60286W        W32612  22.008  43.053   1.306
60287W        W32613  31.608  38.801   3.224
60288W        W32614  40.587   2.804  12.081
60289W        W32615   2.394   1.867   4.578
60290W        W32616  44.807  16.952  11.619
60291W        W32617  33.591  22.441   1.802
60292W        W32618  34.199   1.923  10.630
60293W        W32619  37.837  29.243  12.721
60294W        W32620  44.598  39.892   2.647
60295W        W32621   7.447  26.194   0.137
60296W        W32622  32.137  36.808   1.338
60297W        W32623  37.105  26.996   3.777
60298W        W32624  35.799  21.525   2.267
60299W        W32625  36.344   4.922  11.155
60300W        W32626  39.139   5.354  13.070
60301W        W32627  29.945  19.053   3.724
60302W        W32628  15.246  20.693   3.298
60303W        W32629  33.498  13.554  14.662
60304W        W32630  32.470  44.949   3.307
60305W        W32631   0.524  42.327   1.766
60306W        W32632  33.073   4.270  10.936
60307W        W32633   9.638   9.291  10.656
60308W        W32634  44.091  23.085   1.506
60309W        W32635  42.876  18.147  11.449
60310W        W32636  34.515  40.817  13.356
60311W        W32637  37.902  31.253   3.277
60312W        W32638  27.246  43.767   3.188
60313W        W32639  37.545   2.923   0.967
60314W        W32640  38.041  32.340  12.833
60315W        W32641   0.771   4.280  11.167
60316W        W32642  25.625  20.956  14.918
60317W        W32643   3.227  22.557  10.621
60318W        W32644   3.517  29.414   3.105
60319W        W32645  32.574  25.645   3.787
60320W        W32646  35.120  41.285  12.255
60321W        W32647   8.008  34.494  10.624
60322W        W32648  20.957  15.197   0.754
60323W        W32649   1.203  11.409  12.473
60324W        W32650   7.250  44.384  11.989
60325W        W32651  11.576  38.366  14.802
60326W        W32652  29.718  17.654   1.514
60327W        W32653  34.782  27.533  14.076
60328W        W32654  31.483  15.079   2.899
60329W        W32655  21.051  15.098   0.243
60330W        W32656  18.055  33.018  12.417
60331W        W32657  32.327  40.116  11.975
60332W        W32658  24.138  37.604   1.173
60333W        W32659  20.096  28.005   4.158
60334W        W32660  22.958  20.622  13.898
60335W        W32661  16.623  25.014   4.254
60336W        W32662  39.470  44.758   0.017
60337W        W32663  40.506   1.842   0.320
60338W        W32664  40.749   1.835  14.840
60339W        W32665   0.626  24.420   2.374
60340W        W32666  38.890  38.262  10.963
60341W        W32667  23.776  12.522   1.144
60342W        W32668  11.730   3.760  12.814
60343W        W32669  21.052   9.275  12.511
60344W        W32670  19.964  36.129   1.235
60345W        W32671  14.736  33.458  11.192
60346W        W32672  20.788  41.490   2.332
60347W        W32673  20.136  18.243  12.584
60348W        W32674   5.745  37.547  13.551
60349W        W32675   5.966  38.903   1.737
60350W        W32676  22.534  14.798   2.259
60351W        W32677   4.868   9.327   3.229
60352W        W32678  31.023  12.348   3.178
60353W        W32679  36.924  30.609  12.081
60354W        W32680  14.047  21.936   4.155
60355W        W32681   7.599  24.184  13.782
60356W        W32682  21.994   8.484  14.377
60357W        W32683  13.745  19.231   0.958
60358W        W32684  16.322  11.883   1.923
60359W        W32685   0.753  30.315   9.975
60360W        W32686  23.130  19.973   2.817
60361W        W32687  18.859  32.324  12.463
60362W        W32688  29.614  26.674  11.574
60363W        W32689   4.454   1.527  14.818
60364W        W32690  23.897   0.149   3.368
60365W        W32691  39.134  21.164  14.847
60366W        W32692  24.381  32.612   1.412
60367W        W32693  27.618   5.942  13.835
60368W        W32694  44.527  36.005  13.389
60369W        W32695  16.542  10.771   1.942
60370W        W32696  44.944  22.563  13.627
60371W        W32697  33.041  27.008   1.888
60372W        W32698  38.037  20.085   2.013
60373W        W32699  29.566  21.520   0.078
60374W        W32700  13.090  16.800  12.493
60375W        W32701  40.913  14.338   2.230
60376W        W32702  37.473  14.975   3.407
60377W        W32703  22.498  10.029   4.101
60378W        W32704   0.901  22.260  13.931
60379W        W32705   9.281  34.886   1.398
60380W        W32706  26.719  33.496   2.807
60381W        W32707   7.750   6.901  10.769
60382W        W32708   8.964  29.918  10.687
60383W        W32709   3.504  44.879  13.835
60384W        W32710  43.881  39.388   2.112
60385W        W32711  24.601   3.437   5.081
60386W        W32712  17.664   9.570  12.864
60387W        W32713  43.086   9.810   4.077
60388W        W32714  35.348  34.409   2.435
60389W        W32715  34.886  41.891  13.706
60390W        W32716  17.720  27.611  10.774
60391W        W32717   2.829   9.254  13.254
60392W        W32718   9.814  40.269  12.456
60393W        W32719   5.931  21.266   1.889
60394W        W32720  23.036  27.042   1.921
60395W        W32721  41.060   8.276  13.985
60396W        W32722  31.602  31.606   2.912
60397W        W32723  34.549  30.437  11.720
60398W        W32724   2.845  23.335   0.442
60399W        W32725  15.508  25.037  12.434
60400W        W32726  38.117  24.245   4.740
60401W        W32727  33.141  35.266   2.170
60402W        W32728  22.943  12.350   2.838
60403W        W32729  23.621   7.411  13.736
60404W        W32730  11.303  18.698  13.913
60405W        W32731  11.890  29.951  11.426
60406W        W32732  15.253  22.950  13.179
60407W        W32733  28.333  22.468   3.646
60408W        W32734  28.045   2.503   2.258
60409W        W32735  36.716  44.300  14.176
60410W        W32736   4.757  29.370  14.842
60411W        W32737  42.901   7.120   0.463
60412W        W32738   3.044  43.364   0.277
60413W        W32739  32.516  44.422   4.234
60414W        W32740  27.687  27.693  14.251
60415W        W32741  26.091   9.412   0.999
60416W        W32742  13.323  16.103  10.962
60417W        W32743  21.917   4.809   2.500
60418W        W32744  42.346  33.360   0.588
60419W        W32745   3.457  10.781  14.762
60420W        W32746   3.310   8.851   1.454
60421W        W32747  23.476   4.372   0.930
60422W        W32748   3.807   2.773  13.059
60423W        W32749  22.230  40.652   3.188
60424W        W32750  24.216  12.344  12.897
60425W        W32751  10.681  23.008   5.046
60426W        W32752   7.951  18.132  11.587
60427W        W32753  26.265   2.411   4.227
60428W        W32754  22.060  31.470  13.473
60429W        W32755  35.157  23.180   2.057
60430W        W32756   9.784  42.011  10.654
60431W        W32757   0.977  15.107  13.971
60432W        W32758  30.705   9.336  14.351
60433W        W32759  22.653  43.916  10.774
60434W        W32760   4.278  39.730  14.935
60435W        W32761   2.315  14.560   4.532
60436W        W32762   9.744  27.243  11.696
60437W        W32763  44.252  36.938   2.262
60438W        W32764  33.523   1.193   2.341
60439W        W32765  27.513  14.086  12.494
60440W        W32766  11.363  37.918   2.915
60441W        W32767  19.001  29.489   3.262
60442W        W32768  22.016  25.638   3.167
60443W        W32769  36.953  14.136  13.036
60444W        W32770  19.744  23.872   4.120
60445W        W32771  27.907  37.512   4.636
60446W        W32772  37.171  30.324  12.967
60447W        W32773  28.627  25.653  11.649
60448W        W32774  35.313  23.505  12.920
60449W        W32775  35.985  44.834  11.022
60450W        W32776  41.086  42.590  11.526
60451W        W32777   9.305  27.470  14.507
60452W        W32778  15.597   1.255   3.622
60453W        W32779  30.555   9.603   1.387
60454W        W32780   8.229  13.650  13.031
60455W        W32781  33.407  14.721  12.021
60456W        W32782   5.479  12.252  12.106
60457W        W32783  22.754   5.526   4.227
60458W        W32784  39.715  31.628   1.798
60459W        W32785  18.819  21.127  10.191
60460W        W32786  20.577  33.441  13.589
60461W        W32787  37.460  25.127   2.866
60462W        W32788  39.447  33.999   0.361
60463W        W32789  27.696  19.029  12.887
60464W        W32790  37.243  32.001   1.493
60465W        W32791  19.048  13.209   0.503
60466W        W32792  15.950  39.894  13.429
60467W        W32793  14.037   7.271  12.687
60468W        W32794  19.309   2.258   3.842
60469W        W32795   1.936  33.092   0.909
60470W        W32796  19.094  33.637   0.792
60471W        W32797  26.464   3.205  12.061
60472W        W32798  41.980  29.014   2.558
60473W        W32799  30.894  36.842   1.668
60474W        W32800  30.781   0.243   3.861
60475W        W32801  42.484   0.469  13.435
60476W        W32802   1.724  31.118   3.013
60477W        W32803   5.025   5.071  10.974
60478W        W32804  40.617  44.558   2.731
60479W        W32805  33.484   3.299   3.583
60480W        W32806  38.505   3.244  11.996
60481W        W32807   6.822  22.018   3.398
60482W        W32808  17.380   6.882  12.537
60483W        W32809   2.907   6.109  12.870
60484W        W32810  32.802  10.155  10.840
60485W        W32811   6.717  26.432  14.878
60486W        W32812   9.714  31.967   4.420
60487W        W32813  34.061  19.075   1.861
60488W        W32814  38.133  17.822   2.751
60489W        W32815  19.021   9.784  13.884
60490W        W32816  41.346  10.668  11.071
60491W        W32817  15.630   9.004   2.630
60492W        W32818  29.120  22.162   2.965
60493W        W32819  15.837  23.747  12.772
60494W        W32820  20.112  25.236  10.280
60495W        W32821  44.746  20.155  14.913
60496W        W32822  41.760  35.337  11.570
60497W        W32823  19.362  30.345   0.276
60498W        W32824  33.842  33.339   5.073
60499W        W32825  41.074  14.555  11.566
60500W        W32826  19.075   4.881  10.419
60501W        W32827  34.942  39.290  13.513
60502W        W32828  16.628  19.476   5.336
60503W        W32829  20.143  41.936   5.069
60504W        W32830  16.345  22.329  13.453
60505W        W32831  20.149  32.539   1.910
60506W        W32832  33.623   1.804  14.408
60507W        W32833  40.868  24.383  12.002
60508W        W32834  43.440  31.005   3.153
60509W        W32835  42.019  19.123  12.018
60510W        W32836  22.854  17.685   4.630
60511W        W32837   7.496  44.851  11.997
60512W        W32838  37.561  24.722  12.842
60513W        W32839   7.058   7.664   2.699
60514W        W32840  19.201  34.103   3.828
60515W        W32841  28.150  10.807  10.954
60516W        W32842  12.652  16.775   0.869
60517W        W32843   5.738  28.234   3.225
60518W        W32844  41.831  14.807   4.289
60519W        W32845  40.975   3.389  14.022
60520W        W32846  25.049  42.954   0.645
60521W        W32847   1.193   3.167  11.567
60522W        W32848  14.705  37.362   0.365
60523W        W32849   0.332  43.501   3.696
60524W        W32850  10.484  19.154  12.045
60525W        W32851  15.190  41.783  13.144
60526W        W32852  19.108  21.547  11.974
60527W        W32853  23.650  23.163  10.637
60528W        W32854  13.315  26.313   4.665
60529W        W32855  31.404  20.573   1.751
60530W        W32856  21.147  24.234  13.311
60531W        W32857   0.503  10.972  12.028
60532W        W32858  34.139   3.859   0.721
60533W        W32859  31.485  20.665   3.671
60534W        W32860  15.819  26.655   4.679
60535W        W32861  11.093  15.663  12.414
60536W        W32862   1.265   2.414  11.144
60537W        W32863   1.363  31.126   4.218
60538W        W32864  37.511  33.790  10.411
60539W        W32865  41.583   4.755  12.517
60540W        W32866  21.093  25.598  11.408
60541W        W32867  22.805  29.597   9.921
60542W        W32868  13.674  37.900  12.650
60543W        W32869  21.437  11.115  14.046
60544W        W32870  35.067  44.230   4.217
60545W        W32871  13.802  26.204  13.134
60546W        W32872  38.511  30.627  12.410
60547W        W32873  31.067  42.061   3.201
60548W        W32874  42.898  15.750  11.525
60549W        W32875  37.240  36.612   2.816
60550W        W32876  41.414  23.054  10.686
60551W        W32877  36.848  31.397   2.313
60552W        W32878   4.522   8.843  10.730
60553W        W32879  27.173   4.393  12.610
60554W        W32880  17.039  32.853   2.735
60555W        W32881  29.508  39.351  11.780
60556W        W32882  29.373  31.729   3.604
60557W        W32883  15.101  12.235  11.194
60558W        W32884  44.542  36.007   4.560
60559W        W32885  28.572  23.499  14.783
60560W        W32886  39.765  17.669   4.168
60561W        W32887   9.194  32.205   1.727
60562W        W32888  27.618  18.691  12.500
60563W        W32889  26.473  29.014   1.711
60564W        W32890  29.382  35.713   3.826
60565W        W32891  21.931   4.884   4.364
60566W        W32892  24.057  18.599  10.210
60567W        W32893  32.779  24.503  12.050
60568W        W32894  29.224  12.753   2.895
60569W        W32895   9.754  26.281   4.258
60570W        W32896  27.634   5.787  10.663
60571W        W32897   0.389  20.104  11.622
60572W        W32898  36.344   4.453  11.601
60573W        W32899   6.897  36.937  14.368
60574W        W32900  14.644   2.325   1.448
60575W        W32901  27.546  27.108  11.957
60576W        W32902   3.165  28.949  14.440
60577W        W32903  36.396  13.266   4.173
60578W        W32904  25.153  12.600  13.506
60579W        W32905   8.384  19.149   1.191
60580W        W32906  44.576  26.879   4.135
60581W        W32907  10.408  32.153   4.954
60582W        W32908  31.835  12.056   1.261
60583W        W32909  39.166  26.462  12.851
60584W        W32910  23.512  33.507  12.494
60585W        W32911  35.467  29.899   1.871
60586W        W32912   9.128  10.285  14.424
60587W        W32913   6.006  16.158  12.265
60588W        W32914  27.245  20.785  12.446
60589W        W32915  14.833  35.379  14.298
60590W        W32916  15.992  18.135  14.361
60591W        W32917   4.686  36.946   4.212
60592W        W32918  26.187  43.163   2.847
60593W        W32919  24.646  24.576  14.032
60594W        W32920  12.696   7.336  10.468
60595W        W32921  35.436  36.435   3.623
60596W        W32922  37.187  32.227   5.041
60597W        W32923  38.538  38.920  13.042
60598W        W32924  28.146  19.659  13.374
60599W        W32925  27.455  40.517  10.392
60600W        W32926  39.941  42.974   0.379
60601W        W32927  23.017  17.242  12.798
60602W        W32928  13.052  19.201  12.006
60603W        W32929  24.400  10.149  11.562
60604W        W32930  12.755  33.712  10.741
60605W        W32931  37.472  31.465   1.664
60606W        W32932  25.701   7.647   0.596
60607W        W32933   9.164   1.529  13.876
60608W        W32934  34.876  28.796   4.553
60609W        W32935  21.760   9.946  14.992
60610W        W32936  28.132  28.420  13.065
60611W        W32937  41.845  23.355   2.384
60612W        W32938  25.560  43.979   4.122
60613W        W32939  32.437   3.138   2.367
60614W        W32940   1.272  24.236  14.819
60615W        W32941  33.002  34.768  12.040
60616W        W32942   6.215  41.991   3.533
60617W        W32943   6.487  27.166   2.699
60618W        W32944  18.791  13.510  12.654
60619W        W32945  14.048   5.853   4.918
60620W        W32946  34.128  34.049   1.342
60621W        W32947   6.971  21.326   0.900
60622W        W32948   0.490  30.519   3.726
60623W        W32949  10.746  42.450   2.097
60624W        W32950  36.505  35.376   4.528
60625W        W32951  24.965  38.470  11.731
60626W        W32952  36.147   3.617  11.099
60627W        W32953  44.365  10.149   0.262
60628W        W32954  39.817  19.719  14.982
60629W        W32955   6.198   8.649   0.320
60630W        W32956  41.859  29.461   4.227
60631W        W32957  35.474  19.299  13.033
60632W        W32958  38.010   1.696  13.359
60633W        W32959   4.775  21.199   2.209
60634W        W32960  15.494  17.230   3.183
60635W        W32961  39.428  26.451   3.274
60636W        W32962   6.798   6.250   2.332
60637W        W32963   7.212  23.959  14.066
60638W        W32964  12.279  16.549  11.972
60639W        W32965  12.418  33.203   0.479
60640W        W32966  28.449  40.365   3.123
60641W        W32967  15.823  10.218   3.608
60642W        W32968  36.583  27.733  10.636
60643W        W32969  20.466   8.786   4.963
60644W        W32970  18.046  42.329   1.226
60645W        W32971  37.533  10.948  13.781
60646W        W32972  27.018  26.105   3.207
60647W        W32973  15.872  30.670  11.963
60648W        W32974  42.784  31.007   2.386
60649W        W32975  31.393   6.180  11.517
60650W        W32976   0.233  16.088  13.390
60651W        W32977  32.648  18.980   2.251
60652W        W32978  30.872   6.485   0.848
60653W        W32979  26.760  17.247   4.684
60654W        W32980  35.576  16.715  11.097
60655W        W32981   0.287  30.471   0.850
60656W        W32982   0.861  18.050   3.669
60657W        W32983  35.403  10.564   2.273
60658W        W32984   6.827  20.240  11.639
60659W        W32985   8.384   6.258   0.236
60660W        W32986  39.070  44.788   3.915
60661W        W32987  15.179  21.055  13.041
60662W        W32988  37.362  28.521  12.476
60663W        W32989  22.831   7.303   1.539
60664W        W32990  40.983  23.325  13.029
60665W        W32991   8.285  37.464   1.892
60666W        W32992  23.747  13.230   3.537
60667W        W32993  16.215  31.431  11.062
60668W        W32994  21.081  36.038   4.857
60669W        W32995  32.599   9.812   3.567
60670W        W32996  14.316  41.773   3.628
60671W        W32997   2.919   1.813   0.210
60672W        W32998  20.886  13.174   2.220
60673W        W32999   8.276  23.491  14.775
60674W        W33000   3.388   4.896   4.187
60675W        W33001  30.338   5.361   4.372
60676W        W33002  13.189  32.680   4.046
60677W        W33003  35.122   9.706  12.935
60678W        W33004  20.232   9.325  13.875
60679W        W33005  35.186  15.325  12.464
60680W        W33006  28.640  38.376   3.256
60681W        W33007  28.463  12.670  11.004
60682W        W33008  44.771  38.731  14.370
60683W        W33009  20.787  38.663   3.486
60684W        W33010  44.848  14.323  14.249
60685W        W33011  41.265  32.375   1.075
60686W        W33012  33.107  43.061   1.832
60687W        W33013  20.557  34.044  10.771
60688W        W33014  30.858  30.469  14.202
60689W        W33015  32.626  22.612   4.204
60690W        W33016  31.993  43.482   3.809
60691W        W33017  36.452  26.437   1.860
60692W        W33018  30.451  19.635  10.773
60693W        W33019  18.729   1.355  12.137
60694W        W33020  23.101  34.856  10.716
60695W        W33021   7.853  44.887   0.733
60696W        W33022  23.482  40.447  10.617
60697W        W33023  16.132  28.975   4.121
60698W        W33024  21.613   3.390  12.923
60699W        W33025  13.367  15.681   4.125
60700W        W33026  22.590  23.956   2.360
60701W        W33027   2.728   1.806  14.729
60702W        W33028  41.976   4.358   0.228
60703W        W33029   2.415  27.512  14.564
60704W        W33030  28.043  14.513  11.140
60705W        W33031  36.771   2.376   3.554
60706W        W33032  30.722  39.582  13.401
60707W        W33033  30.374  35.048   5.361
60708W        W33034  33.301  18.597  14.951
60709W        W33035  40.392  22.941  14.073
60710W        W33036  35.998  40.786  14.986
60711W        W33037  16.013  34.367   3.204
60712W        W33038  35.382   5.847  13.421
60713W        W33039  42.617   5.453  12.495
60714W        W33040  26.596  15.683   4.635
60715W        W33041   3.261   6.433   4.116
60716W        W33042  15.315   1.181   0.466
60717W        W33043   9.853  26.171  13.436
60718W        W33044  43.313  19.732   5.067
60719W        W33045   5.151  10.317  14.379
60720W        W33046   1.586  30.077  11.158
60721W        W33047  35.895   9.190   4.043
60722W        W33048  15.399  10.368  13.937
60723W        W33049  12.562  43.096   0.868
60724W        W33050  12.511  26.579   4.631
60725W        W33051  21.839  35.064  11.156
60726W        W33052  17.148  17.064   0.737
60727W        W33053  44.841   6.211  11.592
60728W        W33054  34.773  12.576  11.146
60729W        W33055   5.953  17.149   4.849
60730W        W33056  40.725  16.715   4.351
60731W        W33057   8.844  12.840  14.351
60732W        W33058   8.745  14.339   4.665
60733W        W33059  14.269  22.112  14.499
60734W        W33060  30.202  31.940   0.427
60735W        W33061  21.734   8.472   0.995
60736W        W33062  31.495  34.532  12.431
60737W        W33063   5.990  22.956   1.971
60738W        W33064  32.427  23.901  14.913
60739W        W33065  35.494   9.015   2.448
60740W        W33066   8.264  10.230  14.661
60741W        W33067   9.934  17.691   1.439
60742W        W33068  26.675  20.584  13.575
60743W        W33069  29.040  31.822   0.666
60744W        W33070  15.358  22.019   3.867
60745W        W33071   0.996  25.611   4.310
60746W        W33072   6.412   1.972   1.058
60747W        W33073   2.240  25.255   4.953
60748W        W33074  21.528  32.010  10.497
60749W        W33075  29.570  23.716  13.336
60750W        W33076   5.830  26.573   2.542
60751W        W33077  26.153  23.166  12.787
60752W        W33078  23.094   7.953  11.532
60753W        W33079  24.030   2.706   1.371
60754W        W33080   3.921  30.183   2.675
60755W        W33081  29.265  24.567  12.540
60756W        W33082  27.069  34.467  11.475
60757W        W33083  10.831  36.201  14.208
60758W        W33084  12.322  22.794   2.957
60759W        W33085  32.793   2.357   3.294
60760W        W33086  30.356  21.334  10.064
60761W        W33087  28.848  38.249   2.307
60762W        W33088   7.048  13.445  13.803
60763W        W33089   3.720   7.416   3.763
60764W        W33090  42.803  18.609  11.693
60765W        W33091  38.127  41.593  12.758
60766W        W33092  33.169  44.467  12.045
60767W        W33093  35.344  35.271  10.688
60768W        W33094  15.287  40.717  10.692
60769W        W33095  40.353  21.967  14.220
60770W        W33096  16.617  42.451  13.529
60771W        W33097   5.493  17.162   0.300
60772W        W33098  36.827   4.478  11.685
60773W        W33099  23.796  27.392  11.623
60774W        W33100   9.480   6.299  13.042
60775W        W33101  18.128   3.413  14.501
60776W        W33102  30.983  13.734   4.816
60777W        W33103  22.657  33.497   1.235
60778W        W33104   9.122  29.403  10.772
60779W        W33105  11.410  12.160   0.498
60780W        W33106  31.171  16.089  13.460
60781W        W33107  15.392  16.592  12.601
60782W        W33108  24.271   9.783  11.913
60783W        W33109  12.102  24.037   4.677
60784W        W33110  12.799  37.589  13.851
60785W        W33111  10.688  20.328   1.246
60786W        W33112  31.891  18.802   2.359
60787W        W33113  43.442  29.425  11.115
60788W        W33114  23.186  40.977   3.344
60789W        W33115  25.925  31.359   1.782
60790W        W33116  37.918   1.870   4.349
60791W        W33117   8.142  21.750   1.685
60792W        W33118  32.016  42.374   1.163
60793W        W33119  33.602  27.175   2.643
60794W        W33120   5.769  41.616   0.744
60795W        W33121  23.228  33.353   3.212
60796W        W33122  22.941  34.054   2.875
60797W        W33123  40.683  27.561   3.421
60798W        W33124  37.038  41.315  13.927
60799W        W33125   0.831  27.515   4.134
60800W        W33126   6.860  22.215  11.633
60801W        W33127  27.869  11.776   2.725
60802W        W33128   4.866  12.541  13.921
60803W        W33129   4.442   3.246  13.913
60804W        W33130  44.864   0.922   1.408
60805W        W33131  42.051   7.339   0.730
60806W        W33132   7.931  41.745   4.547
60807W        W33133  14.250  16.973  11.639
60808W        W33134   1.330  28.386   4.451
60809W        W33135  14.175  16.595  13.941
60810W        W33136  42.762   8.536   0.761
60811W        W33137   6.500   2.724  13.604
60812W        W33138   5.418  30.016   2.711
60813W        W33139   3.814  30.398  11.630
60814W        W33140   8.759  43.021  14.979
60815W        W33141   7.395  16.854   2.275
60816W        W33142  14.132  22.918   4.411
60817W        W33143  17.132  13.636  13.486
60818W        W33144  23.642  43.246  11.397
60819W        W33145  24.282  12.679   4.824
60820W        W33146  39.796  43.815   1.380
60821W        W33147  25.112  19.057   1.892
60822W        W33148  22.525  25.939  14.892
60823W        W33149  35.421  38.021   1.828
60824W        W33150   2.423  17.659   0.321
60825W        W33151   8.823  11.850  12.141
60826W        W33152  43.608  31.697   0.169
60827W        W33153  29.953  10.920   0.827
60828W        W33154  35.941  15.363  13.836
60829W        W33155  22.279  17.088   4.133
60830W        W33156  22.172   9.860   0.814
60831W        W33157  40.545  12.635   3.255
60832W        W33158  19.075  27.024   4.512
60833W        W33159  31.593  24.571  14.540
60834W        W33160  24.064  18.642  11.786
60835W        W33161  33.322   9.255   0.888
60836W        W33162   1.408  17.657  11.449
60837W        W33163   1.627  13.220  14.952
60838W        W33164   9.583  38.584  11.186
60839W        W33165  26.607  27.516   0.226
60840W        W33166  23.423  43.761  13.994
60841W        W33167  40.439  32.531   4.576
60842W        W33168  43.300  26.722   4.212
60843W        W33169   2.980  17.129   3.373
60844W        W33170  43.319  43.316  11.387
60845W        W33171  32.235   8.368   4.141
60846W        W33172  36.080   5.953  14.581
60847W        W33173  41.097  28.017   0.976
60848W        W33174  12.170  29.468   1.464
60849W        W33175   8.926   2.292  14.318
60850W        W33176  17.093  27.478  13.177
60851W        W33177  26.232  36.026   1.893
60852W        W33178  35.197  28.454   1.760
60853W        W33179   4.696   9.271  13.903
60854W        W33180  43.325   7.117  12.836
60855W        W33181   7.384   3.358   4.871
60856W        W33182  29.287   6.051   2.154
60857W        W33183  22.747  22.308  13.839
60858W        W33184  23.047  34.861   4.224
60859W        W33185  12.853  40.435  13.532
60860W        W33186  42.309  41.015   1.836
60861W        W33187  41.900  16.185  10.743
60862W        W33188  43.759   4.861   2.918
60863W        W33189  11.728  18.985  10.032
60864W        W33190  14.902  43.763  11.090
60865W        W33191  34.078  36.417   2.179
60866W        W33192  24.326  12.680   0.005
60867W        W33193  42.316  29.697  12.426
60868W        W33194  34.758  18.311   3.614
60869W        W33195  17.451   5.217   1.811
60870W        W33196   4.378   2.263  12.038
60871W        W33197  35.474  36.279   4.194
60872W        W33198  26.178  21.958   4.698
60873W        W33199  39.932  11.868   1.787
60874W        W33200  26.689  12.424  11.448
60875W        W33201  42.272  13.731  14.953
60876W        W33202   4.180  16.081   0.459
60877W        W33203  43.202  22.028  14.093
60878W        W33204  12.100  17.727  10.651
60879W        W33205   5.315  28.708  12.908
60880W        W33206  28.146   9.359  11.489
60881W        W33207  31.372  28.407  13.321
60882W        W33208  19.094  31.633  13.777
60883W        W33209  24.213  14.627   3.638
60884W        W33210  35.792  15.673  10.649
60885W        W33211  25.837  40.844   2.235
60886W        W33212   0.443  25.598   0.954
60887W        W33213   3.144   1.566  12.459
60888W        W33214  44.975  20.212  13.537
60889W        W33215  40.550  42.801   4.090
60890W        W33216  32.389   7.927   2.864
60891W        W33217  15.574  26.218   4.048
60892W        W33218  43.062  14.238   1.320
60893W        W33219   8.160   3.416   2.005
60894W        W33220  29.627   0.426   4.540
60895W        W33221  37.612   2.150   3.202
60896W        W33222  29.090  44.033   1.928
60897W        W33223   7.169  40.390   4.344
60898W        W33224  39.862  42.994  11.065
60899W        W33225  11.179  38.018  13.895
60900W        W33226  39.119  29.042  12.117
60901W        W33227  31.659   4.309  13.548
60902W        W33228  35.143  24.827   4.189
60903W        W33229  36.858  27.548  12.874
60904W        W33230   6.375  14.362   3.980
60905W        W33231   9.832  29.995  12.987
60906W        W33232  23.969  35.973   4.368
60907W        W33233  27.765  11.343   0.427
60908W        W33234  44.031  21.228  14.364
60909W        W33235  37.557  30.550   4.525
60910W        W33236  14.005   4.186  11.178
60911W        W33237   0.194  11.743   0.870
60912W        W33238  41.813   1.825   3.309
60913W        W33239  42.155  29.740  13.455
60914W        W33240  30.399  12.871   1.392
60915W        W33241  39.995  12.356   0.785
60916W        W33242  25.150  14.660  10.305
60917W        W33243   2.139  36.151   0.754
60918W        W33244  34.900  30.109  11.123
60919W        W33245   5.340  34.496  12.339
60920W        W33246  15.696   5.783  11.102
60921W        W33247  23.368  32.089   4.037
60922W        W33248  25.268  10.842  12.007
60923W        W33249  29.901  32.360   0.931
60924W        W33250  41.246  26.589  13.539
60925W        W33251  44.056   9.396  12.420
60926W        W33252  17.625   2.409   3.341
60927W        W33253  29.282   2.778  10.744
60928W        W33254   7.291  37.806  11.760
60929W        W33255  12.950  27.589   5.445
60930W        W33256   5.436  37.991   4.036
60931W        W33257  36.894  31.163  13.271
60932W        W33258  18.727  33.928   3.899
60933W        W33259  35.616  27.880   0.993
60934W        W33260  38.325  34.276  12.113
60935W        W33261  43.912   3.707   2.193
60936W        W33262  44.757  40.058  10.397
60937W        W33263  14.005  27.519   4.973
60938W        W33264  25.990  17.717   4.832
60939W        W33265  39.357  30.637  11.869
60940W        W33266  13.257  21.497   0.337
60941W        W33267  31.430  13.641  11.276
60942W        W33268  17.825  17.689   3.527
60943W        W33269  29.914   7.225  10.714
60944W        W33270  35.906  24.428  13.310
60945W        W33271  42.834  33.272  14.896
60946W        W33272  37.329  41.478  12.492
60947W        W33273  36.073   8.492  10.511
60948W        W33274  33.007   7.755  12.455
60949W        W33275  25.532  19.030  13.251
60950W        W33276  35.986  42.051  13.677
60951W        W33277  28.127  13.845   9.914
60952W        W33278   8.419   7.766  13.798
60953W        W33279  39.450  26.520  10.715
60954W        W33280   9.230  41.818   4.144
60955W        W33281  42.859  32.919  12.441
60956W        W33282  39.373  32.504   1.677
60957W        W33283   0.431  42.902  11.047
60958W        W33284   1.827  29.544   1.402
60959W        W33285  30.559  18.933  11.255
60960W        W33286  34.461   5.388   4.671
60961W        W33287  41.894  40.557   0.726
60962W        W33288  32.594  24.952  14.778
60963W        W33289   0.127   4.421  12.462
60964W        W33290  12.206  21.911   1.944
60965W        W33291  24.551  28.625   4.520
60966W        W33292  40.799  29.107  11.521
60967W        W33293  30.997  23.399   0.018
60968W        W33294  14.554  15.651  13.899
60969W        W33295  15.262  21.961  12.893
60970W        W33296  15.212  44.423   3.209
60971W        W33297  43.515   1.362  13.416
60972W        W33298  21.333  13.180  11.699
60973W        W33299   0.117  10.853   1.122
60974W        W33300  35.161  10.321  11.146
60975W        W33301  19.663  42.579   4.945
60976W        W33302  29.416   6.728  13.431
60977W        W33303  15.376  13.634   2.951
60978W        W33304  22.571   5.957   1.932
60979W        W33305  36.792  16.578   2.773
60980W        W33306  44.121   8.898  12.514
60981W        W33307  30.059  36.515  12.071
60982W        W33308  13.087  18.707   2.643
60983W        W33309  13.682   4.157   4.610
60984W        W33310  37.061   5.350   1.232
60985W        W33311  24.110  15.378   0.457
60986W        W33312  38.915   0.006   0.810
60987W        W33313  25.770  34.350  11.645
60988W        W33314  10.488  39.938  13.590
60989W        W33315  33.223  20.452  12.448
60990W        W33316   0.348  18.798   1.194
60991W        W33317  27.553  37.011  10.496
60992W        W33318  40.310  10.290  13.544
60993W        W33319   1.789   5.422   4.481
60994W        W33320   5.954  39.105  11.449
60995W        W33321  32.187   7.838  13.690
60996W        W33322   2.835  37.987   2.671
60997W        W33323   1.385  36.994   0.189
60998W        W33324   7.479  16.339  10.695
60999W        W33325  26.925  10.278   1.219
61000W        W33326  20.071  42.417   1.170
61001W        W33327  33.353   2.689  11.982
61002W        W33328  26.088  29.004  10.724
61003W        W33329  43.296  17.248   3.831
61004W        W33330  20.068  28.007  10.720
61005W        W33331  32.107  26.882   1.795
61006W        W33332   8.154  20.601  14.300
61007W        W33333  31.091  29.336   2.744
61008W        W33334   9.334  44.845  10.744
61009W        W33335   1.338  19.565  11.980
61010W        W33336  24.591   0.945  12.087
61011W        W33337  23.499  19.188   4.708
61012W        W33338  23.976  28.180  10.608
61013W        W33339  29.076  14.766   4.872
61014W        W33340  43.610  15.464  11.003
61015W        W33341  19.169  42.289  11.450
61016W        W33342  41.475  10.034  12.018
61017W        W33343   5.206  24.985   2.257
61018W        W33344  27.177  14.156  12.030
61019W        W33345  24.277   1.859  14.818
61020W        W33346  38.920  30.483   0.551
61021W        W33347  32.161   7.512   1.467
61022W        W33348  22.237  27.001   2.416
61023W        W33349  13.615   1.532   3.292
61024W        W33350  27.522  22.106  10.503
61025W        W33351  44.364  34.123   3.187
61026W        W33352   1.178  29.131  10.992
61027W        W33353  20.032   9.024   0.303
61028W        W33354  14.361   3.753   2.838
61029W        W33355  44.419   8.727  10.301
61030W        W33356  41.033  43.851   3.242
61031W        W33357  13.133  38.478  13.745
61032W        W33358  26.095  21.494  10.385
61033W        W33359  24.934  28.053  14.744
61034W        W33360  36.172  32.528   2.807
61035W        W33361   7.906  28.190  14.891
61036W        W33362   3.947  14.095   1.500
61037W        W33363  17.308  40.873   3.199
61038W        W33364  19.111  17.730   4.166
61039W        W33365  16.163  41.726  13.556
61040W        W33366   6.717  41.552  10.383
61041W        W33367  17.139  32.591   4.072
61042W        W33368  34.912   3.916  11.624
61043W        W33369  25.252  31.514   2.950
61044W        W33370   8.348  22.719   2.827
61045W        W33371  42.262  23.079   1.831
61046W        W33372   2.438  13.610  14.826
61047W        W33373  26.977  34.570   4.476
61048W        W33374   2.215  20.039  11.428
61049W        W33375  24.695  16.761   3.740
61050W        W33376  14.191  38.206   4.500
61051W        W33377  18.288  15.596   1.910
61052W        W33378  26.042  26.875  12.840
61053W        W33379  41.893  28.949   1.520
61054W        W33380  17.634   1.982  10.659
61055W        W33381  35.322  36.009   0.532
61056W        W33382   7.800  15.157   3.763
61057W        W33383  16.194  25.188  13.192
61058W        W33384  37.352   0.934  11.180
61059W        W33385   7.599  18.199  14.442
61060W        W33386  27.648  37.444  14.518
61061W        W33387  37.518  17.499  12.093
61062W        W33388  22.129   4.731   2.031
61063W        W33389  13.803  28.182   3.745
61064W        W33390  35.386   4.368  10.702
61065W        W33391  12.161  35.673  10.091
61066W        W33392  16.706  43.450  12.024
61067W        W33393  22.141   4.822  13.029
61068W        W33394  34.470   2.293  12.617
61069W        W33395  31.650  38.666  14.779
61070W        W33396  42.763  26.151   1.500
61071W        W33397   7.964  40.722   0.357
61072W        W33398  27.594   9.068  12.941
61073W        W33399  31.974  29.017   4.855
61074W        W33400  31.175  22.475   3.066
61075W        W33401  17.420  22.672  11.171
61076W        W33402  34.437  26.739  14.071
61077W        W33403   2.709   9.915  14.064
61078W        W33404  16.327  15.510   1.750
61079W        W33405   1.224  41.312   0.186
61080W        W33406  32.904  18.260   4.107
61081W        W33407  37.963  41.919   1.777
61082W        W33408  10.311  22.447   0.299
61083W        W33409   6.744   5.803   2.090
61084W        W33410  27.194   8.709  11.068
61085W        W33411  39.071  25.232  12.148
61086W        W33412  31.576  27.056  14.311
61087W        W33413  44.378   5.953  11.448
61088W        W33414  41.447  35.021  12.961
61089W        W33415  30.489  12.691   4.192
61090W        W33416  19.002  41.871   1.059
61091W        W33417  21.517  16.311  10.439
61092W        W33418  35.868  20.328  12.561
61093W        W33419  15.721  20.916   3.211
61094W        W33420  34.452  21.556   4.027
61095W        W33421   1.788  20.279  12.893
61096W        W33422  37.801  21.064  14.419
61097W        W33423  23.641  41.425   2.610
61098W        W33424  22.918  43.785   1.312
61099W        W33425   1.805  39.578   1.983
61100W        W33426   0.666   1.282   3.010
61101W        W33427  16.680   3.521   3.699
61102W        W33428  26.265  30.785  11.207
61103W        W33429  27.518  44.092   1.402
61104W        W33430  21.829  39.944   0.857
61105W        W33431  34.754  37.894  10.296
61106W        W33432  12.673  18.158   1.417
61107W        W33433   0.601   7.333  13.394
61108W        W33434  37.016  18.077   3.347
61109W        W33435  16.319   3.636   0.375
61110W        W33436  30.431  29.294   0.241
61111W        W33437   2.388  18.004   1.819
61112W        W33438  17.604  29.566   0.028
61113W        W33439  37.071  15.157   1.744
61114W        W33440  14.110  36.032  12.505
61115W        W33441  27.233   4.916   0.842
61116W        W33442  20.107  10.133   3.740
61117W        W33443  43.446  14.640   4.462
61118W        W33444   5.678  11.807  14.339
61119W        W33445   9.465  19.658   4.735
61120W        W33446  44.802  29.038   3.443
61121W        W33447  14.281  40.350   4.360
61122W        W33448  15.221  33.690  11.873
61123W        W33449  37.046  42.977  11.399
61124W        W33450  21.984  37.983   3.767
61125W        W33451  36.995  33.861   0.902
61126W        W33452  22.119  25.536  10.527
61127W        W33453  12.894  44.162  12.481
61128W        W33454  24.728  11.861   4.964
61129W        W33455  24.007   2.067   2.000
61130W        W33456  36.717  40.871  11.901
61131W        W33457  22.185  27.651  13.356
61132W        W33458  11.432  14.341  10.799
61133W        W33459  38.422   4.097  10.886
61134W        W33460  32.172  25.550  11.268
61135W        W33461  42.565  14.173  11.695
61136W        W33462  29.569  15.811  13.430
61137W        W33463   0.576  28.169  14.802
61138W        W33464  25.336  36.322   4.993
61139W        W33465  16.240  25.630  14.503
61140W        W33466  39.496  32.489  11.406
61141W        W33467  20.061  23.237  10.629
61142W        W33468  42.360  19.160   4.242
61143W        W33469  37.949   4.827  11.156
61144W        W33470  29.261  26.004  13.584
61145W        W33471  24.616  35.023  14.933
61146W        W33472  40.931  29.273   1.513
61147W        W33473  15.827  38.994  14.889
61148W        W33474  20.944  10.814  11.115
61149W        W33475  31.435  31.876  14.327
61150W        W33476   7.312  14.297   4.088
61151W        W33477   3.774  42.085  14.342
61152W        W33478  37.470  40.011   2.909
61153W        W33479  18.350  30.585   0.330
61154W        W33480  20.545  20.021  14.378
61155W        W33481  44.851  35.618   3.379
61156W        W33482  17.506  15.859   0.570
61157W        W33483   6.920  25.999   3.151
61158W        W33484  11.281   0.852  11.280
61159W        W33485  42.497   3.104  11.511
61160W        W33486  33.682   2.993  12.953
61161W        W33487   1.829   5.488  13.791
61162W        W33488  13.113   1.684  11.637
61163W        W33489  19.278  44.942  10.638
61164W        W33490  36.528  39.804  13.564
61165W        W33491  23.231  22.460  13.971
61166W        W33492   6.889  26.049  12.935
61167W        W33493  34.104   4.420   4.027
61168W        W33494   6.440  23.510   3.186
61169W        W33495   5.431  29.033  11.493
61170W        W33496   9.867  23.639  12.495
61171W        W33497  27.738   8.687  11.041
61172W        W33498  28.130  10.105  13.109
61173W        W33499   8.432  35.101  11.690
61174W        W33500   1.758  24.877   3.708
61175W        W33501  44.902  15.645   3.016
61176W        W33502  43.863   4.524   4.990
61177W        W33503   3.641  10.362   3.658
61178W        W33504  20.656  25.701   3.742
61179W        W33505   7.487  26.107  10.633
61180W        W33506  19.686  17.952  12.021
61181W        W33507  25.224  19.220  11.112
61182W        W33508  27.398  23.251  12.939
61183W        W33509  20.943  36.450  11.113
61184W        W33510  18.345  19.224   4.175
61185W        W33511  16.268  22.804   1.449
61186W        W33512  21.894  11.659  11.456
61187W        W33513  30.062  40.791  11.588
61188W        W33514  41.415  24.675   3.590
61189W        W33515  32.300  16.596   0.420
61190W        W33516   0.992  15.610  10.811
61191W        W33517  30.660   7.706  10.468
61192W        W33518  34.818   1.338   2.917
61193W        W33519  24.549   8.249  13.050
61194W        W33520  40.763  14.677  11.965
61195W        W33521   8.698  34.789  14.964
61196W        W33522  13.937  36.659   4.982
61197W        W33523   6.418   6.242   3.307
61198W        W33524  43.558  13.191  14.917
61199W        W33525  18.267  39.603   3.431
61200W        W33526  24.417  12.014  13.306
61201W        W33527  40.985  41.037  14.455
61202W        W33528  22.455  33.244   2.852
61203W        W33529  21.206  37.979  14.626
61204W        W33530   9.966   6.169  13.471
61205W        W33531  18.814  28.582   2.848
61206W        W33532   5.103  32.711   0.253
61207W        W33533  40.925   7.179   3.278
61208W        W33534  17.301  36.564   0.952
61209W        W33535  14.715  28.623   4.618
61210W        W33536  27.806   0.954   0.524
61211W        W33537  35.745  11.425   9.811
61212W        W33538  32.086  40.018   1.118
61213W        W33539  29.649   6.669  12.486
61214W        W33540   5.972  26.638  14.529
61215W        W33541  42.848  24.108  13.486
61216W        W33542   6.657  15.726  13.824
61217W        W33543  11.250  11.820   1.973
61218W        W33544  10.405   3.992  10.322
61219W        W33545  34.950  39.516   3.390
61220W        W33546  13.126   9.661   1.709
61221W        W33547  42.489  30.424  13.924
61222W        W33548   0.906  40.833  12.649
61223W        W33549   7.356  11.106   0.781
61224W        W33550  31.420   5.729   4.565
61225W        W33551  18.774   5.642   3.740
61226W        W33552   0.400  20.699   1.010
61227W        W33553  22.492  33.068  11.119
61228W        W33554   8.273  33.637   2.796
61229W        W33555   7.958  24.499   1.263
61230W        W33556  44.393  36.095  14.896
61231W        W33557  25.333  38.482  14.956
61232W        W33558   2.390  40.273  13.330
61233W        W33559  24.393  44.212  11.629
61234W        W33560  22.709  15.715  13.782
61235W        W33561  24.733  35.293  14.496
61236W        W33562  29.094  29.380  11.483
61237W        W33563   4.947   8.158  12.677
61238W        W33564  27.153  41.163  13.520
61239W        W33565  14.760  42.972  10.700
61240W        W33566  31.838  22.770  12.085
61241W        W33567   0.420  39.080  12.453
61242W        W33568  11.844   7.635  11.942
61243W        W33569  39.324  27.013   3.224
61244W        W33570  18.358   1.829   3.815
61245W        W33571  17.386   2.936  11.685
61246W        W33572  37.892  15.273  13.836
61247W        W33573  43.209  36.126   3.318
61248W        W33574  13.516  38.988   2.181
61249W        W33575   2.207  12.670  14.927
61250W        W33576  25.932  41.515  13.309
61251W        W33577  26.729  18.756   0.932
61252W        W33578  14.308  38.913  12.496
61253W        W33579  26.696  38.377   1.037
61254W        W33580  30.263  38.180  12.450
61255W        W33581  39.687   8.536  13.427
61256W        W33582  13.070  11.158   0.795
61257W        W33583  39.502  31.624   0.375
61258W        W33584   3.266   9.533  13.314
61259W        W33585   0.245  41.144   0.833
61260W        W33586  20.643  37.289  14.865
61261W        W33587   6.558   4.260   4.776
61262W        W33588  30.810  33.460  13.198
61263W        W33589  15.395  11.316  13.771
61264W        W33590  10.716  39.552  12.628
61265W        W33591   8.320   0.996  12.445
61266W        W33592  14.577  28.850   3.114
61267W        W33593  23.986  13.308   1.580
61268W        W33594   1.797   1.685  11.445
61269W        W33595  33.330  33.355   5.014
61270W        W33596   7.717  34.611  14.730
61271W        W33597   5.265  26.086   4.231
61272W        W33598  31.576  41.807  11.681
61273W        W33599  34.986  19.724  14.794
61274W        W33600  33.441   6.729   4.966
61275W        W33601   1.796  21.509   2.810
61276W        W33602  36.455  29.880  10.742
61277W        W33603  31.181  39.978  12.757
61278W        W33604  38.455  11.324   0.228
61279W        W33605  42.552  44.552   2.783
61280W        W33606  16.007  28.508  10.349
61281W        W33607  36.318  36.933   2.836
61282W        W33608  22.517  30.985   2.885
61283W        W33609  21.737  27.605   3.124
61284W        W33610  31.092  27.480   1.736
61285W        W33611  13.425  29.460   1.794
61286W        W33612  13.136   0.178  13.570
61287W        W33613  19.495  23.612  11.192
61288W        W33614  33.887  19.798   0.465
61289W        W33615  13.115  29.892   1.829
61290W        W33616  15.303  37.436   2.781
61291W        W33617   6.837  36.301   3.223
61292W        W33618  22.225   2.251   1.425
61293W        W33619  35.312  17.161  13.341
61294W        W33620  22.645  11.517   1.658
61295W        W33621  37.131  19.813  10.776
61296W        W33622  42.313  31.217   2.324
61297W        W33623   8.526   1.222   1.473
61298W        W33624  32.886  35.723   2.342
61299W        W33625  40.869   9.396   0.643
61300W        W33626   2.932  18.178  10.725
61301W        W33627  13.624  18.394  12.800
61302W        W33628  23.519  10.819   0.811
61303W        W33629  41.043   4.732   4.870
61304W        W33630  33.009  14.001  11.926
61305W        W33631   6.722  27.582  13.047
61306W        W33632  18.778  27.399   1.873
61307W        W33633  16.504  27.023  12.438
61308W        W33634   0.456  40.458  14.395
61309W        W33635  33.611  39.703   1.938
61310W        W33636  20.025  26.668   3.270
61311W        W33637   4.889   4.172  10.057
61312W        W33638  36.802  39.651  11.903
61313W        W33639  27.338  29.683   2.285
61314W        W33640  31.147  44.272   1.915
61315W        W33641  23.769  21.981   1.329
61316W        W33642  36.483  42.994  14.348
61317W        W33643  23.543  23.179   1.905
61318W        W33644   4.570  11.525   5.456
61319W        W33645  27.191  23.618   1.877
61320W        W33646  24.406  18.584  12.649
61321W        W33647  17.032  18.626   1.853
61322W        W33648  35.754  27.506   0.286
61323W        W33649  28.870   6.674   1.474
61324W        W33650  36.911  43.560   2.302
61325W        W33651  30.950   0.431  13.478
61326W        W33652   7.792  14.211   3.237
61327W        W33653  14.276   4.140  12.110
61328W        W33654  29.222  38.897   3.401
61329W        W33655  34.412  20.071  11.638
61330W        W33656  37.827  24.645   3.183
61331W        W33657   7.909  36.780  13.323
61332W        W33658  31.053  24.453   1.226
61333W        W33659  13.936  26.969  10.588
61334W        W33660   6.474  41.321   3.313
61335W        W33661  33.978  33.741  10.214
61336W        W33662  25.259  43.171  13.145
61337W        W33663  23.000  41.281   2.312
61338W        W33664  15.669  42.882   3.812
61339W        W33665  17.596  19.988   4.064
61340W        W33666  35.719  27.119   1.920
61341W        W33667   2.907  10.074   2.846
61342W        W33668  16.170   5.163  10.742
61343W        W33669  25.505   3.699   4.144
61344W        W33670   7.421  23.112   2.786
61345W        W33671  39.716  14.240   1.602
61346W        W33672  22.126  32.702  10.993
61347W        W33673   9.598  38.380  14.921
61348W        W33674   5.250  14.102   2.417
61349W        W33675  16.553  27.106   1.810
61350W        W33676  21.559   5.402   1.768
61351W        W33677  41.461  22.004  10.688
61352W        W33678   6.302   2.762   1.392
61353W        W33679  32.724  41.522   2.227
61354W        W33680   7.900  30.691  14.709
61355W        W33681  27.613   3.781   1.678
61356W        W33682  35.398  29.182  14.955
61357W        W33683  21.989  22.505  12.975
61358W        W33684  30.046  14.322   4.146
61359W        W33685  18.677   8.833  10.835
61360W        W33686  43.947  19.721   4.640
61361W        W33687  31.044  37.585  12.481
61362W        W33688  34.758  35.838   4.452
61363W        W33689  25.947  36.502   2.847
61364W        W33690   6.267  13.915  13.749
61365W        W33691  27.967  18.107  14.328
61366W        W33692  21.027  11.368   4.596
61367W        W33693   9.910  36.347  14.513
61368W        W33694   8.813  39.362   4.604
61369W        W33695  16.032  13.211  13.506
61370W        W33696  32.852  26.241   3.300
61371W        W33697  13.667  13.245   1.230
61372W        W33698  43.312  38.345  13.861
61373W        W33699  19.495   2.281  14.941
61374W        W33700   7.855  30.016  13.440
61375W        W33701   6.679   0.291  10.945
61376W        W33702  37.394  12.958  11.175
61377W        W33703  14.630  13.804  12.000
61378W        W33704  22.500  39.081  12.727
61379W        W33705  12.140   2.377   4.596
61380W        W33706  10.672  25.755  12.639
61381W        W33707  42.991  23.973   2.707
61382W        W33708  44.249  31.993  14.932
61383W        W33709   4.444  11.248  14.434
61384W        W33710  37.995  43.238  14.853
61385W        W33711  24.457  36.633  10.396
61386W        W33712  37.274  42.772  11.830
61387W        W33713  34.614   3.652   1.030
61388W        W33714   3.514  25.452  13.862
61389W        W33715  29.813  21.304  10.198
61390W        W33716  42.064  18.136  13.790
61391W        W33717  32.478   1.205  13.174
61392W        W33718  36.545  40.851   0.684
61393W        W33719  21.923  25.155   4.079
61394W        W33720  12.815  37.608   4.142
61395W        W33721  39.066  34.467  12.916
61396W        W33722  37.101  21.528  14.670
61397W        W33723  11.741  44.269  11.239
61398W        W33724   9.477  42.693  11.130
61399W        W33725   7.238  15.167  13.338
61400W        W33726  12.778  11.054   0.276
61401W        W33727  11.821  41.645   0.991
61402W        W33728  29.225  42.680  12.859
61403W        W33729  39.506  18.156   3.331
61404W        W33730  15.754  36.930   2.240
61405W        W33731   3.934  31.777  11.139
61406W        W33732   6.234  21.822   4.723
61407W        W33733  19.741  43.601  13.049
61408W        W33734  35.839   7.104   1.312
61409W        W33735   0.493  36.607   2.339
61410W        W33736   1.862  32.067   0.878
61411W        W33737   5.949  11.687  13.294
61412W        W33738  37.785  22.920  10.988
61413W        W33739   3.394  18.551   1.956
61414W        W33740  13.929  35.615   3.547
61415W        W33741  25.570  16.317   1.240
61416W        W33742  18.206  21.994   3.753
61417W        W33743  24.683   3.567  13.992
61418W        W33744  12.524   6.798  13.025
61419W        W33745   5.787  12.851   4.091
61420W        W33746  16.220  29.109   3.254
61421W        W33747  28.307  44.706  13.820
61422W        W33748  36.984   2.454  14.008
61423W        W33749  15.258  37.495  12.022
61424W        W33750  21.600  14.119  13.035
61425W        W33751  17.706  14.692   3.410
61426W        W33752   0.722  19.712  11.635
61427W        W33753  41.902   3.951   3.213
61428W        W33754  39.666   8.786   1.151
61429W        W33755  41.182  37.127   2.553
61430W        W33756  38.399   2.007   4.812
61431W        W33757  20.405  39.922   0.260
61432W        W33758  23.042  18.775  12.116
61433W        W33759  23.265  41.792   5.019
61434W        W33760   7.913  30.448   1.554
61435W        W33761  30.633  18.008   3.287
61436W        W33762   2.459  13.900  14.372
61437W        W33763  28.950  27.147  12.925
61438W        W33764  32.230  15.309   3.376
61439W        W33765  21.271  11.731   0.965
61440W        W33766  28.202   1.410   2.949
61441W        W33767  39.065   3.959  14.762
61442W        W33768  18.735  34.004  10.365
61443W        W33769   1.272  28.586  11.589
61444W        W33770  19.016  43.732  13.575
61445W        W33771   6.729  16.800  11.908
61446W        W33772  16.951  20.613  13.744
61447W        W33773  23.545  16.763  13.867
61448W        W33774  17.524  11.105  12.928
61449W        W33775  19.230  39.412   1.638
61450W        W33776  32.396  16.387  14.948
61451W        W33777  38.844  41.972   2.218
61452W        W33778   5.317  15.930  14.990
61453W        W33779   4.077   2.024   3.757
61454W        W33780  38.189  20.780  11.381
61455W        W33781   7.997  26.688   0.824
61456W        W33782   2.427  32.000  12.056
61457W        W33783   6.228  18.027  11.185
61458W        W33784  38.941   1.280  12.582
61459W        W33785  29.291  30.955  10.530
61460W        W33786  29.430  14.832  10.790
61461W        W33787  13.612  20.453  11.600
61462W        W33788  44.873  11.810  12.189
61463W        W33789   8.727   0.573  12.122
61464W        W33790  36.560  14.352   0.842
61465W        W33791  14.365  31.618   0.236
61466W        W33792  38.104  19.322   2.725
61467W        W33793  44.780  28.130  12.147
61468W        W33794   7.121   7.434   4.030
61469W        W33795   7.758  10.938  14.370
61470W        W33796  30.338  29.989  10.770
61471W        W33797  21.958  25.623   4.371
61472W        W33798  15.860   7.835  13.414
61473W        W33799  40.028  25.685   1.934
61474W        W33800   7.822  24.191  14.800
61475W        W33801  27.269  23.602   2.806
61476W        W33802  34.816  44.199   1.366
61477W        W33803  41.812   7.116  12.506
61478W        W33804  20.952  11.520   2.282
61479W        W33805   6.282  35.123  12.430
61480W        W33806  31.594   1.752  14.026
61481W        W33807  21.713  41.785  10.712
61482W        W33808  16.071  13.208   3.884
61483W        W33809  16.695  43.760  11.570
61484W        W33810  12.624  19.513   1.619
61485W        W33811   5.600  13.378  12.519
61486W        W33812   3.884   2.648   1.283
61487W        W33813  23.119   3.940  10.607
61488W        W33814  41.442  19.689   4.267
61489W        W33815  11.648  39.947   4.364
61490W        W33816  29.092  33.418  11.189
61491W        W33817  26.964   7.317  12.441
61492W        W33818  36.526  16.931   3.770
61493W        W33819  43.735  37.336  14.596
61494W        W33820  32.794  15.887   2.679
61495W        W33821  37.923  39.154   1.741
61496W        W33822   3.602  31.239   4.004
61497W        W33823  11.601  12.628   3.009
61498W        W33824  10.805   2.210  13.114
61499W        W33825  43.719  28.946  10.142
61500W        W33826  36.332  43.800   2.863
61501W        W33827  14.218  30.446   4.666
61502W        W33828  34.704  20.116   0.495
61503W        W33829  13.659  32.973   3.116
61504W        W33830  40.014  25.608  12.143
61505W        W33831  42.070   5.901   3.838
61506W        W33832  43.488  37.824   4.579
61507W        W33833  29.509   9.164   2.459
61508W        W33834   4.769   7.501  13.373
61509W        W33835  20.700  18.286   2.528
61510W        W33836  39.541  22.259   4.633
61511W        W33837  34.791   6.796  13.378
61512W        W33838  32.478  33.058  14.326
61513W        W33839  13.135  17.584   4.646
61514W        W33840   4.293  23.262  12.350
61515W        W33841  12.736  25.592   3.902
61516W        W33842  39.090  18.362  14.823
61517W        W33843  41.424  38.347   0.936
61518W        W33844   2.708   4.918  11.469
61519W        W33845  35.200  12.049  14.629
61520W        W33846  16.722  18.923  12.424
61521W        W33847   8.344  24.012   0.509
61522W        W33848  25.537  14.772  10.619
61523W        W33849  23.942  38.765  13.875
61524W        W33850  18.238   3.702  13.970
61525W        W33851  26.288   6.047   1.273
61526W        W33852   6.292  18.856  13.342
61527W        W33853  21.986  14.455   2.992
61528W        W33854  27.708  35.909  11.094
61529W        W33855  41.449   4.241   3.325
61530W        W33856  18.819  36.396   2.827
61531W        W33857   7.743  21.294  13.397
61532W        W33858  23.542  42.270   0.719
61533W        W33859  26.645  40.708   3.247
61534W        W33860  14.980  35.615  12.144
61535W        W33861  26.176  10.370  14.870
61536W        W33862   5.617   7.374  12.451
61537W        W33863  23.601  42.343   2.303
61538W        W33864  30.938  14.649   0.909
61539W        W33865  37.825   7.901  12.975
61540W        W33866  30.001   1.223   2.791
61541W        W33867  39.268  30.104   3.792
61542W        W33868  19.025  22.066  13.112
61543W        W33869   7.496  12.660  10.704
61544W        W33870  11.779   1.653   0.972
61545W        W33871   3.598  36.353  12.438
61546W        W33872  21.995  12.885  12.201
61547W        W33873  23.581  10.395  10.553
61548W        W33874  26.033  14.314  11.114
61549W        W33875  44.795  44.207   0.664
61550W        W33876  40.431  30.970   1.768
61551W        W33877  22.129   8.458  12.355
61552W        W33878  33.026  30.075  13.109
61553W        W33879  14.169  31.659   0.699
61554W        W33880  16.279  22.754   0.121
61555W        W33881  33.231   2.905  13.818
61556W        W33882  26.252   2.881   0.457
61557W        W33883  30.343  42.796  13.866
61558W        W33884  33.971  26.625  10.476
61559W        W33885  25.028  34.140  13.267
61560W        W33886  14.545  41.022   2.352
61561W        W33887  26.599  30.620   2.853
61562W        W33888  43.899  19.025  12.487
61563W        W33889   4.474   0.837   0.320
61564W        W33890  39.921  24.703  10.705
61565W        W33891   2.682  19.780   3.995
61566W        W33892   2.140  24.586   5.595
61567W        W33893  16.094  32.509   0.369
61568W        W33894  10.831  26.225  13.491
61569W        W33895  11.353  39.402  13.607
61570W        W33896  32.056  23.427   2.841
61571W        W33897  35.955   3.514   1.396
61572W        W33898  12.578  18.328  14.893
61573W        W33899  14.683   9.899   3.802
61574W        W33900   2.501  33.520  11.118
61575W        W33901   6.481  20.439   1.367
61576W        W33902  18.707  26.921  14.232
61577W        W33903  44.731  19.486  11.087
61578W        W33904  29.669   2.970  13.312
61579W        W33905  25.720  11.735  13.487
61580W        W33906  20.979   5.185   3.239
61581W        W33907   3.920   9.241  14.549
61582W        W33908  26.281  35.027  11.848
61583W        W33909  16.200  41.765  14.903
61584W        W33910  34.679   4.130  12.030
61585W        W33911  21.827   9.239   3.779
61586W        W33912  25.562  29.149  11.503
61587W        W33913   1.007   3.781  11.247
61588W        W33914  20.819  39.438  12.614
61589W        W33915  30.582  43.963   1.274
61590W        W33916  33.161  34.155   5.454
61591W        W33917   2.263   2.021  14.544
61592W        W33918  37.898   9.802  12.571
61593W        W33919  14.924   5.928   3.619
61594W        W33920   6.733  27.939   1.162
61595W        W33921   3.718  38.048  13.845
61596W        W33922  27.520  11.934   4.596
61597W        W33923  16.071  21.594  13.882
61598W        W33924   1.683  19.953  12.019
61599W        W33925  32.075  34.378   0.190
61600W        W33926  20.176  27.478  11.555
61601W        W33927   0.962  34.415  11.694
61602W        W33928  31.805  32.405   3.347
61603W        W33929  31.126  12.568   1.723
61604W        W33930   1.229   9.255   4.101
61605W        W33931  15.827  33.559   1.420
61606W        W33932   5.955   6.919   0.866
61607W        W33933  38.112  13.859   0.395
61608W        W33934   6.185  25.107  14.838
61609W        W33935  42.865  28.007   4.851
61610W        W33936  19.812  20.441   4.510
61611W        W33937  20.908  13.782   3.499
61612W        W33938   6.440  42.977  12.606
61613W        W33939  24.124  21.954  14.120
61614W        W33940  44.840  10.401  12.340
61615W        W33941   2.351  10.645   4.456
61616W        W33942  21.314  18.545   0.859
61617W        W33943  34.748  11.745  12.549
61618W        W33944  28.509   4.004  12.385
61619W        W33945  13.330  13.821   0.463
61620W        W33946  42.357  11.173  13.328
61621W        W33947   2.495  19.030   0.275
61622W        W33948  36.788  20.417   4.347
61623W        W33949  10.598  43.234   4.138
61624W        W33950  15.320   4.185  11.450
61625W        W33951  37.360  13.216   0.681
61626W        W33952   3.391   7.234  14.344
61627W        W33953  30.014   1.236   4.262
61628W        W33954  14.780  21.216   2.414
61629W        W33955  17.248  37.013   3.215
61630W        W33956  24.462   3.140  11.488
61631W        W33957   5.044  39.371   2.618
61632W        W33958  25.156  27.699  14.384
61633W        W33959  31.196   0.835  13.760
61634W        W33960  36.091  31.719   5.019
61635W        W33961  36.539  16.537   0.453
61636W        W33962   1.375   2.535   4.273
61637W        W33963   6.340  16.562  12.150
61638W        W33964  22.637  28.677   1.092
61639W        W33965   9.665  26.487   2.858
61640W        W33966   6.144  25.897   4.176
61641W        W33967  44.415  42.526  14.953
61642W        W33968  43.700  24.516   3.711
61643W        W33969   8.143  19.639   4.149
61644W        W33970  25.684  29.888  13.521
61645W        W33971   8.624  35.370   1.687
61646W        W33972  35.404  40.856  13.209
61647W        W33973  28.635  31.283   2.439
61648W        W33974  28.770  41.053  11.956
61649W        W33975  21.963  39.566   2.868
61650W        W33976  37.509  38.589   2.372
61651W        W33977   6.019   4.918   0.106
61652W        W33978  30.301  34.552  11.524
61653W        W33979  19.233  17.105   0.693
61654W        W33980  42.918  11.632   0.815
61655W        W33981  39.522   3.998  14.548
61656W        W33982  10.811  24.918   4.706
61657W        W33983   4.141   4.921  11.466
61658W        W33984  20.399   9.275   4.721
61659W        W33985  26.157   5.570   1.370
61660W        W33986  18.676  42.434  13.503
61661W        W33987  38.056  17.930  11.080
61662W        W33988  30.973  26.469  13.395
61663W        W33989  16.000  44.874   2.344
61664W        W33990  40.913  41.976   0.691
61665W        W33991  15.561  13.328   3.309
61666W        W33992  29.483  12.808  12.477
61667W        W33993   1.975  14.261   2.912
61668W        W33994  19.984  30.995   4.086
61669W        W33995  43.619   8.104  14.474
61670W        W33996   5.708  10.480  14.397
61671W        W33997   1.364  37.032  11.380
61672W        W33998  31.471  15.750   2.613
61673W        W33999  36.215  25.250   0.924
61674W        W34000  44.310  40.796   0.614
61675W        W34001  35.190  29.716  10.671
61676W        W34002  37.587  15.764  12.524
61677W        W34003  27.589  12.605  11.136
61678W        W34004   8.588  35.397   2.557
61679W        W34005  20.251  35.410   2.333
61680W        W34006   3.207  31.090  12.468
61681W        W34007   0.253  12.361   3.727
61682W        W34008   4.108  40.435  14.446
61683W        W34009  11.380  36.313   3.387
61684W        W34010  35.982  38.817   1.985
61685W        W34011  17.612   4.380  14.030
61686W        W34012  37.821  39.465   4.017
61687W        W34013  42.554  11.807   1.794
61688W        W34014   7.377   7.562  10.934
61689W        W34015   2.591   8.659  13.838
61690W        W34016  43.469  39.262   0.362
61691W        W34017   6.480  44.452  10.661
61692W        W34018  15.101   6.044  13.360
61693W        W34019   0.413  18.373  13.862
61694W        W34020  25.696   9.328  11.691
61695W        W34021  26.629   3.563  12.403
61696W        W34022  34.686  36.867  11.248
61697W        W34023  33.126  42.308   2.341
61698W        W34024  29.582   1.504  13.513
61699W        W34025  28.934  10.748  11.647
61700W        W34026  15.318  11.461  10.986
61701W        W34027  37.351  16.735   1.012
61702W        W34028  16.303  22.144  11.551
61703W        W34029  36.396   3.605   1.093
61704W        W34030  25.748  39.895   3.775
61705W        W34031  14.958  35.375   3.783
61706W        W34032  18.539  31.011   4.443
61707W        W34033  38.693  11.794  12.983
61708W        W34034  25.680  17.235  14.903
61709W        W34035  23.028  28.626   4.682
61710W        W34036  40.986  38.567   0.767
61711W        W34037   9.596  36.925   3.132
61712W        W34038  17.177  10.913   0.333
61713W        W34039  38.026  27.427  12.020
61714W        W34040   5.941  26.123   0.426
61715W        W34041  25.244   7.284  14.789
61716W        W34042  17.230  17.229  12.834
61717W        W34043  25.735  39.488   1.334
61718W        W34044  34.158  21.764  14.220
61719W        W34045  40.027  27.890  12.632
61720W        W34046   9.355  41.483  14.101
61721W        W34047  41.953  27.932   0.346
61722W        W34048  25.211  19.373  13.482
61723W        W34049  44.745  26.217  11.069
61724W        W34050  27.512   1.864   1.511
61725W        W34051  30.473  15.029   4.048
61726W        W34052  26.452  32.521   0.437
61727W        W34053  35.384  38.581  13.645
61728W        W34054   2.856  19.347   2.917
61729W        W34055  29.883   7.079  12.711
61730W        W34056  24.908  18.085   1.223
61731W        W34057  39.056  21.143  11.532
61732W        W34058  18.581  40.882   2.173
61733W        W34059  34.846  20.074   1.763
61734W        W34060   3.284   8.416   1.829
61735W        W34061  28.791   1.769  14.568
61736W        W34062  19.217  41.687  14.573
61737W        W34063  22.055  12.152   1.025
61738W        W34064  35.662   7.159   4.255
61739W        W34065  22.365  29.086   1.602
61740W        W34066  33.959  36.837   4.369
61741W        W34067  25.935  37.823   1.443
61742W        W34068  37.418   4.483  12.812
61743W        W34069  32.656   6.594  11.610
61744W        W34070   2.785  25.873  13.840
61745W        W34071  18.177  24.411   0.583
61746W        W34072  10.379  38.481   3.840
61747W        W34073  43.394  30.500   0.807
61748W        W34074  16.618  24.887  11.539
61749W        W34075  16.507   1.797  13.714
61750W        W34076  42.508  10.661   1.747
61751W        W34077  44.478  17.338   1.825
61752W        W34078  11.574  39.529   0.385
61753W        W34079   5.459  42.913  11.071
61754W        W34080  18.869  43.965   0.803
61755W        W34081  17.135  44.297  14.594
61756W        W34082   8.429  40.902   3.577
61757W        W34083  16.010  40.345   1.811
61758W        W34084   6.239  31.683   2.275
61759W        W34085  24.004   8.347   1.107
61760W        W34086  26.285  33.577   3.659
61761W        W34087  26.681  39.533   3.617
61762W        W34088   6.272   1.847  14.548
61763W        W34089  22.561   0.437   4.401
61764W        W34090  14.315   7.676  13.460
61765W        W34091  24.076  17.728  12.218
61766W        W34092   2.216  31.337  13.902
61767W        W34093  21.550  37.546  11.756
61768W        W34094  42.019  31.072  10.580
61769W        W34095  16.625  36.345  14.417
61770W        W34096  27.682  14.584  12.492
61771W        W34097  38.799  17.520   0.006
61772W        W34098  28.086  44.503  11.399
61773W        W34099  12.250  23.910  11.580
61774W        W34100  30.238  39.695   0.450
61775W        W34101  38.342  31.008   1.541
61776W        W34102  29.957  41.017   3.347
61777W        W34103  19.847  19.705   4.751
61778W        W34104  14.271   8.605  13.583
61779W        W34105  40.330  16.209   1.795
61780W        W34106  26.128  14.272  12.079
61781W        W34107   1.205  20.450  13.511
61782W        W34108  14.841  34.832  13.445
61783W        W34109  28.895   7.332  11.550
61784W        W34110   1.489  19.057  11.838
61785W        W34111  20.164  41.494   3.588
61786W        W34112  36.861  18.283   4.120
61787W        W34113  35.802  21.639   1.312
61788W        W34114  38.042  36.891  14.396
61789W        W34115  20.915   5.479   3.676
61790W        W34116  35.561  22.430   2.462
61791W        W34117  20.044   5.364  12.560
61792W        W34118  19.198  10.706  10.662
61793W        W34119  34.455   2.930   1.007
61794W        W34120  40.971  14.074  14.886
61795W        W34121   6.787  34.446   4.387
61796W        W34122  34.980   7.800  11.445
61797W        W34123  37.987  41.639   0.624
61798W        W34124  40.026  14.267   2.614
61799W        W34125   2.833  43.071   2.319
61800W        W34126  18.654   9.270   4.132
61801W        W34127   7.924  30.164   4.586
61802W        W34128  19.589  15.701  12.944
61803W        W34129  10.746  22.162   2.369
61804W        W34130   3.023  21.546  13.783
61805W        W34131   3.164   0.980  12.407
61806W        W34132  26.409  29.052   2.230
61807W        W34133   5.826  13.107   1.942
61808W        W34134  26.442  29.470   4.308
61809W        W34135  38.317  37.465   2.220
61810W        W34136  38.133  39.000  14.861
61811W        W34137  10.477  37.360   3.261
61812W        W34138  23.677  28.728  12.450
61813W        W34139  39.333  20.167   4.423
61814W        W34140  30.247  42.866  14.380
61815W        W34141  20.703   5.514   0.241
61816W        W34142  43.931  17.805  12.581
61817W        W34143  37.941  35.059   0.404
61818W        W34144  12.328  15.885   1.317
61819W        W34145  16.401   3.822  10.754
61820W        W34146   1.008  13.101   2.673
61821W        W34147   0.621   3.341   2.411
61822W        W34148  20.587  20.040   1.639
61823W        W34149  12.352  38.153  13.123
61824W        W34150  37.166  37.905  14.491
61825W        W34151   1.114  44.324  10.372
61826W        W34152  19.959  26.182  10.940
61827W        W34153  38.816  19.975  11.020
61828W        W34154  22.760  44.649  12.989
61829W        W34155  26.493  13.740  12.508
61830W        W34156  37.352  33.497   1.312
61831W        W34157  40.084  25.498   4.639
61832W        W34158   7.887  20.571   3.440
61833W        W34159  12.925  15.729   0.500
61834W        W34160  25.458  23.057  11.605
61835W        W34161  44.879  25.130   3.753
61836W        W34162  39.241  20.110  11.593
61837W        W34163  13.422   5.194  14.293
61838W        W34164   1.317   2.063  14.944
61839W        W34165  14.164  25.543  13.363
61840W        W34166  22.495  35.587   3.664
61841W        W34167  26.268  40.360   1.378
61842W        W34168  31.048   4.700  12.059
61843W        W34169  19.289   0.873  10.785
61844W        W34170  40.355  12.222  12.433
61845W        W34171   6.958  13.883   0.535
61846W        W34172  15.075  13.442   0.762
61847W        W34173  29.787  21.512  12.891
61848W        W34174   6.344  24.863   4.281
61849W        W34175  12.824   2.507  10.699
61850W        W34176  29.881  24.587   1.887
61851W        W34177  29.941  34.338  13.939
61852W        W34178  21.193  42.258   1.629
61853W        W34179   3.810  21.205   0.286
61854W        W34180   2.287   6.189  13.511
61855W        W34181   6.772   1.467  11.486
61856W        W34182  39.683  21.784   4.422
61857W        W34183   6.234   1.722  14.010
61858W        W34184  21.934  14.799   4.832
61859W        W34185  25.567  41.102   4.988
61860W        W34186  22.872  35.124   2.989
61861W        W34187  12.859  29.594   0.950
61862W        W34188  39.317   5.549   0.353
61863W        W34189   5.538   6.318   3.691
61864W        W34190   3.808  18.151   2.001
61865W        W34191   9.153  27.433   0.015
61866W        W34192   2.469   5.447  12.523
61867W        W34193  33.216  30.915  13.982
61868W        W34194  32.646  36.556   1.299
61869W        W34195  29.586  14.339  14.568
61870W        W34196   3.238   8.860   3.251
61871W        W34197  29.641   0.716  11.639
61872W        W34198  14.800  36.147   2.744
61873W        W34199  43.708   5.808  11.496
61874W        W34200  33.876  43.559  13.476
61875W        W34201   3.629  37.450  14.960
61876W        W34202  17.151  33.026   3.235
61877W        W34203  30.949   7.207  10.661
61878W        W34204  24.218  39.861   9.967
61879W        W34205  29.890  24.918   3.723
61880W        W34206  18.043  22.999   2.773
61881W        W34207  36.001  37.470   2.863
61882W        W34208  39.544   2.207   3.229
61883W        W34209  38.999  17.223  12.923
61884W        W34210  34.054  40.718   1.581
61885W        W34211   6.826  29.683   4.060
61886W        W34212   6.844  44.282   3.169
61887W        W34213  23.065  23.485   3.152
61888W        W34214   6.324  40.922  10.730
61889W        W34215   4.584  19.674  14.830
61890W        W34216  10.147  37.980   3.750
61891W        W34217   0.285  29.459   4.873
61892W        W34218  37.286  16.662   0.068
61893W        W34219  43.986  37.990   4.546
61894W        W34220  28.616   1.299  14.690
61895W        W34221   9.731  17.674  14.477
61896W        W34222  29.975   1.968  12.934
61897W        W34223  27.371  42.848   1.304
61898W        W34224   7.814  13.611   1.359
61899W        W34225  23.529  33.073   0.414
61900W        W34226  33.664  14.178  11.177
61901W        W34227  42.747  22.090  13.820
61902W        W34228   5.203   1.717  11.127
61903W        W34229   7.820  41.467  14.275
61904W        W34230   2.765   3.722   5.157
61905W        W34231  17.061  42.565   4.205
61906W        W34232  11.222  42.173   1.319
61907W        W34233  44.786  27.329  14.825
61908W        W34234  40.318  29.945   2.844
61909W        W34235  25.038  27.419   3.710
61910W        W34236  30.546  22.050   2.761
61911W        W34237   0.843  38.870  13.374
61912W        W34238   4.596  24.025  11.550
61913W        W34239  11.191  22.668  11.918
61914W        W34240  16.202  40.530   1.251
61915W        W34241  15.012  20.598  12.310
61916W        W34242  31.481  14.185   2.790
61917W        W34243   6.314  28.605  14.422
61918W        W34244  42.287  44.519   0.387
61919W        W34245  17.972  44.562  11.621
61920W        W34246   9.341  22.545   3.892
61921W        W34247  15.272  31.131   1.206
61922W        W34248  26.388  15.723  11.443
61923W        W34249  37.319  17.365  12.549
61924W        W34250   5.167  38.114   2.324
61925W        W34251  32.571  30.475  10.682
61926W        W34252  29.515  26.119   1.297
61927W        W34253  42.337  14.806   3.717
61928W        W34254  29.192  24.407   0.865
61929W        W34255   4.303  36.860  12.035
61930W        W34256  20.317   6.437  13.439
61931W        W34257   7.749   1.620   4.926
61932W        W34258   4.723  35.289   1.910
61933W        W34259  41.887   4.692   0.918
61934W        W34260   6.813  43.790  12.096
61935W        W34261  36.094   1.767   1.182
61936W        W34262  24.238  39.759  13.924
61937W        W34263  36.499   3.029  11.496
61938W        W34264  34.606  24.037   4.514
61939W        W34265  21.633  14.329   0.573
61940W        W34266   7.148   6.793   4.794
61941W        W34267  19.303   0.394  14.494
61942W        W34268  35.290  39.044   0.407
61943W        W34269  25.024   5.463   4.648
61944W        W34270  23.581   9.321   0.925
61945W        W34271  15.067  28.568  14.494
61946W        W34272   0.708  11.317  12.384
61947W        W34273   4.680  24.188  14.315
61948W        W34274  23.765  30.685  14.475
61949W        W34275   5.321  31.759   2.539
61950W        W34276  22.750  23.179  12.911
61951W        W34277  35.877  25.645   1.149
61952W        W34278  41.342  26.708   0.239
61953W        W34279   6.237   0.174  13.892
61954W        W34280  12.083   1.797  11.620
61955W        W34281  26.278  14.398   2.807
61956W        W34282  22.310  35.878  11.163
61957W        W34283   0.745  36.958  12.376
61958W        W34284  28.748  31.401  14.525
61959W        W34285   7.633  31.658   4.740
61960W        W34286   7.622   2.786  11.212
61961W        W34287   7.233  25.943   2.296
61962W        W34288  18.520  20.671  14.859
61963W        W34289  31.837  11.077  13.446
61964W        W34290  26.973  20.042   1.892
61965W        W34291  11.787  32.333  13.023
61966W        W34292  35.544  38.244  10.643
61967W        W34293  14.782  12.584   2.637
61968W        W34294  32.136  29.507  13.961
61969W        W34295  10.906  25.635   1.700
61970W        W34296  35.526  40.599  14.884
61971W        W34297  22.644  22.068  12.498
61972W        W34298  29.072  20.990   2.579
61973W        W34299   2.385  38.839  13.489
61974W        W34300  19.700  10.629  13.152
61975W        W34301   1.725   4.895   2.722
61976W        W34302   5.116  40.186  14.479
61977W        W34303  16.551  43.459  13.985
61978W        W34304  15.201  38.001  13.527
61979W        W34305  23.899  11.015  12.512
61980W        W34306  15.708  31.966  10.372
61981W        W34307  23.669   2.699   4.040
61982W        W34308   3.230  14.072   0.873
61983W        W34309  41.111   0.268   3.628
61984W        W34310  29.034  13.078  13.386
61985W        W34311  21.156   4.067   0.906
61986W        W34312  27.300  26.807  14.443
61987W        W34313  33.600  12.917   4.969
61988W        W34314  27.606  32.035  14.491
61989W        W34315   0.761  19.141  14.658
61990W        W34316  27.561  44.266  14.922
61991W        W34317  41.950  39.438   3.160
61992W        W34318  29.556  34.309   0.394
61993W        W34319   8.562  31.690   3.760
61994W        W34320   2.828  11.834  12.385
61995W        W34321  18.648   7.081  14.288
61996W        W34322  14.554  30.722  10.378
61997W        W34323  14.307   9.025  13.936
61998W        W34324   3.868  26.602  10.234
61999W        W34325   3.893  40.565  12.756
62000W        W34326  25.016  37.266  10.584
62001W        W34327   8.277  27.801  11.609
62002W        W34328  13.173  25.767  14.979
62003W        W34329   7.130  41.340  12.178
62004W        W34330  32.685  28.938  11.597
62005W        W34331  35.898   0.086  13.006
62006W        W34332  44.429   6.156  11.920
62007W        W34333  36.120   7.375   1.790
62008W        W34334  12.802  26.001  12.001
62009W        W34335  40.770  17.533   3.239
62010W        W34336  24.824  34.805   0.390
62011W        W34337  34.874  16.240  11.578
62012W        W34338  10.774   5.243   4.552
62013W        W34339  35.883  40.927  14.509
62014W        W34340  30.094  27.757  10.539
62015W        W34341   7.868   6.671   0.796
62016W        W34342  18.619  29.582  12.377
62017W        W34343  30.536  42.256  14.954
62018W        W34344  29.507  25.961  10.937
62019W        W34345  17.857  19.042   4.176
62020W        W34346   7.138  38.630   0.281
62021W        W34347  37.034  44.102   0.931
62022W        W34348  37.458  26.844   0.613
62023W        W34349  29.527  38.495   2.828
62024W        W34350   2.427  35.768  12.321
62025W        W34351  28.332   6.327  13.471
62026W        W34352  24.402  28.343   0.605
62027W        W34353  39.780  22.571  13.819
62028W        W34354  14.930  40.402  11.871
62029W        W34355   6.269   8.462  11.605
62030W        W34356   4.740  31.909  13.448
62031W        W34357  37.962  22.158   2.027
62032W        W34358  27.150   8.166   4.101
62033W        W34359  12.912  39.373  13.436
62034W        W34360  13.226  28.745   3.265
62035W        W34361  24.411  41.976  12.168
62036W        W34362  23.125  23.668  11.189
62037W        W34363  23.278  36.978   2.160
62038W        W34364  23.474   1.795   1.371
62039W        W34365  13.542  37.066   0.729
62040W        W34366  16.907  13.046  11.727
62041W        W34367  28.146  43.016   3.225
62042W        W34368  20.563   1.844  10.780
62043W        W34369   7.375  44.367   3.248
62044W        W34370  36.962   8.346  11.712
62045W        W34371   9.332   5.789  12.961
62046W        W34372  13.812   7.746  13.497
62047W        W34373   8.889  36.744  13.483
62048W        W34374  36.293  31.741  13.409
62049W        W34375  10.639   0.071   1.005
62050W        W34376   9.402   9.318  12.457
62051W        W34377   8.276  18.617  14.956
62052W        W34378  36.346   7.835   0.005
62053W        W34379   4.274  17.577  10.713
62054W        W34380  29.592  15.276  11.041
62055W        W34381  23.669  15.606   1.329
62056W        W34382  16.653   6.268  13.529
62057W        W34383  44.558  35.999  14.300
62058W        W34384   9.667  42.568  13.921
62059W        W34385  26.630  22.137  13.708
62060W        W34386   5.996  20.136   1.349
62061W        W34387  43.759  42.373   2.928
62062W        W34388  14.190   9.546  13.839
62063W        W34389  30.178   0.258  13.897
62064W        W34390  23.116  24.604   0.787
62065W        W34391  24.733  19.548  13.547
62066W        W34392   5.760  19.364  13.476
62067W        W34393  14.252  31.638  14.360
62068W        W34394  22.239  11.408   0.943
62069W        W34395  35.297  10.702   3.658
62070W        W34396  15.096   4.860   1.844
62071W        W34397  27.122  19.964  13.343
62072W        W34398  17.358  42.889  10.757
62073W        W34399  26.167  21.448   4.606
62074W        W34400  39.388  43.346  11.930
62075W        W34401  17.328  19.813  11.058
62076W        W34402  16.286  25.563   2.828
62077W        W34403  27.634  17.518  10.829
62078W        W34404  12.745  37.295   3.739
62079W        W34405  40.733  12.275   1.594
62080W        W34406  13.765  39.124   3.163
62081W        W34407  25.582  34.625   0.321
62082W        W34408  20.012  29.258   0.852
62083W        W34409  39.372   6.307   4.213
62084W        W34410  34.862  31.601   3.305
62085W        W34411   2.756  35.364  12.455
62086W        W34412  38.020  26.347  12.006
62087W        W34413  22.271  23.262  12.095
62088W        W34414  28.240   8.170   4.927
62089W        W34415  18.195  24.547   3.214
62090W        W34416  36.363  41.549  10.669
62091W        W34417  14.767  30.618   3.835
62092W        W34418  10.309   0.204  11.108
62093W        W34419   4.230   2.951   3.782
62094W        W34420  23.940  24.149   1.596
62095W        W34421  40.422  11.865   1.610
62096W        W34422  20.005   2.645  11.159
62097W        W34423  18.768  36.919  12.053
62098W        W34424  38.753  15.717  13.924
62099W        W34425  12.273  40.341  13.391
62100W        W34426  17.672  23.667   4.573
62101W        W34427  23.625   6.096   4.159
62102W        W34428  10.329  29.993  13.459
62103W        W34429  32.463  17.801   4.666
62104W        W34430  26.549  36.423   2.108
62105W        W34431   7.778  30.146   1.946
62106W        W34432   0.201  33.099  12.173
62107W        W34433  33.657   5.850   0.280
62108W        W34434  28.683  21.468   4.488
62109W        W34435   4.711  24.943  14.872
62110W        W34436  26.035  20.596   2.993
62111W        W34437  33.341  29.447   1.344
62112W        W34438  22.535  36.124   0.406
62113W        W34439  22.955  22.396  14.407
62114W        W34440  32.413  16.315  12.939
62115W        W34441   6.737  26.111   2.186
62116W        W34442  21.266  10.228  14.991
62117W        W34443  42.971  15.851  13.615
62118W        W34444  14.615  40.436  10.367
62119W        W34445   4.518  36.941   0.674
62120W        W34446   6.611  24.667   2.345
62121W        W34447  26.907  12.131  14.707
62122W        W34448  41.251   5.479  11.104
62123W        W34449   5.885  41.526   2.140
62124W        W34450  28.602   9.256  11.133
62125W        W34451  32.951   2.992  11.828
62126W        W34452   8.820  38.275   1.799
62127W        W34453  25.096  14.572  10.839
62128W        W34454   7.116  21.117   1.338
62129W        W34455  22.207  35.395  11.012
62130W        W34456  10.800  22.374  10.021
62131W        W34457   1.892  10.380   1.618
62132W        W34458  22.173  21.964  11.042
62133W        W34459   5.923   5.386  10.589
62134W        W34460  25.134  21.238  11.122
62135W        W34461  28.460   1.137   4.845
62136W        W34462  31.434  42.426   4.128
62137W        W34463  40.247   5.299   3.187
62138W        W34464  39.375  22.705  14.103
62139W        W34465  25.530  40.926  10.711
62140W        W34466   2.004  33.433  13.495
62141W        W34467  31.899  18.052   2.829
62142W        W34468  23.961  31.108   0.353
62143W        W34469  44.283  39.125  14.194
62144W        W34470  20.519   4.631   2.757
62145W        W34471  11.741  20.253  13.518
62146W        W34472  23.984  43.082   2.765
62147W        W34473  19.015  11.763   4.136
62148W        W34474   3.797  41.500   0.019
62149W        W34475  41.777  15.655  14.285
62150W        W34476  20.563  11.255  14.431
62151W        W34477  29.674  38.901  13.891
62152W        W34478  34.308   0.944  14.370
62153W        W34479  23.085  10.426  12.633
62154W        W34480  34.584  20.576   4.125
62155W        W34481  44.868  29.980  13.821
62156W        W34482  33.833  22.294   5.026
62157W        W34483  31.301  44.472   3.658
62158W        W34484   6.578  12.257   3.932
62159W        W34485  33.241  18.073   0.845
62160W        W34486  13.244  42.588  10.734
62161W        W34487   2.433  24.980  10.008
62162W        W34488   9.766  33.308  11.771
62163W        W34489  10.599  31.633  12.031
62164W        W34490  12.849  24.279   2.214
62165W        W34491  19.157  33.613   1.648
62166W        W34492  42.461  17.827  13.151
62167W        W34493  34.077  40.344  10.716
62168W        W34494  28.756  44.854   4.633
62169W        W34495  20.858   7.804   0.461
62170W        W34496   3.447  21.229  14.913
62171W        W34497  34.066  25.539  13.946
62172W        W34498  19.273  30.426  11.983
62173W        W34499  25.839  42.831   0.615
62174W        W34500  37.889  17.584  14.875
62175W        W34501  30.993  35.318   2.358
62176W        W34502  23.753  18.271  11.126
62177W        W34503  18.292   7.254  13.938
62178W        W34504  39.691   9.687  11.714
62179W        W34505  40.493   4.396  14.292
62180W        W34506  33.319  20.218   1.545
62181W        W34507  27.619  43.794   4.295
62182W        W34508   4.255  12.133   3.287
62183W        W34509  40.417  19.795   2.250
62184W        W34510  15.658  37.775  13.275
62185W        W34511   1.473  13.611   0.901
62186W        W34512  40.878  27.804   1.846
62187W        W34513  22.178  39.990  13.160
62188W        W34514  30.162   9.237  11.130
62189W        W34515  37.413  40.455  12.689
62190W        W34516  22.140  23.675   2.268
62191W        W34517  31.997  35.901   2.773
62192W        W34518  13.607  23.049   1.196
62193W        W34519  44.754  12.656  12.689
62194W        W34520   3.200  17.108   2.501
62195W        W34521  29.174  13.278  12.921
62196W        W34522   6.741  44.525  14.505
62197W        W34523   8.832  44.215  12.693
62198W        W34524  35.372  40.814   0.336
62199W        W34525  35.774  21.261  12.971
62200W        W34526  42.787  33.154   3.170
62201W        W34527  39.529  35.068   0.544
62202W        W34528  43.829   9.606   0.897
62203W        W34529  15.530  23.966   4.842
62204W        W34530  12.858  25.121  13.093
62205W        W34531  18.604  32.112  12.867
62206W        W34532   0.942  40.009  11.927
62207W        W34533  36.851   9.332  10.381
62208W        W34534  12.657  29.240   2.229
62209W        W34535  19.688   2.132   0.732
62210W        W34536   2.382   2.375  14.078
62211W        W34537  34.144  11.608  12.592
62212W        W34538   9.490  30.667  11.102
62213W        W34539  19.622  31.276  11.514
62214W        W34540  40.927   4.640   3.424
62215W        W34541  17.767  44.798   3.663
62216W        W34542   7.226  19.492  12.468
62217W        W34543   2.297  30.322  13.081
62218W        W34544  13.278   6.136   1.433
62219W        W34545   9.298  30.970   3.549
62220W        W34546  40.003  37.518   0.246
62221W        W34547  27.847  17.794   0.761
62222W        W34548  16.059   2.931  14.301
62223W        W34549  11.718  44.346  12.645
62224W        W34550  12.203  16.649   4.295
62225W        W34551  24.571  22.276   2.460
62226W        W34552  37.640  13.390   5.539
62227W        W34553  34.692   4.593  14.105
62228W        W34554  16.352  15.520  14.056
62229W        W34555  11.320  33.980   0.288
62230W        W34556  15.108  27.697  13.326
62231W        W34557  30.429   7.285  10.692
62232W        W34558   5.916  21.846  14.505
62233W        W34559  42.669   3.299  13.361
62234W        W34560  37.871   0.970   3.848
62235W        W34561  33.977  34.540   1.463
62236W        W34562   8.059  26.853   3.066
62237W        W34563  43.896  33.379  14.509
62238W        W34564  42.341  15.700   2.595
62239W        W34565   9.866  41.863   2.706
62240W        W34566  27.454  21.468   2.941
62241W        W34567  23.836  23.663  10.708
62242W        W34568  19.152   4.792  10.915
62243W        W34569  12.860   5.502  11.134
62244W        W34570  40.985  22.692  13.302
62245W        W34571  21.071  42.708   1.870
62246W        W34572  13.287  24.555   3.605
62247W        W34573  34.831  40.528   3.616
62248W        W34574  31.171  35.019  10.085
62249W        W34575   3.289  44.073  11.268
62250W        W34576   8.158   0.302  13.054
62251W        W34577  40.308  37.835  13.506
62252W        W34578   6.156  22.243   0.830
62253W        W34579  27.181  22.782  12.869
62254W        W34580  24.704   6.204   2.291
62255W        W34581  34.168   1.282   3.673
62256W        W34582   7.221  22.886   2.341
62257W        W34583   7.356  35.839  12.955
62258W        W34584  10.268  17.820  13.170
62259W        W34585  33.475  43.260  13.368
62260W        W34586  23.160  32.072   4.503
62261W        W34587  32.596  37.908  13.486
62262W        W34588  40.862  33.363   0.888
62263W        W34589  25.266  19.612  11.461
62264W        W34590  18.623  22.956   1.897
62265W        W34591  43.603  12.130   1.405
62266W        W34592  28.522  33.668  13.468
62267W        W34593  13.567  37.801  11.537
62268W        W34594   0.994   4.726   4.986
62269W        W34595  35.415  33.162  10.287
62270W        W34596  21.608   7.306   3.819
62271W        W34597  27.624  13.190  14.580
62272W        W34598  17.212  39.157  11.456
62273W        W34599  16.028   2.657  13.825
62274W        W34600  32.204  39.864   2.112
62275W        W34601  19.726  13.874  10.565
62276W        W34602  39.225  44.917   3.380
62277W        W34603   9.896   7.841   1.371
62278W        W34604  31.186  41.748  13.019
62279W        W34605  32.353   8.955  11.573
62280W        W34606  33.401  16.339  10.526
62281W        W34607   9.227  21.166   0.334
62282W        W34608  41.569   9.252   2.385
62283W        W34609  22.251   4.151   4.510
62284W        W34610   9.125   2.719  12.181
62285W        W34611  14.893  33.541   3.431
62286W        W34612  41.082  29.579   1.906
62287W        W34613  19.327  19.856   1.018
62288W        W34614  37.110  24.284  12.659
62289W        W34615  42.042  11.235  11.475
62290W        W34616   3.168  30.520   4.373
62291W        W34617  22.374  11.802  12.672
62292W        W34618  22.189  36.381   3.125
62293W        W34619  15.275  11.332  12.941
62294W        W34620  30.420  10.150   5.032
62295W        W34621   3.344  16.483   0.631
62296W        W34622  32.807  35.015   3.369
62297W        W34623  21.128  25.083   1.942
62298W        W34624  18.905  12.797  13.535
62299W        W34625  12.282   6.789  11.287
62300W        W34626  36.533   5.021   4.186
62301W        W34627  13.139  27.111   5.075
62302W        W34628  37.984  38.548   4.571
62303W        W34629  37.788  41.574   2.941
62304W        W34630  38.046  38.991   0.787
62305W        W34631  13.375  11.425  14.773
62306W        W34632  26.223  26.056  13.898
62307W        W34633  13.127  13.358   1.285
62308W        W34634  39.724  37.270   9.744
62309W        W34635  29.042  20.175  13.442
62310W        W34636   6.750  41.559   2.901
62311W        W34637  39.240  18.229  12.995
62312W        W34638  17.474  14.608   3.868
62313W        W34639   6.861  42.279   1.182
62314W        W34640   7.680  38.479  11.431
62315W        W34641  39.418  33.221  10.242
62316W        W34642  27.921  37.789   0.816
62317W        W34643  29.228  11.224  11.448
62318W        W34644   8.892  19.971   4.185
62319W        W34645  16.270  10.229  12.032
62320W        W34646  13.710  23.501  12.350
62321W        W34647  30.992  38.983  13.963
62322W        W34648  21.216  21.541  13.927
62323W        W34649  18.592   6.289  13.853
62324W        W34650  16.671  25.858  11.825
62325W        W34651  21.078  28.936   0.284
62326W        W34652  13.654  32.938  12.915
62327W        W34653   7.152  23.059   3.221
62328W        W34654  29.509  40.340   1.848
62329W        W34655   2.355  34.017  12.874
62330W        W34656   4.681  38.718   1.233
62331W        W34657  43.449  16.334   1.224
62332W        W34658   8.718  33.906   3.136
62333W        W34659  41.505  25.596  12.349
62334W        W34660  32.913  21.088  14.567
62335W        W34661  37.367  43.317  13.425
62336W        W34662   7.287  18.797   4.288
62337W        W34663   0.693  37.295   5.029
62338W        W34664  29.749  44.829  11.215
62339W        W34665  23.763  11.796   2.717
62340W        W34666  41.865  24.721  11.083
62341W        W34667  15.685  38.808  13.393
62342W        W34668  43.742  28.999   4.299
62343W        W34669  11.339  27.340   4.126
62344W        W34670  14.254  37.546  11.220
62345W        W34671  29.485  33.118   0.874
62346W        W34672  40.587  34.926  14.381
62347W        W34673  18.166   4.947  10.583
62348W        W34674  11.776  14.195  14.050
62349W        W34675  15.580  31.697  11.101
62350W        W34676  20.060   9.852  13.839
62351W        W34677   2.577  22.024  14.977
62352W        W34678  16.800   0.284  10.683
62353W        W34679   4.657  33.126   3.800
62354W        W34680  31.191   2.911  11.527
62355W        W34681  37.558  23.659  13.859
62356W        W34682  37.657  24.507   0.236
62357W        W34683  34.609  16.781   2.834
62358W        W34684   6.445   5.198   0.985
62359W        W34685  18.806  36.888   0.173
62360W        W34686   4.020  10.202  13.537
62361W        W34687   7.415  14.230   3.594
62362W        W34688  12.328  42.267  11.474
62363W        W34689   2.603  10.352   3.697
62364W        W34690  16.970  31.756   5.107
62365W        W34691   6.421  25.933  14.360
62366W        W34692  22.541  22.585  11.591
62367W        W34693   4.700  14.081   2.358
62368W        W34694  15.271  40.527   4.568
62369W        W34695   7.440  30.697  12.849
62370W        W34696  23.761  14.722   1.879
62371W        W34697   7.396   1.383  11.088
62372W        W34698  37.438  14.123   3.199
62373W        W34699   4.341  35.840  14.239
62374W        W34700  40.286  26.097   1.517
62375W        W34701   5.900   0.571   3.344
62376W        W34702  18.205  27.021   4.837
62377W        W34703  18.998  34.318   4.847
62378W        W34704  42.531  34.081  13.330
62379W        W34705  29.017  11.799   4.192
62380W        W34706  30.141  30.719  10.330
62381W        W34707  39.101   8.466  12.207
62382W        W34708  34.212  42.346   3.210
62383W        W34709  18.001  33.685  14.405
62384W        W34710   2.284  23.766   4.506
62385W        W34711  33.089   0.012  13.282
62386W        W34712  19.288  14.284  13.806
62387W        W34713   4.970  36.339   2.824
62388W        W34714  14.333  20.506   4.188
62389W        W34715  32.003  34.226   1.493
62390W        W34716  30.175  26.668  12.864
62391W        W34717   2.192  12.230  10.203
62392W        W34718  11.632  27.031  13.723
62393W        W34719  12.612  15.645  14.477
62394W        W34720  34.514  10.183   0.888
62395W        W34721   7.805  29.032   3.446
62396W        W34722   5.579   0.038   4.152
62397W        W34723  35.416  38.416  12.166
62398W        W34724   1.239  34.003   3.675
62399W        W34725  29.078   2.019  14.936
62400W        W34726  17.533  41.255  13.977
62401W        W34727  11.639  25.151   4.460
62402W        W34728  44.611   3.762  10.916
62403W        W34729  31.639  27.462   3.705
62404W        W34730   9.321  17.277  12.139
62405W        W34731   5.643  33.497   0.304
62406W        W34732  20.236  33.148   4.226
62407W        W34733  24.885  18.215  12.006
62408W        W34734  18.151  36.454   0.488
62409W        W34735  18.064   0.926  11.567
62410W        W34736  37.354   4.680  13.284
62411W        W34737  18.733   4.371   4.189
62412W        W34738  43.444  40.481   0.146
62413W        W34739  34.659  39.107  14.873
62414W        W34740  32.347   1.363   1.510
62415W        W34741  11.693  22.775  12.093
62416W        W34742   1.960  41.033  13.538
62417W        W34743  32.617  30.258  12.857
62418W        W34744  14.254   8.886  14.455
62419W        W34745  18.980  23.506  13.078
62420W        W34746   5.485  32.065  14.256
62421W        W34747   0.164  22.894   5.509
62422W        W34748  26.943  20.178   0.421
62423W        W34749   1.343  20.134  10.776
62424W        W34750  12.274   5.423   1.891
62425W        W34751  12.126  31.609  12.945
62426W        W34752  26.957  15.879   0.942
62427W        W34753  25.588  10.955  12.446
62428W        W34754  21.055  34.623   1.739
62429W        W34755   3.958  18.663  13.668
62430W        W34756  27.733  28.203  14.798
62431W        W34757  12.923  19.838  11.147
62432W        W34758  41.486  15.452   2.705
62433W        W34759  36.605  11.813  12.351
62434W        W34760   7.935   2.096  11.560
62435W        W34761  34.793  18.152   2.731
62436W        W34762  18.747  37.593   4.133
62437W        W34763   6.310  40.026  12.893
62438W        W34764  38.835  37.433   1.388
62439W        W34765  23.811  12.594  14.129
62440W        W34766  42.954  23.318   4.561
62441W        W34767  23.149  40.982   0.010
62442W        W34768   1.084  25.116   4.215
62443W        W34769  21.760  26.237   1.667
62444W        W34770  25.205   7.678   0.429
62445W        W34771   7.976  15.632  14.859
62446W        W34772  30.937  13.377  11.999
62447W        W34773  29.985  20.288  12.472
62448W        W34774  39.591  24.948   4.071
62449W        W34775  37.566  15.252  14.246
62450W        W34776  27.408   6.770   1.326
62451W        W34777  20.923  21.540   5.128
62452W        W34778   3.837  18.563   0.832
62453W        W34779  14.139  31.414  14.807
62454W        W34780  37.475  36.549   3.312
62455W        W34781  21.311   7.407  11.216
62456W        W34782  30.048  14.598  13.606
62457W        W34783  32.332  36.890   1.999
62458W        W34784  20.512   0.259  11.991
62459W        W34785  17.758   7.999   2.855
62460W        W34786  19.047  35.108  11.961
62461W        W34787  27.285  25.492   2.664
62462W        W34788  15.946  27.174   0.387
62463W        W34789  23.102  42.893   0.752
62464W        W34790  29.505  30.016   1.911
62465W        W34791  32.921  33.621   4.814
62466W        W34792  41.910   2.708   0.295
62467W        W34793  36.220   6.391  14.938
62468W        W34794   6.776  42.504  10.916
62469W        W34795  18.075  32.494   1.726
62470W        W34796  25.753  14.275   2.215
62471W        W34797   5.349  13.676   4.245
62472W        W34798  32.574  40.322  12.436
62473W        W34799  11.877  26.476  12.952
62474W        W34800  23.702  21.488  12.004
62475W        W34801  10.172  23.524  10.623
62476W        W34802  42.649  28.174  12.434
62477W        W34803  28.711  14.791  12.498
62478W        W34804  20.272   9.045  10.201
62479W        W34805   5.139   5.834  14.947
62480W        W34806   4.848   0.500  12.824
62481W        W34807   8.084  11.842   3.823
62482W        W34808  18.122   8.273   4.096
62483W        W34809   3.334  30.028  14.917
62484W        W34810  15.094  34.760   0.897
62485W        W34811   4.524  36.716   2.892
62486W        W34812   3.666   3.722  14.063
62487W        W34813   6.885  15.738   2.096
62488W        W34814  21.817  35.376  10.704
62489W        W34815  36.896  11.229   3.107
62490W        W34816  11.271  33.912  12.371
62491W        W34817  38.872  31.893  10.500
62492W        W34818  44.982   5.951   3.538
62493W        W34819  26.010  30.636   4.762
62494W        W34820  20.037  28.198   1.718
62495W        W34821  32.123  36.426  14.399
62496W        W34822  36.299  44.480   1.084
62497W        W34823  44.764  29.568   3.636
62498W        W34824  13.316  36.324  13.790
62499W        W34825   9.173  17.269  12.616
62500W        W34826  32.388   4.411   2.816
62501W        W34827  27.913  42.029   4.099
62502W        W34828  28.711   2.900   1.276
62503W        W34829  26.725   8.806  14.381
62504W        W34830  39.336  11.152  14.457
62505W        W34831  41.095  23.440   3.954
62506W        W34832  43.314  26.173   3.262
62507W        W34833  15.566  28.147   2.801
62508W        W34834   2.828  29.175  14.781
62509W        W34835  13.675  38.014  12.152
62510W        W34836  16.663  20.221  12.249
62511W        W34837  12.829  14.923   2.615
62512W        W34838  31.986  33.733  14.029
62513W        W34839  29.502   1.956   2.898
62514W        W34840  17.258   4.231  10.713
62515W        W34841  26.591  16.150  10.689
62516W        W34842   4.282  43.366   0.871
62517W        W34843  44.417  32.171   2.301
62518W        W34844  21.486   4.717   2.758
62519W        W34845  29.534  13.905   2.414
62520W        W34846   7.833  33.852  11.547
62521W        W34847   4.339   3.022   0.673
62522W        W34848  22.481  33.482   1.738
62523W        W34849   5.872  39.424  10.367
62524W        W34850  13.139  18.649   4.479
62525W        W34851  28.089  13.137  10.257
62526W        W34852  44.692  36.478   4.353
62527W        W34853  26.047  11.547   2.310
62528W        W34854  12.218  36.548  14.528
62529W        W34855  18.765   3.197   1.741
62530W        W34856  10.246   4.138  10.788
62531W        W34857  36.321  22.050  11.276
62532W        W34858  35.324  16.676  13.589
62533W        W34859  21.537  34.828  11.528
62534W        W34860   4.646  27.592   2.830
62535W        W34861  11.123  43.447  11.609
62536W        W34862  11.325   2.326   4.152
62537W        W34863  31.915   3.587   5.137
62538W        W34864  34.032  10.212  11.142
62539W        W34865  26.036   5.069  14.078
62540W        W34866   6.311  13.839   3.098
62541W        W34867   3.311  13.286   4.714
62542W        W34868  21.255  32.446  10.477
62543W        W34869  19.747  40.629  11.688
62544W        W34870  29.875  21.193   2.343
62545W        W34871  44.445  28.170   2.771
62546W        W34872  18.237  12.189  12.413
62547W        W34873   2.070  20.279  11.921
62548W        W34874   6.955   2.783  13.342
62549W        W34875  11.500  41.447  13.730
62550W        W34876  28.529  14.319  12.623
62551W        W34877  24.507  13.323   2.332
62552W        W34878  43.999  33.503   2.915
62553W        W34879   4.495  38.261   9.905
62554W        W34880   1.958  13.435   1.857
62555W        W34881   9.568  28.172  14.345
62556W        W34882  29.156  20.533  11.509
62557W        W34883  37.608  36.138   1.008
62558W        W34884  11.865  25.520   0.264
62559W        W34885  16.530   4.999   4.562
62560W        W34886  17.789  30.669   1.772
62561W        W34887   7.395   7.436  11.443
62562W        W34888  10.720  26.230  10.053
62563W        W34889   2.803  23.283  10.686
62564W        W34890  29.940  35.400   4.744
62565W        W34891  16.548   6.046  12.078
62566W        W34892  27.067   9.723  11.059
62567W        W34893  30.180  28.578  13.761
62568W        W34894  14.642   7.310  14.590
62569W        W34895  14.400   2.782   2.308
62570W        W34896  25.568  27.707  11.396
62571W        W34897  27.651  13.397   4.114
62572W        W34898   9.352  24.401   0.246
62573W        W34899  36.841  21.626  11.703
62574W        W34900  28.682  42.738  13.991
62575W        W34901  22.208  42.811   2.240
62576W        W34902  16.833   6.195  10.487
62577W        W34903  22.132  37.875  14.556
62578W        W34904  37.405  35.192   4.548
62579W        W34905  19.641  28.707   2.413
62580W        W34906  11.279  17.080  11.106
62581W        W34907  33.371  21.207  10.620
62582W        W34908  19.024  33.329  10.890
62583W        W34909  17.665  21.581   4.311
62584W        W34910  21.777  19.191   0.169
62585W        W34911   8.286   6.466   4.286
62586W        W34912  13.108  24.099   0.918
62587W        W34913   7.193  27.198  14.899
62588W        W34914  27.826  43.882   0.597
62589W        W34915  43.411  32.484   0.969
62590W        W34916  43.354  33.186  10.758
62591W        W34917  23.348  10.834   1.316
62592W        W34918  39.305  19.129   2.380
62593W        W34919  23.789   3.875   4.712
62594W        W34920  15.570   9.984   2.910
62595W        W34921  16.052  32.092  13.565
62596W        W34922  23.532  27.506   2.721
62597W        W34923  41.230  20.855   3.501
62598W        W34924  26.589  13.022  13.829
62599W        W34925   4.250  36.477  11.500
62600W        W34926  21.159  30.971   4.626
62601W        W34927  28.514  19.682  12.070
62602W        W34928  35.231  38.133   3.574
62603W        W34929  38.877  27.553   2.765
62604W        W34930  40.180  20.163   0.330
62605W        W34931  17.427  34.909   4.230
62606W        W34932  39.934  38.920   3.522
62607W        W34933  39.169  15.999  13.963
62608W        W34934  36.129  41.518  12.963
62609W        W34935  18.391  12.250  14.374
62610W        W34936  27.221  44.496  10.443
62611W        W34937  14.231  26.584  10.377
62612W        W34938  10.729  40.936   4.383
62613W        W34939  27.477   8.943  13.909
62614W        W34940  18.902   6.981   3.048
62615W        W34941   5.209  13.618   1.653
62616W        W34942  34.849  14.596   4.780
62617W        W34943  31.911  37.458   3.644
62618W        W34944  26.208  27.362  14.840
62619W        W34945  30.468  15.792   3.416
62620W        W34946  42.126  34.601  11.428
62621W        W34947  28.634  12.368  12.877
62622W        W34948  35.937   4.832  13.895
62623W        W34949  37.111  41.333  10.513
62624W        W34950  12.817  17.320  12.745
62625W        W34951  18.826  23.025   0.716
62626W        W34952  43.354  32.081   1.692
62627W        W34953  34.427  11.801  11.709
62628W        W34954  40.431   8.830   0.512
62629W        W34955  31.627  27.552  14.050
62630W        W34956  13.798  25.104  14.861
62631W        W34957   4.921  38.732   4.269
62632W        W34958  26.200  36.666  13.387
62633W        W34959  15.770   8.746   0.177
62634W        W34960  17.410  21.526  13.995
62635W        W34961  26.600   0.851   4.147
62636W        W34962   5.584  24.655   2.358
62637W        W34963  39.137  19.454  13.957
62638W        W34964  32.636  28.121   3.267
62639W        W34965  22.968  40.432  10.686
62640W        W34966  32.698  25.338  12.840
62641W        W34967  43.084  28.374  13.928
62642W        W34968  17.532   9.261  11.630
62643W        W34969  31.992  14.616  14.949
62644W        W34970  34.632  39.253   0.543
62645W        W34971  30.206  28.604  13.225
62646W        W34972  44.913   4.181   4.703
62647W        W34973  14.440  11.254  11.266
62648W        W34974   4.588  44.107   0.811
62649W        W34975  30.023   4.509  13.081
62650W        W34976  19.304  26.797   1.154
62651W        W34977  15.538  39.245   2.892
62652W        W34978  44.767   4.705   0.919
62653W        W34979   0.412   7.101  13.892
62654W        W34980  28.973  32.620  12.128
62655W        W34981  34.794   6.388  12.943
62656W        W34982  30.171  39.176   3.562
62657W        W34983   7.721  32.341   0.510
62658W        W34984  34.400  34.111   0.329
62659W        W34985  44.715   9.728   1.867
62660W        W34986  30.578  18.636  14.038
62661W        W34987  22.989  36.295   0.191
62662W        W34988   9.370  37.219   1.299
62663W        W34989   9.366   4.210  14.824
62664W        W34990  11.351  22.165  13.822
62665W        W34991  22.604   2.693  10.714
62666W        W34992  23.942   3.371  12.598
62667W        W34993  38.524  31.327   4.263
62668W        W34994   2.400  29.924   4.416
62669W        W34995  23.252  38.644   4.982
62670W        W34996   3.834  34.512  12.490
62671W        W34997  11.203   8.418   2.870
62672W        W34998  13.979  11.674   2.645
62673W        W34999  16.317  25.634  13.424
62674W        W35000  30.162   3.646  12.051
62675W        W35001  36.086   7.283  11.377
62676W        W35002  30.097  35.600   0.831
62677W        W35003  29.057   6.955   1.075
62678W        W35004  11.616   1.072  12.932
62679W        W35005  35.445  41.105  13.995
62680W        W35006  29.738  26.836   0.036
62681W        W35007  30.564  11.838   2.684
62682W        W35008  34.857  13.191  12.899
62683W        W35009   2.901   4.711   4.134
62684W        W35010   4.920  43.346  12.678
62685W        W35011  27.709  15.744  12.980
62686W        W35012   3.228  43.102   1.882
62687W        W35013  40.267  37.068  12.026
62688W        W35014   6.371  19.268  11.544
62689W        W35015  28.434  40.392  12.492
62690W        W35016  25.870   8.182  12.103
62691W        W35017   2.465   6.488   1.874
62692W        W35018  17.857  17.255  13.194
62693W        W35019  26.851  11.846   1.900
62694W        W35020  24.154   7.902  11.527
62695W        W35021  15.066   7.359  11.184
62696W        W35022  35.538  39.666   2.772
62697W        W35023  39.908  34.909  11.431
62698W        W35024   9.292  18.112  13.027
62699W        W35025  42.734  23.238   2.065
62700W        W35026   2.797  44.342  13.796
62701W        W35027   0.707  26.594   4.208
62702W        W35028   8.655  25.617  12.937
62703W        W35029   6.167   4.311   0.387
62704W        W35030   6.919  28.894   1.262
62705W        W35031   2.386   0.071   4.188
62706W        W35032  30.652  43.386  14.003
62707W        W35033  21.331  19.885   3.730
62708W        W35034  35.794  34.651  11.019
62709W        W35035   4.986  21.658  14.926
62710W        W35036   6.719   9.851  12.481
62711W        W35037  28.947  29.962  14.226
62712W        W35038  20.107  13.378   2.126
62713W        W35039   4.928   8.521   2.771
62714W        W35040  34.039  11.599  11.446
62715W        W35041  18.030  36.624  13.620
62716W        W35042  36.980  35.844   1.180
62717W        W35043   8.371   6.375   2.716
62718W        W35044   0.922  41.678  11.503
62719W        W35045  12.605  26.063   4.129
62720W        W35046   5.189  25.341  12.539
62721W        W35047   8.899  16.348  12.448
62722W        W35048  38.581  44.593   4.757
62723W        W35049   7.709   7.825   2.743
62724W        W35050  12.472  10.622  11.526
62725W        W35051  35.297   2.825  14.146
62726W        W35052  41.990  38.598   3.187
62727W        W35053  38.524  14.131   2.196
62728W        W35054  44.119   3.479  12.023
62729W        W35055  13.527  39.211   5.036
62730W        W35056  17.275  16.090  14.711
62731W        W35057  37.992  25.491   2.688
62732W        W35058  40.813  37.139  12.882
62733W        W35059  14.794  37.009  14.292
62734W        W35060  28.484  27.025  10.434
62735W        W35061  33.837  24.857  14.572
62736W        W35062   7.961  12.702   2.909
62737W        W35063  32.573  28.212  12.902
62738W        W35064  17.081  14.598   1.293
62739W        W35065  31.983  21.266  14.340
62740W        W35066  29.959  35.957  11.250
62741W        W35067   2.409  17.187   0.054
62742W        W35068  27.507  27.671  10.263
62743W        W35069  44.332   4.231   4.690
62744W        W35070  10.184  27.687  12.893
62745W        W35071  19.057  13.674   0.724
62746W        W35072  44.441   9.230   1.424
62747W        W35073   1.339   0.801  13.504
62748W        W35074  27.574  27.913   0.231
62749W        W35075  39.304  18.604   3.155
62750W        W35076   4.339  35.107  11.126
62751W        W35077  31.006  34.069   3.348
62752W        W35078  40.521  33.018   1.731
62753W        W35079  37.337  26.194   2.765
62754W        W35080  36.372  13.869   0.794
62755W        W35081  40.812  40.496  12.023
62756W        W35082  14.875   0.056  10.618
62757W        W35083  42.097   6.389   2.917
62758W        W35084  28.560  29.790   3.605
62759W        W35085  43.397   3.043  13.108
62760W        W35086  41.339  42.802   1.856
62761W        W35087  29.928  29.594   3.216
62762W        W35088  41.961   4.699  11.638
62763W        W35089  16.877  40.478  11.012
62764W        W35090   7.162  15.665   4.477
62765W        W35091   9.475  41.037   0.421
62766W        W35092   7.503   5.199   0.950
62767W        W35093  38.470  29.062   4.301
62768W        W35094  30.049  27.464  12.431
62769W        W35095  12.129  12.665   3.727
62770W        W35096  18.694  14.503  12.421
62771W        W35097  19.544   6.579   4.153
62772W        W35098  24.242   8.684  11.123
62773W        W35099  17.687  43.004   9.933
62774W        W35100   1.703  18.627  11.550
62775W        W35101  34.094  23.536   1.214
62776W        W35102  38.893   2.826  10.622
62777W        W35103   6.269  41.521   1.195
62778W        W35104  23.063   4.238  13.372
62779W        W35105  22.317  41.244  12.862
62780W        W35106   3.349  32.399  13.975
62781W        W35107   5.164  27.031   2.417
62782W        W35108  40.915  24.454   1.783
62783W        W35109  43.999  23.732  14.948
62784W        W35110  35.961  21.230  12.491
62785W        W35111  23.488  14.207   2.722
62786W        W35112  33.484   9.867   3.781
62787W        W35113  33.685  43.446   2.238
62788W        W35114  32.129  44.342  13.802
62789W        W35115   8.449  40.799  10.751
62790W        W35116  37.204  22.009  14.529
62791W        W35117  31.837  13.881  11.134
62792W        W35118  10.643   0.563   0.825
62793W        W35119  35.212  22.287  12.376
62794W        W35120   7.870  29.108  10.723
62795W        W35121  21.530  21.781   0.030
62796W        W35122  22.186  25.103  12.612
62797W        W35123   8.437  37.586   3.347
62798W        W35124  41.817  15.733   0.799
62799W        W35125  35.226  23.446  11.547
62800W        W35126  16.551  25.505  12.984
62801W        W35127  23.630  10.668   1.726
62802W        W35128  42.512  40.567  14.581
62803W        W35129  32.652   9.064  12.959
62804W        W35130  13.647  18.111   0.424
62805W        W35131  42.293  18.282  10.280
62806W        W35132  20.950  29.808   4.197
62807W        W35133   3.140  19.044  13.418
62808W        W35134  13.869   1.240   1.969
62809W        W35135   4.248   6.375  14.860
62810W        W35136  34.344  38.043   1.763
62811W        W35137  22.469  38.807  13.705
62812W        W35138  33.395  33.407  12.905
62813W        W35139  43.675  42.085  13.993
62814W        W35140  21.931  22.161   0.078
62815W        W35141  14.660  22.043   2.883
62816W        W35142   9.151  21.654   3.274
62817W        W35143  15.916  11.560  11.125
62818W        W35144  21.316  23.133  11.003
62819W        W35145  44.520  26.132  11.519
62820W        W35146  22.666   5.122   1.316
62821W        W35147  29.162  22.960   3.905
62822W        W35148  33.157  22.137   2.649
62823W        W35149   6.760  43.842   2.326
62824W        W35150  21.081  28.543  11.842
62825W        W35151  19.215  34.369   2.200
62826W        W35152  43.410  33.849   0.294
62827W        W35153  30.663  42.886   3.107
62828W        W35154   8.065  29.202  11.682
62829W        W35155  40.653  18.054   4.207
62830W        W35156   7.154   9.314   0.373
62831W        W35157  31.264  20.480   4.182
62832W        W35158  34.835   3.172  10.505
62833W        W35159  11.290  18.023   1.292
62834W        W35160  37.863   7.799  14.926
62835W        W35161  14.691  28.125  12.770
62836W        W35162  12.848   7.208  13.853
62837W        W35163   9.293  21.541   0.941
62838W        W35164   9.485  29.379   3.940
62839W        W35165  24.307  20.742  11.561
62840W        W35166  14.422  14.842   1.248
62841W        W35167   4.305  19.214   4.421
62842W        W35168   1.680   3.323   4.487
62843W        W35169  41.470  20.028  13.905
62844W        W35170  34.272  33.165  13.091
62845W        W35171  35.197  39.500   4.297
62846W        W35172   2.027  42.817  13.480
62847W        W35173  38.376  12.174   3.663
62848W        W35174  12.164   7.261   0.731
62849W        W35175  28.195  33.641  13.064
62850W        W35176  42.475   7.170   1.689
62851W        W35177   5.834   9.670   0.313
62852W        W35178  31.019  20.786  10.706
62853W        W35179  17.961   4.913   0.437
62854W        W35180   3.672  18.089   0.962
62855W        W35181  29.832  15.274   2.196
62856W        W35182  37.974   4.556  11.593
62857W        W35183  38.883  25.473   2.545
62858W        W35184  29.548  15.120   4.371
62859W        W35185  12.166  29.133  12.587
62860W        W35186   5.168  16.139   0.458
62861W        W35187  14.197   5.052   0.853
62862W        W35188  27.181  24.389  13.551
62863W        W35189  18.011  25.022   3.314
62864W        W35190   3.754   8.885   3.292
62865W        W35191  14.124   6.431   3.704
62866W        W35192   6.163  16.626  10.894
62867W        W35193  32.368   7.753   0.547
62868W        W35194   6.673  27.463  10.639
62869W        W35195  13.672  27.947   3.297
62870W        W35196  33.300  27.640   4.460
62871W        W35197  34.807  31.386  14.511
62872W        W35198  30.371  18.170  13.894
62873W        W35199  35.814   5.756  11.260
62874W        W35200  27.510  16.216  12.652
62875W        W35201  36.107  41.996  13.171
62876W        W35202   5.964   5.099  11.461
62877W        W35203  28.140  36.000  11.362
62878W        W35204   4.036   7.831   1.490
62879W        W35205   2.440  39.428  14.780
62880W        W35206   2.720  24.204   0.962
62881W        W35207  19.724  15.354   1.936
62882W        W35208  42.310  42.991   4.906
62883W        W35209  27.976  18.575   0.438
62884W        W35210   0.495   8.394   0.776
62885W        W35211  30.420   5.837   4.637
62886W        W35212   8.211  25.803  12.742
62887W        W35213   9.630  33.538   2.371
62888W        W35214   9.906  17.526  11.969
62889W        W35215   2.305  31.411  12.072
62890W        W35216  38.644  43.809   0.325
62891W        W35217  26.105   7.741   0.275
62892W        W35218  43.323  13.253  12.217
62893W        W35219  38.289  35.135   4.462
62894W        W35220  11.769  21.457   1.225
62895W        W35221  34.892  32.998   2.838
62896W        W35222  29.340  26.321  11.300
62897W        W35223  31.092  12.081   1.906
62898W        W35224  14.030   3.440  11.534
62899W        W35225  26.863  34.427  14.462
62900W        W35226  26.179  20.871   1.210
62901W        W35227  12.097  12.479  14.954
62902W        W35228   9.918   4.736   3.759
62903W        W35229  44.940  24.023  14.532
62904W        W35230   2.847  39.734  13.941
62905W        W35231  38.989   1.793  13.528
62906W        W35232  15.153  28.359   4.557
62907W        W35233  20.749  18.604   4.656
62908W        W35234   4.909   1.604  14.557
62909W        W35235  23.707  28.353  11.574
62910W        W35236   2.685  13.186   0.693
62911W        W35237   5.152  41.658  14.133
62912W        W35238  40.611   5.308   2.249
62913W        W35239  25.017  10.736   2.087
62914W        W35240  38.457  27.578  11.670
62915W        W35241  20.071  28.918   4.208
62916W        W35242  30.580  27.019  11.132
62917W        W35243  18.070  25.399   0.885
62918W        W35244   5.666  21.105   1.344
62919W        W35245  20.213  25.405  14.268
62920W        W35246  21.045  21.151   2.315
62921W        W35247   8.141  43.893   2.487
62922W        W35248   1.969   0.326   3.495
62923W        W35249  16.187  16.468  13.828
62924W        W35250  25.584   2.422   1.186
62925W        W35251  37.454  20.527   2.272
62926W        W35252  16.700  15.771  10.637
62927W        W35253   3.753  33.550   9.907
62928W        W35254  33.564   6.566  14.848
62929W        W35255   9.167  36.862   4.279
62930W        W35256  40.881  40.533  14.761
62931W        W35257  36.717  11.228  14.735
62932W        W35258  17.883   8.556  14.854
62933W        W35259  43.264  26.034   4.639
62934W        W35260   4.224  26.989   0.723
62935W        W35261  25.199  16.326  11.270
62936W        W35262   8.898   9.293  12.625
62937W        W35263  43.979   4.387  14.930
62938W        W35264   6.529   5.134  10.208
62939W        W35265  32.376   7.192   4.214
62940W        W35266   0.586  15.755  10.517
62941W        W35267  20.575  23.118   2.891
62942W        W35268  12.384   5.678  11.214
62943W        W35269   4.988   4.538  12.955
62944W        W35270  33.656   7.954  11.934
62945W        W35271  31.010  43.426   2.627
62946W        W35272   4.156  30.027   1.354
62947W        W35273  28.251  35.908   3.110
62948W        W35274   7.565  31.380   1.406
62949W        W35275  19.038  15.670  11.070
62950W        W35276  38.565  36.102   2.846
62951W        W35277  16.410  35.133   4.501
62952W        W35278  15.641  13.413  11.105
62953W        W35279  40.882  19.558  13.404
62954W        W35280  37.281  42.964   4.650
62955W        W35281  23.442   0.647  14.052
62956W        W35282  37.409  18.475   1.887
62957W        W35283  10.392   7.737  11.125
62958W        W35284  18.598  37.860  13.466
62959W        W35285  20.614  40.451   4.870
62960W        W35286  13.816   6.467  12.033
62961W        W35287  16.146  26.490   2.390
62962W        W35288  15.693  14.305  12.992
62963W        W35289  40.153  32.544  12.660
62964W        W35290   0.462  24.969  13.873
62965W        W35291  29.962   9.418  11.567
62966W        W35292  41.922  31.144  11.077
62967W        W35293   2.973  35.137   2.304
62968W        W35294   6.135  38.513   3.834
62969W        W35295  16.346  40.783  11.677
62970W        W35296  39.374  14.148   0.397
62971W        W35297  35.290  24.990   2.411
62972W        W35298  25.945  42.090   1.814
62973W        W35299   3.752   0.911   3.152
62974W        W35300  44.266  13.060   4.418
62975W        W35301  25.616  11.677   3.073
62976W        W35302  28.438  33.564   1.202
62977W        W35303   2.736  25.611  12.664
62978W        W35304  11.208  34.902  14.518
62979W        W35305  26.662   6.312   3.262
62980W        W35306  42.731  41.144  11.214
62981W        W35307  23.804   7.692  13.317
62982W        W35308   9.154  41.495   4.551
62983W        W35309  11.789  14.259   3.336
62984W        W35310  20.204  10.784   0.894
62985W        W35311   1.216  26.142  12.410
62986W        W35312  12.114  16.012  11.081
62987W        W35313  20.106  12.309  14.025
62988W        W35314  27.090  17.703   3.566
62989W        W35315   6.431   4.390   3.314
62990W        W35316  27.522   8.185  14.373
62991W        W35317  20.535   2.634   1.748
62992W        W35318  16.451   9.657   4.103
62993W        W35319  24.662  17.959   0.316
62994W        W35320  26.945   8.959  11.449
62995W        W35321  24.544   6.585  10.795
62996W        W35322   2.757  32.138   1.946
62997W        W35323  22.549   7.468   0.032
62998W        W35324   3.425  31.533  12.668
62999W        W35325  20.462   9.753  11.616
63000W        W35326  21.934  16.953  11.964
63001W        W35327  24.084  12.575  14.559
63002W        W35328  41.718  37.835  13.471
63003W        W35329  19.156  41.806  11.333
63004W        W35330  29.859  18.068  12.587
63005W        W35331  39.546  35.749  11.625
63006W        W35332  33.585  11.609  11.660
63007W        W35333   5.255   8.288  11.764
63008W        W35334   9.117  17.541   1.956
63009W        W35335  15.126  25.599  13.308
63010W        W35336  37.881  32.131  10.197
63011W        W35337  21.014   9.172   1.864
63012W        W35338  14.687  35.878  14.240
63013W        W35339  13.230   1.394   4.113
63014W        W35340  39.117  33.973  13.522
63015W        W35341  21.501  25.258   0.957
63016W        W35342  31.384  36.124  11.865
63017W        W35343   1.485  23.556  14.053
63018W        W35344  16.673  14.557  11.553
63019W        W35345  27.188  32.993  13.666
63020W        W35346  22.164  39.108   9.662
63021W        W35347  16.536   9.792   2.804
63022W        W35348  37.108  13.631  12.996
63023W        W35349  11.301  38.384   0.983
63024W        W35350  14.424  30.515   0.720
63025W        W35351  37.025  22.173   4.579
63026W        W35352   0.481  13.217   1.538
63027W        W35353   9.902  21.141   4.115
63028W        W35354  28.126   6.633  13.835
63029W        W35355  18.053  17.777  13.155
63030W        W35356  33.381  26.316   4.812
63031W        W35357  21.944  38.527   5.033
63032W        W35358  13.610   4.901   1.795
63033W        W35359   1.728  22.193   2.672
63034W        W35360  14.786  22.285  12.927
63035W        W35361  22.547  17.130   3.212
63036W        W35362  27.939   8.665   4.191
63037W        W35363  44.713  43.789  13.971
63038W        W35364  22.463  26.229   4.158
63039W        W35365  22.660  14.385  14.800
63040W        W35366  23.984  43.294   4.703
63041W        W35367  16.846   0.233  12.440
63042W        W35368  41.697   5.655   3.552
63043W        W35369  39.109  12.699  11.003
63044W        W35370  41.526  30.376  13.946
63045W        W35371  24.109   2.506   3.805
63046W        W35372  15.508  43.842  13.480
63047W        W35373  17.060  36.380   1.381
63048W        W35374   8.901  17.656   4.650
63049W        W35375  23.000  29.460  14.799
63050W        W35376  40.870  44.139   9.826
63051W        W35377   3.844  39.042   3.345
63052W        W35378  14.795  41.920   3.331
63053W        W35379  39.312  14.306   1.281
63054W        W35380  33.306  40.502  11.111
63055W        W35381   7.179  42.556   3.624
63056W        W35382  11.328  36.063  11.995
63057W        W35383  22.493  21.307   9.873
63058W        W35384   9.754   6.717  12.080
63059W        W35385   7.306  34.370  14.532
63060W        W35386  34.139  41.430  11.428
63061W        W35387   8.230  27.916  13.968
63062W        W35388  41.770  14.590  12.186
63063W        W35389  30.541  13.678  10.780
63064W        W35390  14.717  39.838  10.682
63065W        W35391  33.396  35.596  12.998
63066W        W35392   3.859  43.485   0.571
63067W        W35393  12.337  41.256   3.811
63068W        W35394   9.425   2.238  14.346
63069W        W35395  10.375  42.697   4.536
63070W        W35396  26.249   3.440   3.736
63071W        W35397  19.967  25.594   0.616
63072W        W35398   0.667  11.797   4.119
63073W        W35399  32.007  29.218  10.618
63074W        W35400  42.116  25.045  13.004
63075W        W35401  24.504  12.242   4.665
63076W        W35402  40.872  26.058   2.849
63077W        W35403  12.817  42.852  13.460
63078W        W35404  41.613  17.060   1.412
63079W        W35405  36.180  19.821   3.802
63080W        W35406  13.035  33.530  14.838
63081W        W35407  24.211  22.128   3.822
63082W        W35408   0.254  36.541  13.015
63083W        W35409  34.762  20.314   2.327
63084W        W35410  40.959  21.524  11.472
63085W        W35411  14.117  28.011  13.566
63086W        W35412  22.090   8.390   2.879
63087W        W35413  31.934  30.178  12.433
63088W        W35414  18.279  41.992  12.226
63089W        W35415  20.747  18.128  11.400
63090W        W35416   9.711  34.021  14.593
63091W        W35417  31.937  11.864   2.723
63092W        W35418  28.081  44.352  10.026
63093W        W35419  23.871  44.445  14.911
63094W        W35420  41.562  18.607   0.877
63095W        W35421  37.884   5.329  14.206
63096W        W35422  32.000  26.607   1.357
63097W        W35423   6.029  29.507  13.455
63098W        W35424   8.149   7.814   3.045
63099W        W35425  16.625  29.554  11.542
63100W        W35426  12.148  31.993   4.122
63101W        W35427  31.586  15.956   3.404
63102W        W35428  36.117  22.543   1.121
63103W        W35429  44.588  31.642   3.485
63104W        W35430  26.488  10.369  10.963
63105W        W35431  36.955   8.600  13.070
63106W        W35432  32.068  41.769  13.862
63107W        W35433  28.085  13.398   2.399
63108W        W35434  14.417   6.340   2.713
63109W        W35435   6.624  42.765  14.762
63110W        W35436   6.508  40.472  10.963
63111W        W35437  19.825  44.235   4.186
63112W        W35438  24.488   2.262   3.281
63113W        W35439  35.403  12.115   4.553
63114W        W35440   3.640  33.016   3.685
63115W        W35441   7.640  13.846   2.342
63116W        W35442  43.927  12.311  14.507
63117W        W35443  38.387   2.707  13.548
63118W        W35444  10.688  27.450   3.340
63119W        W35445  20.779  36.316  10.582
63120W        W35446  28.139  28.205  10.686
63121W        W35447   2.351  38.962   3.097
63122W        W35448  27.068  18.155  14.053
63123W        W35449  34.467  41.351   3.661
63124W        W35450  16.251  37.381   0.271
63125W        W35451  32.414  30.612  13.263
63126W        W35452  26.573  26.771  13.972
63127W        W35453  24.917  28.972   4.401
63128W        W35454   5.864   6.198   3.157
63129W        W35455  16.204   3.438   1.746
63130W        W35456  18.764  32.098  11.246
63131W        W35457   9.649   4.926  11.029
63132W        W35458  33.616  27.480  11.667
63133W        W35459  24.647  24.595   1.833
63134W        W35460  12.588  35.325  12.254
63135W        W35461  43.585   0.808   1.727
63136W        W35462   2.884  21.226   3.765
63137W        W35463  25.919  28.102  12.911
63138W        W35464   2.760  34.132   3.319
63139W        W35465   6.270  26.694  14.939
63140W        W35466   5.923  23.519   3.136
63141W        W35467  29.220  33.386   3.546
63142W        W35468  20.951  42.812  11.629
63143W        W35469  13.204  35.864   2.327
63144W        W35470   7.272  11.601   3.382
63145W        W35471  38.165  23.120  14.351
63146W        W35472  43.036  17.051   4.215
63147W        W35473  19.043  21.809  11.156
63148W        W35474  14.933   7.686   0.938
63149W        W35475  33.122  43.790  11.029
63150W        W35476  15.275  16.838  14.500
63151W        W35477  22.231  19.639   0.989
63152W        W35478   8.125   8.688  11.140
63153W        W35479   2.979  11.816   2.278
63154W        W35480  30.894  12.184   2.368
63155W        W35481  40.404  27.343   0.745
63156W        W35482   9.854   3.855  13.013
63157W        W35483  29.729  24.113   4.104
63158W        W35484  28.988  10.211  10.418
63159W        W35485  35.806  39.584  13.958
63160W        W35486  23.730   1.727  10.466
63161W        W35487  27.423   2.356  10.466
63162W        W35488  27.461  38.818   2.694
63163W        W35489   5.805  36.549   0.323
63164W        W35490  15.853  15.833   2.246
63165W        W35491  20.983  16.089  14.722
63166W        W35492  12.780  32.019   1.840
63167W        W35493   2.743  38.216   1.567
63168W        W35494   0.282  39.532  13.883
63169W        W35495  36.376  35.882   0.317
63170W        W35496   1.884  29.009   1.425
63171W        W35497   2.523  39.347  10.623
63172W        W35498  27.188   6.850  12.860
63173W        W35499  32.119  19.864  13.080
63174W        W35500  28.533  33.365  12.126
63175W        W35501  21.119  32.424  13.956
63176W        W35502  19.493  27.100   3.247
63177W        W35503   4.959   6.677   0.693
63178W        W35504  25.671  22.008  11.654
63179W        W35505  29.637  15.607   4.574
63180W        W35506  37.858   5.123  14.686
63181W        W35507  29.986   1.339   4.759
63182W        W35508  34.234   6.778  10.674
63183W        W35509   3.671   2.800   5.293
63184W        W35510  38.907  39.832   3.848
63185W        W35511  22.209  22.518  14.737
63186W        W35512  27.782  36.290  14.865
63187W        W35513  15.971  15.238  14.904
63188W        W35514  25.532  22.016   0.784
63189W        W35515  20.199  28.589   3.483
63190W        W35516  38.928  39.163  11.867
63191W        W35517  25.514  37.808  11.475
63192W        W35518  21.972  33.756  12.539
63193W        W35519  44.375  13.782   0.899
63194W        W35520  26.472  33.298   0.741
63195W        W35521  29.170   6.425   3.822
63196W        W35522  29.593  23.170  14.502
63197W        W35523   6.170  21.203   1.400
63198W        W35524   0.542  33.955   4.464
63199W        W35525   1.444  26.136   3.304
63200W        W35526  41.320   2.971  13.960
63201W        W35527  42.948  25.194  12.706
63202W        W35528  16.181  40.473   4.769
63203W        W35529  33.585  42.064  12.518
63204W        W35530  40.023  34.035   4.356
63205W        W35531  35.487  44.764  10.754
63206W        W35532  29.124  18.001  11.904
63207W        W35533  12.587  18.594   2.629
63208W        W35534   5.295  22.947   1.382
63209W        W35535  17.619   2.785  12.169
63210W        W35536  31.836  25.205  11.658
63211W        W35537  29.455  10.123   4.127
63212W        W35538   7.410  29.401  12.099
63213W        W35539  30.540  15.849  13.887
63214W        W35540  40.496   8.414  12.781
63215W        W35541  10.922   4.841  12.935
63216W        W35542   2.823   0.992  11.971
63217W        W35543   0.415  11.011   0.429
63218W        W35544   7.438  27.955   4.576
63219W        W35545  43.394  16.035   4.217
63220W        W35546   5.363  27.526  12.395
63221W        W35547  24.541  36.663  11.877
63222W        W35548  31.188   1.933   4.292
63223W        W35549  17.094  30.008   4.682
63224W        W35550  36.519  22.240   4.376
63225W        W35551  31.583  37.075  10.755
63226W        W35552  39.315  27.155   1.759
63227W        W35553  23.619  26.525   1.502
63228W        W35554  18.217  43.182  14.767
63229W        W35555  33.439  37.764   3.221
63230W        W35556  38.982  35.913   4.399
63231W        W35557  23.853  27.697  14.270
63232W        W35558  31.147  13.411  13.744
63233W        W35559   9.409  22.716   4.910
63234W        W35560  30.072  42.483  13.549
63235W        W35561  42.942  37.500   3.584
63236W        W35562  39.385  14.196  11.427
63237W        W35563  24.146   3.997   0.722
63238W        W35564  16.745  28.742   1.267
63239W        W35565  16.197  35.336  12.603
63240W        W35566   5.495  12.815   3.656
63241W        W35567  38.666  18.929  12.657
63242W        W35568  12.433  13.583   2.838
63243W        W35569  22.811  11.519  11.079
63244W        W35570   6.087   0.953  14.259
63245W        W35571  14.191  22.801   3.891
63246W        W35572   4.585   8.988  12.899
63247W        W35573  25.195  35.944  13.776
63248W        W35574   4.624  26.165   1.612
63249W        W35575  22.937   5.632  11.576
63250W        W35576  32.047  38.423  10.306
63251W        W35577  17.467   8.741   3.999
63252W        W35578  32.168   1.541  14.529
63253W        W35579   9.236  15.840  11.732
63254W        W35580  21.268  33.795   1.377
63255W        W35581   9.664  42.515  10.667
63256W        W35582  42.406   1.798   2.603
63257W        W35583   4.389  27.714  13.078
63258W        W35584   0.318  18.060   4.357
63259W        W35585  29.573   8.042   3.317
63260W        W35586  24.968  12.248   3.766
63261W        W35587  25.917  30.178   3.212
63262W        W35588  21.330  10.429   1.694
63263W        W35589  36.336  39.876   0.912
63264W        W35590   6.426  13.322  13.027
63265W        W35591  34.778   2.439  12.205
63266W        W35592  44.744  25.560  12.869
63267W        W35593  29.607   9.014   0.833
63268W        W35594  42.354  25.161   1.218
63269W        W35595  37.755  20.202   0.836
63270W        W35596  26.659  43.572  14.783
63271W        W35597   2.196  36.633  12.048
63272W        W35598  38.877   2.218   4.919
63273W        W35599  36.576   6.190  12.371
63274W        W35600  20.653  34.968   2.123
63275W        W35601  20.333  39.498   3.932
63276W        W35602  26.074  28.056   5.019
63277W        W35603  26.094  34.808   0.292
63278W        W35604  24.513  42.419   1.164
63279W        W35605  27.047  21.115  11.646
63280W        W35606  15.722  29.976   4.495
63281W        W35607  19.062  25.965   2.956
63282W        W35608  27.480  26.288  14.272
63283W        W35609  32.183  28.810   1.783
63284W        W35610  41.632  42.088  12.129
63285W        W35611  12.176   3.226  14.172
63286W        W35612   6.234  17.248  13.870
63287W        W35613  31.092  40.080   1.438
63288W        W35614   7.114   7.138   3.614
63289W        W35615  24.097   5.714   2.908
63290W        W35616   9.021  27.843  14.294
63291W        W35617  35.775  28.138   3.337
63292W        W35618  22.635  11.023  11.152
63293W        W35619  33.491  25.695  11.104
63294W        W35620  41.032  31.361  11.524
63295W        W35621  19.301   0.870  14.724
63296W        W35622  26.565   6.737  13.150
63297W        W35623  20.608   3.138  13.055
63298W        W35624   4.791  36.384   0.958
63299W        W35625  10.479  17.853  13.629
63300W        W35626  40.253  11.424   1.828
63301W        W35627  13.725  29.684   4.628
63302W        W35628   6.346  20.271  11.447
63303W        W35629  16.858  35.323   1.778
63304W        W35630  37.903  13.405  11.640
63305W        W35631  21.231  30.082  13.772
63306W        W35632   5.776  12.275  14.527
63307W        W35633   1.520  11.145  10.721
63308W        W35634  21.548  44.213   0.266
63309W        W35635   4.393   9.385   1.626
63310W        W35636  17.048  16.534   4.633
63311W        W35637   0.885  15.319   3.758
63312W        W35638  41.006  26.854  13.026
63313W        W35639  44.128  41.986   4.491
63314W        W35640  23.444  21.132  14.500
63315W        W35641  10.195  18.570  14.285
63316W        W35642  29.067  18.591  13.509
63317W        W35643  20.216   3.688  11.883
63318W        W35644  13.571  10.825  14.104
63319W        W35645  10.642  19.363  12.610
63320W        W35646   3.388  11.994   3.249
63321W        W35647   7.320  37.136  10.696
63322W        W35648  11.264  22.840  11.384
63323W        W35649  28.932  38.289  10.946
63324W        W35650  10.427   1.768   3.327
63325W        W35651  40.813   3.838   2.451
63326W        W35652   0.210  42.812   3.780
63327W        W35653  14.315  33.928   5.508
63328W        W35654  27.405  25.793   3.317
63329W        W35655  42.397  11.811   4.646
63330W        W35656  36.542  11.349  11.107
63331W        W35657   5.303   1.578   4.019
63332W        W35658  38.582  30.515  11.565
63333W        W35659  14.184  34.319  13.830
63334W        W35660  39.001  21.320  10.157
63335W        W35661   9.732  12.477  11.086
63336W        W35662  42.601  12.647   3.300
63337W        W35663  33.490  41.286   0.460
63338W        W35664  15.430  19.220   1.888
63339W        W35665  29.180  13.789  11.223
63340W        W35666  10.535  11.090   0.080
63341W        W35667  18.230  27.577  10.703
63342W        W35668  21.252  31.599   1.886
63343W        W35669  25.380  31.997  11.066
63344W        W35670   6.833   0.884   4.398
63345W        W35671  28.720  20.681  11.705
63346W        W35672  27.121  21.531   4.713
63347W        W35673  43.395  29.556   3.829
63348W        W35674  25.544  28.442  14.832
63349W        W35675  11.287  17.805   2.813
63350W        W35676  28.688   1.279   0.210
63351W        W35677  25.516   0.248  12.493
63352W        W35678   8.809  31.206  12.326
63353W        W35679  19.917  16.723   2.003
63354W        W35680  23.685   7.626   2.226
63355W        W35681  44.310   2.648  14.874
63356W        W35682  27.091  20.668   0.479
63357W        W35683  33.564   5.453  14.010
63358W        W35684  44.698  14.751   3.995
63359W        W35685   6.976  33.612   2.916
63360W        W35686  26.397  16.991   0.357
63361W        W35687   5.967  29.130   4.679
63362W        W35688  17.317   6.004  12.100
63363W        W35689  14.235  25.378  12.214
63364W        W35690   2.086   1.807  12.365
63365W        W35691  37.935  23.994  13.934
63366W        W35692  39.500  35.539  14.738
63367W        W35693   5.315   4.983  12.955
63368W        W35694  25.021   7.264   2.186
63369W        W35695  42.363  16.132   3.799
63370W        W35696  29.460  14.436   0.103
63371W        W35697   3.896  40.446   0.463
63372W        W35698  41.012  11.724  14.963
63373W        W35699  41.280  39.832  12.216
63374W        W35700  15.343  41.497  12.656
63375W        W35701  39.468  10.141   3.856
63376W        W35702  26.458   5.838  14.497
63377W        W35703  24.765   0.412   0.431
63378W        W35704   4.946  26.246   3.034
63379W        W35705   6.620   2.285   2.565
63380W        W35706  17.038  28.975   0.904
63381W        W35707  33.118  15.874   0.245
63382W        W35708   7.153   2.198   4.154
63383W        W35709   8.399  15.590  11.604
63384W        W35710  29.223  35.046   3.268
63385W        W35711  14.272  25.625   1.426
63386W        W35712   2.987  26.494  12.855
63387W        W35713  41.857  15.650   2.288
63388W        W35714  39.629  18.714   3.545
63389W        W35715   8.477  14.329  14.376
63390W        W35716  15.360  23.615  12.488
63391W        W35717   1.900  23.401   4.541
63392W        W35718   6.944  42.831  10.026
63393W        W35719  25.822  15.738  10.835
63394W        W35720  18.419  12.687  13.342
63395W        W35721  10.295  15.357  11.096
63396W        W35722  24.586  12.846  10.481
63397W        W35723  18.771  37.880  12.938
63398W        W35724  40.999  13.631   4.674
63399W        W35725   5.318  32.062  14.757
63400W        W35726  22.438  19.236   1.364
63401W        W35727  18.362  34.090  10.695
63402W        W35728  36.396  29.917   2.524
63403W        W35729  19.083   3.611   1.816
63404W        W35730  42.922  33.651   3.305
63405W        W35731  29.820  11.243  14.619
63406W        W35732  38.345  22.509   1.705
63407W        W35733  32.031  38.817  13.610
63408W        W35734  36.398   0.391   0.152
63409W        W35735  23.221  42.096  11.490
63410W        W35736   0.524  21.601  13.053
63411W        W35737   8.406  23.012  14.611
63412W        W35738  38.101  12.089   3.063
63413W        W35739  42.081   6.710  13.909
63414W        W35740  21.650  37.901  14.321
63415W        W35741  32.791  39.867  11.928
63416W        W35742  10.539  18.998  14.402
63417W        W35743  39.544  12.067   0.427
63418W        W35744  44.201   8.535   0.926
63419W        W35745  41.353   2.396  11.697
63420W        W35746  40.783  32.507   2.799
63421W        W35747  11.941  16.501  11.107
63422W        W35748  17.380  30.025   2.209
63423W        W35749  24.187  12.315   1.428
63424W        W35750   0.367   9.783  10.768
63425W        W35751  34.426  22.020   0.865
63426W        W35752   1.910  32.129   4.123
63427W        W35753  31.122  22.625  12.924
63428W        W35754  44.236  14.549  13.039
63429W        W35755   5.869  25.463   3.830
63430W        W35756   8.337   5.905   3.117
63431W        W35757  25.330  32.394   2.576
63432W        W35758   5.783  27.012  14.886
63433W        W35759  44.020   0.127  12.088
63434W        W35760   6.258  26.397   4.200
63435W        W35761  34.531   0.768  12.586
63436W        W35762   4.910   6.191  13.415
63437W        W35763   0.098   8.951   1.318
63438W        W35764  31.867  26.049  14.534
63439W        W35765  21.592  38.317   3.667
63440W        W35766  34.972   4.335  11.027
63441W        W35767  16.752  43.726   0.279
63442W        W35768  39.042  30.123  13.695
63443W        W35769   6.948   5.279   0.856
63444W        W35770  32.506  38.839  13.359
63445W        W35771   6.823   4.518   2.367
63446W        W35772  28.114  13.560   4.515
63447W        W35773  22.608   1.850   4.004
63448W        W35774  22.114  27.422  13.810
63449W        W35775   1.422   8.975   4.518
63450W        W35776  26.554   3.215   0.173
63451W        W35777  41.209  34.056  13.055
63452W        W35778  30.117  17.965  14.310
63453W        W35779  30.134  29.406   4.556
63454W        W35780  33.042  26.464   3.728
63455W        W35781  43.012  34.999  14.313
63456W        W35782  44.861  12.946   4.234
63457W        W35783  26.016  30.345  10.724
63458W        W35784  30.423   3.801  13.550
63459W        W35785  39.099  34.985   4.058
63460W        W35786  14.150  25.883  12.020
63461W        W35787  40.516  39.378   4.027
63462W        W35788  40.979  26.204  12.417
63463W        W35789   8.257  13.289   1.400
63464W        W35790  21.994   5.482  13.347
63465W        W35791  26.517  18.730   1.430
63466W        W35792  10.816  37.774  10.957
63467W        W35793   8.294  27.403   0.270
63468W        W35794  22.469  32.356   4.078
63469W        W35795   3.700   0.896   0.992
63470W        W35796  43.534  34.852   0.317
63471W        W35797  12.282  35.983  11.651
63472W        W35798  12.292  15.485  14.001
63473W        W35799  43.461  39.135   4.849
63474W        W35800  18.471  14.307   2.426
63475W        W35801  33.349  37.574   4.587
63476W        W35802  12.332  44.796   3.412
63477W        W35803  44.402   4.649  12.843
63478W        W35804  26.609  25.987   3.578
63479W        W35805  39.930  37.314  12.571
63480W        W35806  34.199  26.217   2.352
63481W        W35807  42.698  19.547   3.352
63482W        W35808  42.618  40.152  13.507
63483W        W35809  19.538  36.999  11.554
63484W        W35810  39.511  40.631   2.734
63485W        W35811  43.794  22.284  12.620
63486W        W35812   4.386  29.148  11.519
63487W        W35813  36.931  29.137   1.779
63488W        W35814   7.203  24.476  13.630
63489W        W35815  18.517  15.175   2.117
63490W        W35816   8.469   2.295  11.774
63491W        W35817  39.013   2.044   0.257
63492W        W35818  23.684  35.369  12.551
63493W        W35819  12.580  13.911  12.198
63494W        W35820  26.580  39.362   2.714
63495W        W35821  17.897  32.802   0.309
63496W        W35822  12.603  41.048  11.245
63497W        W35823  25.217   1.233   1.380
63498W        W35824  23.727  43.383   3.677
63499W        W35825   5.868  29.979  13.564
63500W        W35826  32.078  18.025  14.795
63501W        W35827  29.742  29.017   1.410
63502W        W35828  40.858   3.417  12.611
63503W        W35829  33.252   2.795   3.627
63504W        W35830  40.347   8.653  14.423
63505W        W35831  38.759  14.284   4.022
63506W        W35832  33.892   0.833   2.244
63507W        W35833  42.887  35.451   3.733
63508W        W35834  13.528  22.000  10.315
63509W        W35835  37.350  10.266   2.186
63510W        W35836  42.258   7.707  14.012
63511W        W35837  19.348  19.153   0.339
63512W        W35838  16.314  11.066   3.206
63513W        W35839  10.691  40.826  14.527
63514W        W35840   6.427   9.595  13.871
63515W        W35841  10.623  40.833   3.330
63516W        W35842  24.748  23.132  13.997
63517W        W35843   4.344  16.879  11.409
63518W        W35844   5.424  33.662  14.858
63519W        W35845  31.917   2.396  11.481
63520W        W35846   6.924  38.009  12.509
63521W        W35847  38.594   2.952   3.791
63522W        W35848   7.697  22.627   4.166
63523W        W35849   3.879  25.554  12.039
63524W        W35850  38.227  37.891  12.923
63525W        W35851  37.531  10.333  10.655
63526W        W35852  35.091  18.869  13.425
63527W        W35853  36.444   5.815   0.915
63528W        W35854  37.479  38.080  12.604
63529W        W35855  40.006   0.958   0.959
63530W        W35856   5.714  31.408   2.756
63531W        W35857  19.811  37.936   4.635
63532W        W35858  12.063   1.336  12.017
63533W        W35859  26.508  39.489   2.186
63534W        W35860  13.550  18.968  12.054
63535W        W35861  12.101  18.716   2.639
63536W        W35862   3.814  34.129  11.591
63537W        W35863  32.410  13.766   1.920
63538W        W35864   2.799  39.233  14.049
63539W        W35865   6.691  29.628  11.093
63540W        W35866  24.739   1.349   0.385
63541W        W35867  41.487  43.781   0.727
63542W        W35868  18.765  12.967   1.816
63543W        W35869  29.411  28.415  13.046
63544W        W35870   0.011  29.201   3.886
63545W        W35871  44.345  15.371   4.767
63546W        W35872  34.061   8.600  11.087
63547W        W35873   6.174  13.706   2.059
63548W        W35874  10.752  25.980   1.331
63549W        W35875  29.450  27.520   9.786
63550W        W35876  28.095  19.535  11.294
63551W        W35877  27.901  20.438  12.886
63552W        W35878   4.222  11.119   5.489
63553W        W35879  24.099  38.324  12.853
63554W        W35880  17.107  23.650  10.971
63555W        W35881  41.576  14.808  10.725
63556W        W35882  43.371   2.513  10.575
63557W        W35883  37.835  38.342  11.678
63558W        W35884  22.493  43.562  14.970
63559W        W35885   8.703   8.616   0.245
63560W        W35886  16.348  14.628   4.084
63561W        W35887   6.810  15.347   0.720
63562W        W35888  44.728  32.325  13.094
63563W        W35889   1.499  27.484  13.068
63564W        W35890  43.352   3.780   4.892
63565W        W35891  27.591  31.151   0.011
63566W        W35892   2.863   1.907  11.735
63567W        W35893   5.357  23.512  11.632
63568W        W35894  40.260  20.217  11.182
63569W        W35895  22.144  40.926  14.929
63570W        W35896  42.790  10.300   3.162
63571W        W35897  43.909  23.431  12.856
63572W        W35898  16.541  43.721  12.461
63573W        W35899  20.457  41.334   0.418
63574W        W35900  40.922  15.545  12.503
63575W        W35901  32.538  42.704   3.109
63576W        W35902  39.643  10.749   9.959
63577W        W35903  38.449   4.758   0.855
63578W        W35904  33.154   0.517   0.220
63579W        W35905  36.035  42.558  14.774
63580W        W35906  38.638  43.298   0.475
63581W        W35907  29.780  43.977  12.973
63582W        W35908  35.602  11.928   4.109
63583W        W35909   0.983  23.435  13.144
63584W        W35910  35.287   2.244   4.678
63585W        W35911  29.183   5.911   2.628
63586W        W35912   9.405   6.190   1.849
63587W        W35913   0.600  23.034   0.214
63588W        W35914   7.808   0.814  10.289
63589W        W35915   0.688  13.636  14.849
63590W        W35916  27.263  34.681  14.748
63591W        W35917  24.276   7.273   4.033
63592W        W35918  33.927  30.192  11.071
63593W        W35919  16.259  18.543   2.337
63594W        W35920   8.992   3.348  12.620
63595W        W35921   6.839  10.663  13.530
63596W        W35922   2.541  33.164   4.907
63597W        W35923  33.894  11.157  11.657
63598W        W35924  14.123  14.752  10.719
63599W        W35925  18.616  16.926  14.288
63600W        W35926  14.813  11.691   0.754
63601W        W35927  17.725  22.048   1.333
63602W        W35928  25.892  15.426  12.621
63603W        W35929  17.330  16.843   4.340
63604W        W35930  31.808  35.586   3.332
63605W        W35931   7.162  12.626   1.767
63606W        W35932  38.541   5.287  11.527
63607W        W35933  12.662  13.384  13.984
63608W        W35934   3.266   5.664   1.650
63609W        W35935  26.495  21.986  11.543
63610W        W35936  26.558  30.768   1.532
63611W        W35937  39.015  31.411  14.549
63612W        W35938  40.614  18.144  13.306
63613W        W35939  37.300  24.581  10.932
63614W        W35940  11.290  35.438   3.581
63615W        W35941  31.794  12.489  11.081
63616W        W35942   4.167  21.649   5.791
63617W        W35943  39.514  36.445  11.013
63618W        W35944   4.271  22.987   2.215
63619W        W35945  15.895  28.358  11.989
63620W        W35946   9.545  32.465  12.604
63621W        W35947   8.232  38.380  10.699
63622W        W35948  11.875  38.381  13.273
63623W        W35949  44.181   5.374   4.535
63624W        W35950  28.383   9.682  13.451
63625W        W35951   5.600  39.317  12.300
63626W        W35952   2.367  32.595  11.478
63627W        W35953  39.290  37.643  11.459
63628W        W35954  40.286  43.516  12.148
63629W        W35955  14.097  32.888   2.803
63630W        W35956  13.269  10.892   3.345
63631W        W35957  20.177  31.871  13.043
63632W        W35958  15.695  24.471   4.734
63633W        W35959  24.987  19.385  14.016
63634W        W35960  17.707  23.771   1.842
63635W        W35961  26.919  44.617   1.251
63636W        W35962   9.320  10.364  12.996
63637W        W35963  12.815  35.546  13.890
63638W        W35964  40.809   2.982  10.951
63639W        W35965   7.551  22.162  11.123
63640W        W35966   4.158  39.532   2.373
63641W        W35967  36.530  30.589   0.896
63642W        W35968   5.675  28.706  13.537
63643W        W35969  23.908  18.450   4.887
63644W        W35970  23.979  23.559   2.258
63645W        W35971  24.632  27.391  12.049
63646W        W35972  18.528  39.923  14.273
63647W        W35973  14.319  41.258   3.619
63648W        W35974  25.597  20.291  13.307
63649W        W35975  16.300   5.861   1.881
63650W        W35976  25.300  28.670   0.224
63651W        W35977  29.289  23.386   3.664
63652W        W35978   8.062  18.260   0.260
63653W        W35979  11.670  42.458  10.235
63654W        W35980   7.710  22.707   2.313
63655W        W35981  41.175  44.906  10.695
63656W        W35982  44.903   0.034   2.820
63657W        W35983   1.701  10.838   2.305
63658W        W35984  31.053  38.762  14.422
63659W        W35985  14.635   5.309  12.509
63660W        W35986  17.184  17.277   4.033
63661W        W35987  41.249   0.244  12.672
63662W        W35988   2.247  34.735   1.834
63663W        W35989  29.503   3.188   4.122
63664W        W35990  30.846  41.274   1.794
63665W        W35991   7.705  20.220   2.629
63666W        W35992  27.732   1.926  11.141
63667W        W35993  19.210   8.828  14.418
63668W        W35994  21.355  31.414   0.706
63669W        W35995  34.618   3.062   1.920
63670W        W35996  29.631  15.589   0.986
63671W        W35997  35.989  22.725   2.682
63672W        W35998  41.730  40.848  12.787
63673W        W35999  38.759  41.016   0.282
63674W        W36000  23.100  26.483   1.679
63675W        W36001  42.400  44.350  14.047
63676W        W36002  20.147  23.263   0.837
63677W        W36003  18.191  15.203   4.689
63678W        W36004   6.168   0.867   2.137
63679W        W36005  16.822   6.205   0.079
63680W        W36006  13.473   2.476   3.182
63681W        W36007  15.342   8.373   4.332
63682W        W36008  10.347  30.067   4.842
63683W        W36009  37.787  42.933   2.715
63684W        W36010   5.816  20.055   3.655
63685W        W36011  42.093  13.908  10.525
63686W        W36012  11.561   4.027   1.348
63687W        W36013  35.427  23.235   3.868
63688W        W36014  39.772  20.482   4.641
63689W        W36015  14.762  20.305   3.680
63690W        W36016  30.441  21.494   0.713
63691W        W36017  26.878  38.278   3.448
63692W        W36018   2.929   4.914   3.651
63693W        W36019  27.443  44.731   3.166
63694W        W36020  19.931  43.718  10.609
63695W        W36021  12.572  29.467   0.541
63696W        W36022   2.373  34.560   3.650
63697W        W36023  38.900  29.524   1.779
63698W        W36024  34.778  37.846  12.661
63699W        W36025  43.458   3.157   2.678
63700W        W36026  20.319  39.570   0.875
63701W        W36027   7.749  14.591   3.753
63702W        W36028  35.771   0.265  12.100
63703W        W36029   3.234   2.027   3.769
63704W        W36030   7.462  25.137  12.507
63705W        W36031  32.458   6.184  11.878
63706W        W36032   6.735  26.958  14.830
63707W        W36033   7.343  38.225   1.686
63708W        W36034  24.120  30.246  12.026
63709W        W36035   4.937   0.363  11.020
63710W        W36036  35.875  43.047   0.568
63711W        W36037  21.304  20.675   2.277
63712W        W36038  30.123  30.929  14.697
63713W        W36039  27.006  28.942   0.860
63714W        W36040  23.009  44.880   4.226
63715W        W36041  24.402  16.698   0.943
63716W        W36042   3.583  34.029   0.827
63717W        W36043  38.593  37.334   4.083
63718W        W36044  11.905  23.603   4.109
63719W        W36045   5.384  43.828  10.541
63720W        W36046  32.799  20.307   0.198
63721W        W36047  41.968   4.753  12.853
63722W        W36048   0.449  32.580   3.309
63723W        W36049  41.799  21.069  12.902
63724W        W36050  40.995  12.723  12.032
63725W        W36051  40.947  11.576   3.943
63726W        W36052  42.737   3.397   3.619
63727W        W36053  42.124   6.464   4.563
63728W        W36054  22.191  25.946   1.634
63729W        W36055   8.166  13.297  14.475
63730W        W36056  34.586  10.171   0.031
63731W        W36057  26.002  30.562   2.220
63732W        W36058  39.802  15.083  11.420
63733W        W36059  29.969  19.836   4.576
63734W        W36060  14.755  37.640  11.954
63735W        W36061  40.780   9.439   3.861
63736W        W36062  24.318  13.933   4.307
63737W        W36063  11.286  31.376   2.246
63738W        W36064   1.320  24.457  11.589
63739W        W36065  36.009  21.576   2.838
63740W        W36066  25.579  38.142  13.745
63741W        W36067  13.101  10.631  13.951
63742W        W36068  33.158  37.549   5.078
63743W        W36069  41.775   3.810  11.550
63744W        W36070  42.828  39.751  13.750
63745W        W36071  24.217  40.193   1.244
63746W        W36072  27.655  12.305   0.384
63747W        W36073   2.518  22.765  12.153
63748W        W36074  12.790  31.813  13.876
63749W        W36075  37.392  40.381  11.267
63750W        W36076   6.171  27.979   2.654
63751W        W36077  29.393  23.447  10.469
63752W        W36078  38.522  18.966   2.895
63753W        W36079  15.679  33.169   4.554
63754W        W36080  21.789   6.855  10.744
63755W        W36081  22.603  37.315   1.277
63756W        W36082  41.852   5.197  12.370
63757W        W36083  12.904  36.161  11.998
63758W        W36084   2.877   6.604  12.079
63759W        W36085  12.053  44.684  11.062
63760W        W36086  38.515  15.535  13.476
63761W        W36087   3.879  10.820   1.073
63762W        W36088  16.896  35.213  12.523
63763W        W36089  31.852  36.874  14.546
63764W        W36090  35.056  13.842   4.237
63765W        W36091   2.344   3.897   4.413
63766W        W36092   6.305  27.240  13.037
63767W        W36093  10.574  35.551   0.896
63768W        W36094  13.189  15.638   1.506
63769W        W36095  37.885  35.928   5.106
63770W        W36096  28.868  17.834   3.655
63771W        W36097  44.838   0.067  12.032
63772W        W36098  20.325  41.539   2.689
63773W        W36099  23.235  43.039   0.279
63774W        W36100  32.036   4.107  11.295
63775W        W36101   1.834  25.312   1.153
63776W        W36102  36.849   5.277   4.595
63777W        W36103  22.306  20.650   1.818
63778W        W36104   0.284   1.704  12.438
63779W        W36105  37.280  43.721   3.049
63780W        W36106   9.692  28.064   1.779
63781W        W36107   8.912  23.626  14.307
63782W        W36108  32.475   5.945   4.580
63783W        W36109  33.426  33.626  10.196
63784W        W36110  23.463  32.744   1.418
63785W        W36111  13.585   6.184  13.382
63786W        W36112  32.890   9.737  13.092
63787W        W36113  34.604   0.532   3.668
63788W        W36114   1.313  21.583   2.615
63789W        W36115  14.695  24.663   4.159
63790W        W36116  21.682  13.144  14.038
63791W        W36117   1.427   6.229  14.347
63792W        W36118  30.326  25.201   3.742
63793W        W36119   3.456  26.306  10.932
63794W        W36120  27.834   8.427  14.738
63795W        W36121  13.746  23.995   3.201
63796W        W36122   1.314  11.388  11.127
63797W        W36123   5.012  33.175   2.687
63798W        W36124  42.363  14.424   0.847
63799W        W36125   9.190  43.186   2.757
63800W        W36126   4.013   1.019   0.601
63801W        W36127  14.173  22.023   2.643
63802W        W36128  19.843  15.743   4.133
63803W        W36129   9.847   8.316   1.167
63804W        W36130  21.207   5.391   4.494
63805W        W36131   2.879  10.380   3.261
63806W        W36132  36.434  11.714  13.365
63807W        W36133  34.059  43.243  11.276
63808W        W36134  44.834  13.608   0.362
63809W        W36135   6.035   6.354   4.898
63810W        W36136  16.706  32.728  13.231
63811W        W36137  10.403  22.634   4.101
63812W        W36138  11.194  35.781  12.438
63813W        W36139  11.612   0.983   3.657
63814W        W36140  37.348  30.891  11.922
63815W        W36141  14.814  35.097  14.789
63816W        W36142  35.310  24.215  12.982
63817W        W36143  12.265  32.995   3.374
63818W        W36144  32.477  16.986   3.245
63819W        W36145   6.646  28.378  13.465
63820W        W36146  30.886  38.514  12.481
63821W        W36147  26.381  37.527   3.791
63822W        W36148  37.316  34.284   3.180
63823W        W36149  33.080  32.661   3.433
63824W        W36150  33.057  39.862   1.200
63825W        W36151  24.918  30.493  13.267
63826W        W36152  42.730   0.319  12.440
63827W        W36153  31.870  44.277  12.415
63828W        W36154  39.974  18.587  14.516
63829W        W36155  11.287   4.928  13.310
63830W        W36156  37.804  39.476   0.776
63831W        W36157  32.178  18.203  11.119
63832W        W36158  22.593  42.831   4.351
63833W        W36159  34.468  30.874  11.453
63834W        W36160  18.247  16.652   4.191
63835W        W36161  36.104  43.468   2.331
63836W        W36162  15.517   3.863   4.027
63837W        W36163  35.666  12.684   5.105
63838W        W36164   3.400  39.485  12.880
63839W        W36165  39.514   6.666  14.637
63840W        W36166  39.372  15.850  14.856
63841W        W36167  41.833  16.926  12.418
63842W        W36168  31.177  33.490   1.717
63843W        W36169  27.820   9.683  14.337
63844W        W36170  28.679  37.877   0.666
63845W        W36171  35.616  43.276  14.005
63846W        W36172   7.223  15.762  11.070
63847W        W36173   6.248  22.618   1.649
63848W        W36174  25.994  38.576   3.773
63849W        W36175   3.224  36.475   3.368
63850W        W36176  34.019  27.293  12.642
63851W        W36177  36.484  17.260  10.912
63852W        W36178   0.917   4.831  14.747
63853W        W36179   4.823  23.095  14.019
63854W        W36180  17.557  25.073  14.430
63855W        W36181  39.226  38.771   9.991
63856W        W36182   8.314  23.109  12.109
63857W        W36183  27.980  11.682  11.466
63858W        W36184  33.052  44.370   4.223
63859W        W36185  43.186  38.981  13.361
63860W        W36186  14.544  30.355   1.906
63861W        W36187  37.513   2.906   3.728
63862W        W36188   6.660   4.378  12.080
63863W        W36189  26.719  19.570   1.358
63864W        W36190  25.005  15.391  11.552
63865W        W36191   5.861  25.410  12.137
63866W        W36192  31.601  18.054   3.262
63867W        W36193  18.185   9.107   4.287
63868W        W36194  37.116  31.878  11.551
63869W        W36195  22.049  27.890   2.386
63870W        W36196  15.196  18.530   3.598
63871W        W36197  31.004  20.289  10.743
63872W        W36198  10.824   7.926   3.706
63873W        W36199  32.698  29.427  10.753
63874W        W36200   6.992  44.104  12.456
63875W        W36201   3.962  25.676   3.288
63876W        W36202  33.916   3.457  13.284
63877W        W36203   8.656  12.688  14.848
63878W        W36204  21.564  44.793   2.904
63879W        W36205  43.825  21.061  10.582
63880W        W36206  15.236   1.763   3.211
63881W        W36207   4.059  38.161   3.329
63882W        W36208  30.020   5.084   4.072
63883W        W36209  38.946  25.967  13.823
63884W        W36210  11.010  12.586   2.385
63885W        W36211  42.422  35.313  12.876
63886W        W36212  30.564   4.940  12.065
63887W        W36213   3.207  33.994   0.415
63888W        W36214  40.806   8.376   0.900
63889W        W36215   5.937  16.245   4.558
63890W        W36216  36.049  19.311  13.469
63891W        W36217   8.996  36.367   4.096
63892W        W36218  10.285   6.191  14.489
63893W        W36219  32.283   5.991  14.826
63894W        W36220  38.290  24.636   4.420
63895W        W36221  41.433  12.751  10.784
63896W        W36222  11.760   3.223  10.666
63897W        W36223  38.913  26.738   3.652
63898W        W36224  20.484  17.052   3.713
63899W        W36225  37.369   3.492  12.602
63900W        W36226  21.971  21.727  12.513
63901W        W36227  22.228  25.101   4.513
63902W        W36228  41.525  11.792   0.796
63903W        W36229   1.007   3.816   1.661
63904W        W36230  36.029  29.062   0.723
63905W        W36231   3.058   7.891   3.322
63906W        W36232   4.697  17.155  12.979
63907W        W36233   9.610  33.604  13.841
63908W        W36234  40.446  30.301   4.214
63909W        W36235  17.079  39.862   4.216
63910W        W36236  28.527  14.639   3.047
63911W        W36237   9.675  15.842  10.987
63912W        W36238  38.357   3.331  13.317
63913W        W36239  22.514  19.661  14.793
63914W        W36240   9.599  14.278   2.277
63915W        W36241  11.873  16.240  12.185
63916W        W36242   0.704  14.295   3.118
63917W        W36243  42.045   9.897   2.798
63918W        W36244   7.414   6.373   1.697
63919W        W36245  32.454  43.800  13.562
63920W        W36246  12.047  13.402  10.575
63921W        W36247   5.199  44.911   2.377
63922W        W36248  16.201  15.057   3.193
63923W        W36249  36.035   5.427  14.661
63924W        W36250  40.417  37.756   1.717
63925W        W36251  23.102  40.453   5.524
63926W        W36252   3.508  44.314  12.935
63927W        W36253  20.556   0.526  14.736
63928W        W36254  44.754  21.116  13.788
63929W        W36255  31.604  16.375  11.527
63930W        W36256  18.356  32.559   0.413
63931W        W36257  22.240  36.513  13.917
63932W        W36258  18.089  37.097  13.428
63933W        W36259  11.678  44.809   1.100
63934W        W36260  16.767   0.701   3.718
63935W        W36261  23.708  33.982  10.898
63936W        W36262  39.802  20.719   3.238
63937W        W36263  44.453  15.790  13.878
63938W        W36264  18.048   2.438   3.629
63939W        W36265   8.181  33.163  14.016
63940W        W36266  33.743  26.095  13.292
63941W        W36267  22.763   3.051   3.719
63942W        W36268  31.980  31.606  14.633
63943W        W36269  20.853  26.666  11.521
63944W        W36270  21.734  38.015   2.259
63945W        W36271  36.363  33.402  12.103
63946W        W36272  24.801  41.670  12.526
63947W        W36273  31.651  19.785   3.698
63948W        W36274   2.758  44.791   2.746
63949W        W36275   2.833  16.100  13.056
63950W        W36276   8.219  37.814  13.863
63951W        W36277   1.319   3.640   1.296
63952W        W36278  23.136  36.867  13.493
63953W        W36279  25.855  22.966   2.170
63954W        W36280  44.715  19.604  11.580
63955W        W36281  33.303  41.457  13.042
63956W        W36282  33.032  31.586   1.600
63957W        W36283  11.994  26.579   4.568
63958W        W36284  10.032   8.238   5.034
63959W        W36285   7.917  40.425   3.158
63960W        W36286  28.000  39.430  11.474
63961W        W36287  39.582  25.485  12.422
63962W        W36288  28.883  23.606  10.660
63963W        W36289  12.959  13.221  11.664
63964W        W36290  22.629   8.329   1.389
63965W        W36291  38.578  44.470  10.450
63966W        W36292  25.352  26.301  10.367
63967W        W36293   7.246   8.457   3.987
63968W        W36294  22.471  18.839   4.196
63969W        W36295  10.291  29.477  13.420
63970W        W36296  36.194  33.387   0.375
63971W        W36297   8.856  14.262   4.167
63972W        W36298   2.426  33.068  13.343
63973W        W36299  25.929  16.769  12.443
63974W        W36300  43.006  10.841  11.124
63975W        W36301  32.438  15.886   4.260
63976W        W36302  33.833  33.592  14.394
63977W        W36303   4.751  10.807   0.754
63978W        W36304  43.977   6.962  10.791
63979W        W36305  24.047  33.554  12.330
63980W        W36306  24.976   0.882   4.177
63981W        W36307  33.731  12.000  12.464
63982W        W36308  39.367  17.168   1.193
63983W        W36309  26.447  30.360   4.836
63984W        W36310  30.846  13.102  12.441
63985W        W36311  32.889  16.324  14.825
63986W        W36312  27.466   9.384  12.148
63987W        W36313   0.260  31.346  12.064
63988W        W36314   9.399  27.359  10.897
63989W        W36315   9.293  34.825   0.482
63990W        W36316  43.422  21.965  12.501
63991W        W36317  43.355  28.677   4.975
63992W        W36318  23.197  23.564  14.837
63993W        W36319  38.797  19.722   1.419
63994W        W36320  30.721  33.940  10.948
63995W        W36321   8.575  42.828   4.620
63996W        W36322   4.364  10.674  10.914
63997W        W36323  25.722   6.751  12.954
63998W        W36324  10.732   2.387   2.647
63999W        W36325   3.299  29.500  11.195
64000W        W36326  13.862  44.401   1.524
64001W        W36327  44.445   7.666   1.829
64002W        W36328  29.532  41.773  11.278
64003W        W36329  35.821   8.370   2.699
64004W        W36330  41.012  33.527  13.283
64005W        W36331  20.110   1.805   1.731
64006W        W36332  24.393  43.143  12.852
64007W        W36333   5.148  14.076  11.552
64008W        W36334  38.849   0.240  13.464
64009W        W36335  25.586  22.973  10.241
64010W        W36336  10.940  35.887   1.729
64011W        W36337  30.692   5.264  12.442
64012W        W36338  11.056   1.423   4.235
64013W        W36339  35.414   6.248   2.402
64014W        W36340  39.329  22.950  13.628
64015W        W36341  35.836  12.369  12.037
64016W        W36342  44.718  17.795   3.139
64017W        W36343  38.908  41.863   4.494
64018W        W36344   8.368  40.411   3.412
64019W        W36345  16.622   9.906  11.824
64020W        W36346   0.598  16.111  11.204
64021W        W36347   5.028  24.512  14.017
64022W        W36348   6.651   2.063  11.445
64023W        W36349  20.828  32.478  12.490
64024W        W36350   3.681  31.486  12.210
64025W        W36351  41.805  42.933   5.103
64026W        W36352  18.299   7.250  11.671
64027W        W36353  37.357  36.065   1.928
64028W        W36354  42.919   8.000  14.358
64029W        W36355  26.597  16.136  11.210
64030W        W36356  24.954  23.100  11.455
64031W        W36357  39.222  12.140   3.101
64032W        W36358  23.102   4.359   1.354
64033W        W36359   0.742   9.227   3.900
64034W        W36360  19.029  32.628  13.487
64035W        W36361   3.470  40.739   0.438
64036W        W36362  26.715  11.116  13.894
64037W        W36363  32.136  17.143  10.720
64038W        W36364  41.424  33.634  13.556
64039W        W36365  31.954   0.386   2.298
64040W        W36366  10.260  11.248   1.880
64041W        W36367  26.091  25.656  13.597
64042W        W36368  44.893  43.027  10.925
64043W        W36369  28.554  29.837   4.126
64044W        W36370  19.711  21.095   1.821
64045W        W36371   5.354  12.633   1.636
64046W        W36372  30.135  12.095   3.306
64047W        W36373  35.765  21.746  11.592
64048W        W36374  37.865  22.951  11.974
64049W        W36375  34.941  21.552  11.979
64050W        W36376  24.459  40.687   1.262
64051W        W36377  12.853  35.611   1.877
64052W        W36378  12.221   8.177  11.499
64053W        W36379  17.844  44.848   2.681
64054W        W36380  20.976  22.706   2.749
64055W        W36381  15.619  19.984  10.416
64056W        W36382  41.623  33.863  11.616
64057W        W36383   7.267   0.847  14.518
64058W        W36384  21.344  44.448  14.456
64059W        W36385  28.102   6.133   0.558
64060W        W36386  32.414  21.782  12.532
64061W        W36387  28.787   2.628  13.311
64062W        W36388  39.337  38.582   0.046
64063W        W36389  28.046  37.030   1.658
64064W        W36390  11.172  23.979   0.861
64065W        W36391  29.122  10.363  11.387
64066W        W36392  14.404  11.652   1.840
64067W        W36393  34.935  37.608  13.098
64068W        W36394  21.616  11.076   4.185
64069W        W36395   6.933   4.686   1.875
64070W        W36396  36.022  43.003  14.531
64071W        W36397  33.553  42.958   2.099
64072W        W36398  36.509   3.518   2.725
64073W        W36399  33.427  35.597   1.881
64074W        W36400   2.024   6.758  10.689
64075W        W36401   4.389   9.166  11.865
64076W        W36402  39.536  16.175   0.271
64077W        W36403  26.088  18.214  10.576
64078W        W36404  24.239  28.210   4.563
64079W        W36405   1.376  42.778   2.537
64080W        W36406  34.104  20.212   3.307
64081W        W36407   6.706  34.840   4.730
64082W        W36408  12.100  15.314   2.188
64083W        W36409   9.705   3.276  13.828
64084W        W36410  16.702  14.047  11.432
64085W        W36411  37.003   7.267  13.490
64086W        W36412  27.706  18.537  12.008
64087W        W36413   0.306  37.297   3.797
64088W        W36414   7.370  23.143   0.438
64089W        W36415   4.214  38.430  11.629
64090W        W36416  14.579  14.196   2.153
64091W        W36417  10.938  34.312  12.159
64092W        W36418  14.284  35.472   1.168
64093W        W36419  36.470  15.817   2.525
64094W        W36420  38.504   5.177   1.387
64095W        W36421   2.268  30.190   0.859
64096W        W36422  25.000  30.444   3.776
64097W        W36423  12.293  35.891  13.758
64098W        W36424  40.352  32.417  13.113
64099W        W36425   0.556  42.416   2.658
64100W        W36426   1.249  33.313   5.001
64101W        W36427  22.819  29.447   2.212
64102W        W36428   6.470   8.353  13.445
64103W        W36429  19.825   1.302  13.586
64104W        W36430   7.821  32.412  13.963
64105W        W36431  15.502   8.171  12.150
64106W        W36432   3.345  19.239   2.743
64107W        W36433  27.180  13.867   2.655
64108W        W36434  31.133  10.279  12.022
64109W        W36435  29.241  24.505   4.984
64110W        W36436  37.015   0.164  14.432
64111W        W36437   1.859   9.960   2.312
64112W        W36438  37.587   4.897  11.529
64113W        W36439  15.592   9.719   0.921
64114W        W36440   0.759  43.058  13.313
64115W        W36441   2.977  21.004  12.003
64116W        W36442  40.426  13.128  13.781
64117W        W36443  15.218  24.674   1.834
64118W        W36444   5.726  31.948   2.863
64119W        W36445  19.537  16.169   4.298
64120W        W36446   2.604  18.004   3.493
64121W        W36447  37.921  35.992   4.604
64122W        W36448  21.347   0.872  10.601
64123W        W36449  23.147  26.242  13.169
64124W        W36450   4.842  15.304   0.510
64125W        W36451   3.794  31.259   4.926
64126W        W36452  20.240  39.938   1.235
64127W        W36453  34.934   9.134  11.739
64128W        W36454  15.120   9.826   2.695
64129W        W36455  12.039   7.910   3.111
64130W        W36456  23.427  13.282   0.744
64131W        W36457  24.826   3.223   0.071
64132W        W36458  19.997  33.495   1.897
64133W        W36459  27.488   1.200  13.875
64134W        W36460  36.495  23.236  11.139
64135W        W36461  25.659  44.871   4.370
64136W        W36462   8.281  40.532  12.546
64137W        W36463  12.634  17.582  11.648
64138W        W36464  27.973  27.930  13.003
64139W        W36465   2.285   8.444   2.991
64140W        W36466  44.034  25.632   3.302
64141W        W36467   7.951  38.885  13.459
64142W        W36468  44.403  33.079  14.656
64143W        W36469   7.169  23.410   2.423
64144W        W36470   2.261  20.023   0.438
64145W        W36471  10.922  22.584  11.104
64146W        W36472  18.782  23.084  11.072
64147W        W36473  22.225  14.175  10.699
64148W        W36474   5.935  42.889   1.382
64149W        W36475  43.876  37.351   1.533
64150W        W36476  38.606   7.646   0.437
64151W        W36477  23.682  22.458  11.011
64152W        W36478  19.616  19.040   0.778
64153W        W36479  16.124  10.162  14.355
64154W        W36480  39.915  20.072  13.360
64155W        W36481  16.274  10.540   3.226
64156W        W36482  14.554  35.761  12.509
64157W        W36483  36.966  36.614  11.437
64158W        W36484  18.617  28.197  12.974
64159W        W36485   1.677   3.011   0.005
64160W        W36486   4.266  22.335  14.820
64161W        W36487   6.911   5.330  13.337
64162W        W36488  10.373   7.340  12.880
64163W        W36489  10.838  39.616   4.915
64164W        W36490   6.362  38.083   0.236
64165W        W36491  21.556  25.161  10.716
64166W        W36492  38.435  26.201   3.797
64167W        W36493  12.233  39.758   3.234
64168W        W36494  40.087  39.853   3.702
64169W        W36495  36.643  33.077   1.596
64170W        W36496   4.143   6.632   1.789
64171W        W36497  32.417   8.247  13.938
64172W        W36498  17.035  19.032   4.903
64173W        W36499  18.144  41.360   3.336
64174W        W36500   1.237   4.421  13.156
64175W        W36501  12.450  33.692   5.528
64176W        W36502  19.124  29.488   4.891
64177W        W36503   9.649  21.333   0.571
64178W        W36504  13.582  42.641  12.917
64179W        W36505  30.362  43.373   4.338
64180W        W36506  18.030  39.112   2.732
64181W        W36507  21.048   9.111   4.177
64182W        W36508  40.812  41.095  13.569
64183W        W36509   1.862  33.351  12.520
64184W        W36510  18.324  35.791  14.836
64185W        W36511   1.332  17.783  14.354
64186W        W36512  30.569  23.736   3.203
64187W        W36513  18.015  31.930   2.225
64188W        W36514   4.244  11.670   5.075
64189W        W36515  28.843   6.351  14.849
64190W        W36516  17.728  24.918  14.912
64191W        W36517  39.379   2.332   0.583
64192W        W36518  20.270  22.560   4.215
64193W        W36519  38.399  31.053  14.344
64194W        W36520   3.515  23.150   2.736
64195W        W36521  36.611  33.834   3.230
64196W        W36522  44.246   4.433  11.517
64197W        W36523  12.823   6.398  12.911
64198W        W36524  18.488  35.589   2.095
64199W        W36525  42.337  17.655   1.338
64200W        W36526  27.128   2.725   4.962
64201W        W36527  20.655  26.521  10.678
64202W        W36528  42.779  13.143  13.933
64203W        W36529  31.628  42.309   4.630
64204W        W36530  19.564  37.873  11.113
64205W        W36531  18.249   0.895   3.905
64206W        W36532  12.570   9.712   2.592
64207W        W36533  27.472  21.959  11.863
64208W        W36534  13.032   7.951  14.797
64209W        W36535  10.900  29.353   1.784
64210W        W36536  30.943  33.598  14.924
64211W        W36537   6.238  19.601  11.032
64212W        W36538  21.978  12.121  12.566
64213W        W36539   9.020   4.104   4.395
64214W        W36540  11.803  29.788   1.621
64215W        W36541  34.637  10.700   1.726
64216W        W36542  39.943  35.990   2.117
64217W        W36543  31.676  34.318  11.615
64218W        W36544  42.880   1.955   2.714
64219W        W36545   3.188  13.734   2.263
64220W        W36546  36.554  26.703  10.796
64221W        W36547  40.046  33.603   1.393
64222W        W36548  15.015  22.039  11.064
64223W        W36549  40.962  35.785  11.238
64224W        W36550  31.634  27.539  13.523
64225W        W36551   9.166  28.070   0.249
64226W        W36552  15.256  14.517   1.450
64227W        W36553  35.492  18.546  14.402
64228W        W36554   8.080  35.289  14.981
64229W        W36555  30.223  13.061   3.273
64230W        W36556  29.709  10.300  13.080
64231W        W36557  43.290  13.262  13.528
64232W        W36558  27.068  22.023   0.303
64233W        W36559  22.541  44.552   2.829
64234W        W36560  24.678  26.881  11.986
64235W        W36561  16.847   0.301   3.126
64236W        W36562   7.391  20.074  13.271
64237W        W36563  25.973  10.720   2.581
64238W        W36564  34.022  37.000  14.985
64239W        W36565  10.053   9.658  14.906
64240W        W36566  12.594  17.612  10.674
64241W        W36567  38.433   7.225  10.602
64242W        W36568  39.271  27.905  14.781
64243W        W36569  30.965   2.304  13.546
64244W        W36570  17.224  30.185  11.041
64245W        W36571  11.740  27.045  13.227
64246W        W36572  13.280  30.238  13.395
64247W        W36573  24.659  25.391  12.526
64248W        W36574  38.579  41.750  12.966
64249W        W36575  15.850   2.551   2.328
64250W        W36576  31.640  35.330   1.948
64251W        W36577  20.286  35.378  14.782
64252W        W36578  43.343  40.045   3.194
64253W        W36579  32.078  24.929   2.895
64254W        W36580  38.384  40.388  12.091
64255W        W36581  34.397  20.238  14.330
64256W        W36582  28.925  31.152   4.249
64257W        W36583  13.793   1.829   3.723
64258W        W36584  11.314   4.882  10.656
64259W        W36585   1.754  24.662   0.396
64260W        W36586   3.703   9.832  13.352
64261W        W36587  13.116  43.232  11.668
64262W        W36588   2.745   7.479   1.910
64263W        W36589   3.785  12.302   3.347
64264W        W36590  29.779  43.955  11.208
64265W        W36591  17.131   3.709  12.923
64266W        W36592  42.014  11.447   3.395
64267W        W36593   1.040  30.552  12.797
64268W        W36594  19.940   2.818   2.928
64269W        W36595   1.874  25.674  14.831
64270W        W36596  24.195  15.077  12.998
64271W        W36597  34.047  39.850   2.182
64272W        W36598   9.713  41.895   0.198
64273W        W36599  29.667  16.866  10.764
64274W        W36600  12.260  34.015   2.240
64275W        W36601  42.671   9.822  10.158
64276W        W36602   6.001  29.240   0.263
64277W        W36603  34.160   2.405  11.566
64278W        W36604   9.010  36.471   4.611
64279W        W36605  27.559  42.573   4.569
64280W        W36606   6.259  41.017  12.921
64281W        W36607   5.967  23.684  13.400
64282W        W36608   4.114  27.273   3.334
64283W        W36609  40.536  18.742   2.403
64284W        W36610   3.927  19.381  11.611
64285W        W36611  24.155  29.465  13.429
64286W        W36612   8.969   3.743   3.229
64287W        W36613  42.769  23.372   9.942
64288W        W36614  44.978  43.759  14.775
64289W        W36615  21.153  38.639   2.440
64290W        W36616  15.752  26.186   2.563
64291W        W36617  27.545  16.656   3.749
64292W        W36618  10.652  32.951   0.794
64293W        W36619  29.435  23.632   2.324
64294W        W36620  26.972  27.172   0.366
64295W        W36621  40.429   1.786  12.203
64296W        W36622  24.228   8.853   4.738
64297W        W36623  11.117  15.771  13.228
64298W        W36624  18.684  20.014   1.775
64299W        W36625  17.266  31.435  11.241
64300W        W36626  19.171  44.484  14.469
64301W        W36627  10.599  43.370   1.983
64302W        W36628  32.052   7.170   2.772
64303W        W36629   0.838   9.834   2.964
64304W        W36630  22.934  44.787  14.743
64305W        W36631  40.413   2.157   2.880
64306W        W36632   3.821  38.498  10.830
64307W        W36633  21.996  11.830  10.981
64308W        W36634  26.557   1.500   2.653
64309W        W36635  15.079  32.568  12.843
64310W        W36636  13.300  15.570  12.920
64311W        W36637  17.748   3.705   3.596
64312W        W36638   3.248  11.178   4.514
64313W        W36639  37.818  17.146  13.370
64314W        W36640  17.676  10.079  12.901
64315W        W36641  21.265   2.617  14.872
64316W        W36642  44.891   8.912  14.946
64317W        W36643   8.344  16.865   1.928
64318W        W36644  13.194  20.067  12.845
64319W        W36645  16.787  14.432  11.081
64320W        W36646  35.180  31.712   4.536
64321W        W36647  10.180  42.931   4.095
64322W        W36648   7.470  36.505  13.490
64323W        W36649  21.264   2.214   1.343
64324W        W36650   6.787   5.373  12.377
64325W        W36651  35.295  19.017  11.141
64326W        W36652  40.837   7.256  12.919
64327W        W36653  26.081  38.616   1.839
64328W        W36654   5.311  10.629  13.508
64329W        W36655  35.691  28.175  11.588
64330W        W36656  22.707  15.901  14.373
64331W        W36657   6.336  34.733  11.503
64332W        W36658  28.217  19.035   2.531
64333W        W36659  27.672  19.697   4.385
64334W        W36660  10.584  42.524  13.895
64335W        W36661   9.278   2.631   1.778
64336W        W36662  10.014  17.111  13.713
64337W        W36663  40.259   4.661  10.930
64338W        W36664   8.235   1.519  14.977
64339W        W36665  32.534  19.363  14.933
64340W        W36666   7.304  17.638  10.626
64341W        W36667  28.779  30.512   3.172
64342W        W36668   0.965   2.514   0.877
64343W        W36669  16.056  20.270  14.983
64344W        W36670  37.050  31.222  12.749
64345W        W36671  17.473  39.855   1.630
64346W        W36672   4.352   2.755   1.119
64347W        W36673  29.394  11.594  11.975
64348W        W36674   0.587  14.121   2.658
64349W        W36675   9.462  24.167  12.958
64350W        W36676  41.618   4.166   2.833
64351W        W36677  30.709  34.211   1.742
64352W        W36678  34.924   4.586   0.676
64353W        W36679  11.157  21.460   4.445
64354W        W36680  42.043  38.810  12.455
64355W        W36681  25.038   4.901  13.862
64356W        W36682   0.723  40.482  13.020
64357W        W36683  31.722  32.955  10.499
64358W        W36684  43.949  14.252  11.955
64359W        W36685  27.185  22.620  10.567
64360W        W36686  32.122  35.128   1.898
64361W        W36687  41.330  13.571   1.200
64362W        W36688  16.685  30.928  10.533
64363W        W36689  29.031  29.683   3.833
64364W        W36690   2.813  32.547  11.738
64365W        W36691   2.850  13.570  14.501
64366W        W36692  42.531   2.783  10.764
64367W        W36693   1.199  39.728   0.994
64368W        W36694  24.440  29.620  14.701
64369W        W36695   3.568  23.334   5.619
64370W        W36696  31.011  23.595   5.260
64371W        W36697  14.258  30.568  12.690
64372W        W36698  23.219  39.403  12.630
64373W        W36699  40.827  32.758  10.742
64374W        W36700  13.728  16.902  12.980
64375W        W36701  30.495  31.395   2.347
64376W        W36702  38.058  43.693  10.888
64377W        W36703  12.836  34.001   9.841
64378W        W36704  19.512  11.525  14.365
64379W        W36705  33.524  10.782   3.058
64380W        W36706  16.770  37.960   4.643
64381W        W36707   1.008  22.905  10.197
64382W        W36708  11.124  12.356  12.577
64383W        W36709  32.495  42.509  10.810
64384W        W36710  19.755  38.258  13.601
64385W        W36711  17.268  34.002   0.913
64386W        W36712  20.697  43.305  11.481
64387W        W36713  38.799  39.271   2.310
64388W        W36714  36.865  28.116  10.946
64389W        W36715  18.851  10.140   0.142
64390W        W36716  21.006  22.146   3.967
64391W        W36717  12.514  19.107   3.398
64392W        W36718   5.214  25.029  14.944
64393W        W36719  21.580  28.925  14.948
64394W        W36720  30.121  28.278  12.040
64395W        W36721  21.443  10.108   2.819
64396W        W36722  39.969   3.669  11.122
64397W        W36723  44.559   7.855   3.227
64398W        W36724  31.142  10.884  11.392
64399W        W36725  15.172  16.083   2.250
64400W        W36726  26.842  37.956   1.415
64401W        W36727   4.007  43.019   3.840
64402W        W36728  24.498  10.436  11.111
64403W        W36729  12.258  35.066   2.764
64404W        W36730  44.006  18.895  12.996
64405W        W36731   7.837   9.392  12.622
64406W        W36732  30.364   0.400  12.496
64407W        W36733  33.263  17.683   2.233
64408W        W36734  17.666  28.208  11.204
64409W        W36735  20.912  22.726  14.042
64410W        W36736   5.189  25.896   0.292
64411W        W36737  32.488   6.787  12.042
64412W        W36738  44.972  37.420  10.578
64413W        W36739  19.124  19.725  11.128
64414W        W36740  18.766  41.335   4.215
64415W        W36741   2.935  12.110  11.058
64416W        W36742  37.502  15.813  14.424
64417W        W36743  16.332   3.082  13.869
64418W        W36744  28.981  20.837   3.846
64419W        W36745  10.706  22.489  12.048
64420W        W36746   2.747  32.099   3.395
64421W        W36747   0.733  14.245  11.950
64422W        W36748  34.449   5.496  12.316
64423W        W36749  33.196  27.246   2.338
64424W        W36750   9.834   3.222   2.219
64425W        W36751  19.271  12.767  12.153
64426W        W36752  12.760   4.583  14.973
64427W        W36753  22.161  15.989  13.279
64428W        W36754  35.498   7.375   0.273
64429W        W36755  11.581  41.021  13.461
64430W        W36756  27.224   8.207   3.561
64431W        W36757   3.042  16.772   0.276
64432W        W36758  25.599  32.840  10.895
64433W        W36759   0.678  21.076  11.572
64434W        W36760   4.983   6.259   0.309
64435W        W36761  41.760   1.456   0.792
64436W        W36762  44.455  34.141   4.593
64437W        W36763  37.584  21.712   2.838
64438W        W36764  24.116  13.074   2.026
64439W        W36765  28.636  18.072   3.190
64440W        W36766   9.251   7.782  14.263
64441W        W36767  13.860  44.859  13.988
64442W        W36768  44.384   3.177   4.983
64443W        W36769  42.322  32.411   4.116
64444W        W36770  39.038   6.756  11.631
64445W        W36771   5.338  24.457   3.433
64446W        W36772  10.894  26.099   2.369
64447W        W36773  12.696  22.527   2.669
64448W        W36774  25.500   3.129   2.118
64449W        W36775  41.976  40.493  13.932
64450W        W36776  37.622  20.403  13.847
64451W        W36777  35.442  32.547   4.792
64452W        W36778   9.949  40.399  10.576
64453W        W36779   6.272  44.526   5.330
64454W        W36780   7.805  42.126   1.935
64455W        W36781  35.606  11.134  10.275
64456W        W36782  24.171  27.620   3.733
64457W        W36783  22.595  41.217  10.635
64458W        W36784  44.807  35.304  13.858
64459W        W36785  39.022  34.448   0.260
64460W        W36786   9.738  30.656   1.239
64461W        W36787  13.720  12.381   3.732
64462W        W36788  15.524  26.575  14.236
64463W        W36789  11.062  13.800  11.572
64464W        W36790  37.832  36.541   4.627
64465W        W36791   6.407   8.815   4.520
64466W        W36792  35.079  10.675  14.044
64467W        W36793  25.222  39.312   3.399
64468W        W36794  41.548  33.264  10.432
64469W        W36795  23.601  17.564  14.514
64470W        W36796  23.096  17.812  14.448
64471W        W36797  29.155   9.744  10.617
64472W        W36798   2.945  38.429  13.953
64473W        W36799  35.020  44.530   1.751
64474W        W36800   4.337  23.571   4.686
64475W        W36801  23.851  17.707  13.845
64476W        W36802   9.743  37.873  13.026
64477W        W36803  36.893  11.703  14.904
64478W        W36804  26.312  20.854   3.763
64479W        W36805  12.106  17.700  12.931
64480W        W36806  22.966  11.144   4.528
64481W        W36807  20.609  30.651   1.373
64482W        W36808  12.258  20.744  10.731
64483W        W36809  17.780   1.061  12.528
64484W        W36810  30.085  29.049  13.563
64485W        W36811  35.970   3.276  12.047
64486W        W36812  40.577   9.926  12.900
64487W        W36813  15.758  33.895  14.957
64488W        W36814   8.195   5.891   3.629
64489W        W36815  21.196  20.317   4.042
64490W        W36816  16.620  23.039  13.135
64491W        W36817  19.759   8.979   3.582
64492W        W36818   8.279  29.047   0.607
64493W        W36819  43.401  34.493  12.176
64494W        W36820  14.645   1.418   4.174
64495W        W36821  24.995  18.379  12.986
64496W        W36822  43.284   6.709  11.888
64497W        W36823  27.523   3.687   1.172
64498W        W36824  18.773  20.980   2.619
64499W        W36825  39.855  16.537  14.388
64500W        W36826  37.673  33.865   3.267
64501W        W36827  23.012  29.421   0.806
64502W        W36828  27.398   4.212   1.540
64503W        W36829  26.676  37.800  11.001
64504W        W36830   1.946   7.395  13.500
64505W        W36831  10.585   6.658  14.017
64506W        W36832  12.766  24.021   1.771
64507W        W36833  10.632   4.970   2.753
64508W        W36834  37.535  22.341  10.894
64509W        W36835  41.253  36.023  14.491
64510W        W36836  43.856  31.994   3.423
64511W        W36837  12.656  21.152   0.414
64512W        W36838  10.146  33.239  14.892
64513W        W36839  35.827  20.473  11.566
64514W        W36840   7.361  19.736  11.154
64515W        W36841  20.280  44.213  12.623
64516W        W36842  40.823  44.895   3.396
64517W        W36843  38.913  32.753   2.566
64518W        W36844  42.253  40.774   2.311
64519W        W36845  13.389   4.546   0.761
64520W        W36846   1.411   8.932  12.827
64521W        W36847  31.453  35.811   0.837
64522W        W36848  40.493  13.187   4.041
64523W        W36849   4.406  17.964   2.146
64524W        W36850   9.271  20.307   4.086
64525W        W36851  36.392  17.711   3.270
64526W        W36852  11.193  20.706  13.065
64527W        W36853  18.609  37.046  11.366
64528W        W36854  26.623  37.060   3.713
64529W        W36855  40.981  24.443   3.775
64530W        W36856   4.782  18.076   3.143
64531W        W36857   6.340  18.725   2.432
64532W        W36858  21.253   3.800  13.053
64533W        W36859  42.464   4.712  12.106
64534W        W36860  44.578   7.941   4.104
64535W        W36861   6.700  35.966  13.466
64536W        W36862   1.002  29.151   3.873
64537W        W36863  44.382  39.528  13.294
64538W        W36864  35.595  23.213  14.675
64539W        W36865  19.431  27.401  11.107
64540W        W36866   0.341   5.904   2.278
64541W        W36867  31.999   8.756   4.398
64542W        W36868  43.806  34.017   2.419
64543W        W36869   5.987  20.630  13.827
64544W        W36870  21.050  14.323   3.370
64545W        W36871   3.808  43.627  14.647
64546W        W36872  33.471  39.069  14.233
64547W        W36873   7.767   5.657  10.084
64548W        W36874  21.645  10.224  14.583
64549W        W36875  25.167  20.930  10.121
64550W        W36876  27.663   4.277  12.844
64551W        W36877  21.756   9.856  13.839
64552W        W36878  30.834  26.000   1.000
64553W        W36879  21.565   4.230   0.651
64554W        W36880  22.653  17.608   5.177
64555W        W36881  41.874   2.867   3.183
64556W        W36882  20.438  34.814   0.658
64557W        W36883  33.162  42.315  11.046
64558W        W36884  29.852  37.255   0.021
64559W        W36885  15.710   0.974   0.728
64560W        W36886  13.695  25.563   4.321
64561W        W36887   0.770  10.204   2.186
64562W        W36888  40.904  20.521   2.371
64563W        W36889  27.365  40.419   1.622
64564W        W36890   7.087  28.562   0.552
64565W        W36891   3.889   7.823  13.073
64566W        W36892  27.981   3.597   0.431
64567W        W36893  24.637  29.191  11.198
64568W        W36894   8.159  36.846   0.436
64569W        W36895  20.309  11.778  10.474
64570W        W36896   9.088  10.065   0.644
64571W        W36897  42.336  11.684  13.533
64572W        W36898  20.921  42.027  13.828
64573W        W36899  28.620  28.611  11.913
64574W        W36900  44.165  15.779   0.237
64575W        W36901  10.197  19.461  12.323
64576W        W36902   1.969  39.371   0.627
64577W        W36903  21.278  39.063  11.095
64578W        W36904  21.162  38.388  10.259
64579W        W36905   9.743  10.403   2.104
64580W        W36906  24.614  30.347   0.449
64581W        W36907  26.150   7.484  11.079
64582W        W36908  14.817  38.266   0.538
64583W        W36909   0.679  35.041   4.193
64584W        W36910  19.605  44.960   3.017
64585W        W36911   6.382  34.825   1.243
64586W        W36912  21.176  27.620   3.146
64587W        W36913  12.254  15.693  14.917
64588W        W36914  39.117  13.629   3.263
64589W        W36915  11.060  33.533  13.077
64590W        W36916  28.755   8.760   2.340
64591W        W36917  38.473  30.388  12.876
64592W        W36918   4.289  34.155   1.829
64593W        W36919  27.667  10.187   3.208
64594W        W36920  13.154  11.243   4.756
64595W        W36921   1.334  37.420   4.470
64596W        W36922  21.671  34.887   2.753
64597W        W36923  25.752  43.893   0.346
64598W        W36924  22.490  43.433  10.935
64599W        W36925  44.975  11.593   2.295
64600W        W36926  20.151  39.425   1.351
64601W        W36927  16.087  41.998   0.781
64602W        W36928   6.727  41.420   3.754
64603W        W36929  36.341  13.954  12.597
64604W        W36930  15.185  25.685  11.340
64605W        W36931  25.775  23.050  13.100
64606W        W36932   4.314   8.206   2.818
64607W        W36933  39.396  11.849   4.530
64608W        W36934  15.595  31.881   1.721
64609W        W36935  22.700  12.898   4.456
64610W        W36936  36.907   7.593  13.102
64611W        W36937  13.119  12.591  13.045
64612W        W36938  13.220   5.784   2.313
64613W        W36939  39.150  27.194   3.687
64614W        W36940   6.305  10.975   2.738
64615W        W36941  44.743  34.871  13.566
64616W        W36942   4.634  32.358  12.148
64617W        W36943  29.433  10.179  10.715
64618W        W36944  24.308  16.013  11.794
64619W        W36945  10.758  28.690  13.469
64620W        W36946   8.464   4.685   3.735
64621W        W36947  22.134  13.175  14.306
64622W        W36948   7.245  12.674   4.300
64623W        W36949  31.512  12.365   0.034
64624W        W36950  11.820   1.386  13.323
64625W        W36951  41.756  26.937   0.447
64626W        W36952   4.312  15.943  13.084
64627W        W36953  42.842  29.632  13.813
64628W        W36954  11.287  27.241  14.050
64629W        W36955  31.521  32.829  11.559
64630W        W36956  16.043  13.197   0.834
64631W        W36957  43.527   0.703  13.977
64632W        W36958   9.359  11.219   3.102
64633W        W36959  21.156  32.186  13.429
64634W        W36960  31.017  24.788  12.927
64635W        W36961   1.198  21.777  12.624
64636W        W36962   1.880  38.887  13.467
64637W        W36963   9.223   0.915  13.224
64638W        W36964   7.184  20.700  14.450
64639W        W36965  44.087   4.650   4.224
64640W        W36966  25.013  17.202  14.323
64641W        W36967  11.673  15.978   4.235
64642W        W36968  22.585  14.867   5.616
64643W        W36969  33.040   9.256  13.851
64644W        W36970  34.933  35.952   5.435
64645W        W36971  44.702  13.915  14.973
64646W        W36972  40.957  43.392  14.552
64647W        W36973  39.353  40.021  13.423
64648W        W36974   2.340   8.532  11.268
64649W        W36975  13.370  24.960   0.393
64650W        W36976  26.815  20.313   3.270
64651W        W36977  19.983  26.150   3.117
64652W        W36978  29.864  35.324  13.004
64653W        W36979  16.502  22.479  10.911
64654W        W36980  40.270   8.724  11.463
64655W        W36981  39.684  31.121   0.340
64656W        W36982  16.394   5.026  13.860
64657W        W36983   8.124   1.099   2.253
64658W        W36984  21.515  14.774  13.332
64659W        W36985  33.492   6.901   0.499
64660W        W36986  30.097   2.481   1.908
64661W        W36987  16.209  19.640   2.171
64662W        W36988   6.991   7.798  12.903
64663W        W36989  36.763  12.203   4.580
64664W        W36990  23.595   7.010   3.701
64665W        W36991  21.260  21.603   3.226
64666W        W36992  24.091  27.767   2.306
64667W        W36993   0.800  20.617   0.675
64668W        W36994   9.412  19.225  10.797
64669W        W36995  15.680  20.910   5.081
64670W        W36996   2.213  12.442   2.619
64671W        W36997   7.505  27.683   2.011
64672W        W36998  44.438  43.284  11.924
64673W        W36999   6.895  12.361   2.763
64674W        W37000  36.395   3.146  13.410
64675W        W37001  44.840   4.032   1.350
64676W        W37002  28.555   2.167   4.624
64677W        W37003  26.300  22.117  14.536
64678W        W37004  23.718  10.874  13.589
64679W        W37005  29.956  28.523  14.800
64680W        W37006  38.806  15.653  10.798
64681W        W37007  22.037  18.792   0.398
64682W        W37008  13.720  30.852   0.772
64683W        W37009  23.602  39.883   4.777
64684W        W37010   4.838  31.865  14.809
64685W        W37011   2.776  27.110   0.762
64686W        W37012  37.822  33.709  11.160
64687W        W37013   2.318  10.757   3.446
64688W        W37014  44.840   3.771   2.226
64689W        W37015   2.684   3.177   4.652
64690W        W37016   2.839   2.818  11.066
64691W        W37017   2.718  19.732  10.705
64692W        W37018  36.140  23.235  11.588
64693W        W37019   4.077  27.454  14.040
64694W        W37020  37.107  16.235   4.118
64695W        W37021  23.509  22.723   0.964
64696W        W37022  38.354  14.321  14.249
64697W        W37023  21.244  36.421   2.697
64698W        W37024  26.102   9.595   0.480
64699W        W37025  42.994   6.818   3.690
64700W        W37026   4.629  24.533   1.265
64701W        W37027   1.469  12.234   9.642
64702W        W37028  26.129  44.865   3.336
64703W        W37029  38.445  28.619  11.495
64704W        W37030  27.562  29.397   0.128
64705W        W37031   4.935  20.107  11.135
64706W        W37032  22.155  36.110   3.595
64707W        W37033  16.445  10.368  14.725
64708W        W37034  29.502   0.454  11.014
64709W        W37035  27.106  27.190   4.026
64710W        W37036  32.536  32.630  13.992
64711W        W37037  13.760  23.457  14.285
64712W        W37038  12.647   8.162  12.316
64713W        W37039  44.431  39.085  13.040
64714W        W37040   8.069  42.368   3.740
64715W        W37041   9.662   5.806   0.746
64716W        W37042  39.430  17.353  12.273
64717W        W37043  21.966  32.088  14.048
64718W        W37044   4.460  11.395   3.748
64719W        W37045  28.458  36.851   4.259
64720W        W37046  28.014  40.129   3.363
64721W        W37047  18.746  14.193   2.841
64722W        W37048  21.206  10.886   3.932
64723W        W37049  18.211  12.095  11.488
64724W        W37050   4.311  32.494   4.370
64725W        W37051  41.436   9.176   1.859
64726W        W37052  16.639   9.409  11.963
64727W        W37053  22.145  16.250  12.630
64728W        W37054   6.368  22.201   1.328
64729W        W37055  12.364  30.424   0.853
64730W        W37056  34.979  36.074  14.680
64731W        W37057   0.788   5.726   3.211
64732W        W37058   5.310  41.991   2.406
64733W        W37059  43.008  39.899  12.741
64734W        W37060  26.460  36.037   2.944
64735W        W37061  14.902  14.923   1.403
64736W        W37062   9.679  44.722  12.102
64737W        W37063   2.519  24.175   3.664
64738W        W37064  35.628  26.536   2.834
64739W        W37065   9.478  43.133  12.624
64740W        W37066   5.764  35.512   2.282
64741W        W37067   9.942  23.740  11.075
64742W        W37068  17.152   8.936  12.626
64743W        W37069  16.253  33.694   1.735
64744W        W37070  33.107  44.418  11.150
64745W        W37071  13.683  30.916   0.259
64746W        W37072   9.401  20.874  11.535
64747W        W37073  42.791  29.405   4.100
64748W        W37074  37.811   0.814   3.280
64749W        W37075  20.487   4.842  11.131
64750W        W37076   1.240  10.798  13.111
64751W        W37077  22.593   4.497   4.751
64752W        W37078  20.111   4.413  13.563
64753W        W37079  25.575  15.118  12.923
64754W        W37080  10.807  39.875   0.442
64755W        W37081   0.277  23.749   1.486
64756W        W37082   8.625   1.101  11.668
64757W        W37083  27.992  12.720   5.003
64758W        W37084  30.018   5.173   3.181
64759W        W37085   2.793   9.148   0.499
64760W        W37086   4.349  37.103   4.621
64761W        W37087  35.479  25.936  11.161
64762W        W37088  41.761  17.034  11.163
64763W        W37089   2.151  14.452  12.470
64764W        W37090   6.057  10.615  14.015
64765W        W37091   4.977  38.631   2.402
64766W        W37092  13.093   0.908   1.583
64767W        W37093   5.944  24.999   2.803
64768W        W37094  30.681  14.215   1.009
64769W        W37095  12.915  42.425   4.469
64770W        W37096   2.958  44.458  11.509
64771W        W37097  13.650  26.443   3.358
64772W        W37098  37.211   6.262  13.344
64773W        W37099  43.560   4.133   1.772
64774W        W37100  14.690  41.469  12.971
64775W        W37101  24.995  44.006  10.493
64776W        W37102   8.374  31.079   0.724
64777W        W37103  16.154  14.636   1.250
64778W        W37104  14.690  35.529   5.476
64779W        W37105   9.296  27.992   2.204
64780W        W37106  24.467  18.186   3.086
64781W        W37107  20.232  20.253  12.230
64782W        W37108   2.888  42.555   3.159
64783W        W37109   8.682   6.102   3.582
64784W        W37110  37.398  43.311   2.252
64785W        W37111  15.780   6.440  11.874
64786W        W37112  39.545  44.488  14.588
64787W        W37113   6.671  34.952  11.961
64788W        W37114  30.542  38.061   2.915
64789W        W37115   4.366   6.797   3.934
64790W        W37116  24.731  10.420  10.614
64791W        W37117   0.829  19.195  13.045
64792W        W37118  13.980  35.414  11.963
64793W        W37119  23.629  20.126   1.292
64794W        W37120  17.376   9.987   0.355
64795W        W37121  11.609  35.472  12.619
64796W        W37122  14.581  13.580   0.824
64797W        W37123  10.433  40.360   3.663
64798W        W37124  23.303  27.442   4.135
64799W        W37125  36.987   1.769   4.337
64800W        W37126  21.131  28.084   5.139
64801W        W37127  42.503  40.953  13.795
64802W        W37128  36.182  10.928  11.068
64803W        W37129  23.100  15.385   2.853
64804W        W37130  26.683  16.889  14.314
64805W        W37131  20.766  44.278   4.152
64806W        W37132  31.132  28.217  12.127
64807W        W37133  15.872  37.112   4.502
64808W        W37134   1.498  29.059   0.284
64809W        W37135  36.187  41.552  11.498
64810W        W37136  13.393   7.301   2.167
64811W        W37137  25.093  33.946  14.976
64812W        W37138  26.933  30.320  11.524
64813W        W37139  42.680   5.196   4.886
64814W        W37140  37.522   6.279   0.005
64815W        W37141  44.298  34.170  10.765
64816W        W37142  38.059   7.869  13.444
64817W        W37143  37.881  39.793   3.129
64818W        W37144  40.758  31.360   3.740
64819W        W37145  35.098  41.892   1.281
64820W        W37146  19.734   2.513   3.311
64821W        W37147  27.999   7.870   3.595
64822W        W37148  21.418   7.814  10.541
64823W        W37149   1.256   6.947   2.332
64824W        W37150  21.983  37.446  12.899
64825W        W37151  19.898  29.214   4.960
64826W        W37152  21.987  15.715   2.353
64827W        W37153  25.537  23.284  12.689
64828W        W37154   0.830  34.908  14.007
64829W        W37155  28.254  19.075  12.759
64830W        W37156   4.240   3.289   1.915
64831W        W37157  13.050  29.224  13.574
64832W        W37158  19.656  31.646  11.149
64833W        W37159  23.797  28.484   2.740
64834W        W37160  17.456  14.881  11.929
64835W        W37161  34.175  36.171   3.303
64836W        W37162  40.466  29.028   0.304
64837W        W37163  37.803  40.065  13.468
64838W        W37164   9.127  44.239   1.819
64839W        W37165   8.036  24.729  10.734
64840W        W37166  29.617  16.357  14.842
64841W        W37167  16.385  23.297  13.547
64842W        W37168  29.948   6.789  14.536
64843W        W37169   3.642  38.628   0.598
64844W        W37170  19.035  11.213  10.771
64845W        W37171  17.522  39.558   0.946
64846W        W37172  44.588  14.753   3.141
64847W        W37173  39.274  22.624   4.239
64848W        W37174  14.146  37.037  11.297
64849W        W37175  41.030   5.799   2.178
64850W        W37176   6.184  37.529   2.446
64851W        W37177  38.591  25.991   0.507
64852W        W37178  34.076   6.174   0.310
64853W        W37179   1.895  17.175   2.964
64854W        W37180  38.282  19.197   0.338
64855W        W37181   4.788  43.106   0.829
64856W        W37182  35.114  17.462  12.054
64857W        W37183  37.390  37.958   4.447
64858W        W37184  36.535  25.605   2.885
64859W        W37185  33.502  12.094  12.923
64860W        W37186  25.985   1.931  13.835
64861W        W37187  15.638  21.979  10.125
64862W        W37188   2.255  34.534  11.097
64863W        W37189   9.597  31.079  11.413
64864W        W37190   6.374   2.930  10.705
64865W        W37191  14.307   1.926   3.617
64866W        W37192   0.149   2.448  12.074
64867W        W37193  28.266  31.956   1.905
64868W        W37194   5.602   7.454   2.242
64869W        W37195  27.209  42.279   2.751
64870W        W37196  22.997  25.137  14.836
64871W        W37197   2.447  18.748   1.837
64872W        W37198   2.439  36.250  13.212
64873W        W37199  13.423  31.276  11.596
64874W        W37200  33.359  13.642  12.069
64875W        W37201   6.784  31.132  14.863
64876W        W37202  41.563  34.136  10.803
64877W        W37203  24.624   0.375  13.341
64878W        W37204  13.526   4.713  14.438
64879W        W37205  31.473  16.767  14.966
64880W        W37206   6.847  28.187   1.588
64881W        W37207  37.444  41.512   0.323
64882W        W37208  24.404  10.155   3.162
64883W        W37209  42.468  31.614   4.053
64884W        W37210  41.321  10.123   2.204
64885W        W37211  16.273  11.193  12.030
64886W        W37212  32.575  11.151  13.076
64887W        W37213  37.823  14.763  13.265
64888W        W37214   6.097  16.116   1.006
64889W        W37215  36.569  11.906   4.043
64890W        W37216  30.385  40.344  11.951
64891W        W37217  21.382  21.155  14.569
64892W        W37218  25.471  17.334   2.301
64893W        W37219  38.886  36.605  13.083
64894W        W37220   0.857  43.479  11.569
64895W        W37221  31.973   4.990   3.893
64896W        W37222  41.847  23.190  13.836
64897W        W37223  34.683  24.931  11.255
64898W        W37224  31.688   6.735   1.632
64899W        W37225  20.606  29.121   4.667
64900W        W37226  16.015  44.323  12.945
64901W        W37227   3.193  15.382  12.526
64902W        W37228   9.304  24.717   5.314
64903W        W37229  10.223  17.769   4.749
64904W        W37230  42.444  19.918  11.838
64905W        W37231  32.037  20.569   2.155
64906W        W37232   3.304  43.979   4.118
64907W        W37233  42.412  20.528   0.973
64908W        W37234  10.283   8.686  10.108
64909W        W37235  25.496   8.530  12.129
64910W        W37236  26.912  11.317   3.138
64911W        W37237  26.155  13.904   1.475
64912W        W37238   7.483  22.005   2.823
64913W        W37239  43.458  23.105  12.805
64914W        W37240  43.801  11.614   0.908
64915W        W37241  15.171  15.709  14.855
64916W        W37242  12.092  42.950  13.873
64917W        W37243  25.236   7.980   4.367
64918W        W37244  21.686  20.805  12.620
64919W        W37245  10.877  21.991  12.067
64920W        W37246  32.815  41.242  13.137
64921W        W37247  27.917  43.444   0.872
64922W        W37248  32.133  21.096   4.639
64923W        W37249  31.626  10.994   3.381
64924W        W37250  27.439  37.030  14.061
64925W        W37251  33.967  15.616  10.719
64926W        W37252   6.747  15.495   1.216
64927W        W37253  30.944  27.388  13.302
64928W        W37254  25.983  27.966  13.816
64929W        W37255  28.624  36.848  11.054
64930W        W37256  14.882  16.797   0.401
64931W        W37257   8.124  27.900  12.120
64932W        W37258   9.110  27.013   3.373
64933W        W37259  32.441  36.138   2.922
64934W        W37260  39.335  34.510  12.475
64935W        W37261   2.204  22.423   2.774
64936W        W37262  10.779  37.560   0.737
64937W        W37263  22.156  32.186  10.971
64938W        W37264  23.091  30.066   3.036
64939W        W37265  31.986  12.899  12.774
64940W        W37266   4.970   8.553   3.618
64941W        W37267  41.979  31.979  10.491
64942W        W37268   8.347  22.555  14.390
64943W        W37269  17.477  30.958  12.021
64944W        W37270   5.347   1.376  10.450
64945W        W37271  12.009   9.900  14.096
64946W        W37272  31.559   7.199   3.353
64947W        W37273  22.962  32.939   4.406
64948W        W37274   1.887  26.396   3.614
64949W        W37275  42.879  31.129  13.086
64950W        W37276  32.165  34.574  13.672
64951W        W37277  37.612  20.912  13.942
64952W        W37278  13.661  10.472   1.799
64953W        W37279  20.958   1.868   4.660
64954W        W37280  13.151  14.429  14.822
64955W        W37281  37.241  18.557  14.047
64956W        W37282   9.805  27.145  12.589
64957W        W37283  21.039  20.286   3.526
64958W        W37284  13.281  40.004   4.394
64959W        W37285  24.459  34.127   3.618
64960W        W37286  11.386  40.941   1.170
64961W        W37287  22.598  27.104  12.800
64962W        W37288  12.147   3.340  11.375
64963W        W37289  11.158  32.192   1.072
64964W        W37290  37.662  37.531  11.228
64965W        W37291  35.601  15.694  11.148
64966W        W37292   2.076   5.651   0.390
64967W        W37293   1.844   0.310  14.781
64968W        W37294  23.486  11.312   1.910
64969W        W37295  36.263  32.057  11.095
64970W        W37296   5.622  17.290   2.335
64971W        W37297   3.433  37.040  12.580
64972W        W37298  13.856  25.629   2.170
64973W        W37299  27.982  23.137  13.899
64974W        W37300  33.133  27.635  14.987
64975W        W37301  16.273  40.917  14.410
64976W        W37302   0.121  41.972   0.505
64977W        W37303   9.387  25.714  11.774
64978W        W37304  23.914  26.236   0.931
64979W        W37305  33.421  43.021  13.854
64980W        W37306  38.380  10.145   0.334
64981W        W37307  16.111  37.964  14.714
64982W        W37308  40.811  18.137  10.581
64983W        W37309  42.343  26.051  12.976
64984W        W37310  11.873  36.118   1.871
64985W        W37311   3.042   3.001   3.045
64986W        W37312  30.168  16.006  14.590
64987W        W37313  37.134  36.342   0.277
64988W        W37314   3.488   8.815  10.751
64989W        W37315   1.021  10.340  12.459
64990W        W37316  38.284  19.648   1.913
64991W        W37317  43.929  38.950   0.438
64992W        W37318  39.155  41.901  14.128
64993W        W37319  35.712   0.669  12.468
64994W        W37320  13.053  18.599   5.008
64995W        W37321  18.282  38.580  13.237
64996W        W37322  17.219  27.139   4.548
64997W        W37323  43.460  13.700   0.569
64998W        W37324  18.681  18.780   4.800
64999W        W37325   0.380  31.807   2.123
65000W        W37326  35.670  22.020   2.122
65001W        W37327   7.353  16.753   3.396
65002W        W37328  29.236  44.930  12.055
65003W        W37329   5.202   0.701   1.817
65004W        W37330   2.253   8.691   1.488
65005W        W37331  14.778   6.188   0.697
65006W        W37332  43.412  21.724  11.513
65007W        W37333  17.688  21.670   0.489
65008W        W37334  33.452  12.580   4.592
65009W        W37335  21.531  30.161   1.442
65010W        W37336   4.848   6.562   1.197
65011W        W37337  38.319  25.442  10.636
65012W        W37338  13.097  10.228   2.353
65013W        W37339  35.378  20.268  11.641
65014W        W37340  35.901   6.911  12.130
65015W        W37341  40.443  10.728  13.808
65016W        W37342  42.292  25.927   4.774
65017W        W37343  28.480  13.577  11.583
65018W        W37344   9.829  42.603  12.058
65019W        W37345  38.152   2.430  10.568
65020W        W37346  14.745   2.297   3.730
65021W        W37347  26.447  12.817   1.421
65022W        W37348  26.455  27.163   2.828
65023W        W37349   4.781   3.528   2.610
65024W        W37350  43.848   5.805   2.184
65025W        W37351  36.025   7.338  13.966
65026W        W37352  21.842  12.125  13.114
65027W        W37353  19.206  35.996   3.716
65028W        W37354  10.553  20.787  11.069
65029W        W37355  25.571  44.694  12.076
65030W        W37356   8.900  25.373  13.814
65031W        W37357  25.666  25.056  13.451
65032W        W37358  16.967  38.105  14.854
65033W        W37359  21.310  44.023  11.113
65034W        W37360  34.093  19.162   3.399
65035W        W37361  42.364  23.175   1.290
65036W        W37362  42.915  11.807  13.794
65037W        W37363  40.227  24.358   3.441
65038W        W37364  12.681  23.874  10.921
65039W        W37365  33.616  20.189  12.174
65040W        W37366  32.530  10.322  10.043
65041W        W37367  40.181  34.282   5.371
65042W        W37368  15.185   6.257  14.336
65043W        W37369  21.111  20.030   1.986
65044W        W37370  17.300  35.678   4.702
65045W        W37371  26.616   2.710  10.620
65046W        W37372  11.765  29.897   0.434
65047W        W37373  21.588  23.997  10.702
65048W        W37374  15.779  39.731   1.388
65049W        W37375  36.823   3.327   4.549
65050W        W37376   7.121  43.870  11.094
65051W        W37377   0.524   5.916   0.793
65052W        W37378  13.300  22.694   3.315
65053W        W37379   5.217  42.808   0.794
65054W        W37380  43.847  44.965  13.586
65055W        W37381  38.795   4.756   1.252
65056W        W37382  15.512  11.230  14.948
65057W        W37383  24.061  38.552   4.136
65058W        W37384  30.075  35.754   2.224
65059W        W37385  42.269   3.151  11.043
65060W        W37386  42.990  42.769   3.722
65061W        W37387  36.726  40.445   3.251
65062W        W37388  16.315  43.581  14.439
65063W        W37389  18.153   6.005   1.829
65064W        W37390  19.655  16.536  10.508
65065W        W37391  32.096  42.042  13.422
65066W        W37392  41.018  21.390   4.170
65067W        W37393  21.735   0.107  13.874
65068W        W37394  19.181  33.125   2.911
65069W        W37395  18.471   5.359  13.712
65070W        W37396   9.465   2.165   1.675
65071W        W37397   6.690  11.331   2.751
65072W        W37398  26.716  43.349  12.067
65073W        W37399  42.502  30.675   4.216
65074W        W37400  27.642  39.427  11.989
65075W        W37401  22.498  43.351  12.358
65076W        W37402  18.146  20.094   4.098
65077W        W37403   4.931   3.900   2.278
65078W        W37404  19.494   7.416  13.080
65079W        W37405  20.535  24.388   2.766
65080W        W37406  17.341   8.413  12.526
65081W        W37407   7.934  37.066  11.579
65082W        W37408   9.906  35.988  11.982
65083W        W37409  24.479   5.215  11.885
65084W        W37410  35.993  24.087   0.179
65085W        W37411  43.771  31.119  11.408
65086W        W37412  24.243  20.179   3.689
65087W        W37413  33.352  24.558   3.143
65088W        W37414   2.701  37.630  13.538
65089W        W37415  19.655  36.595  12.658
65090W        W37416  41.473   4.207   4.865
65091W        W37417   1.136  27.945  12.229
65092W        W37418  30.076  15.869  13.645
65093W        W37419   4.407   7.662  10.667
65094W        W37420  29.736  17.008   1.646
65095W        W37421   0.335  16.842   3.741
65096W        W37422  11.091   9.204  13.395
65097W        W37423   0.491  41.552   2.707
65098W        W37424  10.432  23.224   4.596
65099W        W37425   4.786  37.476  11.432
65100W        W37426  40.231   3.439   1.310
65101W        W37427  28.104  12.352  12.990
65102W        W37428  17.271  35.660  12.934
65103W        W37429  30.472  17.640  11.207
65104W        W37430  28.889  33.722   2.628
65105W        W37431  26.536  13.975   1.859
65106W        W37432  18.256  28.030  14.916
65107W        W37433  25.428  44.203   0.580
65108W        W37434   3.304  18.459  11.613
65109W        W37435  12.188  24.989   1.385
65110W        W37436  42.084   1.450   1.267
65111W        W37437  32.765  27.997  10.368
65112W        W37438  34.581  36.906   1.291
65113W        W37439  40.430  18.745   1.486
65114W        W37440   2.020  21.163  12.069
65115W        W37441  26.028  12.649   0.561
65116W        W37442   2.398  16.893   1.181
65117W        W37443   6.853  20.602  13.567
65118W        W37444  17.606  11.139   3.175
65119W        W37445  38.054  32.614   0.970
65120W        W37446  41.070  28.800  13.038
65121W        W37447  26.168  23.239   1.815
65122W        W37448  29.044  39.285   3.095
65123W        W37449  28.701  15.928   1.870
65124W        W37450   2.390  42.119  13.944
65125W        W37451  42.828  21.223   4.627
65126W        W37452   4.703  24.418   0.440
65127W        W37453  16.152  23.046  14.724
65128W        W37454  39.407   5.803  13.016
65129W        W37455   0.342  19.697  13.984
65130W        W37456   7.202  24.472  14.147
65131W        W37457  31.976  24.235   4.626
65132W        W37458  25.623  31.837   3.800
65133W        W37459  11.702  23.128   1.424
65134W        W37460   0.518  27.565   0.468
65135W        W37461  34.907  11.078  11.549
65136W        W37462  22.353  19.223  13.451
65137W        W37463  33.682  36.894  10.674
65138W        W37464  31.824  20.736   5.044
65139W        W37465  23.979  12.224  11.178
65140W        W37466  34.358  24.517  11.028
65141W        W37467   0.407  33.879  14.804
65142W        W37468   5.594   6.638  12.983
65143W        W37469   1.730  14.052   0.916
65144W        W37470  16.678   3.399   0.693
65145W        W37471  40.270   5.870   0.334
65146W        W37472  26.546   2.764   4.489
65147W        W37473   2.762  10.448  11.643
65148W        W37474  38.460  33.615   3.863
65149W        W37475   2.193  22.200   5.087
65150W        W37476   1.180  13.713  14.065
65151W        W37477  18.145  24.495  11.530
65152W        W37478  19.780  24.021  10.999
65153W        W37479   3.397  33.161  12.555
65154W        W37480  14.838   1.901  12.951
65155W        W37481  40.850  42.045  12.506
65156W        W37482  35.793  35.578   0.750
65157W        W37483  20.898  12.227  11.614
65158W        W37484  43.700  23.105  10.671
65159W        W37485  15.125  22.782  12.678
65160W        W37486  36.519  42.000  11.510
65161W        W37487   8.112  41.532  11.080
65162W        W37488  22.621   5.350   3.752
65163W        W37489  12.500  12.705   2.934
65164W        W37490   7.822   8.074  11.558
65165W        W37491   2.207  20.234  14.952
65166W        W37492  41.793  11.907  10.827
65167W        W37493   0.443  23.441   0.520
65168W        W37494  19.565  21.625  12.516
65169W        W37495  15.661   4.717  13.480
65170W        W37496  13.271  20.063   3.730
65171W        W37497   3.938  36.173  14.080
65172W        W37498  44.294  28.425  12.040
65173W        W37499  43.787  35.502   0.589
65174W        W37500  40.571  34.318   0.112
65175W        W37501  14.675  43.937  13.648
65176W        W37502  22.350  20.944   2.844
65177W        W37503  30.112  25.807  12.513
65178W        W37504  43.045  10.548  12.301
65179W        W37505  33.279  32.189   2.831
65180W        W37506  15.574  14.731   4.547
65181W        W37507  11.886   9.439  13.902
65182W        W37508   8.382  27.551  14.317
65183W        W37509   2.429  23.579  12.545
65184W        W37510  13.308  19.526   2.268
65185W        W37511  31.136  31.546  13.496
65186W        W37512  27.980  36.152  14.042
65187W        W37513  20.906  15.398   1.225
65188W        W37514  33.997  39.879   1.213
65189W        W37515  12.070   2.749  14.987
65190W        W37516  40.373  42.598   3.301
65191W        W37517  18.173  16.608  14.738
65192W        W37518   1.903  16.685   2.842
65193W        W37519  41.343  11.059   1.328
65194W        W37520  28.403  35.398   4.603
65195W        W37521   5.910  15.775   0.473
65196W        W37522  29.444  33.379   4.018
65197W        W37523  33.492  39.861   1.459
65198W        W37524   0.487   3.330  10.890
65199W        W37525   9.815   5.245   4.504
65200W        W37526  29.626  26.837   1.761
65201W        W37527  34.511   0.976   3.419
65202W        W37528  33.496  13.910  14.285
65203W        W37529   0.259  44.312  11.860
65204W        W37530  23.533   9.005  11.574
65205W        W37531  33.819  21.995   3.252
65206W        W37532  23.473  17.624  13.528
65207W        W37533  18.701  35.385  13.283
65208W        W37534  32.697  41.895   0.759
65209W        W37535  26.220  32.531   1.221
65210W        W37536  12.217   5.760   1.485
65211W        W37537  15.599   8.170   2.933
65212W        W37538  34.302  18.142   0.940
65213W        W37539   9.259  39.754   2.696
65214W        W37540  40.257  31.156  13.564
65215W        W37541  34.353  19.530  11.597
65216W        W37542  38.256  18.884  10.537
65217W        W37543  40.989  38.803  11.404
65218W        W37544  43.419  17.226  14.037
65219W        W37545   0.373  17.886   1.653
65220W        W37546  20.175  34.357   2.246
65221W        W37547  31.571   8.750  10.416
65222W        W37548  18.552   2.278  13.650
65223W        W37549  35.038   4.012   2.205
65224W        W37550   2.703   5.032   5.676
65225W        W37551   6.519  17.677  13.921
65226W        W37552  14.152  18.188  12.077
65227W        W37553  14.709  23.471   1.859
65228W        W37554   5.196   6.407   1.583
65229W        W37555  18.139  29.313   0.919
65230W        W37556  20.092  43.738   2.118
65231W        W37557  14.086  20.678  11.664
65232W        W37558  39.787  41.907  12.152
65233W        W37559   0.629  22.392  12.605
65234W        W37560  41.511  30.076  12.173
65235W        W37561  11.654  31.662  11.068
65236W        W37562  20.810  27.461  10.768
65237W        W37563  26.447   0.718  12.053
65238W        W37564  18.007   3.494   0.967
65239W        W37565   1.542   8.821  14.913
65240W        W37566  23.222  25.119   3.085
65241W        W37567  23.700  28.438   1.857
65242W        W37568  16.814  24.084   4.317
65243W        W37569  28.594  27.443  10.756
65244W        W37570  25.200  23.273   3.818
65245W        W37571  43.491  22.513   1.359
65246W        W37572   2.749  31.631  11.954
65247W        W37573  31.655  12.009  11.155
65248W        W37574  17.894  11.343   1.591
65249W        W37575   1.969   9.437  12.121
65250W        W37576  22.163  35.774  10.661
65251W        W37577  44.835  33.941  12.983
65252W        W37578   6.961   2.981   0.431
65253W        W37579  31.115   3.874  13.922
65254W        W37580  26.649   2.531  12.622
65255W        W37581   5.828  33.943  11.655
65256W        W37582  42.119  12.213  14.091
65257W        W37583   0.200  13.447  13.945
65258W        W37584  17.628  10.986  13.866
65259W        W37585   4.960  14.499   2.182
65260W        W37586   8.610  37.054  13.794
65261W        W37587  39.455   0.762  12.846
65262W        W37588   2.137  11.677  11.026
65263W        W37589   0.316  13.704   2.750
65264W        W37590  11.910   8.771  10.689
65265W        W37591  25.063  34.067   0.955
65266W        W37592  24.689  18.807   3.699
65267W        W37593  33.321  31.579   0.843
65268W        W37594  32.052  43.792  12.568
65269W        W37595  39.293  21.562   2.314
65270W        W37596  14.251  42.941   0.024
65271W        W37597  41.704   2.602  10.553
65272W        W37598  36.311  36.671  12.581
65273W        W37599   1.800  11.171   1.009
65274W        W37600  33.088   7.315   1.883
65275W        W37601  13.705  13.848  13.316
65276W        W37602  22.883  25.235   3.644
65277W        W37603  13.887  33.091  11.405
65278W        W37604  40.049  32.390  13.519
65279W        W37605  43.512   9.627   2.790
65280W        W37606  38.320  15.150   3.716
65281W        W37607   7.367  33.668   0.295
65282W        W37608  20.259  32.201   2.314
65283W        W37609  31.325  27.681  11.994
65284W        W37610  35.386  15.003  12.806
65285W        W37611   9.237  33.048   3.753
65286W        W37612   7.667  28.241  14.416
65287W        W37613   7.912  44.685   4.090
65288W        W37614  15.269  31.648   2.260
65289W        W37615  12.939   0.001   4.681
65290W        W37616  40.903  15.745  12.023
65291W        W37617  10.170  37.470   2.862
65292W        W37618  17.808  12.331  10.772
65293W        W37619  34.016  30.495  10.491
65294W        W37620  34.713  44.101  10.739
65295W        W37621  22.179   1.360   2.837
65296W        W37622  34.797  24.313  13.008
65297W        W37623  21.090  40.099   4.936
65298W        W37624   8.774   7.836   0.926
65299W        W37625  33.259  28.167  10.348
65300W        W37626   1.678  31.950   0.361
65301W        W37627  15.735  25.188   3.377
65302W        W37628  38.762  19.798   1.914
65303W        W37629   1.983  37.090  13.390
65304W        W37630   7.406  23.542   1.966
65305W        W37631  43.765  29.802  13.450
65306W        W37632   5.711  11.955   3.317
65307W        W37633  11.378  19.810   1.847
65308W        W37634   1.385  35.705  11.154
65309W        W37635  17.243  33.039   4.590
65310W        W37636  41.341  25.642   0.427
65311W        W37637  14.078  35.054   0.322
65312W        W37638  41.046  22.538  11.487
65313W        W37639   0.171  19.705   1.972
65314W        W37640  26.767  39.509   4.522
65315W        W37641   6.223  21.183   2.336
65316W        W37642  27.580  38.643  10.693
65317W        W37643  41.475  38.503   3.899
65318W        W37644  10.257  42.528   0.819
65319W        W37645  34.534  14.219   2.714
65320W        W37646   3.149  12.148  12.647
65321W        W37647  13.901  23.533  11.574
65322W        W37648   4.409   1.310  14.020
65323W        W37649  40.077   8.106   1.380
65324W        W37650  43.985  29.962  13.005
65325W        W37651  44.677  33.929   1.966
65326W        W37652   3.165   6.910   1.916
65327W        W37653  43.422  27.014   1.739
65328W        W37654   9.769  15.250   0.838
65329W        W37655  37.371  33.938  14.704
65330W        W37656  33.150  15.167   3.804
65331W        W37657  25.645  12.328   2.403
65332W        W37658  11.390  18.309   3.326
65333W        W37659   1.373  40.934  10.999
65334W        W37660  21.539  31.677  12.961
65335W        W37661  44.216  32.468   3.751
65336W        W37662   3.457  32.108  10.621
65337W        W37663  12.000  36.052  11.219
65338W        W37664  37.919  11.385  12.439
65339W        W37665  17.599   4.339  14.571
65340W        W37666   1.601  17.846  14.793
65341W        W37667  32.540  10.320   2.245
65342W        W37668  33.345  30.416   3.303
65343W        W37669  44.238   4.662   0.906
65344W        W37670  35.531  35.330   5.023
65345W        W37671  13.128   8.682   3.339
65346W        W37672   6.298   5.065  12.983
65347W        W37673  18.315  32.140   3.643
65348W        W37674  38.881   2.651  13.340
65349W        W37675   5.737  30.547   0.736
65350W        W37676   2.954  17.133  10.835
65351W        W37677  24.237  34.043  12.267
65352W        W37678  27.864  12.668  10.294
65353W        W37679  36.391  15.117  13.969
65354W        W37680  27.183  35.867   0.844
65355W        W37681   6.476  43.872  11.702
65356W        W37682   1.226  16.209   4.109
65357W        W37683  34.528  38.037   2.236
65358W        W37684  44.932   0.147   1.003
65359W        W37685  28.329  11.623   0.935
65360W        W37686   0.605  43.493  14.361
65361W        W37687  27.664  12.852  11.590
65362W        W37688  27.821  23.535  13.594
65363W        W37689  34.942  27.933   0.211
65364W        W37690  42.520  10.831  13.941
65365W        W37691  39.057  17.632  14.381
65366W        W37692  28.237  22.500  11.600
65367W        W37693  32.871  31.063   4.108
65368W        W37694  20.555  28.546  11.939
65369W        W37695  35.396  11.851   1.426
65370W        W37696  33.687  15.249   0.772
65371W        W37697   1.871   6.302   3.103
65372W        W37698  24.553  34.039  14.858
65373W        W37699  42.749  28.410   4.013
65374W        W37700  18.292  29.673   4.687
65375W        W37701  33.040  14.256   3.129
65376W        W37702   4.412  42.822  12.670
65377W        W37703   5.492  17.008   3.697
65378W        W37704  34.930  38.087  11.389
65379W        W37705  29.966  42.730   1.881
65380W        W37706   3.624  21.308  13.636
65381W        W37707   2.211  12.378  12.622
65382W        W37708  43.885   1.498   4.586
65383W        W37709  11.585   5.757  12.173
65384W        W37710   6.605  39.459   2.407
65385W        W37711  30.366   3.644   5.110
65386W        W37712  13.876   7.590   2.159
65387W        W37713   7.868   5.780  13.944
65388W        W37714   5.002  40.508   5.077
65389W        W37715  40.393  40.114   0.320
65390W        W37716   3.318  20.708   0.915
65391W        W37717  26.256  43.253  12.911
65392W        W37718  26.134   7.067   4.566
65393W        W37719  10.206   0.050  13.747
65394W        W37720  20.511   3.897  11.489
65395W        W37721   4.921   9.059   3.661
65396W        W37722  21.015  24.996  14.856
65397W        W37723  31.621  12.805   1.718
65398W        W37724  19.336  21.148   0.272
65399W        W37725  34.072  31.588  10.947
65400W        W37726   6.619  14.554   1.215
65401W        W37727  28.221  37.266  12.495
65402W        W37728  12.179  11.626  10.431
65403W        W37729   9.335   6.015   0.378
65404W        W37730  39.104  26.678  13.703
65405W        W37731  15.641  29.584   2.734
65406W        W37732  43.984  18.743  10.950
65407W        W37733  27.670  38.807  12.821
65408W        W37734  33.782  37.498   9.621
65409W        W37735  19.227   4.479   1.609
65410W        W37736  34.079  11.101  11.178
65411W        W37737  11.830  41.744   0.487
65412W        W37738  40.424   0.741   3.876
65413W        W37739   4.157  38.405   3.961
65414W        W37740  19.868  44.118   3.298
65415W        W37741  35.067  17.564  13.053
65416W        W37742  13.874  32.571   2.375
65417W        W37743  15.083  17.306  12.152
65418W        W37744  38.375   5.273  12.480
65419W        W37745   2.731  37.697  11.640
65420W        W37746   4.308  23.223  14.190
65421W        W37747   7.143  17.723   0.963
65422W        W37748  40.243   2.330   0.953
65423W        W37749  44.749  23.341   3.654
65424W        W37750  43.088  20.972   4.206
65425W        W37751  29.960  39.763  10.610
65426W        W37752  14.017  21.094   0.989
65427W        W37753  23.837  38.710   2.442
65428W        W37754   6.815   4.163  12.801
65429W        W37755  40.839  16.317   4.690
65430W        W37756  26.212  22.888   4.594
65431W        W37757   3.330  35.395   1.900
65432W        W37758  35.043   8.088   1.409
65433W        W37759   4.913  18.596  11.139
65434W        W37760  33.396   3.861  12.454
65435W        W37761  21.606  38.185   3.148
65436W        W37762  40.794  14.747   3.686
65437W        W37763  28.975  15.264  10.385
65438W        W37764  36.281  32.244  13.337
65439W        W37765  31.996  20.439  12.363
65440W        W37766   2.895  31.410   0.801
65441W        W37767   6.031  22.306   3.757
65442W        W37768  32.131  23.744   1.499
65443W        W37769  26.412  18.279  14.534
65444W        W37770  20.489  31.024  11.402
65445W        W37771   5.259  38.583   3.284
65446W        W37772  40.867  40.922   4.365
65447W        W37773  12.212  43.074  12.923
65448W        W37774  36.916  13.841   4.064
65449W        W37775   7.640  41.759   3.660
65450W        W37776  44.365  30.415   2.208
65451W        W37777  17.786  32.990  10.766
65452W        W37778  41.380   3.406   3.772
65453W        W37779  32.981  15.131   2.335
65454W        W37780  28.480   8.166   3.596
65455W        W37781  32.553  41.719   1.751
65456W        W37782  38.113  35.396   3.240
65457W        W37783  11.555  20.634  12.629
65458W        W37784  26.527  35.322   0.691
65459W        W37785  19.318   4.429  10.594
65460W        W37786   7.157  36.028   3.802
65461W        W37787  30.954  36.064  11.561
65462W        W37788   7.891  20.052  10.751
65463W        W37789  36.405  15.603  13.827
65464W        W37790  43.268  40.125   4.620
65465W        W37791  17.079  28.023  13.933
65466W        W37792  26.593  43.328   0.227
65467W        W37793  10.747  33.470  12.345
65468W        W37794  19.524   1.625  12.636
65469W        W37795  27.157  20.556  13.397
65470W        W37796  10.456  16.908   4.216
65471W        W37797  35.933  39.084   2.423
65472W        W37798  39.557  25.869  12.082
65473W        W37799   1.293  13.897  12.529
65474W        W37800  24.549  25.854  12.728
65475W        W37801  34.312  32.011  11.080
65476W        W37802  33.879   8.834   0.625
65477W        W37803  41.797  22.714  13.155
65478W        W37804   6.239  18.945   1.753
65479W        W37805  42.092  15.505  13.783
65480W        W37806   7.702  27.062  13.369
65481W        W37807  32.209  37.512   3.210
65482W        W37808  39.962   9.064   2.343
65483W        W37809  34.276  12.245   2.615
65484W        W37810   0.641  24.184   0.865
65485W        W37811  22.952  25.955   1.615
65486W        W37812  13.684   5.628   3.618
65487W        W37813   0.329  36.412  13.666
65488W        W37814   1.678  24.371   3.598
65489W        W37815  38.845  21.208  14.393
65490W        W37816  23.469  19.168   2.640
65491W        W37817  36.181  15.605   2.918
65492W        W37818  37.941  37.504   2.984
65493W        W37819  34.431  19.794  12.051
65494W        W37820   9.800  25.695  12.105
65495W        W37821   0.263   2.275  13.086
65496W        W37822   5.297  19.538   4.085
65497W        W37823   7.162  41.054   0.746
65498W        W37824  39.270   0.037   0.435
65499W        W37825  32.657  19.764  13.027
65500W        W37826  38.808   7.992  10.773
65501W        W37827  32.420   4.942   0.891
65502W        W37828  29.151  18.748   4.092
65503W        W37829   6.411  23.466  10.054
65504W        W37830  25.624  29.044   0.345
65505W        W37831  34.811  15.684   4.617
65506W        W37832  28.949  34.614  13.342
65507W        W37833  18.335  26.479  13.540
65508W        W37834  43.753  34.468  10.470
65509W        W37835  32.686  29.967  10.755
65510W        W37836  29.879  25.124   0.766
65511W        W37837  30.148  28.527   0.681
65512W        W37838  16.302  40.971   3.655
65513W        W37839  33.125  42.788  13.051
65514W        W37840  36.493   6.746  12.407
65515W        W37841  18.855  20.988  14.546
65516W        W37842  15.289  10.343   2.652
65517W        W37843  10.438  19.230  13.120
65518W        W37844   7.749  13.850  12.913
65519W        W37845  25.541  35.539   3.747
65520W        W37846   3.197  34.967  11.531
65521W        W37847  35.036  35.090  11.063
65522W        W37848  21.803  22.238   2.719
65523W        W37849  43.930  24.050   3.774
65524W        W37850  31.780  10.278   1.294
65525W        W37851   2.099  13.001   2.334
65526W        W37852   4.636  33.584   4.125
65527W        W37853  38.201   9.158   2.804
65528W        W37854  37.572  42.528   3.843
65529W        W37855  16.309   5.458  14.535
65530W        W37856  30.784  41.560   2.331
65531W        W37857   2.916  34.019   4.644
65532W        W37858  13.019  16.662   3.181
65533W        W37859  34.340  34.984  11.812
65534W        W37860  40.622  10.238   0.018
65535W        W37861  10.174   5.217   1.817
65536W        W37862  35.435  41.511   0.541
65537W        W37863   4.894   2.826  11.584
65538W        W37864   7.826  14.004  13.793
65539W        W37865  39.024  33.408  11.460
65540W        W37866  14.912   3.544   0.408
65541W        W37867  31.621  33.657  12.421
65542W        W37868  13.255   1.189   0.109
65543W        W37869   7.953  42.846   0.341
65544W        W37870   5.788  12.556   1.902
65545W        W37871   0.332  33.491   2.271
65546W        W37872  29.244  14.070   0.403
65547W        W37873   5.970  13.690  11.611
65548W        W37874  42.607  28.180  10.737
65549W        W37875  26.253  16.537  10.498
65550W        W37876  26.537  16.967  13.474
65551W        W37877  21.642   5.872  10.592
65552W        W37878   8.428  33.358   4.249
65553W        W37879  22.024  20.375  13.735
65554W        W37880  41.561   8.759  12.379
65555W        W37881  24.593  26.400  10.990
65556W        W37882   8.635  33.761   1.262
65557W        W37883  32.180  40.051   3.097
65558W        W37884  30.953   5.914  11.950
65559W        W37885   8.580  29.052   3.251
65560W        W37886  40.679  31.392  14.304
65561W        W37887   6.287   2.864   4.916
65562W        W37888  14.062  39.810  11.394
65563W        W37889  23.085  41.472   1.326
65564W        W37890  27.588  21.197   4.060
65565W        W37891   5.034  13.225   1.354
65566W        W37892  35.371  33.148   1.337
65567W        W37893  21.381  16.870   1.752
65568W        W37894  11.700  29.229   2.910
65569W        W37895   6.018  42.465  12.020
65570W        W37896  10.601  11.611  12.122
65571W        W37897  21.124  42.835   0.261
65572W        W37898   9.796  12.262   1.706
65573W        W37899  11.562   1.276   4.142
65574W        W37900  39.441  30.772  13.667
65575W        W37901   0.906  30.456  14.835
65576W        W37902   9.320  29.304  14.425
65577W        W37903  35.371  41.606  13.546
65578W        W37904  18.666  30.027   4.808
65579W        W37905  30.676  13.689   2.251
65580W        W37906   9.312  21.440  12.321
65581W        W37907  39.506  40.526   1.240
65582W        W37908  29.618  10.549   0.326
65583W        W37909  40.342   4.894   1.242
65584W        W37910   1.414   9.724   2.188
65585W        W37911  18.792  35.718   0.356
65586W        W37912  15.705  25.095   2.458
65587W        W37913  31.454  23.690   2.329
65588W        W37914  10.805   4.693   3.194
65589W        W37915   9.784  41.300  14.497
65590W        W37916  28.138  30.667  13.026
65591W        W37917  39.498  12.681   4.151
65592W        W37918  19.724   8.396  13.978
65593W        W37919  36.313   2.170   3.699
65594W        W37920  33.211  14.138   2.312
65595W        W37921  14.610   4.142   3.150
65596W        W37922  15.723  21.432   5.022
65597W        W37923  44.830  35.952   4.111
65598W        W37924  42.790  22.049  14.813
65599W        W37925  16.767  16.866  12.786
65600W        W37926   3.603  17.109  11.470
65601W        W37927  40.781  26.470   4.253
65602W        W37928  18.336  36.544   2.676
65603W        W37929   6.772   6.203  13.518
65604W        W37930  13.174   1.932  10.813
65605W        W37931  15.266  40.070   3.623
65606W        W37932  25.651  25.099   5.118
65607W        W37933  36.170  22.075   2.848
65608W        W37934  21.540  37.604   4.973
65609W        W37935  42.815  39.010   1.368
65610W        W37936  32.393   3.484  13.282
65611W        W37937  27.581  38.302  13.726
65612W        W37938  42.211  37.359   4.664
65613W        W37939  44.959   8.419   1.465
65614W        W37940  25.085   7.734   3.929
65615W        W37941  36.932   1.511  14.981
65616W        W37942  25.657   4.886   1.044
65617W        W37943  10.212  31.692  12.992
65618W        W37944  19.765  44.902   1.080
65619W        W37945  23.289  32.586   4.606
65620W        W37946  39.919   1.502  14.342
65621W        W37947   1.978  31.173  14.778
65622W        W37948  35.495  25.578   3.728
65623W        W37949  30.504  13.146   3.706
65624W        W37950  17.155  39.329  10.430
65625W        W37951  24.893   4.234  11.602
65626W        W37952  18.277  34.023   3.683
65627W        W37953  40.978   2.966  12.377
65628W        W37954  34.581  14.103  13.322
65629W        W37955  27.191  33.507   4.663
65630W        W37956  40.433  10.624   4.085
65631W        W37957  19.244  30.464   3.929
65632W        W37958  15.181  42.233   4.234
65633W        W37959  26.442   0.188  12.112
65634W        W37960  30.414  22.163  11.936
65635W        W37961  32.184  17.160  12.009
65636W        W37962  24.200  41.820  14.118
65637W        W37963  27.533   0.467   4.758
65638W        W37964   7.699  37.085  12.559
65639W        W37965   5.388  21.233  14.349
65640W        W37966  39.887  19.615  14.468
65641W        W37967  39.704  41.317   3.729
65642W        W37968  27.371   9.766  12.544
65643W        W37969  17.269  10.427   4.591
65644W        W37970  13.329   0.751   0.444
65645W        W37971  42.000   0.252  13.525
65646W        W37972   0.188  22.617   2.371
65647W        W37973  23.325  23.745  11.658
65648W        W37974  42.777  25.180  13.548
65649W        W37975  31.179  38.844   4.177
65650W        W37976  29.815  33.637  10.457
65651W        W37977  24.645  43.999  13.055
65652W        W37978  16.838  29.511  10.561
65653W        W37979  34.930  30.442   2.930
65654W        W37980  21.635  27.426  14.337
65655W        W37981  42.530  16.283   0.421
65656W        W37982  26.613  35.036  11.146
65657W        W37983   9.864  19.005  13.088
65658W        W37984  41.029  32.807   0.907
65659W        W37985   2.353  15.954   2.728
65660W        W37986  41.207  23.171  13.489
65661W        W37987  16.617  13.840  13.028
65662W        W37988  25.935   6.714  14.292
65663W        W37989   1.377   3.234  14.394
65664W        W37990  20.402   4.689  14.345
65665W        W37991  38.315  24.503  11.345
65666W        W37992  21.808  41.751   0.374
65667W        W37993  23.468  28.915   2.807
65668W        W37994   3.636   1.858   2.355
65669W        W37995   9.301  27.695   1.761
65670W        W37996  33.533  13.973   4.928
65671W        W37997  42.921   8.827   1.212
65672W        W37998  18.764  19.558  14.392
65673W        W37999  11.353   7.568  11.270
65674W        W38000  35.496  31.082  13.619
65675W        W38001   9.470  33.732  11.028
65676W        W38002  42.721  11.121  10.796
65677W        W38003   3.885   3.260  10.987
65678W        W38004  42.171   3.486  11.653
65679W        W38005  10.055  39.336   2.299
65680W        W38006  12.932  11.540  12.444
65681W        W38007  23.473  19.106  12.469
65682W        W38008   8.979  42.762  11.072
65683W        W38009   0.513  37.299   2.746
65684W        W38010  42.233  10.004   1.366
65685W        W38011  10.793  38.898   2.687
65686W        W38012   5.229  13.669   3.704
65687W        W38013   7.082  22.105   3.892
65688W        W38014   1.798  33.646   4.356
65689W        W38015  41.204  34.603   1.251
65690W        W38016  10.942  39.418  11.609
65691W        W38017  25.696  32.483   4.564
65692W        W38018  13.304  38.499   3.679
65693W        W38019  42.828  12.252   4.526
65694W        W38020  27.088  43.901   1.672
65695W        W38021  11.594  15.775  12.382
65696W        W38022  39.823  30.925  13.351
65697W        W38023  35.905  17.317  13.901
65698W        W38024  42.593   0.405   0.361
65699W        W38025  19.162   2.962   3.105
65700W        W38026  10.795   7.484   0.834
65701W        W38027  32.183   2.146  12.605
65702W        W38028  31.710   9.650   2.330
65703W        W38029  13.099   3.749   4.118
65704W        W38030  18.548   5.363  11.025
65705W        W38031  43.873  12.569  13.516
65706W        W38032   9.335   6.683  14.250
65707W        W38033  34.941   3.268  12.971
65708W        W38034  17.196   0.510  10.401
65709W        W38035  41.765  44.599   3.581
65710W        W38036  39.739   0.987  11.135
65711W        W38037   0.720  16.142   1.940
65712W        W38038  10.585  44.005  14.409
65713W        W38039  29.086  38.005  11.915
65714W        W38040  33.349  40.869   4.914
65715W        W38041  39.000  12.225   2.636
65716W        W38042   6.950  23.954  12.523
65717W        W38043  28.630  39.797   2.230
65718W        W38044  22.727  30.794   0.792
65719W        W38045   8.249  30.276  14.222
65720W        W38046  10.405  13.715   2.345
65721W        W38047   7.950  17.780   1.305
65722W        W38048  21.881  20.334   3.292
65723W        W38049  12.303   0.477   0.439
65724W        W38050   5.490   4.878   0.094
65725W        W38051  31.105  32.700   3.303
65726W        W38052   7.434  14.312   2.891
65727W        W38053  25.057   5.941   4.450
65728W        W38054  33.525  17.770   0.253
65729W        W38055   2.067   7.733   2.339
65730W        W38056   9.397   2.257  13.450
65731W        W38057   3.876  17.037   2.862
65732W        W38058  40.387   1.389   1.291
65733W        W38059  13.720  38.099   3.136
65734W        W38060  35.392  36.050  14.391
65735W        W38061  20.277  42.010  12.461
65736W        W38062  14.851   5.248   4.130
65737W        W38063   4.345  43.993   2.718
65738W        W38064  19.205  27.047   2.780
65739W        W38065  12.496  19.344  14.399
65740W        W38066  22.713   2.517   3.697
65741W        W38067  40.505   2.501  12.970
65742W        W38068  37.280  27.191   3.341
65743W        W38069  17.550  39.979  12.404
65744W        W38070  10.163   9.246  10.668
65745W        W38071   0.850   0.970  10.674
65746W        W38072   6.273  40.260  13.360
65747W        W38073  12.619  13.118  14.474
65748W        W38074   8.842  22.662   0.321
65749W        W38075   2.139   7.365  14.749
65750W        W38076   1.700  36.086   1.485
65751W        W38077  30.958  25.607  13.316
65752W        W38078  27.563  30.799  10.989
65753W        W38079  18.064  26.019  13.482
65754W        W38080  18.084  36.045   3.714
65755W        W38081  26.569  16.767   3.990
65756W        W38082  12.078  12.664   1.755
65757W        W38083  21.257  18.383   4.712
65758W        W38084  39.538  41.632   4.191
65759W        W38085  39.865  34.474   4.037
65760W        W38086  18.021   5.797   4.209
65761W        W38087   2.285  23.680   3.610
65762W        W38088  26.229   1.247   1.434
65763W        W38089   4.443  18.004  10.473
65764W        W38090  15.664  25.680  10.598
65765W        W38091  23.206  21.826   1.463
65766W        W38092  17.219   0.078   0.974
65767W        W38093  28.114   5.448   3.825
65768W        W38094  31.457   8.237   2.351
65769W        W38095   2.706  12.127  14.409
65770W        W38096  39.893  19.716   2.247
65771W        W38097   4.398  32.865  10.409
65772W        W38098  29.469  24.205  11.639
65773W        W38099  15.056  26.077   2.107
65774W        W38100  22.768  41.487   3.734
65775W        W38101   5.008  14.936  12.588
65776W        W38102   5.455  41.823  11.639
65777W        W38103  34.005   2.681   1.914
65778W        W38104  26.159  21.066   3.187
65779W        W38105  24.401  18.137   1.167
65780W        W38106   5.118  18.105   4.668
65781W        W38107  15.803  24.255  13.930
65782W        W38108  16.820  39.318   1.470
65783W        W38109  26.485   8.937   1.707
65784W        W38110  39.776  37.024  12.164
65785W        W38111  43.432  10.203   2.019
65786W        W38112  11.382   0.332  14.905
65787W        W38113  11.631   9.012   4.952
65788W        W38114   9.821  36.875   4.636
65789W        W38115  16.108  36.204   4.538
65790W        W38116   4.793  31.163  12.674
65791W        W38117   4.771  20.986  11.875
65792W        W38118  30.277  14.468   2.367
65793W        W38119  42.332  23.183  11.636
65794W        W38120  35.027  42.782   4.777
65795W        W38121  42.520  39.289   2.363
65796W        W38122  40.288  43.929   1.272
65797W        W38123  29.532   2.998   3.190
65798W        W38124  35.506  40.166   2.731
65799W        W38125  37.909  31.882   3.951
65800W        W38126  39.169   3.924   3.668
65801W        W38127  17.258  40.561  11.852
65802W        W38128  16.474  31.294   4.076
65803W        W38129   0.654   7.301  14.340
65804W        W38130  37.669  16.125  13.454
65805W        W38131  16.164  32.482   1.358
65806W        W38132  18.720  36.541   2.304
65807W        W38133  41.960  35.772  12.612
65808W        W38134  25.116  24.480  13.819
65809W        W38135  22.103  13.901   0.847
65810W        W38136  27.195  26.160   0.263
65811W        W38137   5.199  40.789  10.570
65812W        W38138  22.139  18.012  14.030
65813W        W38139  41.145   8.739  12.061
65814W        W38140  13.144  24.026  12.529
65815W        W38141  14.089  33.811  13.783
65816W        W38142  17.858   8.609  13.889
65817W        W38143   2.309  37.294   1.367
65818W        W38144  41.053  13.277   2.706
65819W        W38145  27.910  26.045   1.604
65820W        W38146  35.454  44.696   4.788
65821W        W38147  14.454  33.365   1.960
65822W        W38148  15.771  10.953  14.564
65823W        W38149  37.678  29.517  14.364
65824W        W38150  13.191  41.026   1.255
65825W        W38151  35.468  11.246  12.828
65826W        W38152  39.838  15.443   0.713
65827W        W38153  24.867  35.084   4.775
65828W        W38154  26.260  20.507  13.260
65829W        W38155  43.694   8.805  14.688
65830W        W38156  37.402  10.368  14.454
65831W        W38157  32.038   7.403   2.296
65832W        W38158  20.080   4.363   3.647
65833W        W38159  22.263  24.161   4.126
65834W        W38160  35.087  34.870   0.896
65835W        W38161   2.192  12.166  11.586
65836W        W38162  27.897   0.138   4.353
65837W        W38163   6.300  41.476  10.043
65838W        W38164  25.724  10.575   9.894
65839W        W38165  31.085  33.505  13.984
65840W        W38166  35.919   6.754   2.322
65841W        W38167  36.652  33.552  13.934
65842W        W38168  31.939   7.966   4.089
65843W        W38169  42.487  10.378  14.751
65844W        W38170  27.503  14.425  14.762
65845W        W38171   3.205  24.121  14.626
65846W        W38172  30.039  23.657  11.155
65847W        W38173  30.444  36.964  14.531
65848W        W38174  39.436  22.034   0.262
65849W        W38175  40.864  18.979   1.350
65850W        W38176  15.307  13.087  12.561
65851W        W38177  42.003  40.098   4.144
65852W        W38178   7.441  37.989  14.852
65853W        W38179   9.619  29.615   1.317
65854W        W38180  36.352  24.424  14.893
65855W        W38181  44.751  30.488  11.000
65856W        W38182  35.675  26.027   2.202
65857W        W38183  32.817   3.875  11.525
65858W        W38184   4.651   3.411  13.461
65859W        W38185  18.998   0.406   3.853
65860W        W38186  40.661  25.037  11.756
65861W        W38187  40.964  44.915  14.695
65862W        W38188   1.820  41.310  14.387
65863W        W38189  27.943  24.229   2.838
65864W        W38190   4.932  39.403   3.122
65865W        W38191   0.002   4.515   1.327
65866W        W38192   2.211   7.491  11.112
65867W        W38193  39.436   9.579   4.675
65868W        W38194   5.923  42.524   2.297
65869W        W38195   6.747  27.764   0.238
65870W        W38196  27.780  27.479   1.248
65871W        W38197  41.459   8.315   1.982
65872W        W38198  19.805  12.018   1.820
65873W        W38199  26.506  20.681   0.804
65874W        W38200  37.383   0.241  13.722
65875W        W38201  12.298  20.965  11.988
65876W        W38202   5.085   9.998  14.782
65877W        W38203  18.711  39.358  13.350
65878W        W38204   5.627  44.664  11.389
65879W        W38205  28.730  38.104   1.424
65880W        W38206  41.456  11.588   4.177
65881W        W38207  13.938  17.713  12.284
65882W        W38208   0.015  25.218  13.880
65883W        W38209   4.709  43.833  11.787
65884W        W38210  40.570  34.634   4.276
65885W        W38211  26.019  32.932   2.771
65886W        W38212  31.733  19.355   0.971
65887W        W38213  22.632  41.033   1.884
65888W        W38214   9.382  40.128  13.323
65889W        W38215  29.019   4.161   0.275
65890W        W38216   2.863  38.816   3.208
65891W        W38217   5.571  40.014   1.364
65892W        W38218  19.681  41.517  14.356
65893W        W38219  17.623   8.162  14.637
65894W        W38220  14.324  27.947  10.679
65895W        W38221  32.073   2.471  11.982
65896W        W38222  41.461  31.383  14.031
65897W        W38223  22.908  29.701  11.848
65898W        W38224  26.563  28.043   3.634
65899W        W38225  23.958  26.703   3.695
65900W        W38226   2.040  36.922  14.353
65901W        W38227   5.811  40.837   1.622
65902W        W38228  30.860  26.095   4.373
65903W        W38229  29.230  30.560   3.685
65904W        W38230  31.606  43.242   4.812
65905W        W38231  26.173  16.717  11.408
65906W        W38232  10.405  43.970  11.437
65907W        W38233  41.357  27.118  11.385
65908W        W38234  33.675   1.314  10.898
65909W        W38235  32.682  32.121  12.972
65910W        W38236  25.180  20.940   0.178
65911W        W38237  19.288  14.844   4.109
65912W        W38238   7.213  36.519  11.958
65913W        W38239  40.952  30.623  10.739
65914W        W38240  18.334  22.166   0.701
65915W        W38241   4.220  22.230   0.890
65916W        W38242  43.797  13.703  10.660
65917W        W38243  31.973  37.568   1.392
65918W        W38244  28.436  37.763  14.119
65919W        W38245  19.069   1.345  10.600
65920W        W38246   0.414  26.624   3.795
65921W        W38247  19.641  17.778   1.260
65922W        W38248  22.703  43.310   1.441
65923W        W38249  34.009   5.672   4.752
65924W        W38250  25.637  14.579  13.657
65925W        W38251  44.585  44.396  10.736
65926W        W38252  17.633   0.452  10.693
65927W        W38253  14.534   1.055   9.732
65928W        W38254  39.530  39.303   1.863
65929W        W38255  27.103  43.433   0.229
65930W        W38256  39.287  12.925   0.412
65931W        W38257  31.989  20.750   3.641
65932W        W38258  33.667  32.444  12.903
65933W        W38259  33.493  12.133   3.264
65934W        W38260  43.308   4.705   3.144
65935W        W38261  34.568  37.973  11.732
65936W        W38262  12.296  13.360   4.569
65937W        W38263   4.422   2.410   5.104
65938W        W38264  27.157  23.667  11.144
65939W        W38265  23.911  25.115   2.207
65940W        W38266  27.629  23.463  14.391
65941W        W38267  24.674  14.857  10.946
65942W        W38268  41.365  21.433   0.877
65943W        W38269  32.836  29.519  13.413
65944W        W38270  19.080  39.830   2.828
65945W        W38271  25.798  44.164  11.558
65946W        W38272  30.956  13.841  13.477
65947W        W38273  26.346  12.006  14.046
65948W        W38274  41.010  27.091  12.562
65949W        W38275   3.502  16.542   1.670
65950W        W38276  15.353  22.249   5.186
65951W        W38277  13.611   3.167   1.423
65952W        W38278  15.260  36.304  14.743
65953W        W38279   2.211  37.533  13.417
65954W        W38280  36.657  41.136  10.666
65955W        W38281   5.352   4.260  14.297
65956W        W38282  36.365  36.403  13.099
65957W        W38283   9.425  39.418   3.106
65958W        W38284   7.891  23.558   4.562
65959W        W38285  21.096  20.337  10.709
65960W        W38286  13.795  36.814   0.342
65961W        W38287  25.631  30.487   1.523
65962W        W38288   5.639  11.286   1.363
65963W        W38289  34.129  19.164  14.903
65964W        W38290  20.358   9.148   1.231
65965W        W38291  22.146   6.238   4.539
65966W        W38292   4.805  23.011   2.277
65967W        W38293  10.974  10.610  11.182
65968W        W38294  25.922  14.607  14.689
65969W        W38295   6.740  30.875  12.575
65970W        W38296  22.070   1.811  11.421
65971W        W38297  14.181   7.339  12.214
65972W        W38298  37.153  12.247   3.256
65973W        W38299  33.296  12.253  11.417
65974W        W38300  36.886  38.308   3.119
65975W        W38301   3.962   3.354  12.367
65976W        W38302  24.697  26.672  13.868
65977W        W38303  13.413  19.260  14.834
65978W        W38304  26.817  15.295   3.144
65979W        W38305  16.030  10.102   3.154
65980W        W38306  44.835  14.267  11.359
65981W        W38307   1.609  21.174   4.545
65982W        W38308  17.588  13.982  14.368
65983W        W38309  21.636  11.271   1.607
65984W        W38310  33.076  39.778   3.109
65985W        W38311   4.540  22.112   3.785
65986W        W38312  16.022  30.885   0.852
65987W        W38313   6.680  37.023  12.627
65988W        W38314   7.624  21.966   3.726
65989W        W38315  43.924   0.999   0.374
65990W        W38316  43.446   4.952  11.312
65991W        W38317  10.157  23.027  14.079
65992W        W38318  26.626  43.092  13.861
65993W        W38319  13.062   3.148  14.959
65994W        W38320  13.797  16.602  13.513
65995W        W38321  31.206  36.616   4.588
65996W        W38322   0.244  10.123   4.238
65997W        W38323  34.445  41.017   4.064
65998W        W38324  14.667  16.073  13.567
65999W        W38325  19.666   5.483  11.061
66000W        W38326  22.835  14.882  12.888
66001W        W38327  18.021  38.017   4.051
66002W        W38328  20.826  14.573   0.875
66003W        W38329  28.597  44.914   4.137
66004W        W38330  33.091  41.587   0.286
66005W        W38331  37.422  24.537   4.150
66006W        W38332  25.077   5.009  12.077
66007W        W38333  28.556  30.174  13.891
66008W        W38334  11.627  27.532   4.733
66009W        W38335  22.711  31.141   0.382
66010W        W38336  10.335  31.430  10.917
66011W        W38337   0.845  39.693   4.926
66012W        W38338  32.636  35.213   2.059
66013W        W38339  36.684  32.097   5.039
66014W        W38340  36.003  16.282   4.682
66015W        W38341   7.737  39.249  13.904
66016W        W38342  44.951  22.455  13.127
66017W        W38343   4.798  34.013   1.129
66018W        W38344  35.349   2.588  14.920
66019W        W38345   4.660  12.724  11.418
66020W        W38346  12.666  25.660   3.393
66021W        W38347  32.554  25.708  10.964
66022W        W38348  34.564  42.594   4.605
66023W        W38349  15.750  27.053   3.872
66024W        W38350  15.644  15.612  13.465
66025W        W38351  15.783   1.739   3.670
66026W        W38352   5.145   3.413  10.908
66027W        W38353  30.899  20.151   4.034
66028W        W38354  27.003  15.830   3.830
66029W        W38355  34.731  21.635  11.534
66030W        W38356  36.459  15.833  14.835
66031W        W38357  36.468  36.131  11.124
66032W        W38358  26.970  44.836  13.540
66033W        W38359  44.452  44.169  10.288
66034W        W38360  34.731  20.947  11.511
66035W        W38361   1.727  13.701  13.098
66036W        W38362  17.274   4.317   1.709
66037W        W38363  11.955   2.603  11.968
66038W        W38364  14.834  16.038  14.596
66039W        W38365   6.690  31.180   1.945
66040W        W38366  35.710   2.210  12.598
66041W        W38367   1.085  29.909   4.102
66042W        W38368  20.526  29.392   0.869
66043W        W38369  26.508  35.770   5.143
66044W        W38370  43.704  37.914   4.092
66045W        W38371  17.119  36.982   1.827
66046W        W38372  38.022   7.291  10.915
66047W        W38373  22.970  33.972   3.755
66048W        W38374  14.661   2.330   2.392
66049W        W38375  20.191  24.573   0.077
66050W        W38376  18.552  12.936  11.465
66051W        W38377   2.007  33.309   2.214
66052W        W38378  21.818  16.138   0.222
66053W        W38379  16.800   0.529  13.343
66054W        W38380  12.134  44.328   2.642
66055W        W38381  28.799  10.150  14.227
66056W        W38382  18.355  42.499  12.184
66057W        W38383  30.480  24.555  14.546
66058W        W38384  24.515  28.685  11.984
66059W        W38385  38.250  41.878  13.754
66060W        W38386   6.416  33.208  14.106
66061W        W38387  21.515  20.636   4.343
66062W        W38388  12.033  33.955  10.231
66063W        W38389  31.949   9.396  13.867
66064W        W38390  15.606  31.079  14.458
66065W        W38391  25.661  36.041  13.034
66066W        W38392   1.944  23.579   3.135
66067W        W38393  18.210  36.102   4.682
66068W        W38394   5.155  42.889  13.798
66069W        W38395  36.486  16.638  14.323
66070W        W38396  26.623  32.611  14.937
66071W        W38397  43.552  10.831  13.962
66072W        W38398  26.440  16.607   3.483
66073W        W38399  13.309  36.064   0.917
66074W        W38400   6.956   6.660   3.647
66075W        W38401  21.776  18.848   0.856
66076W        W38402   5.291  19.988   3.781
66077W        W38403   6.811   8.582   0.813
66078W        W38404  32.216  21.262  13.833
66079W        W38405  36.812  10.215   2.192
66080W        W38406  23.765  14.758   9.686
66081W        W38407  14.172  31.100  12.995
66082W        W38408  24.111  40.558  10.926
66083W        W38409  38.908  37.118  13.033
66084W        W38410  11.462  20.776   1.769
66085W        W38411  37.295  29.805  12.992
66086W        W38412  16.046  36.466   0.437
66087W        W38413  35.524   4.708  11.645
66088W        W38414  35.096  26.617   0.215
66089W        W38415  28.994  21.976  11.186
66090W        W38416   3.805  30.300  14.388
66091W        W38417  25.257  13.206   3.882
66092W        W38418  15.110  31.760  12.038
66093W        W38419   0.765   3.187   0.411
66094W        W38420   4.485  28.426  12.151
66095W        W38421  32.387  40.553  11.038
66096W        W38422  23.108  36.081   2.101
66097W        W38423  15.262  14.280  12.544
66098W        W38424  31.348  41.904   0.477
66099W        W38425   5.457  10.919  11.845
66100W        W38426  15.155  28.407   0.402
66101W        W38427  16.202  28.117   3.437
66102W        W38428  41.579   3.986  13.074
66103W        W38429  32.459  23.900   4.035
66104W        W38430  14.793  24.933   1.976
66105W        W38431  44.172  34.593   4.648
66106W        W38432  26.154  35.108  11.375
66107W        W38433  14.933  31.131   3.103
66108W        W38434   5.772  23.182  10.807
66109W        W38435  44.231   6.210   1.768
66110W        W38436  44.521  19.449  10.524
66111W        W38437  38.323  24.465   3.936
66112W        W38438   7.420  29.949  10.825
66113W        W38439  36.874  32.533  12.370
66114W        W38440  23.560  32.879  12.667
66115W        W38441  32.098  42.008   2.446
66116W        W38442  34.369  40.121   0.905
66117W        W38443   8.957  33.678  12.184
66118W        W38444  11.301  44.781  13.278
66119W        W38445  21.642  31.804   4.501
66120W        W38446  36.505  36.926  14.468
66121W        W38447  24.094  25.160  11.503
66122W        W38448  27.052  37.063  14.527
66123W        W38449   7.365  17.076  14.753
66124W        W38450   6.162  35.714   0.354
66125W        W38451  25.182   8.755   0.731
66126W        W38452  35.403  35.034  13.497
66127W        W38453  28.750  43.793  11.490
66128W        W38454  22.044   5.372  11.674
66129W        W38455  30.561  11.926   1.655
66130W        W38456   4.139  34.943  12.374
66131W        W38457   1.938   3.888   0.431
66132W        W38458   4.541  37.721  10.138
66133W        W38459  29.687  12.601  13.321
66134W        W38460  36.484   3.523  12.366
66135W        W38461  29.279  37.715   2.684
66136W        W38462   0.910  28.510   2.712
66137W        W38463   4.086  35.417   3.859
66138W        W38464   8.714  36.994   3.383
66139W        W38465  12.217   8.878  10.293
66140W        W38466  35.101  39.053   2.686
66141W        W38467  14.794  34.220   1.796
66142W        W38468  41.744  35.042  14.854
66143W        W38469  22.220  24.599  12.350
66144W        W38470  23.673  38.881   1.316
66145W        W38471  17.551  40.485  13.527
66146W        W38472  14.611  32.614   0.792
66147W        W38473  26.155  14.379   3.754
66148W        W38474  43.410   1.156   2.800
66149W        W38475  28.207  23.670   1.915
66150W        W38476  40.261  31.247  14.591
66151W        W38477  23.978  16.610   1.727
66152W        W38478  34.755   1.785   4.167
66153W        W38479   5.126   6.467   3.345
66154W        W38480  18.040  10.354  11.321
66155W        W38481   1.204  22.281  10.931
66156W        W38482  28.570  11.418  12.971
66157W        W38483  21.720   0.612  11.562
66158W        W38484  25.005  40.276   0.313
66159W        W38485  39.455  25.608  11.498
66160W        W38486  19.035   4.901   1.357
66161W        W38487  16.814  14.222  12.085
66162W        W38488   3.223  24.164   1.063
66163W        W38489  36.983  13.552  12.072
66164W        W38490   0.247  35.609  13.959
66165W        W38491  25.980   1.840   2.190
66166W        W38492  25.298  17.019  11.053
66167W        W38493  22.285  37.165  14.790
66168W        W38494  13.827  34.173   1.029
66169W        W38495   0.987  17.921  11.614
66170W        W38496  28.381   3.400  10.689
66171W        W38497  13.158  29.961   2.895
66172W        W38498  40.890  19.978  13.117
66173W        W38499  27.455  21.514  12.614
66174W        W38500  24.349  27.570  14.395
66175W        W38501   6.267  31.267   4.253
66176W        W38502  18.645   5.412   2.060
66177W        W38503  29.572  20.005  12.666
66178W        W38504  37.259  33.363   0.308
66179W        W38505  33.055  16.754   1.158
66180W        W38506  23.079  12.214   0.652
66181W        W38507   6.388  38.423  10.318
66182W        W38508  20.739  14.172  13.642
66183W        W38509  16.076  30.118  11.670
66184W        W38510  17.467  41.516  11.475
66185W        W38511  19.185  14.290  12.445
66186W        W38512  33.616   0.256   0.275
66187W        W38513  34.974   9.833   0.125
66188W        W38514  40.293  40.453  11.248
66189W        W38515  30.278  25.276  14.428
66190W        W38516  19.689   0.840  14.373
66191W        W38517   2.526  10.461   0.806
66192W        W38518  39.766  44.774  10.709
66193W        W38519  13.599  20.297  14.981
66194W        W38520  20.267  25.785  10.819
66195W        W38521  42.812  15.575  13.042
66196W        W38522  22.566  24.114  14.451
66197W        W38523  24.265   4.383   3.087
66198W        W38524  25.039  29.126   2.913
66199W        W38525  31.019  14.439   1.398
66200W        W38526   1.787  10.144  11.094
66201W        W38527   2.169  13.516   2.348
66202W        W38528  12.743   2.682   0.669
66203W        W38529   7.441  10.297   0.298
66204W        W38530  15.712  11.210   2.661
66205W        W38531  19.774  23.631  11.622
66206W        W38532  37.625  35.266   3.135
66207W        W38533   7.950  42.766   1.325
66208W        W38534   9.590   9.422   2.986
66209W        W38535  16.305   5.939  12.904
66210W        W38536  40.804   6.665   3.261
66211W        W38537   6.872   6.668  12.672
66212W        W38538  11.855  27.920   4.977
66213W        W38539  31.725  15.727   4.523
66214W        W38540  13.268  14.922  14.957
66215W        W38541  34.886   3.471   2.255
66216W        W38542  42.315  34.050   2.653
66217W        W38543  37.489  12.231  10.043
66218W        W38544   0.092  10.250   2.766
66219W        W38545  25.178  21.789   2.305
66220W        W38546  32.258  14.253  10.489
66221W        W38547  26.127   1.673  14.247
66222W        W38548  31.542   7.368   0.242
66223W        W38549  20.170  10.096   0.406
66224W        W38550  38.473  32.575   2.757
66225W        W38551  22.958   1.880  11.148
66226W        W38552  43.790  30.585   3.096
66227W        W38553  17.588  38.302  12.980
66228W        W38554  20.203  15.961   5.069
66229W        W38555   3.897  31.072  11.957
66230W        W38556  14.898  38.104  14.885
66231W        W38557  19.015  20.781   0.010
66232W        W38558   2.806   1.468   3.238
66233W        W38559  41.875  34.707  12.987
66234W        W38560  42.608  32.043   4.332
66235W        W38561  36.451  12.642   1.320
66236W        W38562  29.663   7.418  11.106
66237W        W38563  12.578  35.100   4.890
66238W        W38564  27.624  27.708   3.168
66239W        W38565   2.094  10.295   3.619
66240W        W38566  37.865  37.420   2.476
66241W        W38567  10.312  18.708   1.816
66242W        W38568  25.724   4.336  13.996
66243W        W38569  30.418  32.679   0.020
66244W        W38570   3.440  37.835  14.664
66245W        W38571   0.309  12.060   1.700
66246W        W38572  31.913  12.542   1.078
66247W        W38573  11.874  30.043   4.599
66248W        W38574  44.440  12.290   0.227
66249W        W38575  20.774  10.958  14.066
66250W        W38576  40.982  31.956   1.023
66251W        W38577   3.901   2.801   4.542
66252W        W38578  29.106   2.514   0.757
66253W        W38579  15.051  41.779   0.703
66254W        W38580  16.231  16.020   1.693
66255W        W38581  39.033   2.399  12.899
66256W        W38582  34.093   7.861   1.146
66257W        W38583  41.144  30.553   1.283
66258W        W38584  33.833  19.112  13.601
66259W        W38585  41.119  43.759   2.285
66260W        W38586  27.396  18.251  12.341
66261W        W38587  33.571   1.358  12.576
66262W        W38588  21.665   5.169   0.446
66263W        W38589  38.578  32.677   4.217
66264W        W38590  43.315  33.922  11.454
66265W        W38591  35.874   3.184   0.448
66266W        W38592  12.320   0.986   0.451
66267W        W38593   0.314  26.243  14.810
66268W        W38594  41.504  10.923   3.181
66269W        W38595  15.051  44.338   2.681
66270W        W38596  22.208   7.472   2.721
66271W        W38597  13.603  39.581  12.944
66272W        W38598  15.276  26.470   1.856
66273W        W38599   0.225   8.238  12.600
66274W        W38600  35.956   5.262  11.224
66275W        W38601  39.457  10.042  13.499
66276W        W38602  10.286  16.588  12.491
66277W        W38603  36.494  16.741  12.766
66278W        W38604  38.944  31.544   5.048
66279W        W38605  22.592   0.443  14.375
66280W        W38606  23.293  33.084  13.443
66281W        W38607   2.055  19.817  12.897
66282W        W38608   9.962  39.779  12.424
66283W        W38609   5.429   8.874   3.593
66284W        W38610  16.247  18.752   4.412
66285W        W38611  44.008  30.498   1.249
66286W        W38612  41.690   1.889  14.087
66287W        W38613  37.551  14.410   3.631
66288W        W38614  31.019  11.042   4.390
66289W        W38615  21.616  42.516   1.809
66290W        W38616  32.615   4.872   0.397
66291W        W38617  39.308  40.906   4.662
66292W        W38618  10.914   5.758   2.034
66293W        W38619  32.568  23.200  10.923
66294W        W38620  35.456  18.988   2.700
66295W        W38621  43.431  18.670  13.811
66296W        W38622   4.513  30.060  12.593
66297W        W38623  33.044  37.578  10.144
66298W        W38624  41.793  16.757   0.635
66299W        W38625  16.518  12.764  12.609
66300W        W38626  36.066  39.096   4.204
66301W        W38627  35.854  32.368   3.238
66302W        W38628  24.627  35.374   4.227
66303W        W38629  37.502  17.180   0.735
66304W        W38630  16.743  13.690   3.705
66305W        W38631  39.978  10.568   2.248
66306W        W38632  10.853  30.026  12.408
66307W        W38633  31.140  33.504  12.472
66308W        W38634  18.225  27.322  11.635
66309W        W38635  17.980  26.790   3.223
66310W        W38636  34.650  32.892   5.193
66311W        W38637  31.903  44.869   2.546
66312W        W38638  16.650  18.148   0.006
66313W        W38639  15.558  27.917   2.308
66314W        W38640  20.048  16.341   2.791
66315W        W38641  37.728  31.046   4.594
66316W        W38642  23.686  20.566  10.770
66317W        W38643  31.639  12.568   3.196
66318W        W38644   3.191  20.137  11.064
66319W        W38645  20.606  26.019  12.383
66320W        W38646  32.453  37.665  13.064
66321W        W38647   4.507  12.618   1.957
66322W        W38648  40.458  39.410  10.442
66323W        W38649  16.820  39.517  11.417
66324W        W38650  29.594  22.739   4.171
66325W        W38651  34.033   1.351   2.231
66326W        W38652  27.901  29.964   4.827
66327W        W38653   4.197  29.769   2.439
66328W        W38654  21.302  10.297  12.389
66329W        W38655  22.307  34.860  14.075
66330W        W38656  44.539   7.165  14.852
66331W        W38657  21.540  14.737  14.771
66332W        W38658  37.870  38.066   0.715
66333W        W38659  36.543  16.290  11.456
66334W        W38660  30.597  35.549  14.712
66335W        W38661  37.728  19.624   5.079
66336W        W38662  30.567  12.758  11.169
66337W        W38663   5.475  41.582   3.271
66338W        W38664  37.019   1.854   4.866
66339W        W38665   3.232  26.216  14.781
66340W        W38666  12.120  18.085  14.898
66341W        W38667  43.411  36.902  14.176
66342W        W38668  27.226  43.455  12.947
66343W        W38669  34.093  21.245  12.925
66344W        W38670  40.961   9.393  11.582
66345W        W38671  11.967  39.491   2.871
66346W        W38672  18.978  30.923   4.193
66347W        W38673  37.958   8.057   3.459
66348W        W38674  39.974  13.359   0.850
66349W        W38675  11.006  10.143  12.460
66350W        W38676   2.836   9.958   3.974
66351W        W38677  33.988  25.610  11.216
66352W        W38678   0.732  26.719   0.480
66353W        W38679  42.315  41.705   4.809
66354W        W38680  27.685  36.893  11.374
66355W        W38681   6.964  10.151  12.850
66356W        W38682  21.557  38.101   4.121
66357W        W38683  13.086  41.806  12.522
66358W        W38684  12.722  25.510  12.017
66359W        W38685  27.174  42.805  10.738
66360W        W38686  16.437  12.187  13.595
66361W        W38687  12.979  39.295   0.710
66362W        W38688  16.152  34.322  12.918
66363W        W38689  14.332  13.247  14.285
66364W        W38690  14.102  10.613   3.697
66365W        W38691  18.129  12.223   4.936
66366W        W38692  30.620   1.455   2.302
66367W        W38693  17.042   2.635  14.511
66368W        W38694  17.581  10.769   1.974
66369W        W38695  36.020  12.104  11.632
66370W        W38696  27.454  30.541   1.314
66371W        W38697   1.885   1.398   4.139
66372W        W38698   2.974  18.715  11.284
66373W        W38699  13.067  11.207  12.856
66374W        W38700  31.528   8.989   0.951
66375W        W38701  29.413  15.637  14.340
66376W        W38702  37.746  37.725  12.882
66377W        W38703  10.634  37.846  12.927
66378W        W38704   8.453  17.167   0.032
66379W        W38705   5.396  17.656   3.206
66380W        W38706   9.736  39.320   0.814
66381W        W38707   4.709   4.901  14.449
66382W        W38708   5.407   9.007  13.164
66383W        W38709  21.341  35.428  14.035
66384W        W38710  24.362  26.049  14.966
66385W        W38711  26.589  32.660  12.489
66386W        W38712  10.100  21.910   1.156
66387W        W38713  42.387   7.153   0.307
66388W        W38714   7.004  39.367   2.860
66389W        W38715  26.676  37.494  12.342
66390W        W38716  11.991  35.083   4.088
66391W        W38717   2.395  33.433   0.359
66392W        W38718  27.891   3.695  14.824
66393W        W38719   8.740  39.778  11.620
66394W        W38720  42.488   1.776  12.068
66395W        W38721  16.603  37.940  14.503
66396W        W38722  28.148   3.832   0.867
66397W        W38723  37.606  14.341  14.847
66398W        W38724   0.048  22.429  11.047
66399W        W38725  28.657  40.324   2.214
66400W        W38726  20.937  42.856  12.438
66401W        W38727  11.185  37.488   2.709
66402W        W38728  16.680  17.823  13.156
66403W        W38729   4.248  16.298  13.487
66404W        W38730   3.326  29.392  10.690
66405W        W38731   7.306   0.326   4.108
66406W        W38732  42.092   2.267  12.919
66407W        W38733  34.203  40.803  12.908
66408W        W38734   1.548  43.937   4.148
66409W        W38735  43.779  35.857  11.198
66410W        W38736  30.169  35.831  14.922
66411W        W38737  26.798  42.279  13.640
66412W        W38738  40.407  26.610   4.632
66413W        W38739  20.991  38.653   4.752
66414W        W38740  39.849  41.407  12.359
66415W        W38741  38.635  27.106  12.845
66416W        W38742  39.995  27.167   2.325
66417W        W38743  43.574  26.487  13.066
66418W        W38744   5.963  11.821  12.478
66419W        W38745  41.295  36.963  12.029
66420W        W38746   0.451  33.436  10.364
66421W        W38747  14.184  42.869   3.106
66422W        W38748  26.250   7.878  11.400
66423W        W38749  15.155  40.201   2.803
66424W        W38750  14.312   9.612  11.574
66425W        W38751  22.652  40.374   0.502
66426W        W38752   9.421   6.117  13.538
66427W        W38753  34.319  15.007   4.116
66428W        W38754  40.942  14.602  13.853
66429W        W38755  32.056   1.905   0.265
66430W        W38756  10.758  11.876   2.904
66431W        W38757  26.562  41.844   4.276
66432W        W38758   1.181  38.534   0.409
66433W        W38759   7.459  40.570  11.133
66434W        W38760  37.729  11.872   9.772
66435W        W38761  31.085  42.007  13.452
66436W        W38762  27.739  17.719   2.163
66437W        W38763  24.485  19.514   1.130
66438W        W38764  43.839  27.596   1.489
66439W        W38765  43.720  37.359   4.611
66440W        W38766  31.662   5.288   2.169
66441W        W38767   6.933  28.032  13.212
66442W        W38768  42.542  36.299  10.885
66443W        W38769  37.838  29.465   3.119
66444W        W38770  27.732  27.702  14.772
66445W        W38771  36.575  11.665  14.487
66446W        W38772  14.743  35.381   3.291
66447W        W38773  35.034   4.789  10.756
66448W        W38774  40.294  29.948   4.622
66449W        W38775  31.606  18.146  14.613
66450W        W38776  35.577  17.270   2.209
66451W        W38777   8.330  12.795  13.402
66452W        W38778  36.564   5.216   3.712
66453W        W38779  22.127  12.179   0.050
66454W        W38780  22.550  12.662  10.550
66455W        W38781  21.485  35.221  12.842
66456W        W38782   9.458  43.522  14.761
66457W        W38783  19.487  29.113  13.151
66458W        W38784  39.537  43.293   0.592
66459W        W38785   1.885   4.309   1.186
66460W        W38786  24.776  23.833  13.324
66461W        W38787  28.096  30.883   0.756
66462W        W38788  20.033  35.435  13.493
66463W        W38789   8.816  23.443   1.717
66464W        W38790  38.868  30.479  12.031
66465W        W38791  16.583  40.040  14.493
66466W        W38792  23.127  36.022  14.759
66467W        W38793  21.797  22.491   2.252
66468W        W38794  28.141  26.305  10.790
66469W        W38795  39.066  11.676   3.236
66470W        W38796  36.420   1.293   0.659
66471W        W38797  35.618  17.680   1.866
66472W        W38798   5.801  24.483  12.103
66473W        W38799  34.121  39.046   0.735
66474W        W38800  34.557  23.539   3.562
66475W        W38801  30.033  16.782  13.053
66476W        W38802  28.126  15.072   4.585
66477W        W38803  13.915  26.124   5.553
66478W        W38804   6.958  43.283   1.448
66479W        W38805  25.381  26.129  10.867
66480W        W38806   5.383  18.874  14.889
66481W        W38807  20.245  41.339  11.085
66482W        W38808   7.636  26.661  12.594
66483W        W38809  32.453  38.376   2.353
66484W        W38810   9.739  13.145   1.712
66485W        W38811  12.110  43.788  14.218
66486W        W38812  44.738   8.674   3.309
66487W        W38813  37.130   4.817  12.453
66488W        W38814  41.581  22.692   3.760
66489W        W38815  43.881   5.863  14.844
66490W        W38816  26.932  21.665  12.921
66491W        W38817  14.683  31.011  12.997
66492W        W38818  14.826  38.756   0.367
66493W        W38819  43.304  21.177   0.708
66494W        W38820   2.929  14.280   2.824
66495W        W38821  36.041  17.729   3.633
66496W        W38822  12.214  25.400   2.778
66497W        W38823   0.374  39.988  14.594
66498W        W38824  40.565  31.872   3.769
66499W        W38825  43.729  20.594  12.068
66500W        W38826  26.779  34.389  13.102
66501W        W38827  14.733  25.724   5.448
66502W        W38828  35.164  24.991  11.650
66503W        W38829  30.910  23.297   3.170
66504W        W38830  25.989   9.534  14.585
66505W        W38831  31.061  43.255   0.306
66506W        W38832  25.903  27.540  12.377
66507W        W38833  42.315  39.819   0.296
66508W        W38834  21.532  17.537  14.425
66509W        W38835  19.304  25.016  13.837
66510W        W38836  32.547  42.907   2.639
66511W        W38837  27.438   1.051   2.447
66512W        W38838   5.928  37.696   4.152
66513W        W38839  26.950  18.546   2.169
66514W        W38840  30.854  38.269  14.478
66515W        W38841  30.192  23.953  12.416
66516W        W38842  38.401  30.086  14.474
66517W        W38843  13.455  14.903  11.642
66518W        W38844  40.797  44.395   3.874
66519W        W38845  43.747  25.137  13.430
66520W        W38846  29.429  10.171  13.534
66521W        W38847  30.247   8.401  13.467
66522W        W38848  39.047  11.430  10.480
66523W        W38849  33.702  25.093  12.994
66524W        W38850  27.883  16.881   1.805
66525W        W38851  44.233  43.365   0.988
66526W        W38852   9.812  43.793   3.677
66527W        W38853  29.937   6.053  11.250
66528W        W38854  32.930  25.058  14.382
66529W        W38855   5.339   2.721   0.749
66530W        W38856  32.440  33.486   4.627
66531W        W38857  20.003  30.636   0.669
66532W        W38858  41.459  43.049  10.507
66533W        W38859  24.782  32.149  12.446
66534W        W38860   4.294   9.335  10.863
66535W        W38861  27.217  34.983   2.681
66536W        W38862  22.206  36.267  10.798
66537W        W38863  29.886  44.467   3.165
66538W        W38864  14.390  24.074  12.867
66539W        W38865  33.067  14.805  13.491
66540W        W38866  29.620  40.004   4.754
66541W        W38867  42.767  31.890   0.280
66542W        W38868  25.377  34.683  12.514
66543W        W38869  39.368  36.411  12.840
66544W        W38870  29.132   1.698   4.723
66545W        W38871  20.618   6.244   2.740
66546W        W38872  14.000  24.038   4.989
66547W        W38873  35.409   1.209   1.440
66548W        W38874  19.185  41.124  10.591
66549W        W38875  17.746  16.808  14.519
66550W        W38876  43.480   7.778  14.890
66551W        W38877  18.097  24.438  12.792
66552W        W38878  27.904  30.563   0.393
66553W        W38879  26.438  32.981   4.600
66554W        W38880  18.175  43.450   3.567
66555W        W38881  14.995  43.888  11.611
66556W        W38882  15.265  39.495   0.627
66557W        W38883  19.285  20.725  12.191
66558W        W38884  11.249  36.953   1.470
66559W        W38885   8.264  42.499   0.673
66560W        W38886  32.369  27.500   2.355
66561W        W38887  44.267  19.738   2.172
66562W        W38888  12.590  13.735   1.063
66563W        W38889  44.530   4.894   0.499
66564W        W38890  23.165  19.702  10.669
66565W        W38891  28.109  29.437  11.788
66566W        W38892  35.480  25.743  14.785
66567W        W38893   5.079  42.075   0.457
66568W        W38894  13.743  26.192  12.113
66569W        W38895  10.450  30.984  10.653
66570W        W38896   3.793  41.062  10.514
66571W        W38897  13.560  14.053  11.374
66572W        W38898  27.283  31.569  10.965
66573W        W38899  43.916  29.921   4.350
66574W        W38900   7.689  32.087   2.298
66575W        W38901   6.464  20.108  14.775
66576W        W38902  13.632  36.305  12.985
66577W        W38903  42.946  24.359  11.639
66578W        W38904  25.511  32.427  11.817
66579W        W38905  22.528  40.568  11.488
66580W        W38906   3.931   8.002   2.278
66581W        W38907  17.298  24.624   3.071
66582W        W38908  35.967   2.996  14.956
66583W        W38909  13.279  13.614  13.496
66584W        W38910  18.331  43.395   4.068
66585W        W38911  30.418  43.165  11.640
66586W        W38912  22.514   9.487   2.312
66587W        W38913  42.040   1.856   0.950
66588W        W38914  20.555   7.780   2.381
66589W        W38915  21.500  17.835   0.295
66590W        W38916  22.577  20.135   1.544
66591W        W38917   0.435  21.774   4.981
66592W        W38918   3.898  16.533  13.874
66593W        W38919  35.657   8.171  13.016
66594W        W38920  36.864  34.940  10.699
66595W        W38921  33.382  22.726   0.029
66596W        W38922  37.302  15.782   0.504
66597W        W38923  42.541   8.442  11.039
66598W        W38924  41.533  17.301  11.666
66599W        W38925  12.226  42.473  14.233
66600W        W38926   2.253   5.269  14.017
66601W        W38927  21.747  19.730  14.171
66602W        W38928  35.431   4.061  12.937
66603W        W38929  44.261  42.411   3.082
66604W        W38930  11.848  44.956  12.882
66605W        W38931  32.131  13.678   3.792
66606W        W38932   5.640   7.711   0.474
66607W        W38933  40.764  39.426  13.631
66608W        W38934  25.680  31.484   4.798
66609W        W38935  10.439  34.355   1.879
66610W        W38936  17.356  34.343  11.675
66611W        W38937  14.802  32.493  11.664
66612W        W38938  11.935   6.321   0.677
66613W        W38939  23.332  41.805   3.159
66614W        W38940  30.865  12.146   3.615
66615W        W38941  26.990  38.905  13.875
66616W        W38942   5.044  43.559  12.066
66617W        W38943  24.208  33.000   3.284
66618W        W38944  30.174  14.120   3.660
66619W        W38945   7.779   8.097   3.291
66620W        W38946  18.104   7.007   0.411
66621W        W38947  17.600  19.605   2.824
66622W        W38948  14.726  41.813   1.909
66623W        W38949  34.926  29.267   4.782
66624W        W38950   1.496  26.785   0.785
66625W        W38951  44.820  16.663   0.730
66626W        W38952   6.304  15.708   1.274
66627W        W38953  29.926  10.302  14.943
66628W        W38954  42.327  15.984   0.877
66629W        W38955  19.448   4.440   0.282
66630W        W38956  23.671  28.804  13.289
66631W        W38957   0.366  21.474  11.160
66632W        W38958  20.053  28.883  10.243
66633W        W38959   4.221  36.110   0.919
66634W        W38960  37.374  33.470  13.334
66635W        W38961  33.433  29.993  13.969
66636W        W38962  27.195  28.059  11.213
66637W        W38963  31.549  31.966  11.679
66638W        W38964   0.228  36.502   4.361
66639W        W38965   0.412  41.042   2.761
66640W        W38966  40.948  33.579   1.366
66641W        W38967  37.527   6.364  13.993
66642W        W38968  23.694  38.495   0.915
66643W        W38969   0.279  32.601  14.491
66644W        W38970   4.921  43.779  13.868
66645W        W38971   8.355   1.755   1.361
66646W        W38972  39.844  23.287   3.578
66647W        W38973  35.948  35.480   2.374
66648W        W38974   8.935  32.263  13.401
66649W        W38975   2.323  36.773   2.185
66650W        W38976  40.919  14.034  12.396
66651W        W38977  19.122  22.538   4.215
66652W        W38978   5.312  15.707  11.211
66653W        W38979   1.742   1.761   3.809
66654W        W38980   7.659  23.712   3.587
66655W        W38981   3.070  19.315   0.386
66656W        W38982  29.491  32.596   1.737
66657W        W38983  37.394  21.974  12.522
66658W        W38984  26.961  15.089   2.204
66659W        W38985  43.346  32.602  14.109
66660W        W38986  37.827   4.902   0.163
66661W        W38987  14.820  16.369   4.210
66662W        W38988  11.770  39.473   4.582
66663W        W38989  30.097  21.345   4.668
66664W        W38990  29.823  34.368  11.640
66665W        W38991  16.475  38.022  12.687
66666W        W38992  21.724  37.854   0.452
66667W        W38993  15.858  26.814  11.436
66668W        W38994  42.959  36.379  11.844
66669W        W38995  30.640  39.874   4.551
66670W        W38996  39.585  33.868   3.221
66671W        W38997  43.562  16.515   4.227
66672W        W38998  38.346  43.080   1.750
66673W        W38999  43.534   9.304   1.778
66674W        W39000   5.446  34.530   2.942
66675W        W39001  20.717  12.794  14.840
66676W        W39002  33.349  29.158   2.811
66677W        W39003  39.247  42.017   1.894
66678W        W39004  14.044  37.471   3.914
66679W        W39005  35.567  13.634  12.679
66680W        W39006   7.070   7.326   2.245
66681W        W39007   7.738  44.154   2.676
66682W        W39008  41.767  26.438   4.253
66683W        W39009  27.666  14.163   0.720
66684W        W39010  24.283  22.150   4.323
66685W        W39011  11.315  38.979  13.081
66686W        W39012  23.109  33.171  12.494
66687W        W39013  21.974   1.509  13.830
66688W        W39014  10.273   4.493   1.050
66689W        W39015  30.872  33.076   3.571
66690W        W39016  28.659   6.263  10.152
66691W        W39017  35.836  39.956  14.302
66692W        W39018   3.250  14.356   3.758
66693W        W39019  36.590  12.539  14.021
66694W        W39020   8.215   1.451   0.936
66695W        W39021  30.618  39.310  13.828
66696W        W39022  30.888  38.615  13.498
66697W        W39023  17.796   1.713   0.006
66698W        W39024  26.276  13.602  14.543
66699W        W39025  32.076  14.322   1.211
66700W        W39026  33.715  36.387  10.537
66701W        W39027  44.290  41.131  11.664
66702W        W39028  10.572  18.567   0.876
66703W        W39029   1.956  12.969  12.136
66704W        W39030  21.028   5.193  14.957
66705W        W39031   6.426   1.186   2.542
66706W        W39032  17.590  18.597   1.199
66707W        W39033  26.582  31.955  11.122
66708W        W39034  25.167  12.905  13.045
66709W        W39035   6.689   9.727  11.610
66710W        W39036  22.071  15.310   4.238
66711W        W39037  15.484  34.053  12.611
66712W        W39038  39.585  34.972  12.508
66713W        W39039  13.133  43.702  12.443
66714W        W39040  17.585  18.606  11.455
66715W        W39041  29.294  43.049   3.342
66716W        W39042  26.636   6.291  12.897
66717W        W39043  12.893  39.750  10.440
66718W        W39044   4.260   2.939  14.794
66719W        W39045  26.926  28.046  12.997
66720W        W39046  40.170  23.177  13.318
66721W        W39047  23.491  24.965   4.093
66722W        W39048   6.905   9.188  12.981
66723W        W39049  34.174  36.937  11.106
66724W        W39050  26.071  11.972   3.118
66725W        W39051   0.360  44.919   2.111
66726W        W39052  35.895   9.445   4.532
66727W        W39053  36.860  37.070  11.211
66728W        W39054  32.505  15.046  12.387
66729W        W39055  20.458   4.677  11.977
66730W        W39056  41.578  36.524  12.126
66731W        W39057  30.047  27.171   4.224
66732W        W39058  28.955  21.771  12.432
66733W        W39059   8.801  10.283  13.833
66734W        W39060  12.754  28.244  13.339
66735W        W39061   8.145   2.372  13.927
66736W        W39062  20.567  18.598   0.230
66737W        W39063  25.396  27.518  12.388
66738W        W39064  44.473  43.839   4.672
66739W        W39065  29.351  10.380   0.736
66740W        W39066  16.470   7.731  13.496
66741W        W39067   7.263  12.180  10.734
66742W        W39068  28.987  14.767   2.811
66743W        W39069   1.446  10.090  13.413
66744W        W39070  38.803   4.894  11.692
66745W        W39071  38.544  29.697  13.425
66746W        W39072  14.872  12.660   4.703
66747W        W39073  43.960   7.477  10.787
66748W        W39074   9.153   7.964  12.905
66749W        W39075  17.303  40.095  13.889
66750W        W39076   7.110  23.051  13.361
66751W        W39077  17.698  26.146   0.872
66752W        W39078  17.311  12.756   4.590
66753W        W39079  43.005  11.812   0.342
66754W        W39080   3.433  15.605   4.198
66755W        W39081   7.619   9.721  14.897
66756W        W39082  35.829   5.355   4.406
66757W        W39083  23.918  25.664  11.950
66758W        W39084  19.611  17.796   2.809
66759W        W39085  25.278  18.484   2.956
66760W        W39086  10.365  14.022  14.729
66761W        W39087  22.205  28.227  12.429
66762W        W39088   0.995  41.385   1.868
66763W        W39089  25.755  32.082   2.363
66764W        W39090   2.891  21.325   0.476
66765W        W39091   9.343  16.807  11.431
66766W        W39092  11.318  44.496   1.276
66767W        W39093  40.465  22.011   0.771
66768W        W39094  34.966  20.190   3.571
66769W        W39095  13.343  15.709  11.962
66770W        W39096  34.887  23.457   3.115
66771W        W39097  28.360  21.543   4.073
66772W        W39098  43.818   1.485   4.079
66773W        W39099  40.123  34.896   4.134
66774W        W39100   3.937  12.593   5.109
66775W        W39101  35.049  30.077  14.007
66776W        W39102   2.191  28.073  13.563
66777W        W39103   3.102  36.006   3.580
66778W        W39104   6.727  24.823   0.360
66779W        W39105  14.051  29.084  12.042
66780W        W39106  33.394  31.932  12.510
66781W        W39107   0.307  30.347   2.311
66782W        W39108  21.219  30.214  10.720
66783W        W39109  26.628  31.862  14.105
66784W        W39110  22.697  42.582   0.817
66785W        W39111  25.141   9.256   0.959
66786W        W39112  37.388  41.506   1.196
66787W        W39113  18.195  16.419   0.739
66788W        W39114   0.362  23.198  11.927
66789W        W39115  32.338  39.450   1.478
66790W        W39116  27.987   7.443   2.191
66791W        W39117  17.018  26.404   0.279
66792W        W39118  36.939   5.247  12.998
66793W        W39119  10.731   5.808   4.550
66794W        W39120  27.932  35.562   0.305
66795W        W39121   6.136  17.844  13.569
66796W        W39122  16.206  11.060  12.538
66797W        W39123  15.792  31.843   0.831
66798W        W39124   8.114  15.634   2.154
66799W        W39125  40.965  44.933   1.258
66800W        W39126   7.392  11.141  14.047
66801W        W39127  34.286   6.055   3.339
66802W        W39128  25.421  17.651  12.728
66803W        W39129  11.706  25.433   4.897
66804W        W39130  16.829  40.970   2.879
66805W        W39131  16.296  29.686   1.254
66806W        W39132   8.539  29.220   9.980
66807W        W39133  13.089   4.759  12.842
66808W        W39134  30.081  15.711  12.661
66809W        W39135  20.890   0.923   5.083
66810W        W39136  41.428  31.158  12.841
66811W        W39137  22.739  17.223  14.831
66812W        W39138  25.591  10.113   1.485
66813W        W39139  40.581  14.614  13.472
66814W        W39140  23.177  33.453  14.992
66815W        W39141   9.698  32.525   2.419
66816W        W39142  38.587  44.426   1.559
66817W        W39143  15.639  21.943   4.332
66818W        W39144  10.770  40.823   2.822
66819W        W39145  43.411   4.352  13.589
66820W        W39146   0.175  14.638  11.553
66821W        W39147  17.810  40.196  13.859
66822W        W39148   1.342   2.762  13.562
66823W        W39149   0.691  35.625   4.127
66824W        W39150  29.882  26.558   2.167
66825W        W39151  27.096  12.372   2.243
66826W        W39152  41.944  35.371   0.600
66827W        W39153  19.499  20.643   2.822
66828W        W39154   0.010   6.262  13.822
66829W        W39155   3.567  21.765  11.887
66830W        W39156  43.502  14.081  14.587
66831W        W39157   9.864  26.214   0.425
66832W        W39158   2.186  29.695  12.658
66833W        W39159  34.567  26.134   0.710
66834W        W39160  36.044   0.833  13.862
66835W        W39161   0.725   3.438   1.922
66836W        W39162  37.764  36.553  12.472
66837W        W39163  19.754  10.840   1.139
66838W        W39164   3.965  33.093   3.294
66839W        W39165  43.916   3.508  13.427
66840W        W39166  15.884  16.749  12.624
66841W        W39167  44.868  40.816  14.869
66842W        W39168  40.179  42.800   4.492
66843W        W39169   4.711  37.452   1.821
66844W        W39170  18.090  11.859  11.928
66845W        W39171  21.935   7.354  14.270
66846W        W39172   4.351  43.644  13.893
66847W        W39173   8.872  33.764  13.109
66848W        W39174  44.300   5.281   4.037
66849W        W39175  13.750  21.549  13.961
66850W        W39176  26.219  39.349   1.248
66851W        W39177  29.799  37.003  12.293
66852W        W39178   6.658  25.635  13.690
66853W        W39179  23.992   3.322   4.552
66854W        W39180   0.701  18.053  13.553
66855W        W39181  20.911  18.657   2.226
66856W        W39182  16.063  31.918  14.577
66857W        W39183   9.316   5.408  12.432
66858W        W39184   0.031  19.346  13.717
66859W        W39185   5.177  44.334  13.415
66860W        W39186  33.469  37.920   4.216
66861W        W39187  28.353  17.017  13.001
66862W        W39188  10.549  41.701  10.993
66863W        W39189  22.517  39.038  11.551
66864W        W39190  24.261  43.804   2.214
66865W        W39191  17.797  28.022  13.348
66866W        W39192   5.188   2.861  14.267
66867W        W39193   4.917  19.125   2.857
66868W        W39194  12.428  31.936  11.931
66869W        W39195  15.005  15.707   3.328
66870W        W39196  39.381  20.168  10.685
66871W        W39197  34.291  34.534  12.930
66872W        W39198  44.342  35.037  13.875
66873W        W39199   6.665  15.605  14.735
66874W        W39200  44.354   6.749  12.608
66875W        W39201  35.588  38.786   0.787
66876W        W39202  37.079  15.526  11.906
66877W        W39203  15.752  35.396   3.554
66878W        W39204   8.936   0.758   2.789
66879W        W39205  37.494  32.037   0.612
66880W        W39206  28.710   0.295   2.150
66881W        W39207  13.231  20.034   4.603
66882W        W39208  40.908   1.353   1.480
66883W        W39209  19.794  16.598   4.116
66884W        W39210  12.316   2.936   0.837
66885W        W39211  13.844  24.929  12.842
66886W        W39212  36.483  34.124  10.967
66887W        W39213  43.528   5.633  13.927
66888W        W39214  15.201  32.607  10.816
66889W        W39215  28.409   8.563  11.650
66890W        W39216  31.368  28.456   0.246
66891W        W39217  38.748  18.553  13.540
66892W        W39218  26.164  34.876   2.809
66893W        W39219  38.115  27.006   1.751
66894W        W39220  14.092   1.472  13.924
66895W        W39221  27.099   7.164  14.357
66896W        W39222   2.241  33.963  11.349
66897W        W39223  37.892   6.399   1.444
66898W        W39224  30.210   8.081  14.952
66899W        W39225  43.787  13.388   3.190
66900W        W39226  28.499  30.718  14.772
66901W        W39227  20.191  38.162  14.657
66902W        W39228  35.307  16.738  12.104
66903W        W39229   4.473  37.206  13.003
66904W        W39230  34.520   2.225   4.005
66905W        W39231  11.228  25.435   4.278
66906W        W39232  32.181  19.395   4.958
66907W        W39233  18.780  34.868  13.392
66908W        W39234  10.433  19.848  14.743
66909W        W39235  17.754  19.537  11.189
66910W        W39236  23.316  12.667  14.050
66911W        W39237   3.793  40.836  11.833
66912W        W39238  33.962  17.309   2.434
66913W        W39239   9.316  14.359   0.322
66914W        W39240  21.049  37.005   3.400
66915W        W39241  26.330   0.988   4.665
66916W        W39242  36.316   6.465  11.083
66917W        W39243  44.788  30.093   4.354
66918W        W39244   3.235  44.486  13.999
66919W        W39245  29.532  23.119   2.165
66920W        W39246  22.819  11.115  14.260
66921W        W39247  24.020  32.934  12.965
66922W        W39248   5.426  31.869   4.197
66923W        W39249  27.460  13.893   3.166
66924W        W39250  20.359   8.225  14.528
66925W        W39251   0.778  44.918  13.384
66926W        W39252  10.611  13.361   4.305
66927W        W39253  41.288  37.273   2.033
66928W        W39254  24.512  41.161  10.464
66929W        W39255  15.255  10.736  14.433
66930W        W39256  15.153  38.858  13.000
66931W        W39257  11.620   0.345  10.496
66932W        W39258  39.526  20.129   1.702
66933W        W39259  40.069  28.004  11.258
66934W        W39260  44.331  18.739   2.750
66935W        W39261  11.229  14.312  14.780
66936W        W39262   4.719  42.574  10.565
66937W        W39263  35.512  19.296  12.120
66938W        W39264  25.477  12.357   3.826
66939W        W39265  30.113  10.648   0.304
66940W        W39266   1.173   8.330  12.160
66941W        W39267  43.000   6.254   4.673
66942W        W39268  26.934  39.869  11.096
66943W        W39269  31.736  44.908  13.408
66944W        W39270  20.954  20.775  13.099
66945W        W39271  22.052  16.947   3.217
66946W        W39272  17.691  33.539  14.010
66947W        W39273   4.876  14.569  11.671
66948W        W39274   5.463  44.446   2.409
66949W        W39275  37.897   9.931   4.670
66950W        W39276  43.425  40.351  14.638
66951W        W39277  28.585  16.538   4.132
66952W        W39278  23.276  19.177   1.723
66953W        W39279  37.534   3.678   0.406
66954W        W39280  40.856  11.732  14.345
66955W        W39281  14.161  34.102   2.411
66956W        W39282  42.594   4.909   3.958
66957W        W39283  14.692  29.068  12.445
66958W        W39284  28.470  39.668  14.854
66959W        W39285  36.530   2.968  12.002
66960W        W39286   0.820  19.553   1.788
66961W        W39287  43.277  13.028  14.514
66962W        W39288  14.588  36.125   2.257
66963W        W39289  21.863  30.639   3.646
66964W        W39290  16.628  28.377   3.598
66965W        W39291  26.851  10.922   1.400
66966W        W39292  32.102  28.125   3.259
66967W        W39293  11.255  15.271   2.618
66968W        W39294  33.133   5.150   3.735
66969W        W39295  24.209  25.380  14.319
66970W        W39296  39.394  12.633   1.880
66971W        W39297  20.491  17.536  13.654
66972W        W39298  31.865  18.846  13.362
66973W        W39299  34.947  11.877   2.219
66974W        W39300   9.527  33.049   1.192
66975W        W39301  34.401  12.385   3.741
66976W        W39302  33.626  21.754  14.814
66977W        W39303   1.883  32.170   3.631
66978W        W39304   2.429  11.864   0.605
66979W        W39305  33.502  44.545   2.859
66980W        W39306  17.759  34.060  14.108
66981W        W39307  40.748  29.201   0.707
66982W        W39308  16.725  25.278   2.644
66983W        W39309   9.244  35.657   1.866
66984W        W39310  12.018  29.304   3.973
66985W        W39311   0.444  18.093  14.499
66986W        W39312  31.816  21.828  11.067
66987W        W39313  34.497  40.013  14.318
66988W        W39314  28.882  39.886   4.480
66989W        W39315  33.788  29.628  11.522
66990W        W39316   6.858  38.881   1.974
66991W        W39317  18.539  17.749   4.737
66992W        W39318  12.714   9.003   3.208
66993W        W39319  10.894  40.324   3.908
66994W        W39320   7.862  34.518  13.721
66995W        W39321  24.142  38.010   0.849
66996W        W39322   3.204  11.288  11.598
66997W        W39323   6.877  17.157   1.364
66998W        W39324  28.584  10.381  13.026
66999W        W39325  35.366  14.107  13.929
67000W        W39326  40.526  14.680  14.443
67001W        W39327  19.661   6.128  13.594
67002W        W39328  22.080  43.374   0.244
67003W        W39329  24.289  32.443  12.959
67004W        W39330  31.508  16.802   0.738
67005W        W39331  21.708  12.579  12.508
67006W        W39332  19.589   1.744   2.309
67007W        W39333  35.036  25.522  14.880
67008W        W39334  17.905  30.126  11.641
67009W        W39335  27.183  10.192   1.685
67010W        W39336   6.613   3.906   0.767
67011W        W39337  23.722  35.313  13.070
67012W        W39338  43.746  24.240   0.007
67013W        W39339   5.637  37.408  12.148
67014W        W39340  17.823  30.579   3.702
67015W        W39341  13.729   1.033   3.357
67016W        W39342  27.672  21.400  12.063
67017W        W39343  12.213  26.046   1.432
67018W        W39344  24.948  40.960  14.830
67019W        W39345  40.894  13.066  12.671
67020W        W39346   2.075   8.744  14.011
67021W        W39347   0.920  42.644   4.500
67022W        W39348   7.007   6.178  12.537
67023W        W39349  25.263  24.985  14.366
67024W        W39350  41.554   3.520   1.318
67025W        W39351   7.648   4.697  14.510
67026W        W39352  35.125  31.382   1.854
67027W        W39353  27.560  20.205  11.597
67028W        W39354  37.344   4.721  11.983
67029W        W39355  19.509  24.225  12.926
67030W        W39356  37.122   8.982  10.645
67031W        W39357  30.157  28.729   1.721
67032W        W39358  10.179   4.162   2.880
67033W        W39359   0.422  40.157   1.020
67034W        W39360  35.676   3.248  11.510
67035W        W39361  40.031  34.856   1.701
67036W        W39362  16.575  29.925  12.507
67037W        W39363  34.602  41.806   2.853
67038W        W39364  27.523  24.760  13.124
67039W        W39365  11.072  18.724   1.017
67040W        W39366  20.948  41.047   3.905
67041W        W39367  42.370   9.549   0.349
67042W        W39368  36.570  38.985   2.870
67043W        W39369  20.730  44.853   1.723
67044W        W39370  36.821  44.550   1.101
67045W        W39371  28.218  31.773  10.671
67046W        W39372  40.575  41.562   2.422
67047W        W39373  30.813   8.247   4.887
67048W        W39374   2.144  35.761   2.348
67049W        W39375  44.059  19.087   1.318
67050W        W39376  38.820  30.683  11.153
67051W        W39377  19.810  37.571   2.464
67052W        W39378  37.172  39.493  11.007
67053W        W39379  13.751  23.758   4.576
67054W        W39380   5.194   2.327   2.699
67055W        W39381   0.473  26.038  11.627
67056W        W39382  22.579   7.901   0.681
67057W        W39383  21.347  41.524  10.454
67058W        W39384  14.056  16.683   4.136
67059W        W39385  41.896   2.754  11.944
67060W        W39386  27.669  33.654   2.383
67061W        W39387  44.042  40.603  12.405
67062W        W39388  34.471   9.393  13.905
67063W        W39389   9.649  39.918   3.617
67064W        W39390   4.427  36.203  12.791
67065W        W39391  11.274  13.879   1.781
67066W        W39392  21.880  11.877  13.932
67067W        W39393  25.437  30.323  13.398
67068W        W39394  35.917  44.788  12.572
67069W        W39395  39.848  30.448  13.099
67070W        W39396  31.568  17.031   1.207
67071W        W39397  14.318  29.170   0.306
67072W        W39398  15.706   4.821   3.269
67073W        W39399  31.179  39.874   0.981
67074W        W39400   7.325  28.126   1.799
67075W        W39401  25.943  37.992  14.483
67076W        W39402  37.939   2.980  12.031
67077W        W39403  43.255  38.127  11.577
67078W        W39404  14.531  24.932  12.704
67079W        W39405  32.659  33.318   0.295
67080W        W39406  21.520  30.095  12.024
67081W        W39407   2.196  33.906   0.414
67082W        W39408  27.003  40.704   3.754
67083W        W39409  38.079  24.100  10.689
67084W        W39410  38.088  19.548  14.018
67085W        W39411  20.582  30.190   4.018
67086W        W39412  23.203  27.534   1.907
67087W        W39413  29.720  32.125   1.844
67088W        W39414  34.834  13.657   3.787
67089W        W39415  28.533  41.577   4.491
67090W        W39416  10.411   2.248  13.450
67091W        W39417  25.451   4.664  13.654
67092W        W39418  13.787  17.560   4.168
67093W        W39419  24.012  44.772   2.587
67094W        W39420  39.313  24.014  12.176
67095W        W39421   2.712  17.251  14.402
67096W        W39422   7.314  30.371   0.166
67097W        W39423   7.599  37.075   2.241
67098W        W39424   8.668  12.153  14.948
67099W        W39425  15.630  21.297   0.885
67100W        W39426  22.726  29.336  11.522
67101W        W39427  22.573  36.426   2.310
67102W        W39428  33.141  29.893   0.032
67103W        W39429  34.035  20.497   2.201
67104W        W39430  17.219  19.048   3.229
67105W        W39431  15.571  14.232  13.923
67106W        W39432  25.030  18.734   3.326
67107W        W39433  24.651  38.372   4.954
67108W        W39434   7.296  22.258   3.445
67109W        W39435  20.763  39.986   4.108
67110W        W39436  27.950  22.642   5.043
67111W        W39437  43.561  10.559   4.143
67112W        W39438  20.528  18.246   3.361
67113W        W39439  43.493  12.103  14.277
67114W        W39440   4.381  12.890   0.379
67115W        W39441  13.793   9.216  13.909
67116W        W39442  33.934  10.199   1.430
67117W        W39443  40.301   1.346   0.261
67118W        W39444  21.868   4.017  12.151
67119W        W39445  37.341  29.173   4.323
67120W        W39446  27.940  11.420   3.584
67121W        W39447  11.055  12.832   1.864
67122W        W39448  16.067  14.207   0.426
67123W        W39449  13.086   2.727  13.361
67124W        W39450  13.124  10.066  11.889
67125W        W39451  41.583   0.802  10.675
67126W        W39452   2.988   4.219  12.887
67127W        W39453  34.877  37.968  13.922
67128W        W39454  33.844  11.986   3.889
67129W        W39455  40.523  17.468   2.796
67130W        W39456  38.986  31.395   0.060
67131W        W39457  15.864   1.713   4.441
67132W        W39458  14.708  12.889  13.348
67133W        W39459   1.824  10.278  13.121
67134W        W39460  24.214  38.004  11.556
67135W        W39461  32.033   8.407   1.673
67136W        W39462   0.421   5.487   4.525
67137W        W39463  19.695   0.485  11.501
67138W        W39464   0.349  24.623   0.857
67139W        W39465  16.911  42.912   0.717
67140W        W39466  43.780  40.584   2.452
67141W        W39467   7.445  39.840  14.811
67142W        W39468  24.079  31.685  12.337
67143W        W39469  42.106  32.337  13.364
67144W        W39470  36.388   4.021  12.351
67145W        W39471  15.594   9.928   0.437
67146W        W39472  19.842  13.659   1.334
67147W        W39473  41.828  28.748  12.226
67148W        W39474  19.126  28.648  12.017
67149W        W39475   2.451  44.367  11.512
67150W        W39476  27.967  18.071  13.767
67151W        W39477  34.627  44.724   1.475
67152W        W39478  19.132  18.753  12.951
67153W        W39479   0.671  27.985  10.082
67154W        W39480   8.803  39.547   2.722
67155W        W39481  22.746  40.567   1.386
67156W        W39482  39.182  36.914   3.165
67157W        W39483  18.790  28.621   0.547
67158W        W39484  37.598  16.326  14.236
67159W        W39485  24.107  33.345   2.415
67160W        W39486  32.778   0.729  11.465
67161W        W39487  37.561  38.509  13.453
67162W        W39488  21.737  27.412  13.451
67163W        W39489  10.009  38.852  10.324
67164W        W39490   0.233  26.101   4.953
67165W        W39491  30.328  28.077  13.380
67166W        W39492  11.260  25.635   2.793
67167W        W39493  44.605  14.827   2.635
67168W        W39494  13.652  23.076  11.496
67169W        W39495  28.751  27.003  13.927
67170W        W39496   6.334  38.507  11.970
67171W        W39497  27.615  27.630   0.679
67172W        W39498  30.193  11.906  12.105
67173W        W39499  33.664  12.191   1.424
67174W        W39500  16.200  12.710   0.965
67175W        W39501  40.613   8.087   1.300
67176W        W39502  23.032  39.888   3.821
67177W        W39503  22.136  18.285   1.239
67178W        W39504   7.355   5.485   3.682
67179W        W39505  24.980  29.854   1.309
67180W        W39506   0.870  41.382   0.549
67181W        W39507  13.740  31.937  11.852
67182W        W39508  25.065  35.276   2.961
67183W        W39509  29.157  16.168  14.995
67184W        W39510   0.930  35.695  12.378
67185W        W39511  21.052  25.809   4.163
67186W        W39512  11.963   8.932  14.984
67187W        W39513   4.704   7.923  11.900
67188W        W39514  21.837  34.736   3.827
67189W        W39515   1.665  12.078  12.001
67190W        W39516  12.345  19.115   0.769
67191W        W39517   2.263   9.361  14.558
67192W        W39518  30.513  40.385   3.465
67193W        W39519   7.854  16.134   4.697
67194W        W39520  16.975  16.298  11.612
67195W        W39521  11.219  19.894   2.712
67196W        W39522   4.897  34.348   4.780
67197W        W39523  37.506  39.578  10.625
67198W        W39524  17.560  17.707  11.429
67199W        W39525  37.382  18.900  13.670
67200W        W39526  25.128  10.897   1.168
67201W        W39527  31.857  16.649  10.850
67202W        W39528  32.975  24.670  13.991
67203W        W39529   8.805  12.358   0.846
67204W        W39530  37.684   3.867  14.394
67205W        W39531  40.573   6.715   2.395
67206W        W39532  11.854  35.304   4.575
67207W        W39533  33.911  37.069   2.856
67208W        W39534  39.558  38.302   1.926
67209W        W39535  24.100   3.082   1.891
67210W        W39536   5.772   7.189   4.184
67211W        W39537   5.872  41.218   4.506
67212W        W39538   7.344   2.215   2.354
67213W        W39539  11.726  30.185   3.323
67214W        W39540  20.730  21.295   1.921
67215W        W39541  29.182  15.818  13.047
67216W        W39542  32.618  20.894   0.116
67217W        W39543  12.781  37.147   1.989
67218W        W39544   9.862  18.548  12.133
67219W        W39545  35.405  39.070  13.435
67220W        W39546   6.219   8.283  10.747
67221W        W39547  19.569  40.817   0.422
67222W        W39548  17.245  17.368   2.610
67223W        W39549  13.483  15.925   4.969
67224W        W39550   4.904   9.928  11.361
67225W        W39551   4.708  39.086  11.177
67226W        W39552  43.257  13.041   9.903
67227W        W39553  28.379  35.811   4.021
67228W        W39554  17.068  24.558   1.749
67229W        W39555   1.926  44.934  14.431
67230W        W39556  27.508  44.807   4.267
67231W        W39557  27.443   3.387  11.827
67232W        W39558   2.903  40.491  13.390
67233W        W39559   6.817  30.215   3.861
67234W        W39560  31.977  38.884  10.669
67235W        W39561  21.284  21.606   2.297
67236W        W39562   0.793  17.194  13.303
67237W        W39563  11.445  28.562  11.569
67238W        W39564  39.844  12.703   4.540
67239W        W39565  29.611  43.314  14.099
67240W        W39566  38.178   7.761   2.178
67241W        W39567  42.385  40.774   0.678
67242W        W39568  20.641  38.300  13.315
67243W        W39569  21.749  11.735  13.444
67244W        W39570  21.434   4.225  12.823
67245W        W39571  36.074  10.724  14.413
67246W        W39572  14.795  17.850   2.339
67247W        W39573  14.002  40.343   1.498
67248W        W39574  19.733  29.509  13.397
67249W        W39575  31.942  40.927   0.247
67250W        W39576  32.073  24.999  11.245
67251W        W39577  20.069   6.991  12.083
67252W        W39578   2.811   8.417  11.478
67253W        W39579  23.034  28.736   2.573
67254W        W39580  11.651  23.026  13.501
67255W        W39581   5.072  40.127  12.948
67256W        W39582  32.556  20.996  12.059
67257W        W39583   4.461   1.705  13.313
67258W        W39584  11.675   7.739   0.333
67259W        W39585  43.326   3.753   2.816
67260W        W39586  44.720  22.037  11.041
67261W        W39587  25.712  15.176   5.486
67262W        W39588   2.401  29.718  10.300
67263W        W39589  33.615  38.272  14.802
67264W        W39590  10.286  42.092  13.545
67265W        W39591  31.445  26.479   4.851
67266W        W39592   7.449  29.673  13.464
67267W        W39593   1.313  36.067  12.445
67268W        W39594  19.637   7.942  10.661
67269W        W39595  28.712  38.442  11.445
67270W        W39596  27.012  43.869  11.122
67271W        W39597   3.001  21.836  10.188
67272W        W39598  17.793  19.252  14.505
67273W        W39599  28.460  30.614  13.617
67274W        W39600  33.962  36.555  13.486
67275W        W39601  11.139  42.340  12.057
67276W        W39602  31.364  32.388   0.930
67277W        W39603  16.447  27.444   0.008
67278W        W39604  27.795   6.380   1.319
67279W        W39605  42.809  43.905  11.924
67280W        W39606   5.221  19.271   1.245
67281W        W39607   8.224  34.184  11.621
67282W        W39608  31.282  35.189  13.989
67283W        W39609  37.995  32.155   0.749
67284W        W39610  22.548  38.941  13.217
67285W        W39611  35.895  15.729   1.031
67286W        W39612  29.481  36.404   0.923
67287W        W39613  27.375  13.014   0.004
67288W        W39614  39.803  32.663   2.851
67289W        W39615  40.112  26.916   0.842
67290W        W39616   0.471  40.605  12.495
67291W        W39617  28.777  22.958  11.116
67292W        W39618   6.222  36.236   0.291
67293W        W39619  36.180  30.250   0.710
67294W        W39620  34.407  19.318   2.155
67295W        W39621  16.677   9.755  13.611
67296W        W39622  32.975  37.396   1.309
67297W        W39623  19.224  15.651   0.228
67298W        W39624   9.577   3.247  14.355
67299W        W39625  26.047  37.188   0.311
67300W        W39626  34.777  15.806  10.794
67301W        W39627  25.728  26.582  14.316
67302W        W39628   9.322   6.447   2.894
67303W        W39629  19.528  28.512  12.325
67304W        W39630  12.051  30.243  13.790
67305W        W39631   6.735  10.869  14.588
67306W        W39632  35.561  14.993  11.479
67307W        W39633  27.574   1.496   4.698
67308W        W39634   3.922  32.510  14.846
67309W        W39635  17.319  11.253  13.552
67310W        W39636   3.507   4.331  12.849
67311W        W39637  20.502  43.835   1.797
67312W        W39638  16.646  38.161  14.033
67313W        W39639  18.233  13.836  13.963
67314W        W39640  19.987  20.538  11.515
67315W        W39641  34.339  16.345   1.437
67316W        W39642  20.252  31.806   4.727
67317W        W39643   5.178  28.371   3.643
67318W        W39644  17.869  37.869  13.151
67319W        W39645  10.516  11.071  11.942
67320W        W39646  17.869   6.152   0.624
67321W        W39647  44.760   1.186  13.582
67322W        W39648  34.911  11.839   1.268
67323W        W39649   8.546  40.026  11.204
67324W        W39650   2.822  35.485   0.827
67325W        W39651  11.332   7.633   3.850
67326W        W39652  37.272  25.929  12.537
67327W        W39653  32.984  12.823   4.476
67328W        W39654  34.424   6.623   2.142
67329W        W39655   3.232  44.655   1.348
67330W        W39656   6.807   8.637   1.651
67331W        W39657  27.440  28.991   4.980
67332W        W39658  11.582  44.875  11.092
67333W        W39659  39.911  19.640  11.639
67334W        W39660  29.635  19.102  14.774
67335W        W39661  32.149  14.743  13.471
67336W        W39662  12.407  18.174   3.312
67337W        W39663  15.819  36.301   4.109
67338W        W39664  20.785   7.406  11.205
67339W        W39665  42.862  24.679   0.457
67340W        W39666   2.706  11.735   0.179
67341W        W39667  29.665  20.690   4.988
67342W        W39668  17.416  43.079   0.663
67343W        W39669  13.788  42.505   4.239
67344W        W39670  23.447   5.390  12.988
67345W        W39671  27.993   4.627   0.383
67346W        W39672   5.676  42.982   0.948
67347W        W39673  20.461  27.618  11.129
67348W        W39674  40.874  20.759   4.756
67349W        W39675  16.128  41.518   1.426
67350W        W39676  43.852  44.527   4.534
67351W        W39677  19.493   5.617  12.935
67352W        W39678  26.006  33.039  10.641
67353W        W39679  43.060  29.929   3.256
67354W        W39680  24.140   3.615  11.507
67355W        W39681   3.296   8.301  14.294
67356W        W39682  28.358  10.296   2.917
67357W        W39683   9.932  27.622  14.936
67358W        W39684  15.202   2.862  13.497
67359W        W39685  11.657  36.862   4.606
67360W        W39686  41.807  31.534  10.719
67361W        W39687   3.170   5.353   3.518
67362W        W39688   2.727  12.391  12.487
67363W        W39689   8.493   8.843   2.212
67364W        W39690  32.468   9.140  10.690
67365W        W39691  13.748   9.726  14.042
67366W        W39692  21.953  44.052  13.053
67367W        W39693  19.164  38.095   0.369
67368W        W39694  13.592  14.253   2.190
67369W        W39695  41.615  20.785  12.116
67370W        W39696  14.907  26.114  11.295
67371W        W39697   8.912  39.851   0.643
67372W        W39698  25.976  42.320  14.774
67373W        W39699  21.202   6.410  10.320
67374W        W39700  42.412   9.856  13.847
67375W        W39701  35.045   1.219  11.506
67376W        W39702  30.139  39.116  13.863
67377W        W39703  11.502  10.357  14.558
67378W        W39704  18.270  21.441  12.062
67379W        W39705  32.990   3.415  14.300
67380W        W39706   8.672  22.038  12.112
67381W        W39707  33.569   7.194  11.089
67382W        W39708  16.656   4.479  13.028
67383W        W39709  33.556  12.515  14.124
67384W        W39710  36.783   5.184  11.249
67385W        W39711  43.068  36.511   3.694
67386W        W39712  38.372  13.809   4.420
67387W        W39713  17.205  13.018   3.159
67388W        W39714  21.193   1.546   1.896
67389W        W39715  34.810  37.771   3.616
67390W        W39716   2.221  44.079  11.889
67391W        W39717  31.186  39.850   4.603
67392W        W39718  19.626  34.362  12.960
67393W        W39719   3.731  35.408  12.002
67394W        W39720  44.544  12.357  12.333
67395W        W39721  17.129  23.549  11.512
67396W        W39722  44.192   9.884  12.532
67397W        W39723  26.114   1.175  11.666
67398W        W39724   3.845  19.820   3.291
67399W        W39725  24.219  16.628  13.100
67400W        W39726  24.727  42.333   4.541
67401W        W39727  40.478  10.169  12.165
67402W        W39728  42.441   3.275   5.049
67403W        W39729  30.079  10.785  12.780
67404W        W39730   4.427   8.252   3.748
67405W        W39731  30.232  32.053  11.693
67406W        W39732  34.584  19.320   4.616
67407W        W39733   6.711  13.328  12.068
67408W        W39734  31.496  39.064  11.838
67409W        W39735  38.397  32.444  11.565
67410W        W39736  31.145  23.760   0.439
67411W        W39737   9.328   2.225  11.477
67412W        W39738  42.980  32.444   2.214
67413W        W39739  22.090   8.220  14.822
67414W        W39740  40.778   4.816   4.401
67415W        W39741  44.831  40.456  10.772
67416W        W39742  17.358   0.253   1.448
67417W        W39743  31.551   4.040   2.656
67418W        W39744   6.906  22.891   0.527
67419W        W39745  34.027   2.473  12.431
67420W        W39746  40.481  22.666  14.917
67421W        W39747  27.648  44.678  11.225
67422W        W39748  18.112   3.955   4.351
67423W        W39749  21.449   7.933  14.962
67424W        W39750  17.617  30.145   3.917
67425W        W39751  35.207  38.397   0.954
67426W        W39752  16.006  12.259   0.786
67427W        W39753  17.554  17.256  14.756
67428W        W39754  42.327   6.682   1.749
67429W        W39755  13.992   4.969  14.469
67430W        W39756   6.873  27.262   0.313
67431W        W39757  17.732  21.049   4.156
67432W        W39758  27.989  33.296   1.247
67433W        W39759  40.396  43.111   3.264
67434W        W39760  22.699   1.019  14.235
67435W        W39761  14.046  27.494  13.420
67436W        W39762   1.415  13.102  14.438
67437W        W39763  44.893  36.687  13.895
67438W        W39764   4.014  25.758  11.543
67439W        W39765  15.319  39.108  12.581
67440W        W39766  10.388  35.991  13.820
67441W        W39767  21.414   5.203  10.837
67442W        W39768   2.749   4.927   2.703
67443W        W39769  26.038  17.275  11.619
67444W        W39770  32.155  33.414   3.699
67445W        W39771  17.680  37.993  10.651
67446W        W39772  22.170  31.903   3.683
67447W        W39773  32.901  16.082   3.446
67448W        W39774  29.633  15.668  11.939
67449W        W39775  42.342  16.330  13.975
67450W        W39776   7.755   7.922   0.926
67451W        W39777  14.845  23.549  12.394
67452W        W39778  15.972   1.005  11.491
67453W        W39779  41.012  24.579  10.523
67454W        W39780   4.354  43.227   4.204
67455W        W39781  37.570   0.706   1.982
67456W        W39782  34.047   4.764  12.836
67457W        W39783  10.859  10.254   2.768
67458W        W39784  19.816  38.011  12.890
67459W        W39785  35.303   9.739   1.882
67460W        W39786  41.994  27.685  13.324
67461W        W39787  30.833  19.859  12.366
67462W        W39788  13.846  44.971  12.539
67463W        W39789  29.898  32.193  13.597
67464W        W39790  14.275  18.244  11.140
67465W        W39791  24.847   7.865  11.942
67466W        W39792  31.009  39.765  11.922
67467W        W39793  10.665  17.558  12.962
67468W        W39794  35.055  38.301   0.040
67469W        W39795  16.402  21.487  12.006
67470W        W39796  38.016  41.798   3.333
67471W        W39797  13.173  22.743   0.758
67472W        W39798  34.061  27.983   2.806
67473W        W39799   5.862   5.739  14.015
67474W        W39800   8.411  27.502  11.149
67475W        W39801  20.550  44.715   2.218
67476W        W39802   1.945  10.308  12.091
67477W        W39803  15.871  43.050  14.772
67478W        W39804  33.160   8.855   2.294
67479W        W39805  40.211  30.085  11.889
67480W        W39806  32.732   3.498   2.848
67481W        W39807  11.662  15.298   1.189
67482W        W39808   9.861   0.891   2.655
67483W        W39809   0.565  40.841  13.573
67484W        W39810  15.797  11.884   3.259
67485W        W39811  41.567  37.059   3.807
67486W        W39812  37.331  20.650   4.542
67487W        W39813  39.269  37.340   4.568
67488W        W39814  13.512  30.415  14.035
67489W        W39815  16.777   9.319   3.849
67490W        W39816  30.738   5.654   0.909
67491W        W39817   7.150   4.639  11.977
67492W        W39818  11.277  17.528   1.362
67493W        W39819  10.373  22.024  10.621
67494W        W39820  25.517  40.461  13.893
67495W        W39821   3.755  25.531   4.965
67496W        W39822  42.265   0.224  11.595
67497W        W39823  36.486  28.497  12.649
67498W        W39824  30.746  12.948   3.278
67499W        W39825  27.209  37.914   2.663
67500W        W39826  16.348  43.087   2.386
67501W        W39827  31.450   0.660   2.597
67502W        W39828  34.935  15.191   4.802
67503W        W39829  29.601   5.818   3.439
67504W        W39830  16.618   8.757   5.106
67505W        W39831  31.014  35.854  14.564
67506W        W39832  22.481  23.837   4.546
67507W        W39833  29.558  39.399   2.288
67508W        W39834   4.183   6.377  13.897
67509W        W39835  24.994  29.457   4.253
67510W        W39836  15.251  33.456   1.302
67511W        W39837  10.416  10.908   1.473
67512W        W39838  26.014  33.852   4.371
67513W        W39839  42.049  43.752  12.503
67514W        W39840  41.714  30.186  14.824
67515W        W39841  15.650   6.690   1.299
67516W        W39842   5.245  30.654   3.686
67517W        W39843  34.385  44.793  13.176
67518W        W39844  18.335   1.831  14.968
67519W        W39845   7.353  33.823  10.947
67520W        W39846  40.817   5.251  13.415
67521W        W39847  43.249  42.834   4.482
67522W        W39848  18.532   5.716   4.178
67523W        W39849  34.364  32.676   2.345
67524W        W39850  32.456  35.015   4.241
67525W        W39851  38.833  42.833   4.690
67526W        W39852  33.118   4.707   4.616
67527W        W39853   5.987  35.356   3.160
67528W        W39854   9.636  15.630  10.493
67529W        W39855   6.296  22.093   4.281
67530W        W39856  10.465  12.228   5.165
67531W        W39857  29.971  14.632   1.895
67532W        W39858  23.548   1.775  13.436
67533W        W39859  41.221  16.116   3.745
67534W        W39860  35.572  16.289   2.129
67535W        W39861  43.228  27.542  10.983
67536W        W39862  37.636   6.951  13.804
67537W        W39863  25.993   7.920  14.802
67538W        W39864  11.440  17.042   2.165
67539W        W39865  32.746  26.374   0.809
67540W        W39866  24.247  33.956  13.383
67541W        W39867  39.903  12.030  10.669
67542W        W39868  11.302  38.331  14.368
67543W        W39869   4.331  15.160  14.213
67544W        W39870  28.021  20.944  13.001
67545W        W39871   9.257  24.760  14.368
67546W        W39872  24.092  15.201  14.910
67547W        W39873   0.914   5.221  12.083
67548W        W39874  13.747  29.456  13.263
67549W        W39875  34.564  19.834   4.678
67550W        W39876  31.384  29.524  13.280
67551W        W39877   5.866  34.621  13.033
67552W        W39878  29.549  26.438  12.150
67553W        W39879  33.379  12.587  12.967
67554W        W39880  37.626  17.442   1.833
67555W        W39881   5.755  20.415  10.797
67556W        W39882  21.275  32.731  12.551
67557W        W39883  18.740  32.456  14.416
67558W        W39884   9.749  14.849   2.764
67559W        W39885  36.836  34.535  12.015
67560W        W39886   9.214  18.344   4.034
67561W        W39887  34.142  33.314  12.120
67562W        W39888   4.734  22.638  11.488
67563W        W39889   4.500   8.820  13.758
67564W        W39890  22.454  41.634   0.945
67565W        W39891  42.904  42.529  11.663
67566W        W39892  38.975  18.801   4.147
67567W        W39893   2.758  27.557   4.477
67568W        W39894  10.911  24.828  13.485
67569W        W39895  44.686  31.000  10.829
67570W        W39896   4.765  31.237  12.148
67571W        W39897  37.920  10.350   2.930
67572W        W39898  31.019  28.273  10.326
67573W        W39899   2.860  43.258   3.582
67574W        W39900  34.711  40.637  12.866
67575W        W39901  34.113  44.065   3.700
67576W        W39902  33.480  42.085  14.839
67577W        W39903  42.440  21.728  14.077
67578W        W39904  21.103  30.609  13.403
67579W        W39905  35.595   5.773  14.480
67580W        W39906  14.117  41.815  12.464
67581W        W39907  35.680  40.684  12.017
67582W        W39908   2.433  20.476  11.617
67583W        W39909  37.404  30.633  12.385
67584W        W39910   4.700   9.065   1.332
67585W        W39911  24.272  20.774  13.336
67586W        W39912   2.919  12.803  13.838
67587W        W39913  42.320   6.182   4.180
67588W        W39914  36.561  37.998  12.382
67589W        W39915  34.048  27.733  12.912
67590W        W39916  32.552  14.399   1.393
67591W        W39917  25.951  37.417   0.759
67592W        W39918  15.213  32.101  12.473
67593W        W39919  14.873  27.225  13.255
67594W        W39920  27.018  17.158   2.372
67595W        W39921  40.298   6.872   1.983
67596W        W39922  13.259  11.875  14.113
67597W        W39923  31.079  35.020   1.776
67598W        W39924  20.124   5.462   2.674
67599W        W39925  22.715  20.668  14.359
67600W        W39926  37.374  22.522   4.439
67601W        W39927   5.661  17.619   0.032
67602W        W39928  44.911  28.102  12.640
67603W        W39929  14.469  37.706   2.179
67604W        W39930  44.464  29.202  12.393
67605W        W39931  34.954  38.345  11.917
67606W        W39932  42.602   7.766  11.482
67607W        W39933  28.951  33.405  12.525
67608W        W39934  27.897  36.075   4.099
67609W        W39935  44.129  41.598   2.306
67610W        W39936  10.597  30.908  11.578
67611W        W39937  23.742  18.989   3.627
67612W        W39938  15.524  37.047   1.801
67613W        W39939  42.758  14.677   5.095
67614W        W39940  39.144   5.764  12.544
67615W        W39941  27.045  22.255   2.131
67616W        W39942  35.763  22.065   3.147
67617W        W39943  41.761  15.889   1.786
67618W        W39944  27.592  19.734  14.933
67619W        W39945  17.411  13.327   1.345
67620W        W39946   0.475   7.893   0.936
67621W        W39947  13.658  35.061   4.668
67622W        W39948  33.135   2.929   0.218
67623W        W39949  34.421  43.054  11.655
67624W        W39950   3.376   4.659  10.948
67625W        W39951  18.705  36.945  14.084
67626W        W39952  37.758   2.695   4.947
67627W        W39953  11.932  23.602   2.871
67628W        W39954   1.879  33.099   3.940
67629W        W39955  25.460  19.057   2.714
67630W        W39956  40.825  34.371  12.868
67631W        W39957   6.924  11.863   0.743
67632W        W39958  35.087  21.674   0.787
67633W        W39959   6.161  28.259   0.371
67634W        W39960  16.161  33.642  11.028
67635W        W39961  22.003  39.768   0.379
67636W        W39962  26.604  40.576   2.365
67637W        W39963  18.165  25.123   1.948
67638W        W39964  25.523  14.672   3.301
67639W        W39965  42.225  25.640   3.563
67640W        W39966  36.648  18.026   3.722
67641W        W39967  26.127   7.296   2.946
67642W        W39968  31.490  39.442   0.891
67643W        W39969   6.869  23.082   3.670
67644W        W39970   3.002  25.437  14.009
67645W        W39971   6.409  26.130   2.870
67646W        W39972  24.965   9.936  13.318
67647W        W39973   5.397   6.000  13.836
67648W        W39974  43.481  27.650  11.422
67649W        W39975  43.950  33.431   1.825
67650W        W39976  34.726  14.019   2.247
67651W        W39977  29.619  22.989  11.508
67652W        W39978  36.095  40.078   1.324
67653W        W39979   6.879  39.285  12.096
67654W        W39980  10.735  19.199  14.872
67655W        W39981  23.984  42.248   3.203
67656W        W39982  28.712  12.622  13.347
67657W        W39983   1.967  21.750   3.739
67658W        W39984  37.885   3.380  13.493
67659W        W39985  20.811  36.386   4.076
67660W        W39986   2.384  21.221   4.160
67661W        W39987  43.364   7.579   1.402
67662W        W39988   8.719  33.967   3.914
67663W        W39989   8.914  13.735  14.660
67664W        W39990  42.629  31.314   3.163
67665W        W39991  37.688  39.341   2.491
67666W        W39992  29.558  44.872   3.236
67667W        W39993  41.699   7.117   5.181
67668W        W39994  23.535   2.990  12.045
67669W        W39995  18.635   2.483   3.291
67670W        W39996  26.581  26.576   1.863
67671W        W39997   3.858  34.010  13.286
67672W        W39998  43.795   1.229  14.903
67673W        W39999  29.190   5.404  14.331
67674W        W40000  18.644  18.352   3.884
67675W        W40001  27.029  12.523   4.219
67676W        W40002  18.752  35.373   4.656
67677W        W40003   3.150  12.313  10.650
67678W        W40004   3.288   6.759   4.534
67679W        W40005  34.018   9.630   2.617
67680W        W40006   9.187   7.942   0.164
67681W        W40007   1.007  34.015   2.807
67682W        W40008  43.474   5.966   4.051
67683W        W40009  42.305   3.204   0.859
67684W        W40010  14.343  38.943   1.891
67685W        W40011  33.011  40.031   1.682
67686W        W40012  26.966  12.770  12.403
67687W        W40013  29.024  42.209  12.744
67688W        W40014  41.011  34.370   1.974
67689W        W40015   4.872  10.578  11.129
67690W        W40016   9.156   4.360  12.984
67691W        W40017  39.643  15.172  10.675
67692W        W40018  14.709  10.189   2.392
67693W        W40019   4.853  32.216   5.042
67694W        W40020  35.940   1.109   2.182
67695W        W40021   9.814   2.396  11.581
67696W        W40022  13.724  44.886   4.138
67697W        W40023   3.380  12.304   4.570
67698W        W40024  39.562  37.812  13.889
67699W        W40025   5.648  16.722   4.153
67700W        W40026  31.943  35.136  11.135
67701W        W40027  14.251  20.252   3.730
67702W        W40028  15.055  25.705  13.811
67703W        W40029  13.375   9.916  14.397
67704W        W40030  35.260  27.347  11.143
67705W        W40031  31.455  13.704  14.325
67706W        W40032  40.791  16.531  11.594
67707W        W40033  16.154  35.607   4.497
67708W        W40034  15.007  37.399   4.805
67709W        W40035  15.426  28.225   5.013
67710W        W40036  31.585  18.678  12.928
67711W        W40037  34.108  33.076   9.728
67712W        W40038  17.622  16.015   1.798
67713W        W40039  10.665  38.329   4.637
67714W        W40040  37.020  37.324  14.810
67715W        W40041  23.323  27.799  14.304
67716W        W40042   8.625  22.078   3.651
67717W        W40043  28.128   6.531   4.761
67718W        W40044   5.218  19.048  12.008
67719W        W40045  43.889   6.886   3.771
67720W        W40046  29.092  10.333  12.418
67721W        W40047  22.568   5.931   0.913
67722W        W40048  18.334  33.160  11.978
67723W        W40049  26.655   3.446  14.248
67724W        W40050  33.384  26.231  14.673
67725W        W40051  37.548  43.915   1.612
67726W        W40052   7.649  44.952  12.551
67727W        W40053  44.677  19.415   5.104
67728W        W40054  23.099  10.766  14.888
67729W        W40055  42.894   6.401  11.596
67730W        W40056   6.690  24.164   2.936
67731W        W40057  41.520   2.900   3.582
67732W        W40058  30.623  32.122   4.684
67733W        W40059  37.930  44.445   0.337
67734W        W40060  18.024  15.268   4.210
67735W        W40061  35.493  24.064  10.606
67736W        W40062   7.776   3.058   4.602
67737W        W40063  18.596   0.826  11.507
67738W        W40064  42.532  40.464   1.339
67739W        W40065  17.101  43.484  11.489
67740W        W40066  37.497  15.094   1.436
67741W        W40067  13.259  36.467   1.727
67742W        W40068  13.255  33.983  12.603
67743W        W40069   9.025  36.879   1.512
67744W        W40070  18.708  25.899   4.126
67745W        W40071  18.831   9.793  11.978
67746W        W40072   6.896  13.913   1.037
67747W        W40073  32.894  10.624   3.701
67748W        W40074  10.273  20.945  11.477
67749W        W40075  36.853  31.970   4.116
67750W        W40076  18.426   7.233   2.894
67751W        W40077  43.414  14.468  10.385
67752W        W40078  19.230   9.898  11.088
67753W        W40079   8.969  10.926   2.934
67754W        W40080   7.013  43.580  12.557
67755W        W40081  27.973  18.055   2.873
67756W        W40082  18.704   9.466   3.630
67757W        W40083  18.443   6.334  12.505
67758W        W40084   4.475   1.011  14.823
67759W        W40085  10.070   2.282   2.671
67760W        W40086  23.405   8.311  14.481
67761W        W40087  28.230  37.185  11.079
67762W        W40088  10.424  21.037   4.124
67763W        W40089   3.776  15.019  12.024
67764W        W40090   1.217   2.648   5.032
67765W        W40091   2.746   6.437  13.864
67766W        W40092  40.602  27.190   3.080
67767W        W40093  28.246  26.769   4.902
67768W        W40094  18.252   7.396  13.379
67769W        W40095   9.254  33.437  11.567
67770W        W40096  13.619   1.096   4.235
67771W        W40097   5.728  25.601   1.175
67772W        W40098   7.902   6.320   0.406
67773W        W40099   7.870  11.705   2.561
67774W        W40100  22.685   1.231   4.825
67775W        W40101  16.332   5.960   3.739
67776W        W40102  14.685  21.498   2.862
67777W        W40103   2.308  43.575  12.633
67778W        W40104   0.092  26.212   3.906
67779W        W40105   4.809  25.873   4.118
67780W        W40106  38.160  11.827  13.024
67781W        W40107  25.446  19.637  12.657
67782W        W40108   9.660   2.405  14.784
67783W        W40109  30.225  31.871   2.931
67784W        W40110   1.940  38.007   0.971
67785W        W40111  43.225   1.128   1.909
67786W        W40112  44.314   2.434   0.361
67787W        W40113  16.387  28.400  13.447
67788W        W40114  37.402  11.105   0.991
67789W        W40115  26.955  42.529   1.382
67790W        W40116  13.860   9.611  14.997
67791W        W40117  25.592   0.316   4.655
67792W        W40118  37.529  33.386   3.327
67793W        W40119  18.268   8.423  12.587
67794W        W40120  37.751   9.701  12.062
67795W        W40121  13.243  41.214   2.842
67796W        W40122  23.498  23.711   2.108
67797W        W40123  12.558  29.964   0.714
67798W        W40124  24.114  21.703  12.930
67799W        W40125   6.803  34.561   3.109
67800W        W40126   3.931  41.452   2.105
67801W        W40127   0.785  43.567  13.357
67802W        W40128  10.561  34.174  10.143
67803W        W40129  31.257  14.096   9.831
67804W        W40130  24.099  22.300  10.783
67805W        W40131  16.844  23.224   3.829
67806W        W40132   3.477  25.932   3.269
67807W        W40133  31.728  29.639  10.694
67808W        W40134  41.949  35.415  14.076
67809W        W40135  30.447  21.229  14.735
67810W        W40136  32.204  15.996   4.725
67811W        W40137   1.825  44.085   0.098
67812W        W40138  33.559  23.002   0.451
67813W        W40139  12.672   8.658   3.595
67814W        W40140  21.813  44.300  11.097
67815W        W40141  18.830  14.154  13.524
67816W        W40142  41.208  27.213   1.703
67817W        W40143   3.764  35.470   0.893
67818W        W40144  36.567  38.491  10.749
67819W        W40145   5.359  31.102  14.318
67820W        W40146  12.284  37.402   3.540
67821W        W40147  19.047   0.500  11.716
67822W        W40148  28.974  29.868   4.434
67823W        W40149   1.784   0.768   1.868
67824W        W40150  42.050  17.232   5.019
67825W        W40151  32.672  37.444   0.268
67826W        W40152  38.450   4.265   0.647
67827W        W40153  30.908  26.226  11.511
67828W        W40154   7.325  19.830   2.483
67829W        W40155  18.708  16.551   1.786
67830W        W40156   2.078  35.718   0.463
67831W        W40157  20.079  14.954   4.526
67832W        W40158  25.905  33.326   1.462
67833W        W40159  27.998  39.358  10.538
67834W        W40160   5.815  26.090   1.327
67835W        W40161   6.256   7.323  14.589
67836W        W40162  39.495  29.877   4.204
67837W        W40163  36.155  44.264   0.226
67838W        W40164  19.842  39.535   3.757
67839W        W40165  42.853   1.491   1.850
67840W        W40166  12.702  39.549  10.899
67841W        W40167  21.058   3.488  11.530
67842W        W40168  22.605  21.052   1.504
67843W        W40169  31.692  37.376   3.172
67844W        W40170  24.030  23.129  11.460
67845W        W40171  43.808   1.018   4.262
67846W        W40172  27.403  34.034   4.595
67847W        W40173  35.372  36.141  12.525
67848W        W40174  38.017  25.398  12.156
67849W        W40175  24.644  30.689   0.845
67850W        W40176  14.819  23.325  10.653
67851W        W40177  12.323  10.810   0.717
67852W        W40178  19.638   6.020  10.683
67853W        W40179   9.629  34.467  13.272
67854W        W40180  11.637  39.796  14.531
67855W        W40181  29.087  42.296   4.558
67856W        W40182  24.216  29.151   2.254
67857W        W40183  40.470  37.235   1.849
67858W        W40184  17.700  41.043  10.744
67859W        W40185   8.744  37.705   1.903
67860W        W40186  42.295  22.457  14.330
67861W        W40187   1.506  11.634  14.494
67862W        W40188   9.306  30.435  11.566
67863W        W40189  41.571  16.118  13.367
67864W        W40190  33.898  19.984   1.814
67865W        W40191  25.601  21.486   0.834
67866W        W40192  26.752  19.681   0.417
67867W        W40193  35.447  16.350   0.816
67868W        W40194   1.187  21.283  13.979
67869W        W40195   7.828  12.843  12.870
67870W        W40196   0.469  37.985   1.386
67871W        W40197   7.331  17.965  14.820
67872W        W40198   7.702  22.669  13.946
67873W        W40199   3.902  12.419  12.061
67874W        W40200  23.984  18.503   0.801
67875W        W40201  30.979  25.711   4.021
67876W        W40202  21.027  21.929   1.396
67877W        W40203  11.627  32.045   4.152
67878W        W40204  13.349  18.390  13.330
67879W        W40205   7.428  43.166  12.439
67880W        W40206  22.402  11.961   2.315
67881W        W40207   2.914  27.230  12.428
67882W        W40208  38.663  38.940   3.832
67883W        W40209  30.187  21.271  12.458
67884W        W40210  16.175   8.428  10.696
67885W        W40211  21.680  44.317   4.378
67886W        W40212  19.614  16.913   1.633
67887W        W40213  15.564  41.035  11.914
67888W        W40214  18.385  14.587  11.228
67889W        W40215  43.421  16.544  14.832
67890W        W40216  43.436  34.338   3.283
67891W        W40217   3.505  44.309   2.253
67892W        W40218  29.633   8.053  12.487
67893W        W40219  19.986  43.555   3.400
67894W        W40220  38.429  44.286  14.456
67895W        W40221  22.714  42.502  13.496
67896W        W40222  37.791   9.588  10.194
67897W        W40223  19.735  25.959   0.910
67898W        W40224  25.723   1.859  11.202
67899W        W40225   2.717  24.470  13.598
67900W        W40226  22.464   4.269   0.795
67901W        W40227  17.721  11.842  10.579
67902W        W40228   9.027  22.491   0.936
67903W        W40229  19.734  22.538   4.102
67904W        W40230  33.570  12.081   4.686
67905W        W40231  40.758   6.944   4.128
67906W        W40232  44.904   9.314  11.903
67907W        W40233   3.674   9.387  11.607
67908W        W40234  23.647  17.034  14.574
67909W        W40235  22.321   0.614  10.442
67910W        W40236  43.320  33.545   4.658
67911W        W40237  23.685  11.400  13.573
67912W        W40238  38.942   2.532   0.393
67913W        W40239   1.510  28.275  12.171
67914W        W40240  11.508  12.641  12.085
67915W        W40241  32.971  40.897   3.012
67916W        W40242  32.506  24.798  11.491
67917W        W40243  28.835  10.768   2.755
67918W        W40244  23.870  44.527  10.106
67919W        W40245  31.166  42.334  11.113
67920W        W40246   7.472  26.253  12.306
67921W        W40247  44.788  42.420   3.086
67922W        W40248   8.330  43.806  11.632
67923W        W40249  30.715   1.808   4.508
67924W        W40250  42.560  11.208   1.676
67925W        W40251  14.182  26.049  13.431
67926W        W40252  23.273  26.144   4.647
67927W        W40253   7.713   2.506   2.126
67928W        W40254  39.918  32.426  14.518
67929W        W40255  30.760  16.812  13.882
67930W        W40256   2.268  15.603  11.000
67931W        W40257  17.720  18.841   2.100
67932W        W40258  43.211  44.211  10.254
67933W        W40259  17.359  25.559   4.718
67934W        W40260   0.001  32.947  11.561
67935W        W40261  32.182  11.740  14.459
67936W        W40262  25.219   7.687  13.298
67937W        W40263   1.463  25.539   4.529
67938W        W40264  24.736  16.250  11.538
67939W        W40265  30.424  32.450  10.914
67940W        W40266  40.546  13.025   0.746
67941W        W40267  17.746  16.575   3.576
67942W        W40268  36.167  17.221  14.412
67943W        W40269   9.704   5.454  11.161
67944W        W40270  29.227  13.343  13.821
67945W        W40271  19.739  42.364  14.935
67946W        W40272  35.053   8.009   3.200
67947W        W40273  40.422   1.132  12.440
67948W        W40274   8.818  19.776   2.849
67949W        W40275  44.856   4.671   3.575
67950W        W40276  21.532  17.232  11.900
67951W        W40277  28.601  29.845  11.157
67952W        W40278  23.517  16.048   0.061
67953W        W40279  41.527  35.097  14.393
67954W        W40280  32.669   9.653  10.685
67955W        W40281  16.389  13.136   1.226
67956W        W40282  12.047   8.362  11.021
67957W        W40283  22.068  19.769  14.566
67958W        W40284   5.801   0.407  10.450
67959W        W40285   4.730  39.741   3.764
67960W        W40286  15.080   4.962   0.797
67961W        W40287   4.740  36.033  14.493
67962W        W40288   9.659  41.546   4.195
67963W        W40289  40.377  43.708   4.128
67964W        W40290  38.391   3.872   0.989
67965W        W40291  34.623  27.367   2.317
67966W        W40292  32.876  11.721   2.230
67967W        W40293  27.128  32.696   3.812
67968W        W40294  28.402  20.459  12.959
67969W        W40295  18.050  16.810   1.072
67970W        W40296  21.823   2.792   3.760
67971W        W40297   4.473  41.973  12.984
67972W        W40298  42.411   1.857   3.114
67973W        W40299   1.751  41.739   0.571
67974W        W40300   5.027  34.339  11.036
67975W        W40301   3.736   0.086  10.693
67976W        W40302   7.238  42.875  11.971
67977W        W40303   7.317   9.741  14.442
67978W        W40304  29.515  26.118   2.732
67979W        W40305  37.507  14.242  12.386
67980W        W40306  20.742  41.052   0.714
67981W        W40307   5.181  42.957  10.639
67982W        W40308  38.857  38.458   0.242
67983W        W40309  38.351  22.123   3.280
67984W        W40310  23.483  26.076  14.750
67985W        W40311  42.531  43.475  12.103
67986W        W40312  28.399   1.497  10.773
67987W        W40313  44.740  31.008   4.031
67988W        W40314  39.506  34.097  12.254
67989W        W40315  33.010  31.020   4.614
67990W        W40316  34.672  27.702   3.965
67991W        W40317  30.239  35.129   3.463
67992W        W40318  17.219  37.059  10.394
67993W        W40319   7.586  29.901  12.613
67994W        W40320  29.049  32.147  11.180
67995W        W40321  12.447  12.610  11.269
67996W        W40322  32.924  22.108   2.185
67997W        W40323  23.840  17.593   0.584
67998W        W40324  22.477  32.383  13.278
67999W        W40325  18.061  35.844   3.232
68000W        W40326  16.564  23.760   2.659
68001W        W40327  21.136  40.432  12.625
68002W        W40328  32.535  26.462  11.933
68003W        W40329   0.929  25.010   2.980
68004W        W40330  11.752   7.323  11.505
68005W        W40331  17.470   7.725  13.450
68006W        W40332  37.414   0.949  12.504
68007W        W40333   7.832  25.750  14.424
68008W        W40334  41.881   4.826  10.016
68009W        W40335   6.239  30.441   9.811
68010W        W40336   7.892   8.804   3.766
68011W        W40337  21.565   9.026   4.185
68012W        W40338   5.345  32.651   3.878
68013W        W40339  22.264  26.830  11.026
68014W        W40340  39.508  13.727  14.143
68015W        W40341  10.319  18.881  14.872
68016W        W40342   2.621  43.899   2.863
68017W        W40343   0.823  26.275   3.773
68018W        W40344  41.520  18.765  12.651
68019W        W40345  13.281  29.183   0.476
68020W        W40346  43.741  31.361  11.961
68021W        W40347  11.058  25.574   2.303
68022W        W40348  40.995  40.772  10.710
68023W        W40349  29.450   4.128  14.969
68024W        W40350   8.173   2.919   1.747
68025W        W40351  34.391   3.927  11.610
68026W        W40352   3.707   5.917   2.956
68027W        W40353  26.836   5.597  12.028
68028W        W40354  42.545  40.113   3.622
68029W        W40355  25.346  16.836  10.150
68030W        W40356  43.794  14.837  11.145
68031W        W40357  39.925  43.329  11.850
68032W        W40358  18.900  12.194  14.256
68033W        W40359  29.986   8.685   2.810
68034W        W40360  15.260  18.255   3.169
68035W        W40361  40.467  36.870   3.111
68036W        W40362  13.093  28.555   3.710
68037W        W40363  43.972  20.772   2.159
68038W        W40364  37.940   4.680   3.770
68039W        W40365  44.166  29.549  11.437
68040W        W40366  20.077  37.350  11.549
68041W        W40367  40.727   7.830   1.874
68042W        W40368  44.794  25.263  13.382
68043W        W40369  13.220  30.735  13.527
68044W        W40370  27.004  28.514  11.056
68045W        W40371  32.389  34.521   1.340
68046W        W40372  26.415  41.077  14.331
68047W        W40373   1.825  12.731  12.813
68048W        W40374  21.325  24.233   2.539
68049W        W40375   3.650  17.665   1.781
68050W        W40376  35.127   2.198  14.428
68051W        W40377  23.016   8.663  13.264
68052W        W40378  36.167  29.315  12.776
68053W        W40379  30.414   4.324  13.491
68054W        W40380  11.801   2.934   2.908
68055W        W40381   9.686  16.905   2.050
68056W        W40382  37.587  36.030  12.069
68057W        W40383  19.782  23.031  11.948
68058W        W40384  37.050  35.751  14.860
68059W        W40385  15.307  21.172   4.465
68060W        W40386  43.541  21.005  12.358
68061W        W40387   3.952  37.109  11.424
68062W        W40388   5.318   9.942   3.558
68063W        W40389  18.069  29.208   4.617
68064W        W40390  24.692  20.261   0.833
68065W        W40391  16.888  42.032  13.755
68066W        W40392  11.401  29.367   3.313
68067W        W40393  18.746  19.091  12.083
68068W        W40394  11.372  34.987  11.641
68069W        W40395  38.044  33.384   3.282
68070W        W40396  10.137  32.854  12.399
68071W        W40397  29.085  10.358  13.852
68072W        W40398   9.067  34.418  11.607
68073W        W40399  12.865  30.547   0.910
68074W        W40400  12.289   9.907   3.494
68075W        W40401  14.898  21.457  12.500
68076W        W40402  20.181  34.104  12.987
68077W        W40403  21.001  23.250   1.665
68078W        W40404   2.282  12.537  13.099
68079W        W40405  23.644  13.072  14.010
68080W        W40406  33.856  42.236   0.457
68081W        W40407  12.803  13.583   0.351
68082W        W40408  24.188  19.337   0.234
68083W        W40409  21.453  14.680   3.253
68084W        W40410  21.456   1.258   1.049
68085W        W40411   1.923  42.004   4.879
68086W        W40412   9.409  11.306  11.630
68087W        W40413  10.502  33.505   0.161
68088W        W40414  11.634  18.120  12.935
68089W        W40415   2.468  11.429   0.886
68090W        W40416  12.174  40.740   2.217
68091W        W40417  31.606  35.020  12.565
68092W        W40418  17.993   6.868   3.340
68093W        W40419  16.810  42.905  10.535
68094W        W40420  20.101   8.575   2.360
68095W        W40421  10.965   3.998  11.583
68096W        W40422  38.970  39.303  12.427
68097W        W40423   2.662  12.649   1.801
68098W        W40424   3.858  11.802   1.186
68099W        W40425  41.543   0.077  13.078
68100W        W40426  14.192  20.541   1.815
68101W        W40427  23.091  18.656   0.515
68102W        W40428  23.183  41.389  14.684
68103W        W40429  30.403   9.654   0.858
68104W        W40430  11.308  16.345   1.883
68105W        W40431  23.720  14.840  14.841
68106W        W40432  16.880  31.984  10.996
68107W        W40433  15.849  32.363  10.058
68108W        W40434  30.078  14.745   1.391
68109W        W40435  39.859   4.869   0.697
68110W        W40436  28.087   8.286  13.421
68111W        W40437  24.026  17.280  11.925
68112W        W40438  37.838  30.958  14.339
68113W        W40439   1.252  39.166  12.914
68114W        W40440  40.127  36.418   2.386
68115W        W40441   4.437  40.254   4.367
68116W        W40442  13.925  33.401  10.709
68117W        W40443   3.717  39.968  12.217
68118W        W40444   6.058  13.122  13.941
68119W        W40445  12.140  16.066   2.659
68120W        W40446  14.920  18.311  13.013
68121W        W40447  30.597  42.322  11.168
68122W        W40448  15.600  35.337   1.509
68123W        W40449  41.569  28.001   0.014
68124W        W40450  35.006  38.379   2.801
68125W        W40451  28.122   6.510   0.922
68126W        W40452  35.623  20.295   2.425
68127W        W40453  33.332   1.496   3.842
68128W        W40454   0.379  12.659  13.320
68129W        W40455   7.889   6.603  11.620
68130W        W40456  23.040  25.991  10.384
68131W        W40457   4.336  37.933  11.473
68132W        W40458  24.720  31.522  12.069
68133W        W40459  23.574  21.991   2.401
68134W        W40460   1.296  43.508  13.406
68135W        W40461  21.830  22.192   0.968
68136W        W40462  17.692   2.660   2.903
68137W        W40463   7.467  41.702  14.596
68138W        W40464  43.694  24.747  13.040
68139W        W40465  21.081  39.127  12.294
68140W        W40466  16.796  12.382  12.408
68141W        W40467  12.199   2.970   4.121
68142W        W40468  36.855  14.346   4.179
68143W        W40469  11.932  24.097  13.164
68144W        W40470   8.696  14.842   3.638
68145W        W40471  14.775  22.012  14.509
68146W        W40472  11.071  18.303  11.909
68147W        W40473  16.001  15.287  11.509
68148W        W40474  42.392  15.305  13.112
68149W        W40475  23.597  35.117   1.250
68150W        W40476  33.216  37.306   3.315
68151W        W40477   1.182  42.882  13.061
68152W        W40478  38.079  20.078   1.244
68153W        W40479  18.955   6.388  11.535
68154W        W40480  39.234   4.887  11.439
68155W        W40481  37.264  36.950  13.883
68156W        W40482  44.874  28.147  10.597
68157W        W40483  33.062  17.676   1.571
68158W        W40484  39.538  13.202   4.304
68159W        W40485  10.243  19.778   3.666
68160W        W40486  19.421   5.473   4.143
68161W        W40487  21.842  18.083  12.793
68162W        W40488  12.003  43.898   2.925
68163W        W40489  24.676   0.258  13.852
68164W        W40490  15.994  10.740  12.089
68165W        W40491  36.059  27.479   2.223
68166W        W40492   5.486   3.758  14.379
68167W        W40493  18.966  41.783   3.808
68168W        W40494  35.842  31.863   1.239
68169W        W40495  44.969   7.923  10.974
68170W        W40496  24.747   2.440   2.858
68171W        W40497  29.455  10.011   1.757
68172W        W40498   2.641  40.265  14.244
68173W        W40499  29.145  35.545   1.798
68174W        W40500  14.742  15.072  10.746
68175W        W40501  32.909   5.933  11.975
68176W        W40502  35.542  32.705  11.762
68177W        W40503  41.023  29.711  14.388
68178W        W40504  18.814   1.979  11.407
68179W        W40505   6.193   8.807   4.058
68180W        W40506  31.059  27.118  11.302
68181W        W40507  30.970  29.927   4.952
68182W        W40508  40.470   7.202  14.748
68183W        W40509  36.937  38.877  10.279
68184W        W40510  13.034  41.485   3.242
68185W        W40511  13.533  27.057  12.770
68186W        W40512  42.877  31.657  13.133
68187W        W40513   6.307  35.327   1.167
68188W        W40514  13.373  34.420  12.838
68189W        W40515  43.122  41.520  13.681
68190W        W40516   2.529   2.245  11.489
68191W        W40517  11.888  25.538  11.485
68192W        W40518   5.704  30.873   3.824
68193W        W40519  12.439  17.770  12.544
68194W        W40520   5.494  28.747   2.693
68195W        W40521  18.247  29.020   2.292
68196W        W40522  21.556  25.204  14.028
68197W        W40523   8.785  28.062   0.855
68198W        W40524  27.239   8.708  12.826
68199W        W40525  29.040  11.274   4.327
68200W        W40526  11.660  40.264  10.557
68201W        W40527   1.773  24.982   4.950
68202W        W40528  18.366  36.485   3.602
68203W        W40529  22.649  15.997  12.071
68204W        W40530  14.092  17.638  13.984
68205W        W40531   2.380  28.918  14.841
68206W        W40532  17.388  24.018   0.744
68207W        W40533  26.241  27.913   4.134
68208W        W40534  34.498   7.593   4.319
68209W        W40535  13.006  17.059  13.701
68210W        W40536  37.344   8.199  12.927
68211W        W40537  32.599  28.111  14.468
68212W        W40538  40.235  10.090   3.206
68213W        W40539  40.536   1.322   4.115
68214W        W40540  29.508  43.405   3.840
68215W        W40541  30.357  14.164  13.441
68216W        W40542  23.010  16.407   2.651
68217W        W40543   3.836   1.199   1.397
68218W        W40544  18.265  19.648   1.680
68219W        W40545  44.982   5.806  14.076
68220W        W40546  27.065  10.999  11.443
68221W        W40547  22.617  10.642   3.266
68222W        W40548  17.431   5.224  13.662
68223W        W40549  37.007  11.180   3.650
68224W        W40550   4.744  30.561  13.929
68225W        W40551   5.676   0.493  13.542
68226W        W40552  13.311  25.454  11.579
68227W        W40553   8.143  22.089  14.944
68228W        W40554   8.172  34.061  14.222
68229W        W40555   3.336   5.762  13.748
68230W        W40556  13.405  36.219  12.078
68231W        W40557  14.132  11.824  10.628
68232W        W40558   6.400  39.359  11.541
68233W        W40559  44.285  38.429   4.587
68234W        W40560  30.728  12.703  13.337
68235W        W40561  13.294   4.433  10.685
68236W        W40562  38.502  42.575   1.303
68237W        W40563  33.543  17.069  14.942
68238W        W40564  28.738  21.114   3.433
68239W        W40565   2.106  29.853   3.060
68240W        W40566  38.337   2.565   2.912
68241W        W40567  27.262  40.028   0.481
68242W        W40568  28.917   2.840  12.003
68243W        W40569  38.103  36.153   0.891
68244W        W40570  16.633  23.462  11.397
68245W        W40571   0.944  19.315   2.869
68246W        W40572  35.407  27.070  11.554
68247W        W40573  25.245  40.822  12.841
68248W        W40574   2.338   8.651  13.007
68249W        W40575  10.661   6.246   1.324
68250W        W40576   1.948   3.418   1.686
68251W        W40577  13.316  11.594   0.965
68252W        W40578  13.565   7.657  10.614
68253W        W40579  42.640  42.998   2.868
68254W        W40580  11.806  18.461  13.805
68255W        W40581  18.790   7.646  12.504
68256W        W40582   1.961  16.273   0.627
68257W        W40583   0.977  31.852   2.792
68258W        W40584  44.319   4.963  13.804
68259W        W40585  37.104  41.874   1.422
68260W        W40586   1.571  38.895  11.660
68261W        W40587  13.989  23.272   4.042
68262W        W40588  42.404  35.080   1.727
68263W        W40589  28.214  17.313  10.673
68264W        W40590   4.724  20.388  13.948
68265W        W40591  29.727  21.732   1.475
68266W        W40592   2.054  30.205  14.105
68267W        W40593  15.992  20.087   1.932
68268W        W40594  41.561   1.372  14.331
68269W        W40595  11.740   8.331  12.671
68270W        W40596   4.890  20.384   2.050
68271W        W40597  30.024  22.509  12.002
68272W        W40598  40.005   7.412  10.698
68273W        W40599  37.628   0.802  12.981
68274W        W40600  23.067  15.911   2.802
68275W        W40601   7.874  12.543  13.283
68276W        W40602  42.491  26.517   4.361
68277W        W40603   6.299   1.164  12.567
68278W        W40604  31.567  28.184   2.402
68279W        W40605  14.565  13.386   3.097
68280W        W40606   2.751  21.122  13.997
68281W        W40607  44.659  16.088  14.464
68282W        W40608  35.491   5.426   0.400
68283W        W40609  36.982  41.010   2.173
68284W        W40610  37.456  42.567   4.370
68285W        W40611  35.693  38.578  11.001
68286W        W40612  30.698   9.680  13.981
68287W        W40613   7.475  24.200  13.243
68288W        W40614  21.153  14.369  14.433
68289W        W40615  27.110  13.793  13.997
68290W        W40616  43.327  11.682  11.384
68291W        W40617  20.299  22.278  11.474
68292W        W40618   9.241   1.048   4.846
68293W        W40619   4.505   3.786  12.973
68294W        W40620  38.354  24.002   0.839
68295W        W40621  34.966  28.636   0.396
68296W        W40622  39.958  30.089   4.257
68297W        W40623  19.798  10.930   0.615
68298W        W40624  22.436  19.814   4.216
68299W        W40625  35.068  16.015   0.443
68300W        W40626   4.660  13.138   2.646
68301W        W40627  30.887  15.841  10.652
68302W        W40628  14.146   7.413  14.446
68303W        W40629  23.759  33.968  12.477
68304W        W40630   8.699  15.132  13.212
68305W        W40631   3.677   3.327  14.390
68306W        W40632  31.600   9.422   0.237
68307W        W40633  19.521  17.019   4.314
68308W        W40634  25.811  11.090  10.102
68309W        W40635  12.839  23.315  11.949
68310W        W40636   4.397  29.292   3.150
68311W        W40637  23.273  34.559   2.350
68312W        W40638  20.084   6.251  10.225
68313W        W40639  21.312   0.576   0.338
68314W        W40640  43.341  17.712  13.860
68315W        W40641  20.463   0.093   2.557
68316W        W40642  18.974   0.185   0.901
68317W        W40643  22.211   0.565   5.163
68318W        W40644  23.727   3.871   1.899
68319W        W40645   1.877  12.203  13.003
68320W        W40646  37.902  29.684  13.922
68321W        W40647  26.740   7.706   3.201
68322W        W40648  42.567  40.803  11.571
68323W        W40649  14.345  19.605  11.174
68324W        W40650  24.467  24.291   2.222
68325W        W40651  35.803   5.007   4.795
68326W        W40652  20.087  28.153  13.035
68327W        W40653  13.435  28.616   4.981
68328W        W40654  26.418  27.134   1.198
68329W        W40655  19.721  34.642   2.243
68330W        W40656  19.359  28.030   1.428
68331W        W40657  21.594  30.436   0.039
68332W        W40658  29.403   5.837   0.347
68333W        W40659  22.586  42.517  11.460
68334W        W40660   9.720   5.719   1.273
68335W        W40661  18.708   7.630  13.409
68336W        W40662   8.826   0.752   0.386
68337W        W40663  31.888   2.392   4.636
68338W        W40664  38.592   8.684   4.499
68339W        W40665   7.642  37.013   1.174
68340W        W40666  40.630  17.476  11.729
68341W        W40667   4.790  31.006  13.627
68342W        W40668  27.027  39.931   0.034
68343W        W40669  39.634  23.673   4.517
68344W        W40670  44.695  14.767  11.651
68345W        W40671  15.764  14.550  12.533
68346W        W40672  42.859  25.537   4.062
68347W        W40673  14.792  35.683  12.967
68348W        W40674  14.330  26.405  14.919
68349W        W40675  13.353  39.920   3.874
68350W        W40676  27.018  32.592   0.936
68351W        W40677  25.745  26.650   1.524
68352W        W40678   5.881  30.100   2.929
68353W        W40679  27.445   6.830  13.342
68354W        W40680   9.200  29.951   1.310
68355W        W40681  15.120  19.072   1.274
68356W        W40682  29.714   2.013  10.302
68357W        W40683   1.330  30.645  13.478
68358W        W40684  19.844  27.866  14.844
68359W        W40685  10.296   9.815  11.158
68360W        W40686  37.074   1.645   1.860
68361W        W40687  24.257  41.917   0.678
68362W        W40688   9.323  26.960   3.859
68363W        W40689  31.358  12.351  11.457
68364W        W40690   1.439  16.709  14.406
68365W        W40691  13.214  39.516   4.212
68366W        W40692   2.723  36.592   4.156
68367W        W40693  37.137   1.227  11.563
68368W        W40694  42.272  28.524   0.307
68369W        W40695  13.930  23.570   1.384
68370W        W40696  34.394  35.957  12.061
68371W        W40697   9.282  17.109   1.709
68372W        W40698   6.827  34.149  13.149
68373W        W40699  12.639  17.089   0.447
68374W        W40700   7.525  32.339   1.414
68375W        W40701   5.887  18.584   2.167
68376W        W40702  43.675  16.112  11.550
68377W        W40703  28.163  17.487  11.999
68378W        W40704  29.439  43.428   0.375
68379W        W40705  13.344  35.726   3.222
68380W        W40706  24.982  12.313  14.471
68381W        W40707  28.575  42.306   3.223
68382W        W40708  28.223  27.939   4.144
68383W        W40709   7.797  39.761   4.522
68384W        W40710  44.054  15.802   2.360
68385W        W40711  40.504  26.138  12.230
68386W        W40712  32.608  40.582   3.277
68387W        W40713   3.407  30.167   2.737
68388W        W40714  31.423  25.467  11.477
68389W        W40715  24.002  13.058  14.823
68390W        W40716  20.440   1.887   1.357
68391W        W40717  43.349   9.049  11.625
68392W        W40718  27.407   3.280   2.419
68393W        W40719  21.163  31.118   3.200
68394W        W40720  21.711   7.400   2.830
68395W        W40721  34.478  20.807   5.017
68396W        W40722   8.636  34.137  14.477
68397W        W40723   0.303  10.842   2.428
68398W        W40724   4.826  23.891   4.105
68399W        W40725  43.448  32.373   2.495
68400W        W40726  32.494  41.789  11.449
68401W        W40727  26.092  36.365  13.795
68402W        W40728   9.203  29.024   3.269
68403W        W40729   3.003   2.008   5.391
68404W        W40730  14.707  10.658   4.237
68405W        W40731  12.681  42.273  14.401
68406W        W40732  11.947  37.687  11.973
68407W        W40733  44.420  38.885   0.673
68408W        W40734  14.720  44.439  14.430
68409W        W40735  28.787  28.956  11.455
68410W        W40736  32.565  44.291   0.411
68411W        W40737   3.538  43.296   2.956
68412W        W40738  17.647  21.234  14.774
68413W        W40739  13.511   0.775  13.918
68414W        W40740  18.278   1.425   4.534
68415W        W40741  21.054  11.904  12.688
68416W        W40742  27.056  10.245  10.251
68417W        W40743  13.186  17.644   0.913
68418W        W40744   7.141  33.569  12.202
68419W        W40745  34.024  41.141   2.941
68420W        W40746   7.288  35.193   1.492
68421W        W40747  29.250  19.500   2.676
68422W        W40748  20.209  14.155   4.629
68423W        W40749  32.144  30.471  10.990
68424W        W40750  28.735  34.083   2.302
68425W        W40751  29.046   2.100  11.496
68426W        W40752   3.673  10.930  12.494
68427W        W40753  39.268  16.190  12.997
68428W        W40754  37.491  19.100   3.368
68429W        W40755   5.285  44.529  12.023
68430W        W40756  32.247  41.101  13.281
68431W        W40757   2.748  31.329  12.374
68432W        W40758  39.365  43.302  14.292
68433W        W40759  11.694  30.734   4.119
68434W        W40760  33.069  33.073  14.527
68435W        W40761  34.033  14.711   2.010
68436W        W40762  22.006  34.806   1.965
68437W        W40763  28.472  20.154  14.230
68438W        W40764  41.388  20.099  10.994
68439W        W40765  20.799  20.204   1.192
68440W        W40766   1.106  36.105  10.399
68441W        W40767   3.943  11.136  12.951
68442W        W40768  11.978  36.529   2.171
68443W        W40769  38.771  37.780  10.847
68444W        W40770  23.786   0.030   2.190
68445W        W40771   4.451   5.860  11.041
68446W        W40772  34.300  40.399   2.372
68447W        W40773  26.055  37.632   4.202
68448W        W40774   2.494  22.075  13.101
68449W        W40775  20.146  35.629  11.189
68450W        W40776  34.622  22.855   1.309
68451W        W40777  23.964  17.275   3.966
68452W        W40778  17.339   8.591  11.100
68453W        W40779   4.207  35.606  13.420
68454W        W40780  15.141  31.362   2.679
68455W        W40781  20.687  23.988  10.762
68456W        W40782  17.706   8.311   3.815
68457W        W40783   2.364  32.337   3.119
68458W        W40784  16.673  11.759   3.817
68459W        W40785  35.541  21.182   1.313
68460W        W40786   1.677   5.821  14.614
68461W        W40787  31.415  40.352   1.773
68462W        W40788  26.011  19.337   3.733
68463W        W40789  21.520   4.630   1.308
68464W        W40790  29.680  11.873   0.896
68465W        W40791  11.604  42.587  12.061
68466W        W40792   6.658   8.995   4.918
68467W        W40793  39.908  38.671   1.777
68468W        W40794   7.440  26.040  14.645
68469W        W40795   7.090  28.567   2.507
68470W        W40796  42.012  44.040  14.896
68471W        W40797  26.614  43.703  13.502
68472W        W40798  21.580   7.564   4.262
68473W        W40799  32.011  30.613  13.581
68474W        W40800   9.008  37.361  13.764
68475W        W40801  15.789  24.600  12.514
68476W        W40802  43.399   2.242  12.422
68477W        W40803  36.612  27.393  13.306
68478W        W40804  25.210  35.636  12.197
68479W        W40805   7.243   9.693  12.784
68480W        W40806   7.882  34.021  13.373
68481W        W40807  13.253  22.866   4.339
68482W        W40808  15.181  34.395   3.690
68483W        W40809  17.266  12.584  14.897
68484W        W40810  18.811  37.354  11.728
68485W        W40811   6.340  16.620  13.111
68486W        W40812  34.983  19.792  12.418
68487W        W40813   3.738  25.563  11.148
68488W        W40814  13.336   8.890   1.264
68489W        W40815   3.629   2.796  14.022
68490W        W40816  33.536   0.923  11.236
68491W        W40817   9.176  42.834  13.434
68492W        W40818  42.351  38.089  11.577
68493W        W40819  30.657  31.070   1.661
68494W        W40820   2.922  15.789   1.111
68495W        W40821  32.619   9.914   1.200
68496W        W40822  31.506   0.847  14.450
68497W        W40823   8.670  26.465  13.883
68498W        W40824   6.003  32.439   1.128
68499W        W40825  25.443  13.204   2.724
68500W        W40826   5.122  16.405   0.032
68501W        W40827  22.649   8.446  14.031
68502W        W40828   3.259  11.964   1.828
68503W        W40829  16.780  30.642   2.102
68504W        W40830  33.474  39.475   2.766
68505W        W40831  41.552  12.777   3.287
68506W        W40832  44.468  30.671  14.993
68507W        W40833  39.722  20.273  13.789
68508W        W40834  11.306  31.882   1.478
68509W        W40835   4.681   9.842  10.066
68510W        W40836  10.129  40.340   0.020
68511W        W40837   5.598   2.449   1.398
68512W        W40838  36.491  42.229   0.824
68513W        W40839  26.667  33.450   4.609
68514W        W40840  30.877  23.236  14.369
68515W        W40841  15.329  22.533  13.581
68516W        W40842  20.079  15.894  12.887
68517W        W40843  42.299  10.321  11.953
68518W        W40844  17.242  16.185   0.246
68519W        W40845  17.310  13.687   0.990
68520W        W40846  10.144  20.988   1.839
68521W        W40847  17.514  37.806   0.234
68522W        W40848  34.794  32.372   0.947
68523W        W40849  33.579   1.908  12.564
68524W        W40850  10.924  21.730  11.170
68525W        W40851  38.814  37.585   3.689
68526W        W40852  11.622   3.386  13.778
68527W        W40853  38.011   9.872   2.691
68528W        W40854  29.142  43.242  14.364
68529W        W40855  33.582  23.122  11.884
68530W        W40856  30.007  32.696   2.710
68531W        W40857   1.273  36.569  13.336
68532W        W40858  40.067  16.808  14.911
68533W        W40859  29.392   8.394  12.146
68534W        W40860  16.718  23.821  12.247
68535W        W40861  29.962   3.412  13.350
68536W        W40862  41.516  18.994  14.032
68537W        W40863  38.634  41.581   1.207
68538W        W40864  27.971  30.585   1.447
68539W        W40865  19.982  22.269  13.498
68540W        W40866  40.088  15.254  13.439
68541W        W40867   7.615  34.170  11.896
68542W        W40868  26.565  16.129  11.716
68543W        W40869  36.486  17.230   2.465
68544W        W40870  22.522  16.882   3.672
68545W        W40871  32.626  32.801   0.352
68546W        W40872  14.387  29.690   1.837
68547W        W40873  12.953  35.410   2.330
68548W        W40874  22.030  16.697  13.896
68549W        W40875  42.050   8.992   1.172
68550W        W40876  27.076  28.986  10.860
68551W        W40877  10.133  22.494  10.690
68552W        W40878  38.407   9.686   1.486
68553W        W40879  12.172  18.658  14.838
68554W        W40880  35.002  37.377   0.151
68555W        W40881   6.867  24.509  11.855
68556W        W40882  12.253  30.674   4.667
68557W        W40883  44.027  35.582   2.238
68558W        W40884   1.985  15.429   0.389
68559W        W40885  23.788  16.074  10.699
68560W        W40886   9.717  37.882   3.444
68561W        W40887  37.486  36.150   2.866
68562W        W40888  30.303  21.069   4.235
68563W        W40889  29.189  39.842  10.656
68564W        W40890  42.947   8.231   4.822
68565W        W40891  39.320   9.309   1.839
68566W        W40892  12.218  14.615  11.006
68567W        W40893  37.881  22.166  12.497
68568W        W40894   0.401   4.765  14.278
68569W        W40895  42.863  38.617   3.654
68570W        W40896  19.941  11.605   1.506
68571W        W40897   5.146  39.836   2.827
68572W        W40898  20.321  29.861  10.652
68573W        W40899   1.092  32.601  13.062
68574W        W40900  19.988  30.179   1.364
68575W        W40901   6.687  25.170   1.193
68576W        W40902   8.282   9.764  11.120
68577W        W40903   1.527   0.068  11.929
68578W        W40904  37.213  12.226   1.406
68579W        W40905  24.948   9.666   0.655
68580W        W40906  13.818  10.376   0.533
68581W        W40907  36.123  26.018   1.925
68582W        W40908  39.582  39.032  14.898
68583W        W40909  31.841  37.836   0.264
68584W        W40910  28.703   4.946   5.002
68585W        W40911   2.939  39.667   0.896
68586W        W40912   3.519  35.537  11.541
68587W        W40913  17.178  37.628   3.618
68588W        W40914  27.525   5.132  14.932
68589W        W40915  30.978  34.597   4.608
68590W        W40916  32.673   8.819  14.892
68591W        W40917  22.438  36.614  12.443
68592W        W40918  12.306  13.329  13.026
68593W        W40919  22.034  39.498   1.463
68594W        W40920  18.287  15.815  11.642
68595W        W40921  20.036  32.376  11.596
68596W        W40922  24.008  11.703   2.260
68597W        W40923   1.302  26.634  13.892
68598W        W40924  40.946  44.293   4.382
68599W        W40925  41.338  19.731  12.944
68600W        W40926  25.522  25.453   4.762
68601W        W40927  36.606  29.614   1.358
68602W        W40928  16.160  26.531  13.610
68603W        W40929   1.433  33.330   4.103
68604W        W40930  43.947  16.337  12.832
68605W        W40931  13.707  37.405  10.532
68606W        W40932  23.124  26.418   4.242
68607W        W40933  22.314  15.274   0.827
68608W        W40934   4.212  26.680  14.777
68609W        W40935   6.796  38.256  11.182
68610W        W40936   5.926  24.627  13.511
68611W        W40937  29.390  44.820   0.386
68612W        W40938  20.529  35.879   3.248
68613W        W40939  21.211  19.502  11.016
68614W        W40940  10.360  20.103   2.491
68615W        W40941  19.305  18.034  13.907
68616W        W40942  21.834  27.605  11.587
68617W        W40943  27.222  26.048   0.850
68618W        W40944  33.516  16.618   1.927
68619W        W40945   7.107  31.381  11.137
68620W        W40946  41.420  28.729  12.581
68621W        W40947  14.309   3.892  11.601
68622W        W40948  20.622  23.530   0.900
68623W        W40949  34.103   0.991  12.091
68624W        W40950   4.878  35.759   1.718
68625W        W40951  12.835  31.604  10.702
68626W        W40952   3.738  19.033   0.688
68627W        W40953   8.665  27.603  10.683
68628W        W40954  43.484  36.696   1.184
68629W        W40955  22.088   0.244  14.327
68630W        W40956  15.109   7.014   3.132
68631W        W40957  34.576  30.730  14.955
68632W        W40958  12.705   8.051   2.882
68633W        W40959  38.381  15.506  11.075
68634W        W40960   0.104  14.717   2.801
68635W        W40961  14.750  39.074  11.898
68636W        W40962  34.433  30.132   5.217
68637W        W40963  12.793   3.008   3.236
68638W        W40964   9.311  41.635  12.640
68639W        W40965   4.937  30.831   1.212
68640W        W40966  28.491   7.978   4.076
68641W        W40967  30.390   9.050   2.110
68642W        W40968  28.229  12.215  10.899
68643W        W40969  18.811  42.661   3.361
68644W        W40970   4.939  26.947  12.994
68645W        W40971   1.658  12.222  14.493
68646W        W40972  19.324   6.926   1.277
68647W        W40973  19.580  39.407   0.169
68648W        W40974   8.264  31.115   2.679
68649W        W40975  14.599  29.646  11.104
68650W        W40976   8.276  20.112  14.469
68651W        W40977  20.600   3.538  12.751
68652W        W40978  20.729  24.571  14.987
68653W        W40979  10.661  26.370  12.857
68654W        W40980  18.119  44.252  13.591
68655W        W40981  14.652  33.836  10.498
68656W        W40982   8.275  13.897   0.181
68657W        W40983  44.514  32.766  11.246
68658W        W40984  16.056  40.291  13.764
68659W        W40985  43.574  29.201   3.392
68660W        W40986   6.709  20.557  13.031
68661W        W40987  28.505  43.975   4.678
68662W        W40988  32.149  23.918   2.849
68663W        W40989  29.139  13.330  12.068
68664W        W40990   8.297  26.395  11.947
68665W        W40991  21.738  13.793  13.403
68666W        W40992  14.935  22.074  13.362
68667W        W40993  31.472  37.467  12.174
68668W        W40994   8.103  24.071  13.959
68669W        W40995  17.111   6.805  14.098
68670W        W40996  42.663   5.909  12.747
68671W        W40997  32.615  24.044   2.565
68672W        W40998  22.650  43.381  14.517
68673W        W40999  26.616  18.217   1.723
68674W        W41000  12.724  20.373  13.614
68675W        W41001  19.617  22.719   5.011
68676W        W41002  39.071  14.282   0.808
68677W        W41003  25.252   1.275   3.287
68678W        W41004  10.859  28.270  12.063
68679W        W41005  17.376  39.859   4.903
68680W        W41006  37.832  40.606  12.990
68681W        W41007  18.058  43.877   3.240
68682W        W41008  18.368  34.379  11.537
68683W        W41009  14.300  10.518  13.598
68684W        W41010   0.543   0.555  12.949
68685W        W41011  41.972  24.544  13.090
68686W        W41012   7.273  12.959   0.460
68687W        W41013   6.454  40.304   2.795
68688W        W41014   4.743  16.630  11.164
68689W        W41015  15.296  26.185   3.192
68690W        W41016  25.500  44.931  12.920
68691W        W41017  22.786  41.397  13.034
68692W        W41018   2.187  11.923   1.053
68693W        W41019  25.616  33.611   0.079
68694W        W41020  40.692  42.511   4.944
68695W        W41021  20.724  44.329   1.304
68696W        W41022  41.499  18.079  14.315
68697W        W41023   0.199  30.083   1.865
68698W        W41024  34.929  40.506  13.392
68699W        W41025  33.786  31.948  14.720
68700W        W41026   1.715  29.936  13.818
68701W        W41027  39.609  41.360   2.430
68702W        W41028   3.248  19.927  11.539
68703W        W41029  28.236  16.365  13.577
68704W        W41030  26.354   6.445   2.880
68705W        W41031  17.867  25.308  10.354
68706W        W41032  31.588  41.419   0.520
68707W        W41033  17.154  33.311   3.669
68708W        W41034   8.627   6.393  11.085
68709W        W41035   8.432  27.285   1.433
68710W        W41036  14.892  20.088   2.692
68711W        W41037  21.759  21.267   1.782
68712W        W41038  29.269  41.150  12.024
68713W        W41039  30.512  10.655  13.081
68714W        W41040  17.797   9.777   1.984
68715W        W41041  22.765   3.878  14.881
68716W        W41042  29.433  43.694  10.692
68717W        W41043   5.990   3.774  14.504
68718W        W41044  37.141  17.087  14.781
68719W        W41045  11.089  29.409   3.730
68720W        W41046  16.277   2.218  11.056
68721W        W41047  23.717  12.992  12.442
68722W        W41048  23.756  12.570  11.471
68723W        W41049  14.710  26.254   4.243
68724W        W41050  38.603  17.139   1.719
68725W        W41051   5.389  26.519   0.882
68726W        W41052  28.981  26.120  12.518
68727W        W41053  11.768  34.492  10.600
68728W        W41054  39.391   1.404  10.699
68729W        W41055  30.589  13.192  14.422
68730W        W41056  28.105  10.856  14.030
68731W        W41057  32.441  31.165  14.475
68732W        W41058   8.856  20.713  13.472
68733W        W41059  12.545  19.704  14.800
68734W        W41060  22.151  44.359  13.412
68735W        W41061  23.946  13.712  13.596
68736W        W41062  38.624  14.186  13.289
68737W        W41063   5.584  27.606  11.890
68738W        W41064  40.922  11.285  14.674
68739W        W41065  14.044   7.682  14.881
68740W        W41066  29.204  32.928  12.486
68741W        W41067   5.055   1.573   1.385
68742W        W41068  22.386  11.840  13.987
68743W        W41069   4.458  37.929  12.315
68744W        W41070  42.954  16.559  13.027
68745W        W41071  18.734  14.208  11.242
68746W        W41072  31.453  25.432  13.309
68747W        W41073  15.753  44.856  11.082
68748W        W41074   3.318  22.239   0.912
68749W        W41075  10.416   6.912  10.456
68750W        W41076  31.898  33.589   4.550
68751W        W41077  40.463   5.358  13.990
68752W        W41078  41.244  41.826  14.574
68753W        W41079  13.687   9.641   0.870
68754W        W41080  34.440  42.301   1.182
68755W        W41081  40.619   5.672   3.283
68756W        W41082   7.165  30.340   3.099
68757W        W41083   6.375  25.379  11.923
68758W        W41084  27.520   9.326   2.226
68759W        W41085  19.801   9.761  12.938
68760W        W41086   1.865  28.143   0.949
68761W        W41087  35.642  20.768   0.889
68762W        W41088  36.192  13.397   0.912
68763W        W41089  28.018  34.679   4.417
68764W        W41090  18.261  18.338   0.648
68765W        W41091  21.616   1.720  13.492
68766W        W41092   7.161  40.040  13.804
68767W        W41093   7.807  41.812   3.190
68768W        W41094  15.186   1.196   2.332
68769W        W41095  35.520   3.708   3.725
68770W        W41096  37.339  25.468   1.744
68771W        W41097  37.550  24.000  14.353
68772W        W41098   9.780   4.402  10.774
68773W        W41099  26.833  24.196   0.948
68774W        W41100  34.380   7.414   2.431
68775W        W41101   0.427  31.206  14.094
68776W        W41102  38.163  31.703   0.500
68777W        W41103  11.345  21.860   4.743
68778W        W41104  31.399  15.080  12.966
68779W        W41105  27.687   6.170  11.926
68780W        W41106  20.277  21.331  10.443
68781W        W41107  17.247  11.182   2.799
68782W        W41108  11.135  21.159   1.720
68783W        W41109  40.005   8.603  14.851
68784W        W41110  37.157   8.443   3.352
68785W        W41111  19.863  32.692  11.187
68786W        W41112  11.624   9.300  14.313
68787W        W41113  20.079  38.893  11.641
68788W        W41114  40.496  35.143  12.966
68789W        W41115  26.122  12.786  14.028
68790W        W41116  33.831   9.339  10.632
68791W        W41117  21.826  39.065  10.276
68792W        W41118   7.386   7.200  10.549
68793W        W41119   6.211  14.086   4.948
68794W        W41120   2.885   7.770  10.842
68795W        W41121  11.782  17.515   3.300
68796W        W41122   5.321  42.508   4.611
68797W        W41123  18.620  10.419  12.791
68798W        W41124  11.040  29.142  14.958
68799W        W41125  33.458  33.025  12.507
68800W        W41126  26.584  40.538  14.928
68801W        W41127  40.353  28.449  14.400
68802W        W41128   4.683   1.944  10.593
68803W        W41129  35.886  17.036  14.812
68804W        W41130  38.091  21.905  14.560
68805W        W41131  17.654  17.218   3.721
68806W        W41132   5.662  25.450   2.735
68807W        W41133  15.676  21.152  13.987
68808W        W41134  15.394  26.663  11.555
68809W        W41135  18.743  26.943  14.721
68810W        W41136  32.469  28.995   4.633
68811W        W41137  26.639  42.856   1.875
68812W        W41138  37.561  14.775  11.557
68813W        W41139  35.830  39.681  12.969
68814W        W41140  13.516  40.994   2.394
68815W        W41141  37.805  30.180  11.690
68816W        W41142  37.366  31.955   4.199
68817W        W41143  41.441   7.001   2.622
68818W        W41144  23.496  41.308   2.121
68819W        W41145  22.197  10.322   3.778
68820W        W41146   0.975  40.999   1.418
68821W        W41147  11.604  24.644   4.324
68822W        W41148  44.023  33.553  12.814
68823W        W41149  29.444  33.721  12.620
68824W        W41150  24.955  17.309  11.637
68825W        W41151  33.434  14.803   1.773
68826W        W41152   4.776  10.345  11.594
68827W        W41153  24.997  35.889   0.051
68828W        W41154  21.577  15.655  13.263
68829W        W41155  27.212   0.813   4.291
68830W        W41156  25.470   5.272  12.941
68831W        W41157  36.104  10.212   3.928
68832W        W41158  38.353   0.719  14.351
68833W        W41159  27.597   4.426  12.328
68834W        W41160   0.390  39.456  10.671
68835W        W41161  16.799  44.306  10.704
68836W        W41162   3.294  30.002   4.285
68837W        W41163   8.346   6.211  10.482
68838W        W41164   9.469  42.980   1.372
68839W        W41165   5.407  27.729  14.101
68840W        W41166  24.019  15.614  10.671
68841W        W41167   3.184  44.358  13.424
68842W        W41168   2.414  16.705  10.953
68843W        W41169  15.159  20.602  12.799
68844W        W41170  20.241  43.392   0.400
68845W        W41171  19.191  34.570   3.626
68846W        W41172  28.387   8.443  10.782
68847W        W41173  12.399  43.246   3.597
68848W        W41174   3.910   2.968  10.564
68849W        W41175  34.986  42.290   4.514
68850W        W41176  36.912  40.076   1.785
68851W        W41177   2.361  19.317  11.901
68852W        W41178  25.686  43.829   4.595
68853W        W41179  24.941  31.181   3.208
68854W        W41180  10.774  15.061   2.616
68855W        W41181   5.443  41.446   4.798
68856W        W41182   9.060  20.776   4.257
68857W        W41183  17.251   6.955   2.076
68858W        W41184  39.368  34.835   3.648
68859W        W41185  11.701  16.263   0.278
68860W        W41186  14.108  32.673  13.019
68861W        W41187  17.146  11.770  13.799
68862W        W41188  34.139  12.926   0.936
68863W        W41189  11.918  39.536  11.414
68864W        W41190  21.776  40.843  12.239
68865W        W41191  43.107   6.772  10.726
68866W        W41192  16.006  38.563   3.628
68867W        W41193  43.479  33.068   4.361
68868W        W41194  41.364  29.407  10.771
68869W        W41195  36.830  34.525  11.140
68870W        W41196  11.654  26.994   1.248
68871W        W41197  44.369  12.858  13.479
68872W        W41198  20.081  15.277   4.065
68873W        W41199  24.489  30.686  12.429
68874W        W41200  40.362  27.042  12.216
68875W        W41201  20.660  43.857   4.410
68876W        W41202  11.830  38.573  12.406
68877W        W41203  44.540  30.520   2.708
68878W        W41204  17.334  17.174   0.245
68879W        W41205  15.132  27.635  11.499
68880W        W41206  26.005  35.054  14.355
68881W        W41207  39.321  43.004  10.323
68882W        W41208   7.815  14.886   2.234
68883W        W41209  17.972   2.690  10.987
68884W        W41210  16.187   1.435   4.762
68885W        W41211  22.194  10.154   1.784
68886W        W41212  14.675  31.585   3.876
68887W        W41213  24.224  26.068   2.611
68888W        W41214  43.382  22.297  10.723
68889W        W41215  21.326  15.734   3.156
68890W        W41216  19.829  16.102   1.227
68891W        W41217  12.396  21.149  11.534
68892W        W41218  38.126   7.008  13.982
68893W        W41219  36.379  26.965  14.808
68894W        W41220   7.365  16.080   1.835
68895W        W41221   2.428  37.983   0.724
68896W        W41222  15.714  18.677  12.555
68897W        W41223  28.508  44.330  11.954
68898W        W41224   8.756   8.425   3.280
68899W        W41225   4.781  19.965  12.109
68900W        W41226  22.250  29.181  13.449
68901W        W41227   4.986  17.134   0.411
68902W        W41228  28.416   9.279   3.570
68903W        W41229  18.326  23.291   3.621
68904W        W41230  37.077  34.841  13.959
68905W        W41231  18.608   8.410   1.767
68906W        W41232  28.625  15.857  12.487
68907W        W41233   1.286   3.962   0.903
68908W        W41234   2.452  16.838   2.614
68909W        W41235  43.462  13.149   1.403
68910W        W41236  21.274  40.879   4.276
68911W        W41237  40.920  29.142   4.575
68912W        W41238   5.886  35.872   2.632
68913W        W41239   7.649  24.981   2.248
68914W        W41240  23.256  21.568  13.381
68915W        W41241   1.012   4.882  12.452
68916W        W41242  39.900   1.229  10.670
68917W        W41243  36.600  35.438  13.488
68918W        W41244  10.111  34.994   4.083
68919W        W41245  20.345  13.667  13.290
68920W        W41246  19.465  23.419  12.078
68921W        W41247   7.325  16.327   3.110
68922W        W41248  40.037  36.025   2.741
68923W        W41249  35.220  38.818  11.936
68924W        W41250   6.919  24.698   2.773
68925W        W41251  11.830   5.940   3.296
68926W        W41252  11.497  42.032  10.645
68927W        W41253   6.879   9.711   2.260
68928W        W41254   3.738  33.598  12.449
68929W        W41255  42.475   4.735  12.967
68930W        W41256  22.302   5.655  12.400
68931W        W41257  15.658  35.885  14.393
68932W        W41258  26.433   9.980  13.361
68933W        W41259   8.216   6.823   1.556
68934W        W41260   2.709  41.574   1.190
68935W        W41261  21.400  42.746   0.724
68936W        W41262  33.789   6.322   2.643
68937W        W41263   7.755  10.085  13.937
68938W        W41264  34.596  10.695   0.787
68939W        W41265  19.905  39.010  13.894
68940W        W41266  32.589  17.150  11.234
68941W        W41267  16.058   8.243   2.685
68942W        W41268  29.449  19.185   4.095
68943W        W41269  36.567   5.326   2.335
68944W        W41270  37.931  14.165   2.985
68945W        W41271   1.448  36.902   2.622
68946W        W41272  29.509  21.057  14.841
68947W        W41273   8.245  15.235   4.315
68948W        W41274  38.600  31.355   2.800
68949W        W41275   4.236  33.215  13.018
68950W        W41276  43.437  19.556  14.355
68951W        W41277   6.707  22.491  12.446
68952W        W41278  33.700  28.166   3.178
68953W        W41279  30.480  18.551  10.930
68954W        W41280  41.051  21.239  10.417
68955W        W41281  41.505  31.713   4.125
68956W        W41282  14.750  26.755   4.286
68957W        W41283  40.835  10.566  12.135
68958W        W41284  32.214  43.306   2.745
68959W        W41285   2.225   0.352  14.338
68960W        W41286   1.647  31.094   0.744
68961W        W41287   2.260   5.333  12.074
68962W        W41288   0.508  27.062   2.150
68963W        W41289  23.247   3.839   0.650
68964W        W41290  26.035   2.744   1.391
68965W        W41291  31.212   8.387  14.372
68966W        W41292  28.475  36.764   1.826
68967W        W41293  20.559   1.473   2.683
68968W        W41294   8.823   3.289   0.379
68969W        W41295   5.469  26.167  12.530
68970W        W41296  21.661   2.303  14.754
68971W        W41297  37.439  25.752   4.126
68972W        W41298   1.801  22.308   0.312
68973W        W41299   0.853  28.088   4.607
68974W        W41300  13.836  29.595   0.207
68975W        W41301  37.936  12.326  14.577
68976W        W41302  41.808  30.222  11.712
68977W        W41303   8.608  14.262   2.355
68978W        W41304  42.776  28.895   4.218
68979W        W41305   8.144  19.555  14.726
68980W        W41306  38.689  24.811  11.068
68981W        W41307  13.370  23.624  14.607
68982W        W41308  13.363  24.803  10.073
68983W        W41309  27.045   1.374   2.897
68984W        W41310  13.397  44.184  12.397
68985W        W41311   2.825   0.408  10.728
68986W        W41312  26.950  36.157  13.351
68987W        W41313   3.946  38.466  10.328
68988W        W41314   1.397   7.894   0.812
68989W        W41315   6.312  18.614  12.866
68990W        W41316  25.111   0.031   3.972
68991W        W41317   7.291  43.406   4.206
68992W        W41318  44.435  35.923  12.539
68993W        W41319  41.711  17.238   0.886
68994W        W41320  39.467  11.111   0.321
68995W        W41321  41.342  23.616   1.489
68996W        W41322   3.876  26.695  14.354
68997W        W41323  32.429  44.782   0.490
68998W        W41324  17.045  20.400  12.546
68999W        W41325  12.756  36.698  13.336
69000W        W41326  39.490  22.050   0.836
69001W        W41327  28.395  38.936  14.454
69002W        W41328  44.414  13.908  11.445
69003W        W41329  21.337  16.935  10.149
69004W        W41330   6.238   7.433   4.230
69005W        W41331  20.722  23.458  13.358
69006W        W41332  24.619  37.655  12.109
69007W        W41333   5.747   4.744  13.630
69008W        W41334  40.281  28.191  12.996
69009W        W41335  41.993  27.382   3.366
69010W        W41336   8.584   3.729   4.591
69011W        W41337  24.716  26.999  14.774
69012W        W41338  23.694  44.234  10.971
69013W        W41339  35.604  18.045  14.842
69014W        W41340  34.055  29.113  12.166
69015W        W41341   6.267   2.319  13.331
69016W        W41342  16.688  11.163   0.385
69017W        W41343  10.218  38.142   4.245
69018W        W41344  37.474  26.726   1.416
69019W        W41345  32.146  21.534   2.302
69020W        W41346   7.859  32.788   0.243
69021W        W41347  17.545  23.560   0.960
69022W        W41348  12.849  21.083  13.505
69023W        W41349   4.478   0.380  11.660
69024W        W41350  15.624   9.427   4.683
69025W        W41351  30.024  17.600   3.769
69026W        W41352  19.411  17.918  10.723
69027W        W41353   4.667  16.807  10.144
69028W        W41354   6.441  40.425  14.680
69029W        W41355  28.157  31.516   2.429
69030W        W41356   5.172  34.615   3.857
69031W        W41357  23.727  18.128   2.072
69032W        W41358  39.399  30.822   1.797
69033W        W41359   1.972   8.938  10.677
69034W        W41360  44.870  36.589  11.623
69035W        W41361  40.574  27.495  11.958
69036W        W41362   4.490   2.516   0.688
69037W        W41363  12.851  26.042   2.155
69038W        W41364  24.185  26.189   0.455
69039W        W41365  14.771  36.095  10.434
69040W        W41366  23.306  20.049  12.021
69041W        W41367  22.002   2.009  10.928
69042W        W41368  34.758  37.567   3.125
69043W        W41369   9.915  38.417  11.598
69044W        W41370  44.406  35.468  11.507
69045W        W41371  16.079   0.156  13.944
69046W        W41372  12.677  24.911   0.631
69047W        W41373  37.531   1.543  13.336
69048W        W41374   1.906  23.290  12.906
69049W        W41375   7.225   9.481  13.540
69050W        W41376  42.893  42.643   3.166
69051W        W41377   6.190  31.656   3.679
69052W        W41378   6.524  14.745   2.663
69053W        W41379  10.573   1.093   0.906
69054W        W41380  33.895  36.491  11.070
69055W        W41381  28.951  14.379   1.358
69056W        W41382  19.652  39.639   1.433
69057W        W41383   3.929  17.726   1.206
69058W        W41384  38.832  43.276  11.063
69059W        W41385  36.587  20.974  13.823
69060W        W41386  21.441  24.897  12.960
69061W        W41387  10.238  39.757   0.515
69062W        W41388  41.309  27.175   0.567
69063W        W41389   8.911  29.344  13.564
69064W        W41390   1.347   1.857   1.794
69065W        W41391  21.357   0.276   2.631
69066W        W41392  23.724   4.192   0.481
69067W        W41393  19.601  13.897  13.967
69068W        W41394  11.718  44.024  14.933
69069W        W41395   0.558   0.718  12.452
69070W        W41396   3.765  32.978  12.929
69071W        W41397   1.769  13.840   2.258
69072W        W41398  44.930   9.369   1.568
69073W        W41399  32.341  10.785  11.421
69074W        W41400  16.666   0.314   1.837
69075W        W41401  26.951  16.691  13.892
69076W        W41402  22.538  10.713  12.918
69077W        W41403  11.384  19.160   4.644
69078W        W41404  15.028  11.090   0.668
69079W        W41405  11.263  16.881   2.621
69080W        W41406  39.375  13.774  12.594
69081W        W41407  19.588  40.368   1.960
69082W        W41408   0.923  40.518   3.767
69083W        W41409  33.975  24.361  14.515
69084W        W41410  30.206   4.201   4.669
69085W        W41411  39.107  14.649  14.383
69086W        W41412  35.588  12.283   3.711
69087W        W41413  34.190   3.393   1.217
69088W        W41414  25.090  34.896  13.734
69089W        W41415  26.615   6.276   1.856
69090W        W41416   7.953  14.831   4.169
69091W        W41417  11.629  10.587  10.637
69092W        W41418  17.335   2.990   4.091
69093W        W41419  18.976  29.187  13.078
69094W        W41420  15.120  29.588   2.767
69095W        W41421  40.483  11.726  10.257
69096W        W41422  32.803   8.221   2.917
69097W        W41423  32.839  24.835  12.997
69098W        W41424  35.501  25.923   0.774
69099W        W41425  23.757  11.242   2.378
69100W        W41426  37.351  12.222   0.421
69101W        W41427  10.574  26.264  14.863
69102W        W41428  42.047   1.732   4.816
69103W        W41429  35.478   9.155   4.635
69104W        W41430   1.393   6.671  13.706
69105W        W41431   3.473  35.370   0.452
69106W        W41432   7.138  20.813  12.897
69107W        W41433  11.790  40.616   5.079
69108W        W41434   7.957  32.963  12.331
69109W        W41435  42.205  22.255  14.913
69110W        W41436  39.802   7.150   0.838
69111W        W41437   0.928   7.108   3.866
69112W        W41438  11.287  39.849  12.885
69113W        W41439  37.513  31.475   4.370
69114W        W41440  31.375  44.953   1.214
69115W        W41441  27.124  26.135   1.375
69116W        W41442  32.032  26.212   2.260
69117W        W41443  35.702  28.327   1.750
69118W        W41444  38.296  23.999  12.060
69119W        W41445   3.928  21.487   4.155
69120W        W41446  32.505  15.116   2.108
69121W        W41447  34.452  38.923  11.672
69122W        W41448  19.879   3.639   0.942
69123W        W41449  30.227  13.286   4.114
69124W        W41450  32.560   2.828   1.429
69125W        W41451  42.123  41.299  13.543
69126W        W41452  43.678   4.946   3.413
69127W        W41453  19.830   7.929   1.933
69128W        W41454   0.582  44.304   1.299
69129W        W41455  22.626  40.519   3.908
69130W        W41456  15.649  19.899   3.304
69131W        W41457   4.247  29.633  14.702
69132W        W41458  19.595  43.771   1.969
69133W        W41459  12.662  39.572  13.861
69134W        W41460  18.638  18.956  14.467
69135W        W41461  42.798  11.729   1.323
69136W        W41462  35.331  44.199   4.695
69137W        W41463  24.762  26.842  11.141
69138W        W41464  43.072  17.717   3.768
69139W        W41465  16.806  10.820   1.490
69140W        W41466  27.867   3.446  10.661
69141W        W41467   0.547  35.599  14.901
69142W        W41468  33.491  42.772   3.978
69143W        W41469  21.076  38.146   0.461
69144W        W41470   0.800  17.033   3.276
69145W        W41471  29.737   2.304   2.276
69146W        W41472  32.357   7.182  12.933
69147W        W41473  15.853  20.654  13.893
69148W        W41474  39.949  25.415  13.483
69149W        W41475   6.443  16.372  14.458
69150W        W41476   9.045  35.412   2.823
69151W        W41477   0.891   4.294  14.567
69152W        W41478  33.092  26.480   2.820
69153W        W41479  23.569  32.428  12.407
69154W        W41480   2.091  41.306  13.957
69155W        W41481  21.265  23.879  11.493
69156W        W41482  15.172  43.558   0.076
69157W        W41483   7.896   9.320   4.696
69158W        W41484  42.926  37.225   1.265
69159W        W41485  19.364  24.632   2.395
69160W        W41486   5.364  12.292   0.684
69161W        W41487  31.580  16.779  13.480
69162W        W41488  42.498  25.082  13.976
69163W        W41489  35.051  15.710   1.517
69164W        W41490  28.635   7.354   4.897
69165W        W41491  10.575  29.010   1.986
69166W        W41492  26.624  21.990  12.482
69167W        W41493  30.013  30.949   3.424
69168W        W41494  39.886   7.639  12.924
69169W        W41495  10.407  37.014  14.774
69170W        W41496  39.790  41.335   0.831
69171W        W41497   2.038  15.159   3.627
69172W        W41498   7.828  33.591   4.623
69173W        W41499  31.499   0.246   3.111
69174W        W41500   6.431  29.003   1.459
69175W        W41501  41.492  23.251  11.590
69176W        W41502  24.190   9.920   4.927
69177W        W41503  14.229  20.956  14.950
69178W        W41504   0.371  12.670   4.532
69179W        W41505  24.899  35.713   1.205
69180W        W41506  15.217  14.893  11.360
69181W        W41507  28.230  12.995   1.026
69182W        W41508  38.329  26.217  11.080
69183W        W41509   5.794   4.675  11.181
69184W        W41510  39.259  18.711  12.006
69185W        W41511   7.482  44.916   0.374
69186W        W41512   3.252   7.731  13.412
69187W        W41513  39.247  15.397   4.594
69188W        W41514  12.463  12.703  12.369
69189W        W41515  14.387  15.673  12.138
69190W        W41516  15.562  26.613   3.668
69191W        W41517  13.222   3.937  14.950
69192W        W41518  33.416  23.223  13.867
69193W        W41519  29.883  33.385   0.094
69194W        W41520  33.507  26.892  10.441
69195W        W41521  42.765  27.372  14.096
69196W        W41522   3.780  12.191   4.853
69197W        W41523  14.458  25.325   5.096
69198W        W41524  22.755  24.472   2.389
69199W        W41525  41.898  21.625   4.623
69200W        W41526   7.081   9.630   0.821
69201W        W41527  19.506  15.882   0.878
69202W        W41528   3.259   3.355  10.103
69203W        W41529   8.869   9.957   2.222
69204W        W41530  29.602  17.356   4.558
69205W        W41531  26.240  39.493   4.538
69206W        W41532  39.289  44.258   3.867
69207W        W41533  23.958  16.758  12.064
69208W        W41534  13.877  23.194   0.276
69209W        W41535   4.225  17.196  14.089
69210W        W41536   8.810  40.350   3.757
69211W        W41537  44.305   9.841   2.763
69212W        W41538  12.328  18.808   3.780
69213W        W41539  11.753   9.803   4.631
69214W        W41540  38.726  43.758   4.153
69215W        W41541  21.048  35.075   2.926
69216W        W41542   5.023   3.769  13.467
69217W        W41543   3.435  36.396  12.989
69218W        W41544  22.219  21.158   1.970
69219W        W41545  22.910  11.656   3.208
69220W        W41546  26.696   1.030   5.103
69221W        W41547   1.294   9.828  11.605
69222W        W41548  11.305  35.459  11.432
69223W        W41549  29.909   5.582   4.186
69224W        W41550  41.049   0.830   3.162
69225W        W41551  15.239   2.838   1.865
69226W        W41552  13.027  11.328   9.927
69227W        W41553  24.215   1.915   0.818
69228W        W41554  38.092   3.150  11.069
69229W        W41555  37.002  19.306   0.848
69230W        W41556  27.458  20.603  14.853
69231W        W41557  14.739  23.771   4.466
69232W        W41558  22.314  20.689   0.374
69233W        W41559   8.597  20.380   0.548
69234W        W41560  32.664  19.020  10.737
69235W        W41561  28.517  37.434   0.909
69236W        W41562   0.009  39.657   2.805
69237W        W41563  16.856  12.232  14.487
69238W        W41564  35.895  29.925   3.855
69239W        W41565   5.497  22.471  13.936
69240W        W41566  38.339  44.909  10.626
69241W        W41567  29.987  35.762  12.134
69242W        W41568  35.347  16.498   3.669
69243W        W41569  13.735  11.545  12.444
69244W        W41570  35.043  23.070   4.605
69245W        W41571   2.312  17.164  13.149
69246W        W41572  27.362  32.136   4.563
69247W        W41573  14.376  39.642  13.542
69248W        W41574  26.466  12.848  12.368
69249W        W41575   7.648  28.079  11.142
69250W        W41576   7.737  12.104  14.817
69251W        W41577  28.122  38.290   3.500
69252W        W41578  13.569   2.654  13.627
69253W        W41579  12.669   1.365   4.827
69254W        W41580  34.677  21.136   0.395
69255W        W41581  25.697  21.711   2.223
69256W        W41582  35.130  27.782  13.724
69257W        W41583  34.001  38.886   3.696
69258W        W41584  11.112  18.810  12.606
69259W        W41585  40.533  11.632  14.803
69260W        W41586   7.412   5.512   2.657
69261W        W41587  22.322  43.319   3.676
69262W        W41588  15.591  26.579  12.421
69263W        W41589  21.823  41.154  14.556
69264W        W41590  18.739   8.315   4.019
69265W        W41591   9.285  14.579   2.549
69266W        W41592   9.179  15.156  11.537
69267W        W41593  43.317  34.670  14.824
69268W        W41594  11.697   9.010   1.695
69269W        W41595  16.219   2.902   4.702
69270W        W41596   0.737  38.562   4.944
69271W        W41597   3.229  28.366   4.633
69272W        W41598   2.914  12.342   2.384
69273W        W41599  19.334  16.185   1.294
69274W        W41600  35.852   1.230  12.547
69275W        W41601  16.816  23.629   4.593
69276W        W41602   2.941   9.891  10.669
69277W        W41603   6.255  13.321  13.512
69278W        W41604  26.878   7.291   0.801
69279W        W41605  42.253  40.752   5.158
69280W        W41606  39.340   3.867   4.174
69281W        W41607  32.871  18.646  14.673
69282W        W41608  17.200  40.214   4.562
69283W        W41609  28.496  44.881  10.606
69284W        W41610  39.876  38.049  11.979
69285W        W41611   2.008  28.215   1.739
69286W        W41612   3.483  37.138   4.398
69287W        W41613  14.191  37.492  10.281
69288W        W41614  26.487  11.791  12.834
69289W        W41615  19.651  43.080  10.769
69290W        W41616   7.020  27.504   1.266
69291W        W41617  29.470  20.296  14.537
69292W        W41618  18.190  10.741  10.536
69293W        W41619  32.206  28.977  11.731
69294W        W41620  24.229   0.091   4.133
69295W        W41621  30.391  41.336  13.460
69296W        W41622  42.587  12.811   1.727
69297W        W41623   4.443  40.431  13.454
69298W        W41624  10.615  26.889  12.866
69299W        W41625  42.324  40.233   2.384
69300W        W41626  10.886  33.594  14.249
69301W        W41627  29.036   2.228  13.592
69302W        W41628  33.136  39.416  13.330
69303W        W41629  44.661   8.878   2.825
69304W        W41630   9.753  23.780   2.358
69305W        W41631  32.965   4.831  12.156
69306W        W41632  19.219  19.731   4.166
69307W        W41633  12.383  15.086   2.825
69308W        W41634  23.007   5.272  14.361
69309W        W41635  19.319  25.403  13.385
69310W        W41636  24.931   5.491  11.859
69311W        W41637   1.851  38.803   3.073
69312W        W41638  40.953  19.085   3.238
69313W        W41639  15.191  13.252   3.666
69314W        W41640   4.187  23.669  13.931
69315W        W41641   6.523  12.665   3.616
69316W        W41642  10.446   5.943  12.001
69317W        W41643   0.461  39.379  14.360
69318W        W41644  37.690  20.639  11.235
69319W        W41645  28.301  22.158   2.851
69320W        W41646   6.891  44.564   4.092
69321W        W41647  23.165  22.087   2.722
69322W        W41648  38.363  44.660   0.132
69323W        W41649   2.785  30.963  12.758
69324W        W41650   8.712  17.799   3.921
69325W        W41651   3.068   5.256  11.068
69326W        W41652  25.508   1.498  10.932
69327W        W41653  30.391   0.918  11.136
69328W        W41654   3.786  42.493  10.652
69329W        W41655  13.551  12.417   2.856
69330W        W41656  44.361  40.107   3.231
69331W        W41657   1.717  37.159  11.058
69332W        W41658  42.780  42.834   4.714
69333W        W41659  24.623  16.664  12.789
69334W        W41660  28.443  18.237   3.692
69335W        W41661  24.199  26.587  13.748
69336W        W41662  30.143  19.284  12.485
69337W        W41663  16.157  19.645   0.710
69338W        W41664  36.880   4.887  13.393
69339W        W41665  36.807   1.950  12.007
69340W        W41666   3.448  42.768   2.894
69341W        W41667  31.453   7.866   2.790
69342W        W41668  23.911  30.074   3.185
69343W        W41669  37.568  11.469   2.140
69344W        W41670  34.524  24.523   2.268
69345W        W41671  29.729  12.828  11.609
69346W        W41672  21.957  39.253   2.423
69347W        W41673  35.024  38.138   2.334
69348W        W41674  30.152  23.026   3.706
69349W        W41675  23.300   7.337   1.114
69350W        W41676  19.464  11.152   2.861
69351W        W41677  22.305  16.809  13.083
69352W        W41678  27.683  17.657   1.226
69353W        W41679  10.601  22.671   2.405
69354W        W41680  21.323  12.120  14.616
69355W        W41681  35.162  37.581   1.688
69356W        W41682   2.291  31.887   3.867
69357W        W41683  44.467  19.087   0.033
69358W        W41684  20.616   3.486   0.886
69359W        W41685  28.479  25.725  14.520
69360W        W41686  37.802  32.592   0.438
69361W        W41687  38.703  21.561   1.712
69362W        W41688  43.226   2.039   3.777
69363W        W41689  29.598  40.923   0.275
69364W        W41690   7.574  26.631  13.096
69365W        W41691   5.482   3.397   1.277
69366W        W41692  43.778  32.656  11.575
69367W        W41693  33.459  13.058   4.410
69368W        W41694  32.061  13.054  13.382
69369W        W41695  17.687  13.133   2.386
69370W        W41696  37.899  41.375  10.789
69371W        W41697  18.757  16.683   3.337
69372W        W41698  15.777  15.071  12.567
69373W        W41699   5.624  25.005   3.655
69374W        W41700  11.630  41.768  11.435
69375W        W41701   8.807  42.555   3.316
69376W        W41702  35.779  39.375   1.083
69377W        W41703   8.871  16.100   1.804
69378W        W41704  18.763  17.141  10.713
69379W        W41705  27.209  24.597  12.757
69380W        W41706   3.506  23.517  10.683
69381W        W41707   5.926  33.462   4.123
69382W        W41708  28.135  14.409  11.789
69383W        W41709   6.846   6.334  14.934
69384W        W41710  41.850  22.538   2.768
69385W        W41711  37.706  39.983  11.428
69386W        W41712  43.056  12.250  14.039
69387W        W41713   4.090  28.086   9.929
69388W        W41714  24.033   1.899   3.881
69389W        W41715   5.315  43.058  12.821
69390W        W41716   1.549  23.326   3.394
69391W        W41717  16.552  36.254   3.311
69392W        W41718   1.539  15.161   0.219
69393W        W41719   0.877  34.030   0.002
69394W        W41720  11.209  25.716   1.290
69395W        W41721  40.257  21.482  13.520
69396W        W41722   1.355  31.500   2.618
69397W        W41723  35.703  18.948  11.460
69398W        W41724  26.818  43.767   4.546
69399W        W41725  10.762   4.110  10.687
69400W        W41726  24.486   7.827   3.096
69401W        W41727  42.515  36.952  13.507
69402W        W41728   4.093  11.580  12.093
69403W        W41729  38.559  10.415   1.771
69404W        W41730  26.760  26.437   5.299
69405W        W41731   4.726  26.391   4.985
69406W        W41732   4.039  37.900  13.494
69407W        W41733  39.770   3.273  12.656
69408W        W41734   8.378   1.153   3.584
69409W        W41735   1.020   6.209   4.942
69410W        W41736  42.795  32.927  11.560
69411W        W41737  32.626  27.762  14.944
69412W        W41738  40.340  21.079  13.188
69413W        W41739   8.182  42.433  11.419
69414W        W41740  26.048   1.859   4.240
69415W        W41741  30.558  17.084   2.168
69416W        W41742  26.636   8.438   1.780
69417W        W41743  21.111  16.885  13.561
69418W        W41744  19.291   7.403   3.125
69419W        W41745  11.881  42.753   0.328
69420W        W41746  32.584  31.024   3.178
69421W        W41747   5.696  20.299   1.746
69422W        W41748  34.907  14.778   2.018
69423W        W41749  25.983   9.267  12.381
69424W        W41750  24.989  36.630   0.368
69425W        W41751   0.431  34.831   3.633
69426W        W41752  19.544  16.527  14.860
69427W        W41753  40.388  32.250  14.335
69428W        W41754  27.634   2.785   1.331
69429W        W41755   5.055  10.155  13.570
69430W        W41756  27.597  44.078   2.952
69431W        W41757   3.448  18.718   3.922
69432W        W41758  36.473  35.013  10.190
69433W        W41759  38.387  26.621  11.684
69434W        W41760  12.742  17.680   2.203
69435W        W41761  22.526  17.301   0.303
69436W        W41762  22.491  11.457   2.156
69437W        W41763   2.423  25.089  13.457
69438W        W41764  37.420  23.503  14.332
69439W        W41765   5.888  44.836   4.550
69440W        W41766   0.785  30.113  14.020
69441W        W41767  16.722  11.702   1.655
69442W        W41768  34.412  44.011   2.253
69443W        W41769  12.597  30.741  11.960
69444W        W41770  39.658  21.078  14.861
69445W        W41771  27.484   0.220  12.889
69446W        W41772   6.004  12.747   3.615
69447W        W41773  30.060  33.595  11.466
69448W        W41774  16.396   8.972  11.480
69449W        W41775  38.860   3.298   4.685
69450W        W41776   2.307  15.838   0.432
69451W        W41777   3.420  27.980  14.808
69452W        W41778  37.558  19.073   2.840
69453W        W41779  23.489  22.915   2.753
69454W        W41780  34.896  41.422   0.505
69455W        W41781  28.556   6.238   4.784
69456W        W41782   6.922  34.659   1.254
69457W        W41783   0.466  42.364   0.424
69458W        W41784   2.320  32.346  13.908
69459W        W41785  26.422  34.172   3.189
69460W        W41786  26.742  15.227   4.402
69461W        W41787  12.807  29.883  11.246
69462W        W41788  25.510  23.116   2.942
69463W        W41789  41.540  22.322  13.339
69464W        W41790   7.701  35.122  11.119
69465W        W41791  22.062  26.636   1.477
69466W        W41792   6.399  22.210  13.466
69467W        W41793  27.263  23.040  11.282
69468W        W41794  31.497  41.779   3.311
69469W        W41795  33.649  19.042   0.807
69470W        W41796  41.995  38.052  11.998
69471W        W41797  18.653  34.642   3.639
69472W        W41798  17.599  22.749  12.636
69473W        W41799   7.734  24.020   1.327
69474W        W41800  18.736   4.568  13.550
69475W        W41801   0.348  32.108  13.344
69476W        W41802   9.798  16.793  14.854
69477W        W41803  38.320  13.093   1.023
69478W        W41804  16.552  24.507  13.021
69479W        W41805  26.544  14.061   3.766
69480W        W41806   2.323  31.602  11.086
69481W        W41807  25.903  13.217  14.487
69482W        W41808  14.171   7.852   2.822
69483W        W41809  23.502  22.570   4.518
69484W        W41810  20.617  38.175   3.635
69485W        W41811  17.679  25.422  14.807
69486W        W41812  23.285  36.107  12.084
69487W        W41813  26.977  44.704   3.394
69488W        W41814  40.982  35.263   4.970
69489W        W41815   8.245  33.030   0.528
69490W        W41816  39.018  15.756   2.656
69491W        W41817  14.150   7.786  11.467
69492W        W41818  43.695  34.039   0.979
69493W        W41819  21.969  27.792  12.568
69494W        W41820  15.236  13.135   0.369
69495W        W41821  13.193  29.469   2.738
69496W        W41822   0.060   0.443  13.168
69497W        W41823  36.503  41.367  13.871
69498W        W41824  39.008  25.204  10.303
69499W        W41825  13.617  37.503   4.637
69500W        W41826  20.535  34.963   3.134
69501W        W41827  22.029  33.770  13.503
69502W        W41828  42.074  30.902   1.184
69503W        W41829  23.632  30.997   1.684
69504W        W41830  35.096  11.606  12.958
69505W        W41831  38.354  24.969   1.805
69506W        W41832  34.386  26.248   3.954
69507W        W41833  10.365  19.245  13.984
69508W        W41834  34.887   9.715  13.792
69509W        W41835   0.308  12.536  13.842
69510W        W41836  41.067  22.051   0.402
69511W        W41837  27.293  23.332   0.996
69512W        W41838  24.662  25.862   4.211
69513W        W41839  14.733  29.454   2.382
69514W        W41840  22.859  42.933  11.509
69515W        W41841  25.257  20.503  10.434
69516W        W41842  29.977  14.095  13.083
69517W        W41843  22.622   1.693   0.313
69518W        W41844  15.307  35.927   0.581
69519W        W41845  40.755  33.494  14.818
69520W        W41846   5.913  23.305   3.794
69521W        W41847  21.102  38.905   5.190
69522W        W41848  21.701  32.746  12.186
69523W        W41849   5.204   1.335   3.096
69524W        W41850   8.839  29.891   4.892
69525W        W41851  30.949  19.724   2.102
69526W        W41852  30.490  36.343   4.652
69527W        W41853   0.183  24.149   0.647
69528W        W41854  18.693  20.204  13.880
69529W        W41855   3.392  28.646   2.389
69530W        W41856  14.566  42.573  14.100
69531W        W41857  14.781  32.982  14.801
69532W        W41858   3.918  21.450   1.801
69533W        W41859  40.106  29.117  10.692
69534W        W41860   8.044  26.071  13.514
69535W        W41861  40.772  32.123   2.401
69536W        W41862   2.446  24.022  10.193
69537W        W41863  14.290  35.362  10.517
69538W        W41864  26.496  42.449   3.142
69539W        W41865  17.094   2.460  11.544
69540W        W41866  44.271  25.415   2.644
69541W        W41867  31.544   0.234   0.327
69542W        W41868   7.793   1.593  11.411
69543W        W41869  18.411  41.590  12.553
69544W        W41870  44.989  12.310   0.919
69545W        W41871  40.836   7.679   4.540
69546W        W41872  10.113  16.790  14.453
69547W        W41873  42.433   2.349   2.908
69548W        W41874  29.040  40.851   3.624
69549W        W41875  22.740  38.366   1.205
69550W        W41876  26.065  33.405  13.307
69551W        W41877  13.055   7.635  10.703
69552W        W41878   6.225  30.898  14.192
69553W        W41879  33.379   1.181  11.975
69554W        W41880  24.355  43.410  11.342
69555W        W41881  35.274  28.086   3.382
69556W        W41882  29.023  30.112   0.156
69557W        W41883  30.668  40.046  12.520
69558W        W41884  34.561  26.396   4.799
69559W        W41885  41.315  38.538   1.393
69560W        W41886  33.813  40.542  11.115
69561W        W41887  13.876  31.030   3.150
69562W        W41888  29.638  16.135  14.351
69563W        W41889   3.036  13.219   3.655
69564W        W41890   9.603  42.891  13.101
69565W        W41891  27.341  35.650  11.303
69566W        W41892  43.642  35.442   4.784
69567W        W41893   1.385  35.751   1.820
69568W        W41894  12.078  14.370   3.761
69569W        W41895  27.662  20.766   3.745
69570W        W41896  24.678  36.022   0.870
69571W        W41897  30.015  35.027   3.020
69572W        W41898  20.128  27.968   4.660
69573W        W41899   5.236  31.440   1.557
69574W        W41900  36.620  44.771   3.886
69575W        W41901  35.175  13.814  10.839
69576W        W41902  36.913  35.994  12.632
69577W        W41903  16.995  13.146   4.760
69578W        W41904  39.500   2.775   1.782
69579W        W41905  19.961  13.482  11.653
69580W        W41906  19.998   3.697   2.843
69581W        W41907  23.273   3.004   3.862
69582W        W41908   3.458  33.542  11.577
69583W        W41909  33.585   9.124  11.671
69584W        W41910  40.051  10.772   0.748
69585W        W41911  26.891  17.212   0.414
69586W        W41912  18.508  22.393   5.013
69587W        W41913  27.214  39.885   2.260
69588W        W41914   3.986  34.966   5.014
69589W        W41915  35.872  42.335  12.864
69590W        W41916  39.515  19.314  14.867
69591W        W41917  38.649  34.076   3.160
69592W        W41918   9.207  24.254   1.779
69593W        W41919  28.158   4.748  10.774
69594W        W41920   4.837  21.950  11.476
69595W        W41921  18.223  40.363   0.076
69596W        W41922  16.183  14.142   1.443
69597W        W41923  40.427  25.465  10.568
69598W        W41924  10.759  23.924  13.215
69599W        W41925   7.774  44.536  14.406
69600W        W41926  30.281  35.087  13.779
69601W        W41927  32.547  37.505  14.427
69602W        W41928  33.473  16.817  10.103
69603W        W41929  41.490  36.959  13.523
69604W        W41930   0.619   2.266   0.110
69605W        W41931  12.825  19.072   1.440
69606W        W41932  11.154  13.672   0.222
69607W        W41933   5.154  10.341   2.514
69608W        W41934  31.788  36.069   4.065
69609W        W41935   3.465  44.399   0.786
69610W        W41936  11.568  25.268  12.384
69611W        W41937   2.714  16.238   1.853
69612W        W41938  23.494  15.614  11.591
69613W        W41939  40.855   7.970   2.730
69614W        W41940  22.196  19.645  11.381
69615W        W41941  38.148  14.386   2.554
69616W        W41942   5.810  41.545  11.244
69617W        W41943  18.761  19.473   1.744
69618W        W41944  43.728  18.683   3.518
69619W        W41945   7.616  43.059   5.122
69620W        W41946  10.428  42.759   3.675
69621W        W41947  20.778  20.453  11.107
69622W        W41948   8.218  11.125  10.701
69623W        W41949  36.099  11.570   1.655
69624W        W41950   6.725  42.459   4.854
69625W        W41951   3.379  17.087   4.160
69626W        W41952  26.962  29.503  12.058
69627W        W41953  29.642  35.351   3.218
69628W        W41954  43.998  25.698  12.137
69629W        W41955  42.021  26.377   3.125
69630W        W41956  41.319  35.331  11.271
69631W        W41957  37.464  13.443  11.332
69632W        W41958  22.922  39.996   9.576
69633W        W41959  14.614  32.216   2.391
69634W        W41960  22.978   5.763   4.655
69635W        W41961  43.029  18.256   0.351
69636W        W41962   0.329  38.578  10.623
69637W        W41963  29.088  39.357   2.580
69638W        W41964  31.732  14.680   3.136
69639W        W41965   5.422  40.850  13.463
69640W        W41966  30.231  22.047  13.612
69641W        W41967  17.194  33.516   0.765
69642W        W41968  12.299  20.303   3.713
69643W        W41969  19.047   5.817   4.130
69644W        W41970   7.389  19.004   2.851
69645W        W41971  42.732   7.335  13.527
69646W        W41972  10.464   6.697   1.475
69647W        W41973   7.567  29.246  11.618
69648W        W41974   2.594  34.853  12.527
69649W        W41975  11.943  13.304  11.770
69650W        W41976  26.911  13.252  11.188
69651W        W41977  12.837   0.939   3.431
69652W        W41978  26.555  32.918  12.050
69653W        W41979  32.611  11.781  11.686
69654W        W41980  18.805  20.530  12.330
69655W        W41981  41.019  42.843   0.100
69656W        W41982  36.871   8.830   0.480
69657W        W41983  21.153  20.103  13.754
69658W        W41984  41.348  20.530   4.731
69659W        W41985  29.173   8.816  11.878
69660W        W41986   4.740  15.372   1.879
69661W        W41987  28.072  12.119   3.062
69662W        W41988  14.742  10.659   0.738
69663W        W41989   2.428  15.362  14.167
69664W        W41990  43.293  35.685   2.422
69665W        W41991  30.315  22.529   2.666
69666W        W41992  15.320   8.304  14.819
69667W        W41993  27.175  36.965  11.487
69668W        W41994  14.690  21.241   0.668
69669W        W41995  20.159  26.585   0.044
69670W        W41996  21.751  14.886   2.287
69671W        W41997  41.881  11.362  13.505
69672W        W41998  43.334  30.849  10.508
69673W        W41999  34.758  24.972   2.452
69674W        W42000  28.494   0.640   1.240
69675W        W42001  16.526  33.261   1.648
69676W        W42002   3.194   2.187   4.303
69677W        W42003  10.690   3.839  14.930
69678W        W42004  10.205  33.175   3.535
69679W        W42005  27.363  36.036   2.800
69680W        W42006  19.462   8.869   4.043
69681W        W42007   9.695  15.359  12.379
69682W        W42008  17.123  40.601  14.459
69683W        W42009  10.747  13.790  12.429
69684W        W42010  29.492  34.100  14.916
69685W        W42011  38.366   7.758   2.643
69686W        W42012  21.587   0.256  12.363
69687W        W42013   4.717  23.216  14.520
69688W        W42014  25.056  34.361   2.711
69689W        W42015   1.267  26.993   3.344
69690W        W42016  41.821   0.851  13.135
69691W        W42017  41.482   0.071   1.210
69692W        W42018  14.761   3.151  13.505
69693W        W42019  11.106  24.402   0.035
69694W        W42020  37.784  32.071   1.633
69695W        W42021  28.235   3.013   4.900
69696W        W42022   7.561  34.976  13.606
69697W        W42023  39.837   2.280  14.958
69698W        W42024  32.421  38.808   0.760
69699W        W42025  14.124   2.307   2.331
69700W        W42026  38.588   1.173   0.509
69701W        W42027  14.839  21.573   2.008
69702W        W42028   8.850  26.925   0.717
69703W        W42029   7.855  42.026  14.500
69704W        W42030  16.604  32.261  11.879
69705W        W42031  22.124  34.754  13.168
69706W        W42032  44.824  36.410  14.918
69707W        W42033  13.632  43.262   3.139
69708W        W42034  20.272  35.943  10.828
69709W        W42035   3.932  27.871   1.224
69710W        W42036  10.200   2.970  15.000
69711W        W42037  38.890   6.956  10.615
69712W        W42038   4.404  32.539  13.952
69713W        W42039  42.401  18.168  11.232
69714W        W42040  18.176   4.461  12.004
69715W        W42041  16.512  39.488   3.140
69716W        W42042  19.449  15.275   2.425
69717W        W42043  43.395   5.217  13.014
69718W        W42044   3.710   1.390  13.299
69719W        W42045  17.282  25.505  14.481
69720W        W42046  22.091   2.865  14.219
69721W        W42047  13.852  32.043   2.703
69722W        W42048  12.217  35.689   0.038
69723W        W42049  32.990   8.814   3.728
69724W        W42050   5.827  16.814   0.508
69725W        W42051  32.154  10.338   3.248
69726W        W42052   7.433  37.890  12.683
69727W        W42053  14.565  17.990  14.965
69728W        W42054  43.220  37.208  14.534
69729W        W42055  10.855  14.106  14.504
69730W        W42056  23.915  26.986  10.800
69731W        W42057  31.487   7.953  13.394
69732W        W42058   0.949  20.878  12.445
69733W        W42059   3.288  15.123   4.207
69734W        W42060   9.737  41.091  11.052
69735W        W42061  27.223  37.009  10.949
69736W        W42062  31.639  11.608  12.729
69737W        W42063  40.882   3.934   1.952
69738W        W42064  27.880  24.062   3.975
69739W        W42065  15.238   9.493   2.316
69740W        W42066  15.150  30.288  12.530
69741W        W42067   8.418  37.909   4.872
69742W        W42068   1.817  16.017  14.712
69743W        W42069   2.856  24.118   5.444
69744W        W42070  44.992  17.709   2.198
69745W        W42071  33.046  15.781  13.353
69746W        W42072  15.816  24.404   2.951
69747W        W42073  20.964  41.249  12.716
69748W        W42074   2.877   4.778  11.015
69749W        W42075   1.735   2.757  12.563
69750W        W42076  43.319   9.099   0.319
69751W        W42077   8.608  38.461  14.750
69752W        W42078  33.575   8.895  10.713
69753W        W42079   6.578  28.546   0.712
69754W        W42080  21.072   0.471  10.469
69755W        W42081  43.379  20.144  13.143
69756W        W42082  36.454  29.752   4.314
69757W        W42083   6.999  43.951  11.615
69758W        W42084  14.322  43.416  11.925
69759W        W42085   1.951   4.233   4.374
69760W        W42086  42.804  25.036  12.228
69761W        W42087  21.437   8.246  11.637
69762W        W42088  30.610  41.255   0.226
69763W        W42089  27.248  41.710   4.740
69764W        W42090   4.263  42.265   1.852
69765W        W42091  25.873  28.400   1.437
69766W        W42092  32.963  43.558  13.546
69767W        W42093  10.211  18.565   3.719
69768W        W42094  29.711   5.435  11.920
69769W        W42095   1.730   5.212   0.702
69770W        W42096   4.921  38.947  11.638
69771W        W42097  19.570   1.487   2.823
69772W        W42098  38.809  44.240  12.549
69773W        W42099  19.404  24.133   3.102
69774W        W42100   2.000   2.990   0.426
69775W        W42101  26.205   5.739   1.872
69776W        W42102  32.790  15.688  14.252
69777W        W42103   0.193   7.439  11.175
69778W        W42104  36.264  35.348   9.802
69779W        W42105  16.071  38.059  11.271
69780W        W42106  44.011   2.272   1.946
69781W        W42107  35.316  23.550  11.031
69782W        W42108  27.213   9.373  14.510
69783W        W42109   5.568  12.792  12.501
69784W        W42110  11.346  31.459  13.908
69785W        W42111   5.520  23.605  12.107
69786W        W42112  42.126   6.148  12.604
69787W        W42113   5.462  44.830  14.463
69788W        W42114  40.151  44.322   2.773
69789W        W42115  37.357  35.167  12.472
69790W        W42116  16.867   6.215   5.050
69791W        W42117  13.795  16.094  13.404
69792W        W42118  14.027  43.029  12.137
69793W        W42119   6.196   6.802   4.694
69794W        W42120  15.077   2.267   3.309
69795W        W42121  11.338   8.416  10.948
69796W        W42122  14.050  22.964   0.706
69797W        W42123   4.853  21.738   3.618
69798W        W42124  37.337   9.859   0.908
69799W        W42125  43.000  10.926   4.132
69800W        W42126  24.404  22.773  12.414
69801W        W42127  18.100  33.802  13.828
69802W        W42128  13.273  28.133  10.311
69803W        W42129  35.152  28.654  11.299
69804W        W42130   4.697  12.203  13.494
69805W        W42131  24.262  37.843   3.323
69806W        W42132   2.369  16.094   3.867
69807W        W42133  14.651   2.672  13.640
69808W        W42134  42.302   4.677  11.224
69809W        W42135  11.861   0.751   0.688
69810W        W42136  17.203  21.039  13.924
69811W        W42137  36.561  26.794   0.312
69812W        W42138  33.147   3.453  11.573
69813W        W42139  15.148  31.595  13.010
69814W        W42140  26.189   1.430   4.474
69815W        W42141   6.797  40.212  13.001
69816W        W42142  38.787   8.775  11.850
69817W        W42143   3.935  20.554  13.889
69818W        W42144  24.045  30.611  14.018
69819W        W42145  11.239  34.437   3.327
69820W        W42146  39.190  25.084   4.392
69821W        W42147   7.341  15.111   3.055
69822W        W42148  27.642  23.963   0.031
69823W        W42149   9.341  27.781  12.824
69824W        W42150  39.940   7.808   1.771
69825W        W42151  37.137  36.294   3.811
69826W        W42152   3.690   2.169   1.305
69827W        W42153   6.869  25.708   3.686
69828W        W42154  36.914  33.325   4.134
69829W        W42155   2.958  44.022   4.938
69830W        W42156  34.361   9.932   2.340
69831W        W42157   7.713  18.550  13.323
69832W        W42158  31.897  33.767   3.417
69833W        W42159  34.138  22.430  11.693
69834W        W42160   2.409  19.598  13.320
69835W        W42161  12.737   3.674   4.463
69836W        W42162   1.773  21.057  13.422
69837W        W42163   4.649   3.508  14.325
69838W        W42164   9.197   1.506   0.341
69839W        W42165  40.009   2.912  13.758
69840W        W42166  38.678  27.596  14.005
69841W        W42167  25.241  38.799   0.353
69842W        W42168  29.459  43.395  12.590
69843W        W42169  11.282  10.108  11.469
69844W        W42170  21.244  25.788   0.078
69845W        W42171  22.994  35.781  10.478
69846W        W42172  26.430   8.821  10.569
69847W        W42173   1.404   6.809  14.224
69848W        W42174  22.696  29.977   0.725
69849W        W42175  19.213  34.371  12.532
69850W        W42176   4.817  35.411   3.896
69851W        W42177  43.499  16.831  12.052
69852W        W42178   8.889  11.212  13.802
69853W        W42179  19.246   1.338   1.596
69854W        W42180  42.187  28.566  11.871
69855W        W42181  39.004  32.707  14.822
69856W        W42182  24.131  21.641   2.468
69857W        W42183  26.255  42.008  14.464
69858W        W42184  14.195  29.407   4.591
69859W        W42185  20.428   0.192  13.379
69860W        W42186  23.042  27.162   3.780
69861W        W42187  27.861   8.662  13.713
69862W        W42188   8.920   7.181   4.580
69863W        W42189  28.726  26.461   4.018
69864W        W42190   5.784  31.420   2.229
69865W        W42191  26.568  14.505   1.945
69866W        W42192  40.988   8.201  11.096
69867W        W42193   7.095  26.044  11.908
69868W        W42194  21.591   7.013   4.244
69869W        W42195   0.078  21.531   4.103
69870W        W42196  44.233  19.116  12.063
69871W        W42197  36.036  14.223   5.089
69872W        W42198  38.505  11.384   2.361
69873W        W42199  41.097  11.294  14.199
69874W        W42200  31.034  43.382  14.438
69875W        W42201  14.740  42.330   1.996
69876W        W42202  21.343  18.053  12.960
69877W        W42203  27.334  19.027   2.343
69878W        W42204  26.115  19.623  11.362
69879W        W42205  33.716  20.585  14.163
69880W        W42206   0.462   6.033   4.490
69881W        W42207  34.398  27.720  13.510
69882W        W42208  10.446  25.215  11.030
69883W        W42209   4.552  16.553   3.231
69884W        W42210  15.511  11.912  11.123
69885W        W42211  35.319  31.321  14.530
69886W        W42212  10.797   4.004   1.821
69887W        W42213  20.084   8.353  11.274
69888W        W42214  33.071  22.402  11.113
69889W        W42215   3.915   1.493   4.551
69890W        W42216  34.402  21.756   4.557
69891W        W42217  25.665  26.561   3.080
69892W        W42218  20.868  30.519   4.567
69893W        W42219  11.807  11.477   5.142
69894W        W42220  14.871  39.503  14.784
69895W        W42221  24.267   9.494  12.397
69896W        W42222  28.681   2.000   1.922
69897W        W42223   3.857  32.975   4.168
69898W        W42224  22.155  16.021   1.928
69899W        W42225  37.345   0.210   3.366
69900W        W42226  10.232  36.908  11.641
69901W        W42227  26.535  15.564   0.695
69902W        W42228  15.170  35.817   2.921
69903W        W42229  24.263   4.787   9.982
69904W        W42230  22.535   8.590   4.075
69905W        W42231  38.081  15.342  12.035
69906W        W42232  44.541  11.811   3.185
69907W        W42233  21.775  21.045  10.948
69908W        W42234  16.355  37.838  13.744
69909W        W42235  17.103  37.977   1.171
69910W        W42236  33.529  23.240   2.292
69911W        W42237  40.436  35.503  11.052
69912W        W42238  23.298  33.343  12.028
69913W        W42239  28.387  26.239   1.770
69914W        W42240   5.084   8.298  14.883
69915W        W42241  37.281  12.712  14.435
69916W        W42242  43.503  31.638  12.516
69917W        W42243  38.803  41.914  11.054
69918W        W42244   3.028  37.539   2.840
69919W        W42245  23.981  42.340  12.890
69920W        W42246  31.639  24.723   0.039
69921W        W42247  19.517  12.309  12.061
69922W        W42248  38.917  23.778  14.737
69923W        W42249  42.723   4.792  13.412
69924W        W42250  30.467  20.204  12.351
69925W        W42251   8.412  13.420   4.743
69926W        W42252  12.531  39.511   1.449
69927W        W42253  21.412  18.784   5.047
69928W        W42254  11.173  21.005  14.396
69929W        W42255  18.557  21.479   4.759
69930W        W42256  20.054   6.833  13.596
69931W        W42257  11.091  43.018   2.862
69932W        W42258  20.544  32.386  11.621
69933W        W42259  39.485   2.581  14.585
69934W        W42260  30.948  21.294  11.602
69935W        W42261   8.289  15.754   3.078
69936W        W42262  13.365  35.409   4.429
69937W        W42263  17.378  30.932  11.063
69938W        W42264   8.857  33.163  10.832
69939W        W42265  19.712  17.488  13.681
69940W        W42266  25.617  24.751  12.477
69941W        W42267  37.873  10.777   3.764
69942W        W42268  19.442  24.121   0.779
69943W        W42269   8.668   1.259  13.800
69944W        W42270  40.688   3.702   3.766
69945W        W42271  21.252  19.457   2.755
69946W        W42272  41.701  40.598   1.644
69947W        W42273  28.514   1.870  13.813
69948W        W42274  30.131  34.595   3.337
69949W        W42275  28.506  40.360   4.592
69950W        W42276  37.522  39.765   1.758
69951W        W42277  43.025  26.561   5.074
69952W        W42278  19.452  27.081   4.115
69953W        W42279  16.818  15.501  13.412
69954W        W42280  33.642   6.804  11.427
69955W        W42281  36.786   9.318   0.694
69956W        W42282   8.694  35.047  12.929
69957W        W42283  10.333  36.293   1.347
69958W        W42284   9.814  22.986   1.738
69959W        W42285  19.605  34.908   1.771
69960W        W42286  28.003   4.000   2.282
69961W        W42287  39.842  20.637  12.478
69962W        W42288  12.906  30.504  11.603
69963W        W42289  14.574  36.543   3.641
69964W        W42290  27.788  26.947   0.040
69965W        W42291  28.484  19.081   1.504
69966W        W42292  34.927  33.891  10.191
69967W        W42293   8.702  25.073  13.054
69968W        W42294   9.128  32.534  14.019
69969W        W42295  43.969  38.850   2.332
69970W        W42296  36.429  27.117   4.476
69971W        W42297  33.716  18.422  14.328
69972W        W42298   3.962   9.698  10.719
69973W        W42299  29.765   4.849  12.508
69974W        W42300  25.965  39.460  10.557
69975W        W42301   6.426  33.560   0.779
69976W        W42302  12.496   6.359  13.306
69977W        W42303  44.182  14.097   2.762
69978W        W42304  15.300   3.468   0.755
69979W        W42305  22.200  29.094  10.709
69980W        W42306  26.571  34.704  12.548
69981W        W42307  13.040  30.071   0.803
69982W        W42308  36.888  35.886   0.343
69983W        W42309  20.674  36.347  14.782
69984W        W42310  41.242   8.608   0.734
69985W        W42311  41.451  32.122   1.885
69986W        W42312  38.049  32.986   2.867
69987W        W42313  38.967  30.417   2.852
69988W        W42314  23.253   4.414  14.925
69989W        W42315  29.693  31.322  14.999
69990W        W42316  14.186   2.508   0.280
69991W        W42317  19.907  16.540  11.604
69992W        W42318  15.786  43.286   0.250
69993W        W42319  14.250   0.410   4.793
69994W        W42320   5.698  42.881  11.526
69995W        W42321   5.922   3.763  11.009
69996W        W42322  32.979  39.537   2.611
69997W        W42323  15.172  41.281  13.080
69998W        W42324  27.417  13.117   2.831
69999W        W42325  23.771  30.858  10.699
70000W        W42326  18.524  40.717   3.623
70001W        W42327  19.170  42.791  11.423
70002W        W42328  17.347   5.272   0.929
70003W        W42329  18.176   7.616  12.030
70004W        W42330  40.476   6.755   1.511
70005W        W42331  16.086  39.822  11.388
70006W        W42332  15.892  34.984   4.581
70007W        W42333  16.042  31.860   1.970
70008W        W42334  43.883   5.589  13.318
70009W        W42335  13.127  11.844  14.909
70010W        W42336   0.465  20.688  12.920
70011W        W42337  29.479  23.700  14.505
70012W        W42338  32.551  24.683  14.321
70013W        W42339  15.004  25.244   9.738
70014W        W42340   9.156  18.755   1.981
70015W        W42341   2.753  14.197   3.725
70016W        W42342  11.079  23.698   3.122
70017W        W42343   8.332  40.919  12.928
70018W        W42344  12.810   5.936  11.496
70019W        W42345  42.363  26.963   2.665
70020W        W42346   2.698  15.076   2.243
70021W        W42347  14.896  37.928  10.706
70022W        W42348   3.891  41.721   3.557
70023W        W42349  42.549   1.282  10.730
70024W        W42350  19.238  42.531  11.892
70025W        W42351  24.158   9.173   3.044
70026W        W42352  17.210  32.031  13.564
70027W        W42353   3.906   0.300   2.201
70028W        W42354  14.014  22.092  10.552
70029W        W42355  43.466  37.037  11.539
70030W        W42356  25.660  43.852   1.670
70031W        W42357  42.111  10.186   0.097
70032W        W42358   8.880  10.887   2.434
70033W        W42359   2.190  34.987  14.088
70034W        W42360  33.141  29.042  12.812
70035W        W42361  24.375  19.855   0.769
70036W        W42362   2.546  40.428   4.648
70037W        W42363  11.262  18.923  11.258
70038W        W42364  28.660   3.893  11.910
70039W        W42365  41.788   2.093  10.704
70040W        W42366  41.437  19.792   3.212
70041W        W42367  31.125  18.323  14.292
70042W        W42368  20.927   1.476   0.547
70043W        W42369  40.334  19.657  14.746
70044W        W42370  30.753  38.924  14.833
70045W        W42371  32.040  20.752  13.209
70046W        W42372  36.321  30.346  13.460
70047W        W42373  40.738  33.483   4.325
70048W        W42374  11.767  10.202  11.349
70049W        W42375  34.054  15.758   4.122
70050W        W42376  11.816  18.068   4.169
70051W        W42377   5.756  22.245  11.898
70052W        W42378  14.548   3.262  10.820
70053W        W42379  26.870  40.755  11.179
70054W        W42380  21.168  22.428   1.359
70055W        W42381   8.599   2.519   4.271
70056W        W42382  23.519  29.398  11.704
70057W        W42383  22.636  31.671   0.500
70058W        W42384  44.863  25.664   3.798
70059W        W42385  21.701  30.337   3.260
70060W        W42386  11.658  22.597   0.440
70061W        W42387  28.603  15.209   4.889
70062W        W42388  16.462  14.520  13.617
70063W        W42389  20.208  26.498   2.813
70064W        W42390   4.314  13.187  14.459
70065W        W42391   3.766  35.078  14.817
70066W        W42392  41.260   5.693   2.642
70067W        W42393  39.276  17.531   4.066
70068W        W42394  37.123  24.170   1.804
70069W        W42395  26.605   0.607  14.800
70070W        W42396  16.138   9.677  13.149
70071W        W42397  23.050  14.220  13.118
70072W        W42398  11.307  15.685  14.752
70073W        W42399  14.999  35.769   9.489
70074W        W42400   8.731  31.859   5.029
70075W        W42401  21.506   4.788  11.129
70076W        W42402  25.577   7.700   5.102
70077W        W42403  21.309   6.288  11.994
70078W        W42404  12.413  31.575  11.582
70079W        W42405   2.772   3.464  12.789
70080W        W42406  44.843  18.246   0.167
70081W        W42407   0.988   8.583   3.692
70082W        W42408   8.912  23.462  13.361
70083W        W42409  30.528  33.842   3.445
70084W        W42410  29.116  25.047   1.417
70085W        W42411  29.597  30.988  12.674
70086W        W42412  39.301  26.672  12.405
70087W        W42413   8.378  41.392   3.854
70088W        W42414  15.510   1.156  14.274
70089W        W42415  34.548   3.577  12.910
70090W        W42416  24.553  33.448  12.215
70091W        W42417  27.082  21.341   1.272
70092W        W42418  15.289  25.112  13.140
70093W        W42419  20.489  26.303   3.191
70094W        W42420  14.006   3.372  10.744
70095W        W42421  24.596  21.708   1.018
70096W        W42422   4.978  25.692  10.607
70097W        W42423  44.448   5.006  14.296
70098W        W42424  20.491  22.747   4.631
70099W        W42425  20.548  10.791   1.664
70100W        W42426  28.250   6.939   2.210
70101W        W42427  27.218   3.432   1.694
70102W        W42428  39.808  19.303   0.311
70103W        W42429  23.918  43.519   0.863
70104W        W42430  14.774  11.904  13.730
70105W        W42431  42.421   1.408   3.714
70106W        W42432   6.153  33.828   1.135
70107W        W42433  21.062  36.610  12.593
70108W        W42434  22.307   1.944   3.594
70109W        W42435  17.487  24.747  14.021
70110W        W42436   3.568  28.896  12.064
70111W        W42437   3.797  36.527  13.361
70112W        W42438  26.501  42.776   1.328
70113W        W42439  44.324   0.925  13.511
70114W        W42440  33.186   4.515   0.835
70115W        W42441  43.347  25.197  11.510
70116W        W42442   6.337   8.335   1.704
70117W        W42443  33.805  31.552   1.026
70118W        W42444  18.188  14.063   3.778
70119W        W42445  21.661  14.135   2.750
70120W        W42446  31.352  38.312  14.357
70121W        W42447  34.006  43.734  11.166
70122W        W42448  20.046  36.351   1.942
70123W        W42449  19.076  37.921  11.195
70124W        W42450  29.707   0.024   0.746
70125W        W42451  18.944  44.947   1.369
70126W        W42452   1.930   0.651  10.607
70127W        W42453  41.817  40.401   3.666
70128W        W42454  24.574  17.973  10.189
70129W        W42455  36.501  44.396  14.643
70130W        W42456  23.358  20.070  13.260
70131W        W42457   7.489  15.832   1.364
70132W        W42458  18.146  11.785   3.878
70133W        W42459  35.475  40.474  13.554
70134W        W42460  35.253  16.038   1.178
70135W        W42461  25.161  33.356   0.237
70136W        W42462  33.385   5.805  13.608
70137W        W42463  44.322   5.614  12.057
70138W        W42464   4.875  15.526  11.406
70139W        W42465  37.298  27.112   4.560
70140W        W42466  35.020  15.900  10.341
70141W        W42467  31.559  30.030  14.097
70142W        W42468   8.591   4.191   3.664
70143W        W42469  38.601   8.930   0.111
70144W        W42470  34.564  43.502  11.432
70145W        W42471  30.113  25.443  11.514
70146W        W42472  29.165  43.116  11.114
70147W        W42473  11.504   9.126  14.790
70148W        W42474   3.328  29.221  13.835
70149W        W42475  32.149  36.981   4.885
70150W        W42476  27.674  16.655   0.796
70151W        W42477  11.802  13.614  14.896
70152W        W42478  32.212   8.674   2.171
70153W        W42479   3.298   2.702  11.306
70154W        W42480  41.828  12.242  12.964
70155W        W42481  24.750  10.777   1.526
70156W        W42482  19.048   5.780  14.784
70157W        W42483  14.231  20.883   5.390
70158W        W42484  13.335  39.040   4.391
70159W        W42485  21.612  41.991   3.343
70160W        W42486  25.111  32.537  12.573
70161W        W42487   9.339   6.855  11.571
70162W        W42488   6.256  13.213   2.262
70163W        W42489  40.766   9.343  12.512
70164W        W42490  10.453  32.853   1.289
70165W        W42491   6.318  30.469  14.487
70166W        W42492  24.572  42.777   4.359
70167W        W42493  24.061  14.985   3.982
70168W        W42494  28.929  44.227   4.147
70169W        W42495  31.491  37.414  11.654
70170W        W42496  22.288  11.902  11.668
70171W        W42497  40.458  11.532  12.175
70172W        W42498  24.128  17.377   1.427
70173W        W42499  25.294  33.822   1.868
70174W        W42500  10.993  15.714   2.399
70175W        W42501   7.402  32.036   1.828
70176W        W42502   1.926  20.988   4.187
70177W        W42503  38.971  29.262  10.012
70178W        W42504   1.396  29.814   3.289
70179W        W42505   2.858  16.216   4.015
70180W        W42506  19.283  34.795  13.421
70181W        W42507  10.697  21.321  14.934
70182W        W42508  38.859  24.228   0.831
70183W        W42509  31.116   8.719  12.962
70184W        W42510  35.794  26.545  12.956
70185W        W42511  25.675   6.252   2.193
70186W        W42512  10.674  16.618   1.800
70187W        W42513  14.685   9.782   4.790
70188W        W42514  10.249   1.768  13.523
70189W        W42515  37.330  19.512   3.097
70190W        W42516  17.536  29.048   0.748
70191W        W42517  39.860  18.668   1.990
70192W        W42518  42.332  27.774  12.438
70193W        W42519  42.328  41.413   0.940
70194W        W42520  42.203  37.954  13.335
70195W        W42521  27.175  15.221   4.115
70196W        W42522   9.631  20.044  12.946
70197W        W42523   3.778  29.294  10.465
70198W        W42524  32.685  13.607   0.954
70199W        W42525  23.708   9.298   3.834
70200W        W42526  31.856  23.686   3.268
70201W        W42527   7.552   9.292   1.959
70202W        W42528  25.534  34.598   2.775
70203W        W42529  26.456  23.194  13.209
70204W        W42530  37.362  38.429  12.978
70205W        W42531  21.061  33.998   0.012
70206W        W42532  17.625  35.960   3.935
70207W        W42533  22.747  22.020  13.391
70208W        W42534   7.456  39.282   2.641
70209W        W42535  14.736  29.350  10.709
70210W        W42536   1.891  29.383   3.866
70211W        W42537  16.601  15.760   4.021
70212W        W42538   5.082  18.189   1.382
70213W        W42539  12.703  34.209  13.404
70214W        W42540  24.135  44.363  12.042
70215W        W42541  22.030   5.754   4.291
70216W        W42542  20.411  31.003   1.699
70217W        W42543   6.314  24.707  12.402
70218W        W42544  16.116  20.569   3.632
70219W        W42545   0.027  13.669   4.610
70220W        W42546  44.713  19.601   4.240
70221W        W42547  27.997   1.977  12.912
70222W        W42548  32.436   7.669   3.336
70223W        W42549  34.362  38.519  13.373
70224W        W42550  44.843  31.649  11.951
70225W        W42551  42.050  32.625   3.194
70226W        W42552  13.777  20.138  11.219
70227W        W42553  27.123   3.501  13.094
70228W        W42554  21.113  10.379  10.202
70229W        W42555   7.151  15.682   0.991
70230W        W42556   4.065  31.491   0.358
70231W        W42557   2.866  39.773  12.037
70232W        W42558  12.369  19.133  12.568
70233W        W42559  28.473  16.943  11.580
70234W        W42560  31.959  34.033  12.414
70235W        W42561  19.257  36.543  12.321
70236W        W42562  15.110  28.545  11.628
70237W        W42563   5.776   9.647   2.807
70238W        W42564  25.095  43.853   3.887
70239W        W42565  43.755   9.849   3.626
70240W        W42566  35.585  14.817  10.699
70241W        W42567  43.593  14.648  14.453
70242W        W42568  41.337   3.263  13.496
70243W        W42569  43.746  25.086  14.320
70244W        W42570   6.166  24.478   3.178
70245W        W42571  19.110  16.463   3.704
70246W        W42572  36.323   2.748   0.959
70247W        W42573   1.013  20.911   4.187
70248W        W42574  35.609  11.669   2.446
70249W        W42575  42.922  27.532   4.585
70250W        W42576  25.857  43.371   1.673
70251W        W42577  30.520  26.998  12.610
70252W        W42578  12.279  35.592  12.982
70253W        W42579   3.893   0.690   1.417
70254W        W42580  33.930  19.997  11.788
70255W        W42581  35.984  43.903  11.015
70256W        W42582  18.776  21.906   2.580
70257W        W42583  41.548   6.763  13.860
70258W        W42584  30.545  12.615  11.917
70259W        W42585  39.239   2.929   2.214
70260W        W42586  18.666  25.799   1.436
70261W        W42587  29.342  18.113   0.933
70262W        W42588  33.143  21.571   1.134
70263W        W42589  43.968  29.506   1.170
70264W        W42590  12.795   2.028   1.851
70265W        W42591  36.848   2.259   4.536
70266W        W42592  36.939   8.684  12.112
70267W        W42593  37.863  36.370  11.457
70268W        W42594   7.854  32.259   1.024
70269W        W42595  42.548  10.394  12.404
70270W        W42596  14.533  28.428   2.811
70271W        W42597  14.321  11.027  13.545
70272W        W42598  40.135   6.619   4.538
70273W        W42599  33.015   2.494  12.308
70274W        W42600  22.064  38.108   4.264
70275W        W42601  43.120   5.265   4.629
70276W        W42602   4.465   9.738  10.557
70277W        W42603   1.926  27.986   2.766
70278W        W42604  25.773   9.773   2.332
70279W        W42605   7.623  40.636  11.611
70280W        W42606   8.927  28.066  10.680
70281W        W42607  33.696  11.626  14.331
70282W        W42608   1.586  36.641  11.121
70283W        W42609  34.144  41.963   1.455
70284W        W42610  21.160  41.904   2.451
70285W        W42611  24.226   3.956   3.414
70286W        W42612  32.094  13.064  11.472
70287W        W42613  29.128  40.320  14.642
70288W        W42614   1.924   9.627   0.868
70289W        W42615   7.976   5.119   0.743
70290W        W42616  25.963  39.036   1.557
70291W        W42617  11.859  37.937  14.854
70292W        W42618  13.100  13.337   2.412
70293W        W42619   8.166  38.984   0.843
70294W        W42620  14.134  24.271  12.383
70295W        W42621  33.966  35.991  14.968
70296W        W42622   7.619   7.274   2.183
70297W        W42623  10.123   2.594  11.125
70298W        W42624  35.132   1.815   0.332
70299W        W42625   9.756  21.450  12.065
70300W        W42626  17.650  34.128  11.278
70301W        W42627  39.765  14.330  11.775
70302W        W42628  36.448  16.275  12.969
70303W        W42629  39.330  27.168   0.330
70304W        W42630  27.589  30.887   4.280
70305W        W42631  14.520   6.782  10.724
70306W        W42632  14.727  23.676   0.732
70307W        W42633  28.879  12.186  13.571
70308W        W42634  44.232  43.794   0.341
70309W        W42635  28.443   0.826   4.425
70310W        W42636   3.399   5.939   5.071
70311W        W42637  31.911  41.863   2.953
70312W        W42638  20.626  38.425   0.367
70313W        W42639  17.517  42.378  14.443
70314W        W42640  42.817  23.161  13.907
70315W        W42641  27.814  21.272   0.321
70316W        W42642  24.293  44.732   2.140
70317W        W42643  35.422  10.254   4.642
70318W        W42644  14.335   6.548  12.008
70319W        W42645  33.885   2.999   2.922
70320W        W42646  25.328  30.965   3.599
70321W        W42647   1.305  11.923  12.374
70322W        W42648  16.128  15.315   3.629
70323W        W42649   2.900  43.901   3.334
70324W        W42650  43.859  31.253  13.478
70325W        W42651  35.349  21.270  14.964
70326W        W42652  44.111  31.844  14.377
70327W        W42653  17.299  34.303   2.711
70328W        W42654   1.325  43.800   0.072
70329W        W42655  44.928  16.465   4.822
70330W        W42656  37.086  13.031   4.541
70331W        W42657  32.615  37.083  14.923
70332W        W42658  33.522   4.924  13.464
70333W        W42659  26.023  26.225   1.303
70334W        W42660  12.111  30.501  12.147
70335W        W42661   9.927  12.197  11.666
70336W        W42662  37.893  21.969  11.152
70337W        W42663  30.048  15.993  10.762
70338W        W42664   1.042  41.944   1.391
70339W        W42665  41.489   2.881  11.619
70340W        W42666  26.086   8.230   3.154
70341W        W42667   3.901  18.710   0.314
70342W        W42668   8.625  41.548  11.210
70343W        W42669  10.872  34.812  12.974
70344W        W42670  23.369   5.400  11.856
70345W        W42671  34.841  34.383   4.167
70346W        W42672  15.086  23.948   4.080
70347W        W42673  39.000  19.792  13.182
70348W        W42674  33.388  31.692  14.491
70349W        W42675  35.479  24.636   0.775
70350W        W42676  43.912  24.012   4.327
70351W        W42677  24.574  37.904   2.400
70352W        W42678  33.957  30.228   3.849
70353W        W42679   1.325  38.969  11.201
70354W        W42680  33.785  38.944  11.894
70355W        W42681  23.014  36.747  12.566
70356W        W42682   6.447   3.677  14.298
70357W        W42683  28.639  27.841   4.966
70358W        W42684   0.816  17.184   2.029
70359W        W42685   4.684  43.737  12.917
70360W        W42686   0.847  15.718   2.260
70361W        W42687  28.588  38.635  12.618
70362W        W42688  23.171  31.374  11.605
70363W        W42689  14.889  39.609  13.466
70364W        W42690   5.392  37.198   0.889
70365W        W42691   4.149  28.106  12.389
70366W        W42692  21.052  34.994  13.960
70367W        W42693  40.259  28.456  11.609
70368W        W42694  31.844   3.452  13.663
70369W        W42695   1.865  27.737   1.827
70370W        W42696  43.734   0.670  13.108
70371W        W42697  12.747   8.397   0.625
70372W        W42698   0.469  23.484   4.449
70373W        W42699  11.123  38.912  12.352
70374W        W42700  33.516  30.902   3.316
70375W        W42701  27.959  29.213   2.371
70376W        W42702  25.619  26.255   4.439
70377W        W42703  10.989  37.519  13.685
70378W        W42704   3.656   9.310  12.985
70379W        W42705   5.292  41.072   0.429
70380W        W42706   4.842   7.986   5.100
70381W        W42707  32.951   4.758  12.654
70382W        W42708   6.688   1.469  10.590
70383W        W42709  44.023  27.878  13.881
70384W        W42710   6.565  23.816  11.058
70385W        W42711   7.938   7.221  12.982
70386W        W42712  40.454  14.123  13.409
70387W        W42713  41.958  44.357  11.946
70388W        W42714  15.092  28.179   1.506
70389W        W42715  44.606  29.462  10.646
70390W        W42716  28.577  39.470   4.485
70391W        W42717  24.020  28.560  14.222
70392W        W42718  38.761  17.525  11.527
70393W        W42719  36.496  35.142   4.062
70394W        W42720   8.404   6.398   1.805
70395W        W42721   0.897  14.920  11.463
70396W        W42722  22.329   9.274   4.738
70397W        W42723   8.710  21.296   0.303
70398W        W42724  32.970  12.590   0.326
70399W        W42725  37.349  24.038   4.470
70400W        W42726   9.213  13.194  10.212
70401W        W42727  16.281  17.688   4.567
70402W        W42728  32.660  27.806   3.677
70403W        W42729  41.717  15.067  11.970
70404W        W42730  18.777  38.989  14.995
70405W        W42731   7.636  39.950  13.579
70406W        W42732  44.080  17.259   4.832
70407W        W42733  21.984  15.058  11.758
70408W        W42734   3.048   6.778   0.671
70409W        W42735  35.537  25.282  11.895
70410W        W42736  34.074  14.145   3.881
70411W        W42737  17.197  28.555  10.853
70412W        W42738  39.268   5.787   3.828
70413W        W42739  33.439  34.709   5.534
70414W        W42740  40.225  34.403   1.411
70415W        W42741  32.916  28.631   1.266
70416W        W42742  22.527   1.675   1.215
70417W        W42743  13.935  13.073  11.588
70418W        W42744  26.446  26.043  13.415
70419W        W42745   6.758  17.207  13.806
70420W        W42746  10.901  10.934  13.269
70421W        W42747  31.710  20.186   0.665
70422W        W42748  35.390  36.363   2.289
70423W        W42749   8.383  32.943  13.070
70424W        W42750  22.059  22.238  13.424
70425W        W42751  41.962  13.779   4.484
70426W        W42752  31.446  20.025  10.862
70427W        W42753  39.551  36.847  12.595
70428W        W42754  28.787  33.591   2.112
70429W        W42755  43.453   0.978   4.640
70430W        W42756  17.650  17.655  13.488
70431W        W42757  28.477  23.968  13.879
70432W        W42758  19.583  10.535   5.091
70433W        W42759  44.782  14.833  10.641
70434W        W42760  44.662  27.074  11.982
70435W        W42761   7.871  29.081  11.234
70436W        W42762  26.468  33.548  14.846
70437W        W42763  17.510  24.847   1.752
70438W        W42764  24.610  30.024  11.359
70439W        W42765  24.184  37.694   0.445
70440W        W42766  34.733  36.371   5.116
70441W        W42767   4.735  14.218   3.169
70442W        W42768  38.880  38.338   2.469
70443W        W42769  15.798   4.042   2.509
70444W        W42770   7.848  20.073   4.070
70445W        W42771   5.253  42.906  14.302
70446W        W42772  39.548  34.086   4.559
70447W        W42773  39.735   6.277   2.404
70448W        W42774   5.191  27.697   2.843
70449W        W42775   2.481  38.384  11.736
70450W        W42776   2.453  40.965   5.140
70451W        W42777  34.663  36.395   1.262
70452W        W42778  26.485  28.180   4.610
70453W        W42779  22.505  33.923  10.598
70454W        W42780  42.734  25.188   3.191
70455W        W42781   8.400  13.236  14.947
70456W        W42782  27.876  28.752   5.068
70457W        W42783   6.841  24.803   1.899
70458W        W42784   3.361  24.018   0.128
70459W        W42785   2.653  20.973  13.478
70460W        W42786  37.139  20.567  13.981
70461W        W42787  18.110  31.348  13.055
70462W        W42788  39.813   4.688  13.106
70463W        W42789   0.058  14.599  13.422
70464W        W42790  14.241  24.995  11.890
70465W        W42791  35.087  13.196   2.650
70466W        W42792   3.238  44.281  11.903
70467W        W42793   1.963  28.177  14.962
70468W        W42794   5.454  41.046  14.307
70469W        W42795   7.386  41.516   1.885
70470W        W42796  38.431  12.782   4.731
70471W        W42797  25.793  11.325   0.457
70472W        W42798  20.171  19.491   1.833
70473W        W42799   0.624  10.804  14.996
70474W        W42800   7.616  22.624  11.597
70475W        W42801  29.566  22.122   3.251
70476W        W42802  11.304  16.059   3.364
70477W        W42803  19.905  11.803  14.181
70478W        W42804  30.132   6.866  13.601
70479W        W42805   1.605  20.290   2.850
70480W        W42806  44.945  13.213   1.326
70481W        W42807  40.984  27.023   4.386
70482W        W42808  17.085   3.450  13.385
70483W        W42809  32.440  28.507   0.402
70484W        W42810  40.293  39.345  13.438
70485W        W42811   3.046   2.330  11.530
70486W        W42812  24.892  27.590   4.331
70487W        W42813  44.729  29.859   1.753
70488W        W42814  32.013   9.201   0.470
70489W        W42815  32.427   0.597   0.763
70490W        W42816  25.513   8.664   1.507
70491W        W42817   0.342   4.545   0.744
70492W        W42818   7.830   1.545  12.887
70493W        W42819   0.700  12.626   3.699
70494W        W42820  18.381  26.130  14.820
70495W        W42821  31.581  19.031  10.691
70496W        W42822  24.085  33.683   4.537
70497W        W42823  39.555  29.671   3.735
70498W        W42824  10.680   2.216   2.165
70499W        W42825  24.545  20.438   4.032
70500W        W42826  21.305  25.670  13.373
70501W        W42827  43.832   9.230  14.391
70502W        W42828  27.663  22.101   0.803
70503W        W42829  13.127   3.726  11.207
70504W        W42830  43.049  20.762  14.253
70505W        W42831  15.267  12.564  11.924
70506W        W42832  10.450   4.748  13.096
70507W        W42833  13.755  18.463  10.672
70508W        W42834  40.533  26.611   0.842
70509W        W42835  31.468   6.803   2.723
70510W        W42836  10.709  34.307  13.902
70511W        W42837  42.430  26.023   0.878
70512W        W42838  10.344   4.454   3.276
70513W        W42839  44.398  11.332  11.488
70514W        W42840  38.222  40.272  14.791
70515W        W42841  15.595   0.480  11.965
70516W        W42842  44.106   9.062   1.800
70517W        W42843  43.102  20.595   1.771
70518W        W42844  32.169  34.972  14.480
70519W        W42845  17.759   6.709   3.786
70520W        W42846  34.285  33.943   2.834
70521W        W42847  12.063  38.089   0.314
70522W        W42848  10.190  42.329   1.506
70523W        W42849  28.688  34.948  11.489
70524W        W42850  41.877  13.326   1.181
70525W        W42851  18.246  44.909  13.851
70526W        W42852   0.751  44.609   0.396
70527W        W42853  19.662  33.579   2.299
70528W        W42854  24.590  13.601   0.430
70529W        W42855  17.020  24.024   1.652
70530W        W42856  32.363  43.196  12.601
70531W        W42857   7.745  42.998  10.137
70532W        W42858  44.495  32.635  14.023
70533W        W42859  28.680  11.262   2.911
70534W        W42860   0.491   2.880   4.649
70535W        W42861   9.282   4.343  10.819
70536W        W42862  15.112   9.345   4.830
70537W        W42863  38.066  28.626   2.454
70538W        W42864  34.602  28.756  13.649
70539W        W42865  35.887  29.554   5.072
70540W        W42866  15.822   2.535   3.228
70541W        W42867  34.372  17.247   0.568
70542W        W42868  26.229   3.420   1.924
70543W        W42869   8.261  15.131   2.154
70544W        W42870  28.642  15.764  13.966
70545W        W42871  36.089   0.966   4.841
70546W        W42872  43.300  29.918  10.950
70547W        W42873  14.614  32.445  10.701
70548W        W42874  29.185  20.166  13.960
70549W        W42875  29.942  39.398  10.969
70550W        W42876  16.048  18.498   1.791
70551W        W42877  25.242  16.718   1.336
70552W        W42878  16.471  35.531  13.309
70553W        W42879  29.355  22.883   0.731
70554W        W42880  15.778   3.948  12.988
70555W        W42881  44.793  11.205   0.766
70556W        W42882  38.957   1.767  14.465
70557W        W42883  28.046  44.719  13.371
70558W        W42884  44.462  11.316   0.276
70559W        W42885   7.222  13.353  11.993
70560W        W42886   4.145   7.331  14.813
70561W        W42887  39.528  11.301  13.062
70562W        W42888  19.067  36.087  12.534
70563W        W42889  24.142   3.450   0.747
70564W        W42890  20.574   3.626   4.349
70565W        W42891  33.340  30.652  14.467
70566W        W42892  37.616  23.244  11.601
70567W        W42893  42.100  25.233  11.207
70568W        W42894   8.719  43.839   0.048
70569W        W42895  22.627  38.325  12.068
70570W        W42896  23.108  14.810   1.379
70571W        W42897  27.057  40.531  11.619
70572W        W42898   2.216   4.692  11.441
70573W        W42899  24.681  29.164   3.570
70574W        W42900  16.322  19.249  12.413
70575W        W42901   3.776  32.305   3.187
70576W        W42902  19.807  14.498   4.528
70577W        W42903  37.854  41.024  10.408
70578W        W42904  25.699  20.103  11.978
70579W        W42905  22.993  22.753   2.701
70580W        W42906  25.523   3.923  14.869
70581W        W42907   8.291  39.370   1.175
70582W        W42908  36.561  31.146   1.269
70583W        W42909  41.895  38.878  14.503
70584W        W42910  38.901  23.722   0.925
70585W        W42911   2.238   7.231   0.247
70586W        W42912  21.982  18.127   2.702
70587W        W42913  27.351  41.409   2.417
70588W        W42914  20.532  36.575   0.215
70589W        W42915   6.920  39.361   1.412
70590W        W42916  33.405  23.774  14.956
70591W        W42917  33.030  37.975   4.795
70592W        W42918  36.636  36.026   0.813
70593W        W42919  44.774  44.828  11.577
70594W        W42920  35.431  27.791  14.964
70595W        W42921  26.455  26.004   4.069
70596W        W42922  35.135  12.951  11.140
70597W        W42923  31.990  33.977  11.886
70598W        W42924  36.728  16.029   5.018
70599W        W42925   1.486  41.441  10.724
70600W        W42926  40.034  23.084   2.660
70601W        W42927  19.761  20.182  14.695
70602W        W42928  11.751  41.859  14.050
70603W        W42929  39.318  12.869  12.574
70604W        W42930  17.188  37.857  11.907
70605W        W42931   9.411  30.256  12.876
70606W        W42932  23.706  10.578  14.896
70607W        W42933  25.070   4.350   4.373
70608W        W42934  18.663  44.255   5.152
70609W        W42935   5.950   2.680  13.599
70610W        W42936  21.019  18.516   1.736
70611W        W42937  37.087   9.259   0.226
70612W        W42938   1.672  36.164  12.068
70613W        W42939  15.493   3.551   3.139
70614W        W42940  14.805   4.904  12.967
70615W        W42941  15.623  23.987   1.932
70616W        W42942  39.859  12.117   1.315
70617W        W42943  24.754  11.165   2.273
70618W        W42944   4.323  16.348  11.305
70619W        W42945  30.704   8.344  14.406
70620W        W42946  16.150  11.231   4.073
70621W        W42947   0.386  43.892  13.355
70622W        W42948  34.868  23.788   0.058
70623W        W42949   1.132   3.272   2.208
70624W        W42950   8.814  22.710  12.457
70625W        W42951   1.447  15.349  10.779
70626W        W42952  18.105  21.113  10.708
70627W        W42953  14.223  31.775   3.592
70628W        W42954  40.047  30.502   3.928
70629W        W42955   3.332   5.628   2.640
70630W        W42956  19.339  23.228   3.636
70631W        W42957  40.543  37.291  11.188
70632W        W42958  31.676  32.064   2.685
70633W        W42959  24.048  18.394   0.296
70634W        W42960  15.546  29.009   4.805
70635W        W42961  34.451  18.832   4.758
70636W        W42962  39.780   5.413  14.618
70637W        W42963  15.790  20.773  11.046
70638W        W42964  37.413  29.267  13.066
70639W        W42965  31.858  42.947   0.230
70640W        W42966   3.261  10.322  11.497
70641W        W42967  34.445  36.770   4.172
70642W        W42968  41.843   3.301  14.317
70643W        W42969  42.375  32.435   2.796
70644W        W42970  18.037  18.542  12.344
70645W        W42971  23.729  14.013   3.819
70646W        W42972  36.077   3.785  13.855
70647W        W42973  44.615  42.373  11.925
70648W        W42974  17.465  35.095  13.036
70649W        W42975  20.553  28.909   0.189
70650W        W42976  24.596  35.582  10.864
70651W        W42977  13.630   5.190  12.140
70652W        W42978  12.724  33.147  14.566
70653W        W42979  34.949  21.785   3.796
70654W        W42980  27.108   7.649  11.387
70655W        W42981   0.791  11.815  12.480
70656W        W42982  32.111  22.043   3.709
70657W        W42983  30.427  17.940  12.496
70658W        W42984   0.693  14.851   3.639
70659W        W42985  29.543   8.584   1.816
70660W        W42986  32.699  23.592  12.090
70661W        W42987  30.642  13.495  13.970
70662W        W42988  27.399  14.745   4.201
70663W        W42989  24.528   9.448   0.850
70664W        W42990  10.617  44.344  13.973
70665W        W42991  19.500  28.386  10.966
70666W        W42992  38.606   1.429  12.212
70667W        W42993  35.518   0.963   0.489
70668W        W42994  21.540  41.847  12.059
70669W        W42995  10.215  19.520   1.369
70670W        W42996  17.635  18.584   4.509
70671W        W42997   2.655  30.152  13.483
70672W        W42998   4.734   3.025  14.496
70673W        W42999  28.274  35.389  10.529
70674W        W43000  27.861  41.691   0.223
70675W        W43001  17.173  10.234   3.076
70676W        W43002   0.583  35.327   0.950
70677W        W43003   2.939  25.008   4.095
70678W        W43004  31.132   3.814   3.352
70679W        W43005  18.345  14.862  13.923
70680W        W43006  16.030  41.244  10.763
70681W        W43007   1.988  23.284   3.672
70682W        W43008  42.122  29.315  11.077
70683W        W43009  21.034   8.810   2.341
70684W        W43010  27.171  39.107   1.296
70685W        W43011   1.445   3.453   0.787
70686W        W43012  24.501  34.986  12.050
70687W        W43013  12.691  10.665  12.622
70688W        W43014  22.246  21.020   4.804
70689W        W43015   4.635  28.594   1.440
70690W        W43016  13.166  33.067  13.041
70691W        W43017  25.123   1.837   4.171
70692W        W43018  11.612   6.904   2.234
70693W        W43019  23.615  19.239   3.131
70694W        W43020  24.451  37.456  13.519
70695W        W43021  23.389  39.913   1.479
70696W        W43022  22.554  15.154  11.612
70697W        W43023  15.309   5.963   4.481
70698W        W43024   9.367   8.379   1.358
70699W        W43025  12.248  20.737   3.397
70700W        W43026  42.951  26.549  12.489
70701W        W43027  20.174  30.859   3.076
70702W        W43028  16.152  27.892  14.834
70703W        W43029   3.272  22.733   4.423
70704W        W43030  26.795  15.520   0.221
70705W        W43031  20.525   4.984   1.427
70706W        W43032  23.070  43.326   1.066
70707W        W43033  40.417  19.757   1.250
70708W        W43034  15.401  28.687  13.517
70709W        W43035   9.837  28.639   1.397
70710W        W43036  17.759  39.784  11.931
70711W        W43037  11.816  41.390   3.744
70712W        W43038  20.434  21.798  12.722
70713W        W43039  24.165  13.279  13.362
70714W        W43040  17.121  36.979  13.314
70715W        W43041  44.299  14.895  13.911
70716W        W43042   0.214  25.511  13.061
70717W        W43043  42.728  24.491  11.183
70718W        W43044  34.591   4.251   3.880
70719W        W43045  15.838   1.403  13.380
70720W        W43046  44.463  29.520  10.142
70721W        W43047  17.659  29.038  11.407
70722W        W43048  32.534   5.532  14.766
70723W        W43049   3.453  30.610  12.622
70724W        W43050   8.670  32.589   2.174
70725W        W43051  31.847  34.089   3.805
70726W        W43052  13.639   0.238   3.753
70727W        W43053  16.142   7.974  11.547
70728W        W43054  31.084  32.987   0.563
70729W        W43055   9.693  26.158   3.739
70730W        W43056  25.561  29.145   2.673
70731W        W43057  42.384   0.563  14.395
70732W        W43058  42.555   6.432  12.707
70733W        W43059   0.417  34.231   1.757
70734W        W43060  40.967  39.606   4.091
70735W        W43061  26.709  43.927  12.435
70736W        W43062  24.489  19.106   4.691
70737W        W43063  15.594  25.008  11.145
70738W        W43064  23.601  14.195  11.011
70739W        W43065  17.347  42.883  14.327
70740W        W43066  33.228  10.912   4.005
70741W        W43067  28.206  17.230   3.717
70742W        W43068  20.763  13.008   4.041
70743W        W43069  17.096  20.031   3.183
70744W        W43070  13.202  14.682   1.894
70745W        W43071  13.030   4.887  14.185
70746W        W43072   3.215   6.995   0.197
70747W        W43073  16.838   6.284  14.558
70748W        W43074  40.455  23.986   1.418
70749W        W43075  15.656  21.223  13.128
70750W        W43076  15.759  18.967   4.603
70751W        W43077  16.192  24.937   0.816
70752W        W43078  12.819  38.251   3.777
70753W        W43079  33.587  35.803   0.445
70754W        W43080  29.201  17.773  12.380
70755W        W43081  43.762  24.638  12.170
70756W        W43082   8.126  31.463  12.075
70757W        W43083  19.912   9.389  12.073
70758W        W43084  24.540  28.310   3.298
70759W        W43085  28.915  26.523   2.258
70760W        W43086  16.660  24.182   3.827
70761W        W43087  20.788  24.283  14.570
70762W        W43088   5.123  17.707   3.735
70763W        W43089  42.248  27.385   2.354
70764W        W43090  35.511  20.355  12.927
70765W        W43091  42.398   4.189   3.296
70766W        W43092  40.626  37.008  14.583
70767W        W43093  22.537  34.813   1.273
70768W        W43094  24.443  43.489   0.839
70769W        W43095  22.327  11.793  14.789
70770W        W43096   5.919  30.973  11.606
70771W        W43097  36.268   9.530  13.943
70772W        W43098  17.160  28.103  11.091
70773W        W43099  10.101  40.883  14.909
70774W        W43100  44.321  38.509  10.174
70775W        W43101   8.117  11.370   4.519
70776W        W43102  22.240   0.543  10.940
70777W        W43103   5.015  16.144   4.501
70778W        W43104   1.918  30.616  12.808
70779W        W43105   1.747   3.682  12.339
70780W        W43106  34.866  32.059   2.774
70781W        W43107  43.197  41.855   1.715
70782W        W43108  33.674  14.409   2.265
70783W        W43109  21.653  19.313   3.066
70784W        W43110   7.594  14.368   1.215
70785W        W43111  23.201  16.652   1.395
70786W        W43112  44.097   7.869  14.311
70787W        W43113  25.429  35.871  12.615
70788W        W43114  23.589  37.918  12.909
70789W        W43115  41.834  44.830  14.424
70790W        W43116  30.225  18.730   4.060
70791W        W43117  27.668  28.938   4.208
70792W        W43118  44.372  13.171   0.104
70793W        W43119  32.333  34.378   3.028
70794W        W43120   9.750   0.379   2.584
70795W        W43121  28.536  33.508   4.294
70796W        W43122  41.897  34.822   2.855
70797W        W43123  26.721  12.111   4.955
70798W        W43124  39.139   4.387   3.278
70799W        W43125   3.472  23.609   1.449
70800W        W43126  21.285  26.671   4.648
70801W        W43127  35.514  15.083   2.802
70802W        W43128  15.127  18.998   3.794
70803W        W43129  22.924  37.996   3.655
70804W        W43130  17.644  31.604  13.061
70805W        W43131  13.357   5.907   0.899
70806W        W43132  11.200  40.483  10.630
70807W        W43133  28.857   5.833  11.169
70808W        W43134  28.469   4.809  11.203
70809W        W43135  30.392  33.485   4.253
70810W        W43136  42.495  19.195  12.929
70811W        W43137   6.254  42.499   3.613
70812W        W43138  16.705  27.804  11.916
70813W        W43139  44.867  12.703   2.716
70814W        W43140   8.274   8.901  11.591
70815W        W43141   7.819  27.197   2.087
70816W        W43142   9.721   7.706  13.391
70817W        W43143  44.000  26.463   0.841
70818W        W43144  38.460  13.847  14.448
70819W        W43145  33.964  35.671  13.311
70820W        W43146  11.349  13.253  13.830
70821W        W43147   9.380  17.122  13.918
70822W        W43148  21.423  14.249  11.157
70823W        W43149  35.671  41.499   2.074
70824W        W43150   7.426  30.416  14.660
70825W        W43151  26.577  40.867   1.921
70826W        W43152   1.455  42.475  12.940
70827W        W43153  27.395  10.800  14.604
70828W        W43154  24.846  12.660   3.137
70829W        W43155  12.750   5.987   1.597
70830W        W43156  30.134  35.893   2.733
70831W        W43157   3.365  25.523  12.060
70832W        W43158  30.803  16.817  13.097
70833W        W43159  38.507  34.102  11.621
70834W        W43160   5.283  36.545  12.078
70835W        W43161   5.256  43.718   1.880
70836W        W43162  20.529  39.149   1.792
70837W        W43163  20.845  28.717  13.438
70838W        W43164  37.836  41.812  14.092
70839W        W43165  42.135  30.628  11.738
70840W        W43166  22.704   9.184  10.715
70841W        W43167  36.851  15.844  13.718
70842W        W43168  20.521   6.706   4.953
70843W        W43169  32.800  11.329   2.738
70844W        W43170  28.549  25.013   3.348
70845W        W43171  33.124  25.150  13.819
70846W        W43172   0.793  24.311  11.637
70847W        W43173  10.957  14.158  12.042
70848W        W43174   6.325  24.472  14.282
70849W        W43175   6.134  42.740   1.849
70850W        W43176  33.931   5.984   3.744
70851W        W43177  31.940   4.888   0.704
70852W        W43178  16.816   2.880  13.840
70853W        W43179  22.536  43.231   1.931
70854W        W43180  13.404   8.220   3.377
70855W        W43181  14.456  11.644   2.835
70856W        W43182  44.437  29.113  11.473
70857W        W43183  22.525  42.858   3.298
70858W        W43184  15.782  26.278  11.470
70859W        W43185  12.964  22.315   2.273
70860W        W43186  36.758   4.334  10.789
70861W        W43187   1.667  30.075   1.305
70862W        W43188   1.719  15.780  11.581
70863W        W43189  17.985  39.188   3.590
70864W        W43190  43.483  39.041  11.595
70865W        W43191  21.030  10.787   1.948
70866W        W43192  36.554  26.146  13.332
70867W        W43193   1.776  30.819   2.587
70868W        W43194  31.634  31.017   3.660
70869W        W43195  18.098  19.708   2.934
70870W        W43196  21.634  25.930   1.240
70871W        W43197  28.246  18.323  10.671
70872W        W43198   4.856  27.678   4.616
70873W        W43199  26.573   1.319  13.267
70874W        W43200  37.372  44.161   3.341
70875W        W43201  15.233  24.970   4.075
70876W        W43202  36.103  13.106   2.805
70877W        W43203  12.605   3.401  13.899
70878W        W43204   2.246  28.381   2.962
70879W        W43205  22.632  40.546   5.306
70880W        W43206  24.456  25.193  14.747
70881W        W43207   0.258  38.318   3.762
70882W        W43208   1.212  38.482  13.427
70883W        W43209  17.779  44.873   2.179
70884W        W43210   5.236  31.431  11.083
70885W        W43211  29.027   4.940  12.090
70886W        W43212  32.881  21.653  12.379
70887W        W43213  34.955   1.015  12.455
70888W        W43214  12.120  41.281  11.121
70889W        W43215  31.521  24.242   1.140
70890W        W43216  22.024  31.198  11.195
70891W        W43217   6.712  35.102  11.462
70892W        W43218  26.940  32.478   1.790
70893W        W43219  19.675   9.927   3.441
70894W        W43220  43.599  18.288  11.947
70895W        W43221  11.903  23.628   5.150
70896W        W43222   4.406  13.660  11.582
70897W        W43223  43.405  36.865  12.506
70898W        W43224  37.643   2.505  10.692
70899W        W43225  16.262  33.712  14.921
70900W        W43226  39.962  36.297   3.229
70901W        W43227  18.980  30.935   2.656
70902W        W43228   6.863  13.815  12.910
70903W        W43229   8.838  24.323   3.780
70904W        W43230  26.399  27.564   3.764
70905W        W43231  39.565   4.510  14.438
70906W        W43232   8.748  33.549  11.585
70907W        W43233  11.565   2.646   2.042
70908W        W43234  37.212   2.465  14.880
70909W        W43235  23.788  22.653  10.520
70910W        W43236  14.214  29.787  11.931
70911W        W43237  21.978  27.024  14.288
70912W        W43238  28.948  33.349  10.062
70913W        W43239  31.754   9.185  14.319
70914W        W43240  27.160   9.785   0.479
70915W        W43241   7.723  27.906   3.101
70916W        W43242  20.929  42.134   4.438
70917W        W43243  41.382  25.091  12.491
70918W        W43244  42.955   2.461   4.584
70919W        W43245  35.461   0.999   2.402
70920W        W43246  37.321  34.674  12.582
70921W        W43247  35.874  22.964   3.165
70922W        W43248   2.041  13.957   3.313
70923W        W43249  15.255  24.538  12.497
70924W        W43250  42.059   6.346  14.488
70925W        W43251  18.987  34.359  13.558
70926W        W43252  34.873  44.909  11.901
70927W        W43253  30.306  11.193  14.470
70928W        W43254  23.074  30.923  11.877
70929W        W43255  21.651   2.310   3.646
70930W        W43256   1.282  27.617   0.441
70931W        W43257   6.437  36.561  12.550
70932W        W43258   4.762   1.126  14.391
70933W        W43259  17.102  28.626  10.328
70934W        W43260  12.754  36.877  10.162
70935W        W43261  10.679  41.152   4.954
70936W        W43262  25.202  31.052  14.433
70937W        W43263  28.584  27.472   2.256
70938W        W43264  34.218  26.847   5.003
70939W        W43265  26.836  13.086   2.812
70940W        W43266  17.509  27.723  11.238
70941W        W43267  13.306   2.354   2.684
70942W        W43268  43.355  34.037  12.425
70943W        W43269  43.058  13.371   2.788
70944W        W43270  29.131  35.180  10.836
70945W        W43271   9.582  40.039  13.817
70946W        W43272  20.090  27.441   0.436
70947W        W43273  42.871  18.720   1.882
70948W        W43274  31.385  32.796   4.709
70949W        W43275  17.614  10.255  14.470
70950W        W43276  13.258  13.804  12.788
70951W        W43277  44.883   5.302  12.763
70952W        W43278  43.869   2.798  11.201
70953W        W43279  22.061  16.475  13.400
70954W        W43280  31.113  14.124  14.415
70955W        W43281  23.417  38.182  10.550
70956W        W43282  17.771   0.049  11.631
70957W        W43283  27.937  25.003   4.907
70958W        W43284  25.737  11.213   3.229
70959W        W43285  27.184   0.823   4.967
70960W        W43286  17.850  24.657  11.956
70961W        W43287  19.705  10.815  13.625
70962W        W43288  12.651   9.260  12.077
70963W        W43289  43.877   5.589  11.048
70964W        W43290   9.711   1.816  13.514
70965W        W43291  27.018  41.516  10.633
70966W        W43292  15.366  29.282   4.096
70967W        W43293  16.584  30.179   1.922
70968W        W43294  40.438  33.238   3.967
70969W        W43295  28.974  23.929  12.933
70970W        W43296  30.513   8.727   0.823
70971W        W43297   5.338  15.870   1.409
70972W        W43298  21.036  34.112   4.601
70973W        W43299  22.499  34.270   2.654
70974W        W43300   1.509  32.460   1.572
70975W        W43301  14.235   9.764  10.655
70976W        W43302  34.941  37.637   2.194
70977W        W43303  40.088  40.222  13.556
70978W        W43304  37.280  44.642   4.621
70979W        W43305  11.054  22.622   0.985
70980W        W43306  21.233  41.947   2.972
70981W        W43307  22.828  18.721  10.798
70982W        W43308  25.773   3.141  12.616
70983W        W43309  10.081  26.574  10.592
70984W        W43310  26.657  16.426   2.172
70985W        W43311  10.798  35.402  13.834
70986W        W43312  30.781  37.550   4.543
70987W        W43313  42.353  23.738  11.477
70988W        W43314   8.523  39.807   4.736
70989W        W43315  10.213  36.566   2.862
70990W        W43316   2.883  18.007   1.588
70991W        W43317  30.961  15.874  12.647
70992W        W43318  35.037  22.968   3.093
70993W        W43319  13.789  32.916  10.828
70994W        W43320  30.263  43.243  14.934
70995W        W43321  29.889   1.209  13.861
70996W        W43322  24.673  38.316   0.800
70997W        W43323  15.830   7.937  12.673
70998W        W43324  38.879  33.627  10.849
70999W        W43325   2.579  37.232   5.084
71000W        W43326  18.098  41.876  10.558
71001W        W43327   2.514  36.339  12.352
71002W        W43328  23.007   4.713   2.689
71003W        W43329  29.844  37.949   2.185
71004W        W43330  39.399   3.420   2.352
71005W        W43331   0.747  12.345   1.952
71006W        W43332  12.583  17.339   3.325
71007W        W43333   8.904   1.353  13.361
71008W        W43334   6.837  40.105   4.058
71009W        W43335  11.360  41.334   2.359
71010W        W43336  29.938  15.600   3.446
71011W        W43337  20.611  38.305  10.190
71012W        W43338  19.588  34.672  14.528
71013W        W43339   0.726  36.664  11.957
71014W        W43340   7.833  16.324   2.702
71015W        W43341  18.526  15.563  11.262
71016W        W43342   6.907   1.221  14.530
71017W        W43343   8.817  31.198   0.995
71018W        W43344  24.400  37.331   0.801
71019W        W43345  41.011  35.267   4.411
71020W        W43346  24.156  44.721  11.565
71021W        W43347   9.715  28.340   2.849
71022W        W43348  15.052  30.073  13.467
71023W        W43349  24.265   5.637   4.103
71024W        W43350  35.155  10.675   2.737
71025W        W43351   9.689  31.865   2.172
71026W        W43352  39.623  11.769  13.349
71027W        W43353  32.287  30.346   3.816
71028W        W43354  12.062  10.423  14.987
71029W        W43355  31.433   3.317  12.927
71030W        W43356  12.208  24.043   2.866
71031W        W43357  32.861  37.045   2.862
71032W        W43358  20.030   0.839   2.691
71033W        W43359  18.799  41.520  11.631
71034W        W43360  18.998  30.472  12.428
71035W        W43361  16.564  37.017  11.598
71036W        W43362  28.978   0.317  10.685
71037W        W43363   5.292  29.186  14.749
71038W        W43364  29.036   6.941  14.135
71039W        W43365  40.951  14.312   3.944
71040W        W43366  29.074  41.456  11.448
71041W        W43367   2.299  29.104   2.382
71042W        W43368  36.442   1.972  11.614
71043W        W43369  24.083  37.852  13.050
71044W        W43370   2.386  20.934  10.360
71045W        W43371  17.525  12.809  13.620
71046W        W43372   2.304   8.442   4.607
71047W        W43373  41.780  38.583  13.789
71048W        W43374  24.244  23.156  14.503
71049W        W43375  18.129  31.834   3.265
71050W        W43376  36.048  15.559  13.169
71051W        W43377  34.573   4.380  11.467
71052W        W43378   8.743  35.557  13.822
71053W        W43379  13.910  18.254   0.849
71054W        W43380  44.360   6.620   3.676
71055W        W43381  39.333  25.486   2.289
71056W        W43382   1.383  43.879  11.365
71057W        W43383   4.512   0.111  11.210
71058W        W43384  38.915  26.363   4.885
71059W        W43385  21.185  35.026   0.330
71060W        W43386   4.301  42.530   1.367
71061W        W43387  44.951  13.187   3.745
71062W        W43388  15.177  29.723  14.320
71063W        W43389  21.440  11.618  13.853
71064W        W43390  42.973  11.262   1.191
71065W        W43391   9.235  15.759   3.546
71066W        W43392  18.132  17.660   4.430
71067W        W43393   0.826  10.109   0.198
71068W        W43394  14.200   3.524   4.249
71069W        W43395  16.077  43.873   4.678
71070W        W43396  17.197   7.970   1.854
71071W        W43397  26.924  26.364   3.657
71072W        W43398  19.100  22.030  12.149
71073W        W43399   3.056  22.939  11.574
71074W        W43400  17.686  27.091   1.147
71075W        W43401   7.052  16.040  12.402
71076W        W43402  40.463  21.799   3.354
71077W        W43403  26.025  10.688  12.530
71078W        W43404  12.889  41.267   3.698
71079W        W43405  22.804  28.317   2.845
71080W        W43406  37.592  11.429  13.958
71081W        W43407  14.663  21.857  13.958
71082W        W43408  19.587  42.849   4.083
71083W        W43409   7.192  12.073   3.175
71084W        W43410  22.056  10.628   1.186
71085W        W43411  43.939  19.178   0.306
71086W        W43412   0.975  17.573   0.316
71087W        W43413  31.582  24.197   2.147
71088W        W43414   7.923  41.809  13.499
71089W        W43415   9.940  34.035  13.381
71090W        W43416  40.556   9.929   1.947
71091W        W43417  26.731  19.664  14.517
71092W        W43418  43.238  38.268   3.720
71093W        W43419  12.879   2.705   0.171
71094W        W43420   0.429  42.364   3.591
71095W        W43421  24.010  13.710  13.098
71096W        W43422   4.267  34.912   3.711
71097W        W43423  17.326  35.589   0.855
71098W        W43424  32.188  24.578   2.010
71099W        W43425  36.815  42.869   3.751
71100W        W43426  11.720  11.045  11.499
71101W        W43427  34.567   6.720  13.854
71102W        W43428   4.734  14.728   3.129
71103W        W43429  14.687  24.945  13.974
71104W        W43430   5.889   9.086   3.735
71105W        W43431  13.709  12.108  10.660
71106W        W43432  41.747  35.995   0.902
71107W        W43433  11.279   7.420   0.162
71108W        W43434  25.670  10.327  13.339
71109W        W43435  43.861  14.394   1.774
71110W        W43436  25.243  28.683   3.139
71111W        W43437  24.724  41.276  14.084
71112W        W43438  12.216  28.683  13.903
71113W        W43439  22.357  38.086  11.383
71114W        W43440  23.521  30.816   0.402
71115W        W43441  27.790  41.988  12.825
71116W        W43442   1.105  44.302  12.556
71117W        W43443  24.943  30.401  11.579
71118W        W43444  19.189  41.841   0.554
71119W        W43445   6.151   1.770   1.989
71120W        W43446   1.222  14.306   3.230
71121W        W43447  12.076   2.531  11.174
71122W        W43448  33.333  30.903   4.214
71123W        W43449  16.363   4.400  14.288
71124W        W43450  12.470  37.997   4.127
71125W        W43451   8.149   9.809  12.381
71126W        W43452  18.539  12.114  12.011
71127W        W43453   0.492  27.517   3.765
71128W        W43454  32.131  34.606   4.289
71129W        W43455   6.198  42.498   4.827
71130W        W43456  27.995  14.736   1.316
71131W        W43457  13.283  17.573   3.388
71132W        W43458  39.930  26.073   4.084
71133W        W43459   8.389  31.675   1.813
71134W        W43460  22.212  40.212   2.212
71135W        W43461   3.434   9.839  14.366
71136W        W43462  22.732   9.279  11.662
71137W        W43463  35.867  15.622  14.598
71138W        W43464  13.774  17.678   3.274
71139W        W43465  25.191   1.979  13.422
71140W        W43466  41.825  28.154   2.064
71141W        W43467  42.995   7.741  13.355
71142W        W43468  16.545  18.341   1.875
71143W        W43469   8.139   5.892  11.744
71144W        W43470  36.139  12.378   1.618
71145W        W43471  16.732  33.110   4.673
71146W        W43472  12.316  41.319  14.765
71147W        W43473  22.128   6.709   0.890
71148W        W43474  39.058  21.645   0.253
71149W        W43475   1.289  38.892  14.375
71150W        W43476  15.080  18.858   1.768
71151W        W43477  39.275  44.884  10.560
71152W        W43478  35.943  18.949  10.757
71153W        W43479  27.077  44.341   3.734
71154W        W43480  25.874   5.192  14.937
71155W        W43481  24.219   7.647  12.891
71156W        W43482  12.845  43.540   3.748
71157W        W43483  31.457  18.148  10.584
71158W        W43484  22.213  44.019  12.122
71159W        W43485  39.737  32.981   0.332
71160W        W43486   5.189  34.098   3.101
71161W        W43487  12.004  12.058   4.192
71162W        W43488  20.714   0.953   2.762
71163W        W43489  21.450  23.123   0.431
71164W        W43490  19.098  13.773   4.069
71165W        W43491  37.467   5.780  13.440
71166W        W43492  25.866  29.733   2.056
71167W        W43493   6.312  29.575  13.029
71168W        W43494   7.640  19.693   4.324
71169W        W43495   8.276  44.432   2.870
71170W        W43496  40.990  13.183   3.713
71171W        W43497  38.104   5.868   4.533
71172W        W43498  34.062   4.291  11.398
71173W        W43499  19.535  20.730   4.127
71174W        W43500   7.992  24.682   3.703
71175W        W43501   2.515  25.160   1.826
71176W        W43502  43.626   6.314  11.221
71177W        W43503  41.606  36.887  12.487
71178W        W43504  26.981  43.373   4.953
71179W        W43505   2.775  24.067  11.015
71180W        W43506  38.405  11.105  13.500
71181W        W43507   6.626  20.201  13.983
71182W        W43508   3.822   0.405   3.126
71183W        W43509   1.489   6.366  11.166
71184W        W43510   2.770  18.926   3.204
71185W        W43511  27.353  11.198   4.146
71186W        W43512  39.363  30.341  13.324
71187W        W43513  30.571   0.343   1.413
71188W        W43514  19.967   2.018   1.166
71189W        W43515  33.125  16.660  11.419
71190W        W43516  12.621  41.772  14.446
71191W        W43517  37.329  44.914  10.418
71192W        W43518  25.049  14.367  14.853
71193W        W43519  38.746  25.536   0.269
71194W        W43520   6.212  31.124   2.326
71195W        W43521  25.450   8.773   2.440
71196W        W43522  25.135  44.448   3.129
71197W        W43523   2.875  16.744   2.284
71198W        W43524   7.209  14.361  11.702
71199W        W43525  31.554  18.619  11.302
71200W        W43526  26.357   2.524   3.708
71201W        W43527  12.564  41.494  12.079
71202W        W43528  36.839  28.563   3.775
71203W        W43529  22.490  31.989   4.465
71204W        W43530   6.463   0.463   1.253
71205W        W43531  23.656  16.111  14.035
71206W        W43532  36.396  10.857   1.239
71207W        W43533  30.408  28.712   2.413
71208W        W43534  17.826  43.825  10.982
71209W        W43535  31.673  42.713   0.907
71210W        W43536  31.207  18.845   3.100
71211W        W43537  44.502  39.938  12.990
71212W        W43538  33.486  28.398   3.634
71213W        W43539  36.790  43.174  12.599
71214W        W43540  12.225   6.730  12.550
71215W        W43541   4.666  19.849  13.968
71216W        W43542   6.842  20.203  10.724
71217W        W43543   1.874  36.626   0.639
71218W        W43544  35.586  44.332  11.926
71219W        W43545  34.165  23.166  10.636
71220W        W43546  34.936  16.304  14.960
71221W        W43547  14.886  21.221  11.206
71222W        W43548  42.906  27.069   1.841
71223W        W43549  21.953  32.460   1.778
71224W        W43550   6.037  17.171  14.327
71225W        W43551   5.265  35.274   0.018
71226W        W43552  22.042  19.670   1.990
71227W        W43553   6.290  27.222  14.900
71228W        W43554  13.836  14.005   0.497
71229W        W43555  41.060  24.148   4.190
71230W        W43556  15.753  28.513   4.702
71231W        W43557  42.370  31.106  12.409
71232W        W43558   5.849  44.434  12.619
71233W        W43559  24.629  32.963  12.010
71234W        W43560   9.847  24.697   4.072
71235W        W43561  44.076  24.450   4.554
71236W        W43562  29.887  30.680  14.275
71237W        W43563  26.001  43.387   4.621
71238W        W43564  27.491  21.045   1.306
71239W        W43565   0.909  24.804  11.590
71240W        W43566   6.849  14.593  11.070
71241W        W43567  40.206  44.268  12.516
71242W        W43568  22.115  41.553   1.736
71243W        W43569  32.045  20.359  13.877
71244W        W43570   2.622  24.429   4.687
71245W        W43571   2.763  27.877  14.417
71246W        W43572  21.355  39.189   4.830
71247W        W43573   5.201  28.063   4.088
71248W        W43574   1.393  33.042   2.757
71249W        W43575  43.321  35.163   2.510
71250W        W43576  34.992  18.283  12.578
71251W        W43577  39.298  27.604  11.508
71252W        W43578   7.920  43.982  13.289
71253W        W43579  43.569  28.893  12.422
71254W        W43580  10.366   6.575  14.860
71255W        W43581  43.410  21.548   1.096
71256W        W43582  31.598   2.723   4.158
71257W        W43583  26.894  32.687  14.032
71258W        W43584  19.714  25.212  14.073
71259W        W43585   0.663  32.947  14.403
71260W        W43586  16.315  42.182   0.304
71261W        W43587  25.035  22.955   0.959
71262W        W43588  42.423  18.817   4.664
71263W        W43589  28.324  35.722  11.794
71264W        W43590  13.762  36.964  12.395
71265W        W43591  38.986  37.909   0.233
71266W        W43592   0.085   3.390   9.956
71267W        W43593  42.142  13.702   3.992
71268W        W43594  30.178  15.655   2.439
71269W        W43595  21.764  18.663  10.598
71270W        W43596   0.216   3.840  14.919
71271W        W43597  19.004  30.212   2.170
71272W        W43598  17.224  14.763  12.412
71273W        W43599  16.146  17.082   1.886
71274W        W43600  37.089   0.666   1.728
71275W        W43601  35.032  42.688  10.230
71276W        W43602  43.572   2.735   2.406
71277W        W43603  39.030  19.639   3.777
71278W        W43604  18.733  30.626  11.108
71279W        W43605   6.772   3.321   3.811
71280W        W43606  30.913  39.674  14.854
71281W        W43607  29.493  29.453   5.112
71282W        W43608   9.722  18.491  13.028
71283W        W43609  44.172  43.450   3.161
71284W        W43610  28.749  42.980  10.350
71285W        W43611  40.430  16.660   0.268
71286W        W43612  21.736   6.210   1.372
71287W        W43613  31.505   9.429   2.755
71288W        W43614  31.674  39.463  13.791
71289W        W43615   4.863  39.645  13.024
71290W        W43616  39.775  16.759   2.859
71291W        W43617  33.835  25.087   0.882
71292W        W43618  39.386  42.788   1.386
71293W        W43619  17.610  28.053   0.674
71294W        W43620  11.273  44.805  14.800
71295W        W43621  43.064  17.286  13.212
71296W        W43622  13.601   5.431  12.579
71297W        W43623  35.994  27.683   0.707
71298W        W43624  34.086  10.750  12.896
71299W        W43625  25.051  11.334   0.906
71300W        W43626   9.870  34.069  11.145
71301W        W43627   1.150  36.781  14.288
71302W        W43628  15.625  19.399   3.389
71303W        W43629  14.516   4.202   0.758
71304W        W43630  28.957   5.161   1.281
71305W        W43631  20.124   5.955  13.411
71306W        W43632  26.944  41.765   1.889
71307W        W43633  32.175  11.228  12.743
71308W        W43634  25.364  17.261   0.312
71309W        W43635  44.674  22.002  13.247
71310W        W43636  34.569  23.953  13.924
71311W        W43637  29.300  16.103  11.190
71312W        W43638  40.579  40.282  13.845
71313W        W43639  36.081  37.137   3.260
71314W        W43640  34.962  10.831   0.419
71315W        W43641  40.609   6.954  10.999
71316W        W43642   6.748  12.835   4.180
71317W        W43643  37.605  31.943  13.374
71318W        W43644  17.616  42.518   3.322
71319W        W43645   7.388   0.948   2.808
71320W        W43646  34.844   4.377  10.515
71321W        W43647  25.752   1.281   1.269
71322W        W43648  11.031   7.270  13.354
71323W        W43649  25.713  15.155  11.406
71324W        W43650  29.204  11.749   0.712
71325W        W43651  19.130  26.019   2.416
71326W        W43652  34.424  29.153  13.379
71327W        W43653  35.489  25.075  12.824
71328W        W43654  35.546  29.523   3.828
71329W        W43655  34.404  31.338   3.249
71330W        W43656  32.500  39.342  13.143
71331W        W43657  30.970  22.062  12.798
71332W        W43658   0.758  33.445   4.555
71333W        W43659   1.301  10.886   5.552
71334W        W43660  31.696  10.164   2.298
71335W        W43661  27.413   8.227  12.967
71336W        W43662  41.153   1.473  12.994
71337W        W43663  19.188   9.165   0.651
71338W        W43664  10.158  23.025   5.023
71339W        W43665  44.928  38.263   0.963
71340W        W43666  12.811  32.559   1.295
71341W        W43667  43.737   1.414   3.139
71342W        W43668  16.377  32.451  12.919
71343W        W43669   7.607   4.690   4.364
71344W        W43670   5.021   9.585  10.991
71345W        W43671  24.209  33.083   0.849
71346W        W43672   6.396   9.241   3.862
71347W        W43673  23.399  40.167  14.616
71348W        W43674  21.039  43.099   4.465
71349W        W43675  43.487  37.860  13.878
71350W        W43676  44.233   4.442   2.316
71351W        W43677   9.852   6.873  14.061
71352W        W43678  29.705   9.096   1.887
71353W        W43679   7.631  20.963   3.733
71354W        W43680  37.939  28.801  10.689
71355W        W43681  16.747  37.896   3.696
71356W        W43682   9.166  33.878   2.866
71357W        W43683  20.778  33.059   0.160
71358W        W43684  20.276   8.790   4.491
71359W        W43685   8.480  11.762  10.827
71360W        W43686  37.346  29.642   2.967
71361W        W43687  28.711  36.299   3.307
71362W        W43688  15.577  12.928  11.212
71363W        W43689  38.777  14.324  12.055
71364W        W43690   0.831   1.971   1.767
71365W        W43691  26.291  17.707   2.410
71366W        W43692  10.282   1.624  12.069
71367W        W43693  23.266  21.034   4.559
71368W        W43694  35.880  25.747  13.874
71369W        W43695   0.617   6.805   3.589
71370W        W43696  26.285  41.817   5.087
71371W        W43697  38.163   6.379   1.968
71372W        W43698  32.083  11.128   1.239
71373W        W43699  15.054   3.990  11.059
71374W        W43700  30.511   4.796  10.642
71375W        W43701  23.030  40.417  11.627
71376W        W43702  18.565  18.713   0.975
71377W        W43703   6.915  35.567   1.597
71378W        W43704   9.880  31.548  12.624
71379W        W43705  35.177  32.450  10.677
71380W        W43706  23.861  32.327   2.300
71381W        W43707   9.390  19.779   4.209
71382W        W43708   3.371   8.016  12.983
71383W        W43709  15.320  17.777  14.732
71384W        W43710  36.339   7.784  13.941
71385W        W43711  16.912  38.112  12.964
71386W        W43712   8.734  31.301   4.110
71387W        W43713  18.526   9.699   1.254
71388W        W43714  37.652  24.047  13.508
71389W        W43715  27.099  38.620   1.892
71390W        W43716   2.276  23.653  13.484
71391W        W43717  28.461  27.111  12.012
71392W        W43718   5.855  12.166   1.531
71393W        W43719  26.197  20.050  14.968
71394W        W43720  17.308  24.112  13.210
71395W        W43721  38.131   0.005   3.682
71396W        W43722   5.870  31.423  10.682
71397W        W43723  19.756  14.649  13.039
71398W        W43724  44.689  18.769   0.396
71399W        W43725  38.488   2.468  13.073
71400W        W43726  28.678   7.842   3.238
71401W        W43727   2.900   4.266   2.846
71402W        W43728  12.768  15.765  14.981
71403W        W43729  12.216   3.849   4.531
71404W        W43730  34.033  34.488   3.679
71405W        W43731  26.001   0.963  12.124
71406W        W43732  24.949  13.237   2.897
71407W        W43733  43.736  38.208  12.540
71408W        W43734  41.411  13.815  14.938
71409W        W43735  44.931  16.140   0.743
71410W        W43736  28.946  32.161   3.311
71411W        W43737   4.049  35.401   1.351
71412W        W43738  24.966  33.066   3.726
71413W        W43739  44.353  41.872  11.202
71414W        W43740  30.920  37.254  14.480
71415W        W43741   6.103  39.348   2.381
71416W        W43742   4.462  38.846   4.085
71417W        W43743  16.505  34.578  12.004
71418W        W43744  37.445  40.491   5.386
71419W        W43745   1.300  42.354   4.343
71420W        W43746  11.384  34.408   0.534
71421W        W43747   1.971  28.954   0.497
71422W        W43748   2.001   7.709  14.366
71423W        W43749  10.249   7.687  14.271
71424W        W43750  35.815  27.123   1.421
71425W        W43751  26.229  33.486  11.555
71426W        W43752  16.130  24.704  11.540
71427W        W43753   5.294  42.463   3.692
71428W        W43754   3.860  27.715  14.441
71429W        W43755  13.171  16.168   2.347
71430W        W43756  14.899   9.373  13.126
71431W        W43757  36.541  12.037  14.133
71432W        W43758  37.336  44.546   1.029
71433W        W43759  42.121  10.845  12.129
71434W        W43760   1.800   6.517  14.047
71435W        W43761  15.185  14.081  11.525
71436W        W43762  29.737  31.050   1.941
71437W        W43763  39.868  34.315   1.842
71438W        W43764  26.676  12.846  12.857
71439W        W43765  20.988   7.764   1.880
71440W        W43766   3.962  12.278   3.830
71441W        W43767  37.490  43.058   4.173
71442W        W43768  21.103  16.935   3.664
71443W        W43769  25.269   8.730  12.545
71444W        W43770   5.175  14.595   3.828
71445W        W43771   4.446  37.995   0.011
71446W        W43772  27.822  40.804  11.847
71447W        W43773  35.460  15.165  13.966
71448W        W43774  34.518  13.564   2.101
71449W        W43775  38.773  34.951  14.541
71450W        W43776  29.041  15.299   2.691
71451W        W43777  37.075  31.519  11.146
71452W        W43778   2.695  30.964   2.782
71453W        W43779  33.048  42.016  13.485
71454W        W43780  29.375   8.205   3.806
71455W        W43781  31.380   0.777  11.039
71456W        W43782  28.063  40.350   4.339
71457W        W43783  29.750  43.045   0.680
71458W        W43784  40.732  30.723  13.023
71459W        W43785  33.843  10.031  12.155
71460W        W43786  25.256   0.928   0.864
71461W        W43787  43.579  12.316   4.406
71462W        W43788   7.976  21.116  12.029
71463W        W43789  11.576  20.730  14.203
71464W        W43790  43.217  27.177   2.235
71465W        W43791   5.823   4.168  11.802
71466W        W43792  38.926   9.245  10.101
71467W        W43793  39.211   1.026  13.854
71468W        W43794  37.402  32.550  12.459
71469W        W43795  34.671  13.840  10.724
71470W        W43796   8.685  34.377  13.266
71471W        W43797  18.683  28.953  12.007
71472W        W43798  31.517  17.102   2.179
71473W        W43799  32.480  35.333  13.325
71474W        W43800  36.959   1.362   1.455
71475W        W43801  36.259  12.292   2.952
71476W        W43802  29.199   8.300  11.695
71477W        W43803  39.416  18.108   0.232
71478W        W43804  22.565  20.272  14.035
71479W        W43805   3.845  16.629  14.796
71480W        W43806  21.856  21.728   4.860
71481W        W43807  31.588  31.440   3.379
71482W        W43808  25.539  16.363   4.732
71483W        W43809  34.070   5.333  14.876
71484W        W43810  10.730  37.966  13.467
71485W        W43811  35.652  22.235  12.903
71486W        W43812  32.156  12.045  11.186
71487W        W43813  27.465  40.343  12.639
71488W        W43814  20.955  41.866   1.962
71489W        W43815  33.921  20.979  11.605
71490W        W43816  12.416  23.980   0.456
71491W        W43817  23.121  22.061   3.263
71492W        W43818  39.957  41.029   4.091
71493W        W43819  16.831  40.878   3.398
71494W        W43820  18.462   4.299   3.735
71495W        W43821  42.963  35.673   3.284
71496W        W43822  24.038  10.187   4.494
71497W        W43823  36.614  26.561   4.204
71498W        W43824  15.547  17.268  11.961
71499W        W43825  43.825  21.387   4.661
71500W        W43826  21.975  42.908  11.347
71501W        W43827  13.995  28.958  13.547
71502W        W43828  20.672  11.316   0.433
71503W        W43829   2.049  26.085   2.333
71504W        W43830  10.820  31.369  11.634
71505W        W43831   6.277  10.746   3.207
71506W        W43832  23.547  33.245   1.422
71507W        W43833   4.610   5.495  12.915
71508W        W43834  25.070  34.226  11.928
71509W        W43835  20.077   3.382   0.114
71510W        W43836  25.735  23.498   1.924
71511W        W43837  34.615   6.784  12.025
71512W        W43838   6.709   1.143   0.914
71513W        W43839  10.442  32.570   2.761
71514W        W43840  39.485  26.780  11.157
71515W        W43841  10.323  15.237   1.664
71516W        W43842  30.347  32.516   3.685
71517W        W43843   6.148   2.225   2.271
71518W        W43844   7.782  21.332  14.292
71519W        W43845  18.616  29.521   5.045
71520W        W43846   2.230  17.112  11.667
71521W        W43847  13.875  41.858  12.002
71522W        W43848   9.856  34.896   2.130
71523W        W43849   6.774   3.478   3.324
71524W        W43850  14.115  27.534   1.068
71525W        W43851  25.112  36.463   3.933
71526W        W43852  34.657  44.462   0.412
71527W        W43853   9.730  37.458  11.670
71528W        W43854  28.542  40.418   4.088
71529W        W43855  33.199   3.397  12.523
71530W        W43856  22.197  42.468   3.421
71531W        W43857  41.530  39.956   3.702
71532W        W43858  39.792  22.620   4.356
71533W        W43859  31.176  35.525   1.925
71534W        W43860  32.675  14.149   2.404
71535W        W43861   3.777  43.315   1.057
71536W        W43862   9.483  42.796   0.432
71537W        W43863  44.930  28.602   1.158
71538W        W43864  39.876  18.848   0.557
71539W        W43865  36.088  28.811  10.595
71540W        W43866   0.443  19.264   1.969
71541W        W43867  11.179  22.154  11.026
71542W        W43868  37.019   2.913   0.925
71543W        W43869  29.188  37.300   4.324
71544W        W43870  18.091  18.064  12.492
71545W        W43871  44.360  25.303   3.639
71546W        W43872  22.578  41.506   1.470
71547W        W43873  24.634  12.139   1.239
71548W        W43874  26.406  31.615  10.787
71549W        W43875  39.904  13.364  11.085
71550W        W43876  38.479   9.206   2.368
71551W        W43877  17.932  12.494  13.444
71552W        W43878  26.956   2.242  13.519
71553W        W43879  28.536   2.146   3.278
71554W        W43880  39.658   5.305  13.075
71555W        W43881  42.015  30.559   0.783
71556W        W43882   2.495  10.730  14.729
71557W        W43883  18.859  36.410   3.759
71558W        W43884  33.419  44.421  11.575
71559W        W43885  19.036  20.081   4.620
71560W        W43886  44.072  15.334   2.138
71561W        W43887  21.292  42.910   5.261
71562W        W43888  43.565  29.493   2.898
71563W        W43889   6.968   5.273   2.755
71564W        W43890  41.207  36.679   3.816
71565W        W43891  16.268  16.269   0.421
71566W        W43892   9.891   2.464   1.720
71567W        W43893   9.897   8.169  13.530
71568W        W43894  23.167  36.372  14.388
71569W        W43895  19.629  12.147   1.345
71570W        W43896  10.856   4.762   2.294
71571W        W43897  39.493   5.008   3.599
71572W        W43898  43.334  16.602   3.369
71573W        W43899  37.110   0.766  12.889
71574W        W43900  34.360  44.842  13.674
71575W        W43901  11.085  41.870  14.868
71576W        W43902   5.287  41.987   4.495
71577W        W43903  13.825  25.262   1.808
71578W        W43904  31.458  35.304   0.760
71579W        W43905  34.903  21.580  10.669
71580W        W43906   6.122  19.299  13.112
71581W        W43907  40.062   8.545  13.029
71582W        W43908  39.404  27.432  12.721
71583W        W43909  17.149   9.632   1.277
71584W        W43910  18.139  31.929  13.671
71585W        W43911  42.126  14.529   3.329
71586W        W43912  14.560  18.167   4.632
71587W        W43913  18.647  31.716  10.936
71588W        W43914  43.015  35.954   2.848
71589W        W43915  28.963   3.486  13.544
71590W        W43916  31.993  43.479   4.388
71591W        W43917  18.767  20.184  11.639
71592W        W43918  37.106  13.126   3.670
71593W        W43919  18.021  19.034  12.458
71594W        W43920   7.933  13.131   4.191
71595W        W43921   1.373   8.351  14.439
71596W        W43922   1.735  13.615   4.043
71597W        W43923  23.070  44.966   2.286
71598W        W43924  17.311   1.913   5.031
71599W        W43925  37.634  27.079   3.720
71600W        W43926  38.975   8.202  11.775
71601W        W43927  19.788  15.155  12.869
71602W        W43928  14.658  28.527   0.427
71603W        W43929   4.206   2.395   4.634
71604W        W43930  20.760  16.096   0.263
71605W        W43931  15.015  35.569  11.182
71606W        W43932  19.528  38.941   1.860
71607W        W43933  36.341  43.925  14.259
71608W        W43934  24.723  33.716   0.794
71609W        W43935   4.166  24.259  12.497
71610W        W43936  24.419  19.137  12.832
71611W        W43937  13.694  18.742   4.681
71612W        W43938  40.803  13.575  13.942
71613W        W43939   1.120   7.426   1.423
71614W        W43940  23.989  27.192  14.313
71615W        W43941  12.331  42.063   1.733
71616W        W43942  41.347  25.016  10.496
71617W        W43943  34.449  26.583   1.969
71618W        W43944   8.412   3.006   2.208
71619W        W43945  39.445  38.604  14.528
71620W        W43946  32.524  34.852  11.847
71621W        W43947  28.396  26.675   3.645
71622W        W43948  44.290   5.495  14.497
71623W        W43949  36.383  26.606   4.657
71624W        W43950  43.268  30.063  11.441
71625W        W43951  32.233   9.396  14.307
71626W        W43952  23.536  43.663  11.712
71627W        W43953  13.372   8.729  11.891
71628W        W43954  25.911  35.506   4.192
71629W        W43955   5.283  41.949   3.587
71630W        W43956   1.053  44.550   1.246
71631W        W43957   3.237  14.336   4.646
71632W        W43958  23.002  32.731  14.733
71633W        W43959   2.870   3.971   1.785
71634W        W43960  19.868  32.788  14.053
71635W        W43961  29.599  20.428  11.295
71636W        W43962  13.311  22.026  14.411
71637W        W43963  41.345  21.208  13.066
71638W        W43964  13.238  17.878   5.089
71639W        W43965  37.859   2.587  11.709
71640W        W43966   0.423  44.447   3.572
71641W        W43967  33.268  27.010   4.686
71642W        W43968  39.518  38.227  14.172
71643W        W43969  22.058  19.790  12.311
71644W        W43970  19.506   1.291   3.912
71645W        W43971  37.669  32.964   4.258
71646W        W43972   2.956  18.092  12.493
71647W        W43973  11.416  18.589  11.620
71648W        W43974  40.953   8.486  10.674
71649W        W43975  38.608  29.893  12.934
71650W        W43976  13.678  22.626   0.898
71651W        W43977  21.608  37.386   0.781
71652W        W43978  40.985  17.096  11.624
71653W        W43979  27.688  29.485   4.873
71654W        W43980  29.441   6.841  12.925
71655W        W43981  29.912  22.794   2.849
71656W        W43982  18.120  37.855  11.408
71657W        W43983  28.698  42.988   0.339
71658W        W43984  39.205  44.322  11.255
71659W        W43985  18.608   5.330  14.216
71660W        W43986   2.437  40.244  14.812
71661W        W43987   0.304  20.704  10.751
71662W        W43988  28.918  22.640  12.483
71663W        W43989  28.882   5.810   1.920
71664W        W43990   7.310  12.324   1.293
71665W        W43991   8.390  37.544   4.242
71666W        W43992  44.203   9.842  11.566
71667W        W43993  18.677  18.253   4.796
71668W        W43994  25.308  34.506  11.569
71669W        W43995  23.060  38.439  11.788
71670W        W43996  34.526   8.787  10.721
71671W        W43997  19.701  13.324  11.196
71672W        W43998  12.835  18.482   0.297
71673W        W43999  23.643  22.239  12.820
71674W        W44000  32.869  18.050  13.262
71675W        W44001   2.874  20.542   4.600
71676W        W44002   6.819  10.064  11.987
71677W        W44003  27.696  25.029  14.467
71678W        W44004   2.149  18.090  13.608
71679W        W44005   3.498  14.297   0.488
71680W        W44006  37.944  25.491  13.898
71681W        W44007  34.686  26.360   2.397
71682W        W44008  32.277  14.924   4.337
71683W        W44009  33.587  14.670   0.276
71684W        W44010   9.770  40.973  13.010
71685W        W44011   0.898   8.424  11.662
71686W        W44012  41.449  39.857   0.859
71687W        W44013  15.273  16.727   1.977
71688W        W44014  33.801  30.390  14.547
71689W        W44015  27.189  38.257   4.409
71690W        W44016  11.646  36.552  12.509
71691W        W44017  29.814  34.527   3.882
71692W        W44018  44.914  32.048   2.150
71693W        W44019  14.364  41.809  11.124
71694W        W44020  41.467  11.673  13.531
71695W        W44021  27.967  25.134  10.622
71696W        W44022  15.049   3.866   2.205
71697W        W44023  31.562  35.770   1.655
71698W        W44024   7.288   7.744  13.888
71699W        W44025   8.841  28.988   2.300
71700W        W44026  36.862   5.529  13.870
71701W        W44027   0.372  32.634   2.799
71702W        W44028   6.177  16.607   4.206
71703W        W44029  21.730  15.502   2.918
71704W        W44030  42.727   1.865   3.730
71705W        W44031  33.647  16.087   0.257
71706W        W44032  30.525  16.032   4.257
71707W        W44033   7.929  28.067  10.693
71708W        W44034  37.303  18.060   4.340
71709W        W44035  33.882  42.000  12.064
71710W        W44036  25.198  27.676   1.722
71711W        W44037  13.666   6.389   3.259
71712W        W44038  20.391  42.285  14.509
71713W        W44039  41.050   5.109  11.398
71714W        W44040  14.693   7.286  10.781
71715W        W44041  20.162   7.812   4.722
71716W        W44042  39.378  32.560   2.558
71717W        W44043  29.731  22.039  13.494
71718W        W44044   0.247   7.181   3.363
71719W        W44045  21.065  43.609   4.622
71720W        W44046   7.764  23.543  12.108
71721W        W44047  39.486  10.671  11.940
71722W        W44048  23.499  18.260   0.733
71723W        W44049  40.328  24.386  13.969
71724W        W44050  10.279  44.383  14.573
71725W        W44051   0.567   7.611   3.205
71726W        W44052  34.423  21.985   1.515
71727W        W44053   7.087  11.668   2.854
71728W        W44054   7.385  43.875  13.621
71729W        W44055   3.873  13.421  13.975
71730W        W44056  24.991   4.231  10.392
71731W        W44057  40.531  40.275  10.828
71732W        W44058   6.209   0.079   1.513
71733W        W44059  37.960  42.715  14.882
71734W        W44060  33.451  12.616   2.140
71735W        W44061  27.512   8.647  13.277
71736W        W44062  34.094  16.191   4.431
71737W        W44063  37.815  34.137  13.934
71738W        W44064   3.891  18.206   0.442
71739W        W44065   7.119  22.444  14.802
71740W        W44066  36.629  36.354   0.394
71741W        W44067   5.804  12.043   2.029
71742W        W44068  27.731   0.501  13.351
71743W        W44069   4.867  31.400   2.443
71744W        W44070  34.022  17.731  14.457
71745W        W44071  13.114  36.851  11.476
71746W        W44072  27.613  27.156   0.888
71747W        W44073  41.109  22.263  12.470
71748W        W44074   3.365  20.593   3.874
71749W        W44075  15.711  40.789  12.357
71750W        W44076  29.736  23.091  12.577
71751W        W44077  26.976   4.064  14.083
71752W        W44078   4.366   9.986   4.659
71753W        W44079  19.318  37.516   3.285
71754W        W44080  44.729  29.165   0.902
71755W        W44081  13.250  16.533   4.898
71756W        W44082   6.443  14.877  12.773
71757W        W44083  20.227  42.844  13.060
71758W        W44084  33.678  39.508  14.011
71759W        W44085   5.142   7.286   3.134
71760W        W44086  31.487  10.633  11.682
71761W        W44087  39.891   4.323  14.961
71762W        W44088  24.780  30.360   1.435
71763W        W44089  38.266  15.847  13.949
71764W        W44090  30.889   0.331  14.875
71765W        W44091  27.489   4.814   0.353
71766W        W44092  44.189  31.221   0.884
71767W        W44093  27.923  10.379  14.077
71768W        W44094   4.787  13.082  13.841
71769W        W44095  34.817  44.859  13.445
71770W        W44096  35.560  32.221  14.437
71771W        W44097  40.337  25.782  11.415
71772W        W44098  23.862  28.414   0.540
71773W        W44099  34.536   6.689   1.134
71774W        W44100  23.777  16.962  13.100
71775W        W44101  40.488   3.131  13.912
71776W        W44102  29.717  21.092  13.961
71777W        W44103  16.714  36.970   3.412
71778W        W44104   8.280  25.518   2.090
71779W        W44105  32.988  22.435  12.499
71780W        W44106  34.103   3.154   1.715
71781W        W44107  15.581  26.148   4.621
71782W        W44108   1.814  20.114  13.782
71783W        W44109  37.056  36.841   3.243
71784W        W44110   4.025   8.111   3.242
71785W        W44111  15.249  41.542   2.682
71786W        W44112  44.688  40.048   0.390
71787W        W44113   1.400  44.209   3.704
71788W        W44114  22.710  43.561   4.382
71789W        W44115  13.701  14.917   0.811
71790W        W44116  21.582   9.425  12.451
71791W        W44117  33.707  15.183   0.244
71792W        W44118   5.160  24.409  10.602
71793W        W44119  28.085  21.570  13.423
71794W        W44120   1.582  20.578  14.457
71795W        W44121  24.736  21.036  13.282
71796W        W44122   9.701  15.643   0.510
71797W        W44123   0.797  26.924   1.745
71798W        W44124  25.045  41.083  10.557
71799W        W44125   9.920  30.948  13.909
71800W        W44126  19.769  11.873  12.468
71801W        W44127  32.037  39.443  13.397
71802W        W44128  12.808   1.288  14.233
71803W        W44129   6.101  40.727  11.154
71804W        W44130  33.365  11.611  13.022
71805W        W44131  43.521  11.350  13.930
71806W        W44132  19.277  29.600  13.097
71807W        W44133   0.260  43.805   0.306
71808W        W44134   5.155  28.429  12.448
71809W        W44135   8.561  17.808  11.216
71810W        W44136  23.625  32.470   0.999
71811W        W44137  28.417  26.620  11.634
71812W        W44138  19.167  21.131  10.589
71813W        W44139   8.429  17.599   3.063
71814W        W44140   2.824  13.682   3.605
71815W        W44141  24.228  44.297   2.426
71816W        W44142  43.351   6.637   4.550
71817W        W44143  25.658   3.920  10.380
71818W        W44144   1.867  15.904  11.041
71819W        W44145  27.072  22.078  12.203
71820W        W44146  36.856  44.782  12.565
71821W        W44147  22.918  27.967  13.827
71822W        W44148  15.531  43.919   3.616
71823W        W44149  41.618   3.725  13.520
71824W        W44150  32.891   5.969  11.059
71825W        W44151  24.407  36.438   1.022
71826W        W44152  30.725  12.645   3.728
71827W        W44153   6.264   5.971  12.854
71828W        W44154  37.626  32.027  11.586
71829W        W44155   7.121   4.443  14.245
71830W        W44156  38.980  20.723   3.423
71831W        W44157  32.576  35.839  11.566
71832W        W44158  24.192  27.710  12.087
71833W        W44159  40.858  22.879  12.808
71834W        W44160  15.305  42.965  14.082
71835W        W44161  13.327  44.515  14.403
71836W        W44162  41.038   4.982   0.540
71837W        W44163  19.178  24.447   1.084
71838W        W44164  43.009   6.165   0.358
71839W        W44165  38.033   6.181   0.834
71840W        W44166   7.439  40.635  12.455
71841W        W44167   7.968   0.391  11.284
71842W        W44168   9.822   6.383   2.111
71843W        W44169  21.512  32.126  13.819
71844W        W44170  24.271  42.983  10.658
71845W        W44171  31.554  25.507  11.979
71846W        W44172  13.565  24.385   5.404
71847W        W44173  17.083  12.677  10.557
71848W        W44174  44.178  41.575   4.808
71849W        W44175  34.141  10.598   1.759
71850W        W44176  36.366  40.572   3.643
71851W        W44177  36.928  24.777  12.638
71852W        W44178  17.012  41.544   1.906
71853W        W44179  15.125  43.413  11.384
71854W        W44180  37.080  38.912   2.868
71855W        W44181   2.025  18.453  12.402
71856W        W44182  14.055  28.601   2.901
71857W        W44183  17.280  22.281   1.442
71858W        W44184  24.839  20.182  12.289
71859W        W44185  27.639  21.160  13.963
71860W        W44186   3.087  37.006  13.542
71861W        W44187  35.472   0.254   1.160
71862W        W44188  34.840  15.715  11.612
71863W        W44189  27.022   1.976  13.985
71864W        W44190  28.618   9.772   3.701
71865W        W44191  36.074   3.790   2.651
71866W        W44192  33.661  39.332  13.419
71867W        W44193  10.500   1.669   0.050
71868W        W44194  20.065  23.001  14.826
71869W        W44195  26.219  44.448   3.921
71870W        W44196  44.355  31.036  11.249
71871W        W44197  18.309   1.473   3.188
71872W        W44198   2.978  44.304   2.602
71873W        W44199  38.439  39.340  11.650
71874W        W44200  23.018  11.778   0.376
71875W        W44201  13.772  14.470  10.457
71876W        W44202  11.765  13.091  10.862
71877W        W44203  34.761  42.925   3.353
71878W        W44204   3.226   8.494   4.093
71879W        W44205  38.952  38.868  14.291
71880W        W44206  11.653  40.481   1.319
71881W        W44207  37.380  29.685  11.217
71882W        W44208  39.106  21.660   4.550
71883W        W44209  26.439   7.768  14.605
71884W        W44210  31.557  25.527   1.807
71885W        W44211   1.369   9.310  12.494
71886W        W44212   8.380  11.153  12.541
71887W        W44213  25.219  37.807   3.095
71888W        W44214  44.425  24.718   0.368
71889W        W44215   8.202  23.122   0.625
71890W        W44216  29.416  30.940   4.249
71891W        W44217  32.036  25.342   3.832
71892W        W44218  10.782  40.195   1.808
71893W        W44219  17.159   3.481   0.910
71894W        W44220  41.261   2.300  12.560
71895W        W44221  22.704  36.447   3.802
71896W        W44222   8.153  25.032   0.920
71897W        W44223  30.077  20.353  11.108
71898W        W44224  42.492  15.690   1.299
71899W        W44225   9.419  22.071   2.258
71900W        W44226   0.992  37.012  13.197
71901W        W44227  21.765  27.936   1.425
71902W        W44228  17.821  29.208   0.331
71903W        W44229  17.777  38.021   2.399
71904W        W44230  15.587   6.637  14.312
71905W        W44231  11.400   1.374   3.353
71906W        W44232  38.340  40.050  14.331
71907W        W44233  37.507  27.506  10.418
71908W        W44234  44.264  27.620  10.190
71909W        W44235   3.929  35.897  14.527
71910W        W44236  36.453  24.575   3.697
71911W        W44237   3.511   1.852   4.577
71912W        W44238  11.778  27.061   4.567
71913W        W44239  15.055  30.679  12.877
71914W        W44240  36.838  35.533   4.097
71915W        W44241  11.306  41.002  13.041
71916W        W44242  17.313  25.205   1.428
71917W        W44243  40.387   5.648   2.817
71918W        W44244  29.802  44.372   5.196
71919W        W44245  41.052  11.047  10.688
71920W        W44246   2.012  39.288   4.142
71921W        W44247  40.216   7.935  13.874
71922W        W44248  11.356  33.049   0.352
71923W        W44249  12.188   5.405  12.194
71924W        W44250  28.409  15.669   4.081
71925W        W44251  13.556  40.276   2.740
71926W        W44252   3.735  19.263  11.118
71927W        W44253   1.822   7.885  14.839
71928W        W44254  43.428  10.816   0.777
71929W        W44255  13.785   5.626  14.841
71930W        W44256  28.657  36.521   4.619
71931W        W44257  27.208  16.782  14.347
71932W        W44258   3.147  15.764   4.631
71933W        W44259  28.950  23.662   1.432
71934W        W44260  42.463  32.189   3.254
71935W        W44261  20.882  31.976  11.680
71936W        W44262   9.905  32.869   4.514
71937W        W44263  43.843   8.781   1.206
71938W        W44264  28.201  20.752  12.565
71939W        W44265  11.756   2.004  14.548
71940W        W44266   3.442  34.410  10.693
71941W        W44267  18.086  36.390  11.120
71942W        W44268  43.706  23.481   2.986
71943W        W44269  36.854   4.525  14.034
71944W        W44270  41.810  37.442   4.029
71945W        W44271  17.955  44.337   0.416
71946W        W44272   9.929  37.611  11.212
71947W        W44273  26.166  25.078  13.416
71948W        W44274  19.965  41.830  14.032
71949W        W44275   3.152  35.028  14.020
71950W        W44276  31.484  37.378   2.660
71951W        W44277   8.632  29.002  13.904
71952W        W44278   2.000  43.815   3.228
71953W        W44279   5.674  41.045  11.256
71954W        W44280   8.241  37.499  14.865
71955W        W44281   4.474  33.195   4.785
71956W        W44282  44.152  15.283  13.563
71957W        W44283  40.715   7.444   2.719
71958W        W44284  17.829  31.435   0.455
71959W        W44285  26.912   1.866   2.713
71960W        W44286   3.259  26.680   2.394
71961W        W44287  34.342  19.765   2.387
71962W        W44288  11.793   2.663  10.753
71963W        W44289  29.720  29.106   3.656
71964W        W44290  37.941   3.965   0.249
71965W        W44291  42.480   1.827   4.548
71966W        W44292  11.798  39.350  10.503
71967W        W44293  33.039  34.349  12.794
71968W        W44294  31.679   8.637  13.010
71969W        W44295  44.694  14.896   0.423
71970W        W44296  10.863   5.526   4.104
71971W        W44297  17.798  30.566   0.370
71972W        W44298   6.207  15.653   2.759
71973W        W44299  38.892  36.295  12.674
71974W        W44300  23.682  18.050  12.933
71975W        W44301  38.215   3.814  14.385
71976W        W44302  42.659  35.923   0.997
71977W        W44303  24.974  19.516  12.444
71978W        W44304  38.350   0.865  10.266
71979W        W44305  43.846  14.177  10.458
71980W        W44306  21.308  42.393  13.496
71981W        W44307  43.545  25.559   2.254
71982W        W44308  29.529   9.686  11.445
71983W        W44309  41.468  37.591   0.290
71984W        W44310  10.038  43.840  10.723
71985W        W44311  39.935  17.162  12.555
71986W        W44312   5.457  28.480  14.196
71987W        W44313  11.597  40.371   4.672
71988W        W44314  16.172  11.843  13.931
71989W        W44315  36.295  41.349   5.082
71990W        W44316   5.357  14.204   4.360
71991W        W44317  34.090  33.014   1.449
71992W        W44318  36.056  10.128   2.717
71993W        W44319   1.027  12.788   4.687
71994W        W44320  16.078  36.541  10.527
71995W        W44321  15.174  33.912   4.360
71996W        W44322  24.773  38.090   4.535
71997W        W44323  43.411  14.066  10.738
71998W        W44324   7.289  43.757  10.618
71999W        W44325  24.305  22.210  11.667
72000W        W44326  41.464   9.426  12.784
72001W        W44327  42.391  23.112  10.337
72002W        W44328  32.445  10.182  13.978
72003W        W44329  28.679  39.919  12.618
72004W        W44330   0.955  10.934  14.255
72005W        W44331   5.960  32.551   1.621
72006W        W44332  25.653   5.488   2.716
72007W        W44333  13.105  43.492  12.904
72008W        W44334  29.002  33.259   2.446
72009W        W44335  37.419  11.729  14.827
72010W        W44336  12.081  20.644  12.556
72011W        W44337  16.635   9.612  10.903
72012W        W44338  26.886  43.237  12.573
72013W        W44339  44.319   8.054   5.003
72014W        W44340  10.052  23.682   0.273
72015W        W44341  18.292  24.211   0.022
72016W        W44342   3.567  26.415   4.604
72017W        W44343  19.456   3.765   2.862
72018W        W44344  25.103  11.210   3.852
72019W        W44345  44.550  23.645   0.425
72020W        W44346  17.481   7.344  12.245
72021W        W44347  39.336  12.560   2.820
72022W        W44348  16.815  42.996  13.773
72023W        W44349  12.178  23.341  10.683
72024W        W44350   5.245  25.772  12.871
72025W        W44351  36.497  16.717   2.349
72026W        W44352  27.684   6.127  11.030
72027W        W44353  10.393  33.020   4.665
72028W        W44354  13.051  43.285   0.754
72029W        W44355  21.000  16.717  12.397
72030W        W44356  42.961  42.331   1.721
72031W        W44357  41.642  13.593   3.915
72032W        W44358   3.692  16.021  13.012
72033W        W44359  38.444   7.729  10.453
72034W        W44360  42.000   2.966  11.486
72035W        W44361  13.825   2.712  14.993
72036W        W44362  31.119   0.711   2.183
72037W        W44363  16.301  31.949   5.113
72038W        W44364  13.899  15.941   0.698
72039W        W44365  11.630  16.668   2.891
72040W        W44366  37.456   8.275  11.926
72041W        W44367  15.605   0.923  12.403
72042W        W44368  13.071  42.982   1.195
72043W        W44369  28.907   2.654   3.884
72044W        W44370  19.796  43.285   1.200
72045W        W44371   7.343  22.992   1.862
72046W        W44372   2.751   4.479  12.434
72047W        W44373   7.978   6.896   4.341
72048W        W44374   9.585  15.564   4.528
72049W        W44375  12.340  43.485   0.548
72050W        W44376  38.289  28.224  14.938
72051W        W44377  33.360  23.297   3.257
72052W        W44378  13.259  12.274   2.378
72053W        W44379  13.236  40.819  11.083
72054W        W44380   4.660  13.113  12.348
72055W        W44381   2.213  27.604   0.454
72056W        W44382  39.850  36.988  12.981
72057W        W44383  17.062  26.937  11.188
72058W        W44384  41.942  32.641   4.739
72059W        W44385  34.519   6.983   3.688
72060W        W44386  15.847  40.752  11.553
72061W        W44387   0.527  27.019  13.698
72062W        W44388  10.353  37.640  10.686
72063W        W44389  18.294  37.597  12.941
72064W        W44390  14.086  27.165  13.837
72065W        W44391  42.817  15.155  14.789
72066W        W44392  41.136  31.987   4.478
72067W        W44393  11.371  29.594  12.667
72068W        W44394  30.382  15.513   0.870
72069W        W44395  28.750  14.080   4.335
72070W        W44396  27.759  35.405  11.005
72071W        W44397  27.329  39.290  12.962
72072W        W44398   5.115  27.259  14.103
72073W        W44399  32.948  12.757  12.633
72074W        W44400  19.967   4.485  14.089
72075W        W44401  26.041  44.871   0.404
72076W        W44402  17.095  13.737   1.470
72077W        W44403   5.844  20.445  11.360
72078W        W44404   2.303  26.552  12.654
72079W        W44405  12.836  25.711   4.906
72080W        W44406  25.602  10.220  10.348
72081W        W44407  33.035  11.907   3.416
72082W        W44408  32.975  41.963  10.698
72083W        W44409   9.280  27.211   0.873
72084W        W44410  23.674  26.638   2.504
72085W        W44411  12.984  10.265  14.312
72086W        W44412  21.034  23.476   2.180
72087W        W44413   0.504  17.744   2.151
72088W        W44414   2.330   6.833   3.626
72089W        W44415  24.061  28.401   1.017
72090W        W44416  42.191  12.782  13.317
72091W        W44417  34.352  42.079   0.720
72092W        W44418  35.255  28.109  12.471
72093W        W44419  33.565  36.489  12.423
72094W        W44420   8.586   2.348  12.279
72095W        W44421   1.464  24.714   3.260
72096W        W44422  33.084   1.453   2.234
72097W        W44423  26.720  40.005   2.218
72098W        W44424  13.841  37.981   0.724
72099W        W44425  19.874  36.882  14.755
72100W        W44426  14.831  33.019  14.251
72101W        W44427  34.001  39.798   3.685
72102W        W44428  43.414   3.726  11.142
72103W        W44429  32.127  10.365  11.578
72104W        W44430  37.528  11.298  14.492
72105W        W44431  35.094   2.289  11.557
72106W        W44432  39.757  37.353   1.100
72107W        W44433  11.602  39.840   2.796
72108W        W44434   0.437  32.909  14.879
72109W        W44435  41.699  36.477   4.924
72110W        W44436   2.721  44.237  11.931
72111W        W44437   1.727   5.337   3.451
72112W        W44438  30.794   9.239   0.193
72113W        W44439  11.459  43.873   4.095
72114W        W44440  13.453   4.426  13.062
72115W        W44441  33.148  33.410  12.316
72116W        W44442  30.573   8.736  10.820
72117W        W44443  15.254  44.445   2.113
72118W        W44444  10.126   7.414   2.082
72119W        W44445  39.488  25.135   1.101
72120W        W44446   8.514  35.796  14.837
72121W        W44447  15.159   6.827  14.044
72122W        W44448  40.001   1.306  14.821
72123W        W44449   7.385  24.622  11.577
72124W        W44450  23.191  20.471  12.930
72125W        W44451  41.928  35.977  12.120
72126W        W44452  19.331  43.352   1.744
72127W        W44453  34.021  22.475   3.193
72128W        W44454   0.983   7.723  13.434
72129W        W44455  14.688   3.034  14.545
72130W        W44456  19.647  21.994  13.811
72131W        W44457  21.988  29.439  13.848
72132W        W44458  12.771  18.768  12.006
72133W        W44459  39.946  26.995  13.160
72134W        W44460  28.156  25.947   1.176
72135W        W44461  39.900  30.895  13.870
72136W        W44462  34.684  31.846   4.544
72137W        W44463  11.551  34.359   4.268
72138W        W44464  14.867  36.934   3.456
72139W        W44465   3.846   8.291   4.093
72140W        W44466  22.613  35.782   1.315
72141W        W44467   2.463  12.652  10.317
72142W        W44468   4.435  43.537  13.383
72143W        W44469  15.638   5.910  14.932
72144W        W44470   3.736   3.485   0.295
72145W        W44471  29.306  36.951  12.416
72146W        W44472  15.699  11.064  11.821
72147W        W44473   3.009  30.554   3.891
72148W        W44474  25.401  37.497   2.732
72149W        W44475  33.961  30.132  14.126
72150W        W44476   0.456   8.655   2.235
72151W        W44477  16.126   7.331  12.097
72152W        W44478  23.291  16.804  12.893
72153W        W44479  44.899  11.401  11.364
72154W        W44480  21.813  25.912  11.133
72155W        W44481   3.149   2.508   2.849
72156W        W44482  40.497  39.288   2.772
72157W        W44483  18.222  11.741   1.608
72158W        W44484  28.258   8.805   2.279
72159W        W44485  28.634  15.410   1.850
72160W        W44486  22.260  44.252  10.738
72161W        W44487  13.598  37.059   5.009
72162W        W44488   5.907   8.787  12.055
72163W        W44489   5.443  39.432   2.948
72164W        W44490  25.038  31.399  13.889
72165W        W44491   6.450  23.164   1.230
72166W        W44492  17.223   7.274  14.849
72167W        W44493  21.266  19.033  13.028
72168W        W44494  18.200  37.506   4.226
72169W        W44495  35.527  17.592  11.683
72170W        W44496   4.369  33.674   4.563
72171W        W44497  39.849   3.659   0.358
72172W        W44498   7.138  44.515   1.281
72173W        W44499  33.530   4.406   4.589
72174W        W44500  16.147  20.637   2.595
72175W        W44501  18.127   7.632  12.889
72176W        W44502  42.585  12.536   0.272
72177W        W44503   7.173  25.868  13.654
72178W        W44504  11.920   4.449   1.882
72179W        W44505  23.111  34.492   4.586
72180W        W44506  33.533  18.661   3.244
72181W        W44507  41.264  25.964   1.358
72182W        W44508  13.158  26.981   0.350
72183W        W44509  28.470  43.403   2.847
72184W        W44510  20.454  42.933  11.763
72185W        W44511   9.811  38.053  12.145
72186W        W44512  22.658  42.476  10.928
72187W        W44513  24.131  26.646   4.179
72188W        W44514  40.331   8.293   3.243
72189W        W44515  30.649  15.620   0.436
72190W        W44516  26.469  19.582  13.921
72191W        W44517  25.285  21.037   0.674
72192W        W44518  44.460  26.114  10.280
72193W        W44519   3.640  11.985  12.039
72194W        W44520  18.607  40.574   4.716
72195W        W44521  34.586  31.602   2.842
72196W        W44522  30.684  31.332   0.389
72197W        W44523  22.028  41.303  13.279
72198W        W44524  37.016  12.808  11.547
72199W        W44525  13.116  26.132   4.181
72200W        W44526  33.873  42.752  13.870
72201W        W44527  39.966  18.058   2.638
72202W        W44528  42.184  19.235   1.721
72203W        W44529  33.543  17.921  14.364
72204W        W44530  14.660   5.709  14.770
72205W        W44531  35.300  14.252   3.276
72206W        W44532   9.718  34.140   0.138
72207W        W44533  25.522  20.144  12.801
72208W        W44534  19.105  29.073  12.309
72209W        W44535   0.014   3.185  10.756
72210W        W44536  42.931  36.967  13.883
72211W        W44537  13.837  20.674   0.307
72212W        W44538  29.747  23.413   1.789
72213W        W44539   0.818  30.561  11.976
72214W        W44540   3.172  24.646  12.964
72215W        W44541  43.982  34.621  11.451
72216W        W44542  27.271  11.886  13.176
72217W        W44543  35.919  11.128   1.824
72218W        W44544  17.850  42.742  14.575
72219W        W44545  18.061   0.477   4.741
72220W        W44546  12.148  13.376   3.279
72221W        W44547  32.953  20.183   2.877
72222W        W44548  21.135  44.145  14.078
72223W        W44549  32.084  33.331  11.073
72224W        W44550  30.104  43.887   4.426
72225W        W44551  19.603  27.217  11.555
72226W        W44552  42.577  43.767  11.474
72227W        W44553   8.501  42.967  12.551
72228W        W44554   7.654  25.454   3.336
72229W        W44555  42.800  16.133   1.160
72230W        W44556  24.269  12.587   0.936
72231W        W44557  41.479   6.882  11.201
72232W        W44558  10.267   3.000  13.883
72233W        W44559   4.366  22.480  10.211
72234W        W44560  31.421  24.939   0.441
72235W        W44561  13.298  39.994  10.712
72236W        W44562   0.460   2.431   0.965
72237W        W44563  39.013  38.342   1.913
72238W        W44564  27.823  11.670   0.850
72239W        W44565   0.137  28.044  11.027
72240W        W44566  33.477  10.889  11.890
72241W        W44567  17.963   0.841  13.897
72242W        W44568  26.023   8.825   3.720
72243W        W44569  27.150   8.637   3.841
72244W        W44570  12.421  10.373   4.200
72245W        W44571   6.145   6.420  12.123
72246W        W44572  42.255  38.171  12.435
72247W        W44573   8.661  33.571  13.580
72248W        W44574  24.223   3.903  10.541
72249W        W44575   7.652  25.558  14.899
72250W        W44576  16.332  13.801   0.631
72251W        W44577  26.729   7.960  11.249
72252W        W44578   7.652  19.929   1.270
72253W        W44579   1.634   2.008   2.188
72254W        W44580   2.903  26.327   5.330
72255W        W44581  38.107   7.376   4.069
72256W        W44582  36.596   1.443   1.852
72257W        W44583  31.448  11.787   0.696
72258W        W44584   1.825  34.613   4.145
72259W        W44585  14.367  35.413  12.881
72260W        W44586  18.803  34.004   2.420
72261W        W44587  22.146  18.676   4.957
72262W        W44588  30.697  33.340   0.472
72263W        W44589   4.379  27.945   0.956
72264W        W44590  42.799  15.694   0.881
72265W        W44591  18.597  27.680   3.219
72266W        W44592  11.743  24.257  14.785
72267W        W44593  44.384  30.427   0.452
72268W        W44594  21.834  23.510  14.747
72269W        W44595  17.271  25.212   5.084
72270W        W44596   8.300  11.199   1.873
72271W        W44597  14.348  13.842   0.366
72272W        W44598  30.985  12.175  12.821
72273W        W44599  18.059  14.883  11.494
72274W        W44600  15.861   1.708  12.927
72275W        W44601  42.578   2.817   1.690
72276W        W44602  16.018  22.662   1.019
72277W        W44603   4.130  13.214  11.523
72278W        W44604   0.518  39.758   2.903
72279W        W44605   7.384  27.065   0.374
72280W        W44606   8.410  30.582   1.484
72281W        W44607   8.854  34.422   4.702
72282W        W44608  17.126  39.216  12.050
72283W        W44609  38.572   8.438  10.556
72284W        W44610  33.383  22.928   1.826
72285W        W44611  40.737   3.386   3.232
72286W        W44612  41.814   8.807   2.562
72287W        W44613  24.740  10.413   3.794
72288W        W44614  36.167   7.329  12.869
72289W        W44615  16.601  21.979  12.006
72290W        W44616  39.973   3.702   1.822
72291W        W44617  25.031  39.523  12.837
72292W        W44618  26.028   9.279   3.355
72293W        W44619  27.811  38.610  12.035
72294W        W44620  21.438   3.732   3.730
72295W        W44621   0.932  13.108   3.578
72296W        W44622  14.631   7.461   1.936
72297W        W44623  43.547   5.338   1.278
72298W        W44624  36.400   7.767   1.540
72299W        W44625  28.482   4.515   2.883
72300W        W44626  44.456  14.194   4.171
72301W        W44627  19.163  11.626  11.674
72302W        W44628  32.618  44.842  14.597
72303W        W44629  23.010  43.463   1.917
72304W        W44630   5.746  41.077   0.673
72305W        W44631  13.704  11.166   3.237
72306W        W44632   1.470  41.860  13.568
72307W        W44633  27.954  34.304   2.934
72308W        W44634  28.858  13.316  14.791
72309W        W44635  19.987  15.188   0.706
72310W        W44636  13.714  20.844  14.840
72311W        W44637  37.151  32.102  12.442
72312W        W44638  18.672  28.224  11.300
72313W        W44639  18.299  17.836  12.094
72314W        W44640   6.208  19.327   3.071
72315W        W44641   5.343   3.742  11.795
72316W        W44642   9.358   0.265  11.075
72317W        W44643  16.739  28.769   2.321
72318W        W44644   5.236  44.933  14.914
72319W        W44645  34.044  33.232  10.226
72320W        W44646  11.798  28.877   3.314
72321W        W44647   9.879  23.999  13.321
72322W        W44648   2.927  13.839   4.077
72323W        W44649   8.174  26.675  13.933
72324W        W44650   0.513  10.637  13.960
72325W        W44651  19.668  38.414   0.738
72326W        W44652  34.271  22.023  12.585
72327W        W44653  28.888  18.657  13.025
72328W        W44654  16.852  43.794   0.781
72329W        W44655   0.548  30.831  12.948
72330W        W44656  17.360   9.418  12.455
72331W        W44657  32.919  32.604  14.370
72332W        W44658  29.512  40.392   3.606
72333W        W44659  40.839  38.917   4.681
72334W        W44660  12.320  14.133  12.609
72335W        W44661  32.172  11.425  13.275
72336W        W44662   0.289  17.124   1.366
72337W        W44663   8.666  20.136   1.477
72338W        W44664  41.842  26.996  11.547
72339W        W44665   6.567  17.222  14.273
72340W        W44666  33.400  37.429   2.321
72341W        W44667  20.126  20.325   1.442
72342W        W44668  15.662  10.978   1.275
72343W        W44669  17.045  31.653  13.891
72344W        W44670  15.649  40.749   0.346
72345W        W44671  23.709  23.922   4.176
72346W        W44672   3.887   4.945  11.965
72347W        W44673   0.458  15.136   2.822
72348W        W44674  11.976  26.167  10.884
72349W        W44675  36.479  23.748  11.173
72350W        W44676  29.475  23.047  13.901
72351W        W44677  28.493  28.135   1.443
72352W        W44678  43.824   7.396  13.043
72353W        W44679  41.165  14.275  12.772
72354W        W44680  13.267  33.077   1.825
72355W        W44681  19.189  41.045  12.445
72356W        W44682  20.193  12.608  12.539
72357W        W44683  44.473  23.140  14.988
72358W        W44684  43.317   1.398   2.347
72359W        W44685  40.203  35.948  11.066
72360W        W44686  23.674  29.320   0.260
72361W        W44687  27.980   9.194   3.899
72362W        W44688  19.263  17.330  13.406
72363W        W44689  37.470  36.051  11.257
72364W        W44690  12.379  30.001  12.372
72365W        W44691  33.640  12.403  13.464
72366W        W44692  15.534  36.066  11.595
72367W        W44693  35.908  19.286  11.149
72368W        W44694  16.293  38.932   3.156
72369W        W44695   2.449  22.207  14.512
72370W        W44696  11.879  15.170   0.736
72371W        W44697  20.512  36.513  14.325
72372W        W44698  18.282  44.966  11.612
72373W        W44699  25.532  24.716  10.686
72374W        W44700  21.346   9.887   1.256
72375W        W44701  29.594  32.302  10.558
72376W        W44702  21.653  28.475   2.089
72377W        W44703  38.648   7.468  12.896
72378W        W44704  31.549  27.222   3.215
72379W        W44705  25.876  41.028  12.001
72380W        W44706   1.392  41.030   2.403
72381W        W44707  15.948  27.497   0.817
72382W        W44708  40.974  23.049   4.294
72383W        W44709  24.100   7.133   3.186
72384W        W44710  21.372  30.525   4.452
72385W        W44711  43.257  33.631  14.806
72386W        W44712  15.076   3.345  14.406
72387W        W44713  36.290   6.245  14.206
72388W        W44714  44.465   5.679   0.870
72389W        W44715  39.111  41.830  14.807
72390W        W44716  11.603  44.455  10.780
72391W        W44717  24.935  34.745  11.803
72392W        W44718  42.874  37.007   4.494
72393W        W44719   2.872  17.045  14.847
72394W        W44720  31.110   0.811   0.741
72395W        W44721  29.439  37.679   4.547
72396W        W44722  13.738  29.928  13.576
72397W        W44723  13.740  36.528  10.220
72398W        W44724  20.638  24.706  11.630
72399W        W44725  41.081  29.545   3.685
72400W        W44726  37.828  15.313   3.606
72401W        W44727  28.881   8.335  13.862
72402W        W44728  42.717  35.545   2.800
72403W        W44729  26.930  29.821  11.413
72404W        W44730  37.769  18.406  11.493
72405W        W44731  32.818  33.575  11.936
72406W        W44732  12.216   8.933   1.903
72407W        W44733  40.451  44.329   0.190
72408W        W44734  36.816  27.516  12.001
72409W        W44735  35.078  37.417  11.551
72410W        W44736  39.518   0.614  13.946
72411W        W44737   1.697  43.785   2.293
72412W        W44738  39.564  28.515   0.789
72413W        W44739  22.483  36.163  11.656
72414W        W44740  32.403   4.178   0.078
72415W        W44741  40.731   9.106  11.211
72416W        W44742  41.358   4.633   2.747
72417W        W44743  29.114  24.697  14.946
72418W        W44744  30.385  15.505  11.462
72419W        W44745  40.609  36.487   0.004
72420W        W44746  43.348  14.703  11.412
72421W        W44747   5.939   1.703   3.746
72422W        W44748  37.235  32.978   3.388
72423W        W44749  37.032   8.831  10.148
72424W        W44750  14.652  32.882  10.992
72425W        W44751  32.944  32.921  10.836
72426W        W44752  27.196  37.308   4.208
72427W        W44753   2.335  18.136   0.937
72428W        W44754  28.154  17.571  13.813
72429W        W44755  10.797  39.126   1.670
72430W        W44756  23.713  24.226   3.310
72431W        W44757  16.070  43.924  12.415
72432W        W44758  16.678   4.097   1.304
72433W        W44759  19.231  30.888  14.455
72434W        W44760  40.990   8.172  12.783
72435W        W44761   4.697  11.176  12.499
72436W        W44762  38.006  21.565  13.752
72437W        W44763  17.839  26.041  13.946
72438W        W44764  15.343  10.550  11.304
72439W        W44765  10.637  40.803   3.875
72440W        W44766  26.872  43.537  13.907
72441W        W44767  16.595  35.865   0.906
72442W        W44768  14.819   7.082   2.239
72443W        W44769  21.153  42.390   3.226
72444W        W44770  37.384  44.658  12.467
72445W        W44771  29.276  21.688   3.290
72446W        W44772   9.930  10.835   1.231
72447W        W44773  39.847  15.325   4.557
72448W        W44774  19.033  26.654  11.677
72449W        W44775   5.744   5.847  10.796
72450W        W44776   8.959  27.079   2.777
72451W        W44777  41.036  30.448   3.814
72452W        W44778  34.629  23.156  14.423
72453W        W44779  16.586  25.569  13.861
72454W        W44780  32.667   6.301  13.868
72455W        W44781  27.583  36.969   1.924
72456W        W44782  13.729  16.035   1.630
72457W        W44783   8.609  39.541  12.468
72458W        W44784  11.754   8.796  11.162
72459W        W44785   2.621   8.984  14.567
72460W        W44786  37.546   8.257   2.165
72461W        W44787  11.378   4.709  14.804
72462W        W44788  29.584  21.549   4.623
72463W        W44789  28.063   8.062   1.869
72464W        W44790   9.162  33.883  13.976
72465W        W44791  23.140  33.414  10.596
72466W        W44792  42.380  10.756  12.964
72467W        W44793  26.614  41.366   1.717
72468W        W44794  17.793  22.604   4.289
72469W        W44795  15.638  18.815   3.642
72470W        W44796  41.396  16.288   1.807
72471W        W44797  24.720   6.766   2.369
72472W        W44798  18.798   0.471  14.350
72473W        W44799  43.900   4.404  13.404
72474W        W44800  19.094  24.561  11.370
72475W        W44801  27.689  23.735  13.048
72476W        W44802  20.362  38.991   4.594
72477W        W44803  21.703  41.080   3.317
72478W        W44804  14.844  27.590   4.466
72479W        W44805  27.560   8.851  14.851
72480W        W44806   6.339   1.334  11.234
72481W        W44807  37.346   5.393  13.972
72482W        W44808  32.437   3.073   0.995
72483W        W44809   2.987  11.293   3.662
72484W        W44810  41.293   9.858   0.049
72485W        W44811  28.585  42.384   0.454
72486W        W44812  20.619  41.431   1.814
72487W        W44813  30.906  33.599   4.259
72488W        W44814  26.568  24.637   4.417
72489W        W44815  22.599  27.004  13.623
72490W        W44816   7.766  26.090   2.187
72491W        W44817   5.638  28.591   3.572
72492W        W44818  14.838  10.682  12.914
72493W        W44819  35.020  27.773   4.670
72494W        W44820  16.710  25.261  13.436
72495W        W44821  33.415  35.430   4.367
72496W        W44822  22.581  42.774  13.952
72497W        W44823  38.881  15.386  14.808
72498W        W44824  36.003  27.538   4.340
72499W        W44825  31.655  36.560   0.450
72500W        W44826  26.085  36.121  10.353
72501W        W44827  34.137   6.231  13.310
72502W        W44828  25.538  35.877  11.669
72503W        W44829  28.640  26.973  10.971
72504W        W44830  23.893  42.824   3.212
72505W        W44831  29.026  27.108   2.989
72506W        W44832  34.596  12.739  11.661
72507W        W44833  35.482  37.178  12.562
72508W        W44834   6.754  16.463  12.497
72509W        W44835  28.937  33.038   4.707
72510W        W44836  44.166   4.783   3.234
72511W        W44837  19.017   3.222  11.812
72512W        W44838  10.054  17.158   2.321
72513W        W44839   0.461   1.652   2.698
72514W        W44840  19.678   9.334  11.619
72515W        W44841  12.674  24.697  12.876
72516W        W44842   3.879  35.903   1.332
72517W        W44843  35.591  19.683   4.759
72518W        W44844   2.425  34.663   2.691
72519W        W44845   8.814  17.815   1.619
72520W        W44846  34.413   0.459   2.075
72521W        W44847   5.236  22.939   3.187
72522W        W44848  14.238  26.172  10.694
72523W        W44849  35.893  32.047  13.047
72524W        W44850  20.668  18.609  11.638
72525W        W44851  27.404  27.050  12.901
72526W        W44852  18.190  16.840   3.709
72527W        W44853  37.124  12.276   1.939
72528W        W44854  31.963   8.731  12.577
72529W        W44855   2.126  31.232   1.681
72530W        W44856  33.134   8.716  13.937
72531W        W44857  33.349  39.397   1.240
72532W        W44858  37.650  36.381   3.815
72533W        W44859  20.797   7.943  13.554
72534W        W44860   1.404  15.713  11.150
72535W        W44861  15.731  40.243   0.455
72536W        W44862   2.412  21.026  13.030
72537W        W44863  35.979  26.044  11.187
72538W        W44864  21.260  19.999   1.118
72539W        W44865  37.829  43.986  10.533
72540W        W44866   5.889  22.469   0.231
72541W        W44867   2.493  23.549   2.288
72542W        W44868  17.100  41.207  14.241
72543W        W44869   7.418  21.840  12.049
72544W        W44870  14.645  39.066   4.699
72545W        W44871  12.337  23.562   4.835
72546W        W44872   1.209  31.840   1.656
72547W        W44873  23.456  37.495   2.075
72548W        W44874  10.859  26.081  10.948
72549W        W44875  24.124  37.438  10.716
72550W        W44876  12.322  44.538  13.479
72551W        W44877   6.491  21.680   3.070
72552W        W44878  25.960  37.335   1.271
72553W        W44879  34.091  12.912  14.212
72554W        W44880  36.390  39.336  12.018
72555W        W44881  34.541   0.730   1.604
72556W        W44882   8.780  44.411   2.781
72557W        W44883  20.838  27.086  11.155
72558W        W44884  13.028  18.603   1.254
72559W        W44885  36.999   9.785   3.732
72560W        W44886  44.379   0.499   3.602
72561W        W44887   4.578  19.095  14.290
72562W        W44888  44.248   7.436  13.978
72563W        W44889  10.381  18.649  11.308
72564W        W44890  22.793  12.357  12.911
72565W        W44891  23.079  44.824   0.233
72566W        W44892  21.940  33.076   0.967
72567W        W44893  29.087  15.086  11.391
72568W        W44894  32.947   8.231   3.679
72569W        W44895  43.819  28.594  10.931
72570W        W44896  22.531  30.498  10.706
72571W        W44897   8.115   5.982  14.373
72572W        W44898  28.088  15.566  14.682
72573W        W44899  25.691  12.378   1.434
72574W        W44900  13.678  40.915  13.315
72575W        W44901  10.182  23.264  11.970
72576W        W44902  19.629   4.906  11.693
72577W        W44903  13.657   9.981  13.568
72578W        W44904  13.233  13.998  11.778
72579W        W44905   1.740  33.183   1.367
72580W        W44906  22.156  44.997   1.584
72581W        W44907  36.737  29.036  11.427
72582W        W44908  10.666  38.087   3.649
72583W        W44909   3.346  21.467   5.031
72584W        W44910  20.094  21.901  14.053
72585W        W44911  20.088  42.843   0.414
72586W        W44912  21.303  42.918  13.861
72587W        W44913   7.079   6.222   1.334
72588W        W44914  36.819  24.548  10.741
72589W        W44915  12.702   5.273  12.121
72590W        W44916  36.585   3.043   4.108
72591W        W44917   4.240  32.019  13.579
72592W        W44918  34.794  20.374  13.217
72593W        W44919  15.857   3.917   3.529
72594W        W44920  40.438  28.202  13.551
72595W        W44921  15.677  12.662  11.631
72596W        W44922   1.670  35.156  13.671
72597W        W44923   7.193  31.003   0.807
72598W        W44924   9.982   6.417  13.011
72599W        W44925   1.731  30.228   0.786
72600W        W44926  26.576   7.355   1.248
72601W        W44927  39.543  29.167  10.726
72602W        W44928  39.088  18.474  11.590
72603W        W44929  43.611  21.078   4.270
72604W        W44930  30.155   9.561   2.227
72605W        W44931  40.819  22.567   4.550
72606W        W44932  44.205  31.701   3.161
72607W        W44933  42.349   1.759   4.074
72608W        W44934  33.469  40.209   1.873
72609W        W44935  29.338   0.475   0.745
72610W        W44936  30.508  31.120  12.918
72611W        W44937   9.698  25.528  13.984
72612W        W44938  32.278   9.846   3.153
72613W        W44939  41.066   1.361   4.193
72614W        W44940  23.875  23.297   0.386
72615W        W44941   4.275   0.779   2.862
72616W        W44942  11.538  30.546   3.673
72617W        W44943  23.595  17.143  12.184
72618W        W44944   0.398   7.660  10.759
72619W        W44945  12.132  22.698   2.431
72620W        W44946   4.152  40.841   0.737
72621W        W44947  18.067  32.211  10.501
72622W        W44948  11.725  28.754   2.378
72623W        W44949  37.450  42.063   1.786
72624W        W44950  43.345  19.698  11.878
72625W        W44951   1.173  11.749  12.877
72626W        W44952  31.420   8.799  11.454
72627W        W44953  14.757  33.613   4.378
72628W        W44954  36.519  14.224  13.507
72629W        W44955  25.749  17.215   5.441
72630W        W44956  38.198  27.408  14.101
72631W        W44957   0.118   0.398   1.401
72632W        W44958   0.784  17.841  12.654
72633W        W44959  35.745   4.928  13.433
72634W        W44960  44.777  15.223  14.766
72635W        W44961  15.871  33.393   1.910
72636W        W44962  44.498  30.520   4.090
72637W        W44963  23.596  43.101  11.911
72638W        W44964  23.568  14.545  12.447
72639W        W44965  12.840  41.059  12.944
72640W        W44966   6.742  34.057   0.479
72641W        W44967   1.829   3.207   2.862
72642W        W44968  36.526  26.874  12.244
72643W        W44969   1.294  24.922  10.575
72644W        W44970  32.406   2.671   3.172
72645W        W44971   5.816  43.418   1.233
72646W        W44972  27.609   0.927   2.930
72647W        W44973  39.249   6.979  14.941
72648W        W44974   0.274   9.002  13.743
72649W        W44975  32.854  44.065  12.012
72650W        W44976  10.775  38.327   4.127
72651W        W44977   7.233  24.960   4.075
72652W        W44978  23.023  42.761   3.425
72653W        W44979  27.019  15.626   2.302
72654W        W44980   0.366   7.168   1.790
72655W        W44981  36.281  23.630  10.721
72656W        W44982  27.060   9.274   0.404
72657W        W44983   6.074  16.308  14.095
72658W        W44984  26.372  22.660   3.592
72659W        W44985  20.258  44.262  13.473
72660W        W44986  14.211  35.855   1.955
72661W        W44987  12.391   8.845  11.938
72662W        W44988   1.748  25.111   2.301
72663W        W44989  23.947  14.110   2.441
72664W        W44990  18.131  35.506   0.239
72665W        W44991  22.846   5.692  12.433
72666W        W44992  11.145  18.299   1.935
72667W        W44993   0.992  26.450   4.615
72668W        W44994  31.379  14.685   1.721
72669W        W44995  33.091  23.472  13.521
72670W        W44996  32.980  14.282   0.117
72671W        W44997  41.768  43.816  11.181
72672W        W44998  40.945  17.777   2.818
72673W        W44999  16.527  21.448   0.708
72674W        W45000  35.541  32.938   2.348
72675W        W45001   5.389  44.426  14.800
72676W        W45002  24.997  12.074   0.839
72677W        W45003   6.400  37.966   0.719
72678W        W45004  16.318  22.142  10.582
72679W        W45005   5.900   2.451   1.839
72680W        W45006   0.378  18.045  10.924
72681W        W45007  18.791  38.631   1.411
72682W        W45008   6.970  14.380  12.817
72683W        W45009  18.658   9.208  11.199
72684W        W45010  17.827  31.912   3.679
72685W        W45011  44.841  30.682   2.228
72686W        W45012  25.292   9.958  11.344
72687W        W45013  32.513  41.508  14.033
72688W        W45014   1.940  43.972  14.392
72689W        W45015  34.295  35.449  12.016
72690W        W45016  35.374  12.845   2.338
72691W        W45017  22.109  32.426   2.800
72692W        W45018   0.909   6.917  12.466
72693W        W45019  17.507  13.692  11.053
72694W        W45020   3.297  29.887  10.790
72695W        W45021   7.391  21.025   2.037
72696W        W45022   5.955  37.518   0.365
72697W        W45023   8.866  27.808  13.439
72698W        W45024  40.391  34.031  13.837
72699W        W45025  43.410  12.619   1.394
72700W        W45026  20.478  16.244  14.823
72701W        W45027   3.727  19.295   3.267
72702W        W45028   1.290  32.569  14.626
72703W        W45029  20.101  32.633   4.156
72704W        W45030  18.643  21.339  10.637
72705W        W45031  18.447  36.087  11.543
72706W        W45032  29.543  27.950   4.550
72707W        W45033  30.479  41.749   0.906
72708W        W45034  16.315  13.725  11.544
72709W        W45035  42.345  44.105  14.496
72710W        W45036  11.873   0.293  10.998
72711W        W45037  26.433  26.552  13.505
72712W        W45038  13.051  17.784   1.780
72713W        W45039  37.114  40.399   2.878
72714W        W45040  31.126  31.821   4.676
72715W        W45041   1.553  12.193   5.066
72716W        W45042  33.281  39.746  11.852
72717W        W45043  17.240   0.912  12.472
72718W        W45044  24.427  17.293   4.552
72719W        W45045  17.836   7.686  12.411
72720W        W45046  39.927  36.032   3.688
72721ION    NA+45047   9.459  11.391  14.341
72722ION    NA+45048  23.277   0.667  14.919
72723ION    NA+45049  22.503  43.371  13.361
72724ION    NA+45050  21.357  16.447  10.895
72725ION    NA+45051  32.124  41.402   0.308
72726ION    NA+45052  14.306  32.591   3.203
72727ION    NA+45053  18.026  19.060  10.716
72728ION    NA+45054  40.082  34.852   1.172
72729ION    NA+45055  19.805   5.939   0.041
72730ION    NA+45056  24.259  18.547   2.741
72731ION    NA+45057  42.950  21.326  13.387
72732ION    NA+45058  19.131  31.234   0.738
72733ION    NA+45059   2.793  44.013  10.861
72734ION    NA+45060   5.975  12.969   4.557
72735ION    NA+45061  42.566  20.996   5.341
72736ION    NA+45062  19.586  29.165   3.624
72737ION    NA+45063  37.814   1.195  11.125
72738ION    NA+45064  43.580  43.809  11.234
72739ION    NA+45065   2.571   8.082   2.770
72740ION    NA+45066   7.137  29.119  12.899
72741ION    NA+45067  17.553  44.337  11.473
72742ION    NA+45068  37.880  37.583   0.918
72743ION    NA+45069  21.212   9.723  13.872
72744ION    NA+45070   1.845   8.627  11.070
72745ION    NA+45071   2.256   5.203   0.598
72746ION    NA+45072  31.381   0.926  11.532
72747ION    NA+45073   7.032  33.897   2.042
72748ION    NA+45074  40.326  19.776  14.263
72749ION    NA+45075   8.458  32.484   2.682
72750ION    NA+45076  40.779   2.695  14.257
72751ION    NA+45077  14.111  12.877   9.717
72752ION    NA+45078  38.792  10.346  12.439
72753ION    NA+45079  21.775  10.784  11.329
72754ION    NA+45080  36.629  43.448  10.703
72755ION    NA+45081  43.818  15.522   3.705
72756ION    NA+45082   1.513   2.287  10.226
72757ION    NA+45083   4.971   9.819   9.496
72758ION    NA+45084  25.863  18.440   1.289
72759ION    NA+45085  18.083  31.537  14.019
72760ION    NA+45086  21.341   0.246  10.861
72761ION    NA+45087  22.208  41.058  12.407
72762ION    NA+45088  20.664  16.109  14.284
72763ION    NA+45089   6.418  19.785   2.367
72764ION    NA+45090  14.561  36.900  11.552
72765ION    NA+45091  14.338  11.779  14.843
72766ION    NA+45092   7.482  31.474  11.488
72767ION    NA+45093  43.065  22.914   0.181
72768ION    NA+45094   8.767  26.249  14.511
72769ION    NA+45095  31.016   8.034   0.343
72770ION    NA+45096   3.963  39.747  11.395
72771ION    NA+45097   6.503  21.455  13.372
72772ION    NA+45098   1.778  42.907   2.987
72773ION    NA+45099  11.858   2.661   2.466
72774ION    NA+45100  23.678  36.562  14.470
72775ION    NA+45101  33.425  14.517   4.373
72776ION    NA+45102   1.430  43.670   3.670
72777ION    NA+45103  20.557  13.246   4.480
72778ION    NA+45104  28.624   1.970  10.708
72779ION    NA+45105  15.771  23.915  13.248
72780ION    NA+45106   4.823  13.866   1.899
72781ION    NA+45107  30.116  21.805   2.942
72782ION    NA+45108  10.700  23.288  11.171
72783ION    NA+45109  17.880  31.509   4.015
72784ION    NA+45110   7.277   1.266   2.098
72785ION    NA+45111  28.582  36.247   3.810
72786ION    NA+45112   0.707  15.536   0.977
72787ION    NA+45113  28.289  35.232  11.630
72788ION    NA+45114  25.395  19.665   2.107
72789ION    NA+45115  32.992  23.233  13.052
72790ION    NA+45116  15.174  38.256  11.616
72791ION    NA+45117  31.956  13.858  14.286
72792ION    NA+45118  43.728  41.346  12.019
72793ION    NA+45119  10.235  37.507   5.178
72794ION    NA+45120  33.064  34.382  13.815
72795ION    NA+45121  16.293   0.274   2.218
72796ION    NA+45122   4.605  29.413   1.857
72797ION    NA+45123  29.902  26.321  14.145
72798ION    NA+45124  14.757   8.705  13.809
72799ION    NA+45125  39.867   7.108   2.691
72800ION    NA+45126  23.562  43.975  14.999
72801ION    NA+45127  39.968   1.882   0.870
72802ION    NA+45128  25.478  13.515  12.180
72803ION    NA+45129  42.708  24.224   4.048
72804ION    NA+45130  29.016  28.943  11.928
72805ION    NA+45131  15.936   1.447  14.432
72806ION    NA+45132  13.762  10.241  12.133
72807ION    NA+45133   9.599  34.946   3.480
72808ION    NA+45134  37.480  29.129   3.825
72809ION    NA+45135  15.993  16.145   2.625
72810ION    NA+45136  29.544   5.199   4.244
72811ION    NA+45137  13.304  31.167   0.478
72812ION    NA+45138  10.787  27.955  11.645
72813ION    NA+45139  26.807  17.500  12.704
72814ION    NA+45140  22.032  31.595   3.215
72815ION    NA+45141  20.659  10.930   3.507
72816ION    NA+45142  41.262  16.745   4.192
72817ION    NA+45143   8.655  23.583  13.798
72818ION    NA+45144  24.995   1.814   2.258
72819ION    NA+45145  10.567  39.926   1.393
72820ION    NA+45146   9.668  38.817   0.698
72821ION    NA+45147   7.238  12.699   3.230
72822ION    NA+45148  20.785  35.329  11.809
72823ION    NA+45149  25.087   3.838   4.454
72824ION    NA+45150  28.742  38.937  13.632
72825ION    NA+45151  40.765   9.267  14.742
72826ION    NA+45152  36.415  19.686   1.169
72827ION    NA+45153  43.540  25.478  11.947
72828ION    NA+45154  17.868  21.375   1.867
72829ION    NA+45155  20.300  29.860  14.338
72830ION    NA+45156  12.152  30.797  10.953
72831ION    NA+45157  33.668  32.308   2.003
72832ION    NA+45158  15.523  21.770  14.566
72833ION    NA+45159  44.514  32.122   4.524
72834ION    NA+45160   1.532  22.752   4.933
72835ION    NA+45161  44.936  16.552  11.320
72836ION    NA+45162   5.917  25.588   0.691
72837ION    NA+45163  23.515  27.858  11.584
72838ION    NA+45164   9.554  40.597  14.008
72839ION    NA+45165  41.375  36.974   1.638
72840ION    NA+45166   6.364  17.647  14.451
72841ION    NA+45167   4.740  31.767   4.778
72842ION    NA+45168  18.228  18.310   3.182
72843ION    NA+45169  35.082  32.751   5.625
72844ION    NA+45170  36.965  17.925  14.299
72845ION    NA+45171  11.406  38.260   4.679
72846ION    NA+45172  34.171   5.953  14.078
72847ION    NA+45173   7.353  23.447   0.917
72848ION    NA+45174   5.703   5.944   0.980
72849ION    NA+45175  35.329  30.488   4.154
72850ION    NA+45176  23.624  31.233  13.564
72851ION    NA+45177   8.854  33.068   3.391
72852ION    NA+45178  31.491   1.755   4.665
72853ION    NA+45179   1.158  41.812  14.845
72854ION    NA+45180  37.516   9.334  10.579
72855ION    NA+45181  21.923   9.180  13.833
72856ION    NA+45182  30.566   9.235  13.044
72857ION    NA+45183  19.629   5.294   1.405
72858ION    NA+45184  20.677  17.523  13.166
72859ION    NA+45185  21.018   8.257  13.191
72860ION    NA+45186  44.227  20.750  12.027
72861ION    NA+45187  20.170   3.004  10.783
72862ION    NA+45188   1.057  17.890  13.921
72863ION    NA+45189  11.198  17.929  12.254
72864ION    NA+45190  22.674  15.088  12.460
72865ION    NA+45191  39.885  36.001  14.678
72866ION    NA+45192  26.672   1.367   4.230
72867ION    NA+45193  20.781   2.793  14.781
72868ION    NA+45194  17.974  12.062   0.328
72869ION    NA+45195  11.845   4.415   4.370
72870ION    NA+45196  27.634  28.493  13.834
72871ION    NA+45197  22.513  27.040  11.451
72872ION    NA+45198  32.675  10.381  11.525
72873ION    NA+45199  10.570   8.033   4.136
72874ION    NA+45200  22.692  23.377  11.250
72875ION    NA+45201  24.937  31.977  11.963
72876ION    NA+45202  38.931  16.199   2.403
72877ION    NA+45203  38.795  14.488  13.987
72878ION    NA+45204  10.459  14.196  13.376
72879ION    NA+45205  42.265   3.189  13.079
72880ION    NA+45206  30.649  28.688   4.411
72881ION    NA+45207  25.542  21.043  13.731
72882ION    NA+45208  39.566   9.651  14.381
72883ION    NA+45209  13.129   8.369   2.909
72884ION    NA+45210  22.892   9.413   4.605
72885ION    NA+45211  13.103  15.515   4.568
72886ION    NA+45212   6.121  44.704  14.117
72887ION    NA+45213   0.226  22.032   4.162
72888ION    NA+45214  24.192  33.127  14.431
72889ION    NA+45215   7.765  12.090  10.906
72890ION    NA+45216  11.754   4.321  14.305
72891ION    NA+45217  28.064  12.026  12.444
72892ION    NA+45218  34.273  26.001   3.258
72893ION    NA+45219  35.264  28.416  10.883
72894ION    NA+45220  30.994  11.353   2.771
72895ION    NA+45221   4.959   7.462  13.871
72896ION    NA+45222  20.197  43.880   4.078
72897ION    NA+45223   0.660   0.070  14.448
72898ION    NA+45224  25.438  29.476   0.137
72899ION    NA+45225   7.467  29.101   4.115
72900ION    NA+45226  30.413  28.229   1.680
72901ION    NA+45227  41.244  39.656  14.505
72902ION    NA+45228  40.483  43.677   1.673
72903ION    NA+45229  44.992   4.924  11.360
72904ION    NA+45230  11.963  10.689   2.299
72905ION    NA+45231  34.073  26.549  14.386
72906ION    NA+45232  39.133  10.984  13.129
72907ION    NA+45233  23.832  36.605   2.683
72908ION    NA+45234  18.932  24.247   3.276
72909ION    NA+45235  40.378   4.070  13.245
72910ION    NA+45236   9.419  14.517   3.028
72911ION    NA+45237  29.851  22.849  11.063
72912ION    NA+45238  12.204  27.707  13.906
72913ION    NA+45239   6.488  27.106   4.777
72914ION    NA+45240  44.480   4.260  11.935
72915ION    NA+45241   1.327  34.095  14.423
72916ION    NA+45242  10.641  32.172   4.170
72917ION    NA+45243  43.772  37.678   2.451
72918ION    NA+45244  24.091  18.211  11.516
72919ION    NA+45245  28.375  36.961   1.137
72920ION    NA+45246   9.069  31.233  10.649
72921ION    NA+45247  30.138  35.158   1.131
72922ION    NA+45248  11.530  21.819   2.461
72923ION    NA+45249  14.619  31.201   2.387
72924ION    NA+45250  22.021  32.612  14.583
72925ION    NA+45251  44.697   8.064  12.772
72926ION    NA+45252  21.601  20.068   0.434
72927ION    NA+45253   5.877  41.497   4.074
72928ION    NA+45254  17.156  44.039   0.452
72929ION    NA+45255  21.491  40.937  14.238
72930ION    NA+45256  21.183   4.911   4.346
72931ION    NA+45257  37.989  37.924   3.291
72932ION    NA+45258   1.984  13.472  12.147
72933ION    NA+45259  23.175   6.110  12.443
72934ION    NA+45260   0.148  23.690   3.548
72935ION    NA+45261  44.009  28.409   3.635
72936ION    NA+45262  37.533  12.657  14.916
72937ION    NA+45263  28.942  36.820  14.991
72938ION    NA+45264  19.773  40.783   2.751
72939ION    NA+45265  10.586  44.878  12.093
72940ION    NA+45266  39.929  40.857  10.640
72941ION    NA+45267  37.822  34.354   3.199
72942ION    NA+45268  34.638   7.050   0.357
72943ION    NA+45269  38.577  39.024  10.673
72944ION    NA+45270   5.336  19.105  13.676
72945ION    NA+45271  29.304   1.937   3.365
72946ION    NA+45272   9.109  40.200  14.811
72947ION    NA+45273  34.929  26.414   3.723
72948ION    NA+45274  16.558  10.750   2.862
72949ION    NA+45275  33.211  17.265   1.857
72950ION    NA+45276   3.776  18.609  14.111
72951ION    NA+45277  24.985   9.675  14.211
72952ION    NA+45278   9.651   4.169  14.371
72953ION    NA+45279  23.518  31.381   4.735
72954ION    NA+45280  12.709  38.894  13.520
72955ION    NA+45281  28.677   0.763  11.189
72956ION    NA+45282  15.166   4.489  12.527
72957ION    NA+45283  38.899  23.222  12.368
72958ION    NA+45284  26.705   1.808  13.375
72959ION    NA+45285   9.288  33.490  12.988
72960ION    NA+45286  27.899  28.732   0.468
72961ION    NA+45287   5.799  16.361   1.350
72962ION    NA+45288  40.284   4.725  14.960
72963ION    NA+45289  27.261   6.465  11.977
72964ION    NA+45290  40.114  37.869   4.033
72965ION    NA+45291   6.051  39.241  13.225
72966ION    NA+45292   4.887  16.134   3.129
72967ION    NA+45293   0.703  16.636  10.856
72968ION    NA+45294  26.647  16.002   0.073
72969ION    NA+45295  38.598  28.748   0.744
72970ION    NA+45296   7.048  36.847   0.453
72971ION    NA+45297  35.543  23.985   1.864
72972ION    NA+45298  14.779  32.177   1.534
72973ION    NA+45299   7.159  20.747  12.023
72974ION    NA+45300  43.245  16.650  12.584
72975ION    NA+45301  39.598  22.707   2.913
72976ION    NA+45302  15.062  39.285  10.592
72977ION    NA+45303  16.589   4.779   1.677
72978ION    NA+45304  24.695  31.287   1.076
72979ION    NA+45305  22.072  38.815   3.255
72980ION    NA+45306  24.397  44.334   0.449
72981ION    NA+45307  13.636  31.052  14.250
72982ION    NA+45308  18.264  36.774   3.156
72983ION    NA+45309  25.057  20.314   4.563
72984ION    NA+45310  25.501  26.547  13.322
72985ION    NA+45311   5.788   4.238   4.294
72986ION    NA+45312  43.664  24.457   4.228
72987ION    NA+45313  13.479  23.854  11.464
72988ION    NA+45314   0.771  37.080  14.089
72989ION    NA+45315   4.276  23.749  10.712
72990ION    NA+45316   2.715   6.844   3.264
72991ION    NA+45317  29.930  27.979  12.425
72992ION    NA+45318  20.798  42.485  13.547
72993ION    NA+45319  14.242  17.740  11.115
72994ION    NA+45320   5.833  32.914  10.603
72995ION    NA+45321   4.578  40.574   3.242
72996ION    NA+45322  21.063  10.092  12.813
72997ION    NA+45323  32.225  11.719   4.746
72998ION    NA+45324   0.739  33.588  13.093
72999ION    NA+45325  24.451  10.892   1.938
73000ION    NA+45326  23.826  19.467  12.410
73001ION    NA+45327  18.777  25.655  11.908
73002ION    NA+45328   3.140   1.647   9.923
73003ION    NA+45329  33.973  34.088  14.549
73004ION    NA+45330  11.902  38.688   3.923
73005ION    NA+45331   8.558  29.800   3.901
73006ION    NA+45332   2.328   3.916   4.916
73007ION    NA+45333  38.458  34.790  11.961
73008ION    NA+45334  16.998  20.832   3.518
73009ION    NA+45335  23.105  38.797   0.453
73010ION    NA+45336  28.020  43.507   3.077
73011ION    NA+45337  22.138  37.649   4.547
73012ION    NA+45338  26.601  25.512  10.829
73013ION    NA+45339  36.381  19.688  13.460
73014ION    NA+45340  13.840  39.531   0.865
73015ION    NA+45341  39.507  42.466   3.247
73016ION    NA+45342  22.713  24.649  11.157
73017ION    NA+45343  42.750  11.326   9.633
73018ION    NA+45344  23.915   8.326   0.331
73019ION    NA+45345  37.976  42.075   2.871
73020ION    NA+45346  13.693   6.133   3.695
73021ION    NA+45347   9.876  14.701   1.388
73022ION    NA+45348   7.389  11.435   2.490
73023ION    NA+45349   8.486  34.824  12.126
73024ION    NA+45350  22.083  14.098   2.368
73025ION    NA+45351   3.890  20.399   3.198
73026ION    NA+45352   6.419  34.586  14.818
73027ION    NA+45353  29.050  38.063   1.854
73028ION    NA+45354   9.757  11.325   1.796
73029ION    NA+45355  24.911  16.947   4.450
73030ION    NA+45356  36.313  29.450   2.297
73031ION    NA+45357  20.946  21.776  11.599
73032ION    NA+45358  24.575  32.399   2.991
73033ION    NA+45359   8.341  22.780  11.042
73034ION    NA+45360   4.734   5.229   3.283
73035ION    NA+45361   0.351  19.723   2.453
73036ION    NA+45362  29.882   9.186  10.292
73037ION    NA+45363  30.760  23.144   1.758
73038ION    NA+45364  24.542  44.079   4.268
73039ION    NA+45365  22.140  44.894   2.918
73040ION    NA+45366  14.896  18.604  14.340
73041ION    NA+45367   4.404  37.812  13.147
73042ION    NA+45368  30.721  17.176   3.608
73043ION    NA+45369   0.927  40.049  12.824
73044ION    NA+45370  13.161  23.897   9.515
73045ION    NA+45371  19.706  31.811  14.481
73046ION    NA+45372  24.608  35.282   0.403
73047ION    NA+45373  11.681  24.613  11.693
73048ION    NA+45374  36.364  33.897   4.549
73049ION    NA+45375   2.087  38.490   0.817
73050ION    NA+45376   8.074  37.881   2.123
73051ION    NA+45377  10.405   8.533  14.107
73052ION    NA+45378  42.469  43.172  11.165
73053ION    NA+45379  29.637  44.674  10.726
73054ION    NA+45380  40.934   7.904  10.676
73055ION    NA+45381  18.128  25.141   4.623
73056ION    NA+45382  35.002  14.556  11.946
73057ION    NA+45383   3.665  21.820  13.579
73058ION    NA+45384  26.599  41.892  13.381
73059ION    NA+45385   0.493  11.409  12.858
73060ION    NA+45386  26.242  39.538  10.993
73061ION    NA+45387  44.967   7.733   0.989
73062ION    NA+45388  33.971  28.173  14.369
73063ION    NA+45389  25.438  30.122  11.877
73064ION    NA+45390  19.124  16.289   4.627
73065ION    NA+45391  19.120  13.780  13.786
73066ION    NA+45392  34.029  27.433  10.518
73067ION    NA+45393  27.143  14.531   4.766
73068ION    NA+45394  12.415   1.931   4.584
73069ION    NA+45395  42.847  44.722   1.565
73070ION    NA+45396   7.015  33.453  10.797
73071ION    NA+45397  10.491  26.612   0.786
73072ION    NA+45398  10.597  37.813   4.092
73073ION    NA+45399  24.009  10.059   3.502
73074ION    NA+45400  32.391  17.313   1.452
73075ION    NA+45401  28.406  30.388   2.850
73076ION    NA+45402   7.858  36.511  10.867
73077ION    NA+45403  30.170  10.848  10.457
73078ION    NA+45404  21.951   4.542  12.274
73079ION    NA+45405  25.652  11.587   1.142
73080ION    NA+45406  15.607  22.690   5.050
73081ION    NA+45407  17.252  20.205   1.274
73082ION    NA+45408  19.650  39.288   4.176
73083ION    NA+45409  43.783  21.927  10.857
73084ION    NA+45410  27.089  24.627  14.003
73085ION    NA+45411  43.487   8.829  13.139
73086ION    NA+45412  36.768  40.184  14.482
73087ION    NA+45413  23.820  34.091  11.962
73088ION    NA+45414  31.382  30.059  10.762
73089ION    NA+45415   2.753   0.663   1.328
73090ION    NA+45416  41.476  40.567   2.302
73091ION    NA+45417   7.677  33.393  12.475
73092ION    NA+45418  27.246  16.511  11.136
73093ION    NA+45419  20.218  17.345  11.594
73094ION    NA+45420  35.688   9.964  11.218
73095ION    NA+45421   2.835   6.164   0.133
73096ION    NA+45422  17.048  43.301  10.793
73097ION    NA+45423  31.598  25.084   2.651
73098ION    NA+45424  19.344   4.716   5.119
73099ION    NA+45425  34.641   6.689  11.511
73100ION    NA+45426  23.720  37.393  11.061
73101ION    NA+45427  26.467   1.787  11.963
73102ION    NA+45428  17.452  27.654  14.945
73103ION    NA+45429  11.842  25.308  10.656
73104ION    NA+45430  30.034  30.384   4.243
73105ION    NA+45431  10.159  29.211   2.224
73106ION    NA+45432  40.700  11.026   4.732
73107ION    NA+45433  28.891  10.249  14.989
73108ION    NA+45434  21.069  33.980   0.541
73109ION    NA+45435  10.858  23.805  14.938
73110ION    NA+45436   6.678  18.050   3.565
73111ION    NA+45437  38.154  38.929   3.145
73112ION    NA+45438  18.091  17.312   2.864
73113ION    NA+45439  40.925  24.000  11.584
73114ION    NA+45440   3.676   3.293  11.497
73115ION    NA+45441  41.955  24.107   4.790
73116ION    NA+45442   9.114   8.778  10.869
73117ION    NA+45443  39.067  13.526  13.957
73118ION    NA+45444  31.670  38.703   4.227
73119ION    NA+45445  24.418  40.291   3.207
73120ION    NA+45446  14.176  17.408   2.515
73121ION    NA+45447  25.962   9.332   3.872
73122ION    NA+45448  40.822  12.664   0.449
73123ION    NA+45449  41.235  26.247   2.079
73124ION    NA+45450   3.372  11.385   0.541
73125ION    NA+45451   5.944  38.881  11.940
73126ION    NA+45452   8.160  25.358  12.177
73127ION    NA+45453  37.365  40.802  13.085
73128ION    NA+45454  16.055   5.355  14.089
73129ION    NA+45455  12.818  26.152   4.598
73130ION    NA+45456  28.305  16.774  12.509
73131ION    NA+45457   9.109   9.414   2.808
73132ION    NA+45458  28.783  33.889   3.124
73133ION    NA+45459  35.371   3.544  12.912
73134ION    NA+45460  38.491   4.043  13.193
73135ION    NA+45461  27.705  15.294  11.496
73136ION    NA+45462   2.176  13.720  10.332
73137ION    NA+45463  11.985  17.500  12.397
73138ION    NA+45464  11.950   5.052   3.573
73139ION    NA+45465   5.339  40.749   1.822
73140ION    NA+45466  41.842  12.070   5.215
73141ION    NA+45467   2.959  17.764   0.239
73142ION    NA+45468  35.196  20.109   0.621
73143ION    NA+45469  32.460   0.941   1.173
73144ION    NA+45470  43.795  22.813  12.552
73145ION    NA+45471  29.583  25.289  11.616
73146ION    NA+45472  30.948  20.160  14.423
73147ION    NA+45473  36.075   0.341  13.552
73148ION    NA+45474  22.256   3.061   3.633
73149ION    NA+45475  30.481  14.690   4.831
73150ION    NA+45476   3.979  19.442   0.871
73151ION    NA+45477  19.457  21.419  11.071
73152ION    NA+45478  16.261   1.395  10.726
73153ION    NA+45479   1.126   4.944   1.784
73154ION    NA+45480  14.586   0.666   2.414
73155ION    NA+45481  37.378  11.167   2.953
73156ION    NA+45482  29.548  16.349  11.588
73157ION    NA+45483   6.442   9.691  12.057
73158ION    NA+45484  40.858  14.192   1.730
73159ION    NA+45485  19.420   3.849   4.681
73160ION    NA+45486  25.899   6.989  14.984
73161ION    NA+45487   4.943  27.601  14.425
73162ION    NA+45488  44.154  14.938   2.967
73163ION    NA+45489  12.406  28.408   2.208
73164ION    NA+45490  43.263  39.176   9.848
73165ION    NA+45491  27.468   7.410  10.711
73166ION    NA+45492  42.038  19.660   5.215
73167ION    NA+45493  16.442  42.682  12.547
73168ION    NA+45494   9.442  27.001  14.693
73169ION    NA+45495  26.085  23.570   1.188
73170ION    NA+45496  17.084  22.206  11.144
73171ION    NA+45497  24.597   2.467   1.410
73172ION    NA+45498  17.816  35.582   3.652
73173ION    NA+45499  37.927  43.266  13.614
73174ION    NA+45500   7.966  35.307   2.271
73175ION    NA+45501  13.817   9.580  10.888
73176ION    NA+45502  28.141  42.553  13.708
73177ION    NA+45503  13.146  18.056   2.210
73178ION    NA+45504  10.689  42.319   3.704
73179ION    NA+45505  24.695  16.745   2.308
73180ION    NA+45506  42.292  10.811  11.643
73181ION    NA+45507   6.939  33.033   5.039
73182ION    NA+45508   7.878  22.322  14.526
73183ION    NA+45509  26.367  15.798   5.096
73184ION    NA+45510  38.423  32.369  13.169
73185ION    NA+45511  26.252   6.463   5.010
73186ION    NA+45512  16.697  42.723   3.379
73187ION    NA+45513  35.134  43.512  12.816
73188ION    NA+45514   0.957  37.889  12.433
73189ION    NA+45515  29.304  44.159  14.433
73190ION    NA+45516  30.862   3.932  11.626
73191ION    NA+45517  11.875   2.768  12.883
73192ION    NA+45518   5.732  21.868  13.237
73193ION    NA+45519  14.231   5.232   1.442
73194ION    NA+45520  32.627  13.845  11.594
73195ION    NA+45521  43.548  27.657  13.752
73196ION    NA+45522   4.379  24.660   0.785
73197ION    NA+45523  40.105   0.709  12.431
73198ION    NA+45524  32.953  32.041  10.722
73199ION    NA+45525  25.868  16.228   4.130
73200ION    NA+45526  35.089  41.919  14.204
73201ION    NA+45527  30.490  42.528   1.904
73202ION    NA+45528  18.517  30.591  11.566
73203ION    NA+45529  42.471  44.718   3.784
73204ION    NA+45530   8.755  32.158   3.795
73205ION    NA+45531  23.115  19.068   0.850
73206ION    NA+45532   0.129  42.348  11.892
73207ION    NA+45533  31.019  33.007  13.816
73208ION    NA+45534  37.564   9.375   1.965
73209ION    NA+45535  30.667   2.798  14.098
73210ION    NA+45536   9.457  24.144  13.593
73211ION    NA+45537   9.594   4.378   1.632
73212ION    NA+45538  16.741  30.658   0.329
73213ION    NA+45539  40.570   4.654  12.392
73214ION    NA+45540  23.504   0.394   3.099
73215ION    NA+45541   4.509  29.373  11.954
73216ION    NA+45542  26.180  24.645   1.911
73217ION    NA+45543  29.882  10.436   4.009
73218ION    NA+45544  37.605  41.564  12.050
73219ION    NA+45545  18.854  24.150   0.051
73220ION    NA+45546  38.688   6.429  11.472
73221ION    NA+45547  35.107  34.267  14.530
73222ION    NA+45548  13.571  13.333  14.827
73223ION    NA+45549  39.976  43.171   2.177
73224ION    NA+45550  20.460  16.687   2.795
73225ION    NA+45551  42.245  37.634   4.220
73226ION    NA+45552  12.221  32.546  11.211
73227ION    NA+45553  18.912   3.784   1.049
73228ION    NA+45554  39.594  21.581   1.841
73229ION    NA+45555  44.436  11.574   2.723
73230ION    NA+45556   0.964  11.790   1.287
73231ION    NA+45557  27.162  36.714   0.960
73232ION    NA+45558  29.690  31.787  10.618
73233ION    NA+45559   8.375   2.968   0.563
73234ION    NA+45560  39.352  12.119   9.816
73235ION    NA+45561  41.937  12.059  14.895
73236ION    NA+45562   6.837   5.846   3.153
73237ION    NA+45563  40.537  12.706   1.828
73238ION    NA+45564   3.475   1.590  14.397
73239ION    NA+45565  36.269  31.571   1.389
73240ION    NA+45566  33.082  16.596  11.928
73241ION    NA+45567  40.438  18.170   3.756
73242ION    NA+45568  35.267  17.288   4.200
73243ION    NA+45569   4.140  39.259  12.160
73244ION    NA+45570  20.858  37.384  10.613
73245ION    NA+45571   9.616  44.529   1.723
73246ION    NA+45572  35.338   2.243  10.733
73247ION    NA+45573  16.883  22.219   1.118
73248ION    NA+45574  44.783   8.350   0.224
73249ION    NA+45575  30.011  34.185   4.660
73250ION    NA+45576  33.251  37.874   0.011
73251ION    NA+45577  20.533  36.895   3.942
73252ION    NA+45578  31.388  12.184   1.489
73253ION    NA+45579  26.464  32.490  13.869
73254ION    NA+45580  14.550  12.237   4.065
73255ION    NA+45581   0.729  28.081   0.550
73256ION    NA+45582  24.830  11.236  10.136
73257ION    NA+45583   2.381  24.583  11.657
73258ION    NA+45584  28.090  37.548  13.259
73259ION    NA+45585   6.853  33.100  12.960
73260ION    NA+45586  40.865  31.579  10.359
73261ION    NA+45587   3.429  34.843  11.974
73262ION    NA+45588   1.698   2.970   0.863
73263ION    NA+45589   2.417  42.617  14.284
73264ION    NA+45590  12.305   1.602  13.297
73265ION    NA+45591  30.630   3.758   3.287
73266ION    NA+45592  36.590  26.505  14.850
73267ION    NA+45593  14.343  21.798   1.318
73268ION    NA+45594  13.101  41.517  13.003
73269ION    NA+45595  10.329  26.397  13.488
73270ION    NA+45596  23.281   8.661   1.795
73271ION    NA+45597  29.000   5.873  12.609
73272ION    NA+45598  40.543  23.333  14.636
73273ION    NA+45599  21.133  33.458  12.928
73274ION    NA+45600  34.775  18.528  14.945
73275ION    NA+45601  40.227   3.242   4.560
73276ION    NA+45602  24.762   2.770  12.492
73277ION    NA+45603  16.258   0.820   0.828
73278ION    NA+45604  18.612   5.255   2.556
73279ION    NA+45605  36.930  25.627  11.208
73280ION    NA+45606  41.797   5.286   0.248
73281ION    NA+45607  32.834   3.783   4.084
73282ION    NA+45608  20.991  20.834   0.739
73283ION    NA+45609  21.726  21.125  12.036
73284ION    NA+45610  39.912  42.046   0.323
73285ION    NA+45611  14.380  11.358   1.270
73286ION    NA+45612  13.071  40.150   1.029
73287ION    NA+45613  14.055  41.523   3.205
73288ION    NA+45614  27.649  13.252  12.968
73289ION    NA+45615  43.229  40.324   0.741
73290ION    NA+45616   9.200  34.892  14.888
73291ION    NA+45617  35.767  11.430  10.678
73292ION    NA+45618  23.710  25.498  10.615
73293ION    NA+45619  12.354  25.353   4.216
73294ION    NA+45620   4.844  11.403  12.015
73295ION    NA+45621  34.083  27.821   1.905
73296ION    NA+45622   2.566  41.181   2.839
73297ION    NA+45623   5.174   7.646   2.774
73298ION    NA+45624  13.000  36.768  13.815
73299ION    NA+45625  41.247  23.641   4.971
73300ION    NA+45626  34.438  41.752  13.464
73301ION    NA+45627  39.794  29.997  12.165
73302ION    NA+45628  44.866   3.805   3.839
73303ION    NA+45629  26.408  24.187   3.775
73304ION    NA+45630  21.508  12.206   1.739
73305ION    NA+45631  44.235  11.742   4.138
73306ION    NA+45632   8.284   1.985   0.888
73307ION    NA+45633  14.761  28.560  13.867
73308ION    NA+45634  42.663  28.170  14.876
73309ION    NA+45635  20.362  29.084  12.627
73310ION    NA+45636  19.438  23.165  13.838
73311ION    NA+45637   3.212  16.345  13.341
73312ION    NA+45638  18.353  11.027  10.924
73313ION    NA+45639  43.517  34.074  14.334
73314ION    NA+45640   6.519  30.758   4.731
73315ION    NA+45641  15.751  35.961   2.325
73316ION    NA+45642  23.188  38.451   3.720
73317ION    NA+45643  14.683   7.977   0.391
73318ION    NA+45644  40.461  30.940   2.781
73319ION    NA+45645   0.966   4.912  10.586
73320ION    NA+45646  31.958  36.406  12.855
73321ION    NA+45647  28.913   4.896   3.529
73322ION    NA+45648  11.126  24.513   2.284
73323ION    NA+45649  21.093  31.143  11.577
73324ION    NA+45650  14.851  24.262  13.067
73325ION    NA+45651   8.827  14.204  11.534
73326ION    NA+45652  42.533  14.496  12.490
73327ION    NA+45653  29.035   2.244   2.221
73328ION    NA+45654  14.289  22.855   0.244
73329ION    NA+45655   3.145   5.698   4.482
73330ION    NA+45656  21.806  27.274   3.731
73331ION    NA+45657  11.272  42.987   1.060
73332ION    NA+45658   7.246  38.439   2.166
73333ION    NA+45659  40.338  12.259  13.487
73334ION    NA+45660  15.373  24.725  13.642
73335ION    NA+45661  16.567   4.678   0.315
73336ION    NA+45662  13.840   1.789  12.122
73337ION    NA+45663   4.089  44.818  12.547
73338ION    NA+45664   2.122   9.882   0.406
73339ION    NA+45665  11.459  24.261  13.292
73340ION    NA+45666  39.110  23.494   9.736
73341ION    NA+45667  29.539  23.259   4.113
73342ION    NA+45668  41.840  32.952   2.249
73343ION    NA+45669  21.500  39.484   2.342
73344ION    NA+45670   2.257  17.240   0.831
73345ION    NA+45671  37.762   8.784   4.147
73346ION    NA+45672  35.987  18.027   1.635
73347ION    NA+45673  25.008  10.143  10.234
73348ION    NA+45674  43.389   6.757  13.233
73349ION    NA+45675  18.757  16.071   3.635
73350ION    NA+45676  40.677  44.126   3.000
73351ION    NA+45677  39.964   7.862  12.021
73352ION    NA+45678  44.540   7.219  12.487
73353ION    NA+45679  31.236   9.225   4.572
73354ION    NA+45680   2.965  44.358   0.624
73355ION    NA+45681  17.987  41.863   3.410
73356ION    NA+45682  23.346  21.539   4.664
73357ION    NA+45683   0.844  11.073   2.094
73358ION    NA+45684  36.468  42.290   1.819
73359ION    NA+45685  30.500  37.562   3.755
73360ION    NA+45686   1.721   8.783  13.658
73361ION    NA+45687   1.718   7.852   0.404
73362ION    NA+45688  42.428   8.520   0.233
73363ION    NA+45689   2.493  41.881  12.359
73364ION    NA+45690  27.099   5.576  11.549
73365ION    NA+45691  31.400  20.643  12.021
73366ION    NA+45692  41.067  27.318   3.674
73367ION    NA+45693  23.101  18.185  14.079
73368ION    NA+45694  42.952  32.563   4.643
73369ION    NA+45695  20.304  14.344   1.877
73370ION    NA+45696  42.700  15.941  12.682
73371ION    NA+45697  13.648  30.429  11.481
73372ION    NA+45698  22.003  14.875  12.948
73373ION    NA+45699  15.126  43.865   4.680
73374ION    NA+45700  39.390  37.565   2.529
73375ION    NA+45701   3.967  26.543   0.202
73376ION    NA+45702  32.757  36.099   2.016
73377ION    NA+45703  25.049  15.150   3.601
73378ION    NA+45704   0.576  28.697  14.880
73379ION    NA+45705   9.206  10.277   1.090
73380ION    NA+45706  27.622  41.845   1.265
73381ION    NA+45707  26.962  35.661  11.647
73382ION    NA+45708  43.389  13.448  10.373
73383ION    NA+45709  32.718  19.264   3.492
73384ION    NA+45710  30.101   6.055   4.280
73385ION    NA+45711  12.633  22.041  12.445
73386ION    NA+45712  29.976   9.959  13.400
73387ION    NA+45713  43.423  29.604   4.894
73388ION    NA+45714  35.025  23.132  11.190
73389ION    NA+45715  31.194  39.748  13.271
73390ION    NA+45716  30.433  42.681   9.931
73391ION    NA+45717  40.271   5.357  12.009
73392ION    NA+45718   4.873   3.075  10.339
73393ION    NA+45719  18.756  36.747   1.290
73394ION    NA+45720  35.280  36.631   4.508
73395ION    NA+45721  14.481  24.090  14.497
73396ION    NA+45722  28.555   4.705   4.567
73397ION    NA+45723  22.438  39.643   3.071
73398ION    NA+45724  42.256  36.228   3.498
73399ION    NA+45725   4.264  32.145   3.911
73400ION    NA+45726   1.039  22.810  12.672
73401ION    NA+45727  12.833  43.595   2.842
73402ION    NA+45728  20.027   8.140  13.256
73403ION    NA+45729   9.050  20.290   0.226
73404ION    NA+45730  10.871  21.131   2.156
73405ION    NA+45731  17.510  33.515   0.215
73406ION    NA+45732  33.006  12.715   2.399
73407ION    NA+45733  26.558   4.908  10.932
73408ION    NA+45734  37.313  12.458   2.368
73409ION    NA+45735  15.996  11.924   0.381
73410ION    NA+45736  33.289  20.528  13.408
73411ION    NA+45737   3.743  31.782  14.341
73412ION    NA+45738   3.664  29.257   4.545
73413ION    NA+45739  44.536  15.739   2.164
73414ION    NA+45740  43.823   5.031   0.918
73415ION    NA+45741  29.413  42.389   4.089
73416ION    NA+45742  27.243  23.638   0.056
73417ION    NA+45743  16.619  44.358  14.438
73418ION    NA+45744  11.849   2.848   1.450
73419ION    NA+45745   1.050  39.712   2.952
73420ION    NA+45746  25.523  28.457  12.949
73421ION    NA+45747  27.332  24.389   3.277
73422ION    NA+45748   2.411   7.948   4.569
73423ION    NA+45749  15.016  17.136   3.620
73424ION    NA+45750  30.198  36.432   1.958
73425ION    NA+45751  28.839   3.736   4.621
73426ION    NA+45752  39.969   6.410   1.957
73427ION    NA+45753   5.191  21.683  10.970
73428ION    NA+45754  31.795  21.120  14.839
73429ION    NA+45755  40.682  16.834   5.052
73430ION    NA+45756  25.107  17.986  13.973
73431ION    NA+45757  19.926  37.201   2.095
73432ION    NA+45758  43.046   7.865  11.734
73433ION    NA+45759  36.173  30.580  13.032
73434ION    NA+45760  25.819  14.156   0.391
73435ION    NA+45761   2.691  28.829  13.494
73436ION    NA+45762  35.588  21.550  11.168
73437ION    NA+45763  21.454  28.049   3.167
73438ION    NA+45764  33.735  27.367  13.825
73439ION    NA+45765  13.536  18.824  13.087
73440ION    NA+45766  39.844   0.340   0.883
73441ION    NA+45767  13.345  38.012   4.773
73442ION    NA+45768  18.219   7.293  14.495
73443ION    NA+45769  34.946  36.592  13.013
73444ION    NA+45770   8.762  24.892  10.135
73445ION    NA+45771  30.768  16.643   0.323
73446ION    NA+45772  35.388   2.145   1.226
73447ION    NA+45773  38.692  11.114  14.830
73448ION    NA+45774  34.395  17.317   3.712
73449ION    NA+45775   6.751   0.902   2.885
73450ION    NA+45776   2.473  17.892  12.755
73451ION    NA+45777  11.864  37.257  13.847
73452ION    NA+45778   6.702  21.462   1.416
73453ION    NA+45779  15.151  41.914  12.429
73454ION    NA+45780  16.414  16.723   3.323
73455ION    NA+45781   3.634  40.599  11.404
73456ION    NA+45782  14.821  20.988   2.891
73457ION    NA+45783  31.299  14.610  14.333
73458ION    NA+45784  39.623  38.020   1.012
73459ION    NA+45785   4.968  20.891  14.105
73460ION    NA+45786  19.352   6.921   3.304
73461ION    NA+45787  42.589  32.237  13.175
73462ION    NA+45788  18.529  44.451  13.869
73463ION    NA+45789  22.000   3.409   4.625
73464ION    NA+45790  42.356   9.818  11.739
73465ION    NA+45791  17.520  22.228   2.692
73466ION    NA+45792   1.954  14.311  11.524
73467ION    NA+45793  41.992  19.272   2.746
73468ION    NA+45794  40.151  25.550  11.002
73469ION    NA+45795  25.182  25.678  11.059
73470ION    NA+45796  10.667   0.348  12.972
73471ION    NA+45797  24.817  43.250   4.377
73472ION    NA+45798  23.809  22.664  12.233
73473ION    NA+45799  41.512  26.425   1.135
73474ION    NA+45800  33.653  10.417  11.791
73475ION    NA+45801  22.544  12.244  12.457
73476ION    NA+45802  42.829  14.305   2.207
73477ION    NA+45803  18.752  28.649  12.429
73478ION    NA+45804  33.535  14.683  13.299
73479ION    NA+45805  16.390  18.522  12.880
73480ION    NA+45806  34.272  15.240  11.918
73481ION    NA+45807  15.182  30.803  12.377
73482ION    NA+45808   8.406  38.809   2.608
73483ION    NA+45809  10.207   9.344   0.285
73484ION    NA+45810  27.728  20.148   0.900
73485ION    NA+45811  31.876  35.340   1.479
73486ION    NA+45812   1.139  23.207   4.135
73487ION    NA+45813  12.558  16.692  11.530
73488ION    NA+45814  22.391  18.113   9.866
73489ION    NA+45815  32.260  14.799  14.537
73490ION    NA+45816  34.105  38.485   2.807
73491ION    NA+45817  15.277  44.857  13.875
73492ION    NA+45818   1.270  19.472   3.239
73493ION    NA+45819   7.016  17.268   3.042
73494ION    NA+45820  43.534  34.231   5.035
73495ION    NA+45821  32.064  43.690  10.842
73496ION    NA+45822  19.298  35.892   2.272
73497ION    NA+45823   6.643  15.849  10.492
73498ION    NA+45824  17.465  11.797   2.727
73499ION    NA+45825  32.572  34.609   3.972
73500ION    NA+45826  10.825   2.467  10.890
73501ION    NA+45827   9.023  38.388  12.488
73502ION    NA+45828  39.598  38.776  13.563
73503ION    NA+45829  15.493  24.175   4.357
73504ION    NA+45830   3.884  26.431   1.087
73505ION    NA+45831  27.623   0.660   3.423
73506ION    NA+45832   6.033   6.292   5.428
73507ION    NA+45833  37.659  18.686  14.395
73508ION    NA+45834  20.934  20.835  10.804
73509ION    NA+45835  38.463  23.546  11.468
73510ION    NA+45836  23.903  42.064   2.629
73511ION    NA+45837  11.654  31.343  12.021
73512ION    NA+45838   9.552  11.857  13.322
73513ION    NA+45839   5.731  36.590  11.461
73514ION    NA+45840  16.208   3.163  12.103
73515ION    NA+45841  37.988  11.455   4.486
73516ION    NA+45842  25.022  17.877  12.958
73517ION    NA+45843  41.525  30.962  10.787
73518ION    NA+45844  31.205  43.027  13.518
73519ION    NA+45845  20.577  42.009  10.649
73520ION    NA+45846  28.342  35.064  12.614
73521ION    NA+45847  32.627   3.756   0.293
73522ION    NA+45848  26.712  17.885   2.151
73523ION    NA+45849   6.985   1.992   2.842
73524ION    NA+45850  25.971   8.238   0.265
73525ION    NA+45851  18.362  19.845  14.282
73526ION    NA+45852  25.959  38.578  11.143
73527ION    NA+45853  10.183  44.121  12.629
73528ION    NA+45854  35.392  37.444   0.503
73529ION    NA+45855  13.784  31.800  14.737
73530ION    NA+45856  24.682   7.595  13.345
73531ION    NA+45857   3.718  11.783  11.152
73532ION    NA+45858   5.120   1.588   3.524
73533ION    NA+45859  38.729   5.613   3.307
73534ION    NA+45860  24.752   8.207   4.217
73535ION    NA+45861   9.682  12.888   1.026
73536ION    NA+45862   6.461  24.280   0.205
73537ION    NA+45863  16.279  37.057   1.317
73538ION    NA+45864  37.376  24.495  13.523
73539ION    NA+45865   7.101  37.321   1.393
73540ION    NA+45866  43.977   0.971  11.497
73541ION    NA+45867  13.760  27.359   0.701
73542ION    NA+45868   5.344  38.802  13.516
73543ION    NA+45869  41.850  15.567  11.892
73544ION    NA+45870  14.912  38.020   0.990
73545ION    NA+45871  26.419  43.371   3.262
73546ION    NA+45872  24.574  15.127   1.670
73547ION    NA+45873  19.835  13.558   3.412
73548ION    NA+45874  34.212  27.039  11.809
73549ION    NA+45875  39.997  33.357  14.083
73550ION    NA+45876  23.254  37.585  14.982
73551ION    NA+45877  12.372  37.672   0.341
73552ION    NA+45878  32.040   7.358   4.602
73553ION    NA+45879  28.656   8.341   4.543
73554ION    NA+45880  42.507   8.638  13.190
73555ION    NA+45881  13.372  26.257  10.429
73556ION    NA+45882  42.679  16.735  13.877
73557ION    NA+45883  33.935  29.662   0.215
73558ION    NA+45884   4.446  44.117  12.125
73559ION    NA+45885  42.885  21.516  10.698
73560ION    NA+45886   3.270  21.931   1.334
73561ION    NA+45887  33.576  44.003   1.014
73562ION    NA+45888  44.258  37.065   3.843
73563ION    NA+45889  23.712  20.248  13.604
73564ION    NA+45890  15.674  41.113  14.687
73565ION    NA+45891  30.831  23.539   3.611
73566ION    NA+45892   3.354  42.585   0.342
73567ION    NA+45893  43.358   9.908  13.899
73568ION    NA+45894  23.769  17.726   3.185
73569ION    NA+45895  24.431  34.213   1.910
73570ION    NA+45896  18.407  43.521  13.021
73571ION    NA+45897   8.449  25.877   3.383
73572ION    NA+45898  34.600  23.198  13.275
73573ION    NA+45899  26.506   1.312  14.231
73574ION    NA+45900   3.696  33.372  14.362
73575ION    NA+45901  28.211  26.299  12.070
73576ION    NA+45902  41.632  26.719  11.156
73577ION    NA+45903  41.363   2.317  14.882
73578ION    NA+45904  40.877  35.696   4.667
73579ION    NA+45905  38.810  31.540   0.928
73580ION    NA+45906   7.450  13.175   0.893
73581ION    NA+45907  26.174  33.445  13.811
73582ION    NA+45908  42.102  35.485   1.862
73583ION    NA+45909  20.804  19.304  13.171
73584ION    NA+45910  13.933   8.525  13.122
73585ION    NA+45911  16.497  21.437  14.209
73586ION    NA+45912  38.513  15.305   0.472
73587ION    NA+45913  39.105  23.873   1.955
73588ION    NA+45914  36.876  20.820   4.699
73589ION    NA+45915   4.427   0.190  13.929
73590ION    NA+45916  32.805  21.799  13.766
73591ION    NA+45917  20.916  43.904   1.000
73592ION    NA+45918  35.489   6.361   2.918
73593ION    NA+45919   7.998   2.792   2.438
73594ION    NA+45920  13.801  37.782  11.081
73595ION    NA+45921  18.210  28.518   2.168
73596ION    NA+45922  43.015   0.362  10.621
73597ION    NA+45923  22.370  16.809  12.131
73598ION    NA+45924   7.893  38.060   1.156
73599ION    NA+45925  29.600  32.015  12.335
73600ION    NA+45926   2.288   8.249   1.207
73601ION    NA+45927  10.058  11.090  14.888
73602ION    NA+45928   8.217   1.148   0.346
73603ION    NA+45929  19.207   2.334  13.930
73604ION    NA+45930  29.637   3.701  11.106
73605ION    NA+45931   4.405  36.959   3.675
73606ION    NA+45932  28.898  28.102  14.071
73607ION    NA+45933   0.931  32.044  12.254
73608ION    NA+45934  29.691  38.656   1.367
73609ION    NA+45935  39.999   3.441  12.220
73610ION    NA+45936  37.948  44.541   3.896
73611ION    NA+45937  39.892  24.030   1.289
73612ION    NA+45938  35.223  40.969  12.717
73613ION    NA+45939   0.720  22.019  11.450
73614ION    NA+45940  19.353  26.037   1.871
73615ION    NA+45941  33.564   2.496   4.710
73616ION    NA+45942  10.278  42.986  14.577
73617ION    NA+45943  38.441  13.504   2.972
73618ION    NA+45944   9.842  11.927   3.908
73619ION    NA+45945   3.030  29.503   3.246
73620ION    NA+45946  33.840  13.357   3.227
73621ION    NA+45947   0.132  44.710   0.094
73622ION    NA+45948  35.485  24.237   4.968
73623ION    NA+45949   9.655   5.323  10.672
73624ION    NA+45950  44.111  20.045   3.510
73625ION    NA+45951   8.752  36.370   0.699
73626ION    NA+45952   5.623  16.802   3.237
73627ION    NA+45953  36.294  34.592  11.070
73628ION    NA+45954  34.434  21.275   2.134
73629ION    NA+45955  30.619  34.749   1.930
73630ION    NA+45956  35.295  30.115  12.918
73631ION    NA+45957  26.119  42.368  11.819
73632ION    NA+45958  40.196  22.527   1.307
73633ION    NA+45959   1.690  10.259  14.443
73634ION    NA+45960  13.030  42.119  10.798
73635ION    NA+45961  41.774  31.187   1.609
73636ION    NA+45962  25.439  17.623  10.536
73637ION    NA+45963   2.599  43.292   2.735
73638ION    NA+45964  20.422  12.034   4.217
73639ION    NA+45965   6.375  29.110  14.575
73640ION    NA+45966  26.141  36.305   1.320
73641ION    NA+45967  13.441  21.750   0.863
73642ION    NA+45968   0.726  40.899   9.941
73643ION    NA+45969  22.306  20.029   3.329
73644ION    NA+45970  24.866  43.113  11.316
73645ION    NA+45971  37.657  17.097  14.712
73646ION    NA+45972  39.613  28.711   0.033
73647ION    NA+45973   4.272  39.907  14.406
73648ION    NA+45974  40.918  43.006   1.072
73649ION    NA+45975   4.520  35.462  11.506
73650ION    NA+45976  23.986  10.112  14.923
73651ION    NA+45977  32.966  34.980   0.056
73652ION    NA+45978  32.966   6.937  11.830
73653ION    NA+45979  39.453  23.691  11.460
73654ION    NA+45980   8.378  31.046   1.244
73655ION    NA+45981  26.132   2.341  12.751
73656ION    NA+45982  14.573  31.337  13.897
73657ION    NA+45983  16.986   6.534  12.580
73658ION    NA+45984  34.798  42.249   0.103
73659ION    NA+45985  28.214   9.126   1.868
73660ION    NA+45986  33.269  27.485  11.222
73661ION    NA+45987  21.551  11.745  14.329
73662ION    NA+45988  41.348  18.276  12.649
73663ION    NA+45989  19.623  27.885  11.003
73664ION    NA+45990  42.797  23.929   1.839
73665ION    NA+45991  38.049  40.810   1.425
73666ION    NA+45992  29.240  21.683   2.772
73667ION    NA+45993  36.084  41.995   3.199
73668ION    NA+45994  18.950  42.003  13.352
73669ION    NA+45995  17.604   9.787   0.993
73670ION    NA+45996  10.332  22.794  11.817
73671ION    NA+45997  25.952  32.157  11.943
73672ION    NA+45998  42.579  31.498  11.226
73673ION    NA+45999  23.659  21.575   2.680
73674ION    NA+46000  17.759  26.833  11.103
73675ION    NA+46001  26.293   0.311   0.259
73676ION    NA+46002  40.833  18.463   0.534
73677ION    NA+46003  35.725  30.018   4.802
73678ION    NA+46004  15.593  41.385   3.093
73679ION    NA+46005  18.961   5.872   3.302
73680ION    NA+46006  22.224  43.106   4.145
73681ION    NA+46007  43.320  36.749   1.694
73682ION    NA+46008  23.008  23.693   0.298
73683ION    NA+46009   5.122  41.184  13.916
73684ION    NA+46010  23.780   8.345  10.901
73685ION    NA+46011  13.782   8.720   1.584
73686ION    NA+46012  21.410  37.017   4.137
73687ION    NA+46013  32.884  13.989  13.628
73688ION    NA+46014   5.437  20.782  14.699
73689ION    NA+46015  37.909  40.226  12.228
73690ION    NA+46016  20.985   3.672  12.451
73691ION    NA+46017  31.828  44.548  10.964
73692ION    NA+46018  33.662  32.338  12.340
73693ION    NA+46019  36.341  37.155  11.996
73694ION    NA+46020  13.291  44.016   1.259
73695ION    NA+46021  24.160  21.874  12.051
73696ION    NA+46022  30.028   9.751  11.169
73697ION    NA+46023   1.321   5.908   2.335
73698ION    NA+46024  30.323  33.256  13.325
73699ION    NA+46025   3.852  19.637  12.072
73700ION    NA+46026  44.752  41.514   1.262
73701ION    NA+46027  27.784  14.205  11.491
73702ION    NA+46028  14.738  26.903   1.353
73703ION    NA+46029   0.363  42.970   5.125
73704ION    NA+46030  17.661  25.841  10.864
73705ION    NA+46031  21.967  43.074  12.541
73706ION    NA+46032   7.507   0.739  14.966
73707ION    NA+46033  27.243  10.045   2.796
73708ION    NA+46034  23.747  33.111  12.253
73709ION    NA+46035  15.448  15.245  14.821
73710ION    NA+46036  11.146   9.135  14.405
73711ION    NA+46037  33.348  40.004   0.397
73712ION    NA+46038  11.953  29.356   3.421
73713ION    NA+46039  15.221   8.830  12.157
73714ION    NA+46040  43.641  10.754   1.329
73715ION    NA+46041  29.809  25.680   3.052
73716ION    NA+46042  18.729   7.198   3.896
73717ION    NA+46043  30.716  41.988   4.570
73718ION    NA+46044   9.340  27.918   3.529
73719ION    NA+46045  38.332  12.507   3.272
73720ION    NA+46046  18.365  34.816   3.260
73721ION    NA+46047  37.175   9.439   1.162
73722ION    NA+46048  25.956  42.380   3.814
73723ION    NA+46049   9.842  25.459  11.628
73724ION    NA+46050  42.759  17.201  12.012
73725ION    NA+46051  30.661  10.216  12.874
73726ION    NA+46052  21.018  26.510   0.965
73727ION    NA+46053  44.372  12.614   2.889
73728ION    NA+46054  25.985  26.416   4.097
73729ION    NA+46055   1.391   4.066  12.320
73730ION    NA+46056  34.479  15.859   2.462
73731ION    NA+46057  20.323  13.063  11.650
73732ION    NA+46058   6.591  18.377  11.342
73733ION    NA+46059  44.718   3.389  11.975
73734ION    NA+46060  10.242  21.036  13.491
73735ION    NA+46061   3.861   0.691  14.604
73736ION    NA+46062  12.988  36.841  10.613
73737ION    NA+46063   3.969  12.775  13.630
73738ION    NA+46064  28.094   2.405   3.342
73739ION    NA+46065  32.479  12.439   0.309
73740ION    NA+46066  10.743  20.731  14.300
73741ION    NA+46067  41.704  13.053   0.180
73742ION    NA+46068   6.300  22.379  12.978
73743ION    NA+46069  31.445   9.871   1.895
73744ION    NA+46070  17.070   6.863  13.564
73745ION    NA+46071  38.286  44.283   1.977
73746ION    NA+46072   2.765  32.912  11.354
73747ION    NA+46073   7.796  33.873   3.549
73748ION    NA+46074  26.647  24.909  12.726
73749ION    NA+46075  18.738  19.784   3.608
73750ION    NA+46076  10.394  15.870   0.030
73751ION    NA+46077  41.803  13.353  14.231
73752ION    NA+46078  39.111   8.611   2.196
73753ION    NA+46079  38.550  36.903  14.319
73754ION    NA+46080  12.264  11.225   0.309
73755ION    NA+46081   1.386   7.902   4.283
73756ION    NA+46082   4.697   1.151   4.998
73757ION    NA+46083   5.185  17.785   4.254
73758ION    NA+46084   8.560  18.994   3.109
73759ION    NA+46085  29.942  32.671  11.085
73760ION    NA+46086   7.704   0.831  11.257
73761ION    NA+46087   5.029  39.810  13.759
73762ION    NA+46088  42.692  32.307   0.968
73763ION    NA+46089  30.228  23.031   9.901
73764ION    NA+46090  17.129   2.159   2.234
73765ION    NA+46091  24.722   8.214  12.561
73766ION    NA+46092  25.510  34.093   0.267
73767ION    NA+46093  14.974  39.838  12.676
73768ION    NA+46094  19.247  21.549   2.529
73769ION    NA+46095   1.705  17.341   3.793
73770ION    NA+46096  24.554  36.808  14.546
73771ION    NA+46097  20.165  44.840   3.752
73772ION    NA+46098  18.322  17.341  12.971
73773ION    NA+46099  24.970  13.668   2.340
73774ION    NA+46100  18.405   6.581  10.244
73775ION    NA+46101   0.943  18.676  14.528
73776ION    NA+46102  42.559  25.997  11.094
73777ION    NA+46103  43.962  40.044   1.485
73778ION    NA+46104  17.746  43.709  14.356
73779ION    NA+46105   8.788  24.256   0.359
73780ION    NA+46106   5.379  37.401   0.392
73781ION    NA+46107  42.593   0.466  11.954
73782ION    NA+46108   0.281   9.946   0.718
73783ION    NA+46109   3.011  33.721  13.352
73784ION    NA+46110  24.122  28.647  10.773
73785ION    NA+46111  21.386  15.403  12.254
73786ION    NA+46112  18.806  21.119   0.368
73787ION    NA+46113  14.082   9.775   2.719
73788ION    NA+46114  44.623  42.808   4.503
73789ION    NA+46115  44.834  39.954  10.945
73790ION    NA+46116  17.060   1.897   4.152
73791ION    NA+46117  43.388  26.216   4.166
73792ION    NA+46118  11.691  35.655   0.158
73793ION    NA+46119  35.727  26.093   4.232
73794ION    NA+46120  16.367  25.281   0.455
73795ION    NA+46121   4.307   6.920  12.314
73796ION    NA+46122  31.978  11.474  13.754
73797ION    NA+46123  38.263   8.864  12.998
73798ION    NA+46124  26.825  17.212   1.623
73799ION    NA+46125  12.872  12.711  11.546
73800ION    NA+46126   1.463  22.036  11.885
73801ION    NA+46127  16.184  11.230  14.405
73802ION    NA+46128  13.269  18.544   3.368
73803ION    NA+46129  12.587  40.242  12.747
73804ION    NA+46130  25.993  27.168   5.416
73805ION    NA+46131  41.545  43.713   2.549
73806ION    NA+46132  12.932  38.041  12.094
73807ION    NA+46133  33.132  13.448   0.711
73808ION    NA+46134  26.933  37.382   2.861
73809ION    NA+46135  32.000  15.802  12.091
73810ION    NA+46136  26.007  28.564   0.971
73811ION    NA+46137  31.116   1.963   3.761
73812ION    NA+46138  20.987  20.404   1.643
73813ION    NA+46139  23.899   4.615  11.436
73814ION    NA+46140  11.615  27.904   1.299
73815ION    NA+46141  15.054  41.848  14.375
73816ION    NA+46142  26.828  41.238  13.961
73817ION    NA+46143  43.269   7.670   2.707
73818ION    NA+46144  36.176  19.450  10.716
73819ION    NA+46145   2.482  11.843   4.855
73820ION    NA+46146   4.598   5.693   1.500
73821ION    NA+46147  32.630  39.273  10.407
73822ION    NA+46148  20.298   3.512  14.638
73823ION    NA+46149  16.792  20.205   0.386
73824ION    NA+46150  23.484  10.846   2.186
73825ION    NA+46151  16.217  28.417  10.820
73826ION    NA+46152   3.645  28.188   4.296
73827ION    NA+46153  40.545  19.578  12.974
73828ION    NA+46154  42.963  11.694  12.054
73829ION    NA+46155  32.830  31.989   1.328
73830ION    NA+46156  26.416   5.624   2.544
73831ION    NA+46157  32.598  12.262  11.253
73832ION    NA+46158  14.603   5.914   4.048
73833ION    NA+46159  38.714  18.878  11.772
73834ION    NA+46160  41.416  13.687  11.126
73835ION    NA+46161  38.010   3.364   3.526
73836ION    NA+46162  21.225  22.598   3.256
73837ION    NA+46163  33.074  33.008   4.695
73838ION    NA+46164  25.809   3.998  14.419
73839ION    NA+46165  27.576  12.375   1.952
73840ION    NA+46166  25.689  35.619   0.699
73841ION    NA+46167  34.695  40.626  12.071
73842ION    NA+46168  44.123  39.814   2.814
73843ION    NA+46169  15.402  14.427  11.218
73844ION    NA+46170  28.640  41.896   1.229
73845ION    NA+46171  25.541  20.063  11.500
73846ION    NA+46172  30.614  44.194  12.818
73847ION    NA+46173  44.781  10.709   3.664
73848ION    NA+46174  27.682   6.792   4.700
73849ION    NA+46175  30.429  29.475  14.319
73850ION    NA+46176   2.366   2.965   2.266
73851ION    NA+46177  25.404  42.854   4.855
73852ION    NA+46178  20.094  39.130   0.645
73853ION    NA+46179  17.320  40.016   0.749
73854ION    NA+46180  28.290  14.264   2.141
73855ION    NA+46181  30.867  40.535  12.585
73856ION    NA+46182   7.458  13.463   3.708
73857ION    NA+46183  26.057  15.765   1.485
73858ION    NA+46184  22.294  13.558   3.190
73859ION    NA+46185   7.301  12.172  12.430
73860ION    NA+46186  28.239  24.327   3.728
73861ION    NA+46187  44.570  42.855  12.634
73862ION    NA+46188  21.453  37.190  11.393
73863ION    NA+46189  17.986  11.053   2.800
73864ION    NA+46190  15.737  17.060  14.390
73865ION    NA+46191  27.063   5.966  12.916
73866ION    NA+46192  28.230  28.987   3.400
73867ION    NA+46193   2.446  39.097   3.583
73868ION    NA+46194  20.764  21.607   2.335
73869ION    NA+46195  12.705  34.639   0.674
73870ION    NA+46196  15.269   0.472  14.963
73871ION    NA+46197  18.009  15.634  12.091
73872ION    NA+46198  43.160  40.505   2.993
73873ION    NA+46199  27.471  22.975   0.650
73874ION    NA+46200  17.379   5.512  11.977
73875ION    NA+46201  44.607  23.913  13.407
73876ION    NA+46202  20.617  14.601   3.563
73877ION    NA+46203  32.508  20.486  12.459
73878ION    NA+46204  42.323   8.129   1.148
73879ION    NA+46205   8.998  44.023   0.443
73880ION    NA+46206  39.113  17.160   2.612
73881ION    NA+46207  13.306  28.643  12.623
73882ION    NA+46208   3.181  14.705  14.380
73883ION    NA+46209  10.372  37.460  12.495
73884ION    NA+46210  41.722  38.387   2.705
73885ION    NA+46211  37.339  39.266   0.861
73886ION    NA+46212  33.173  42.404  12.678
73887ION    NA+46213  18.070  23.121  11.234
73888ION    NA+46214  44.262  33.707  10.946
73889ION    NA+46215   0.565  13.787   3.193
73890ION    NA+46216  27.419   2.719  14.592
73891ION    NA+46217  37.480  32.613   3.639
73892ION    NA+46218  25.559   0.476   0.918
73893ION    NA+46219  38.724  30.977   4.589
73894ION    NA+46220  10.335  40.515  13.388
73895ION    NA+46221  39.928   9.684   4.799
73896ION    NA+46222  11.988  11.953  12.621
73897ION    NA+46223   5.277  30.347   0.637
73898ION    NA+46224   2.014  21.554   4.632
73899ION    NA+46225   3.900  42.262  11.115
73900ION    NA+46226  15.766  37.902   3.691
73901ION    NA+46227  33.000  44.087   0.200
73902ION    NA+46228  18.162  32.621  10.845
73903ION    NA+46229  21.578  16.433  12.558
73904ION    NA+46230  37.866  26.610   1.070
73905ION    NA+46231  24.379  25.765  14.025
73906ION    NA+46232  38.921  17.784   4.350
73907ION    NA+46233  39.933   5.039  12.712
73908ION    NA+46234  16.121  19.753   2.665
73909ION    NA+46235  43.483  39.092  12.357
73910ION    NA+46236  26.521  29.620  13.376
73911ION    NA+46237   7.413   6.117  11.671
73912ION    NA+46238   8.654  35.162  14.193
73913ION    NA+46239   0.776  18.960  11.320
73914ION    NA+46240  44.171  10.875   5.554
73915ION    NA+46241  33.571  15.297   3.536
73916ION    NA+46242  23.334   0.919   1.972
73917ION    NA+46243  43.472   1.452  14.404
73918ION    NA+46244  31.262  14.865   4.108
73919ION    NA+46245  30.688   3.001  10.768
73920ION    NA+46246  40.558  27.385  12.592
73921ION    NA+46247  34.070   6.409  14.841
73922ION    NA+46248  32.991  24.633  11.588
73923ION    NA+46249   8.960  40.605  11.471
73924ION    NA+46250  33.762   2.494   2.996
73925ION    NA+46251  43.461   0.158   0.095
73926ION    NA+46252  11.450  23.905  10.935
73927ION    NA+46253  24.601   2.282  11.624
73928ION    NA+46254  16.865  19.911  12.608
73929ION    NA+46255   1.149  26.515  11.158
73930ION    NA+46256  22.812  35.874  12.038
73931ION    NA+46257  29.538   0.751   2.801
73932ION    NA+46258   7.578  26.436   1.833
73933ION    NA+46259  43.088   2.452  14.989
73934ION    NA+46260  14.522  38.342   0.112
73935ION    NA+46261  12.174  33.435   3.098
73936ION    NA+46262   8.453   6.911   4.026
73937ION    NA+46263  31.436  22.912   4.578
73938ION    NA+46264   3.847  27.556  13.160
73939ION    NA+46265   9.522  19.505  14.824
73940ION    NA+46266  22.161  36.121  14.842
73941ION    NA+46267  20.241  36.914  12.141
73942ION    NA+46268  18.670   4.908  13.918
73943ION    NA+46269  17.526  44.324  12.753
73944ION    NA+46270  27.130   7.844  12.285
73945ION    NA+46271  42.747  16.290  10.563
73946ION    NA+46272  20.944  17.638   2.064
73947ION    NA+46273  15.467  24.022   2.928
73948ION    NA+46274  10.725   7.278  13.893
73949ION    NA+46275  43.482   3.251   0.209
73950ION    NA+46276  24.681  39.190   9.733
73951ION    NA+46277  39.743  20.168  11.103
73952ION    NA+46278  29.995  22.442   1.687
73953ION    NA+46279   0.948  43.273  13.754
73954ION    NA+46280  43.545  29.742   3.365
73955ION    NA+46281  26.864  28.675  14.509
73956ION    NA+46282  19.876  34.440  11.463
73957ION    NA+46283   8.538   5.981  12.101
73958ION    NA+46284  23.748  40.941  11.826
73959ION    NA+46285  35.750  19.422  11.654
73960ION    NA+46286  39.056   7.648  12.637
73961ION    NA+46287  36.866   2.390  11.085
73962ION    NA+46288  21.259  27.377  11.009
73963ION    NA+46289  28.978  27.663   9.999
73964ION    NA+46290  20.264   1.146  13.324
73965ION    NA+46291  38.852  18.239  14.352
73966ION    NA+46292  28.652  28.274   0.960
73967ION    NA+46293  13.577  17.197   3.163
73968ION    NA+46294   8.385  18.359  12.463
73969ION    NA+46295  22.920  11.656   2.360
73970ION    NA+46296  17.681  39.388  11.431
73971ION    NA+46297  18.290  42.038  11.007
73972ION    NA+46298  19.203   9.901  13.371
73973ION    NA+46299   3.209  19.898  10.621
73974ION    NA+46300  18.126  10.191   4.035
73975ION    NA+46301  25.898  18.317   4.756
73976ION    NA+46302   9.905   6.773  10.337
73977ION    NA+46303  11.941  33.413  12.006
73978ION    NA+46304  26.633  34.427   2.783
73979ION    NA+46305   2.538   4.012  13.499
73980ION    NA+46306  35.647  33.413   4.047
73981ION    NA+46307   4.496  41.816  13.986
73982ION    NA+46308  24.266  15.588  12.952
73983ION    NA+46309  43.389  44.612   0.827
73984ION    NA+46310   1.129  24.518  12.054
73985ION    NA+46311  18.095   0.107  13.251
73986ION    NA+46312   6.626  25.657   1.393
73987ION    NA+46313  35.550  35.117  12.559
73988ION    NA+46314  40.672  10.827  10.413
73989ION    NA+46315   8.686  36.621  11.100
73990ION    NA+46316   6.683  11.116  13.701
73991ION    NA+46317  14.195  29.228  12.555
73992ION    NA+46318  13.399   2.454  11.519
73993ION    NA+46319  13.919  29.749   2.251
73994ION    NA+46320   9.336   3.017  13.134
73995ION    NA+46321  10.812  43.343  12.520
73996ION    NA+46322  13.573  38.628  14.974
73997ION    NA+46323   4.809  18.057   0.089
73998ION    NA+46324  11.510  20.219   3.061
73999ION    NA+46325  22.657  27.505  13.731
74000ION    NA+46326  26.776  16.479   0.942
74001ION    NA+46327   0.071   5.028   4.484
74002ION    NA+46328  11.999   6.985  10.907
74003ION    NA+46329  35.383  20.591  12.381
74004ION    NA+46330  43.303   3.960  11.622
74005ION    NA+46331  38.581  19.234   1.811
74006ION    NA+46332  24.593  41.335  12.928
74007ION    NA+46333   8.078  31.102  10.704
74008ION    NA+46334  39.553  26.401  12.026
74009ION    NA+46335  19.875  23.759  14.344
74010ION    NA+46336   2.148   0.384   4.902
74011ION    NA+46337  20.557   0.475   5.089
74012ION    NA+46338   0.847  34.947  11.109
74013ION    NA+46339  19.890   7.531   5.122
74014ION    NA+46340  16.288  32.347   1.874
74015ION    NA+46341  34.174   7.349  13.317
74016ION    NA+46342   9.862   2.315   0.272
74017ION    NA+46343   2.984   4.235   3.899
74018ION    NA+46344  18.083  29.866  11.249
74019ION    NA+46345   2.904  33.833  10.990
74020ION    NA+46346  14.965  16.583   2.395
74021ION    NA+46347  25.753   5.426   4.542
74022ION    NA+46348  39.746  14.571  12.266
74023ION    NA+46349  38.235  28.285   1.613
74024ION    NA+46350  11.015   0.655   1.717
74025ION    NA+46351   8.362  10.081   4.599
74026ION    NA+46352  35.058  23.324  14.155
74027ION    NA+46353  17.577   4.416   3.842
74028ION    NA+46354   8.499  41.750  11.727
74029ION    NA+46355  16.230  36.727   4.590
74030ION    NA+46356   2.821  23.312  14.538
74031ION    NA+46357  26.640  10.150   2.933
74032ION    NA+46358  34.469  15.770  11.210
74033ION    NA+46359  26.542  17.129  11.508
74034ION    NA+46360  33.033  40.559  11.537
74035ION    NA+46361  11.298  20.801   0.394
74036ION    NA+46362  26.765  23.947  12.975
74037ION    NA+46363  29.368  26.381  10.007
74038ION    NA+46364  36.126  32.342  13.837
74039ION    NA+46365  42.853  28.933  13.340
74040ION    NA+46366  35.026  24.730  13.871
74041ION    NA+46367  19.425  33.250   4.574
74042ION    NA+46368   3.015  36.905  14.038
74043ION    NA+46369  17.273  33.073  10.770
74044ION    NA+46370  16.296  12.308  12.074
74045ION    NA+46371  22.095   7.419   5.063
74046ION    NA+46372  17.818   7.264  11.831
74047ION    NA+46373  24.674  26.888  12.877
74048ION    NA+46374  27.041  31.496   1.408
74049ION    NA+46375  43.800  10.762   2.801
74050ION    NA+46376  26.066  27.317  11.153
74051ION    NA+46377   1.694   9.403  12.874
74052ION    NA+46378  37.765   4.174   3.747
74053ION    NA+46379  30.102  24.672  11.024
74054ION    NA+46380  29.224   1.254   0.314
74055ION    NA+46381  24.370  37.905   4.814
74056ION    NA+46382   0.769  27.485   3.269
74057ION    NA+46383  13.887  41.777  13.853
74058ION    NA+46384  17.991   2.860  13.498
74059ION    NA+46385  28.339   8.729   0.027
74060ION    NA+46386   0.580   9.815  11.240
74061ION    NA+46387   1.388  34.872   4.229
74062ION    NA+46388   0.382  43.128  12.943
74063ION    NA+46389  28.645  13.850  11.124
74064ION    NA+46390  20.030  21.496  11.887
74065ION    NA+46391  41.157  25.803  10.979
74066ION    NA+46392  11.143  24.325   5.475
74067ION    NA+46393  19.092  30.022  14.364
74068ION    NA+46394  27.194  39.380   4.245
74069ION    NA+46395  12.387  15.001   4.380
74070ION    NA+46396  22.521  27.547  14.721
74071ION    NA+46397  35.089  35.622  14.386
74072ION    NA+46398  40.194  27.798  13.269
74073ION    NA+46399  17.151  32.410  13.194
74074ION    NA+46400  11.393  40.407   3.849
74075ION    NA+46401  20.387  21.713  10.772
74076ION    NA+46402  38.041  13.032   5.442
74077ION    NA+46403  26.539  16.082  12.224
74078ION    NA+46404  18.903  36.826   0.680
74079ION    NA+46405  24.529   4.882  14.973
74080ION    NA+46406  15.779   3.248  10.813
74081ION    NA+46407  39.006  44.579   4.399
74082ION    NA+46408   9.198  13.993   3.850
74083ION    NA+46409   7.076   4.900   4.201
74084ION    NA+46410  40.056  11.303   3.643
74085ION    NA+46411   0.829  42.660  11.249
74086ION    NA+46412  34.450   5.175  11.273
74087ION    NA+46413  18.322  39.573  12.559
74088ION    NA+46414  21.200  24.816   0.855
74089ION    NA+46415  37.543  41.994  10.685
74090ION    NA+46416  38.683  15.852  11.286
74091ION    NA+46417  26.706   6.844   0.577
74092ION    NA+46418   7.608  29.148   2.969
74093ION    NA+46419  25.952  20.480  12.864
74094ION    NA+46420  24.961  21.423  11.935
74095ION    NA+46421  23.638  19.014  10.656
74096ION    NA+46422  40.330  19.714   4.525
74097ION    NA+46423  31.728   3.298  11.952
74098ION    NA+46424  42.767  36.744   4.052
74099ION    NA+46425  32.917  38.332   3.165
74100ION    NA+46426  10.250   9.560  14.276
74101ION    NA+46427  38.739  34.151  14.802
74102ION    NA+46428   6.798   2.967   3.193
74103ION    NA+46429  27.039  27.826   3.633
74104ION    NA+46430  38.926  43.940  14.883
74105ION    NA+46431   4.384   1.538   2.810
74106ION    NA+46432  37.568  13.274   1.150
74107ION    NA+46433   1.910   6.709   0.810
74108ION    NA+46434  19.111  40.024   3.741
74109ION    NA+46435  38.420  23.375   4.713
74110ION    NA+46436  14.746  13.671   4.390
74111ION    NA+46437  33.893   9.629   2.134
74112ION    NA+46438  44.809  24.586   0.049
74113ION    NA+46439   6.943  12.023  14.032
74114ION    NA+46440  42.188  17.616  11.396
74115ION    NA+46441  15.410  18.662   0.079
74116ION    NA+46442  13.025  22.336  11.164
74117ION    NA+46443  37.041  32.703  13.658
74118ION    NA+46444  13.556  41.551   4.561
74119ION    NA+46445  41.894  32.659   0.479
74120ION    NA+46446  10.672   5.560  13.571
74121ION    NA+46447   4.475   7.992  12.815
74122ION    NA+46448  36.374  12.493   4.753
74123ION    NA+46449  40.624   7.288  11.401
74124ION    NA+46450  13.880   3.130   4.191
74125ION    NA+46451  40.666  35.661  11.923
74126ION    NA+46452  25.128  16.025   4.772
74127ION    NA+46453   0.952   0.184  11.065
74128ION    NA+46454   6.958   6.879  10.797
74129ION    NA+46455  40.472  44.595  14.179
74130ION    NA+46456  36.439  12.143   2.432
74131ION    NA+46457  23.553   8.672   3.550
74132ION    NA+46458  37.118  37.241  10.750
74133ION    NA+46459   2.460   1.047  13.605
74134ION    NA+46460  23.902  35.172   2.128
74135ION    NA+46461   6.944  16.393   0.799
74136ION    NA+46462  25.452  44.655   0.345
74137ION    NA+46463  14.434  29.157   3.526
74138ION    NA+46464  42.833   7.621   0.398
74139ION    NA+46465  30.569  20.820  10.313
74140ION    NA+46466  32.063  38.761  14.456
74141ION    NA+46467  26.699  10.048   2.065
74142ION    NA+46468   1.651  16.468   4.280
74143ION    NA+46469  38.110  43.340   3.400
74144ION    NA+46470   8.894   2.048   2.935
74145ION    NA+46471  24.945  38.095  14.279
74146ION    NA+46472  17.155  15.318  10.677
74147ION    NA+46473  25.823  25.463   2.068
74148ION    NA+46474  33.427  34.239   0.678
74149ION    NA+46475  17.605  31.422   1.287
74150ION    NA+46476  35.347  28.953  13.915
74151ION    NA+46477  30.443  27.833   3.212
74152ION    NA+46478   9.852  16.944  10.375
74153ION    NA+46479  18.371  13.784   2.319
74154ION    NA+46480   1.445  42.837  14.364
74155ION    NA+46481  22.940   4.728   0.233
74156ION    NA+46482  34.987   2.380   3.776
74157ION    NA+46483  11.102  43.531  14.419
74158ION    NA+46484  42.301  44.640  14.491
74159ION    NA+46485  42.368  10.686   3.675
74160ION    NA+46486   9.771  21.700  11.617
74161ION    NA+46487  19.230  16.891  10.719
74162ION    NA+46488  36.482  12.320  11.494
74163ION    NA+46489   9.151  20.641  11.907
74164ION    NA+46490  37.859  23.458   2.899
74165ION    NA+46491  39.097  11.045  11.793
74166ION    NA+46492  35.103  29.311   3.650
74167ION    NA+46493  25.684  11.797   0.300
74168ION    NA+46494  31.566   7.440   0.762
74169ION    NA+46495  29.505  13.812  11.634
74170ION    NA+46496  34.989  27.969  11.553
74171ION    NA+46497  18.328  30.348   2.054
74172ION    NA+46498  40.446  13.370  14.258
74173ION    NA+46499   4.522  42.974   3.776
74174ION    NA+46500  34.682   5.096  14.010
74175ION    NA+46501   5.841  39.154   4.537
74176ION    NA+46502  23.095  38.165  10.937
74177ION    NA+46503  38.288  14.276   4.783
74178ION    NA+46504  12.378  44.553  11.983
74179ION    NA+46505  24.968  42.448  14.917
74180ION    NA+46506  38.650  33.857  12.267
74181ION    NA+46507  29.759  34.034  11.198
74182ION    NA+46508  34.066  36.022   0.473
74183ION    NA+46509  26.629   5.732   1.573
74184ION    NA+46510  13.187  25.218  10.348
74185ION    NA+46511  23.679  36.866   0.727
74186ION    NA+46512  18.785  28.738   4.256
74187ION    NA+46513  26.380   5.474  14.069
74188ION    NA+46514   4.500  31.659   1.673
74189ION    NA+46515   4.905  39.966   5.062
74190ION    NA+46516  23.001   4.994  13.867
74191ION    NA+46517  40.714  16.744  13.097
74192ION    NA+46518  38.003  22.080   0.526
74193ION    NA+46519  31.050  27.028   3.919
74194ION    NA+46520  44.422  13.309   3.610
74195ION    NA+46521   3.819  21.977  12.272
74196ION    NA+46522  10.415  36.211   2.534
74197ION    NA+46523  34.299  24.333   3.160
74198ION    NA+46524  16.378  35.204  11.117
74199ION    NA+46525  23.439   5.391  14.674
74200ION    NA+46526   8.848  17.300   2.885
74201ION    NA+46527  17.437  42.794  12.283
74202ION    NA+46528  34.431  11.291  11.597
74203ION    NA+46529   1.772  15.518  14.893
74204ION    NA+46530  11.417  33.922  13.428
74205ION    NA+46531  30.240   5.045  12.472
74206ION    NA+46532   8.894  19.323   1.271
74207ION    NA+46533  27.764  11.915  13.301
74208ION    NA+46534   3.732  40.485   0.957
74209ION    NA+46535   2.621  29.476   1.848
74210ION    NA+46536  44.831   9.176   3.866
74211ION    NA+46537  10.866  16.419  11.111
74212ION    NA+46538  33.403  13.425  14.120
74213ION    NA+46539  31.320  25.993  11.207
74214ION    NA+46540  41.510  27.909   4.354
74215ION    NA+46541  13.485   4.101  11.057
74216ION    NA+46542  14.549  36.698   2.250
74217ION    NA+46543  29.061   3.225   2.812
74218ION    NA+46544   0.287  16.784  14.930
74219ION    NA+46545   3.371  37.714   0.993
74220ION    NA+46546  17.598  29.061  14.881
74221ION    NA+46547   9.027  38.680  11.030
74222ION    NA+46548  38.824  33.867  11.282
74223ION    NA+46549   1.621  41.685  12.066
74224ION    NA+46550  17.961  40.832   4.387
74225ION    NA+46551  43.741  32.210   0.220
74226ION    NA+46552  23.348  31.872  14.635
74227ION    NA+46553  25.427   5.255   1.781
74228ION    NA+46554  21.639   2.412  12.980
74229ION    NA+46555  36.437  21.024   3.913
74230ION    NA+46556  23.526   5.885   2.148
74231ION    NA+46557   8.881  37.754  13.381
74232ION    NA+46558   5.526  20.107  11.125
74233ION    NA+46559  25.885  27.582   0.201
74234ION    NA+46560   5.227   1.223   1.759
74235ION    NA+46561  19.596  28.139   0.749
74236ION    NA+46562  40.733   1.226  13.362
74237ION    NA+46563  32.000  12.968   1.390
74238ION    NA+46564  27.166  44.847  11.109
74239ION    NA+46565   0.970  39.823   4.360
74240ION    NA+46566  41.796  35.325   2.901
74241ION    NA+46567  43.345  31.856  10.928
74242ION    NA+46568  20.426   1.246   0.825
74243ION    NA+46569  37.112  37.440  13.905
74244ION    NA+46570  17.737   8.717  11.872
74245ION    NA+46571  37.833  24.470  12.145
74246ION    NA+46572   7.965  25.532   0.311
74247ION    NA+46573   6.871  25.663  14.446
74248ION    NA+46574  20.887  25.913  11.948
74249ION    NA+46575  19.520  41.034   4.606
74250ION    NA+46576  21.047   7.666  10.854
74251ION    NA+46577  33.145   6.846   3.173
74252ION    NA+46578  10.042  11.229  11.384
74253ION    NA+46579  15.597  42.679  12.894
74254ION    NA+46580  40.966  34.597  13.484
74255ION    NA+46581  22.608  32.549  13.758
74256ION    NA+46582  36.924  22.142   0.383
74257ION    NA+46583   3.953   4.831   4.737
74258ION    NA+46584  13.072  27.998   4.234
74259ION    NA+46585   3.745  43.831  11.104
74260ION    NA+46586  24.348  34.428   4.022
74261ION    NA+46587  16.200  34.976   0.419
74262ION    NA+46588  27.433  34.377  11.086
74263ION    NA+46589  11.742  34.882   0.790
74264ION    NA+46590  15.519  11.699   2.801
74265ION    NA+46591  12.509   7.727   0.826
74266ION    NA+46592  40.558   8.658  11.909
74267ION    NA+46593  29.749  34.904   2.017
74268ION    NA+46594  31.938   2.811  14.327
74269ION    NA+46595   8.117  20.061   0.504
74270ION    NA+46596   7.281   3.590  14.796
74271ION    NA+46597  32.834  22.218   0.835
74272ION    NA+46598  18.521   0.903  14.520
74273ION    NA+46599  23.231  10.606  11.054
74274ION    NA+46600  19.828  26.523  12.863
74275ION    NA+46601   7.362  43.501  14.000
74276ION    NA+46602   1.433  32.124  14.879
74277ION    NA+46603  15.685  35.845   1.334
74278ION    NA+46604   3.646   3.014   3.600
74279ION    NA+46605  41.308  23.290   0.077
74280ION    NA+46606   5.270  31.953  11.111
74281ION    NA+46607   7.188  26.383  10.945
74282ION    NA+46608  31.785  19.673  11.184
74283ION    NA+46609  27.176  35.106  12.287
74284ION    NA+46610  41.416  13.162   2.157
74285ION    NA+46611   0.808  41.311  12.344
74286ION    NA+46612  38.372  17.527   3.523
74287ION    NA+46613   7.051  14.375  13.817
74288ION    NA+46614  19.814  39.919  14.050
74289ION    NA+46615  27.059  26.562  14.043
74290ION    NA+46616  30.916  26.513   3.073
74291ION    NA+46617  36.192   1.723  10.767
74292ION    NA+46618   8.397   3.924  11.043
74293ION    NA+46619   5.048  26.462   1.608
74294ION    NA+46620  21.804  20.620  11.285
74295ION    NA+46621   4.696  33.577   2.659
74296ION    NA+46622  40.802  44.720   1.708
74297ION    NA+46623  30.630  38.990  12.423
74298ION    NA+46624   1.519  28.123  11.336
74299ION    NA+46625   7.453  25.771  12.128
74300ION    NA+46626  27.235  26.145  11.003
74301ION    NA+46627  34.969   8.764  11.003
74302ION    NA+46628  40.921   9.988  13.302
74303ION    NA+46629  30.044  30.977  11.653
74304ION    NA+46630  23.067  16.418  12.614
74305ION    NA+46631  19.782  22.684   0.494
74306ION    NA+46632  13.509   4.053   4.090
74307ION    NA+46633  24.801  17.153  11.160
74308ION    NA+46634  42.238  38.909  11.965
74309ION    NA+46635  38.945  14.845   1.663
74310ION    NA+46636  43.052   7.815   4.523
74311ION    NA+46637  40.527  31.214   4.264
74312ION    NA+46638  27.869  29.583  12.964
74313ION    NA+46639  18.243  12.791  13.822
74314ION    NA+46640  33.937  33.320   0.492
74315ION    NA+46641  41.433  42.300   1.682
74316ION    NA+46642  20.470  24.980  14.799
74317ION    NA+46643  38.086   7.155   0.809
74318ION    NA+46644  36.933  41.133   3.999
74319ION    NA+46645  29.161  29.119   0.498
74320ION    NA+46646  37.767  36.911  12.016
74321ION    NA+46647  10.697   4.625   5.051
74322ION    NA+46648  26.494  18.356  12.644
74323ION    NA+46649  22.248  34.085   0.822
74324ION    NA+46650  21.189   8.685   4.448
74325ION    NA+46651  15.137  37.262  12.928
74326ION    NA+46652  18.673   3.567  13.312
74327ION    NA+46653  39.559  33.538   2.113
74328ION    NA+46654  20.965   1.576  11.894
74329ION    NA+46655  36.911   5.294  14.310
74330ION    NA+46656  38.850   2.870  13.798
74331ION    NA+46657  19.736  28.756   9.789
74332ION    NA+46658  10.914  38.060  10.535
74333ION    NA+46659  30.728  32.201  11.564
74334ION    NA+46660  40.729  42.889  14.391
74335ION    NA+46661   7.940  29.464  13.421
74336ION    NA+46662  23.215  34.681  11.188
74337ION    NA+46663  43.275  26.208   1.390
74338ION    NA+46664  23.610  20.916  13.156
74339ION    NA+46665  20.336  30.100  13.583
74340ION    NA+46666  35.643  22.670  14.088
74341ION    NA+46667  28.925  25.054   3.708
74342ION    NA+46668  37.618   5.125  13.303
74343ION    NA+46669  14.634  43.990   3.359
74344ION    NA+46670   2.313  25.312  12.580
74345ION    NA+46671   4.695   6.605  13.181
74346ION    NA+46672  36.534  27.287   0.471
74347ION    NA+46673   7.988  11.941  11.741
74348ION    NA+46674  34.416   4.555  11.937
74349ION    NA+46675   0.131  39.871   3.696
74350ION    NA+46676   4.874  23.007  13.226
74351ION    NA+46677  25.808   1.562  14.903
74352ION    NA+46678  23.501   6.818  13.069
74353ION    NA+46679  15.553  44.282   2.586
74354ION    NA+46680  13.536  38.566  11.447
74355ION    NA+46681  25.708  11.196  13.987
74356ION    NA+46682  40.570  21.168   4.547
74357ION    NA+46683  11.628  10.233   3.393
74358ION    NA+46684   2.012  41.371   1.690
74359ION    NA+46685  13.895   8.071   2.339
74360ION    NA+46686  36.020  29.708  13.917
74361ION    NA+46687  42.942   0.711   4.826
74362ION    NA+46688   0.401  26.589  13.363
74363ION    NA+46689  31.339  38.551   1.354
74364ION    NA+46690  28.748  11.644   5.112
74365ION    NA+46691  23.164  19.502   3.053
74366ION    NA+46692  36.103  39.610   0.526
74367ION    NA+46693  33.346  18.256  14.011
74368ION    NA+46694  11.847  24.193   9.905
74369ION    NA+46695  37.053  43.415   4.271
74370ION    NA+46696  17.422  26.764   0.400
74371ION    NA+46697  30.962  10.806  14.034
74372ION    NA+46698  14.032  30.708  10.426
74373ION    NA+46699  29.653  31.113   1.431
74374ION    NA+46700   8.742  10.004  10.005
74375ION    NA+46701  33.551  36.487  11.904
74376ION    NA+46702  14.748   7.921   2.842
74377ION    NA+46703  34.086  18.600  12.969
74378ION    NA+46704  11.625  19.827  14.778
74379ION    NA+46705  15.377   7.386   0.802
74380ION    NA+46706  20.418  38.083  10.952
74381ION    NA+46707  37.909  38.636   1.178
74382ION    NA+46708  38.611  37.974  14.309
74383ION    NA+46709  31.241   5.999  13.141
74384ION    NA+46710   9.952  15.153   9.984
74385ION    NA+46711  33.815  29.323   1.049
74386ION    NA+46712  25.094  23.648   0.307
74387ION    NA+46713  22.947  28.876  13.990
74388ION    NA+46714   2.415  43.259  11.233
74389ION    NA+46715   0.360  36.058   4.140
74390ION    NA+46716  11.417   8.170   0.520
74391ION    NA+46717  36.457  37.984  10.639
74392ION    NA+46718  43.079   9.769   5.213
74393ION    NA+46719  12.745  28.959  11.463
74394ION    NA+46720  40.427  15.122   0.408
74395ION    NA+46721  20.063  44.783   2.758
74396ION    NA+46722  42.146  40.149   9.662
74397ION    NA+46723  16.860  18.762  11.970
74398ION    NA+46724  26.176  16.825   9.770
74399ION    NA+46725  41.594  34.237   1.226
74400ION    NA+46726  19.956  30.546  14.255
74401ION    NA+46727  37.750  23.531   0.383
74402ION    NA+46728   9.411  31.080  13.939
74403ION    NA+46729  34.787  30.435  13.718
74404ION    NA+46730  36.604   6.964  14.537
74405ION    NA+46731  41.289   5.792  13.989
74406ION    NA+46732  12.403   4.675   2.214
74407ION    NA+46733  16.256  29.349   1.653
74408ION    NA+46734  22.357  34.939  11.180
74409ION    NA+46735  36.076  44.358  13.365
74410ION    NA+46736   4.193   2.066  13.535
74411ION    NA+46737  43.681  14.167   2.894
74412ION    NA+46738  33.174  39.451   9.704
74413ION    NA+46739  21.069  44.265   4.569
74414ION    NA+46740  40.822  17.441   0.386
74415ION    NA+46741   5.237  10.931   0.938
74416ION    NA+46742  21.130  14.079  10.728
74417ION    NA+46743  13.979  36.303   2.979
74418ION    NA+46744  27.499  29.535   0.643
74419ION    NA+46745  30.349  24.732   1.722
74420ION    NA+46746  44.771  36.375  10.660
74421ION    NA+46747  22.323  42.828   0.566
74422ION    NA+46748  12.033  24.163   5.561
74423ION    NA+46749  44.938   3.010   1.995
74424ION    NA+46750  22.458   0.800   1.506
74425ION    NA+46751  33.446   3.574  14.519
74426ION    NA+46752  42.284  30.261  13.480
74427ION    NA+46753  39.303  37.570   3.530
74428ION    NA+46754  24.466   8.602   2.352
74429ION    NA+46755  11.274   7.649   1.937
74430ION    NA+46756  27.919  39.601   2.421
74431ION    NA+46757  13.357  27.145  14.359
74432ION    NA+46758  19.354  12.638  11.635
74433ION    NA+46759   0.556  43.755   3.191
74434ION    NA+46760  34.774  41.301  10.849
74435ION    NA+46761  36.104  22.709  11.593
74436ION    NA+46762   0.951   5.057  11.609
74437ION    NA+46763   3.794  32.623   2.744
74438ION    NA+46764  40.088   1.142   2.130
74439ION    NA+46765  44.256   2.896   1.273
74440ION    NA+46766  30.641  26.365  10.573
74441ION    NA+46767   7.639   9.546   0.673
74442ION    NA+46768   9.334  18.139   0.943
74443ION    NA+46769  19.745  37.784  13.371
74444ION    NA+46770  13.848  32.889   0.358
74445ION    NA+46771  44.517   5.630  14.982
74446ION    NA+46772  44.992  17.518   1.010
74447ION    NA+46773  22.330  14.873   2.949
74448ION    NA+46774  26.882   1.197   0.151
74449ION    NA+46775  34.968  21.227   5.530
74450ION    NA+46776  26.080  42.809  12.716
74451ION    NA+46777  38.353  16.011  13.073
74452ION    NA+46778   3.530  29.572  12.000
74453ION    NA+46779  28.572  10.896  12.972
74454ION    NA+46780  44.969  20.294  10.772
74455ION    NA+46781  30.711   3.757   0.270
74456ION    NA+46782  12.140  36.228  14.123
74457ION    NA+46783  31.974  24.776   0.454
74458ION    NA+46784  34.360  36.793   2.809
74459ION    NA+46785   9.681   7.706  10.647
74460ION    NA+46786  37.343   3.000  12.468
74461ION    NA+46787  15.028  44.279  11.071
74462ION    NA+46788  16.698  34.016  14.844
74463ION    NA+46789  23.618   2.784   2.666
74464ION    NA+46790  25.927  17.304   0.360
74465ION    NA+46791  10.237  15.512  11.621
74466ION    NA+46792   0.725  23.637   1.820
74467ION    NA+46793  16.680  16.634  13.729
74468ION    NA+46794  19.881  11.754  10.767
74469ION    NA+46795   3.980  24.246   4.313
74470ION    NA+46796   0.701  16.162   4.144
74471ION    NA+46797  12.830  27.930  10.683
74472ION    NA+46798   9.318   1.765  12.042
74473ION    NA+46799  21.459  25.760  14.285
74474ION    NA+46800  38.547  43.122  12.806
74475ION    NA+46801  23.522  32.978   0.946
74476ION    NA+46802  35.592  30.408   1.779
74477ION    NA+46803  22.518  19.687   0.323
74478ION    NA+46804   1.312  26.434  12.002
74479ION    NA+46805  17.481  20.239   4.505
74480ION    NA+46806  14.303  19.851  13.621
74481ION    NA+46807   3.672  28.566  13.506
74482ION    NA+46808  12.989  24.137   5.471
74483ION    NA+46809  38.626  33.390   2.439
74484ION    NA+46810  35.052  42.692  11.157
74485ION    NA+46811  19.351  13.474   1.439
74486ION    NA+46812  17.565  34.101   2.316
74487ION    NA+46813  43.015  33.518  13.824
74488ION    NA+46814   7.869  13.116  11.554
74489ION    NA+46815   5.076  24.296  11.104
74490ION    NA+46816   3.830  33.330  11.997
74491ION    NA+46817  20.332  16.298  11.745
74492ION    NA+46818  39.955  35.624  10.764
74493ION    NA+46819  35.827   3.325   4.616
74494ION    NA+46820  18.234  18.972  13.754
74495ION    NA+46821  39.160   8.884  13.104
74496ION    NA+46822  14.426  35.832   3.627
74497ION    NA+46823  12.216  21.724   3.874
74498ION    NA+46824  15.859  27.414   4.227
74499ION    NA+46825  34.053   6.437   3.068
74500ION    NA+46826  43.759  24.757   0.224
74501ION    NA+46827   1.775  15.333  13.541
74502ION    NA+46828  22.684   3.837   2.521
74503ION    NA+46829  37.012   5.864   3.908
74504ION    NA+46830   1.765   3.254  10.186
74505ION    NA+46831  20.153  44.631   4.738
74506ION    NA+46832  26.638   9.820   0.289
74507ION    NA+46833   9.750  38.377   2.364
74508ION    NA+46834  37.320  29.121   9.645
74509ION    NA+46835   1.251   7.943  12.534
74510ION    NA+46836  14.015  44.554   3.907
74511ION    NA+46837  13.663  25.053   4.846
74512ION    NA+46838  10.586  10.506   1.840
74513ION    NA+46839   9.363   4.568   3.241
74514ION    NA+46840  39.162  10.340   4.793
74515ION    NA+46841  10.752   6.453  11.313
74516ION    NA+46842  21.459  16.762   4.047
74517ION    NA+46843  36.082  24.049   1.207
74518ION    NA+46844  24.298  20.392  12.975
74519ION    NA+46845   7.312  11.287   1.504
74520ION    NA+46846   4.870  38.777  10.793
74521ION    NA+46847  43.004  31.347   1.393
74522ION    NA+46848  41.365  39.506   2.345
74523ION    NA+46849  18.457  23.090  14.254
74524ION    NA+46850  40.305  16.666  11.294
74525ION    NA+46851  42.564  19.046   0.848
74526ION    NA+46852  40.722  37.834   0.737
74527ION    NA+46853   4.550  20.962  14.742
74528ION    NA+46854  19.093   8.425  13.470
74529ION    NA+46855   9.660  32.556  13.109
74530ION    NA+46856  35.578  32.081   4.552
74531ION    NA+46857   8.157  12.816  12.463
74532ION    NA+46858  23.778  15.089   5.146
74533ION    NA+46859  28.684   4.238  14.414
74534ION    NA+46860  35.399  37.799  10.868
74535ION    NA+46861  21.731   6.217   0.459
74536ION    NA+46862  18.289   6.795   1.273
74537ION    NA+46863   9.672   5.834   2.739
74538ION    NA+46864  36.029  40.181   3.450
74539ION    NA+46865   8.266  10.703  11.991
74540ION    NA+46866  35.665  36.413   1.278
74541ION    NA+46867  44.754   4.937  13.142
74542ION    NA+46868  39.263  33.007   2.907
74543ION    NA+46869  21.021  20.658  12.591
74544ION    NA+46870  14.388  25.183  10.545
74545ION    NA+46871  19.470  35.025  13.875
74546ION    NA+46872  34.579  17.610   1.905
74547ION    NA+46873  42.346  12.352   0.870
74548ION    NA+46874  13.444  29.440   4.167
74549ION    NA+46875   8.349  21.934  13.033
74550ION    NA+46876   6.637  28.553   3.417
74551ION    NA+46877  29.487   4.452   2.841
74552ION    NA+46878  17.155   1.844  10.707
74553ION    NA+46879  21.447   1.007  11.383
74554ION    CL-46880  14.320  30.308   1.221
74555ION    CL-46881  25.410   2.356   4.123
74556ION    CL-46882  24.588  13.680   1.342
74557ION    CL-46883   1.716  13.836   0.422
74558ION    CL-46884  17.674  22.303  13.575
74559ION    CL-46885  20.285  33.691   3.363
74560ION    CL-46886  12.363  12.691   1.325
74561ION    CL-46887  41.982  26.988  14.548
74562ION    CL-46888  38.623  21.218  11.248
74563ION    CL-46889  21.704  18.134  13.379
74564ION    CL-46890  16.082  40.849   5.108
74565ION    CL-46891  37.100   1.398   2.315
74566ION    CL-46892  29.889  32.613   1.387
74567ION    CL-46893  18.632  27.148   0.158
74568ION    CL-46894  38.258  26.496  13.206
74569ION    CL-46895  43.720   9.680  11.573
74570ION    CL-46896   0.041  38.991   1.355
74571ION    CL-46897  32.457  21.693  14.040
74572ION    CL-46898  19.264  41.932  10.226
74573ION    CL-46899  42.535   0.689  11.572
74574ION    CL-46900  12.348   6.320   1.382
74575ION    CL-46901  38.778  15.851  13.128
74576ION    CL-46902   9.888  36.260   4.126
74577ION    CL-46903  40.933  23.427  14.854
74578ION    CL-46904   6.223  17.498   1.941
74579ION    CL-46905   8.901  20.738   2.876
74580ION    CL-46906  11.261  29.379   1.110
74581ION    CL-46907   0.142   3.172   5.242
74582ION    CL-46908  26.655  21.294   9.935
74583ION    CL-46909  37.250  44.973   2.279
74584ION    CL-46910  39.037  40.799   4.012
74585ION    CL-46911  15.324  25.573   1.403
74586ION    CL-46912  34.377  26.227  14.440
74587ION    CL-46913  10.117  16.792  10.022
74588ION    CL-46914  37.409   0.341  13.102
74589ION    CL-46915  32.021  41.614  11.500
74590ION    CL-46916  32.929  17.644   4.914
74591ION    CL-46917  24.045  30.894  11.527
74592ION    CL-46918   8.764   9.695   2.656
74593ION    CL-46919  26.135  26.867   1.952
74594ION    CL-46920  42.512  25.546  11.033
74595ION    CL-46921  43.903  28.269   0.483
74596ION    CL-46922  37.379  17.582  11.595
74597ION    CL-46923  11.347  42.677   1.376
74598ION    CL-46924  22.620  14.664   1.329
74599ION    CL-46925  44.909   0.610  11.857
74600ION    CL-46926   3.638  13.627  11.993
74601ION    CL-46927  18.236  33.193   4.142
74602ION    CL-46928  36.332  14.648   2.934
74603ION    CL-46929  31.350  37.623   2.206
74604ION    CL-46930  11.722  20.128   2.678
74605ION    CL-46931   1.093  21.842  11.676
74606ION    CL-46932   9.813  24.623   4.612
74607ION    CL-46933  10.587  17.357  14.785
74608ION    CL-46934   3.536  18.351  13.596
74609ION    CL-46935  15.288  32.997  13.413
74610ION    CL-46936  25.990  11.480   1.428
74611ION    CL-46937  17.275   6.520   4.997
74612ION    CL-46938  21.732  26.122   3.076
74613ION    CL-46939   1.867  16.467  13.121
74614ION    CL-46940  35.392  39.002   1.774
74615ION    CL-46941  44.271   2.259  14.427
74616ION    CL-46942   9.864  26.155   2.354
74617ION    CL-46943  11.147  33.398  11.106
74618ION    CL-46944  32.815   8.668   2.671
74619ION    CL-46945  10.699  34.910   0.315
74620ION    CL-46946  15.110  37.815  11.576
74621ION    CL-46947   0.386  44.828  14.718
74622ION    CL-46948   8.525  22.024   2.784
74623ION    CL-46949  26.684  31.258   1.554
74624ION    CL-46950  43.551  18.667  12.887
74625ION    CL-46951   5.364  33.102  14.426
74626ION    CL-46952  11.752   6.596   5.068
74627ION    CL-46953  27.905  11.901  12.851
74628ION    CL-46954  22.260  39.233   3.154
74629ION    CL-46955  43.173  23.342   0.256
74630ION    CL-46956  18.512   7.915   2.005
74631ION    CL-46957  41.245  44.710   1.656
74632ION    CL-46958   1.081   8.050  12.935
74633ION    CL-46959  24.114  28.997   1.282
74634ION    CL-46960  38.711   8.890  13.058
74635ION    CL-46961   7.125  23.813   3.684
74636ION    CL-46962  15.694   6.359   3.160
74637ION    CL-46963   8.763  14.776   4.968
74638ION    CL-46964   3.616   8.485   1.237
74639ION    CL-46965   7.628  22.596  14.776
74640ION    CL-46966  22.618  32.578  12.414
74641ION    CL-46967   1.550  21.113   2.577
74642ION    CL-46968  30.998   9.200  14.728
74643ION    CL-46969  36.123   2.677   1.879
74644ION    CL-46970  27.218  19.779  11.612
74645ION    CL-46971  11.703  29.640   3.659
74646ION    CL-46972  36.385  26.060  12.355
74647ION    CL-46973  44.658  33.509  11.054
74648ION    CL-46974  37.843   4.429  10.696
74649ION    CL-46975  12.779  38.659   1.300
74650ION    CL-46976  11.767  18.552   4.395
74651ION    CL-46977   0.209  10.856   3.713
74652ION    CL-46978  40.998  41.432   4.245
74653ION    CL-46979  36.065  33.819   4.224
74654ION    CL-46980  32.944  15.816   0.761
74655ION    CL-46981  32.776  11.844  11.216
74656ION    CL-46982  24.112  30.083   5.087
74657ION    CL-46983   9.121  30.243  12.001
74658ION    CL-46984  25.416  44.478  12.601
74659ION    CL-46985   8.354  24.701  10.191
74660ION    CL-46986  30.580  43.757   4.587
74661ION    CL-46987  38.943  18.750  13.095
74662ION    CL-46988   2.072  41.814  12.149
74663ION    CL-46989  16.513  41.381  10.639
74664ION    CL-46990  14.515   7.373  11.253
74665ION    CL-46991   0.007   6.681  13.509
74666ION    CL-46992  29.958  10.111   1.897
74667ION    CL-46993  31.596  19.415  11.496
74668ION    CL-46994  17.601  39.091  11.107
74669ION    CL-46995  39.528  24.469  12.389
74670ION    CL-46996   0.322  15.257   3.599
74671ION    CL-46997   2.321  38.855   0.935
74672ION    CL-46998  42.719  26.533   0.049
74673ION    CL-46999  27.711  29.139   0.563
74674ION    CL-47000  24.036  10.126   3.943
74675ION    CL-47001  23.019  38.506  12.336
74676ION    CL-47002   5.965  20.020  11.122
74677ION    CL-47003  26.539  22.100   3.860
74678ION    CL-47004   5.986  43.449   3.747
74679ION    CL-47005  37.015  33.115  13.490
74680ION    CL-47006  26.009  14.485   0.647
74681ION    CL-47007  13.802  37.972   4.792
74682ION    CL-47008  14.222  44.772   4.240
74683ION    CL-47009   3.774  42.047   1.855
74684ION    CL-47010   5.298  27.044   4.148
74685ION    CL-47011  20.371  17.124   5.208
74686ION    CL-47012  21.323  40.559   3.180
74687ION    CL-47013  19.093  24.640   3.413
74688ION    CL-47014  32.786  41.067   2.540
74689ION    CL-47015   0.628  27.432  14.373
74690ION    CL-47016  43.964  14.528   2.922
74691ION    CL-47017  21.822  20.882  11.661
74692ION    CL-47018  32.022  24.085   1.893
74693ION    CL-47019  26.746  22.096  14.268
74694ION    CL-47020  32.977  36.507   3.965
74695ION    CL-47021   2.952   1.172   2.849
74696ION    CL-47022  41.519  23.592  13.582
74697ION    CL-47023  44.620   3.828  11.908
74698ION    CL-47024  11.832   5.914   2.422
74699ION    CL-47025   6.387  32.174  12.567
74700ION    CL-47026  42.553  26.414   5.317
74701ION    CL-47027  29.012  16.617  13.513
74702ION    CL-47028  37.917  24.954   2.759
74703ION    CL-47029  16.291  40.409  12.922
74704ION    CL-47030   9.939  28.497  10.764
74705ION    CL-47031  43.039  16.546   4.199
74706ION    CL-47032  44.904  41.426   1.674
74707ION    CL-47033  14.797  35.384  11.648
74708ION    CL-47034  39.237   2.977  13.573
74709ION    CL-47035  19.104  41.097   0.439
74710ION    CL-47036  23.837  20.516  13.244
74711ION    CL-47037  26.916  37.934  14.132
74712ION    CL-47038  24.175  28.863  10.377
74713ION    CL-47039   0.446   5.114  14.703
74714ION    CL-47040  42.819  13.313  13.324
74715ION    CL-47041   0.496  37.951   1.903
74716ION    CL-47042  24.824  17.007   1.972
74717ION    CL-47043  36.752  19.903   2.368
74718ION    CL-47044  16.742   2.907  12.967
74719ION    CL-47045  17.074  12.934   1.408
74720ION    CL-47046  31.079  35.182  11.514
74721ION    CL-47047   3.374  20.340  13.877
74722ION    CL-47048  41.030  40.846   0.542
74723ION    CL-47049  22.761  40.825  10.106
74724ION    CL-47050  42.480  17.414  11.687
74725ION    CL-47051   7.327  36.414  12.981
74726ION    CL-47052   4.007  24.704   0.534
74727ION    CL-47053   9.159   6.856   2.641
74728ION    CL-47054  21.490   0.652  11.083
74729ION    CL-47055  35.273  28.090  11.220
74730ION    CL-47056  23.782   9.832  12.065
74731ION    CL-47057  13.336  18.264   3.719
74732ION    CL-47058  36.050  19.468   1.332
74733ION    CL-47059  10.315  32.954   3.077
74734ION    CL-47060  35.991   6.890  12.621
74735ION    CL-47061   8.523  35.103  13.761
74736ION    CL-47062  39.797  12.302  14.927
74737ION    CL-47063  27.858   0.369   3.668
74738ION    CL-47064  15.574  39.748  11.560
74739ION    CL-47065  35.555  44.356   2.675
74740ION    CL-47066   9.262  34.506   5.079
74741ION    CL-47067  38.170  15.571   0.579
74742ION    CL-47068   0.566  36.979  12.892
74743ION    CL-47069   8.854   2.048   3.387
74744ION    CL-47070  20.226  29.482   1.717
74745ION    CL-47071  39.326   6.354   5.053
74746ION    CL-47072   7.300  32.418  13.972
74747ION    CL-47073  32.247  12.548  11.339
74748ION    CL-47074  19.042  37.008  11.097
74749ION    CL-47075  21.808  16.688  10.263
74750ION    CL-47076  29.106  19.611   1.642
74751ION    CL-47077  14.780   1.020   2.610
74752ION    CL-47078   3.848  16.541   2.115
74753ION    CL-47079  10.095  11.668  11.278
74754ION    CL-47080   5.633  39.253   4.932
74755ION    CL-47081  38.912  24.965   2.657
74756ION    CL-47082   5.314  23.042  13.336
74757ION    CL-47083  18.156  11.075  11.336
74758ION    CL-47084  15.710   7.305  14.816
74759ION    CL-47085  41.420  17.651  13.493
74760ION    CL-47086  16.205  33.878   0.763
74761ION    CL-47087  42.558  31.885  13.449
74762ION    CL-47088  35.821  16.524  14.980
74763ION    CL-47089  14.358   0.760   4.140
74764ION    CL-47090  36.545   4.788   5.113
74765ION    CL-47091  25.692   9.467   4.200
74766ION    CL-47092  14.080   3.371  14.253
74767ION    CL-47093   6.044   3.846  12.531
74768ION    CL-47094   8.924  35.051  14.563
74769ION    CL-47095  35.082   1.876   1.044
74770ION    CL-47096  26.585  11.418  12.483
74771ION    CL-47097  28.659  35.459  11.516
74772ION    CL-47098  22.358  17.207  11.813
74773ION    CL-47099   2.291  13.461  12.483
74774ION    CL-47100  24.697  40.432  14.378
74775ION    CL-47101  38.839  14.785   3.965
74776ION    CL-47102  28.728  39.372  11.954
74777ION    CL-47103   9.421   2.775  13.500
74778ION    CL-47104  37.382   0.987   5.200
74779ION    CL-47105  17.712  11.419   2.770
74780ION    CL-47106  44.079  36.668   3.947
74781ION    CL-47107  24.841  43.557  11.277
74782ION    CL-47108  36.062  37.488  11.885
74783ION    CL-47109  26.454  19.134  11.543
74784ION    CL-47110  14.824  40.086   2.352
74785ION    CL-47111  28.043   9.296   2.246
74786ION    CL-47112   4.193  18.773  14.166
74787ION    CL-47113  35.523  30.369   4.561
74788ION    CL-47114  13.750  29.983  11.523
74789ION    CL-47115   8.590   6.654   1.227
74790ION    CL-47116  40.645   1.389  13.776
74791ION    CL-47117  41.370   7.938   2.845
74792ION    CL-47118  11.407  40.994  10.573
74793ION    CL-47119   0.416  22.347  11.380
74794ION    CL-47120  40.143  14.440  12.104
74795ION    CL-47121  30.555  20.198  12.862
74796ION    CL-47122  18.742  19.525  13.081
74797ION    CL-47123  44.834  19.217  14.175
74798ION    CL-47124   9.354  11.779   0.379
74799ION    CL-47125  10.835  38.471  10.715
74800ION    CL-47126   1.616   1.252   2.684
74801ION    CL-47127  39.244   8.403   1.824
74802ION    CL-47128  19.325   9.574  11.946
74803ION    CL-47129   2.328   1.409   4.384
74804ION    CL-47130  21.930  31.408  12.610
74805ION    CL-47131  14.724   3.035  11.263
74806ION    CL-47132  31.000  22.644  13.484
74807ION    CL-47133  43.947  28.061  12.453
74808ION    CL-47134  10.791  13.423   0.527
74809ION    CL-47135  36.666   6.536  14.657
74810ION    CL-47136  35.525  15.674  13.753
74811ION    CL-47137  18.926  39.800   3.402
74812ION    CL-47138  26.939  38.699   2.669
74813ION    CL-47139  39.129  11.170  14.913
74814ION    CL-47140  23.502  35.149   5.027
74815ION    CL-47141  44.979  42.974  12.796
74816ION    CL-47142  10.832  30.429  12.926
74817ION    CL-47143   2.207  43.058   2.849
74818ION    CL-47144  40.032  18.937   1.172
74819ION    CL-47145  35.716  33.103   3.708
74820ION    CL-47146  21.253  16.668  11.282
74821ION    CL-47147   3.966  25.437  14.767
74822ION    CL-47148   9.104  36.520  10.946
74823ION    CL-47149   4.227  40.762   3.449
74824ION    CL-47150  18.457   0.805  14.078
74825ION    CL-47151  27.682  14.089  14.377
74826ION    CL-47152  12.103  38.766   3.530
74827ION    CL-47153   1.350  24.722  12.384
74828ION    CL-47154  20.906  34.969  12.041
74829ION    CL-47155  16.890  26.978   3.579
74830ION    CL-47156   5.287  28.422  13.348
74831ION    CL-47157  44.585  19.672   0.672
74832ION    CL-47158   2.148   5.022   0.991
74833ION    CL-47159  23.419  36.777   2.682
74834ION    CL-47160  36.530  15.268   0.835
74835ION    CL-47161  30.670  18.786  11.722
74836ION    CL-47162  10.050   4.293  11.225
74837ION    CL-47163  34.007  35.310  11.590
74838ION    CL-47164  33.489  11.694   3.556
74839ION    CL-47165  44.105  19.853   3.106
74840ION    CL-47166  11.747  31.544   3.545
74841ION    CL-47167  19.666  28.502   0.498
74842ION    CL-47168   1.079  23.691   1.525
74843ION    CL-47169  21.526  44.828  10.795
74844ION    CL-47170  23.297   5.838  10.697
74845ION    CL-47171  29.650   7.150  14.768
74846ION    CL-47172   0.823  41.017   3.741
74847ION    CL-47173  16.831  44.282   2.384
74848ION    CL-47174  29.667  30.464  12.983
74849ION    CL-47175  41.098   1.007  13.204
74850ION    CL-47176  18.535  38.059   4.089
74851ION    CL-47177  43.865  17.761  11.877
74852ION    CL-47178  11.422  27.451   3.245
74853ION    CL-47179   1.628  13.390  11.869
74854ION    CL-47180  13.766   4.414   4.147
74855ION    CL-47181  35.883  35.007  12.836
74856ION    CL-47182  27.980   5.637   5.199
74857ION    CL-47183  13.697  14.355  13.386
74858ION    CL-47184   2.177  34.335  11.957
74859ION    CL-47185  39.317   2.570  12.448
74860ION    CL-47186  22.564  25.755   1.930
74861ION    CL-47187   5.747  38.856   0.329
74862ION    CL-47188  37.426  38.121  14.962
74863ION    CL-47189  19.442  12.528   4.823
74864ION    CL-47190  22.425  33.560  12.363
74865ION    CL-47191   7.778  16.643  14.819
74866ION    CL-47192  19.618  18.573  13.111
74867ION    CL-47193  17.847  18.134  11.463
74868ION    CL-47194  11.973   4.824   2.246
74869ION    CL-47195   4.018  23.989   4.692
74870ION    CL-47196  21.233   7.975  12.919
74871ION    CL-47197  16.125  37.108   0.892
74872ION    CL-47198  24.721  40.003   3.369
74873ION    CL-47199   8.414  16.362   1.910
74874ION    CL-47200   4.212  27.911   1.870
74875ION    CL-47201   7.963  36.917   2.588
74876ION    CL-47202  34.340   2.989  11.624
74877ION    CL-47203  41.909  24.678  12.070
74878ION    CL-47204   1.537  30.553  11.460
74879ION    CL-47205  31.343   7.766   0.510
74880ION    CL-47206   7.759  14.348   0.647
74881ION    CL-47207  30.237   6.397   1.279
74882ION    CL-47208  26.868   2.150   1.920
74883ION    CL-47209  15.102  16.578   0.845
74884ION    CL-47210  37.381  33.468   0.799
74885ION    CL-47211  33.651  17.141   1.865
74886ION    CL-47212  40.450  12.660   4.115
74887ION    CL-47213   7.530  38.001  11.264
74888ION    CL-47214   3.628  37.996   1.239
74889ION    CL-47215   4.601   2.210  13.416
74890ION    CL-47216  34.379   5.481  12.876
74891ION    CL-47217   0.737   9.150  13.919
74892ION    CL-47218  38.427  19.023   3.421
74893ION    CL-47219  33.491  43.351   3.572
74894ION    CL-47220  21.656  31.356   3.165
74895ION    CL-47221  28.674  37.858  12.193
74896ION    CL-47222  44.019  14.621  14.770
74897ION    CL-47223  33.932   0.569  11.392
74898ION    CL-47224   0.579   1.474  10.682
74899ION    CL-47225  13.843  41.428   3.587
74900ION    CL-47226  23.509  33.958   3.729
74901ION    CL-47227  10.492  23.119  11.539
74902ION    CL-47228  39.174  44.811   4.761
74903ION    CL-47229  13.493  27.418   0.347
74904ION    CL-47230  15.752  40.257   1.348
74905ION    CL-47231  28.208  20.114  10.906
74906ION    CL-47232  36.116  11.821   2.415
74907ION    CL-47233   5.137  33.582   0.292
74908ION    CL-47234  33.693  37.561  10.103
74909ION    CL-47235   6.636  33.963   4.218
74910ION    CL-47236  26.612  24.167   4.171
74911ION    CL-47237  23.535  13.313  14.874
74912ION    CL-47238   1.111  23.184  13.942
74913ION    CL-47239  15.786   6.328   4.540
74914ION    CL-47240  41.479  38.929  11.212
74915ION    CL-47241  25.694  27.945   0.026
74916ION    CL-47242  19.333  24.497   4.824
74917ION    CL-47243  40.730   5.503  11.309
74918ION    CL-47244  41.856  41.313   3.747
74919ION    CL-47245  19.729   7.966   5.006
74920ION    CL-47246   8.995  13.899  13.750
74921ION    CL-47247  38.586  19.054  11.372
74922ION    CL-47248  35.037  32.329  14.447
74923ION    CL-47249  33.641  39.656   0.414
74924ION    CL-47250  40.451   4.112  13.684
74925ION    CL-47251  18.527  36.186   5.103
74926ION    CL-47252  42.293   0.076  14.589
74927ION    CL-47253   3.133   8.403   0.103
74928ION    CL-47254  23.072  27.895  11.558
74929ION    CL-47255  16.258  21.289  11.502
74930ION    CL-47256   9.211  44.713   1.672
74931ION    CL-47257  25.718  42.999  12.893
74932ION    CL-47258  17.239  33.967   3.599
74933ION    CL-47259  18.640  27.293   4.827
74934ION    CL-47260  44.500  23.487  13.495
74935ION    CL-47261  40.291  31.439   3.938
74936ION    CL-47262  22.453  29.548   2.598
74937ION    CL-47263  25.013  23.144   2.767
74938ION    CL-47264  40.772  44.368  13.940
74939ION    CL-47265  38.165  18.751   0.990
74940ION    CL-47266  31.567  11.596   4.257
74941ION    CL-47267  32.418  34.210   4.089
74942ION    CL-47268   4.405  25.054   2.723
74943ION    CL-47269   9.296  12.238   1.907
74944ION    CL-47270  39.430  28.825  14.639
74945ION    CL-47271  15.868  44.013   2.418
74946ION    CL-47272   3.991  37.923  12.983
74947ION    CL-47273  10.345  20.266   0.673
74948ION    CL-47274  41.006  44.388  11.541
74949ION    CL-47275   9.107   9.275   3.256
74950ION    CL-47276  24.762  13.152   3.768
74951ION    CL-47277  31.441  12.719  10.737
74952ION    CL-47278  11.511  33.718  10.231
74953ION    CL-47279  20.162  22.760   0.716
74954ION    CL-47280   2.900  25.743   0.951
74955ION    CL-47281  30.264  18.192   1.164
74956ION    CL-47282  39.798  36.417  14.815
74957ION    CL-47283  31.194  31.299   4.578
74958ION    CL-47284  22.426  16.145   1.432
74959ION    CL-47285   4.255  24.243  13.354
74960ION    CL-47286  19.788  25.948   1.835
74961ION    CL-47287  33.468   4.021  14.567
74962ION    CL-47288  22.226   5.422   1.309
74963ION    CL-47289  40.233  33.426  10.770
74964ION    CL-47290  28.124   0.309   1.179
74965ION    CL-47291  29.878  41.996   3.236
74966ION    CL-47292   1.793  22.335  11.980
74967ION    CL-47293  12.517  32.093   2.299
74968ION    CL-47294   6.589  43.377  12.895
74969ION    CL-47295  43.465  44.854   0.433
74970ION    CL-47296  19.021   7.100   3.559
74971ION    CL-47297  26.844  10.033   2.519
74972ION    CL-47298  34.123  25.442  13.049
74973ION    CL-47299  40.078  16.756   2.408
74974ION    CL-47300  41.616  24.939  12.990
74975ION    CL-47301  37.719  30.704  13.877
74976ION    CL-47302  40.570  28.777  11.210
74977ION    CL-47303   3.027   2.016  10.173
74978ION    CL-47304  26.678  21.756  11.997
74979ION    CL-47305   3.658  16.028  11.960
74980ION    CL-47306  11.060  17.851   1.712
74981ION    CL-47307  44.428  19.013  12.553
74982ION    CL-47308  12.472  42.624   2.694
74983ION    CL-47309   5.727  25.970  12.962
74984ION    CL-47310  21.072  38.794  11.484
74985ION    CL-47311  38.018  40.159  11.800
74986ION    CL-47312  42.201  20.752   2.777
74987ION    CL-47313  15.132  19.288   3.365
74988ION    CL-47314  22.348  14.838  12.656
74989ION    CL-47315  27.334  31.736   1.158
74990ION    CL-47316  37.735  12.484   2.204
74991ION    CL-47317   6.795  41.036   3.018
74992ION    CL-47318  10.336   0.210   3.692
74993ION    CL-47319   6.071  31.462  14.485
74994ION    CL-47320  26.763  10.051   5.217
74995ION    CL-47321  12.900   3.785  13.163
74996ION    CL-47322  23.530  12.089  13.277
74997ION    CL-47323  20.345  37.148   1.945
74998ION    CL-47324  37.057  21.856   0.067
74999ION    CL-47325  16.962  42.349   0.485
75000ION    CL-47326  44.288  12.686  14.921
75001ION    CL-47327  27.005  41.368   5.061
75002ION    CL-47328   0.798   8.599   0.331
75003ION    CL-47329  30.074  26.730  14.260
75004ION    CL-47330  43.488  36.354   1.562
75005ION    CL-47331  31.691   3.221   2.859
75006ION    CL-47332  26.148  15.328   1.538
75007ION    CL-47333  35.372  25.632   1.193
75008ION    CL-47334  34.187   6.159  14.480
75009ION    CL-47335  16.692  25.437   3.966
75010ION    CL-47336   0.941  23.248  12.657
75011ION    CL-47337  36.121  10.643   2.821
75012ION    CL-47338  16.029  22.059   3.225
75013ION    CL-47339  43.735  18.972   1.923
75014ION    CL-47340   7.291   7.060  11.036
75015ION    CL-47341  14.316   3.899  13.437
75016ION    CL-47342   2.971  33.902  13.760
75017ION    CL-47343   2.691   8.150   1.043
75018ION    CL-47344  24.787  32.463   2.602
75019ION    CL-47345  37.972  11.022   4.604
75020ION    CL-47346  10.709  33.483   2.059
75021ION    CL-47347  29.641   2.788   1.378
75022ION    CL-47348  28.687  25.889   3.123
75023ION    CL-47349   4.358  41.974   2.726
75024ION    CL-47350   1.756  44.750   0.671
75025ION    CL-47351  38.201  38.873   3.595
75026ION    CL-47352  13.386  13.549  14.483
75027ION    CL-47353  35.385  31.460   3.280
75028ION    CL-47354  24.785  37.897   5.026
75029ION    CL-47355  13.876  17.301   2.840
75030ION    CL-47356  32.987  20.399  13.712
75031ION    CL-47357  35.948  18.379   1.917
75032ION    CL-47358  11.199  21.963  12.478
75033ION    CL-47359  38.522  44.071   4.929
75034ION    CL-47360  43.272   3.859   3.313
75035ION    CL-47361  38.197  40.975   1.812
75036ION    CL-47362  37.270  34.635  13.458
75037ION    CL-47363  24.521  12.772  11.811
75038ION    CL-47364  27.916  33.555  11.635
75039ION    CL-47365   8.372  36.441  12.600
75040ION    CL-47366  16.011  42.655  12.698
75041ION    CL-47367  11.331  15.217   5.018
75042ION    CL-47368  39.843  21.229  13.357
75043ION    CL-47369   0.656   7.632   2.292
75044ION    CL-47370  23.162  25.713   1.129
75045ION    CL-47371  14.078  24.969   5.015
75046ION    CL-47372   1.277  18.324  10.668
75047ION    CL-47373  37.963  16.193  12.919
75048ION    CL-47374  36.370  11.752  14.979
75049ION    CL-47375  37.394  37.143  12.088
75050ION    CL-47376   7.972   7.212   1.803
75051ION    CL-47377  29.672  21.710   2.915
75052ION    CL-47378  14.856  32.399   1.916
75053ION    CL-47379  26.704  32.645   1.347
75054ION    CL-47380   2.803  36.662  11.555
75055ION    CL-47381  22.063   4.384   3.703
75056ION    CL-47382  40.131  43.488   1.893
75057ION    CL-47383  33.878  14.462  13.112
75058ION    CL-47384  40.656  21.068   1.070
75059ION    CL-47385  16.834  22.373   0.701
75060ION    CL-47386  25.766  18.507   0.860
75061ION    CL-47387  34.594  42.636   0.201
75062ION    CL-47388  14.667  30.911  13.998
75063ION    CL-47389  23.670  39.935  10.690
75064ION    CL-47390   9.578   6.474  11.260
75065ION    CL-47391  29.935  10.521   3.572
75066ION    CL-47392  30.155  23.332  13.657
75067ION    CL-47393   5.757   1.729  10.448
75068ION    CL-47394   1.715  42.907  13.069
75069ION    CL-47395   6.571  11.027  13.276
75070ION    CL-47396  20.897  40.042   1.531
75071ION    CL-47397   5.568   1.535   3.413
75072ION    CL-47398  21.099  30.886  11.958
75073ION    CL-47399  19.996   5.952  12.101
75074ION    CL-47400  31.139  31.453   0.646
75075ION    CL-47401  33.857  16.533  10.893
75076ION    CL-47402   0.286  19.746  13.457
75077ION    CL-47403  35.680   5.775  12.117
75078ION    CL-47404  15.715  17.424   4.965
75079ION    CL-47405   8.216  36.652  11.116
75080ION    CL-47406  40.189   0.760   1.921
75081ION    CL-47407  39.841  30.414  11.983
75082ION    CL-47408  16.247  13.620   1.104
75083ION    CL-47409  28.326  15.135   1.376
75084ION    CL-47410   6.272   4.572   2.829
75085ION    CL-47411  37.893  10.536  14.529
75086ION    CL-47412  15.593  38.580   0.090
75087ION    CL-47413  39.748  21.338   2.183
75088ION    CL-47414  42.981   9.139  10.707
75089ION    CL-47415  40.239   8.807   1.015
75090ION    CL-47416   3.367  24.753  10.057
75091ION    CL-47417  39.697   2.028  11.139
75092ION    CL-47418  15.419  39.827  12.628
75093ION    CL-47419  40.502  32.103   0.762
75094ION    CL-47420   4.112   7.232  10.688
75095ION    CL-47421  27.773  31.645  10.318
75096ION    CL-47422   0.900   2.181   4.962
75097ION    CL-47423  15.579  14.825   1.113
75098ION    CL-47424  44.731  33.091  12.451
75099ION    CL-47425  33.046  21.853  13.382
75100ION    CL-47426  41.709  36.977   1.315
75101ION    CL-47427   8.453  29.365   3.934
75102ION    CL-47428  41.550  37.317   3.352
75103ION    CL-47429   1.544  19.777  12.902
75104ION    CL-47430   2.818  32.486  11.222
75105ION    CL-47431   2.384   1.554   2.119
75106ION    CL-47432  30.969  10.484  12.671
75107ION    CL-47433  14.600  24.116  14.926
75108ION    CL-47434  14.278   0.207  13.083
75109ION    CL-47435   0.276   6.198   3.139
75110ION    CL-47436  17.200   1.405  13.893
75111ION    CL-47437  28.420  17.693   2.818
75112ION    CL-47438  11.432  29.818   2.341
75113ION    CL-47439  23.940  19.759   1.791
75114ION    CL-47440  38.645  36.592  14.010
75115ION    CL-47441   3.448  24.663   2.929
75116ION    CL-47442  30.343   9.954  13.117
75117ION    CL-47443  29.366   0.866  12.427
75118ION    CL-47444  41.241  41.965   1.907
75119ION    CL-47445  21.764   6.933  14.038
75120ION    CL-47446  35.530  16.184  12.381
75121ION    CL-47447  24.242  14.653  13.892
75122ION    CL-47448   3.751  40.159  11.356
75123ION    CL-47449  19.502  28.511  13.601
75124ION    CL-47450  12.788  43.399   3.242
75125ION    CL-47451  31.679  22.287  11.310
75126ION    CL-47452  37.992  37.181   1.879
75127ION    CL-47453  23.698   0.527  14.951
75128ION    CL-47454  36.186  10.675   1.708
75129ION    CL-47455  36.210  25.117   2.860
75130ION    CL-47456  11.732  13.120   0.679
75131ION    CL-47457  20.184  42.022  10.417
75132ION    CL-47458  41.373  33.429  14.027
75133ION    CL-47459  20.428  38.724   3.077
75134ION    CL-47460  11.863  12.543  14.476
75135ION    CL-47461  31.837  44.103  10.856
75136ION    CL-47462  17.851  25.448   4.429
75137ION    CL-47463  27.555  22.625   0.928
75138ION    CL-47464  10.702   6.750   4.626
75139ION    CL-47465  26.890  10.752  14.414
75140ION    CL-47466  26.923  25.813  10.946
75141ION    CL-47467  32.885  19.370   3.092
75142ION    CL-47468   8.647   8.169   3.726
75143ION    CL-47469  16.339  39.336  10.167
75144ION    CL-47470  21.313  43.262  14.269
75145ION    CL-47471  21.284   1.347  11.662
75146ION    CL-47472  32.141   5.377  10.698
75147ION    CL-47473  40.373  16.253  11.449
75148ION    CL-47474   1.121  23.569   2.501
75149ION    CL-47475   7.873  33.794  12.482
75150ION    CL-47476   2.204  12.244  14.396
75151ION    CL-47477  40.526   1.327  14.800
75152ION    CL-47478   6.835  18.694   1.185
75153ION    CL-47479  29.684  35.381   4.155
75154ION    CL-47480  15.216  24.429  13.289
75155ION    CL-47481  41.333   3.764   2.567
75156ION    CL-47482  35.652  40.004   3.643
75157ION    CL-47483  29.605  35.264  11.778
75158ION    CL-47484  44.465   4.225  14.990
75159ION    CL-47485  31.601  44.813   3.387
75160ION    CL-47486  40.027  40.443   3.158
75161ION    CL-47487  35.382   1.690  13.190
75162ION    CL-47488  17.561  28.155  13.797
75163ION    CL-47489   9.906  23.316   2.537
75164ION    CL-47490  19.146  14.534  14.970
75165ION    CL-47491  26.463  27.601  13.289
75166ION    CL-47492   2.140  10.336   0.453
75167ION    CL-47493  41.117  43.265  10.834
75168ION    CL-47494  29.460  24.593  14.556
75169ION    CL-47495  13.625  44.234   1.057
75170ION    CL-47496  43.762  13.726  13.048
75171ION    CL-47497  27.995  22.252  10.271
75172ION    CL-47498  32.437  35.183  10.937
75173ION    CL-47499  27.077  35.293  11.886
75174ION    CL-47500  19.874  19.647   0.396
75175ION    CL-47501  22.408   7.081  12.111
75176ION    CL-47502   5.505  15.622   5.200
75177ION    CL-47503  41.601  36.944   2.303
75178ION    CL-47504  23.945  22.425   0.269
75179ION    CL-47505  15.575  30.996  12.284
75180ION    CL-47506  15.081   1.734   5.121
75181ION    CL-47507  28.939  25.478  14.447
75182ION    CL-47508  14.648  36.219   4.745
75183ION    CL-47509  28.669  38.761  14.035
75184ION    CL-47510  24.977  24.337   2.230
75185ION    CL-47511  37.032  31.519  14.622
75186ION    CL-47512  14.219  29.665  14.335
75187ION    CL-47513  13.133  39.341   2.102
75188ION    CL-47514   8.867   4.195  12.471
75189ION    CL-47515  40.252  37.998   3.627
75190ION    CL-47516  34.358  15.498  11.553
75191ION    CL-47517  16.374  40.341  11.928
75192ION    CL-47518  38.833  15.488   5.178
75193ION    CL-47519  18.332  11.838   2.107
75194ION    CL-47520  33.309  14.462   5.035
75195ION    CL-47521  31.054  16.975   0.410
75196ION    CL-47522   5.328  22.479  14.429
75197ION    CL-47523   6.728   6.894  14.013
75198ION    CL-47524  23.162  40.633   5.036
75199ION    CL-47525  32.146   5.881   4.152
75200ION    CL-47526  12.854   4.612   2.247
75201ION    CL-47527  11.586  41.575   3.308
75202ION    CL-47528  37.113  44.401  10.323
75203ION    CL-47529   3.665  19.034   4.261
75204ION    CL-47530  27.043   3.101   3.784
75205ION    CL-47531  19.093  33.656  11.962
75206ION    CL-47532  14.710  26.305   3.367
75207ION    CL-47533   4.427  23.092  13.212
75208ION    CL-47534  40.864  31.573   4.746
75209ION    CL-47535   9.637  16.564  13.070
75210ION    CL-47536   4.169  44.404  12.348
75211ION    CL-47537   7.719  27.724  14.129
75212ION    CL-47538  18.593   1.083  14.931
75213ION    CL-47539  27.069  25.115   2.362
75214ION    CL-47540  18.108  30.103   1.751
75215ION    CL-47541  30.993  25.731  11.362
75216ION    CL-47542  12.700  34.410   1.067
75217ION    CL-47543  44.421  17.618  12.981
75218ION    CL-47544  22.015  38.387   3.401
75219ION    CL-47545   5.303  10.159  11.636
75220ION    CL-47546  43.050  24.739   3.144
75221ION    CL-47547  32.333  25.529   3.343
75222ION    CL-47548  17.642  41.745   3.668
75223ION    CL-47549  28.013  29.407   1.797
75224ION    CL-47550   0.280  12.633  11.507
75225ION    CL-47551  26.655  17.928  12.655
75226ION    CL-47552   7.428   9.236   0.915
75227ION    CL-47553  23.569  13.727  12.855
75228ION    CL-47554  18.805  19.068   1.349
75229ION    CL-47555  14.345  42.836   3.598
75230ION    CL-47556  43.175  40.684   2.584
75231ION    CL-47557  23.852  22.226  12.111
75232ION    CL-47558  44.219  38.577   3.686
75233ION    CL-47559   7.579  11.253   0.323
75234ION    CL-47560  22.021  34.657   3.135
75235ION    CL-47561  42.775  10.484   3.646
75236ION    CL-47562  32.506   6.486  14.720
75237ION    CL-47563  24.607  40.943   0.749
75238ION    CL-47564   3.768  18.573  10.787
75239ION    CL-47565  40.684  38.016   4.856
75240ION    CL-47566  38.147   9.576  14.413
75241ION    CL-47567  22.807  34.879  11.165
75242ION    CL-47568   5.088  33.288  12.868
75243ION    CL-47569   6.777  35.074  12.583
75244ION    CL-47570  29.467  15.358   0.562
75245ION    CL-47571  16.999  32.491  13.606
75246ION    CL-47572   1.802  27.925   0.414
75247ION    CL-47573  17.213  11.587   1.744
75248ION    CL-47574  24.575  21.664  11.974
75249ION    CL-47575   5.434  11.193   4.176
75250ION    CL-47576  36.795   3.597   9.800
75251ION    CL-47577   9.132  39.986   3.565
75252ION    CL-47578  17.381  34.496   2.214
75253ION    CL-47579  16.881  21.458  13.980
75254ION    CL-47580  29.151  43.020  12.460
75255ION    CL-47581  31.241  29.191  12.084
75256ION    CL-47582  30.180  34.755   2.059
75257ION    CL-47583  26.054  14.623   3.320
75258ION    CL-47584  21.388  42.643  10.095
75259ION    CL-47585  37.146  20.630  11.018
75260ION    CL-47586  14.209  36.077   3.306
75261ION    CL-47587  37.857  20.600  11.721
75262ION    CL-47588  29.231  23.741   5.135
75263ION    CL-47589  29.485  38.089  11.033
75264ION    CL-47590   1.471   2.810  13.054
75265ION    CL-47591  10.327  11.361   2.767
75266ION    CL-47592  14.733   0.710  11.873
75267ION    CL-47593  29.932   2.441   0.487
75268ION    CL-47594  12.592  39.900   3.612
75269ION    CL-47595  27.824  37.854  13.467
75270ION    CL-47596  13.675  42.815  14.437
75271ION    CL-47597   1.205  43.021  14.029
75272ION    CL-47598   8.045  10.807  12.365
75273ION    CL-47599   1.328  29.627   5.303
75274ION    CL-47600   7.773   3.038   2.137
75275ION    CL-47601  22.964   5.774   3.784
75276ION    CL-47602  22.232  37.958   0.483
75277ION    CL-47603  24.118  36.683  14.494
75278ION    CL-47604  11.736  13.664   1.867
75279ION    CL-47605   2.057   6.018  13.076
75280ION    CL-47606  30.084  16.343  13.458
75281ION    CL-47607  18.950  12.506  11.492
75282ION    CL-47608   9.349   0.733   1.004
75283ION    CL-47609   2.636   7.747  11.307
75284ION    CL-47610  23.427  30.187   4.946
75285ION    CL-47611   2.132   7.122  11.904
75286ION    CL-47612   4.498   4.016  14.329
75287ION    CL-47613   2.834  26.692   4.125
75288ION    CL-47614   8.678  37.507   5.276
75289ION    CL-47615  14.671  43.927   1.482
75290ION    CL-47616   7.874   7.191   0.651
75291ION    CL-47617  41.717   2.117   0.094
75292ION    CL-47618  36.133   9.942  11.122
75293ION    CL-47619  21.334  25.912  11.957
75294ION    CL-47620   7.364   6.012   0.372
75295ION    CL-47621   8.272  42.971   0.887
75296ION    CL-47622  15.608  41.744  11.474
75297ION    CL-47623  16.107  29.705  13.096
75298ION    CL-47624   7.350  13.068   3.474
75299ION    CL-47625  34.543  15.460   2.657
75300ION    CL-47626   1.081  15.376   0.793
75301ION    CL-47627  42.536  36.470   3.765
75302ION    CL-47628  26.817  34.303   2.395
75303ION    CL-47629  28.229  44.067   5.152
75304ION    CL-47630  35.502  28.612   0.556
75305ION    CL-47631  10.689  39.376  14.396
75306ION    CL-47632  43.228  41.559   3.339
75307ION    CL-47633  34.526  26.603   0.433
75308ION    CL-47634  24.725  31.480   1.488
75309ION    CL-47635  18.633  33.978   0.453
75310ION    CL-47636  40.090  36.600   3.644
75311ION    CL-47637  38.654   5.680   2.836
75312ION    CL-47638  36.272  31.965   9.998
75313ION    CL-47639  39.577  22.897   2.502
75314ION    CL-47640  13.890  21.328  14.797
75315ION    CL-47641  34.392   0.746   0.706
75316ION    CL-47642   5.827  37.919  10.452
75317ION    CL-47643   0.088   5.156  11.731
75318ION    CL-47644   8.944  15.224  14.072
75319ION    CL-47645  25.437  29.584   0.571
75320ION    CL-47646  33.067  40.354   0.313
75321ION    CL-47647  20.022  26.179  13.076
75322ION    CL-47648  32.856   3.959   2.581
75323ION    CL-47649  12.748  15.207   4.588
75324ION    CL-47650  16.071   8.037   2.197
75325ION    CL-47651  42.151  43.482  11.194
75326ION    CL-47652   0.561  36.870  14.421
75327ION    CL-47653  34.054  21.611   4.925
75328ION    CL-47654  40.969  36.644  12.865
75329ION    CL-47655   6.175   9.673  11.697
75330ION    CL-47656   8.108  34.760  12.375
75331ION    CL-47657   1.695  25.998  14.438
75332ION    CL-47658   3.146  21.519   1.216
75333ION    CL-47659  28.262  26.844   1.824
75334ION    CL-47660  18.602   1.352  11.651
75335ION    CL-47661  27.077  34.738   4.004
75336ION    CL-47662  39.499  31.194  13.988
75337ION    CL-47663  15.988  14.291   3.541
75338ION    CL-47664  30.226  11.443   3.827
75339ION    CL-47665  17.287  29.546   3.648
75340ION    CL-47666   2.635  28.716  11.477
75341ION    CL-47667  36.528  13.580   9.819
75342ION    CL-47668   8.881   1.946   2.492
75343ION    CL-47669  20.307  15.952  12.024
75344ION    CL-47670   0.333  22.630   0.399
75345ION    CL-47671   2.238  31.881   3.354
75346ION    CL-47672  29.661  12.168  10.407
75347ION    CL-47673  41.507  21.493   1.379
75348ION    CL-47674  36.097  17.743   1.021
75349ION    CL-47675  26.778  17.459   2.002
75350ION    CL-47676  24.717  20.360  12.800
75351ION    CL-47677  13.426  22.130  11.350
75352ION    CL-47678   1.791  30.960   3.515
75353ION    CL-47679  15.556  24.708  14.059
75354ION    CL-47680  14.478  43.254   0.767
75355ION    CL-47681  16.835  39.474  12.465
75356ION    CL-47682  44.956  17.688   0.593
75357ION    CL-47683   7.056  19.619  13.042
75358ION    CL-47684  24.598   5.864   0.715
75359ION    CL-47685   0.355  16.584  11.145
75360ION    CL-47686  13.130  37.194  13.868
75361ION    CL-47687  35.238  33.452   4.259
75362ION    CL-47688   8.640  17.144   3.250
75363ION    CL-47689  43.284   1.848  11.670
75364ION    CL-47690   8.024  15.805   2.646
75365ION    CL-47691  15.698   2.901  11.079
75366ION    CL-47692  13.619  24.495   0.824
75367ION    CL-47693  25.315  33.530   1.409
75368ION    CL-47694  10.089  18.057  12.031
75369ION    CL-47695   3.686  28.526  11.689
75370ION    CL-47696   2.722  40.793  14.380
75371ION    CL-47697   3.344  20.711  14.927
75372ION    CL-47698  20.694   0.246  10.724
75373ION    CL-47699  44.704  34.379   2.855
75374ION    CL-47700  26.961  43.279   4.426
75375ION    CL-47701  29.530   6.738   3.144
75376ION    CL-47702  22.831  36.891   0.876
75377ION    CL-47703  28.578  40.794  11.557
75378ION    CL-47704  22.956   3.537   2.329
75379ION    CL-47705  34.705  11.332   2.385
75380ION    CL-47706   5.186  19.549   2.609
75381ION    CL-47707  38.826   6.734   3.412
75382ION    CL-47708   5.745  23.615  12.585
75383ION    CL-47709  21.532   9.408  13.786
75384ION    CL-47710  25.960  10.186  12.557
75385ION    CL-47711   8.075  13.583  13.980
75386ION    CL-47712  15.100   1.466   3.648
75387ION    CL-47713  22.444   9.730  11.704
75388ION    CL-47714  13.254  39.317   3.095
75389ION    CL-47715  39.523  11.760   2.087
75390ION    CL-47716  13.644  12.856   9.666
75391ION    CL-47717  23.367   9.002  12.442
75392ION    CL-47718  34.626  18.367  14.556
75393ION    CL-47719  27.090  11.631   4.365
75394ION    CL-47720  18.628  31.039  11.483
75395ION    CL-47721  39.598  22.457   3.292
75396ION    CL-47722  34.827  29.251   1.165
75397ION    CL-47723  10.133   4.985  11.941
75398ION    CL-47724  29.732  25.497   2.642
75399ION    CL-47725  11.671  38.076  11.237
75400ION    CL-47726  43.306  10.350  13.949
75401ION    CL-47727  17.470  35.811  11.669
75402ION    CL-47728   9.434  14.483  12.361
75403ION    CL-47729  29.623   8.571  12.585
75404ION    CL-47730   2.908  41.948  12.543
75405ION    CL-47731  13.187   0.519   3.800
75406ION    CL-47732  25.234   9.998  14.031
75407ION    CL-47733  34.788  23.437  12.946
75408ION    CL-47734  15.249  27.893   0.390
75409ION    CL-47735   8.104   8.895  13.379
75410ION    CL-47736  43.317   2.843   0.084
75411ION    CL-47737   1.441   4.435   2.795
75412ION    CL-47738   6.604  14.361  13.799
75413ION    CL-47739  33.173   6.624  11.588
75414ION    CL-47740  19.912  36.207  13.448
75415ION    CL-47741   6.408  15.636  13.326
75416ION    CL-47742  22.953  23.364  11.611
75417ION    CL-47743  31.227  30.702   3.739
75418ION    CL-47744  15.500  35.183   5.592
75419ION    CL-47745  44.817  16.242  13.973
75420ION    CL-47746   5.417  24.901  12.733
75421ION    CL-47747  11.758  30.657  10.772
75422ION    CL-47748   7.593  29.997  14.951
75423ION    CL-47749  19.020  21.702   2.167
75424ION    CL-47750  30.324  27.861  12.611
75425ION    CL-47751   4.194  13.158  13.580
75426ION    CL-47752  42.052  11.010   3.666
75427ION    CL-47753  32.179   9.297  12.951
75428ION    CL-47754   3.646   7.203  14.813
75429ION    CL-47755  20.023  18.324   3.353
75430ION    CL-47756  18.260  40.540  10.286
75431ION    CL-47757  13.576  34.077  10.359
75432ION    CL-47758  10.836  33.838   9.832
75433ION    CL-47759  14.159  17.733  12.974
75434ION    CL-47760   1.629  34.761   4.603
75435ION    CL-47761  24.280  22.446  14.012
75436ION    CL-47762  10.780   6.862  11.489
75437ION    CL-47763  31.545  34.699   4.533
75438ION    CL-47764  36.861  12.343   2.394
75439ION    CL-47765  32.096   4.938  11.903
75440ION    CL-47766  35.424  24.076   3.407
75441ION    CL-47767  36.766  19.811   0.909
75442ION    CL-47768  10.300  35.026  14.299
75443ION    CL-47769  34.913  40.825  12.419
75444ION    CL-47770  38.704  41.757  13.941
75445ION    CL-47771   4.042  22.329  12.112
75446ION    CL-47772  35.709  22.679  11.806
75447ION    CL-47773   3.996  26.478   0.650
75448ION    CL-47774   8.758  44.589   5.093
75449ION    CL-47775  39.148  26.700   0.480
75450ION    CL-47776  35.304  28.869  10.842
75451ION    CL-47777  21.938  16.634  12.363
75452ION    CL-47778  20.179  30.190  14.024
75453ION    CL-47779  21.343   2.397   2.481
75454ION    CL-47780  29.418  40.319  12.265
75455ION    CL-47781  42.318  23.036  13.964
75456ION    CL-47782  16.642  16.636  14.173
75457ION    CL-47783  38.626  13.762  12.999
75458ION    CL-47784  12.341   6.899   3.188
75459ION    CL-47785  32.044  32.744  14.226
75460ION    CL-47786  10.944  37.788  10.159
75461ION    CL-47787  13.775   5.191  13.436
75462ION    CL-47788  23.826  41.780   2.965
75463ION    CL-47789  18.999  37.067   1.060
75464ION    CL-47790  38.526   0.254   3.314
75465ION    CL-47791  11.724  39.013  12.135
75466ION    CL-47792  33.270  32.274  12.128
75467ION    CL-47793  39.107  28.646   2.301
75468ION    CL-47794  35.275  44.541  11.173
75469ION    CL-47795  11.561  17.651  12.260
75470ION    CL-47796   4.767  34.890  13.406
75471ION    CL-47797   4.682   1.287   3.025
75472ION    CL-47798   5.638  39.061  13.286
75473ION    CL-47799   4.427   5.654   0.200
75474ION    CL-47800  10.372  18.199   9.858
75475ION    CL-47801   2.505  13.255   3.590
75476ION    CL-47802  40.582  35.608   4.338
75477ION    CL-47803  24.625  12.542   0.516
75478ION    CL-47804   6.671  37.014   0.259
75479ION    CL-47805  27.698  15.758  12.472
75480ION    CL-47806  24.655  44.465   4.500
75481ION    CL-47807  36.073  36.254   1.206
75482ION    CL-47808  28.274  42.981  13.675
75483ION    CL-47809  36.524  44.779  14.257
75484ION    CL-47810  26.169  27.041  11.501
75485ION    CL-47811  10.898  12.269  13.501
75486ION    CL-47812  18.553   4.039   1.117
75487ION    CL-47813   7.364  36.583   0.645
75488ION    CL-47814  42.565  16.136   2.283
75489ION    CL-47815  38.997  35.782  13.541
75490ION    CL-47816  14.071   6.693   0.711
75491ION    CL-47817  23.865  12.850   4.469
75492ION    CL-47818  22.796  16.569  12.258
75493ION    CL-47819  41.015  44.642   5.234
75494ION    CL-47820  13.822   9.137   1.431
75495ION    CL-47821  37.542  35.896  14.720
75496ION    CL-47822   9.626  24.479  13.350
75497ION    CL-47823  38.590   2.555  14.003
75498ION    CL-47824  37.469  44.321  13.606
75499ION    CL-47825  26.111  27.468  10.725
75500ION    CL-47826  27.402  32.190  13.531
75501ION    CL-47827  21.273  39.994  12.983
75502ION    CL-47828  34.393   9.370   4.241
75503ION    CL-47829  34.196   5.520  11.115
75504ION    CL-47830  25.135  37.923  13.902
75505ION    CL-47831  29.965  29.606  11.038
75506ION    CL-47832   9.837  20.867   1.304
75507ION    CL-47833   6.288   5.475  12.620
75508ION    CL-47834  37.134  44.232   1.413
75509ION    CL-47835  23.322  17.741   3.189
75510ION    CL-47836   8.836  23.990  10.702
75511ION    CL-47837  40.905   8.623  13.034
75512ION    CL-47838  42.585   2.264   3.421
75513ION    CL-47839  18.272  31.365   4.176
75514ION    CL-47840  25.156  42.951   4.482
75515ION    CL-47841  20.134  39.926  12.961
75516ION    CL-47842  19.133  12.446   2.185
75517ION    CL-47843  44.835  44.704   0.437
75518ION    CL-47844  28.848  14.978  14.308
75519ION    CL-47845  28.025  32.673  10.563
75520ION    CL-47846  18.768  29.599   2.708
75521ION    CL-47847  20.507  19.091   3.776
75522ION    CL-47848  42.535  30.160   4.124
75523ION    CL-47849  20.695  14.999   3.752
75524ION    CL-47850  12.297  12.210  12.409
75525ION    CL-47851  33.232   7.583  11.095
75526ION    CL-47852   4.666   1.349   0.431
75527ION    CL-47853   8.605  27.081  10.829
75528ION    CL-47854  11.199   0.488   1.345
75529ION    CL-47855  32.361  43.347  10.801
75530ION    CL-47856  20.241  11.562  10.955
75531ION    CL-47857  21.006  23.291   0.649
75532ION    CL-47858  10.124  40.534  11.875
75533ION    CL-47859  34.847   1.348  10.667
75534ION    CL-47860  18.541  43.093  13.018
75535ION    CL-47861  34.333  44.747   3.851
75536ION    CL-47862   6.297  35.853   3.598
75537ION    CL-47863  43.083  17.016  12.334
75538ION    CL-47864  13.907  28.312  14.786
75539ION    CL-47865  23.448  40.231   3.743
75540ION    CL-47866  14.120  19.753  12.587
75541ION    CL-47867  24.744   3.194  11.041
75542ION    CL-47868  36.904  18.922   2.248
75543ION    CL-47869   0.839  44.792  11.249
75544ION    CL-47870  28.328  39.564   2.624
75545ION    CL-47871   8.236  19.954  13.364
75546ION    CL-47872   4.140  11.656  11.218
75547ION    CL-47873  29.810  30.769   1.189
75548ION    CL-47874  20.177  41.492  12.340
75549ION    CL-47875   9.009   1.598  12.322
75550ION    CL-47876  38.444  29.558  10.661
75551ION    CL-47877  29.744  25.905  14.033
75552ION    CL-47878  10.957  35.086   4.372
75553ION    CL-47879  35.999  29.608   2.569
75554ION    CL-47880  41.655   6.163   3.705
75555ION    CL-47881   2.724  24.685   1.764
75556ION    CL-47882  40.657  43.158   0.741
75557ION    CL-47883   9.296  36.721   5.239
75558ION    CL-47884  25.973   7.477  11.571
75559ION    CL-47885   4.321  36.034  13.741
75560ION    CL-47886  12.412   0.372   1.843
75561ION    CL-47887  42.269  26.898   1.635
75562ION    CL-47888  24.218  15.193   2.978
75563ION    CL-47889  10.373  12.459  10.734
75564ION    CL-47890   4.958  11.381   3.264
75565ION    CL-47891   9.863  11.016   5.080
75566ION    CL-47892  36.459  30.855  12.060
75567ION    CL-47893  28.234  44.870  12.906
75568ION    CL-47894  15.400  29.056  12.815
75569ION    CL-47895  39.679  18.130   1.731
75570ION    CL-47896   9.174  37.098  14.548
75571ION    CL-47897  32.362  31.067   4.149
75572ION    CL-47898   2.935  43.575   2.612
75573ION    CL-47899  11.751   5.619   4.855
75574ION    CL-47900  13.688  36.776   5.436
75575ION    CL-47901  17.497   5.448  11.543
75576ION    CL-47902  23.115  32.580   2.009
75577ION    CL-47903  28.410  35.440  12.859
75578ION    CL-47904  11.750  32.493   3.948
75579ION    CL-47905  22.815  38.713   0.783
75580ION    CL-47906  13.088  24.195   4.477
75581ION    CL-47907   1.680  14.698  12.689
75582ION    CL-47908  30.537   9.218   3.634
75583ION    CL-47909   3.947  44.486   1.068
75584ION    CL-47910  15.357  11.850  12.911
75585ION    CL-47911  44.473  24.789   3.653
75586ION    CL-47912  23.672  42.423  10.649
75587ION    CL-47913  33.197  27.922  11.275
75588ION    CL-47914   3.146   1.473  14.674
75589ION    CL-47915   8.355  29.032   2.110
75590ION    CL-47916  25.508   7.281   2.349
75591ION    CL-47917  24.844  18.700  10.644
75592ION    CL-47918  33.904   2.243  14.306
75593ION    CL-47919  30.462  33.853  14.501
75594ION    CL-47920   7.713  16.611  13.268
75595ION    CL-47921   7.691  25.385  12.117
75596ION    CL-47922   9.230  26.919  13.313
75597ION    CL-47923  13.458   9.417  11.092
75598ION    CL-47924  36.225  40.459   3.147
75599ION    CL-47925   8.203  35.120   1.928
75600ION    CL-47926  37.586  38.923   1.030
75601ION    CL-47927  37.107  39.985  14.271
75602ION    CL-47928  30.649  33.197  13.631
75603ION    CL-47929  34.603  38.082  14.894
75604ION    CL-47930  19.386  22.617   2.735
75605ION    CL-47931  14.559  33.858   2.619
75606ION    CL-47932  35.843  10.769   4.614
75607ION    CL-47933   9.861  11.300  14.537
75608ION    CL-47934  40.759  30.483   9.950
75609ION    CL-47935  39.697   0.873  12.356
75610ION    CL-47936  33.634  30.985  12.191
75611ION    CL-47937   8.961  34.456   1.755
75612ION    CL-47938  27.026  10.149   3.183
75613ION    CL-47939  33.064  35.689  11.530
75614ION    CL-47940   7.197   0.827   4.022
75615ION    CL-47941  13.214  15.121   3.332
75616ION    CL-47942  39.261   9.441  11.511
75617ION    CL-47943  38.265  15.990  11.349
75618ION    CL-47944  41.503  40.529  12.420
75619ION    CL-47945  32.933  28.530   3.381
75620ION    CL-47946  17.481  36.110   0.785
75621ION    CL-47947   8.401  32.249   1.292
75622ION    CL-47948  13.616   5.349   0.275
75623ION    CL-47949  38.889  22.137  14.044
75624ION    CL-47950  11.165  24.169  12.956
75625ION    CL-47951  37.790  41.963  11.964
75626ION    CL-47952   4.345  12.655   1.263
75627ION    CL-47953   5.449  24.073  11.197
75628ION    CL-47954  29.071  43.775  14.432
75629ION    CL-47955  21.824  16.912  13.425
75630ION    CL-47956  19.373   1.360  11.015
75631ION    CL-47957   9.366  28.403  14.779
75632ION    CL-47958   4.403  34.850  10.662
75633ION    CL-47959  20.979  36.902   4.041
75634ION    CL-47960  32.834  30.269   3.769
75635ION    CL-47961  25.477  10.727  11.009
75636ION    CL-47962  28.149  42.376   2.013
75637ION    CL-47963  19.154  33.558   2.612
75638ION    CL-47964   4.890   1.856   3.821
75639ION    CL-47965  41.255   8.910   2.639
75640ION    CL-47966  13.664  38.195  11.220
75641ION    CL-47967  22.806   3.834  12.201
75642ION    CL-47968  28.731  17.291   3.729
75643ION    CL-47969  18.897  37.285  13.742
75644ION    CL-47970  44.646   7.626  12.658
75645ION    CL-47971  16.670  40.029   2.802
75646ION    CL-47972   8.966  31.708  11.623
75647ION    CL-47973  13.685  31.415  14.517
75648ION    CL-47974  36.474  13.444  12.690
75649ION    CL-47975   8.428  29.811  14.314
75650ION    CL-47976  14.353  29.812   2.335
75651ION    CL-47977  12.688  35.013   0.418
75652ION    CL-47978  17.827  25.169  13.054
75653ION    CL-47979  32.891  34.092  12.051
75654ION    CL-47980   7.399   9.367  11.802
75655ION    CL-47981   4.251   9.357   5.321
75656ION    CL-47982  40.762  16.389  13.365
75657ION    CL-47983  12.564  22.358  11.299
75658ION    CL-47984   0.822  41.642   0.086
75659ION    CL-47985  33.369  34.316   1.117
75660ION    CL-47986   4.195  10.371   0.287
75661ION    CL-47987  43.847  37.332  12.937
75662ION    CL-47988  40.368  18.512   4.037
75663ION    CL-47989   3.323  11.734  12.351
75664ION    CL-47990   5.976  33.726  13.004
75665ION    CL-47991  10.543  24.591  13.758
75666ION    CL-47992  11.904  32.223  11.167
75667ION    CL-47993  10.885  14.742   3.508
75668ION    CL-47994  30.373   3.094  13.941
75669ION    CL-47995  42.746   2.163  14.920
75670ION    CL-47996  29.996   7.659  13.076
75671ION    CL-47997  33.869  29.474   0.623
75672ION    CL-47998  41.738  31.565  12.975
75673ION    CL-47999  26.152  42.004   0.935
75674ION    CL-48000  30.895  42.334   1.889
75675ION    CL-48001  21.346  43.951   1.118
75676ION    CL-48002   8.969  39.781  14.733
75677ION    CL-48003   0.860  31.813  12.634
75678ION    CL-48004  12.010   2.298   2.676
75679ION    CL-48005  10.138  10.828  11.569
75680ION    CL-48006  25.122   1.061  12.076
75681ION    CL-48007  13.374  30.700  11.730
75682ION    CL-48008  14.224  40.992  13.114
75683ION    CL-48009  44.290   1.519   3.241
75684ION    CL-48010  34.853  28.167  13.417
75685ION    CL-48011   3.127   8.510  13.812
75686ION    CL-48012  20.961  17.413  13.493
75687ION    CL-48013   0.786  35.841   2.520
75688ION    CL-48014   9.021  40.165  11.403
75689ION    CL-48015  16.200  44.482  11.614
75690ION    CL-48016  33.622  42.566  11.175
75691ION    CL-48017  19.633   4.627  13.563
75692ION    CL-48018  43.798  24.852   4.388
75693ION    CL-48019   2.105  37.893   5.022
75694ION    CL-48020  40.256   5.020  12.363
75695ION    CL-48021   9.629   9.293   2.488
75696ION    CL-48022  12.970  24.515  13.754
75697ION    CL-48023  18.053  20.966   1.877
75698ION    CL-48024  37.444  30.514   3.163
75699ION    CL-48025  34.986  11.160   3.641
75700ION    CL-48026  42.854  20.237  13.352
75701ION    CL-48027  12.344  17.270  12.554
75702ION    CL-48028  15.403   7.018  12.437
75703ION    CL-48029  18.570  25.225   2.249
75704ION    CL-48030  42.660   1.946   1.674
75705ION    CL-48031  39.145   4.106   1.873
75706ION    CL-48032  10.297  22.223   2.141
75707ION    CL-48033  24.018  12.145  12.406
75708ION    CL-48034   3.300  40.604   0.920
75709ION    CL-48035  30.893  43.929  13.046
75710ION    CL-48036   1.913   6.005  14.196
75711ION    CL-48037  33.348  26.363  10.309
75712ION    CL-48038  34.480  14.202   4.583
75713ION    CL-48039  30.814  42.953  13.718
75714ION    CL-48040  35.618  19.982   0.545
75715ION    CL-48041  32.336  15.329   9.651
75716ION    CL-48042  38.765  18.595  12.124
75717ION    CL-48043   6.003  23.216   0.942
75718ION    CL-48044  31.962   9.559  14.732
75719ION    CL-48045  37.812  28.172   1.704
75720ION    CL-48046  24.925  27.956  10.734
75721ION    CL-48047  42.707  35.288  11.619
75722ION    CL-48048   3.127   9.802   1.821
75723ION    CL-48049  33.281  39.245  13.788
75724ION    CL-48050   2.552  17.752  13.173
75725ION    CL-48051  13.583  40.084   0.014
75726ION    CL-48052   1.921  27.973  11.471
75727ION    CL-48053  18.180  32.364   5.021
75728ION    CL-48054  26.278   6.503   4.543
75729ION    CL-48055  11.281  33.513  13.539
75730ION    CL-48056  34.358  32.182   1.159
75731ION    CL-48057   5.547  15.132  13.403
75732ION    CL-48058  16.420  36.549   4.973
75733ION    CL-48059  36.480  27.621   4.561
75734ION    CL-48060  36.410  38.564  11.632
75735ION    CL-48061   3.473  26.529  13.039
75736ION    CL-48062  23.221  36.325   1.654
75737ION    CL-48063  17.626  23.165  11.213
75738ION    CL-48064  41.422  23.960   1.858
75739ION    CL-48065  21.479  38.679   4.891
75740ION    CL-48066   9.705  31.165   1.122
75741ION    CL-48067  24.685  36.139   3.736
75742ION    CL-48068  16.772  21.155   3.306
75743ION    CL-48069  14.691  27.074   2.728
75744ION    CL-48070  10.924  17.174   4.358
75745ION    CL-48071  31.419   5.591  13.195
75746ION    CL-48072   2.556  35.445   2.290
75747ION    CL-48073  17.246   5.517  12.415
75748ION    CL-48074   2.744  39.219  11.946
75749ION    CL-48075  33.207  13.370   1.144
75750ION    CL-48076  24.699  13.691   2.694
75751ION    CL-48077   9.490  27.053  11.294
75752ION    CL-48078   8.784   2.347   5.090
75753ION    CL-48079  22.968  10.648  14.388
75754ION    CL-48080   4.106  39.433  11.720
75755ION    CL-48081   5.645  17.748   2.751
75756ION    CL-48082  23.714  21.682   4.900
75757ION    CL-48083  10.236  28.775   2.294
75758ION    CL-48084  32.531  37.484   2.684
75759ION    CL-48085  24.583  12.790  14.548
75760ION    CL-48086  19.425   3.569   4.321
75761ION    CL-48087  21.347  21.122   4.935
75762ION    CL-48088  33.545  10.685   0.677
75763ION    CL-48089  15.208  18.592  14.673
75764ION    CL-48090  22.682  27.381   1.032
75765ION    CL-48091  41.236  29.991   4.747
75766ION    CL-48092  35.996   2.372   2.964
75767ION    CL-48093  34.495   8.874  13.941
75768ION    CL-48094  10.097  33.985  10.441
75769ION    CL-48095   0.302  32.303   2.392
75770ION    CL-48096  33.917   7.545  13.012
75771ION    CL-48097  18.253  30.288  11.264
75772ION    CL-48098  31.997  34.138   5.106
75773ION    CL-48099  43.739  32.040  14.808
75774ION    CL-48100  28.929   4.154   1.693
75775ION    CL-48101   5.843  28.587  11.515
75776ION    CL-48102   4.689  21.134  12.785
75777ION    CL-48103  20.717  12.855   1.274
75778ION    CL-48104  28.660   7.265   1.285
75779ION    CL-48105  28.946  39.855   4.996
75780ION    CL-48106  29.167  34.444  14.655
75781ION    CL-48107  35.272   9.878  11.376
75782ION    CL-48108   5.089  26.850   1.377
75783ION    CL-48109  28.397  28.871   3.001
75784ION    CL-48110   1.180  41.516  12.162
75785ION    CL-48111   1.912  30.890  12.326
75786ION    CL-48112  10.785   9.220   4.923
75787ION    CL-48113  13.340   5.902  14.088
75788ION    CL-48114  28.958  10.451   0.382
75789ION    CL-48115  33.769  38.034   3.817
75790ION    CL-48116   1.480  43.756   0.581
75791ION    CL-48117  12.552  32.814  11.375
75792ION    CL-48118  25.041  30.935  12.422
75793ION    CL-48119   2.032  44.349   1.544
75794ION    CL-48120  33.821   2.256   3.370
75795ION    CL-48121  28.853  44.456   3.256
75796ION    CL-48122  14.848  13.884   4.783
75797ION    CL-48123  41.208  34.974  13.488
75798ION    CL-48124   3.511  11.110   3.171
75799ION    CL-48125  29.244  32.477   4.571
75800ION    CL-48126  15.700  41.305   2.668
75801ION    CL-48127   2.730  40.253   5.100
75802ION    CL-48128  19.726  23.411  14.092
75803ION    CL-48129   3.484   3.240   3.250
75804ION    CL-48130  41.942  13.646   3.506
75805ION    CL-48131  12.096  26.943   1.548
75806ION    CL-48132  23.515  40.756  11.494
75807ION    CL-48133   8.954  33.619  11.113
75808ION    CL-48134  38.793   3.657  12.097
75809ION    CL-48135  22.109  33.992  11.519
75810ION    CL-48136  10.037  34.991   3.555
75811ION    CL-48137  15.203  18.272   4.826
75812ION    CL-48138  19.722  13.293   3.755
75813ION    CL-48139  42.335  31.156  11.393
75814ION    CL-48140  26.592  22.800  12.054
75815ION    CL-48141  40.786  39.819  12.422
75816ION    CL-48142  38.609   5.741  12.472
75817ION    CL-48143   2.414  41.566   2.638
75818ION    CL-48144  37.420  44.225  12.159
75819ION    CL-48145  26.481  26.675  12.627
75820ION    CL-48146   8.703  44.325   0.298
75821ION    CL-48147   6.298  43.462  14.900
75822ION    CL-48148  32.660   2.976   2.816
75823ION    CL-48149  27.701  29.850  12.645
75824ION    CL-48150  13.586  30.038   0.016
75825ION    CL-48151  22.167   1.736   4.966
75826ION    CL-48152  22.125   7.895   4.940
75827ION    CL-48153  24.503  19.674  11.039
75828ION    CL-48154  39.308  10.527   9.616
75829ION    CL-48155  13.329  26.421  10.844
75830ION    CL-48156  20.710  40.899  11.454
75831ION    CL-48157  16.587  38.918   1.232
75832ION    CL-48158  30.587  36.545   2.153
75833ION    CL-48159  35.659  28.541   4.187
75834ION    CL-48160  29.978   1.841  11.036
75835ION    CL-48161  12.990   0.317  10.413
75836ION    CL-48162  18.673  38.257  13.821
75837ION    CL-48163   3.359  27.162  10.721
75838ION    CL-48164   8.372  37.034   4.006
75839ION    CL-48165  16.192  38.335  13.822
75840ION    CL-48166  22.816  15.475   0.738
75841ION    CL-48167  43.010  33.158  11.994
75842ION    CL-48168  16.473  28.291  10.465
75843ION    CL-48169  40.456  27.717  12.893
75844ION    CL-48170   1.328  17.309  13.145
75845ION    CL-48171  40.920  37.051   1.648
75846ION    CL-48172  13.861  30.720  10.857
75847ION    CL-48173   8.129  25.609   1.602
75848ION    CL-48174  29.606  28.087  12.127
75849ION    CL-48175  44.889  15.552  12.654
75850ION    CL-48176  16.982  24.612  13.975
75851ION    CL-48177  38.668  24.218  13.382
75852ION    CL-48178   1.347  29.897  10.729
75853ION    CL-48179  22.266   3.962  13.033
75854ION    CL-48180  41.317  21.346   3.721
75855ION    CL-48181  35.429  23.060  14.180
75856ION    CL-48182  12.879  28.485   0.081
75857ION    CL-48183   1.572   8.614  14.043
75858ION    CL-48184  23.896   8.329  11.343
75859ION    CL-48185  30.403  19.260   3.830
75860ION    CL-48186   2.512   8.829   5.510
75861ION    CL-48187  34.575  26.265   3.475
75862ION    CL-48188  24.583   5.796   4.622
75863ION    CL-48189   1.744  15.283   5.031
75864ION    CL-48190  16.603  37.003   1.633
75865ION    CL-48191  20.334  26.566  14.043
75866ION    CL-48192  18.705   4.931   2.263
75867ION    CL-48193  16.297  14.581   1.765
75868ION    CL-48194  19.460   8.058   2.290
75869ION    CL-48195  43.060  16.223  12.666
75870ION    CL-48196  27.031  38.053   0.118
75871ION    CL-48197   6.631  17.121   2.865
75872ION    CL-48198  12.987  27.688  10.333
75873ION    CL-48199  38.928  34.271   1.238
75874ION    CL-48200  41.708   1.821   1.397
75875ION    CL-48201  19.010  16.561  13.722
75876ION    CL-48202  35.940  33.177   0.852
75877ION    CL-48203  18.375  15.394  11.998
75878ION    CL-48204   2.094   9.429   0.386
75879ION    CL-48205  41.829   1.880  13.105
75880ION    CL-48206  33.476  10.434  12.199
75881ION    CL-48207  15.822  24.163  12.010
75882ION    CL-48208  41.076   2.537  14.567
75883ION    CL-48209  13.748   8.117  13.128
75884ION    CL-48210   5.271   6.957   3.502
75885ION    CL-48211  25.504  11.657   0.701
75886ION    CL-48212  28.438  16.268   3.685
75887ION    CL-48213  20.210   2.547   4.121
75888ION    CL-48214   0.855  40.113   3.005
75889ION    CL-48215   1.877  44.830  13.606
75890ION    CL-48216  32.102  34.970   1.377
75891ION    CL-48217  39.109  29.487   2.842
75892ION    CL-48218  20.573  37.724  10.714
75893ION    CL-48219  36.888   1.126  12.378
75894ION    CL-48220  38.355  25.183  13.951
75895ION    CL-48221  11.055  33.239   4.998
75896ION    CL-48222   0.723  25.970  14.670
75897ION    CL-48223   0.255  17.331   3.853
75898ION    CL-48224  32.402  17.138  13.326
75899ION    CL-48225  32.817  44.763   2.214
75900ION    CL-48226  36.371  12.938   4.748
75901ION    CL-48227  19.414  25.972  13.879
75902ION    CL-48228  21.769   6.357  12.934
75903ION    CL-48229  42.974  43.336   2.636
75904ION    CL-48230  17.761  17.247   4.734
75905ION    CL-48231  18.741  30.431  11.947
75906ION    CL-48232  37.039  37.226  13.519
75907ION    CL-48233  36.954   0.124  12.184
75908ION    CL-48234  34.512  44.378   4.953
75909ION    CL-48235  18.083  44.934   0.937
75910ION    CL-48236  16.375  39.266  14.138
75911ION    CL-48237   4.072  33.531  14.542
75912ION    CL-48238  34.059  36.609   3.080
75913ION    CL-48239  38.086  39.010   2.703
75914ION    CL-48240   1.509  18.534  12.363
75915ION    CL-48241  44.632  42.830   4.054
75916ION    CL-48242   5.506   1.458  11.444
75917ION    CL-48243  19.486  21.509   2.916
75918ION    CL-48244  24.199  24.208  12.108
75919ION    CL-48245  33.529  29.553   3.697
75920ION    CL-48246   4.595  13.162  10.306
75921ION    CL-48247  27.894  11.169  14.918
75922ION    CL-48248  44.642  31.649  13.741
75923ION    CL-48249  28.650  11.861   0.599
75924ION    CL-48250  27.568  39.534   2.137
75925ION    CL-48251  10.085  25.958   4.009
75926ION    CL-48252   6.175  14.310  14.990
75927ION    CL-48253  12.980   0.619  12.559
75928ION    CL-48254  11.735  33.467   3.186
75929ION    CL-48255  27.629  40.835  12.762
75930ION    CL-48256  16.881   4.481  12.272
75931ION    CL-48257   2.061  28.154  13.055
75932ION    CL-48258   2.813  19.528  14.037
75933ION    CL-48259   5.430  32.137  13.388
75934ION    CL-48260  17.007  17.698  12.780
75935ION    CL-48261  40.231  29.411  14.019
75936ION    CL-48262  28.111  31.903  12.570
75937ION    CL-48263  36.640  20.927   4.309
75938ION    CL-48264  11.156  22.124   3.682
75939ION    CL-48265  41.203  22.442   1.298
75940ION    CL-48266   4.832  37.926  13.246
75941ION    CL-48267  28.777  26.112  13.391
75942ION    CL-48268  17.723  33.675  14.849
75943ION    CL-48269  20.133  34.651  11.167
75944ION    CL-48270   1.848  36.551   2.158
75945ION    CL-48271  25.631   3.718   0.807
75946ION    CL-48272  16.461   5.530  14.021
75947ION    CL-48273  39.747  29.548  12.233
75948ION    CL-48274  42.917  31.737  11.018
75949ION    CL-48275  28.786  27.494  12.237
75950ION    CL-48276  23.141  17.220   4.472
75951ION    CL-48277  25.442  13.131  11.961
75952ION    CL-48278  41.208  40.101  14.516
75953ION    CL-48279  27.811  25.869  13.305
75954ION    CL-48280  39.096  35.038   1.857
75955ION    CL-48281  12.058  27.940   1.245
75956ION    CL-48282  35.570   7.155  10.974
75957ION    CL-48283  23.014  16.419  13.070
75958ION    CL-48284  29.473  41.793   0.484
75959ION    CL-48285  36.580  38.421   4.163
75960ION    CL-48286   2.961   4.129  13.586
75961ION    CL-48287   1.258  44.760   3.782
75962ION    CL-48288  38.736   5.665   3.768
75963ION    CL-48289   4.815   3.223   0.721
75964ION    CL-48290  33.695   9.017  11.191
75965ION    CL-48291  41.017  42.455   4.546
75966ION    CL-48292  28.047  16.423   1.942
75967ION    CL-48293  15.409  28.631   2.830
75968ION    CL-48294  21.750   0.033   5.058
75969ION    CL-48295  18.222  26.464   3.625
75970ION    CL-48296  28.471   0.492  14.466
75971ION    CL-48297  37.548  41.244  14.845
75972ION    CL-48298  36.125  14.399  12.396
75973ION    CL-48299  33.849  44.959   5.063
75974ION    CL-48300  34.503  38.373   2.636
75975ION    CL-48301  32.356  22.535   1.789
75976ION    CL-48302  19.184  41.929  11.833
75977ION    CL-48303  18.550  11.288  10.607
75978ION    CL-48304   4.171  39.280  12.618
75979ION    CL-48305  43.693   8.742  14.168
75980ION    CL-48306  38.003   3.815   3.594
75981ION    CL-48307   4.399  18.386   3.332
75982ION    CL-48308  34.952  33.086  11.009
75983ION    CL-48309   7.249   5.778  11.911
75984ION    CL-48310  22.604   4.943   0.033
75985ION    CL-48311   5.347   1.414  13.771
75986ION    CL-48312  30.062  29.395   2.335
75987ION    CL-48313  12.742   6.959  14.332
75988ION    CL-48314  24.587  33.327  14.490
75989ION    CL-48315  43.781  43.782  14.340
75990ION    CL-48316  44.454   3.160  14.840
75991ION    CL-48317  12.319  41.951  12.100
75992ION    CL-48318  10.564  36.609   2.397
75993ION    CL-48319   0.326  10.107   0.304
75994ION    CL-48320  31.621   3.219   3.887
75995ION    CL-48321  22.944   9.928  12.602
75996ION    CL-48322  42.665  18.205  12.838
75997ION    CL-48323  33.199   0.513   2.876
75998ION    CL-48324  10.579  24.976   0.521
75999ION    CL-48325  40.800  30.175  13.714
76000ION    CL-48326  25.915  27.994   2.236
76001ION    CL-48327  27.583  11.940  13.722
76002ION    CL-48328   2.889  13.376   4.980
76003ION    CL-48329  27.129  22.976   1.878
76004ION    CL-48330  32.766  17.266   1.705
76005ION    CL-48331   1.548  26.516  12.384
76006ION    CL-48332  13.712  24.540  12.524
76007ION    CL-48333  21.790  25.486  14.410
76008ION    CL-48334  43.440  38.060  10.656
76009ION    CL-48335  44.385  10.490   3.621
76010ION    CL-48336   6.959  34.380   0.829
76011ION    CL-48337  25.815  13.882   0.026
76012ION    CL-48338   1.345  42.783   3.057
76013ION    CL-48339  23.542  20.648  12.118
76014ION    CL-48340  23.513  35.149  12.089
76015ION    CL-48341   4.987  26.207   1.983
76016ION    CL-48342   3.550  31.506   0.322
76017ION    CL-48343  15.007  15.222  14.744
76018ION    CL-48344   2.517   0.618  13.492
76019ION    CL-48345  16.894   4.565   1.427
76020ION    CL-48346   2.262  21.928   4.622
76021ION    CL-48347  43.585  30.009   4.724
76022ION    CL-48348  34.490  42.967   4.215
76023ION    CL-48349  20.820  19.807  11.752
76024ION    CL-48350   4.330  13.730   4.897
76025ION    CL-48351  40.867   2.770  13.249
76026ION    CL-48352  44.905  22.956  11.987
76027ION    CL-48353  22.590   2.320  12.017
76028ION    CL-48354  27.212  24.817   3.311
76029ION    CL-48355  18.788  36.464   0.930
76030ION    CL-48356  30.215   4.615  12.590
76031ION    CL-48357  39.047  33.256   2.583
76032ION    CL-48358  17.782  27.275   3.239
76033ION    CL-48359  43.975  25.683  14.477
76034ION    CL-48360   7.799  12.096  11.360
76035ION    CL-48361  37.966  26.581   1.504
76036ION    CL-48362  40.045   4.987   0.231
76037ION    CL-48363  25.990  25.039   2.041
76038ION    CL-48364   8.894  34.655  12.022
76039ION    CL-48365  13.343  19.218  11.593
76040ION    CL-48366  35.949  19.104  11.902
76041ION    CL-48367   8.647  29.394   5.057
76042ION    CL-48368  22.316   7.673   3.216
76043ION    CL-48369  15.311  24.399   3.117
76044ION    CL-48370   7.433  15.669  13.500
76045ION    CL-48371  11.999  20.050  14.915
76046ION    CL-48372  37.775  22.653  10.550
76047ION    CL-48373  35.064  12.378   2.147
76048ION    CL-48374  10.995  30.631  10.126
76049ION    CL-48375  25.751  28.856   1.191
76050ION    CL-48376  43.808  39.237  12.083
76051ION    CL-48377  24.808  28.388  13.786
76052ION    CL-48378  12.243  40.004  12.586
76053ION    CL-48379  41.494  14.995   4.666
76054ION    CL-48380  24.777   7.862  11.422
76055ION    CL-48381  35.024  29.624   2.347
76056ION    CL-48382  24.585  38.298  14.469
76057ION    CL-48383  22.505  10.550   4.127
76058ION    CL-48384   2.494  11.995   4.436
76059ION    CL-48385  33.743  28.554  10.724
76060ION    CL-48386  14.525   8.050  10.517
76061ION    CL-48387  24.268  19.406  12.394
76062ION    CL-48388  41.089   5.581   3.121
76063ION    CL-48389  25.596   2.980   2.711
76064ION    CL-48390  30.387   1.755   1.317
76065ION    CL-48391   2.700  37.159   2.844
76066ION    CL-48392  43.885  33.962  10.991
76067ION    CL-48393  29.673  41.738  13.093
76068ION    CL-48394   8.707  21.572   1.838
76069ION    CL-48395  10.324  19.469   3.247
76070ION    CL-48396   6.180  21.773  13.310
76071ION    CL-48397   5.688   4.657   4.412
76072ION    CL-48398  20.482   3.097  14.625
76073ION    CL-48399  19.279  39.767  11.384
76074ION    CL-48400  42.284  19.419   3.052
76075ION    CL-48401  44.640   5.134   4.582
76076ION    CL-48402  38.116  11.742  10.660
76077ION    CL-48403  39.714  39.343  11.436
76078ION    CL-48404   8.949  10.637   1.019
76079ION    CL-48405  43.262  27.975  13.617
76080ION    CL-48406  39.556  10.850   1.672
76081ION    CL-48407  35.216  26.045  11.587
76082ION    CL-48408   1.267  12.592  14.425
76083ION    CL-48409  40.530  30.770   4.386
76084ION    CL-48410  16.972  25.079   1.809
76085ION    CL-48411  19.655  19.437   2.415
76086ION    CL-48412   9.835  26.091  12.542
76087ION    CL-48413  33.535  12.384   5.096
76088ION    CL-48414  43.251  33.830  14.057
76089ION    CL-48415  30.943  37.990  10.686
76090ION    CL-48416  41.850  22.193   3.712
76091ION    CL-48417  44.524  25.116  13.863
76092ION    CL-48418   7.595   1.103   2.364
76093ION    CL-48419  37.123  10.824   2.821
76094ION    CL-48420  30.903  32.325   1.188
76095ION    CL-48421  17.842  27.732   4.127
76096ION    CL-48422  37.538  23.267   0.096
76097ION    CL-48423  33.625   4.167  12.084
76098ION    CL-48424  33.677  42.905  10.234
76099ION    CL-48425   0.762  19.395  11.212
76100ION    CL-48426  12.404  11.749   3.476
76101ION    CL-48427  23.425  31.494  14.863
76102ION    CL-48428  32.014  11.862  13.534
76103ION    CL-48429   8.889  12.090  10.939
76104ION    CL-48430  17.344  33.151   0.430
76105ION    CL-48431   1.187  26.314  11.566
76106ION    CL-48432  34.587  31.235  14.975
76107ION    CL-48433  28.424  34.640  12.476
76108ION    CL-48434  12.577  23.013  14.781
76109ION    CL-48435   3.097  37.492   0.707
76110ION    CL-48436   3.467  38.646   3.204
76111ION    CL-48437   0.527  37.794   0.430
76112ION    CL-48438  12.519  30.723  11.211
76113ION    CL-48439  28.748  13.999  14.484
76114ION    CL-48440  26.977  17.268   3.274
76115ION    CL-48441  34.760  32.836  12.965
76116ION    CL-48442   7.167   6.753   1.427
76117ION    CL-48443  27.744   3.897   3.707
76118ION    CL-48444  28.292  41.883   5.008
76119ION    CL-48445   9.476  27.940   3.105
76120ION    CL-48446  17.741   2.870   4.818
76121ION    CL-48447  27.635   3.086  14.733
76122ION    CL-48448  34.372   5.769   1.676
76123ION    CL-48449  44.124   7.682   4.196
76124ION    CL-48450  12.707  44.815   0.215
76125ION    CL-48451  44.296  23.597  11.520
76126ION    CL-48452   2.972  29.955  14.542
76127ION    CL-48453  34.810   5.342  14.361
76128ION    CL-48454  36.727  40.738   4.039
76129ION    CL-48455  29.930  25.890   3.439
76130ION    CL-48456   2.655  40.790   3.057
76131ION    CL-48457  12.708   7.661   3.722
76132ION    CL-48458  18.577  16.046   0.851
76133ION    CL-48459   3.141   5.970   1.245
76134ION    CL-48460   2.249  10.706  11.933
76135ION    CL-48461  17.573   0.294   4.606
76136ION    CL-48462  33.840  38.449  13.461
76137ION    CL-48463   9.636  26.742   5.076
76138ION    CL-48464   8.259  33.110  14.523
76139ION    CL-48465   9.329  29.508  12.647
76140ION    CL-48466  11.648  36.799  10.748
76141ION    CL-48467  30.328  27.698  11.011
76142ION    CL-48468   4.964  35.481  11.510
76143ION    CL-48469  28.373  37.324  12.983
76144ION    CL-48470  38.705  13.857   3.047
76145ION    CL-48471  11.158  25.988   3.814
76146ION    CL-48472  16.105  17.747  10.881
76147ION    CL-48473  16.077  30.361   1.782
76148ION    CL-48474  21.429  25.168   3.759
76149ION    CL-48475  33.131  13.694  13.875
76150ION    CL-48476  17.588  32.997   1.387
76151ION    CL-48477  33.487  43.311  14.270
76152ION    CL-48478  25.621  20.881  14.141
76153ION    CL-48479  39.644   1.292  13.750
76154ION    CL-48480  23.999  15.403  12.641
76155ION    CL-48481   7.776   7.720  14.106
76156ION    CL-48482  35.324  11.374  10.659
76157ION    CL-48483   0.268   5.439   0.642
76158ION    CL-48484   1.668  40.691   3.184
76159ION    CL-48485  31.701  10.094  13.321
76160ION    CL-48486   4.882  21.251   2.718
76161ION    CL-48487   1.291  39.792  11.590
76162ION    CL-48488  27.834  35.056  14.009
76163ION    CL-48489   0.822  36.955  10.422
76164ION    CL-48490  17.696  12.244  11.260
76165ION    CL-48491   5.436  13.361  10.833
76166ION    CL-48492  24.230  26.027   3.111
76167ION    CL-48493  26.700  25.343  12.632
76168ION    CL-48494   3.929  41.797  12.089
76169ION    CL-48495  24.946  28.140   2.438
76170ION    CL-48496  42.787   8.614  13.539
76171ION    CL-48497  17.885  23.842  14.997
76172ION    CL-48498  21.091  16.136  10.688
76173ION    CL-48499  14.638  11.931  14.550
76174ION    CL-48500  23.053  33.968  14.786
76175ION    CL-48501  13.296  23.481  11.628
76176ION    CL-48502  37.575  30.409   1.793
76177ION    CL-48503  43.119  44.636   1.211
76178ION    CL-48504   5.875  22.396  12.818
76179ION    CL-48505  31.913  13.616   4.913
76180ION    CL-48506   7.840   0.936   0.204
76181ION    CL-48507  41.763   3.381   3.397
76182ION    CL-48508   9.224  43.397  11.635
76183ION    CL-48509  38.925  31.974   0.945
76184ION    CL-48510  13.353  18.883   3.083
76185ION    CL-48511  15.310  35.387  14.505
76186ION    CL-48512  18.784  24.106   0.493
76187ION    CL-48513  17.627  43.169  12.130
76188ION    CL-48514   0.982  10.709  13.747
76189ION    CL-48515  14.023   5.452  11.944
76190ION    CL-48516  34.526   4.870  11.624
76191ION    CL-48517  43.299  42.547  12.993
76192ION    CL-48518  27.849  20.254   5.099
76193ION    CL-48519   3.747  19.866  11.703
76194ION    CL-48520  26.773  41.583  13.668
76195ION    CL-48521  18.652  14.098   0.895
76196ION    CL-48522  16.361  25.035  12.748
76197ION    CL-48523  44.486  44.890  11.141
76198ION    CL-48524  18.035  27.831  11.131
76199ION    CL-48525  44.445   3.933   3.750
76200ION    CL-48526  24.216  29.154  14.839
76201ION    CL-48527   9.730  17.124   0.245
76202ION    CL-48528  41.771  24.183  14.903
76203ION    CL-48529  34.886  23.588   9.715
76204ION    CL-48530  38.587  40.074  10.982
76205ION    CL-48531  17.347  43.670   0.618
76206ION    CL-48532  11.291  14.916   1.762
76207ION    CL-48533  10.671   7.600   4.100
76208ION    CL-48534   1.715  21.187  14.849
76209ION    CL-48535  17.699   3.509   2.163
76210ION    CL-48536  29.823  35.722  12.640
76211ION    CL-48537  21.617  32.641   3.690
76212ION    CL-48538  27.685  11.796   3.225
76213ION    CL-48539  25.026   3.921  13.403
76214ION    CL-48540  20.684   8.346  14.930
76215ION    CL-48541  21.745  24.013  13.012
76216ION    CL-48542  15.518  25.571  12.002
76217ION    CL-48543  38.126  15.270   2.720
76218ION    CL-48544  32.020   5.477  14.860
76219ION    CL-48545  27.301  43.221  13.837
76220ION    CL-48546   9.689  26.823  10.342
76221ION    CL-48547  25.926  40.051  11.928
76222ION    CL-48548  22.063  32.827   1.430
76223ION    CL-48549   0.518  20.592  11.575
76224ION    CL-48550  30.485  31.997  14.450
76225ION    CL-48551  13.256   1.536  14.117
76226ION    CL-48552  35.773  24.184   1.519
76227ION    CL-48553  13.272  13.173   2.865
76228ION    CL-48554   3.550   0.723   5.029
76229ION    CL-48555   8.568  25.469  12.346
76230ION    CL-48556   6.883  37.748  12.072
76231ION    CL-48557  12.721  36.795   3.807
76232ION    CL-48558   4.040   0.227  12.737
76233ION    CL-48559   2.627  13.082   5.470
76234ION    CL-48560  23.009   6.975  10.600
76235ION    CL-48561  21.069  31.430  11.219
76236ION    CL-48562   4.739  41.431  13.941
76237ION    CL-48563   5.326  36.929   4.610
76238ION    CL-48564   8.431  17.223  13.653
76239ION    CL-48565  32.154   2.513  13.010
76240ION    CL-48566  31.478   7.092   1.049
76241ION    CL-48567  23.707   8.408  10.445
76242ION    CL-48568  37.359   5.657  11.823
76243ION    CL-48569   0.073  15.784  10.615
76244ION    CL-48570  19.666  17.035  14.914
76245ION    CL-48571   9.757  37.480   0.997
76246ION    CL-48572  14.392   7.210  14.026
76247ION    CL-48573  37.768   1.239  14.392
76248ION    CL-48574   0.637  28.424   0.241
76249ION    CL-48575  37.442   9.447   1.530
76250ION    CL-48576   9.900   7.837   1.887
76251ION    CL-48577  34.700  41.097  10.449
76252ION    CL-48578  32.975   9.698   3.898
76253ION    CL-48579  24.312  16.595  14.945
76254ION    CL-48580   4.350   2.726  14.321
76255ION    CL-48581  10.816  24.017  14.545
76256ION    CL-48582  11.508   3.604   9.638
76257ION    CL-48583  36.231  40.210   4.845
76258ION    CL-48584  43.707  43.586  11.599
76259ION    CL-48585   7.890  40.581   2.677
76260ION    CL-48586   1.010  38.561  11.320
76261ION    CL-48587   5.502  44.771  13.311
76262ION    CL-48588  17.610  40.354   0.703
76263ION    CL-48589   0.306  23.477   1.929
76264ION    CL-48590  10.761  29.592   4.134
76265ION    CL-48591  23.615  14.345  14.716
76266ION    CL-48592  27.365  23.358   0.395
76267ION    CL-48593   5.840   6.674   4.318
76268ION    CL-48594  43.045  43.661   1.693
76269ION    CL-48595  18.889  16.541   4.935
76270ION    CL-48596  17.685  34.618  12.976
76271ION    CL-48597  13.652  17.820  14.983
76272ION    CL-48598  31.492   0.166  13.008
76273ION    CL-48599  31.871  23.223   2.378
76274ION    CL-48600   2.611  43.640  11.049
76275ION    CL-48601  39.960   7.511   2.522
76276ION    CL-48602  16.612   6.820   2.785
76277ION    CL-48603   2.791  32.405  14.722
76278ION    CL-48604  28.801  30.260   2.687
76279ION    CL-48605  35.166  43.901  12.601
76280ION    CL-48606   9.273  13.494  12.796
76281ION    CL-48607  27.647   6.676  12.055
76282ION    CL-48608  41.934   0.969  13.809
76283ION    CL-48609  19.362  38.856   3.245
76284ION    CL-48610  42.756  19.059  13.349
76285ION    CL-48611  42.788  26.368  11.239
76286ION    CL-48612  24.468   2.810   1.662
76287ION    CL-48613  16.570  26.018   4.771
76288ION    CL-48614  11.699  11.654  12.806
76289ION    CL-48615   0.075  30.945  14.387
76290ION    CL-48616  11.774  43.016   3.294
76291ION    CL-48617  13.086  22.605  10.781
76292ION    CL-48618  13.525   1.932   4.941
76293ION    CL-48619  28.479  33.352   5.116
76294ION    CL-48620  14.820  26.768  12.958
76295ION    CL-48621  34.573  26.796  11.922
76296ION    CL-48622  16.185  42.277  14.805
76297ION    CL-48623  39.351   2.685  10.420
76298ION    CL-48624   0.624   2.207  13.466
76299ION    CL-48625  35.134  27.731   0.854
76300ION    CL-48626  29.591  25.355   0.327
76301ION    CL-48627  27.148  40.485   3.300
76302ION    CL-48628  42.464   4.247  14.974
76303ION    CL-48629  24.643  42.001  11.595
76304ION    CL-48630  20.907  11.237   3.719
76305ION    CL-48631  22.326   4.705  12.093
76306ION    CL-48632  20.166  19.699  11.003
76307ION    CL-48633   4.489  30.364  11.101
76308ION    CL-48634   2.927   5.612  12.795
76309ION    CL-48635  26.090  25.437   1.040
76310ION    CL-48636  17.526   5.304   0.439
76311ION    CL-48637  22.026  18.122   1.744
76312ION    CL-48638  23.749   2.493  14.876
76313ION    CL-48639  44.486  22.664   1.286
76314ION    CL-48640  13.352  34.822  12.504
76315ION    CL-48641   4.997  20.892  14.569
76316ION    CL-48642  18.589  26.187   0.663
76317ION    CL-48643  14.130  37.941  12.404
76318ION    CL-48644  25.869   6.757   3.164
76319ION    CL-48645  31.919  40.904   2.069
76320ION    CL-48646  12.652   7.434   0.518
76321ION    CL-48647  32.156  25.228   5.138
76322ION    CL-48648  11.265  19.596  14.607
76323ION    CL-48649  40.337  19.659   3.136
76324ION    CL-48650  18.810  32.147   3.761
76325ION    CL-48651   5.771  10.121   3.734
76326ION    CL-48652  43.331  15.924   9.762
76327ION    CL-48653   8.423   0.393  13.915
76328ION    CL-48654  29.465   0.331  13.492
76329ION    CL-48655  24.614  43.625   4.186
76330ION    CL-48656   6.632   4.926   4.156
76331ION    CL-48657  41.897  43.230  13.533
76332ION    CL-48658  13.852  33.476   5.515
76333ION    CL-48659   5.335  34.125   1.108
76334ION    CL-48660  43.698  13.628   1.277
76335ION    CL-48661   2.339  44.342  14.346
76336ION    CL-48662  39.834  18.522  11.056
76337ION    CL-48663  24.681  31.167   0.637
76338ION    CL-48664   7.667  35.643   2.336
76339ION    CL-48665  14.384  21.129  13.456
76340ION    CL-48666  42.315  35.518   1.468
76341ION    CL-48667   7.353   2.267   0.274
76342ION    CL-48668   3.737  17.620  11.483
76343ION    CL-48669   0.283  21.159   3.221
76344ION    CL-48670   7.748  14.921  11.228
76345ION    CL-48671  21.391  40.617   2.184
76346ION    CL-48672   0.891  27.710   0.767
76347ION    CL-48673  13.857  13.930   2.572
76348ION    CL-48674   5.531  22.300   3.866
76349ION    CL-48675  19.439  13.898   1.551
76350ION    CL-48676  31.735  36.618  14.109
76351ION    CL-48677   0.702  16.295  13.482
76352ION    CL-48678   6.397  18.768  11.438
76353ION    CL-48679   9.713  44.915   4.416
76354ION    CL-48680  27.104   6.723   0.414
76355ION    CL-48681   4.859  42.551   0.515
76356ION    CL-48682  28.788  20.051   0.248
76357ION    CL-48683  29.178  26.893  11.016
76358ION    CL-48684   7.545  13.841   3.950
76359ION    CL-48685  41.484  26.833   0.948
76360ION    CL-48686   1.754  41.896  10.910
76361ION    CL-48687  40.361  14.953   2.255
76362ION    CL-48688  42.811  34.848  14.800
76363ION    CL-48689  11.764  24.373  13.612
76364ION    CL-48690   7.502  21.121   4.573
76365ION    CL-48691  25.507  22.278   2.843
76366ION    CL-48692   7.390  11.865   4.921
76367ION    CL-48693  17.622  33.846  13.609
76368ION    CL-48694   8.620  14.285  12.907
76369ION    CL-48695  24.160   1.410  13.512
76370ION    CL-48696  36.601   1.247   3.336
76371ION    CL-48697   5.247  21.359   3.644
76372ION    CL-48698   2.047  42.996  11.289
76373ION    CL-48699   4.643  43.876   0.230
76374ION    CL-48700  29.001  20.981  14.947
76375ION    CL-48701  40.278  33.267  14.420
76376ION    CL-48702   8.027  29.292   3.019
76377ION    CL-48703  10.295   7.614   0.717
76378ION    CL-48704  15.677   5.648   0.374
76379ION    CL-48705  39.365  21.040  14.384
76380ION    CL-48706  23.434  26.971   2.807
76381ION    CL-48707  28.536  16.399  12.423
76382ION    CL-48708  17.653  25.798  10.411
76383ION    CL-48709  38.824  35.723   5.237
76384ION    CL-48710  30.045  21.559  14.853
76385ION    CL-48711  39.585  32.359   4.049
76386ION    CL-48712  12.223  28.152  13.876
  45.00000  45.00000  15.00000
